;----------------------------TITLE -----------------------------------------------------------------------------------------
;   Dihydrogen
[ moleculetype ]
; Name   nrexcl
7Y9E     3
[ atoms ]
;  nr  type  resnr  resid  atom  cgnr  charge    mass
    1     H    1    7Y9E     H2    1    0.000   1.0080
    2     H    1    7Y9E     H1    2    0.000   1.0080
; total charge of the molecule:   0.000
[ bonds ]
;  ai   aj  funct   c0         c1
    1    2    2   0.0743   3.1700e+07
[ pairs ]
;  ai   aj  funct  ;  all 1-4 pairs but the ones excluded in GROMOS itp
[ angles ]
;  ai   aj   ak  funct   angle     fc
[ dihedrals ]
; GROMOS improper dihedrals
;  ai   aj   ak   al  funct   angle     fc
[ dihedrals ]
;  ai   aj   ak   al  funct    ph0      cp     mult
[ exclusions ]
;  ai   aj  funct  ;  GROMOS 1-4 exclusions
