SHORT HYDROPHOBIC PEPTIDE WITH CYCLIC CONSTRAINTS in water
 2641
    1HIS      N    1   1.866   1.421   2.099
    1HIS     H1    2   1.773   1.396   2.132
    1HIS     H2    3   1.856   1.439   1.999
    1HIS     H3    4   1.930   1.344   2.112
    1HIS     CA    5   1.916   1.543   2.164
    1HIS     HA    6   1.916   1.527   2.271
    1HIS     CB    7   2.059   1.580   2.122
    1HIS    HB1    8   2.093   1.661   2.186
    1HIS    HB2    9   2.058   1.617   2.020
    1HIS     CG   10   2.158   1.466   2.129
    1HIS    ND1   11   2.147   1.345   2.060
    1HIS    CE1   12   2.255   1.274   2.096
    1HIS    HE1   13   2.279   1.175   2.059
    1HIS    NE2   14   2.329   1.341   2.185
    1HIS    HE2   15   2.418   1.310   2.223
    1HIS    CD2   16   2.269   1.463   2.207
    1HIS    HD2   17   2.301   1.541   2.275
    1HIS      C   18   1.826   1.661   2.135
    1HIS      O   19   1.794   1.687   2.019
    2ALA      N   20   1.782   1.729   2.241
    2ALA      H   21   1.812   1.700   2.333
    2ALA     CA   22   1.695   1.847   2.239
    2ALA     HA   23   1.658   1.863   2.340
    2ALA     CB   24   1.781   1.969   2.209
    2ALA    HB1   25   1.719   2.058   2.210
    2ALA    HB2   26   1.857   1.980   2.286
    2ALA    HB3   27   1.829   1.961   2.111
    2ALA      C   28   1.565   1.834   2.155
    2ALA      O   29   1.502   1.935   2.127
    3GLU      N   30   1.526   1.713   2.116
    3GLU      H   31   1.586   1.636   2.141
    3GLU     CA   32   1.425   1.682   2.013
    3GLU     HA   33   1.419   1.573   2.009
    3GLU     CB   34   1.286   1.733   2.057
    3GLU    HB1   35   1.287   1.842   2.058
    3GLU    HB2   36   1.267   1.700   2.159
    3GLU     CG   37   1.167   1.691   1.970
    3GLU    HG1   38   1.185   1.721   1.866
    3GLU    HG2   39   1.080   1.747   2.005
    3GLU     CD   40   1.139   1.540   1.980
    3GLU    OE1   41   1.230   1.462   1.946
    3GLU    OE2   42   1.030   1.504   2.030
    3GLU      C   43   1.467   1.723   1.871
    3GLU      O   44   1.428   1.661   1.773
    4GLY      N   45   1.559   1.819   1.857
    4GLY      H   46   1.598   1.861   1.940
    4GLY     CA   47   1.602   1.868   1.726
    4GLY    HA1   48   1.673   1.950   1.741
    4GLY    HA2   49   1.514   1.904   1.673
    4GLY      C   50   1.670   1.760   1.642
    4GLY      O   51   1.641   1.746   1.523
    5THR      N   52   1.756   1.677   1.702
    5THR      H   53   1.773   1.684   1.802
    5THR     CA   54   1.822   1.570   1.625
    5THR     HA   55   1.874   1.615   1.540
    5THR     CB   56   1.926   1.493   1.707
    5THR     HB   57   1.969   1.414   1.644
    5THR    CG2   58   2.038   1.581   1.757
    5THR   HG21   59   2.106   1.523   1.819
    5THR   HG22   60   2.092   1.618   1.672
    5THR   HG23   61   1.998   1.665   1.814
    5THR    OG1   62   1.871   1.433   1.820
    5THR    HG1   63   1.904   1.343   1.821
    5THR      C   64   1.722   1.471   1.566
    5THR      O   65   1.743   1.424   1.454
    6PHE      N   66   1.615   1.438   1.638
    6PHE      H   67   1.605   1.481   1.729
    6PHE     CA   68   1.510   1.346   1.593
    6PHE     HA   69   1.555   1.253   1.559
    6PHE     CB   70   1.414   1.314   1.709
    6PHE    HB1   71   1.370   1.408   1.743
    6PHE    HB2   72   1.470   1.270   1.791
    6PHE     CG   73   1.303   1.218   1.671
    6PHE    CD1   74   1.333   1.093   1.614
    6PHE    HD1   75   1.436   1.064   1.597
    6PHE    CE1   76   1.229   1.005   1.577
    6PHE    HE1   77   1.251   0.910   1.532
    6PHE     CZ   78   1.095   1.043   1.596
    6PHE     HZ   79   1.016   0.976   1.565
    6PHE    CE2   80   1.064   1.167   1.654
    6PHE    HE2   81   0.961   1.197   1.668
    6PHE    CD2   82   1.168   1.254   1.692
    6PHE    HD2   83   1.145   1.350   1.737
    6PHE      C   84   1.432   1.405   1.476
    6PHE      O   85   1.407   1.335   1.378
    7THR      N   86   1.403   1.535   1.481
    7THR      H   87   1.420   1.586   1.567
    7THR     CA   88   1.343   1.606   1.368
    7THR     HA   89   1.247   1.560   1.346
    7THR     CB   90   1.322   1.754   1.400
    7THR     HB   91   1.417   1.803   1.419
    7THR    CG2   92   1.251   1.820   1.282
    7THR   HG21   93   1.232   1.924   1.305
    7THR   HG22   94   1.314   1.817   1.193
    7THR   HG23   95   1.159   1.765   1.264
    7THR    OG1   96   1.237   1.771   1.511
    7THR    HG1   97   1.230   1.866   1.528
    7THR      C   98   1.431   1.595   1.244
    7THR      O   99   1.382   1.561   1.136
    8SER      N  100   1.561   1.623   1.257
    8SER      H  101   1.596   1.655   1.346
    8SER     CA  102   1.655   1.613   1.144
    8SER     HA  103   1.622   1.680   1.065
    8SER     CB  104   1.797   1.652   1.186
    8SER    HB1  105   1.861   1.646   1.099
    8SER    HB2  106   1.833   1.581   1.261
    8SER     OG  107   1.807   1.783   1.241
    8SER     HG  108   1.902   1.800   1.249
    8SER      C  109   1.660   1.471   1.088
    8SER      O  110   1.663   1.454   0.967
    9ASP      N  111   1.659   1.368   1.174
    9ASP      H  112   1.657   1.388   1.273
    9ASP     CA  113   1.662   1.227   1.132
    9ASP     HA  114   1.744   1.213   1.063
    9ASP     CB  115   1.683   1.137   1.255
    9ASP    HB1  116   1.593   1.137   1.316
    9ASP    HB2  117   1.764   1.177   1.315
    9ASP     CG  118   1.720   0.992   1.220
    9ASP    OD1  119   1.767   0.969   1.105
    9ASP    OD2  120   1.709   0.907   1.310
    9ASP      C  121   1.536   1.187   1.056
    9ASP      O  122   1.543   1.131   0.946
   10PHE      N  123   1.420   1.223   1.111
   10PHE      H  124   1.421   1.270   1.201
   10PHE     CA  125   1.291   1.192   1.051
   10PHE     HA  126   1.282   1.084   1.041
   10PHE     CB  127   1.183   1.244   1.146
   10PHE    HB1  128   1.198   1.351   1.160
   10PHE    HB2  129   1.194   1.195   1.242
   10PHE     CG  130   1.042   1.220   1.095
   10PHE    CD1  131   1.002   1.089   1.061
   10PHE    HD1  132   1.070   1.006   1.074
   10PHE    CE1  133   0.873   1.066   1.010
   10PHE    HE1  134   0.843   0.966   0.984
   10PHE     CZ  135   0.785   1.175   0.991
   10PHE     HZ  136   0.686   1.158   0.952
   10PHE    CE2  137   0.825   1.305   1.025
   10PHE    HE2  138   0.757   1.387   1.010
   10PHE    CD2  139   0.954   1.327   1.077
   10PHE    HD2  140   0.984   1.427   1.104
   10PHE      C  141   1.275   1.254   0.912
   10PHE      O  142   1.223   1.190   0.820
   11PHE      N  143   1.323   1.377   0.895
   11PHE      H  144   1.361   1.425   0.976
   11PHE     CA  145   1.320   1.447   0.767
   11PHE     HA  146   1.224   1.430   0.718
   11PHE     CB  147   1.339   1.598   0.790
   11PHE    HB1  148   1.367   1.641   0.694
   11PHE    HB2  149   1.421   1.615   0.858
   11PHE     CG  150   1.216   1.672   0.838
   11PHE    CD1  151   1.140   1.627   0.948
   11PHE    HD1  152   1.170   1.539   1.003
   11PHE    CE1  153   1.022   1.693   0.986
   11PHE    HE1  154   0.965   1.655   1.069
   11PHE     CZ  155   0.981   1.806   0.915
   11PHE     HZ  156   0.891   1.859   0.943
   11PHE    CE2  157   1.057   1.855   0.808
   11PHE    HE2  158   1.025   1.942   0.753
   11PHE    CD2  159   1.175   1.789   0.770
   11PHE    HD2  160   1.233   1.827   0.687
   11PHE      C  161   1.429   1.391   0.673
   11PHE      O  162   1.403   1.354   0.560
   12NH2      N  163   1.553   1.380   0.717
   12NH2     H1  164   1.573   1.403   0.814
   12NH2     H2  165   1.622   1.338   0.658
   13SOL     OW  166   0.230   0.661   0.103
   13SOL    HW1  167   0.168   0.610   0.155
   13SOL    HW2  168   0.250   0.605   0.028
   14SOL     OW  169   0.207   0.269   0.999
   14SOL    HW1  170   0.245   0.248   1.084
   14SOL    HW2  171   0.114   0.251   1.009
   15SOL     OW  172   0.008   0.386   0.659
   15SOL    HW1  173   2.924   0.424   0.685
   15SOL    HW2  174   2.984   0.314   0.601
   16SOL     OW  175   0.552   1.280   1.181
   16SOL    HW1  176   0.466   1.287   1.139
   16SOL    HW2  177   0.570   1.367   1.216
   17SOL     OW  178   1.126   0.695   0.706
   17SOL    HW1  179   1.177   0.774   0.688
   17SOL    HW2  180   1.080   0.714   0.788
   18SOL     OW  181   1.769   0.596   0.230
   18SOL    HW1  182   1.742   0.580   0.139
   18SOL    HW2  183   1.727   0.526   0.280
   19SOL     OW  184   0.855   0.786   1.819
   19SOL    HW1  185   0.856   0.854   1.887
   19SOL    HW2  186   0.869   0.833   1.737
   20SOL     OW  187   0.682   1.004   0.653
   20SOL    HW1  188   0.762   1.014   0.704
   20SOL    HW2  189   0.617   1.056   0.699
   21SOL     OW  190   0.696   1.150   1.814
   21SOL    HW1  191   0.751   1.226   1.829
   21SOL    HW2  192   0.615   1.185   1.777
   22SOL     OW  193   0.328   1.437   1.068
   22SOL    HW1  194   0.267   1.384   1.017
   22SOL    HW2  195   0.385   1.478   1.003
   23SOL     OW  196   0.449   0.401   1.496
   23SOL    HW1  197   0.524   0.342   1.497
   23SOL    HW2  198   0.372   0.344   1.506
   24SOL     OW  199   1.614   0.458   0.735
   24SOL    HW1  200   1.537   0.485   0.686
   24SOL    HW2  201   1.630   0.529   0.797
   25SOL     OW  202   0.221   1.717   0.471
   25SOL    HW1  203   0.240   1.795   0.523
   25SOL    HW2  204   0.296   1.708   0.412
   26SOL     OW  205   0.240   1.448   0.526
   26SOL    HW1  206   0.207   1.537   0.534
   26SOL    HW2  207   0.185   1.397   0.585
   27SOL     OW  208   0.249   1.082   0.887
   27SOL    HW1  209   0.254   0.998   0.933
   27SOL    HW2  210   0.194   1.137   0.943
   28SOL     OW  211   0.612   1.796   1.423
   28SOL    HW1  212   0.534   1.771   1.473
   28SOL    HW2  213   0.638   1.881   1.458
   29SOL     OW  214   0.592   0.977   0.147
   29SOL    HW1  215   0.616   1.045   0.085
   29SOL    HW2  216   0.635   1.001   0.228
   30SOL     OW  217   1.549   0.143   1.461
   30SOL    HW1  218   1.589   0.214   1.411
   30SOL    HW2  219   1.615   0.121   1.528
   31SOL     OW  220   0.122   0.629   0.570
   31SOL    HW1  221   0.083   0.551   0.610
   31SOL    HW2  222   0.118   0.696   0.639
   32SOL     OW  223   1.846   1.762   0.336
   32SOL    HW1  224   1.899   1.727   0.408
   32SOL    HW2  225   1.872   1.854   0.329
   33SOL     OW  226   1.690   0.919   0.631
   33SOL    HW1  227   1.779   0.885   0.622
   33SOL    HW2  228   1.672   0.962   0.547
   34SOL     OW  229   1.651   1.111   0.429
   34SOL    HW1  230   1.736   1.115   0.385
   34SOL    HW2  231   1.661   1.166   0.506
   35SOL     OW  232   0.127   0.747   1.593
   35SOL    HW1  233   0.222   0.755   1.601
   35SOL    HW2  234   0.095   0.837   1.585
   36SOL     OW  235   0.604   1.384   0.734
   36SOL    HW1  236   0.564   1.298   0.741
   36SOL    HW2  237   0.591   1.408   0.642
   37SOL     OW  238   0.818   0.009   0.505
   37SOL    HW1  239   0.847   0.100   0.496
   37SOL    HW2  240   0.723   0.014   0.499
   38SOL     OW  241   0.190   0.960   1.272
   38SOL    HW1  242   0.275   0.922   1.251
   38SOL    HW2  243   0.127   0.910   1.220
   39SOL     OW  244   1.511   1.001   0.207
   39SOL    HW1  245   1.445   0.941   0.243
   39SOL    HW2  246   1.557   1.035   0.285
   40SOL     OW  247   0.329   0.252   1.795
   40SOL    HW1  248   0.382   0.329   1.818
   40SOL    HW2  249   0.247   0.264   1.842
   41SOL     OW  250   1.657   1.721   0.577
   41SOL    HW1  251   1.633   1.695   0.489
   41SOL    HW2  252   1.633   1.646   0.632
   42SOL     OW  253   0.590   0.719   0.262
   42SOL    HW1  254   0.606   0.802   0.217
   42SOL    HW2  255   0.532   0.742   0.335
   43SOL     OW  256   1.286   0.338   0.928
   43SOL    HW1  257   1.193   0.315   0.939
   43SOL    HW2  258   1.330   0.291   0.999
   44SOL     OW  259   1.591   1.667   0.308
   44SOL    HW1  260   1.678   1.705   0.300
   44SOL    HW2  261   1.565   1.648   0.218
   45SOL     OW  262   0.795   0.613   1.457
   45SOL    HW1  263   0.763   0.592   1.545
   45SOL    HW2  264   0.751   0.551   1.400
   46SOL     OW  265   1.399   0.480   1.678
   46SOL    HW1  266   1.395   0.518   1.766
   46SOL    HW2  267   1.456   0.403   1.687
   47SOL     OW  268   0.995   0.414   1.233
   47SOL    HW1  269   0.919   0.440   1.284
   47SOL    HW2  270   0.958   0.374   1.154
   48SOL     OW  271   1.047   0.705   0.425
   48SOL    HW1  272   1.064   0.701   0.519
   48SOL    HW2  273   0.967   0.653   0.413
   49SOL     OW  274   0.102   0.820   0.762
   49SOL    HW1  275   0.181   0.812   0.816
   49SOL    HW2  276   0.042   0.872   0.815
   50SOL     OW  277   0.138   1.833   1.572
   50SOL    HW1  278   0.126   1.812   1.664
   50SOL    HW2  279   0.052   1.860   1.541
   51SOL     OW  280   0.928   0.337   0.219
   51SOL    HW1  281   0.935   0.401   0.148
   51SOL    HW2  282   0.880   0.263   0.180
   52SOL     OW  283   1.710   0.584   1.828
   52SOL    HW1  284   1.679   0.664   1.786
   52SOL    HW2  285   1.729   0.525   1.755
   53SOL     OW  286   1.360   1.095   0.496
   53SOL    HW1  287   1.453   1.103   0.476
   53SOL    HW2  288   1.330   1.185   0.509
   54SOL     OW  289   0.513   0.196   0.911
   54SOL    HW1  290   0.535   0.209   1.004
   54SOL    HW2  291   0.548   0.275   0.868
   55SOL     OW  292   0.994   1.442   0.479
   55SOL    HW1  293   0.964   1.520   0.432
   55SOL    HW2  294   0.996   1.470   0.571
   56SOL     OW  295   0.353   1.801   0.851
   56SOL    HW1  296   0.401   1.720   0.865
   56SOL    HW2  297   0.417   1.870   0.871
   57SOL     OW  298   1.808   1.065   0.859
   57SOL    HW1  299   1.731   1.053   0.804
   57SOL    HW2  300   1.782   1.030   0.945
   58SOL     OW  301   0.320   0.953   0.226
   58SOL    HW1  302   0.413   0.958   0.205
   58SOL    HW2  303   0.294   0.864   0.203
   59SOL     OW  304   1.481   0.731   0.728
   59SOL    HW1  305   1.464   0.690   0.812
   59SOL    HW2  306   1.546   0.799   0.746
   60SOL     OW  307   0.460   1.260   1.736
   60SOL    HW1  308   0.434   1.269   1.644
   60SOL    HW2  309   0.379   1.270   1.785
   61SOL     OW  310   1.109   1.778   0.222
   61SOL    HW1  311   1.056   1.729   0.284
   61SOL    HW2  312   1.143   1.711   0.162
   62SOL     OW  313   0.199   0.295   1.495
   62SOL    HW1  314   0.116   0.342   1.491
   62SOL    HW2  315   0.185   0.226   1.559
   63SOL     OW  316   1.627   1.366   0.083
   63SOL    HW1  317   1.596   1.457   0.077
   63SOL    HW2  318   1.547   1.313   0.079
   64SOL     OW  319   0.461   1.737   0.319
   64SOL    HW1  320   0.496   1.795   0.386
   64SOL    HW2  321   0.537   1.718   0.263
   65SOL     OW  322   1.409   0.103   0.436
   65SOL    HW1  323   1.390   0.080   0.345
   65SOL    HW2  324   1.501   0.128   0.436
   66SOL     OW  325   0.262   1.797   1.234
   66SOL    HW1  326   0.303   1.728   1.286
   66SOL    HW2  327   0.233   1.752   1.154
   67SOL     OW  328   0.388   0.695   0.472
   67SOL    HW1  329   0.422   0.607   0.488
   67SOL    HW2  330   0.297   0.690   0.501
   68SOL     OW  331   1.539   0.246   1.733
   68SOL    HW1  332   1.542   0.255   1.828
   68SOL    HW2  333   1.480   0.172   1.718
   69SOL     OW  334   0.610   0.109   0.109
   69SOL    HW1  335   0.705   0.110   0.120
   69SOL    HW2  336   0.597   0.139   0.018
   70SOL     OW  337   0.765   0.267   1.747
   70SOL    HW1  338   0.840   0.212   1.767
   70SOL    HW2  339   0.722   0.281   1.832
   71SOL     OW  340   1.340   0.589   1.431
   71SOL    HW1  341   1.373   0.558   1.516
   71SOL    HW2  342   1.384   0.673   1.417
   72SOL     OW  343   0.921   0.505   0.906
   72SOL    HW1  344   0.902   0.501   0.812
   72SOL    HW2  345   0.962   0.420   0.926
   73SOL     OW  346   0.538   0.046   0.494
   73SOL    HW1  347   0.453   0.041   0.538
   73SOL    HW2  348   0.534   0.127   0.443
   74SOL     OW  349   1.415   1.206   0.051
   74SOL    HW1  350   1.435   1.130   0.106
   74SOL    HW2  351   1.325   1.230   0.075
   75SOL     OW  352   0.301   0.080   0.194
   75SOL    HW1  353   0.380   0.134   0.186
   75SOL    HW2  354   0.334   2.991   0.206
   76SOL     OW  355   0.943   0.250   0.473
   76SOL    HW1  356   0.919   0.289   0.389
   76SOL    HW2  357   1.038   0.260   0.477
   77SOL     OW  358   1.079   0.689   1.470
   77SOL    HW1  359   1.003   0.631   1.470
   77SOL    HW2  360   1.153   0.631   1.451
   78SOL     OW  361   0.464   1.146   0.740
   78SOL    HW1  362   0.393   1.127   0.801
   78SOL    HW2  363   0.427   1.130   0.653
   79SOL     OW  364   1.045   0.502   0.027
   79SOL    HW1  365   1.001   0.586   0.017
   79SOL    HW2  366   1.110   0.517   0.095
   80SOL     OW  367   0.080   0.564   1.391
   80SOL    HW1  368   0.169   0.559   1.356
   80SOL    HW2  369   0.085   0.629   1.461
   81SOL     OW  370   0.577   0.213   1.174
   81SOL    HW1  371   0.610   0.161   1.247
   81SOL    HW2  372   0.485   0.227   1.194
   82SOL     OW  373   0.873   0.465   0.640
   82SOL    HW1  374   0.826   0.517   0.574
   82SOL    HW2  375   0.884   0.379   0.600
   83SOL     OW  376   1.000   0.051   0.767
   83SOL    HW1  377   0.964   0.061   0.679
   83SOL    HW2  378   0.976   2.962   0.793
   84SOL     OW  379   1.471   0.598   0.974
   84SOL    HW1  380   1.419   0.520   0.990
   84SOL    HW2  381   1.531   0.603   1.049
   85SOL     OW  382   1.850   0.820   0.379
   85SOL    HW1  383   1.901   0.763   0.437
   85SOL    HW2  384   1.821   0.763   0.308
   86SOL     OW  385   0.491   1.407   0.154
   86SOL    HW1  386   0.422   1.380   0.215
   86SOL    HW2  387   0.450   1.399   0.068
   87SOL     OW  388   1.411   0.578   0.096
   87SOL    HW1  389   1.339   0.569   0.159
   87SOL    HW2  390   1.462   0.498   0.107
   88SOL     OW  391   0.527   0.263   0.327
   88SOL    HW1  392   0.567   0.211   0.257
   88SOL    HW2  393   0.507   0.347   0.286
   89SOL     OW  394   1.793   1.199   1.629
   89SOL    HW1  395   1.858   1.158   1.572
   89SOL    HW2  396   1.752   1.265   1.573
   90SOL     OW  397   1.062   1.391   1.388
   90SOL    HW1  398   0.983   1.340   1.399
   90SOL    HW2  399   1.133   1.328   1.398
   91SOL     OW  400   0.902   0.107   1.391
   91SOL    HW1  401   0.940   0.091   1.305
   91SOL    HW2  402   0.968   0.159   1.437
   92SOL     OW  403   0.703   1.060   0.379
   92SOL    HW1  404   0.693   1.049   0.474
   92SOL    HW2  405   0.783   1.012   0.358
   93SOL     OW  406   0.418   0.811   1.249
   93SOL    HW1  407   0.487   0.824   1.314
   93SOL    HW2  408   0.383   0.724   1.268
   94SOL     OW  409   1.271   0.383   1.264
   94SOL    HW1  410   1.301   0.459   1.314
   94SOL    HW2  411   1.179   0.401   1.246
   95SOL     OW  412   0.067   1.571   1.311
   95SOL    HW1  413   0.032   1.658   1.329
   95SOL    HW2  414   0.156   1.573   1.348
   96SOL     OW  415   0.351   1.107   0.495
   96SOL    HW1  416   0.363   1.180   0.434
   96SOL    HW2  417   0.362   1.029   0.441
   97SOL     OW  418   0.554   0.541   0.862
   97SOL    HW1  419   0.574   0.596   0.786
   97SOL    HW2  420   0.618   0.567   0.928
   98SOL     OW  421   1.224   1.358   0.358
   98SOL    HW1  422   1.294   1.396   0.412
   98SOL    HW2  423   1.145   1.369   0.410
   99SOL     OW  424   1.585   0.628   0.475
   99SOL    HW1  425   1.542   0.677   0.544
   99SOL    HW2  426   1.624   0.696   0.419
  100SOL     OW  427   0.348   1.525   1.323
  100SOL    HW1  428   0.331   1.485   1.238
  100SOL    HW2  429   0.443   1.536   1.326
  101SOL     OW  430   0.409   0.742   1.600
  101SOL    HW1  431   0.467   0.793   1.543
  101SOL    HW2  432   0.459   0.661   1.617
  102SOL     OW  433   1.596   0.801   1.665
  102SOL    HW1  434   1.504   0.806   1.638
  102SOL    HW2  435   1.645   0.817   1.584
  103SOL     OW  436   1.004   0.108   1.762
  103SOL    HW1  437   1.044   0.191   1.736
  103SOL    HW2  438   1.029   0.047   1.693
  104SOL     OW  439   0.501   0.050   1.750
  104SOL    HW1  440   0.472   2.994   1.678
  104SOL    HW2  441   0.433   0.116   1.759
  105SOL     OW  442   0.577   0.876   1.031
  105SOL    HW1  443   0.610   0.966   1.039
  105SOL    HW2  444   0.523   0.864   1.109
  106SOL     OW  445   1.340   0.842   1.066
  106SOL    HW1  446   1.297   0.863   0.983
  106SOL    HW2  447   1.399   0.769   1.045
  107SOL     OW  448   1.205   0.529   0.270
  107SOL    HW1  449   1.213   0.450   0.325
  107SOL    HW2  450   1.171   0.596   0.330
  108SOL     OW  451   0.323   0.207   1.247
  108SOL    HW1  452   0.289   0.250   1.325
  108SOL    HW2  453   0.274   0.125   1.241
  109SOL     OW  454   0.034   1.305   1.278
  109SOL    HW1  455   0.068   1.259   1.354
  109SOL    HW2  456   0.045   1.398   1.300
  110SOL     OW  457   0.724   0.631   1.059
  110SOL    HW1  458   0.800   0.611   1.004
  110SOL    HW2  459   0.703   0.722   1.040
  111SOL     OW  460   1.737   0.954   1.856
  111SOL    HW1  461   1.686   0.913   1.786
  111SOL    HW2  462   1.674   0.968   1.926
  112SOL     OW  463   0.308   0.068   0.640
  112SOL    HW1  464   0.304   0.155   0.681
  112SOL    HW2  465   0.285   0.008   0.710
  113SOL     OW  466   1.611   0.372   0.369
  113SOL    HW1  467   1.643   0.310   0.434
  113SOL    HW2  468   1.587   0.450   0.420
  114SOL     OW  469   1.025   0.756   0.959
  114SOL    HW1  470   1.031   0.777   1.052
  114SOL    HW2  471   0.998   0.664   0.957
  115SOL     OW  472   0.978   1.571   1.703
  115SOL    HW1  473   0.962   1.609   1.617
  115SOL    HW2  474   1.030   1.493   1.686
  116SOL     OW  475   0.353   0.912   1.808
  116SOL    HW1  476   0.434   0.938   1.852
  116SOL    HW2  477   0.381   0.852   1.739
  117SOL     OW  478   1.509   0.295   0.124
  117SOL    HW1  479   1.465   0.212   0.145
  117SOL    HW2  480   1.562   0.314   0.201
  118SOL     OW  481   1.290   0.826   0.029
  118SOL    HW1  482   1.333   0.743   0.049
  118SOL    HW2  483   1.326   0.851   2.943
  119SOL     OW  484   0.312   0.809   0.947
  119SOL    HW1  485   0.405   0.832   0.946
  119SOL    HW2  486   0.309   0.723   0.988
  120SOL     OW  487   0.336   0.514   1.015
  120SOL    HW1  488   0.296   0.430   0.989
  120SOL    HW2  489   0.410   0.525   0.956
  121SOL     OW  490   1.142   0.383   1.697
  121SOL    HW1  491   1.097   0.439   1.761
  121SOL    HW2  492   1.228   0.423   1.686
  122SOL     OW  493   1.103   0.248   1.476
  122SOL    HW1  494   1.125   0.303   1.551
  122SOL    HW2  495   1.181   0.252   1.420
  123SOL     OW  496   0.001   1.326   0.179
  123SOL    HW1  497   2.909   1.334   0.154
  123SOL    HW2  498   0.006   1.243   0.227
  124SOL     OW  499   0.097   1.806   0.962
  124SOL    HW1  500   0.055   1.738   0.909
  124SOL    HW2  501   0.183   1.819   0.922
  125SOL     OW  502   0.499   1.571   0.901
  125SOL    HW1  503   0.569   1.630   0.930
  125SOL    HW2  504   0.544   1.505   0.848
  126SOL     OW  505   0.991   0.793   1.231
  126SOL    HW1  506   1.042   0.776   1.310
  126SOL    HW2  507   0.902   0.766   1.253
  127SOL     OW  508   0.045   0.559   1.106
  127SOL    HW1  509   0.133   0.532   1.082
  127SOL    HW2  510   0.040   0.543   1.200
  128SOL     OW  511   0.194   0.516   1.719
  128SOL    HW1  512   0.267   0.494   1.660
  128SOL    HW2  513   0.157   0.596   1.682
  129SOL     OW  514   0.815   0.573   0.350
  129SOL    HW1  515   0.821   0.496   0.293
  129SOL    HW2  516   0.735   0.617   0.322
  130SOL     OW  517   1.632   0.576   1.184
  130SOL    HW1  518   1.634   0.535   1.271
  130SOL    HW2  519   1.724   0.580   1.157
  131SOL     OW  520   0.273   1.561   1.742
  131SOL    HW1  521   0.219   1.616   1.799
  131SOL    HW2  522   0.250   1.471   1.766
  132SOL     OW  523   0.687   0.459   1.265
  132SOL    HW1  524   0.646   0.380   1.229
  132SOL    HW2  525   0.692   0.519   1.191
  133SOL     OW  526   0.912   1.687   1.472
  133SOL    HW1  527   0.927   1.648   1.385
  133SOL    HW2  528   0.935   1.779   1.461
  134SOL     OW  529   0.446   0.495   0.198
  134SOL    HW1  530   0.512   0.561   0.216
  134SOL    HW2  531   0.364   0.544   0.193
  135SOL     OW  532   0.156   1.143   1.464
  135SOL    HW1  533   0.151   1.093   1.545
  135SOL    HW2  534   0.168   1.077   1.396
  136SOL     OW  535   1.316   0.836   0.304
  136SOL    HW1  536   1.240   0.838   0.363
  136SOL    HW2  537   1.279   0.841   0.216
  137SOL     OW  538   0.092   1.246   1.027
  137SOL    HW1  539   0.079   1.261   1.120
  137SOL    HW2  540   0.005   1.255   0.988
  138SOL     OW  541   0.677   1.663   1.722
  138SOL    HW1  542   0.633   1.747   1.717
  138SOL    HW2  543   0.746   1.668   1.655
  139SOL     OW  544   0.883   0.081   0.138
  139SOL    HW1  545   0.947   0.067   0.068
  139SOL    HW2  546   0.919   0.033   0.213
  140SOL     OW  547   1.716   0.140   0.507
  140SOL    HW1  548   1.787   0.136   0.444
  140SOL    HW2  549   1.725   0.060   0.559
  141SOL     OW  550   1.361   1.611   0.438
  141SOL    HW1  551   1.444   1.616   0.390
  141SOL    HW2  552   1.354   1.696   0.482
  142SOL     OW  553   0.122   1.803   1.844
  142SOL    HW1  554   0.082   1.730   1.893
  142SOL    HW2  555   0.182   1.843   1.906
  143SOL     OW  556   1.275   0.909   0.667
  143SOL    HW1  557   1.354   0.857   0.679
  143SOL    HW2  558   1.303   0.983   0.613
  144SOL     OW  559   0.820   1.270   1.430
  144SOL    HW1  560   0.791   1.312   1.511
  144SOL    HW2  561   0.746   1.279   1.370
  145SOL     OW  562   0.667   1.613   0.160
  145SOL    HW1  563   0.677   1.625   0.066
  145SOL    HW2  564   0.618   1.531   0.169
  146SOL     OW  565   1.848   0.158   0.967
  146SOL    HW1  566   1.853   0.078   0.916
  146SOL    HW2  567   1.765   0.199   0.940
  147SOL     OW  568   0.268   0.334   0.741
  147SOL    HW1  569   0.179   0.366   0.727
  147SOL    HW2  570   0.268   0.304   0.832
  148SOL     OW  571   1.206   1.605   0.031
  148SOL    HW1  572   1.201   1.516   0.065
  148SOL    HW2  573   1.149   1.604   2.954
  149SOL     OW  574   0.815   1.005   1.364
  149SOL    HW1  575   0.875   1.001   1.290
  149SOL    HW2  576   0.825   1.093   1.399
  150SOL     OW  577   0.914   0.921   0.297
  150SOL    HW1  578   0.982   0.964   0.246
  150SOL    HW2  579   0.961   0.862   0.356
  151SOL     OW  580   1.492   1.605   0.050
  151SOL    HW1  581   1.397   1.614   0.058
  151SOL    HW2  582   1.511   1.630   2.960
  152SOL     OW  583   0.369   1.302   1.493
  152SOL    HW1  584   0.356   1.382   1.442
  152SOL    HW2  585   0.292   1.248   1.474
  153SOL     OW  586   1.003   1.055   0.676
  153SOL    HW1  587   0.996   1.073   0.770
  153SOL    HW2  588   1.097   1.050   0.659
  154SOL     OW  589   1.017   0.241   0.965
  154SOL    HW1  590   1.011   0.190   0.884
  154SOL    HW2  591   1.018   0.176   1.035
  155SOL     OW  592   0.595   1.484   0.481
  155SOL    HW1  593   0.642   1.436   0.412
  155SOL    HW2  594   0.542   1.547   0.434
  156SOL     OW  595   1.721   0.387   1.385
  156SOL    HW1  596   1.789   0.454   1.377
  156SOL    HW2  597   1.746   0.320   1.321
  157SOL     OW  598   0.255   1.359   0.282
  157SOL    HW1  599   0.165   1.328   0.272
  157SOL    HW2  600   0.260   1.388   0.373
  158SOL     OW  601   0.125   1.016   1.715
  158SOL    HW1  602   0.051   0.969   1.753
  158SOL    HW2  603   0.202   0.978   1.757
  159SOL     OW  604   0.664   0.207   1.493
  159SOL    HW1  605   0.747   0.181   1.452
  159SOL    HW2  606   0.687   0.223   1.584
  160SOL     OW  607   0.070   0.320   0.048
  160SOL    HW1  608   2.976   0.327   0.030
  160SOL    HW2  609   0.106   0.403   0.016
  161SOL     OW  610   1.463   0.845   1.394
  161SOL    HW1  611   1.405   0.885   1.329
  161SOL    HW2  612   1.551   0.860   1.361
  162SOL     OW  613   0.038   0.184   0.290
  162SOL    HW1  614   0.048   0.247   0.218
  162SOL    HW2  615   0.126   0.149   0.302
  163SOL     OW  616   1.181   1.346   0.102
  163SOL    HW1  617   1.087   1.325   0.097
  163SOL    HW2  618   1.200   1.347   0.196
  164SOL     OW  619   0.617   0.831   1.433
  164SOL    HW1  620   0.670   0.909   1.416
  164SOL    HW2  621   0.681   0.760   1.440
  165SOL     OW  622   0.713   0.565   1.711
  165SOL    HW1  623   0.750   0.632   1.768
  165SOL    HW2  624   0.763   0.486   1.731
  166SOL     OW  625   0.389   1.739   1.563
  166SOL    HW1  626   0.301   1.775   1.552
  166SOL    HW2  627   0.376   1.656   1.608
  167SOL     OW  628   1.225   0.316   0.453
  167SOL    HW1  629   1.288   0.244   0.455
  167SOL    HW2  630   1.246   0.368   0.531
  168SOL     OW  631   0.592   0.739   0.663
  168SOL    HW1  632   0.632   0.826   0.653
  168SOL    HW2  633   0.519   0.740   0.601
  169SOL     OW  634   1.768   0.351   1.648
  169SOL    HW1  635   1.749   0.374   1.557
  169SOL    HW2  636   1.685   0.316   1.681
  170SOL     OW  637   0.900   1.375   0.057
  170SOL    HW1  638   0.831   1.384   0.123
  170SOL    HW2  639   0.866   1.424   2.982
  171SOL     OW  640   0.654   1.798   0.958
  171SOL    HW1  641   0.625   1.884   0.928
  171SOL    HW2  642   0.732   1.779   0.905
  172SOL     OW  643   1.098   1.018   0.096
  172SOL    HW1  644   1.066   1.054   0.013
  172SOL    HW2  645   1.164   0.954   0.070
  173SOL     OW  646   1.880   1.559   0.837
  173SOL    HW1  647   1.799   1.558   0.786
  173SOL    HW2  648   1.872   1.483   0.896
  174SOL     OW  649   0.216   1.307   1.852
  174SOL    HW1  650   0.177   1.221   1.835
  174SOL    HW2  651   0.214   1.315   1.948
  175SOL     OW  652   0.127   1.251   0.663
  175SOL    HW1  653   0.084   1.187   0.720
  175SOL    HW2  654   0.180   1.198   0.604
  176SOL     OW  655   0.671   1.402   1.613
  176SOL    HW1  656   0.598   1.355   1.654
  176SOL    HW2  657   0.681   1.481   1.665
  177SOL     OW  658   1.798   0.177   1.235
  177SOL    HW1  659   1.841   0.097   1.267
  177SOL    HW2  660   1.824   0.184   1.143
  178SOL     OW  661   0.455   0.435   0.540
  178SOL    HW1  662   0.454   0.369   0.471
  178SOL    HW2  663   0.403   0.397   0.611
  179SOL     OW  664   0.329   0.551   1.290
  179SOL    HW1  665   0.387   0.498   1.345
  179SOL    HW2  666   0.352   0.526   1.200
  180SOL     OW  667   0.808   1.589   0.694
  180SOL    HW1  668   0.814   1.608   0.601
  180SOL    HW2  669   0.748   1.515   0.700
  181SOL     OW  670   1.426   0.213   1.127
  181SOL    HW1  671   1.457   0.148   1.190
  181SOL    HW2  672   1.379   0.277   1.179
  182SOL     OW  673   1.012   0.028   1.152
  182SOL    HW1  674   0.939   2.984   1.108
  182SOL    HW2  675   1.086   2.969   1.139
  183SOL     OW  676   0.765   1.330   0.312
  183SOL    HW1  677   0.738   1.240   0.328
  183SOL    HW2  678   0.851   1.338   0.354
  184SOL     OW  679   0.616   1.562   1.279
  184SOL    HW1  680   0.619   1.640   1.335
  184SOL    HW2  681   0.706   1.552   1.248
  185SOL     OW  682   1.358   0.055   0.172
  185SOL    HW1  683   1.410   2.987   0.129
  185SOL    HW2  684   1.267   0.026   0.161
  186SOL     OW  685   1.295   0.458   0.681
  186SOL    HW1  686   1.244   0.538   0.691
  186SOL    HW2  687   1.296   0.419   0.769
  187SOL     OW  688   1.603   0.229   0.884
  187SOL    HW1  689   1.525   0.231   0.939
  187SOL    HW2  690   1.596   0.308   0.829
  188SOL     OW  691   0.069   1.096   0.325
  188SOL    HW1  692   0.150   1.049   0.303
  188SOL    HW2  693   0.007   1.027   0.347
  189SOL     OW  694   0.881   1.650   0.343
  189SOL    HW1  695   0.809   1.630   0.283
  189SOL    HW2  696   0.851   1.725   0.394
  190SOL     OW  697   0.237   0.646   1.972
  190SOL    HW1  698   0.168   0.607   2.026
  190SOL    HW2  699   0.228   0.603   1.887
  191SOL     OW  700   0.235   0.248   2.850
  191SOL    HW1  701   0.253   0.239   2.943
  191SOL    HW2  702   0.140   0.238   2.843
  192SOL     OW  703   0.008   0.384   2.522
  192SOL    HW1  704   2.923   0.422   2.545
  192SOL    HW2  705   2.986   0.313   2.462
  193SOL     OW  706   1.539   1.483   2.579
  193SOL    HW1  707   1.489   1.471   2.660
  193SOL    HW2  708   1.472   1.497   2.512
  194SOL     OW  709   1.132   0.698   2.567
  194SOL    HW1  710   1.182   0.778   2.552
  194SOL    HW2  711   1.083   0.716   2.647
  195SOL     OW  712   1.765   0.607   2.094
  195SOL    HW1  713   1.745   0.600   2.001
  195SOL    HW2  714   1.730   0.527   2.133
  196SOL     OW  715   0.751   1.145   2.893
  196SOL    HW1  716   0.692   1.192   2.952
  196SOL    HW2  717   0.806   1.214   2.854
  197SOL     OW  718   0.684   1.009   2.512
  197SOL    HW1  719   0.749   0.993   2.581
  197SOL    HW2  720   0.615   1.058   2.556
  198SOL     OW  721   0.304   1.469   2.924
  198SOL    HW1  722   0.275   1.385   2.890
  198SOL    HW2  723   0.377   1.495   2.869
  199SOL     OW  724   1.616   0.456   2.593
  199SOL    HW1  725   1.539   0.480   2.541
  199SOL    HW2  726   1.620   0.521   2.662
  200SOL     OW  727   0.220   1.711   2.346
  200SOL    HW1  728   0.244   1.795   2.387
  200SOL    HW2  729   0.279   1.703   2.272
  201SOL     OW  730   0.245   1.445   2.387
  201SOL    HW1  731   0.215   1.536   2.388
  201SOL    HW2  732   0.183   1.399   2.444
  202SOL     OW  733   0.233   1.083   2.747
  202SOL    HW1  734   0.256   1.004   2.795
  202SOL    HW2  735   0.197   1.142   2.814
  203SOL     OW  736   0.588   0.978   1.994
  203SOL    HW1  737   0.628   1.032   1.926
  203SOL    HW2  738   0.632   1.006   2.075
  204SOL     OW  739   0.125   0.626   2.434
  204SOL    HW1  740   0.083   0.549   2.473
  204SOL    HW2  741   0.120   0.694   2.501
  205SOL     OW  742   0.031   1.598   1.994
  205SOL    HW1  743   0.023   1.503   2.004
  205SOL    HW2  744   2.982   1.634   2.069
  206SOL     OW  745   1.693   0.923   2.498
  206SOL    HW1  746   1.776   0.880   2.477
  206SOL    HW2  747   1.667   0.968   2.418
  207SOL     OW  748   1.645   1.107   2.288
  207SOL    HW1  749   1.731   1.112   2.247
  207SOL    HW2  750   1.650   1.165   2.363
  208SOL     OW  751   0.606   1.379   2.594
  208SOL    HW1  752   0.561   1.295   2.600
  208SOL    HW2  753   0.593   1.407   2.503
  209SOL     OW  754   0.820   0.009   2.369
  209SOL    HW1  755   0.848   0.099   2.353
  209SOL    HW2  756   0.724   0.012   2.361
  210SOL     OW  757   1.544   0.985   2.055
  210SOL    HW1  758   1.462   0.940   2.073
  210SOL    HW2  759   1.568   1.027   2.137
  211SOL     OW  760   1.431   1.419   2.813
  211SOL    HW1  761   1.406   1.413   2.905
  211SOL    HW2  762   1.442   1.328   2.786
  212SOL     OW  763   1.681   1.681   2.496
  212SOL    HW1  764   1.621   1.706   2.426
  212SOL    HW2  765   1.635   1.612   2.543
  213SOL     OW  766   0.596   0.723   2.124
  213SOL    HW1  767   0.609   0.802   2.071
  213SOL    HW2  768   0.533   0.749   2.191
  214SOL     OW  769   1.294   0.332   2.806
  214SOL    HW1  770   1.199   0.322   2.802
  214SOL    HW2  771   1.319   0.298   2.892
  215SOL     OW  772   1.049   0.698   2.290
  215SOL    HW1  773   1.063   0.692   2.384
  215SOL    HW2  774   0.966   0.651   2.275
  216SOL     OW  775   0.102   0.815   2.626
  216SOL    HW1  776   0.182   0.810   2.678
  216SOL    HW2  777   0.051   0.884   2.669
  217SOL     OW  778   0.873   0.352   2.048
  217SOL    HW1  779   0.932   0.411   2.002
  217SOL    HW2  780   0.903   0.264   2.025
  218SOL     OW  781   1.381   1.140   2.411
  218SOL    HW1  782   1.450   1.121   2.349
  218SOL    HW2  783   1.325   1.203   2.366
  219SOL     OW  784   0.552   0.195   2.826
  219SOL    HW1  785   0.512   0.266   2.876
  219SOL    HW2  786   0.568   0.232   2.739
  220SOL     OW  787   1.022   1.453   2.346
  220SOL    HW1  788   0.975   1.507   2.283
  220SOL    HW2  789   0.985   1.477   2.431
  221SOL     OW  790   0.354   1.802   2.718
  221SOL    HW1  791   0.402   1.720   2.727
  221SOL    HW2  792   0.420   1.871   2.730
  222SOL     OW  793   1.804   1.064   2.717
  222SOL    HW1  794   1.744   1.039   2.647
  222SOL    HW2  795   1.750   1.066   2.796
  223SOL     OW  796   0.315   0.950   2.104
  223SOL    HW1  797   0.399   0.977   2.067
  223SOL    HW2  798   0.298   0.865   2.063
  224SOL     OW  799   1.473   0.740   2.588
  224SOL    HW1  800   1.466   0.686   2.667
  224SOL    HW2  801   1.552   0.793   2.602
  225SOL     OW  802   1.610   1.398   1.982
  225SOL    HW1  803   1.564   1.459   1.924
  225SOL    HW2  804   1.568   1.313   1.965
  226SOL     OW  805   0.465   1.742   2.181
  226SOL    HW1  806   0.511   1.791   2.249
  226SOL    HW2  807   0.535   1.707   2.125
  227SOL     OW  808   1.408   0.107   2.296
  227SOL    HW1  809   1.391   0.078   2.207
  227SOL    HW2  810   1.502   0.129   2.297
  228SOL     OW  811   0.224   1.738   0.110
  228SOL    HW1  812   0.310   1.735   0.151
  228SOL    HW2  813   0.242   1.756   0.018
  229SOL     OW  814   0.939   1.693   2.758
  229SOL    HW1  815   1.016   1.637   2.765
  229SOL    HW2  816   0.886   1.651   2.689
  230SOL     OW  817   0.390   0.694   2.339
  230SOL    HW1  818   0.423   0.605   2.351
  230SOL    HW2  819   0.298   0.689   2.362
  231SOL     OW  820   0.622   0.120   1.976
  231SOL    HW1  821   0.713   0.090   1.971
  231SOL    HW2  822   0.586   0.102   1.889
  232SOL     OW  823   0.803   1.407   2.786
  232SOL    HW1  824   0.890   1.394   2.749
  232SOL    HW2  825   0.743   1.395   2.712
  233SOL     OW  826   0.920   0.518   2.759
  233SOL    HW1  827   0.902   0.498   2.667
  233SOL    HW2  828   0.952   0.435   2.796
  234SOL     OW  829   0.544   0.060   2.367
  234SOL    HW1  830   0.455   0.044   2.400
  234SOL    HW2  831   0.533   0.131   2.303
  235SOL     OW  832   0.292   0.035   2.049
  235SOL    HW1  833   0.343   0.109   2.018
  235SOL    HW2  834   0.357   2.973   2.083
  236SOL     OW  835   0.937   0.251   2.326
  236SOL    HW1  836   0.908   0.297   2.248
  236SOL    HW2  837   1.032   0.263   2.327
  237SOL     OW  838   1.220   1.583   2.670
  237SOL    HW1  839   1.248   1.641   2.598
  237SOL    HW2  840   1.300   1.571   2.722
  238SOL     OW  841   0.460   1.145   2.603
  238SOL    HW1  842   0.386   1.126   2.661
  238SOL    HW2  843   0.426   1.129   2.515
  239SOL     OW  844   1.276   1.802   2.464
  239SOL    HW1  845   1.292   1.866   2.395
  239SOL    HW2  846   1.206   1.840   2.516
  240SOL     OW  847   1.022   0.549   1.884
  240SOL    HW1  848   0.985   0.635   1.861
  240SOL    HW2  849   1.088   0.568   1.950
  241SOL     OW  850   0.875   0.466   2.498
  241SOL    HW1  851   0.824   0.515   2.433
  241SOL    HW2  852   0.885   0.379   2.459
  242SOL     OW  853   1.001   0.047   2.625
  242SOL    HW1  854   0.964   0.055   2.537
  242SOL    HW2  855   0.978   2.959   2.653
  243SOL     OW  856   1.438   1.163   2.710
  243SOL    HW1  857   1.365   1.101   2.715
  243SOL    HW2  858   1.452   1.177   2.616
  244SOL     OW  859   1.491   0.584   2.821
  244SOL    HW1  860   1.425   0.515   2.831
  244SOL    HW2  861   1.512   0.610   2.910
  245SOL     OW  862   1.852   0.823   2.242
  245SOL    HW1  863   1.905   0.766   2.298
  245SOL    HW2  864   1.818   0.765   2.174
  246SOL     OW  865   0.492   1.409   2.031
  246SOL    HW1  866   0.412   1.379   2.073
  246SOL    HW2  867   0.476   1.397   1.937
  247SOL     OW  868   1.676   1.268   2.496
  247SOL    HW1  869   1.765   1.273   2.531
  247SOL    HW2  870   1.631   1.342   2.535
  248SOL     OW  871   1.393   0.572   1.934
  248SOL    HW1  872   1.333   0.553   2.005
  248SOL    HW2  873   1.477   0.537   1.963
  249SOL     OW  874   0.526   0.264   2.185
  249SOL    HW1  875   0.563   0.210   2.115
  249SOL    HW2  876   0.511   0.349   2.144
  250SOL     OW  877   1.650   1.108   2.930
  250SOL    HW1  878   1.647   1.171   0.002
  250SOL    HW2  879   1.562   1.110   2.892
  251SOL     OW  880   0.704   1.054   2.234
  251SOL    HW1  881   0.697   1.045   2.330
  251SOL    HW2  882   0.783   1.004   2.212
  252SOL     OW  883   0.349   1.107   2.356
  252SOL    HW1  884   0.365   1.180   2.296
  252SOL    HW2  885   0.360   1.029   2.301
  253SOL     OW  886   0.548   0.545   2.730
  253SOL    HW1  887   0.570   0.593   2.650
  253SOL    HW2  888   0.617   0.568   2.792
  254SOL     OW  889   1.260   1.337   2.278
  254SOL    HW1  890   1.295   1.425   2.290
  254SOL    HW2  891   1.165   1.351   2.268
  255SOL     OW  892   1.587   0.628   2.339
  255SOL    HW1  893   1.539   0.684   2.400
  255SOL    HW2  894   1.622   0.687   2.273
  256SOL     OW  895   0.574   0.873   2.881
  256SOL    HW1  896   0.620   0.953   2.859
  256SOL    HW2  897   0.551   0.882   2.973
  257SOL     OW  898   1.212   0.533   2.134
  257SOL    HW1  899   1.215   0.453   2.185
  257SOL    HW2  900   1.167   0.596   2.191
  258SOL     OW  901   0.729   0.640   2.917
  258SOL    HW1  902   0.798   0.613   2.856
  258SOL    HW2  903   0.701   0.726   2.886
  259SOL     OW  904   0.308   0.067   2.503
  259SOL    HW1  905   0.301   0.154   2.544
  259SOL    HW2  906   0.283   0.006   2.572
  260SOL     OW  907   1.606   0.372   2.233
  260SOL    HW1  908   1.645   0.311   2.296
  260SOL    HW2  909   1.588   0.451   2.284
  261SOL     OW  910   1.021   0.763   2.820
  261SOL    HW1  911   1.027   0.772   2.915
  261SOL    HW2  912   0.996   0.672   2.805
  262SOL     OW  913   1.532   0.274   1.993
  262SOL    HW1  914   1.468   0.208   2.022
  262SOL    HW2  915   1.565   0.312   2.074
  263SOL     OW  916   1.298   0.829   1.899
  263SOL    HW1  917   1.338   0.742   1.904
  263SOL    HW2  918   1.327   0.863   1.814
  264SOL     OW  919   1.053   1.346   2.701
  264SOL    HW1  920   1.061   1.264   2.652
  264SOL    HW2  921   1.126   1.399   2.672
  265SOL     OW  922   0.310   0.812   2.812
  265SOL    HW1  923   0.404   0.832   2.810
  265SOL    HW2  924   0.306   0.723   2.848
  266SOL     OW  925   0.322   0.518   2.872
  266SOL    HW1  926   0.292   0.430   2.849
  266SOL    HW2  927   0.400   0.532   2.819
  267SOL     OW  928   2.992   1.322   2.049
  267SOL    HW1  929   2.902   1.320   2.017
  267SOL    HW2  930   0.004   1.239   2.094
  268SOL     OW  931   0.099   1.803   2.824
  268SOL    HW1  932   0.058   1.738   2.766
  268SOL    HW2  933   0.184   1.821   2.784
  269SOL     OW  934   0.505   1.571   2.768
  269SOL    HW1  935   0.576   1.633   2.786
  269SOL    HW2  936   0.545   1.505   2.711
  270SOL     OW  937   0.979   0.751   0.087
  270SOL    HW1  938   1.034   0.756   0.166
  270SOL    HW2  939   0.892   0.778   0.117
  271SOL     OW  940   0.813   0.568   2.215
  271SOL    HW1  941   0.817   0.495   2.154
  271SOL    HW2  942   0.740   0.621   2.185
  272SOL     OW  943   0.700   0.440   0.094
  272SOL    HW1  944   0.606   0.423   0.094
  272SOL    HW2  945   0.710   0.517   0.038
  273SOL     OW  946   0.467   0.495   2.050
  273SOL    HW1  947   0.528   0.567   2.067
  273SOL    HW2  948   0.381   0.537   2.044
  274SOL     OW  949   1.308   0.854   2.173
  274SOL    HW1  950   1.228   0.828   2.217
  274SOL    HW2  951   1.289   0.843   2.080
  275SOL     OW  952   1.734   1.766   2.970
  275SOL    HW1  953   1.817   1.787   2.926
  275SOL    HW2  954   1.753   1.688   0.021
  276SOL     OW  955   0.081   1.262   2.901
  276SOL    HW1  956   0.044   1.250   2.989
  276SOL    HW2  957   0.004   1.267   2.844
  277SOL     OW  958   1.722   0.143   2.370
  277SOL    HW1  959   1.785   0.134   2.299
  277SOL    HW2  960   1.728   0.060   2.417
  278SOL     OW  961   1.412   1.584   2.351
  278SOL    HW1  962   1.407   1.586   2.256
  278SOL    HW2  963   1.346   1.647   2.381
  279SOL     OW  964   1.277   0.923   2.532
  279SOL    HW1  965   1.350   0.862   2.536
  279SOL    HW2  966   1.311   0.997   2.482
  280SOL     OW  967   0.663   1.625   2.017
  280SOL    HW1  968   0.690   1.624   1.925
  280SOL    HW2  969   0.628   1.538   2.033
  281SOL     OW  970   1.852   0.162   2.815
  281SOL    HW1  971   1.852   0.076   2.773
  281SOL    HW2  972   1.766   0.199   2.796
  282SOL     OW  973   0.271   0.336   2.601
  282SOL    HW1  974   0.181   0.368   2.590
  282SOL    HW2  975   0.273   0.302   2.690
  283SOL     OW  976   0.915   0.909   2.153
  283SOL    HW1  977   0.973   0.940   2.083
  283SOL    HW2  978   0.964   0.838   2.194
  284SOL     OW  979   1.049   1.103   2.574
  284SOL    HW1  980   0.976   1.050   2.606
  284SOL    HW2  981   1.106   1.041   2.529
  285SOL     OW  982   1.013   0.243   2.813
  285SOL    HW1  983   1.008   0.182   2.739
  285SOL    HW2  984   1.041   0.190   2.887
  286SOL     OW  985   0.593   1.483   2.347
  286SOL    HW1  986   0.647   1.437   2.283
  286SOL    HW2  987   0.540   1.544   2.294
  287SOL     OW  988   0.252   1.345   2.141
  287SOL    HW1  989   0.157   1.346   2.129
  287SOL    HW2  990   0.265   1.383   2.228
  288SOL     OW  991   0.096   0.328   1.913
  288SOL    HW1  992   0.012   0.299   1.877
  288SOL    HW2  993   0.112   0.412   1.869
  289SOL     OW  994   0.025   0.214   2.148
  289SOL    HW1  995   0.065   0.262   2.076
  289SOL    HW2  996   0.088   0.145   2.169
  290SOL     OW  997   1.505   1.776   2.824
  290SOL    HW1  998   1.522   1.836   2.751
  290SOL    HW2  999   1.582   1.784   2.880
  291SOL     OW 1000   1.714   0.849   0.058
  291SOL    HW1 1001   1.641   0.808   0.105
  291SOL    HW2 1002   1.690   0.941   0.051
  292SOL     OW 1003   1.223   0.316   2.316
  292SOL    HW1 1004   1.287   0.244   2.316
  292SOL    HW2 1005   1.245   0.368   2.394
  293SOL     OW 1006   0.591   0.742   2.528
  293SOL    HW1 1007   0.633   0.826   2.511
  293SOL    HW2 1008   0.521   0.737   2.463
  294SOL     OW 1009   0.832   1.379   1.879
  294SOL    HW1 1010   0.834   1.381   1.975
  294SOL    HW2 1011   0.897   1.444   1.852
  295SOL     OW 1012   0.660   1.799   2.824
  295SOL    HW1 1013   0.638   1.884   2.787
  295SOL    HW2 1014   0.753   1.787   2.805
  296SOL     OW 1015   0.859   0.961   2.717
  296SOL    HW1 1016   0.914   0.893   2.757
  296SOL    HW2 1017   0.833   1.017   2.790
  297SOL     OW 1018   1.069   0.976   1.939
  297SOL    HW1 1019   1.072   1.053   1.883
  297SOL    HW2 1020   1.154   0.933   1.925
  298SOL     OW 1021   1.869   1.552   2.704
  298SOL    HW1 1022   1.784   1.556   2.660
  298SOL    HW2 1023   1.860   1.482   2.768
  299SOL     OW 1024   0.123   1.251   2.524
  299SOL    HW1 1025   0.093   1.183   2.585
  299SOL    HW2 1026   0.180   1.205   2.463
  300SOL     OW 1027   1.816   0.193   0.082
  300SOL    HW1 1028   1.832   0.108   0.123
  300SOL    HW2 1029   1.830   0.177   2.989
  301SOL     OW 1030   0.459   0.435   2.400
  301SOL    HW1 1031   0.455   0.370   2.330
  301SOL    HW2 1032   0.405   0.397   2.470
  302SOL     OW 1033   0.819   1.587   2.535
  302SOL    HW1 1034   0.826   1.616   2.444
  302SOL    HW2 1035   0.743   1.528   2.535
  303SOL     OW 1036   0.762   1.333   2.184
  303SOL    HW1 1037   0.741   1.240   2.183
  303SOL    HW2 1038   0.857   1.336   2.193
  304SOL     OW 1039   1.349   0.047   2.032
  304SOL    HW1 1040   1.407   2.990   1.982
  304SOL    HW2 1041   1.266   3.000   2.036
  305SOL     OW 1042   1.298   0.456   2.548
  305SOL    HW1 1043   1.243   0.534   2.556
  305SOL    HW2 1044   1.296   0.417   2.635
  306SOL     OW 1045   1.600   0.234   2.749
  306SOL    HW1 1046   1.511   0.228   2.782
  306SOL    HW2 1047   1.600   0.308   2.689
  307SOL     OW 1048   0.061   1.082   2.165
  307SOL    HW1 1049   0.151   1.051   2.163
  307SOL    HW2 1050   0.010   1.008   2.200
  308SOL     OW 1051   0.851   1.635   2.244
  308SOL    HW1 1052   0.827   1.621   2.152
  308SOL    HW2 1053   0.838   1.728   2.259
  309SOL     OW 1054   0.232   2.517   0.099
  309SOL    HW1 1055   0.167   2.470   0.152
  309SOL    HW2 1056   0.246   2.461   0.023
  310SOL     OW 1057   0.213   2.136   0.989
  310SOL    HW1 1058   0.247   2.109   1.074
  310SOL    HW2 1059   0.127   2.095   0.984
  311SOL     OW 1060   0.015   2.247   0.644
  311SOL    HW1 1061   2.931   2.282   0.672
  311SOL    HW2 1062   2.994   2.162   0.605
  312SOL     OW 1063   1.133   2.567   0.705
  312SOL    HW1 1064   1.180   2.649   0.693
  312SOL    HW2 1065   1.081   2.580   0.784
  313SOL     OW 1066   1.763   2.457   0.229
  313SOL    HW1 1067   1.744   2.438   0.137
  313SOL    HW2 1068   1.726   2.383   0.277
  314SOL     OW 1069   0.759   0.008   1.031
  314SOL    HW1 1070   0.679   0.043   1.071
  314SOL    HW2 1071   0.788   0.078   0.971
  315SOL     OW 1072   0.865   2.642   1.822
  315SOL    HW1 1073   0.843   2.709   1.887
  315SOL    HW2 1074   0.886   2.693   1.743
  316SOL     OW 1075   0.653   2.850   0.706
  316SOL    HW1 1076   0.746   2.855   0.725
  316SOL    HW2 1077   0.630   2.936   0.671
  317SOL     OW 1078   0.471   2.271   1.489
  317SOL    HW1 1079   0.540   2.205   1.494
  317SOL    HW2 1080   0.390   2.222   1.505
  318SOL     OW 1081   1.612   2.314   0.737
  318SOL    HW1 1082   1.536   2.342   0.686
  318SOL    HW2 1083   1.636   2.390   0.789
  319SOL     OW 1084   0.210   0.312   0.466
  319SOL    HW1 1085   0.221   0.386   0.525
  319SOL    HW2 1086   0.194   0.237   0.524
  320SOL     OW 1087   0.231   2.945   0.877
  320SOL    HW1 1088   0.258   2.866   0.924
  320SOL    HW2 1089   0.202   0.005   0.946
  321SOL     OW 1090   0.615   2.832   0.146
  321SOL    HW1 1091   0.601   2.923   0.121
  321SOL    HW2 1092   0.673   2.836   0.222
  322SOL     OW 1093   1.590   2.020   1.451
  322SOL    HW1 1094   1.586   2.103   1.404
  322SOL    HW2 1095   1.550   2.038   1.536
  323SOL     OW 1096   0.122   2.495   0.566
  323SOL    HW1 1097   0.093   2.412   0.602
  323SOL    HW2 1098   0.116   2.557   0.639
  324SOL     OW 1099   1.697   2.804   0.622
  324SOL    HW1 1100   1.776   2.750   0.630
  324SOL    HW2 1101   1.691   2.823   0.528
  325SOL     OW 1102   0.126   2.608   1.589
  325SOL    HW1 1103   0.220   2.619   1.602
  325SOL    HW2 1104   0.090   2.695   1.604
  326SOL     OW 1105   0.659   0.232   0.682
  326SOL    HW1 1106   0.591   0.177   0.721
  326SOL    HW2 1107   0.610   0.294   0.627
  327SOL     OW 1108   1.305   0.042   1.450
  327SOL    HW1 1109   1.330   2.994   1.371
  327SOL    HW2 1110   1.381   0.097   1.469
  328SOL     OW 1111   0.807   1.861   0.487
  328SOL    HW1 1112   0.852   1.945   0.494
  328SOL    HW2 1113   0.716   1.880   0.509
  329SOL     OW 1114   0.191   2.835   1.257
  329SOL    HW1 1115   0.275   2.789   1.249
  329SOL    HW2 1116   0.125   2.770   1.231
  330SOL     OW 1117   1.525   2.837   0.203
  330SOL    HW1 1118   1.452   2.796   0.248
  330SOL    HW2 1119   1.582   2.869   0.273
  331SOL     OW 1120   0.332   2.112   1.803
  331SOL    HW1 1121   0.382   2.191   1.823
  331SOL    HW2 1122   0.247   2.127   1.846
  332SOL     OW 1123   0.592   2.582   0.266
  332SOL    HW1 1124   0.601   2.662   0.215
  332SOL    HW2 1125   0.528   2.604   0.334
  333SOL     OW 1126   1.283   2.210   0.933
  333SOL    HW1 1127   1.192   2.181   0.944
  333SOL    HW2 1128   1.333   2.157   0.995
  334SOL     OW 1129   0.795   2.477   1.454
  334SOL    HW1 1130   0.766   2.456   1.543
  334SOL    HW2 1131   0.751   2.412   1.399
  335SOL     OW 1132   1.395   2.334   1.682
  335SOL    HW1 1133   1.385   2.384   1.763
  335SOL    HW2 1134   1.470   2.277   1.699
  336SOL     OW 1135   0.962   2.757   1.589
  336SOL    HW1 1136   1.014   2.685   1.552
  336SOL    HW2 1137   0.911   2.790   1.515
  337SOL     OW 1138   0.993   2.276   1.242
  337SOL    HW1 1139   0.910   2.299   1.284
  337SOL    HW2 1140   0.966   2.229   1.162
  338SOL     OW 1141   1.049   2.567   0.424
  338SOL    HW1 1142   1.062   2.560   0.518
  338SOL    HW2 1143   0.968   2.518   0.407
  339SOL     OW 1144   0.101   2.671   0.768
  339SOL    HW1 1145   0.179   2.674   0.823
  339SOL    HW2 1146   0.048   2.745   0.796
  340SOL     OW 1147   0.926   2.195   0.221
  340SOL    HW1 1148   0.931   2.257   0.149
  340SOL    HW2 1149   0.896   2.114   0.181
  341SOL     OW 1150   1.711   2.440   1.828
  341SOL    HW1 1151   1.676   2.519   1.787
  341SOL    HW2 1152   1.738   2.384   1.755
  342SOL     OW 1153   0.548   2.047   0.891
  342SOL    HW1 1154   0.551   2.071   0.984
  342SOL    HW2 1155   0.551   2.130   0.844
  343SOL     OW 1156   1.796   2.908   0.868
  343SOL    HW1 1157   1.737   2.896   0.793
  343SOL    HW2 1158   1.738   2.919   0.943
  344SOL     OW 1159   1.479   2.598   0.727
  344SOL    HW1 1160   1.460   2.549   0.807
  344SOL    HW2 1161   1.550   2.657   0.752
  345SOL     OW 1162   0.232   2.164   1.508
  345SOL    HW1 1163   0.150   2.207   1.483
  345SOL    HW2 1164   0.205   2.088   1.560
  346SOL     OW 1165   1.402   1.974   0.429
  346SOL    HW1 1166   1.390   1.945   0.339
  346SOL    HW2 1167   1.497   1.974   0.442
  347SOL     OW 1168   0.387   2.557   0.474
  347SOL    HW1 1169   0.413   2.465   0.483
  347SOL    HW2 1170   0.294   2.558   0.499
  348SOL     OW 1171   0.625   1.983   0.114
  348SOL    HW1 1172   0.718   1.964   0.123
  348SOL    HW2 1173   0.599   1.941   0.032
  349SOL     OW 1174   0.770   2.140   1.755
  349SOL    HW1 1175   0.841   2.077   1.763
  349SOL    HW2 1176   0.713   2.123   1.829
  350SOL     OW 1177   1.343   2.450   1.434
  350SOL    HW1 1178   1.373   2.419   1.519
  350SOL    HW2 1179   1.378   2.538   1.426
  351SOL     OW 1180   0.926   2.376   0.902
  351SOL    HW1 1181   0.903   2.363   0.810
  351SOL    HW2 1182   0.961   2.291   0.930
  352SOL     OW 1183   0.544   1.922   0.507
  352SOL    HW1 1184   0.463   1.928   0.558
  352SOL    HW2 1185   0.542   2.000   0.452
  353SOL     OW 1186   0.941   2.107   0.475
  353SOL    HW1 1187   0.913   2.142   0.391
  353SOL    HW2 1188   1.036   2.113   0.474
  354SOL     OW 1189   1.079   2.544   1.458
  354SOL    HW1 1190   1.007   2.481   1.468
  354SOL    HW2 1191   1.157   2.489   1.453
  355SOL     OW 1192   1.050   2.363   0.024
  355SOL    HW1 1193   0.999   2.444   0.013
  355SOL    HW2 1194   1.109   2.382   0.097
  356SOL     OW 1195   0.085   2.417   1.397
  356SOL    HW1 1196   0.171   2.421   1.356
  356SOL    HW2 1197   0.086   2.488   1.462
  357SOL     OW 1198   0.562   2.086   1.162
  357SOL    HW1 1199   0.598   2.006   1.200
  357SOL    HW2 1200   0.470   2.088   1.191
  358SOL     OW 1201   0.870   2.319   0.641
  358SOL    HW1 1202   0.823   2.377   0.581
  358SOL    HW2 1203   0.890   2.241   0.589
  359SOL     OW 1204   1.430   2.991   0.871
  359SOL    HW1 1205   1.358   2.941   0.832
  359SOL    HW2 1206   1.447   0.061   0.808
  360SOL     OW 1207   1.467   2.463   0.983
  360SOL    HW1 1208   1.424   2.378   0.986
  360SOL    HW2 1209   1.530   2.461   1.055
  361SOL     OW 1210   1.836   2.668   0.390
  361SOL    HW1 1211   1.898   2.618   0.442
  361SOL    HW2 1212   1.818   2.613   0.313
  362SOL     OW 1213   1.411   2.439   0.098
  362SOL    HW1 1214   1.339   2.427   0.159
  362SOL    HW2 1215   1.464   2.360   0.107
  363SOL     OW 1216   0.519   2.122   0.325
  363SOL    HW1 1217   0.558   2.071   0.253
  363SOL    HW2 1218   0.507   2.210   0.289
  364SOL     OW 1219   1.781   0.076   1.595
  364SOL    HW1 1220   1.869   0.045   1.577
  364SOL    HW2 1221   1.793   0.164   1.632
  365SOL     OW 1222   1.627   2.957   1.077
  365SOL    HW1 1223   1.640   0.041   1.121
  365SOL    HW2 1224   1.551   2.972   1.020
  366SOL     OW 1225   0.916   1.968   1.421
  366SOL    HW1 1226   0.932   1.959   1.327
  366SOL    HW2 1227   0.996   2.008   1.456
  367SOL     OW 1228   0.414   2.678   1.253
  367SOL    HW1 1229   0.485   2.684   1.317
  367SOL    HW2 1230   0.380   2.589   1.265
  368SOL     OW 1231   1.268   2.240   1.274
  368SOL    HW1 1232   1.300   2.318   1.320
  368SOL    HW2 1233   1.179   2.263   1.246
  369SOL     OW 1234   0.558   2.398   0.861
  369SOL    HW1 1235   0.574   2.455   0.785
  369SOL    HW2 1236   0.618   2.431   0.928
  370SOL     OW 1237   1.580   2.490   0.473
  370SOL    HW1 1238   1.542   2.546   0.541
  370SOL    HW2 1239   1.635   2.549   0.421
  371SOL     OW 1240   0.411   2.601   1.602
  371SOL    HW1 1241   0.469   2.650   1.544
  371SOL    HW2 1242   0.458   2.519   1.618
  372SOL     OW 1243   1.592   2.633   1.675
  372SOL    HW1 1244   1.507   2.677   1.668
  372SOL    HW2 1245   1.647   2.678   1.610
  373SOL     OW 1246   0.993   1.982   1.766
  373SOL    HW1 1247   1.047   2.045   1.718
  373SOL    HW2 1248   1.030   1.897   1.743
  374SOL     OW 1249   0.502   1.909   1.743
  374SOL    HW1 1250   0.461   1.849   1.680
  374SOL    HW2 1251   0.436   1.978   1.755
  375SOL     OW 1252   0.590   2.729   1.037
  375SOL    HW1 1253   0.601   2.821   1.015
  375SOL    HW2 1254   0.524   2.729   1.107
  376SOL     OW 1255   1.350   2.714   1.036
  376SOL    HW1 1256   1.283   2.709   0.968
  376SOL    HW2 1257   1.394   2.629   1.034
  377SOL     OW 1258   1.206   2.394   0.272
  377SOL    HW1 1259   1.212   2.310   0.318
  377SOL    HW2 1260   1.162   2.452   0.334
  378SOL     OW 1261   0.300   2.066   1.242
  378SOL    HW1 1262   0.282   2.095   1.331
  378SOL    HW2 1263   0.284   1.972   1.244
  379SOL     OW 1264   0.055   0.170   1.271
  379SOL    HW1 1265   0.086   0.136   1.355
  379SOL    HW2 1266   0.020   0.257   1.290
  380SOL     OW 1267   0.728   2.494   1.061
  380SOL    HW1 1268   0.798   2.477   0.997
  380SOL    HW2 1269   0.698   2.582   1.041
  381SOL     OW 1270   1.737   2.815   1.848
  381SOL    HW1 1271   1.684   2.770   1.782
  381SOL    HW2 1272   1.679   2.825   1.923
  382SOL     OW 1273   0.297   1.930   0.622
  382SOL    HW1 1274   0.283   2.020   0.650
  382SOL    HW2 1275   0.307   1.881   0.703
  383SOL     OW 1276   1.618   2.235   0.368
  383SOL    HW1 1277   1.639   2.168   0.434
  383SOL    HW2 1278   1.588   2.310   0.419
  384SOL     OW 1279   1.027   2.621   0.967
  384SOL    HW1 1280   1.029   2.635   1.061
  384SOL    HW2 1281   0.999   2.530   0.957
  385SOL     OW 1282   0.353   2.784   1.799
  385SOL    HW1 1283   0.421   2.786   1.867
  385SOL    HW2 1284   0.380   2.713   1.741
  386SOL     OW 1285   1.511   2.160   0.124
  386SOL    HW1 1286   1.468   2.076   0.141
  386SOL    HW2 1287   1.561   2.177   0.204
  387SOL     OW 1288   1.294   2.686   0.036
  387SOL    HW1 1289   1.335   2.600   0.049
  387SOL    HW2 1290   1.326   2.715   2.951
  388SOL     OW 1291   0.313   2.678   0.952
  388SOL    HW1 1292   0.407   2.689   0.938
  388SOL    HW2 1293   0.305   2.589   0.987
  389SOL     OW 1294   0.337   2.378   1.013
  389SOL    HW1 1295   0.296   2.294   0.991
  389SOL    HW2 1296   0.411   2.385   0.953
  390SOL     OW 1297   1.134   2.248   1.680
  390SOL    HW1 1298   1.089   2.300   1.746
  390SOL    HW2 1299   1.224   2.281   1.680
  391SOL     OW 1300   1.159   2.073   1.483
  391SOL    HW1 1301   1.148   2.139   1.552
  391SOL    HW2 1302   1.191   2.123   1.408
  392SOL     OW 1303   0.986   2.666   1.233
  392SOL    HW1 1304   1.039   2.636   1.306
  392SOL    HW2 1305   0.903   2.620   1.243
  393SOL     OW 1306   0.048   2.436   1.113
  393SOL    HW1 1307   0.123   2.390   1.078
  393SOL    HW2 1308   0.035   2.400   1.201
  394SOL     OW 1309   0.197   2.380   1.721
  394SOL    HW1 1310   0.265   2.353   1.659
  394SOL    HW2 1311   0.159   2.459   1.682
  395SOL     OW 1312   1.380   2.808   1.661
  395SOL    HW1 1313   1.400   2.901   1.659
  395SOL    HW2 1314   1.371   2.784   1.569
  396SOL     OW 1315   0.818   2.436   0.349
  396SOL    HW1 1316   0.820   2.360   0.292
  396SOL    HW2 1317   0.738   2.483   0.325
  397SOL     OW 1318   1.643   2.464   1.190
  397SOL    HW1 1319   1.633   2.403   1.264
  397SOL    HW2 1320   1.730   2.444   1.155
  398SOL     OW 1321   0.697   2.315   1.262
  398SOL    HW1 1322   0.644   2.241   1.232
  398SOL    HW2 1323   0.694   2.377   1.190
  399SOL     OW 1324   0.438   2.358   0.206
  399SOL    HW1 1325   0.512   2.417   0.218
  399SOL    HW2 1326   0.363   2.416   0.190
  400SOL     OW 1327   0.162   0.006   1.469
  400SOL    HW1 1328   0.152   2.953   1.548
  400SOL    HW2 1329   0.173   2.942   1.398
  401SOL     OW 1330   1.352   2.907   1.222
  401SOL    HW1 1331   1.365   2.846   1.150
  401SOL    HW2 1332   1.279   2.963   1.193
  402SOL     OW 1333   1.301   2.722   0.312
  402SOL    HW1 1334   1.228   2.680   0.357
  402SOL    HW2 1335   1.288   2.700   0.220
  403SOL     OW 1336   0.898   1.939   0.125
  403SOL    HW1 1337   0.958   1.925   0.052
  403SOL    HW2 1338   0.941   1.898   0.199
  404SOL     OW 1339   1.713   2.001   0.512
  404SOL    HW1 1340   1.794   1.991   0.463
  404SOL    HW2 1341   1.700   1.917   0.556
  405SOL     OW 1342   1.290   2.792   0.680
  405SOL    HW1 1343   1.358   2.725   0.678
  405SOL    HW2 1344   1.307   2.848   0.604
  406SOL     OW 1345   1.842   2.036   0.969
  406SOL    HW1 1346   1.870   1.948   0.944
  406SOL    HW2 1347   1.754   2.045   0.930
  407SOL     OW 1348   0.268   2.179   0.722
  407SOL    HW1 1349   0.186   2.219   0.693
  407SOL    HW2 1350   0.258   2.168   0.816
  408SOL     OW 1351   0.813   2.859   1.372
  408SOL    HW1 1352   0.868   2.841   1.296
  408SOL    HW2 1353   0.833   2.949   1.395
  409SOL     OW 1354   0.901   2.784   0.286
  409SOL    HW1 1355   0.978   2.820   0.243
  409SOL    HW2 1356   0.935   2.733   0.359
  410SOL     OW 1357   1.019   2.120   0.976
  410SOL    HW1 1358   1.002   2.072   0.895
  410SOL    HW2 1359   1.012   2.053   1.044
  411SOL     OW 1360   1.718   2.260   1.379
  411SOL    HW1 1361   1.790   2.323   1.379
  411SOL    HW2 1362   1.749   2.188   1.325
  412SOL     OW 1363   0.116   2.865   1.697
  412SOL    HW1 1364   0.045   2.842   1.758
  412SOL    HW2 1365   0.196   2.851   1.747
  413SOL     OW 1366   0.671   2.063   1.499
  413SOL    HW1 1367   0.755   2.040   1.460
  413SOL    HW2 1368   0.691   2.085   1.590
  414SOL     OW 1369   0.057   2.174   0.046
  414SOL    HW1 1370   2.968   2.199   0.024
  414SOL    HW2 1371   0.111   2.248   0.017
  415SOL     OW 1372   1.435   2.716   1.403
  415SOL    HW1 1373   1.390   2.776   1.343
  415SOL    HW2 1374   1.527   2.721   1.377
  416SOL     OW 1375   0.054   2.047   0.319
  416SOL    HW1 1376   0.051   2.099   0.238
  416SOL    HW2 1377   0.137   1.999   0.314
  417SOL     OW 1378   1.141   0.209   0.100
  417SOL    HW1 1379   1.067   0.249   0.145
  417SOL    HW2 1380   1.216   0.226   0.157
  418SOL     OW 1381   0.613   2.691   1.435
  418SOL    HW1 1382   0.670   2.766   1.418
  418SOL    HW2 1383   0.674   2.617   1.443
  419SOL     OW 1384   0.717   2.427   1.707
  419SOL    HW1 1385   0.752   2.490   1.769
  419SOL    HW2 1386   0.753   2.343   1.734
  420SOL     OW 1387   1.677   2.745   1.254
  420SOL    HW1 1388   1.664   2.659   1.214
  420SOL    HW2 1389   1.660   2.807   1.184
  421SOL     OW 1390   1.222   2.181   0.458
  421SOL    HW1 1391   1.284   2.109   0.449
  421SOL    HW2 1392   1.252   2.230   0.535
  422SOL     OW 1393   0.593   2.589   0.661
  422SOL    HW1 1394   0.621   2.680   0.668
  422SOL    HW2 1395   0.520   2.591   0.598
  423SOL     OW 1396   1.763   2.221   1.648
  423SOL    HW1 1397   1.748   2.230   1.554
  423SOL    HW2 1398   1.694   2.162   1.678
  424SOL     OW 1399   1.734   2.796   1.516
  424SOL    HW1 1400   1.752   2.888   1.535
  424SOL    HW2 1401   1.727   2.791   1.421
  425SOL     OW 1402   0.884   2.829   0.861
  425SOL    HW1 1403   0.921   2.750   0.901
  425SOL    HW2 1404   0.828   2.866   0.929
  426SOL     OW 1405   1.109   2.888   0.085
  426SOL    HW1 1406   1.061   2.889   0.002
  426SOL    HW2 1407   1.170   2.814   0.076
  427SOL     OW 1408   1.818   2.060   1.237
  427SOL    HW1 1409   1.793   1.970   1.256
  427SOL    HW2 1410   1.830   2.062   1.142
  428SOL     OW 1411   0.427   2.295   0.524
  428SOL    HW1 1412   0.460   2.223   0.469
  428SOL    HW2 1413   0.385   2.251   0.598
  429SOL     OW 1414   0.332   2.416   1.289
  429SOL    HW1 1415   0.390   2.361   1.343
  429SOL    HW2 1416   0.349   2.388   1.199
  430SOL     OW 1417   1.425   2.078   1.118
  430SOL    HW1 1418   1.477   2.015   1.168
  430SOL    HW2 1419   1.379   2.129   1.184
  431SOL     OW 1420   0.993   1.928   1.171
  431SOL    HW1 1421   0.940   1.854   1.140
  431SOL    HW2 1422   1.083   1.894   1.174
  432SOL     OW 1423   1.353   1.914   0.162
  432SOL    HW1 1424   1.378   1.860   0.088
  432SOL    HW2 1425   1.268   1.880   0.189
  433SOL     OW 1426   1.299   2.323   0.685
  433SOL    HW1 1427   1.243   2.401   0.694
  433SOL    HW2 1428   1.297   2.282   0.771
  434SOL     OW 1429   1.593   2.076   0.879
  434SOL    HW1 1430   1.517   2.082   0.937
  434SOL    HW2 1431   1.587   2.153   0.823
  435SOL     OW 1432   0.003   2.885   0.286
  435SOL    HW1 1433   0.087   2.922   0.259
  435SOL    HW2 1434   0.018   2.851   0.374
  436SOL     OW 1435   0.228   2.506   1.969
  436SOL    HW1 1436   0.164   2.459   2.023
  436SOL    HW2 1437   0.224   2.463   1.884
  437SOL     OW 1438   0.236   2.123   2.837
  437SOL    HW1 1439   0.270   2.102   2.924
  437SOL    HW2 1440   0.143   2.097   2.841
  438SOL     OW 1441   0.015   2.247   2.508
  438SOL    HW1 1442   2.928   2.281   2.532
  438SOL    HW2 1443   2.996   2.164   2.464
  439SOL     OW 1444   1.136   2.566   2.567
  439SOL    HW1 1445   1.182   2.649   2.556
  439SOL    HW2 1446   1.083   2.579   2.645
  440SOL     OW 1447   1.761   2.468   2.092
  440SOL    HW1 1448   1.744   2.460   1.998
  440SOL    HW2 1449   1.726   2.388   2.130
  441SOL     OW 1450   0.777   0.010   2.877
  441SOL    HW1 1451   0.689   0.027   2.911
  441SOL    HW2 1452   0.798   0.088   2.827
  442SOL     OW 1453   0.652   2.847   2.564
  442SOL    HW1 1454   0.744   2.851   2.589
  442SOL    HW2 1455   0.631   2.936   2.536
  443SOL     OW 1456   1.616   2.310   2.591
  443SOL    HW1 1457   1.538   2.340   2.546
  443SOL    HW2 1458   1.631   2.375   2.660
  444SOL     OW 1459   0.212   0.311   2.329
  444SOL    HW1 1460   0.222   0.385   2.388
  444SOL    HW2 1461   0.196   0.236   2.387
  445SOL     OW 1462   0.231   2.946   2.743
  445SOL    HW1 1463   0.257   2.864   2.784
  445SOL    HW2 1464   0.207   0.003   2.817
  446SOL     OW 1465   0.608   2.824   1.990
  446SOL    HW1 1466   0.599   2.908   1.945
  446SOL    HW2 1467   0.663   2.843   2.066
  447SOL     OW 1468   0.121   2.494   2.427
  447SOL    HW1 1469   0.094   2.411   2.466
  447SOL    HW2 1470   0.119   2.557   2.499
  448SOL     OW 1471   1.696   2.803   2.483
  448SOL    HW1 1472   1.776   2.751   2.493
  448SOL    HW2 1473   1.691   2.820   2.389
  449SOL     OW 1474   0.634   0.244   2.568
  449SOL    HW1 1475   0.591   0.159   2.553
  449SOL    HW2 1476   0.612   0.295   2.491
  450SOL     OW 1477   0.813   1.872   2.377
  450SOL    HW1 1478   0.849   1.959   2.356
  450SOL    HW2 1479   0.718   1.886   2.382
  451SOL     OW 1480   0.211   2.808   0.097
  451SOL    HW1 1481   0.278   2.740   0.101
  451SOL    HW2 1482   0.129   2.760   0.094
  452SOL     OW 1483   1.540   2.835   2.046
  452SOL    HW1 1484   1.467   2.787   2.085
  452SOL    HW2 1485   1.586   2.873   2.120
  453SOL     OW 1486   0.596   2.581   2.126
  453SOL    HW1 1487   0.604   2.659   2.072
  453SOL    HW2 1488   0.531   2.605   2.193
  454SOL     OW 1489   1.296   2.195   2.806
  454SOL    HW1 1490   1.202   2.179   2.801
  454SOL    HW2 1491   1.321   2.163   2.893
  455SOL     OW 1492   1.051   2.561   2.289
  455SOL    HW1 1493   1.061   2.557   2.384
  455SOL    HW2 1494   0.968   2.517   2.272
  456SOL     OW 1495   0.104   2.671   2.627
  456SOL    HW1 1496   0.182   2.673   2.683
  456SOL    HW2 1497   0.048   2.741   2.661
  457SOL     OW 1498   0.888   2.206   2.059
  457SOL    HW1 1499   0.928   2.267   1.997
  457SOL    HW2 1500   0.894   2.121   2.016
  458SOL     OW 1501   0.551   2.049   2.764
  458SOL    HW1 1502   0.524   2.084   2.849
  458SOL    HW2 1503   0.558   2.126   2.707
  459SOL     OW 1504   1.797   2.911   2.728
  459SOL    HW1 1505   1.736   2.895   2.657
  459SOL    HW2 1506   1.742   2.916   2.806
  460SOL     OW 1507   1.478   2.600   2.587
  460SOL    HW1 1508   1.464   2.546   2.665
  460SOL    HW2 1509   1.552   2.657   2.610
  461SOL     OW 1510   0.394   2.555   2.338
  461SOL    HW1 1511   0.412   2.462   2.350
  461SOL    HW2 1512   0.300   2.564   2.356
  462SOL     OW 1513   0.631   1.991   1.966
  462SOL    HW1 1514   0.699   1.926   1.984
  462SOL    HW2 1515   0.584   1.955   1.891
  463SOL     OW 1516   0.922   2.380   2.758
  463SOL    HW1 1517   0.902   2.357   2.667
  463SOL    HW2 1518   0.958   2.299   2.795
  464SOL     OW 1519   0.548   1.928   2.371
  464SOL    HW1 1520   0.464   1.926   2.417
  464SOL    HW2 1521   0.542   2.003   2.312
  465SOL     OW 1522   0.291   1.906   2.043
  465SOL    HW1 1523   0.350   1.973   2.010
  465SOL    HW2 1524   0.348   1.841   2.084
  466SOL     OW 1525   0.935   2.110   2.326
  466SOL    HW1 1526   0.905   2.149   2.244
  466SOL    HW2 1527   1.030   2.121   2.324
  467SOL     OW 1528   1.028   2.410   1.880
  467SOL    HW1 1529   0.983   2.492   1.859
  467SOL    HW2 1530   1.088   2.433   1.951
  468SOL     OW 1531   0.870   2.319   2.499
  468SOL    HW1 1532   0.823   2.376   2.440
  468SOL    HW2 1533   0.887   2.240   2.449
  469SOL     OW 1534   1.014   1.908   2.610
  469SOL    HW1 1535   0.953   1.902   2.536
  469SOL    HW2 1536   0.993   1.832   2.664
  470SOL     OW 1537   1.423   2.998   2.736
  470SOL    HW1 1538   1.354   2.944   2.698
  470SOL    HW2 1539   1.447   0.058   2.665
  471SOL     OW 1540   1.489   2.445   2.821
  471SOL    HW1 1541   1.422   2.378   2.835
  471SOL    HW2 1542   1.515   2.473   2.909
  472SOL     OW 1543   1.839   2.670   2.253
  472SOL    HW1 1544   1.900   2.619   2.306
  472SOL    HW2 1545   1.817   2.612   2.179
  473SOL     OW 1546   1.392   2.437   1.934
  473SOL    HW1 1547   1.334   2.416   2.008
  473SOL    HW2 1548   1.476   2.398   1.958
  474SOL     OW 1549   0.527   2.124   2.183
  474SOL    HW1 1550   0.566   2.073   2.111
  474SOL    HW2 1551   0.511   2.210   2.146
  475SOL     OW 1552   1.627   2.966   2.936
  475SOL    HW1 1553   1.631   0.042   2.994
  475SOL    HW2 1554   1.552   2.983   2.880
  476SOL     OW 1555   0.554   2.397   2.726
  476SOL    HW1 1556   0.570   2.452   2.649
  476SOL    HW2 1557   0.615   2.430   2.792
  477SOL     OW 1558   1.580   2.498   2.338
  477SOL    HW1 1559   1.542   2.556   2.405
  477SOL    HW2 1560   1.633   2.556   2.284
  478SOL     OW 1561   0.574   2.726   2.884
  478SOL    HW1 1562   0.615   2.808   2.855
  478SOL    HW2 1563   0.555   2.740   2.976
  479SOL     OW 1564   1.210   2.393   2.134
  479SOL    HW1 1565   1.212   2.313   2.187
  479SOL    HW2 1566   1.164   2.456   2.189
  480SOL     OW 1567   0.321   2.054   0.084
  480SOL    HW1 1568   0.321   2.113   0.159
  480SOL    HW2 1569   0.279   1.974   0.115
  481SOL     OW 1570   0.729   2.500   2.916
  481SOL    HW1 1571   0.796   2.478   2.851
  481SOL    HW2 1572   0.697   2.586   2.889
  482SOL     OW 1573   0.301   1.930   2.484
  482SOL    HW1 1574   0.286   2.021   2.510
  482SOL    HW2 1575   0.306   1.882   2.567
  483SOL     OW 1576   1.587   2.260   2.226
  483SOL    HW1 1577   1.611   2.198   2.296
  483SOL    HW2 1578   1.575   2.343   2.271
  484SOL     OW 1579   1.024   2.622   2.822
  484SOL    HW1 1580   1.028   2.629   2.918
  484SOL    HW2 1581   0.997   2.532   2.806
  485SOL     OW 1582   1.538   2.156   1.974
  485SOL    HW1 1583   1.498   2.074   2.003
  485SOL    HW2 1584   1.564   2.200   2.055
  486SOL     OW 1585   1.294   2.689   1.896
  486SOL    HW1 1586   1.337   2.603   1.901
  486SOL    HW2 1587   1.326   2.726   1.813
  487SOL     OW 1588   0.312   2.674   2.809
  487SOL    HW1 1589   0.406   2.693   2.809
  487SOL    HW2 1590   0.304   2.587   2.847
  488SOL     OW 1591   0.323   2.382   2.868
  488SOL    HW1 1592   0.292   2.294   2.849
  488SOL    HW2 1593   0.402   2.392   2.815
  489SOL     OW 1594   0.984   2.617   0.088
  489SOL    HW1 1595   1.030   2.611   0.172
  489SOL    HW2 1596   0.894   2.639   0.111
  490SOL     OW 1597   0.817   2.431   2.215
  490SOL    HW1 1598   0.817   2.356   2.156
  490SOL    HW2 1599   0.741   2.483   2.187
  491SOL     OW 1600   0.701   2.312   0.104
  491SOL    HW1 1601   0.620   2.265   0.087
  491SOL    HW2 1602   0.703   2.382   0.040
  492SOL     OW 1603   0.466   2.357   2.049
  492SOL    HW1 1604   0.527   2.427   2.069
  492SOL    HW2 1605   0.380   2.399   2.047
  493SOL     OW 1606   1.303   2.723   2.171
  493SOL    HW1 1607   1.228   2.686   2.217
  493SOL    HW2 1608   1.288   2.704   2.079
  494SOL     OW 1609   1.292   2.797   2.543
  494SOL    HW1 1610   1.357   2.727   2.542
  494SOL    HW2 1611   1.307   2.845   2.462
  495SOL     OW 1612   1.839   2.039   2.820
  495SOL    HW1 1613   1.869   1.951   2.798
  495SOL    HW2 1614   1.749   2.043   2.788
  496SOL     OW 1615   0.271   2.181   2.577
  496SOL    HW1 1616   0.187   2.220   2.553
  496SOL    HW2 1617   0.265   2.167   2.671
  497SOL     OW 1618   0.905   2.759   2.119
  497SOL    HW1 1619   0.979   2.808   2.083
  497SOL    HW2 1620   0.941   2.710   2.192
  498SOL     OW 1621   1.032   2.103   2.809
  498SOL    HW1 1622   1.018   2.050   2.730
  498SOL    HW2 1623   1.008   2.045   2.881
  499SOL     OW 1624   0.091   2.186   1.918
  499SOL    HW1 1625   0.009   2.156   1.879
  499SOL    HW2 1626   0.107   2.271   1.878
  500SOL     OW 1627   0.066   2.055   2.178
  500SOL    HW1 1628   0.069   2.106   2.097
  500SOL    HW2 1629   0.135   1.990   2.168
  501SOL     OW 1630   1.137   0.247   1.997
  501SOL    HW1 1631   1.101   0.163   1.969
  501SOL    HW2 1632   1.209   0.223   2.056
  502SOL     OW 1633   1.726   2.708   0.052
  502SOL    HW1 1634   1.652   2.666   0.097
  502SOL    HW2 1635   1.701   2.800   0.046
  503SOL     OW 1636   1.218   2.179   2.320
  503SOL    HW1 1637   1.298   2.130   2.299
  503SOL    HW2 1638   1.241   2.229   2.398
  504SOL     OW 1639   0.595   2.586   2.524
  504SOL    HW1 1640   0.622   2.678   2.531
  504SOL    HW2 1641   0.523   2.588   2.460
  505SOL     OW 1642   0.880   2.824   2.716
  505SOL    HW1 1643   0.923   2.750   2.759
  505SOL    HW2 1644   0.843   2.875   2.789
  506SOL     OW 1645   1.101   2.871   1.953
  506SOL    HW1 1646   1.061   2.899   1.871
  506SOL    HW2 1647   1.158   2.798   1.929
  507SOL     OW 1648   1.831   2.053   0.094
  507SOL    HW1 1649   1.796   1.965   0.108
  507SOL    HW2 1650   1.831   2.063   2.998
  508SOL     OW 1651   0.426   2.293   2.381
  508SOL    HW1 1652   0.459   2.220   2.328
  508SOL    HW2 1653   0.384   2.251   2.456
  509SOL     OW 1654   1.298   2.317   2.547
  509SOL    HW1 1655   1.245   2.397   2.555
  509SOL    HW2 1656   1.298   2.279   2.635
  510SOL     OW 1657   1.583   2.073   2.734
  510SOL    HW1 1658   1.507   2.090   2.790
  510SOL    HW2 1659   1.593   2.153   2.682
  511SOL     OW 1660   0.020   2.929   2.153
  511SOL    HW1 1661   0.115   2.927   2.144
  511SOL    HW2 1662   0.002   2.870   2.226
  512SOL     OW 1663   2.092   0.638   0.119
  512SOL    HW1 1664   1.999   0.628   0.141
  512SOL    HW2 1665   2.101   0.600   0.032
  513SOL     OW 1666   2.082   0.279   1.003
  513SOL    HW1 1667   2.110   0.250   1.090
  513SOL    HW2 1668   1.994   0.243   0.994
  514SOL     OW 1669   1.866   0.378   0.644
  514SOL    HW1 1670   1.786   0.409   0.687
  514SOL    HW2 1671   1.837   0.305   0.589
  515SOL     OW 1672   2.427   1.280   1.171
  515SOL    HW1 1673   2.339   1.281   1.133
  515SOL    HW2 1674   2.441   1.369   1.203
  516SOL     OW 1675   2.620   1.145   1.033
  516SOL    HW1 1676   2.551   1.176   1.092
  516SOL    HW2 1677   2.657   1.224   0.994
  517SOL     OW 1678   2.718   0.783   1.818
  517SOL    HW1 1679   2.719   0.854   1.882
  517SOL    HW2 1680   2.741   0.824   1.735
  518SOL     OW 1681   2.548   1.009   0.650
  518SOL    HW1 1682   2.609   0.991   0.722
  518SOL    HW2 1683   2.476   1.058   0.691
  519SOL     OW 1684   2.563   1.155   1.813
  519SOL    HW1 1685   2.615   1.233   1.830
  519SOL    HW2 1686   2.482   1.188   1.775
  520SOL     OW 1687   2.195   1.436   1.070
  520SOL    HW1 1688   2.124   1.393   1.022
  520SOL    HW2 1689   2.244   1.483   1.003
  521SOL     OW 1690   2.312   0.401   1.492
  521SOL    HW1 1691   2.385   0.339   1.495
  521SOL    HW2 1692   2.234   0.346   1.504
  522SOL     OW 1693   2.083   1.716   0.473
  522SOL    HW1 1694   2.107   1.790   0.528
  522SOL    HW2 1695   2.157   1.705   0.414
  523SOL     OW 1696   2.977   1.349   1.691
  523SOL    HW1 1697   0.048   1.344   1.755
  523SOL    HW2 1698   2.940   1.261   1.689
  524SOL     OW 1699   2.088   1.441   0.534
  524SOL    HW1 1700   2.070   1.534   0.548
  524SOL    HW2 1701   2.029   1.395   0.593
  525SOL     OW 1702   2.124   1.086   0.892
  525SOL    HW1 1703   2.109   1.000   0.932
  525SOL    HW2 1704   2.063   1.145   0.936
  526SOL     OW 1705   2.485   1.792   1.431
  526SOL    HW1 1706   2.400   1.778   1.473
  526SOL    HW2 1707   2.507   1.882   1.452
  527SOL     OW 1708   2.458   0.976   0.144
  527SOL    HW1 1709   2.474   1.053   0.090
  527SOL    HW2 1710   2.494   0.999   0.230
  528SOL     OW 1711   1.981   0.643   0.563
  528SOL    HW1 1712   1.934   0.564   0.588
  528SOL    HW2 1713   1.973   0.701   0.639
  529SOL     OW 1714   1.881   1.591   0.120
  529SOL    HW1 1715   1.888   1.499   0.147
  529SOL    HW2 1716   1.879   1.640   0.201
  530SOL     OW 1717   1.984   0.742   1.588
  530SOL    HW1 1718   2.077   0.754   1.605
  530SOL    HW2 1719   1.947   0.830   1.591
  531SOL     OW 1720   2.475   1.380   0.734
  531SOL    HW1 1721   2.428   1.297   0.743
  531SOL    HW2 1722   2.456   1.409   0.645
  532SOL     OW 1723   2.682   0.013   0.509
  532SOL    HW1 1724   2.705   0.105   0.498
  532SOL    HW2 1725   2.586   0.011   0.501
  533SOL     OW 1726   2.052   0.972   1.268
  533SOL    HW1 1727   2.129   0.920   1.246
  533SOL    HW2 1728   1.979   0.925   1.228
  534SOL     OW 1729   2.187   0.252   1.802
  534SOL    HW1 1730   2.237   0.333   1.819
  534SOL    HW2 1731   2.101   0.268   1.840
  535SOL     OW 1732   2.453   0.722   0.264
  535SOL    HW1 1733   2.461   0.804   0.216
  535SOL    HW2 1734   2.390   0.740   0.334
  536SOL     OW 1735   2.655   0.625   1.455
  536SOL    HW1 1736   2.628   0.599   1.543
  536SOL    HW2 1737   2.616   0.559   1.397
  537SOL     OW 1738   2.831   0.883   1.574
  537SOL    HW1 1739   2.861   0.798   1.541
  537SOL    HW2 1740   2.782   0.921   1.501
  538SOL     OW 1741   2.844   0.378   1.260
  538SOL    HW1 1742   2.771   0.433   1.288
  538SOL    HW2 1743   2.836   0.374   1.165
  539SOL     OW 1744   2.892   0.715   0.413
  539SOL    HW1 1745   2.929   0.699   0.499
  539SOL    HW2 1746   2.818   0.655   0.407
  540SOL     OW 1747   1.955   0.821   0.769
  540SOL    HW1 1748   2.033   0.813   0.823
  540SOL    HW2 1749   1.903   0.890   0.812
  541SOL     OW 1750   1.996   1.845   1.572
  541SOL    HW1 1751   1.970   1.829   1.663
  541SOL    HW2 1752   1.913   1.859   1.526
  542SOL     OW 1753   2.784   0.342   0.218
  542SOL    HW1 1754   2.768   0.397   0.142
  542SOL    HW2 1755   2.770   0.253   0.187
  543SOL     OW 1756   2.386   0.193   0.909
  543SOL    HW1 1757   2.397   0.210   1.003
  543SOL    HW2 1758   2.401   0.279   0.868
  544SOL     OW 1759   2.873   1.451   0.465
  544SOL    HW1 1760   2.827   1.525   0.426
  544SOL    HW2 1761   2.863   1.464   0.560
  545SOL     OW 1762   2.220   1.804   0.853
  545SOL    HW1 1763   2.264   1.720   0.865
  545SOL    HW2 1764   2.289   1.869   0.870
  546SOL     OW 1765   2.181   0.954   0.241
  546SOL    HW1 1766   2.265   0.966   0.198
  546SOL    HW2 1767   2.151   0.868   0.212
  547SOL     OW 1768   2.321   1.265   1.743
  547SOL    HW1 1769   2.286   1.273   1.654
  547SOL    HW2 1770   2.244   1.245   1.797
  548SOL     OW 1771   2.064   0.294   1.498
  548SOL    HW1 1772   1.982   0.343   1.490
  548SOL    HW2 1773   2.046   0.229   1.565
  549SOL     OW 1774   2.329   1.727   0.332
  549SOL    HW1 1775   2.360   1.793   0.394
  549SOL    HW2 1776   2.396   1.724   0.264
  550SOL     OW 1777   2.099   1.785   1.237
  550SOL    HW1 1778   2.150   1.719   1.283
  550SOL    HW2 1779   2.101   1.757   1.145
  551SOL     OW 1780   2.802   1.696   0.900
  551SOL    HW1 1781   2.864   1.629   0.929
  551SOL    HW2 1782   2.752   1.654   0.830
  552SOL     OW 1783   2.254   0.692   0.475
  552SOL    HW1 1784   2.284   0.603   0.492
  552SOL    HW2 1785   2.161   0.691   0.499
  553SOL     OW 1786   2.475   0.108   0.108
  553SOL    HW1 1787   2.570   0.112   0.120
  553SOL    HW2 1788   2.461   0.139   0.019
  554SOL     OW 1789   2.635   0.276   1.752
  554SOL    HW1 1790   2.701   0.209   1.771
  554SOL    HW2 1791   2.577   0.275   1.828
  555SOL     OW 1792   2.742   1.517   1.193
  555SOL    HW1 1793   2.722   1.482   1.107
  555SOL    HW2 1794   2.805   1.455   1.230
  556SOL     OW 1795   2.668   1.405   0.936
  556SOL    HW1 1796   2.752   1.392   0.893
  556SOL    HW2 1797   2.603   1.396   0.867
  557SOL     OW 1798   2.785   0.505   0.904
  557SOL    HW1 1799   2.757   0.494   0.813
  557SOL    HW2 1800   2.825   0.422   0.929
  558SOL     OW 1801   2.401   0.047   0.493
  558SOL    HW1 1802   2.316   0.040   0.538
  558SOL    HW2 1803   2.395   0.129   0.444
  559SOL     OW 1804   0.318   1.166   0.046
  559SOL    HW1 1805   0.316   1.096   0.112
  559SOL    HW2 1806   0.241   1.219   0.065
  560SOL     OW 1807   2.163   0.085   0.185
  560SOL    HW1 1808   2.245   0.134   0.190
  560SOL    HW2 1809   2.188   2.995   0.206
  561SOL     OW 1810   2.822   0.248   0.469
  561SOL    HW1 1811   2.778   0.293   0.397
  561SOL    HW2 1812   2.899   0.208   0.429
  562SOL     OW 1813   0.084   1.580   0.798
  562SOL    HW1 1814   0.115   1.625   0.719
  562SOL    HW2 1815   0.165   1.553   0.843
  563SOL     OW 1816   2.330   1.148   0.737
  563SOL    HW1 1817   2.261   1.128   0.799
  563SOL    HW2 1818   2.291   1.131   0.651
  564SOL     OW 1819   2.897   0.519   0.021
  564SOL    HW1 1820   2.845   0.598   0.006
  564SOL    HW2 1821   2.944   0.536   0.102
  565SOL     OW 1822   1.938   0.553   1.394
  565SOL    HW1 1823   2.028   0.553   1.363
  565SOL    HW2 1824   1.932   0.629   1.452
  566SOL     OW 1825   2.428   0.217   1.176
  566SOL    HW1 1826   2.461   0.160   1.246
  566SOL    HW2 1827   2.336   0.230   1.197
  567SOL     OW 1828   2.745   0.468   0.635
  567SOL    HW1 1829   2.677   0.518   0.589
  567SOL    HW2 1830   2.738   0.379   0.598
  568SOL     OW 1831   2.863   0.054   0.762
  568SOL    HW1 1832   2.823   0.057   0.675
  568SOL    HW2 1833   2.838   2.968   0.796
  569SOL     OW 1834   2.354   1.400   0.153
  569SOL    HW1 1835   2.286   1.374   0.216
  569SOL    HW2 1836   2.307   1.408   0.070
  570SOL     OW 1837   2.393   0.263   0.325
  570SOL    HW1 1838   2.431   0.212   0.254
  570SOL    HW2 1839   2.367   0.346   0.284
  571SOL     OW 1840   2.780   0.111   1.402
  571SOL    HW1 1841   2.807   0.096   1.311
  571SOL    HW2 1842   2.845   0.172   1.436
  572SOL     OW 1843   2.840   1.108   1.729
  572SOL    HW1 1844   2.747   1.131   1.734
  572SOL    HW2 1845   2.845   1.042   1.660
  573SOL     OW 1846   2.563   1.063   0.378
  573SOL    HW1 1847   2.547   1.050   0.471
  573SOL    HW2 1848   2.647   1.018   0.362
  574SOL     OW 1849   2.278   0.812   1.249
  574SOL    HW1 1850   2.346   0.823   1.315
  574SOL    HW2 1851   2.241   0.726   1.267
  575SOL     OW 1852   2.223   1.106   0.490
  575SOL    HW1 1853   2.213   1.180   0.431
  575SOL    HW2 1854   2.215   1.029   0.434
  576SOL     OW 1855   2.420   0.540   0.863
  576SOL    HW1 1856   2.437   0.597   0.787
  576SOL    HW2 1857   2.481   0.570   0.930
  577SOL     OW 1858   2.218   1.523   1.327
  577SOL    HW1 1859   2.190   1.482   1.245
  577SOL    HW2 1860   2.312   1.535   1.317
  578SOL     OW 1861   2.274   0.746   1.604
  578SOL    HW1 1862   2.332   0.792   1.544
  578SOL    HW2 1863   2.313   0.659   1.614
  579SOL     OW 1864   2.868   0.114   1.762
  579SOL    HW1 1865   2.898   0.191   1.713
  579SOL    HW2 1866   2.904   0.039   1.715
  580SOL     OW 1867   2.365   0.054   1.749
  580SOL    HW1 1868   2.332   2.992   1.683
  580SOL    HW2 1869   2.294   0.118   1.760
  581SOL     OW 1870   2.444   0.872   1.031
  581SOL    HW1 1871   2.473   0.963   1.027
  581SOL    HW2 1872   2.386   0.868   1.107
  582SOL     OW 1873   0.063   0.533   0.272
  582SOL    HW1 1874   0.084   0.450   0.315
  582SOL    HW2 1875   0.037   0.590   0.344
  583SOL     OW 1876   2.163   0.202   1.250
  583SOL    HW1 1877   2.131   0.242   1.331
  583SOL    HW2 1878   2.136   0.110   1.256
  584SOL     OW 1879   1.961   1.337   1.277
  584SOL    HW1 1880   1.963   1.264   1.339
  584SOL    HW2 1881   1.905   1.403   1.320
  585SOL     OW 1882   2.590   0.634   1.062
  585SOL    HW1 1883   2.664   0.617   1.003
  585SOL    HW2 1884   2.562   0.723   1.040
  586SOL     OW 1885   2.170   0.060   0.640
  586SOL    HW1 1886   2.167   0.151   0.667
  586SOL    HW2 1887   2.153   0.010   0.720
  587SOL     OW 1888   2.868   0.769   0.972
  587SOL    HW1 1889   2.898   0.775   1.063
  587SOL    HW2 1890   2.872   0.676   0.951
  588SOL     OW 1891   2.827   1.568   1.705
  588SOL    HW1 1892   2.824   1.609   1.619
  588SOL    HW2 1893   2.886   1.494   1.695
  589SOL     OW 1894   2.222   0.916   1.813
  589SOL    HW1 1895   2.309   0.929   1.851
  589SOL    HW2 1896   2.237   0.856   1.740
  590SOL     OW 1897   2.905   1.345   0.832
  590SOL    HW1 1898   2.910   1.266   0.779
  590SOL    HW2 1899   2.982   1.396   0.807
  591SOL     OW 1900   2.174   0.808   0.945
  591SOL    HW1 1901   2.267   0.831   0.944
  591SOL    HW2 1902   2.172   0.721   0.986
  592SOL     OW 1903   2.199   0.520   1.015
  592SOL    HW1 1904   2.159   0.435   0.995
  592SOL    HW2 1905   2.272   0.527   0.953
  593SOL     OW 1906   2.968   0.367   1.665
  593SOL    HW1 1907   2.913   0.432   1.710
  593SOL    HW2 1908   0.055   0.406   1.666
  594SOL     OW 1909   1.872   1.320   0.185
  594SOL    HW1 1910   1.780   1.334   0.160
  594SOL    HW2 1911   1.872   1.235   0.228
  595SOL     OW 1912   1.959   1.800   0.922
  595SOL    HW1 1913   1.926   1.717   0.890
  595SOL    HW2 1914   2.050   1.802   0.894
  596SOL     OW 1915   2.363   1.574   0.903
  596SOL    HW1 1916   2.433   1.634   0.929
  596SOL    HW2 1917   2.408   1.505   0.854
  597SOL     OW 1918   2.863   0.796   1.251
  597SOL    HW1 1919   2.906   0.732   1.308
  597SOL    HW2 1920   2.774   0.762   1.242
  598SOL     OW 1921   1.901   0.526   1.118
  598SOL    HW1 1922   1.984   0.530   1.071
  598SOL    HW2 1923   1.921   0.557   1.206
  599SOL     OW 1924   2.052   0.518   1.724
  599SOL    HW1 1925   2.107   0.481   1.655
  599SOL    HW2 1926   2.004   0.589   1.682
  600SOL     OW 1927   2.676   0.574   0.344
  600SOL    HW1 1928   2.678   0.493   0.294
  600SOL    HW2 1929   2.592   0.614   0.321
  601SOL     OW 1930   2.554   0.460   1.266
  601SOL    HW1 1931   2.509   0.382   1.234
  601SOL    HW2 1932   2.555   0.519   1.191
  602SOL     OW 1933   2.799   1.688   1.462
  602SOL    HW1 1934   2.772   1.642   1.383
  602SOL    HW2 1935   2.777   1.780   1.446
  603SOL     OW 1936   2.314   0.494   0.199
  603SOL    HW1 1937   2.372   0.567   0.220
  603SOL    HW2 1938   2.228   0.534   0.187
  604SOL     OW 1939   2.010   1.136   1.470
  604SOL    HW1 1940   2.017   1.080   1.547
  604SOL    HW2 1941   2.025   1.077   1.396
  605SOL     OW 1942   1.965   1.276   1.005
  605SOL    HW1 1943   1.958   1.282   1.100
  605SOL    HW2 1944   1.892   1.221   0.979
  606SOL     OW 1945   2.535   1.662   1.725
  606SOL    HW1 1946   2.491   1.747   1.719
  606SOL    HW2 1947   2.604   1.667   1.659
  607SOL     OW 1948   2.765   0.086   0.139
  607SOL    HW1 1949   2.812   0.047   0.066
  607SOL    HW2 1950   2.807   0.048   0.217
  608SOL     OW 1951   2.681   1.268   1.426
  608SOL    HW1 1952   2.672   1.314   1.509
  608SOL    HW2 1953   2.607   1.298   1.373
  609SOL     OW 1954   2.533   1.607   0.157
  609SOL    HW1 1955   2.529   1.627   0.064
  609SOL    HW2 1956   2.479   1.529   0.167
  610SOL     OW 1957   2.138   0.348   0.753
  610SOL    HW1 1958   2.048   0.370   0.726
  610SOL    HW2 1959   2.128   0.313   0.842
  611SOL     OW 1960   2.688   1.006   1.375
  611SOL    HW1 1961   2.731   0.999   1.290
  611SOL    HW2 1962   2.689   1.099   1.396
  612SOL     OW 1963   2.789   0.942   0.312
  612SOL    HW1 1964   2.836   0.947   0.229
  612SOL    HW2 1965   2.819   0.860   0.352
  613SOL     OW 1966   2.220   1.308   1.503
  613SOL    HW1 1967   2.219   1.376   1.435
  613SOL    HW2 1968   2.154   1.245   1.474
  614SOL     OW 1969   2.909   1.086   0.717
  614SOL    HW1 1970   2.834   1.044   0.759
  614SOL    HW2 1971   2.936   1.024   0.649
  615SOL     OW 1972   2.877   0.239   0.968
  615SOL    HW1 1973   2.875   0.187   0.887
  615SOL    HW2 1974   2.871   0.174   1.038
  616SOL     OW 1975   2.463   1.491   0.482
  616SOL    HW1 1976   2.496   1.439   0.410
  616SOL    HW2 1977   2.399   1.550   0.442
  617SOL     OW 1978   2.129   1.340   0.294
  617SOL    HW1 1979   2.042   1.341   0.255
  617SOL    HW2 1980   2.118   1.381   0.380
  618SOL     OW 1981   1.980   0.998   1.712
  618SOL    HW1 1982   1.901   0.996   1.767
  618SOL    HW2 1983   2.051   0.972   1.771
  619SOL     OW 1984   2.528   0.206   1.492
  619SOL    HW1 1985   2.611   0.183   1.451
  619SOL    HW2 1986   2.550   0.221   1.584
  620SOL     OW 1987   1.917   0.196   0.331
  620SOL    HW1 1988   1.890   0.236   0.248
  620SOL    HW2 1989   2.001   0.156   0.312
  621SOL     OW 1990   2.478   0.834   1.433
  621SOL    HW1 1991   2.534   0.911   1.417
  621SOL    HW2 1992   2.539   0.761   1.439
  622SOL     OW 1993   2.578   0.564   1.706
  622SOL    HW1 1994   2.612   0.628   1.769
  622SOL    HW2 1995   2.618   0.481   1.733
  623SOL     OW 1996   2.255   1.753   1.556
  623SOL    HW1 1997   2.165   1.786   1.547
  623SOL    HW2 1998   2.245   1.658   1.563
  624SOL     OW 1999   2.459   0.740   0.661
  624SOL    HW1 2000   2.493   0.829   0.650
  624SOL    HW2 2001   2.383   0.736   0.603
  625SOL     OW 2002   2.767   1.401   0.057
  625SOL    HW1 2003   2.696   1.389   0.120
  625SOL    HW2 2004   2.723   1.426   2.976
  626SOL     OW 2005   2.521   1.797   0.950
  626SOL    HW1 2006   2.498   1.886   0.925
  626SOL    HW2 2007   2.616   1.793   0.940
  627SOL     OW 2008   2.718   0.961   0.857
  627SOL    HW1 2009   2.766   0.890   0.899
  627SOL    HW2 2010   2.688   1.015   0.930
  628SOL     OW 2011   2.969   1.029   0.057
  628SOL    HW1 2012   2.911   1.027   2.981
  628SOL    HW2 2013   0.011   0.943   0.058
  629SOL     OW 2014   1.944   1.237   0.654
  629SOL    HW1 2015   1.921   1.189   0.734
  629SOL    HW2 2016   2.019   1.189   0.618
  630SOL     OW 2017   2.538   1.398   1.625
  630SOL    HW1 2018   2.457   1.357   1.656
  630SOL    HW2 2019   2.536   1.486   1.663
  631SOL     OW 2020   2.335   0.433   0.547
  631SOL    HW1 2021   2.323   0.374   0.472
  631SOL    HW2 2022   2.267   0.407   0.609
  632SOL     OW 2023   2.188   0.552   1.291
  632SOL    HW1 2024   2.245   0.498   1.345
  632SOL    HW2 2025   2.209   0.527   1.201
  633SOL     OW 2026   2.684   1.581   0.680
  633SOL    HW1 2027   2.678   1.617   0.592
  633SOL    HW2 2028   2.607   1.525   0.688
  634SOL     OW 2029   2.854   0.019   1.150
  634SOL    HW1 2030   2.819   2.946   1.098
  634SOL    HW2 2031   2.946   2.996   1.164
  635SOL     OW 2032   2.635   1.324   0.303
  635SOL    HW1 2033   2.598   1.239   0.327
  635SOL    HW2 2034   2.713   1.333   0.358
  636SOL     OW 2035   2.484   1.561   1.283
  636SOL    HW1 2036   2.488   1.642   1.334
  636SOL    HW2 2037   2.571   1.552   1.244
  637SOL     OW 2038   1.903   1.075   0.302
  637SOL    HW1 2039   1.998   1.067   0.287
  637SOL    HW2 2040   1.875   0.987   0.325
  638SOL     OW 2041   2.742   1.651   0.340
  638SOL    HW1 2042   2.669   1.631   0.280
  638SOL    HW2 2043   2.712   1.726   0.390
  639SOL     OW 2044   2.093   0.626   1.983
  639SOL    HW1 2045   2.003   0.622   2.015
  639SOL    HW2 2046   2.087   0.597   1.892
  640SOL     OW 2047   2.088   0.275   2.878
  640SOL    HW1 2048   2.103   0.240   2.965
  640SOL    HW2 2049   2.001   0.242   2.853
  641SOL     OW 2050   1.866   0.379   2.505
  641SOL    HW1 2051   1.786   0.409   2.547
  641SOL    HW2 2052   1.839   0.304   2.451
  642SOL     OW 2053   2.618   1.147   2.895
  642SOL    HW1 2054   2.550   1.188   2.950
  642SOL    HW2 2055   2.661   1.221   2.852
  643SOL     OW 2056   2.548   1.013   2.510
  643SOL    HW1 2057   2.608   0.990   2.581
  643SOL    HW2 2058   2.475   1.057   2.553
  644SOL     OW 2059   2.206   1.430   2.929
  644SOL    HW1 2060   2.125   1.399   2.888
  644SOL    HW2 2061   2.246   1.486   2.863
  645SOL     OW 2062   2.055   1.454   2.418
  645SOL    HW1 2063   2.063   1.529   2.477
  645SOL    HW2 2064   2.020   1.384   2.473
  646SOL     OW 2065   2.117   1.092   2.755
  646SOL    HW1 2066   2.110   1.004   2.793
  646SOL    HW2 2067   2.055   1.145   2.806
  647SOL     OW 2068   2.452   0.980   1.994
  647SOL    HW1 2069   2.492   1.033   1.925
  647SOL    HW2 2070   2.498   1.004   2.074
  648SOL     OW 2071   1.981   0.644   2.425
  648SOL    HW1 2072   1.934   0.564   2.447
  648SOL    HW2 2073   1.972   0.699   2.502
  649SOL     OW 2074   2.473   1.380   2.583
  649SOL    HW1 2075   2.433   1.296   2.606
  649SOL    HW2 2076   2.437   1.401   2.497
  650SOL     OW 2077   2.683   0.012   2.373
  650SOL    HW1 2078   2.706   0.104   2.358
  650SOL    HW2 2079   2.588   0.010   2.363
  651SOL     OW 2080   2.458   0.725   2.126
  651SOL    HW1 2081   2.464   0.802   2.071
  651SOL    HW2 2082   2.390   0.747   2.190
  652SOL     OW 2083   2.889   0.712   2.284
  652SOL    HW1 2084   2.923   0.692   2.371
  652SOL    HW2 2085   2.816   0.652   2.271
  653SOL     OW 2086   1.954   0.820   2.634
  653SOL    HW1 2087   2.032   0.810   2.687
  653SOL    HW2 2088   1.907   0.894   2.673
  654SOL     OW 2089   2.736   0.345   2.052
  654SOL    HW1 2090   2.790   0.405   2.001
  654SOL    HW2 2091   2.773   0.258   2.034
  655SOL     OW 2092   2.415   0.197   2.823
  655SOL    HW1 2093   2.365   0.259   2.877
  655SOL    HW2 2094   2.424   0.241   2.739
  656SOL     OW 2095   2.853   1.437   2.336
  656SOL    HW1 2096   2.825   1.516   2.288
  656SOL    HW2 2097   2.875   1.469   2.423
  657SOL     OW 2098   2.214   1.802   2.712
  657SOL    HW1 2099   2.262   1.721   2.729
  657SOL    HW2 2100   2.279   1.871   2.730
  658SOL     OW 2101   2.188   0.950   2.110
  658SOL    HW1 2102   2.268   0.960   2.059
  658SOL    HW2 2103   2.146   0.872   2.073
  659SOL     OW 2104   2.339   1.763   2.170
  659SOL    HW1 2105   2.372   1.808   2.247
  659SOL    HW2 2106   2.418   1.729   2.126
  660SOL     OW 2107   2.128   1.798   0.099
  660SOL    HW1 2108   2.163   1.731   0.157
  660SOL    HW2 2109   2.079   1.750   0.032
  661SOL     OW 2110   2.801   1.694   2.760
  661SOL    HW1 2111   2.872   1.632   2.777
  661SOL    HW2 2112   2.750   1.653   2.689
  662SOL     OW 2113   2.254   0.693   2.341
  662SOL    HW1 2114   2.284   0.603   2.352
  662SOL    HW2 2115   2.161   0.690   2.361
  663SOL     OW 2116   2.486   0.123   1.974
  663SOL    HW1 2117   2.575   0.087   1.971
  663SOL    HW2 2118   2.448   0.101   1.889
  664SOL     OW 2119   2.661   1.400   2.789
  664SOL    HW1 2120   2.748   1.394   2.750
  664SOL    HW2 2121   2.601   1.395   2.714
  665SOL     OW 2122   2.782   0.518   2.756
  665SOL    HW1 2123   2.757   0.494   2.667
  665SOL    HW2 2124   2.814   0.436   2.794
  666SOL     OW 2125   2.405   0.059   2.364
  666SOL    HW1 2126   2.318   0.043   2.400
  666SOL    HW2 2127   2.394   0.132   2.304
  667SOL     OW 2128   2.152   0.036   2.058
  667SOL    HW1 2129   2.196   0.109   2.014
  667SOL    HW2 2130   2.224   2.976   2.081
  668SOL     OW 2131   2.814   0.251   2.325
  668SOL    HW1 2132   2.762   0.290   2.254
  668SOL    HW2 2133   2.892   0.218   2.281
  669SOL     OW 2134   0.083   1.579   2.659
  669SOL    HW1 2135   0.112   1.619   2.578
  669SOL    HW2 2136   0.163   1.551   2.703
  670SOL     OW 2137   2.328   1.149   2.602
  670SOL    HW1 2138   2.258   1.131   2.665
  670SOL    HW2 2139   2.292   1.126   2.517
  671SOL     OW 2140   2.888   0.552   1.875
  671SOL    HW1 2141   2.843   0.633   1.856
  671SOL    HW2 2142   2.939   0.570   1.955
  672SOL     OW 2143   2.744   0.466   2.494
  672SOL    HW1 2144   2.680   0.517   2.444
  672SOL    HW2 2145   2.741   0.379   2.455
  673SOL     OW 2146   2.860   0.053   2.620
  673SOL    HW1 2147   2.821   0.051   2.533
  673SOL    HW2 2148   2.840   2.967   2.657
  674SOL     OW 2149   2.394   0.266   2.184
  674SOL    HW1 2150   2.426   0.211   2.113
  674SOL    HW2 2151   2.373   0.349   2.143
  675SOL     OW 2152   2.569   1.063   2.236
  675SOL    HW1 2153   2.556   1.046   2.330
  675SOL    HW2 2154   2.646   1.010   2.213
  676SOL     OW 2155   2.223   1.100   2.359
  676SOL    HW1 2156   2.206   1.174   2.300
  676SOL    HW2 2157   2.217   1.023   2.302
  677SOL     OW 2158   2.417   0.540   2.728
  677SOL    HW1 2159   2.435   0.593   2.650
  677SOL    HW2 2160   2.480   0.571   2.793
  678SOL     OW 2161   2.437   0.870   2.879
  678SOL    HW1 2162   2.482   0.952   2.862
  678SOL    HW2 2163   2.411   0.876   2.971
  679SOL     OW 2164   0.055   0.531   2.135
  679SOL    HW1 2165   0.084   0.453   2.182
  679SOL    HW2 2166   0.031   0.593   2.203
  680SOL     OW 2167   2.598   0.646   2.920
  680SOL    HW1 2168   2.660   0.618   2.852
  680SOL    HW2 2169   2.561   0.728   2.886
  681SOL     OW 2170   2.173   0.059   2.505
  681SOL    HW1 2171   2.162   0.151   2.531
  681SOL    HW2 2172   2.151   0.009   2.583
  682SOL     OW 2173   2.871   0.776   2.831
  682SOL    HW1 2174   2.889   0.769   2.924
  682SOL    HW2 2175   2.867   0.686   2.799
  683SOL     OW 2176   2.905   1.344   2.694
  683SOL    HW1 2177   2.911   1.266   2.638
  683SOL    HW2 2178   2.979   1.398   2.668
  684SOL     OW 2179   2.171   0.811   2.811
  684SOL    HW1 2180   2.265   0.831   2.808
  684SOL    HW2 2181   2.166   0.721   2.843
  685SOL     OW 2182   2.187   0.531   2.868
  685SOL    HW1 2183   2.150   0.443   2.863
  685SOL    HW2 2184   2.264   0.529   2.812
  686SOL     OW 2185   1.951   1.794   2.792
  686SOL    HW1 2186   1.923   1.711   2.756
  686SOL    HW2 2187   2.043   1.802   2.766
  687SOL     OW 2188   2.366   1.577   2.761
  687SOL    HW1 2189   2.434   1.640   2.785
  687SOL    HW2 2190   2.413   1.506   2.719
  688SOL     OW 2191   2.855   0.770   0.105
  688SOL    HW1 2192   2.892   0.741   0.189
  688SOL    HW2 2193   2.760   0.766   0.118
  689SOL     OW 2194   2.672   0.565   2.213
  689SOL    HW1 2195   2.673   0.489   2.155
  689SOL    HW2 2196   2.597   0.616   2.184
  690SOL     OW 2197   2.563   0.438   0.087
  690SOL    HW1 2198   2.469   0.426   0.103
  690SOL    HW2 2199   2.568   0.518   0.033
  691SOL     OW 2200   2.330   0.494   2.052
  691SOL    HW1 2201   2.386   0.570   2.069
  691SOL    HW2 2202   2.243   0.531   2.041
  692SOL     OW 2203   1.942   1.268   2.886
  692SOL    HW1 2204   1.931   1.274   2.981
  692SOL    HW2 2205   1.868   1.215   2.857
  693SOL     OW 2206   2.536   1.616   2.015
  693SOL    HW1 2207   2.540   1.627   1.920
  693SOL    HW2 2208   2.489   1.533   2.027
  694SOL     OW 2209   2.135   0.337   2.616
  694SOL    HW1 2210   2.047   0.367   2.590
  694SOL    HW2 2211   2.125   0.311   2.708
  695SOL     OW 2212   2.779   0.920   2.154
  695SOL    HW1 2213   2.832   0.932   2.075
  695SOL    HW2 2214   2.815   0.842   2.196
  696SOL     OW 2215   2.909   1.081   2.585
  696SOL    HW1 2216   2.831   1.037   2.617
  696SOL    HW2 2217   2.934   1.033   2.507
  697SOL     OW 2218   2.879   0.236   2.822
  697SOL    HW1 2219   2.873   0.191   2.738
  697SOL    HW2 2220   2.878   0.166   2.887
  698SOL     OW 2221   1.939   0.340   1.899
  698SOL    HW1 2222   1.851   0.316   1.869
  698SOL    HW2 2223   1.965   0.413   1.843
  699SOL     OW 2224   1.905   0.205   2.164
  699SOL    HW1 2225   1.921   0.264   2.091
  699SOL    HW2 2226   1.976   0.141   2.159
  700SOL     OW 2227   2.457   0.742   2.528
  700SOL    HW1 2228   2.494   0.828   2.507
  700SOL    HW2 2229   2.384   0.733   2.466
  701SOL     OW 2230   2.724   1.369   1.893
  701SOL    HW1 2231   2.686   1.409   1.972
  701SOL    HW2 2232   2.752   1.444   1.839
  702SOL     OW 2233   2.523   1.796   2.820
  702SOL    HW1 2234   2.499   1.884   2.789
  702SOL    HW2 2235   2.618   1.792   2.807
  703SOL     OW 2236   2.711   0.959   2.719
  703SOL    HW1 2237   2.765   0.890   2.757
  703SOL    HW2 2238   2.688   1.015   2.793
  704SOL     OW 2239   2.933   0.952   1.933
  704SOL    HW1 2240   2.910   1.027   1.878
  704SOL    HW2 2241   0.027   0.963   1.950
  705SOL     OW 2242   1.951   1.235   2.533
  705SOL    HW1 2243   1.936   1.179   2.609
  705SOL    HW2 2244   2.011   1.185   2.477
  706SOL     OW 2245   2.330   0.432   2.406
  706SOL    HW1 2246   2.320   0.373   2.330
  706SOL    HW2 2247   2.263   0.402   2.468
  707SOL     OW 2248   2.680   1.586   2.544
  707SOL    HW1 2249   2.687   1.612   2.452
  707SOL    HW2 2250   2.609   1.521   2.545
  708SOL     OW 2251   2.628   1.326   2.172
  708SOL    HW1 2252   2.614   1.231   2.181
  708SOL    HW2 2253   2.710   1.343   2.218
  709SOL     OW 2254   1.907   1.086   2.177
  709SOL    HW1 2255   1.995   1.073   2.142
  709SOL    HW2 2256   1.874   0.997   2.194
  710SOL     OW 2257   2.730   1.643   2.216
  710SOL    HW1 2258   2.667   1.635   2.144
  710SOL    HW2 2259   2.710   1.728   2.255
  711SOL     OW 2260   2.089   2.500   0.113
  711SOL    HW1 2261   1.998   2.479   0.137
  711SOL    HW2 2262   2.102   2.458   0.028
  712SOL     OW 2263   2.087   2.141   0.991
  712SOL    HW1 2264   2.115   2.110   1.077
  712SOL    HW2 2265   1.998   2.106   0.980
  713SOL     OW 2266   1.869   2.245   0.639
  713SOL    HW1 2267   1.786   2.265   0.681
  713SOL    HW2 2268   1.851   2.165   0.588
  714SOL     OW 2269   2.602   0.002   1.022
  714SOL    HW1 2270   2.530   0.045   1.068
  714SOL    HW2 2271   2.647   0.072   0.976
  715SOL     OW 2272   2.718   2.641   1.817
  715SOL    HW1 2273   2.718   2.703   1.890
  715SOL    HW2 2274   2.749   2.693   1.742
  716SOL     OW 2275   2.517   2.847   0.703
  716SOL    HW1 2276   2.609   2.856   0.726
  716SOL    HW2 2277   2.489   2.935   0.676
  717SOL     OW 2278   2.307   2.261   1.493
  717SOL    HW1 2279   2.383   2.202   1.496
  717SOL    HW2 2280   2.232   2.203   1.502
  718SOL     OW 2281   2.106   0.307   0.484
  718SOL    HW1 2282   2.061   0.389   0.505
  718SOL    HW2 2283   2.044   0.238   0.509
  719SOL     OW 2284   2.108   2.950   0.882
  719SOL    HW1 2285   2.121   2.864   0.923
  719SOL    HW2 2286   2.059   0.000   0.947
  720SOL     OW 2287   2.477   2.831   0.145
  720SOL    HW1 2288   2.463   2.923   0.123
  720SOL    HW2 2289   2.537   2.834   0.220
  721SOL     OW 2290   1.978   2.508   0.561
  721SOL    HW1 2291   1.947   2.420   0.583
  721SOL    HW2 2292   1.969   2.558   0.642
  722SOL     OW 2293   1.984   2.604   1.585
  722SOL    HW1 2294   2.076   2.620   1.606
  722SOL    HW2 2295   1.940   2.688   1.601
  723SOL     OW 2296   2.523   0.241   0.675
  723SOL    HW1 2297   2.465   0.182   0.724
  723SOL    HW2 2298   2.463   0.298   0.627
  724SOL     OW 2299   2.673   1.861   0.502
  724SOL    HW1 2300   2.711   1.948   0.493
  724SOL    HW2 2301   2.580   1.876   0.514
  725SOL     OW 2302   2.057   2.841   1.257
  725SOL    HW1 2303   2.138   2.791   1.249
  725SOL    HW2 2304   1.988   2.778   1.233
  726SOL     OW 2305   2.189   2.115   1.798
  726SOL    HW1 2306   2.239   2.193   1.820
  726SOL    HW2 2307   2.103   2.130   1.838
  727SOL     OW 2308   2.454   2.581   0.267
  727SOL    HW1 2309   2.466   2.661   0.215
  727SOL    HW2 2310   2.391   2.604   0.334
  728SOL     OW 2311   2.654   2.487   1.453
  728SOL    HW1 2312   2.629   2.462   1.542
  728SOL    HW2 2313   2.615   2.419   1.398
  729SOL     OW 2314   2.829   2.748   1.580
  729SOL    HW1 2315   2.860   2.664   1.546
  729SOL    HW2 2316   2.777   2.784   1.508
  730SOL     OW 2317   2.846   2.240   1.257
  730SOL    HW1 2318   2.771   2.291   1.288
  730SOL    HW2 2319   2.832   2.231   1.163
  731SOL     OW 2320   2.891   2.577   0.411
  731SOL    HW1 2321   2.926   2.564   0.500
  731SOL    HW2 2322   2.816   2.517   0.407
  732SOL     OW 2323   1.947   2.681   0.776
  732SOL    HW1 2324   2.031   2.672   0.821
  732SOL    HW2 2325   1.910   2.763   0.810
  733SOL     OW 2326   2.792   2.191   0.213
  733SOL    HW1 2327   2.785   2.263   0.151
  733SOL    HW2 2328   2.743   2.120   0.173
  734SOL     OW 2329   2.412   2.048   0.891
  734SOL    HW1 2330   2.414   2.072   0.984
  734SOL    HW2 2331   2.413   2.131   0.844
  735SOL     OW 2332   2.061   2.145   1.496
  735SOL    HW1 2333   1.982   2.197   1.490
  735SOL    HW2 2334   2.050   2.093   1.576
  736SOL     OW 2335   2.249   2.556   0.475
  736SOL    HW1 2336   2.275   2.464   0.485
  736SOL    HW2 2337   2.156   2.557   0.497
  737SOL     OW 2338   2.486   1.981   0.116
  737SOL    HW1 2339   2.579   1.959   0.118
  737SOL    HW2 2340   2.453   1.943   0.035
  738SOL     OW 2341   2.632   2.142   1.754
  738SOL    HW1 2342   2.701   2.076   1.767
  738SOL    HW2 2343   2.572   2.127   1.827
  739SOL     OW 2344   2.786   2.367   0.903
  739SOL    HW1 2345   2.760   2.355   0.812
  739SOL    HW2 2346   2.824   2.282   0.928
  740SOL     OW 2347   2.409   1.923   0.506
  740SOL    HW1 2348   2.330   1.925   0.559
  740SOL    HW2 2349   2.404   2.001   0.451
  741SOL     OW 2350   2.806   2.101   0.467
  741SOL    HW1 2351   2.771   2.149   0.392
  741SOL    HW2 2352   2.893   2.074   0.439
  742SOL     OW 2353   2.889   2.381   0.029
  742SOL    HW1 2354   2.844   2.462   0.004
  742SOL    HW2 2355   2.944   2.406   0.104
  743SOL     OW 2356   1.939   2.418   1.392
  743SOL    HW1 2357   2.030   2.415   1.362
  743SOL    HW2 2358   1.936   2.489   1.455
  744SOL     OW 2359   2.424   2.088   1.162
  744SOL    HW1 2360   2.462   2.008   1.198
  744SOL    HW2 2361   2.334   2.088   1.192
  745SOL     OW 2362   2.742   2.320   0.636
  745SOL    HW1 2363   2.685   2.380   0.587
  745SOL    HW2 2364   2.742   2.240   0.585
  746SOL     OW 2365   2.860   1.922   0.755
  746SOL    HW1 2366   2.809   1.902   0.677
  746SOL    HW2 2367   2.854   1.843   0.809
  747SOL     OW 2368   2.382   2.122   0.325
  747SOL    HW1 2369   2.420   2.072   0.252
  747SOL    HW2 2370   2.368   2.210   0.289
  748SOL     OW 2371   2.757   1.950   1.392
  748SOL    HW1 2372   2.782   1.935   1.301
  748SOL    HW2 2373   2.833   1.993   1.431
  749SOL     OW 2374   2.275   2.677   1.254
  749SOL    HW1 2375   2.347   2.684   1.317
  749SOL    HW2 2376   2.241   2.589   1.266
  750SOL     OW 2377   2.420   2.399   0.861
  750SOL    HW1 2378   2.436   2.457   0.786
  750SOL    HW2 2379   2.482   2.430   0.928
  751SOL     OW 2380   2.275   2.604   1.603
  751SOL    HW1 2381   2.335   2.650   1.544
  751SOL    HW2 2382   2.316   2.519   1.618
  752SOL     OW 2383   2.857   1.986   1.770
  752SOL    HW1 2384   2.897   2.043   1.705
  752SOL    HW2 2385   2.903   1.902   1.760
  753SOL     OW 2386   2.364   1.910   1.747
  753SOL    HW1 2387   2.326   1.857   1.677
  753SOL    HW2 2388   2.300   1.979   1.762
  754SOL     OW 2389   2.449   2.730   1.035
  754SOL    HW1 2390   2.466   2.822   1.016
  754SOL    HW2 2391   2.386   2.731   1.107
  755SOL     OW 2392   0.063   2.396   0.274
  755SOL    HW1 2393   0.083   2.321   0.329
  755SOL    HW2 2394   0.031   2.463   0.334
  756SOL     OW 2395   2.165   2.062   1.244
  756SOL    HW1 2396   2.128   2.097   1.325
  756SOL    HW2 2397   2.140   1.970   1.245
  757SOL     OW 2398   2.589   2.493   1.061
  757SOL    HW1 2399   2.665   2.479   1.004
  757SOL    HW2 2400   2.561   2.582   1.042
  758SOL     OW 2401   2.163   1.929   0.622
  758SOL    HW1 2402   2.146   2.019   0.649
  758SOL    HW2 2403   2.168   1.880   0.704
  759SOL     OW 2404   2.858   2.626   0.981
  759SOL    HW1 2405   2.907   2.625   1.064
  759SOL    HW2 2406   2.866   2.537   0.947
  760SOL     OW 2407   2.221   2.784   1.802
  760SOL    HW1 2408   2.291   2.782   1.867
  760SOL    HW2 2409   2.243   2.715   1.740
  761SOL     OW 2410   2.174   2.674   0.950
  761SOL    HW1 2411   2.267   2.692   0.938
  761SOL    HW2 2412   2.171   2.585   0.985
  762SOL     OW 2413   2.197   2.384   1.010
  762SOL    HW1 2414   2.160   2.297   0.994
  762SOL    HW2 2415   2.273   2.389   0.952
  763SOL     OW 2416   2.970   2.241   1.667
  763SOL    HW1 2417   2.915   2.302   1.716
  763SOL    HW2 2418   0.058   2.279   1.672
  764SOL     OW 2419   2.979   2.062   1.472
  764SOL    HW1 2420   2.966   2.134   1.534
  764SOL    HW2 2421   2.989   2.105   1.387
  765SOL     OW 2422   2.859   2.667   1.262
  765SOL    HW1 2423   2.907   2.600   1.309
  765SOL    HW2 2424   2.777   2.625   1.237
  766SOL     OW 2425   1.898   2.408   1.116
  766SOL    HW1 2426   1.977   2.385   1.068
  766SOL    HW2 2427   1.925   2.412   1.208
  767SOL     OW 2428   2.050   2.381   1.722
  767SOL    HW1 2429   2.112   2.348   1.656
  767SOL    HW2 2430   2.004   2.452   1.678
  768SOL     OW 2431   2.671   2.426   0.353
  768SOL    HW1 2432   2.670   2.358   0.286
  768SOL    HW2 2433   2.597   2.483   0.330
  769SOL     OW 2434   2.553   2.319   1.265
  769SOL    HW1 2435   2.507   2.242   1.232
  769SOL    HW2 2436   2.555   2.379   1.191
  770SOL     OW 2437   2.309   2.356   0.205
  770SOL    HW1 2438   2.373   2.426   0.221
  770SOL    HW2 2439   2.227   2.403   0.187
  771SOL     OW 2440   2.018   2.997   1.474
  771SOL    HW1 2441   2.024   2.939   1.550
  771SOL    HW2 2442   2.034   2.940   1.399
  772SOL     OW 2443   2.758   1.929   0.124
  772SOL    HW1 2444   2.828   1.934   0.059
  772SOL    HW2 2445   2.803   1.911   0.206
  773SOL     OW 2446   2.127   2.180   0.719
  773SOL    HW1 2447   2.042   2.217   0.693
  773SOL    HW2 2448   2.120   2.169   0.814
  774SOL     OW 2449   2.673   2.866   1.374
  774SOL    HW1 2450   2.728   2.845   1.298
  774SOL    HW2 2451   2.699   2.955   1.398
  775SOL     OW 2452   2.749   2.781   0.287
  775SOL    HW1 2453   2.826   2.833   0.267
  775SOL    HW2 2454   2.778   2.719   0.354
  776SOL     OW 2455   2.879   2.102   0.966
  776SOL    HW1 2456   2.875   2.052   0.884
  776SOL    HW2 2457   2.869   2.037   1.035
  777SOL     OW 2458   1.974   2.862   1.710
  777SOL    HW1 2459   1.899   2.855   1.769
  777SOL    HW2 2460   2.050   2.844   1.766
  778SOL     OW 2461   2.529   2.061   1.499
  778SOL    HW1 2462   2.610   2.043   1.453
  778SOL    HW2 2463   2.556   2.089   1.587
  779SOL     OW 2464   1.938   2.020   0.341
  779SOL    HW1 2465   1.903   2.071   0.267
  779SOL    HW2 2466   2.027   1.997   0.314
  780SOL     OW 2467   2.475   2.693   1.433
  780SOL    HW1 2468   2.532   2.769   1.417
  780SOL    HW2 2469   2.535   2.619   1.441
  781SOL     OW 2470   2.578   2.426   1.704
  781SOL    HW1 2471   2.610   2.492   1.766
  781SOL    HW2 2472   2.616   2.344   1.735
  782SOL     OW 2473   2.456   2.588   0.659
  782SOL    HW1 2474   2.484   2.679   0.668
  782SOL    HW2 2475   2.383   2.591   0.597
  783SOL     OW 2476   2.748   2.836   0.861
  783SOL    HW1 2477   2.778   2.752   0.898
  783SOL    HW2 2478   2.684   2.868   0.924
  784SOL     OW 2479   2.293   2.295   0.527
  784SOL    HW1 2480   2.320   2.223   0.470
  784SOL    HW2 2481   2.245   2.252   0.598
  785SOL     OW 2482   2.188   2.414   1.289
  785SOL    HW1 2483   2.243   2.359   1.345
  785SOL    HW2 2484   2.211   2.387   1.200
  786SOL     OW 2485   2.866   1.882   1.147
  786SOL    HW1 2486   2.813   1.812   1.107
  786SOL    HW2 2487   2.956   1.858   1.126
  787SOL     OW 2488   1.873   2.918   0.302
  787SOL    HW1 2489   1.959   2.923   0.263
  787SOL    HW2 2490   1.866   2.829   0.336
  788SOL     OW 2491   2.094   2.471   1.982
  788SOL    HW1 2492   2.006   2.490   2.014
  788SOL    HW2 2493   2.083   2.453   1.889
  789SOL     OW 2494   2.090   2.140   2.846
  789SOL    HW1 2495   2.118   2.115   2.934
  789SOL    HW2 2496   1.999   2.108   2.840
  790SOL     OW 2497   1.873   2.252   2.501
  790SOL    HW1 2498   1.788   2.270   2.539
  790SOL    HW2 2499   1.861   2.169   2.454
  791SOL     OW 2500   2.639   0.015   2.881
  791SOL    HW1 2501   2.551   0.024   2.916
  791SOL    HW2 2502   2.650   0.091   2.824
  792SOL     OW 2503   2.515   2.844   2.560
  792SOL    HW1 2504   2.605   2.850   2.591
  792SOL    HW2 2505   2.491   2.935   2.540
  793SOL     OW 2506   2.099   0.300   2.342
  793SOL    HW1 2507   2.057   0.384   2.364
  793SOL    HW2 2508   2.040   0.234   2.379
  794SOL     OW 2509   2.111   2.953   2.749
  794SOL    HW1 2510   2.122   2.865   2.784
  794SOL    HW2 2511   2.055   2.997   2.814
  795SOL     OW 2512   2.466   2.825   1.993
  795SOL    HW1 2513   2.463   2.907   1.945
  795SOL    HW2 2514   2.527   2.842   2.065
  796SOL     OW 2515   1.979   2.510   2.424
  796SOL    HW1 2516   1.949   2.422   2.447
  796SOL    HW2 2517   1.970   2.560   2.505
  797SOL     OW 2518   2.507   0.247   2.560
  797SOL    HW1 2519   2.459   0.164   2.560
  797SOL    HW2 2520   2.464   0.298   2.491
  798SOL     OW 2521   2.672   1.864   2.365
  798SOL    HW1 2522   2.713   1.949   2.353
  798SOL    HW2 2523   2.579   1.883   2.380
  799SOL     OW 2524   2.062   2.808   0.113
  799SOL    HW1 2525   2.131   2.742   0.107
  799SOL    HW2 2526   1.981   2.760   0.093
  800SOL     OW 2527   2.458   2.582   2.127
  800SOL    HW1 2528   2.467   2.659   2.071
  800SOL    HW2 2529   2.393   2.606   2.192
  801SOL     OW 2530   2.896   2.577   2.276
  801SOL    HW1 2531   2.923   2.567   2.367
  801SOL    HW2 2532   2.818   2.523   2.268
  802SOL     OW 2533   1.947   2.681   2.638
  802SOL    HW1 2534   2.030   2.671   2.685
  802SOL    HW2 2535   1.910   2.762   2.675
  803SOL     OW 2536   2.748   2.204   2.061
  803SOL    HW1 2537   2.788   2.268   2.001
  803SOL    HW2 2538   2.756   2.120   2.015
  804SOL     OW 2539   2.414   2.048   2.766
  804SOL    HW1 2540   2.382   2.083   2.849
  804SOL    HW2 2541   2.420   2.125   2.709
  805SOL     OW 2542   2.249   2.556   2.338
  805SOL    HW1 2543   2.275   2.465   2.347
  805SOL    HW2 2544   2.156   2.557   2.359
  806SOL     OW 2545   2.496   1.992   1.967
  806SOL    HW1 2546   2.566   1.928   1.979
  806SOL    HW2 2547   2.444   1.957   1.895
  807SOL     OW 2548   2.785   2.376   2.757
  807SOL    HW1 2549   2.760   2.354   2.667
  807SOL    HW2 2550   2.815   2.293   2.794
  808SOL     OW 2551   2.410   1.928   2.375
  808SOL    HW1 2552   2.324   1.925   2.417
  808SOL    HW2 2553   2.405   2.004   2.317
  809SOL     OW 2554   2.150   1.888   2.023
  809SOL    HW1 2555   2.188   1.975   2.011
  809SOL    HW2 2556   2.213   1.841   2.078
  810SOL     OW 2557   2.805   2.102   2.321
  810SOL    HW1 2558   2.764   2.148   2.247
  810SOL    HW2 2559   2.892   2.078   2.290
  811SOL     OW 2560   2.888   2.414   1.876
  811SOL    HW1 2561   2.841   2.495   1.855
  811SOL    HW2 2562   2.936   2.434   1.956
  812SOL     OW 2563   2.742   2.318   2.495
  812SOL    HW1 2564   2.685   2.379   2.449
  812SOL    HW2 2565   2.741   2.238   2.442
  813SOL     OW 2566   2.859   1.920   2.616
  813SOL    HW1 2567   2.811   1.900   2.536
  813SOL    HW2 2568   2.851   1.842   2.670
  814SOL     OW 2569   2.391   2.124   2.185
  814SOL    HW1 2570   2.426   2.073   2.112
  814SOL    HW2 2571   2.372   2.210   2.148
  815SOL     OW 2572   2.420   2.395   2.724
  815SOL    HW1 2573   2.433   2.453   2.649
  815SOL    HW2 2574   2.477   2.430   2.792
  816SOL     OW 2575   2.433   2.728   2.884
  816SOL    HW1 2576   2.480   2.807   2.857
  816SOL    HW2 2577   2.417   2.740   2.977
  817SOL     OW 2578   0.056   2.391   2.138
  817SOL    HW1 2579   0.090   2.318   2.190
  817SOL    HW2 2580   0.021   2.452   2.203
  818SOL     OW 2581   2.162   2.069   0.090
  818SOL    HW1 2582   2.180   2.103   0.178
  818SOL    HW2 2583   2.154   1.975   0.103
  819SOL     OW 2584   2.591   2.500   2.916
  819SOL    HW1 2585   2.661   2.481   2.854
  819SOL    HW2 2586   2.560   2.587   2.892
  820SOL     OW 2587   2.159   1.928   2.479
  820SOL    HW1 2588   2.146   2.018   2.510
  820SOL    HW2 2589   2.162   1.875   2.558
  821SOL     OW 2590   2.869   2.633   2.826
  821SOL    HW1 2591   2.894   2.635   2.918
  821SOL    HW2 2592   2.868   2.540   2.803
  822SOL     OW 2593   2.171   2.672   2.810
  822SOL    HW1 2594   2.264   2.695   2.810
  822SOL    HW2 2595   2.168   2.582   2.841
  823SOL     OW 2596   2.186   2.393   2.865
  823SOL    HW1 2597   2.151   2.304   2.858
  823SOL    HW2 2598   2.266   2.391   2.812
  824SOL     OW 2599   2.876   2.640   0.095
  824SOL    HW1 2600   2.914   2.636   0.183
  824SOL    HW2 2601   2.785   2.666   0.110
  825SOL     OW 2602   2.674   2.428   2.216
  825SOL    HW1 2603   2.673   2.353   2.157
  825SOL    HW2 2604   2.600   2.482   2.188
  826SOL     OW 2605   2.568   2.304   0.099
  826SOL    HW1 2606   2.478   2.273   0.097
  826SOL    HW2 2607   2.570   2.379   0.040
  827SOL     OW 2608   2.332   2.353   2.052
  827SOL    HW1 2609   2.386   2.430   2.072
  827SOL    HW2 2610   2.244   2.389   2.040
  828SOL     OW 2611   0.166   2.703   2.167
  828SOL    HW1 2612   0.101   2.649   2.212
  828SOL    HW2 2613   0.191   2.652   2.091
  829SOL     OW 2614   2.129   2.178   2.580
  829SOL    HW1 2615   2.048   2.222   2.555
  829SOL    HW2 2616   2.124   2.170   2.675
  830SOL     OW 2617   2.761   2.762   2.117
  830SOL    HW1 2618   2.836   2.814   2.088
  830SOL    HW2 2619   2.795   2.705   2.185
  831SOL     OW 2620   2.877   2.100   2.820
  831SOL    HW1 2621   2.874   2.059   2.734
  831SOL    HW2 2622   2.886   2.027   2.881
  832SOL     OW 2623   1.939   2.195   1.888
  832SOL    HW1 2624   1.846   2.191   1.869
  832SOL    HW2 2625   1.970   2.272   1.841
  833SOL     OW 2626   2.457   2.585   2.521
  833SOL    HW1 2627   2.485   2.677   2.529
  833SOL    HW2 2628   2.383   2.589   2.460
  834SOL     OW 2629   2.739   2.831   2.714
  834SOL    HW1 2630   2.782   2.754   2.752
  834SOL    HW2 2631   2.705   2.879   2.790
  835SOL     OW 2632   2.947   2.830   1.901
  835SOL    HW1 2633   2.916   2.920   1.906
  835SOL    HW2 2634   0.012   2.822   1.971
  836SOL     OW 2635   2.292   2.294   2.387
  836SOL    HW1 2636   2.319   2.222   2.329
  836SOL    HW2 2637   2.247   2.251   2.459
  837SOL     OW 2638   1.887   2.920   2.173
  837SOL    HW1 2639   1.973   2.930   2.134
  837SOL    HW2 2640   1.880   2.827   2.194
  838NA      NA 2641   0.067   1.560   0.157
   3.00000   3.00000   3.00000
