UNNAMED in water
 2642
    1PHE      N    1   1.208   1.451   1.581
    1PHE     H1    2   1.154   1.459   1.492
    1PHE     H2    3   1.181   1.364   1.630
    1PHE     H3    4   1.182   1.528   1.647
    1PHE     CA    5   1.355   1.450   1.563
    1PHE     HA    6   1.379   1.358   1.512
    1PHE     CB    7   1.401   1.573   1.481
    1PHE    HB1    8   1.338   1.590   1.391
    1PHE    HB2    9   1.396   1.664   1.545
    1PHE     CG   10   1.543   1.555   1.434
    1PHE    CD1   11   1.577   1.452   1.344
    1PHE    HD1   12   1.501   1.386   1.305
    1PHE    CE1   13   1.711   1.432   1.307
    1PHE    HE1   14   1.737   1.352   1.239
    1PHE     CZ   15   1.812   1.512   1.362
    1PHE     HZ   16   1.915   1.495   1.337
    1PHE    CD2   17   1.645   1.634   1.489
    1PHE    HD2   18   1.620   1.709   1.562
    1PHE    CE2   19   1.779   1.612   1.454
    1PHE    HE2   20   1.857   1.670   1.500
    1PHE      C   21   1.425   1.448   1.701
    1PHE    OT1   22   1.353   1.453   1.806
    1PHE    OT2   23   1.549   1.444   1.709
    2SOL     OW   24   0.234   0.660   0.104
    2SOL    HW1   25   0.169   0.612   0.155
    2SOL    HW2   26   0.249   0.605   0.027
    3SOL     OW   27   0.206   0.271   1.000
    3SOL    HW1   28   0.244   0.248   1.084
    3SOL    HW2   29   0.113   0.250   1.009
    4SOL     OW   30   0.008   0.385   0.657
    4SOL    HW1   31   2.926   0.424   0.685
    4SOL    HW2   32   2.983   0.313   0.600
    5SOL     OW   33   0.569   1.282   1.170
    5SOL    HW1   34   0.479   1.278   1.138
    5SOL    HW2   35   0.578   1.370   1.207
    6SOL     OW   36   1.558   1.511   0.702
    6SOL    HW1   37   1.515   1.495   0.786
    6SOL    HW2   38   1.486   1.517   0.639
    7SOL     OW   39   1.130   0.700   0.703
    7SOL    HW1   40   1.181   0.780   0.691
    7SOL    HW2   41   1.082   0.714   0.785
    8SOL     OW   42   1.765   0.595   0.232
    8SOL    HW1   43   1.745   0.580   0.140
    8SOL    HW2   44   1.727   0.519   0.278
    9SOL     OW   45   0.766   1.147   1.039
    9SOL    HW1   46   0.692   1.177   1.092
    9SOL    HW2   47   0.793   1.225   0.990
   10SOL     OW   48   0.855   0.785   1.819
   10SOL    HW1   49   0.855   0.855   1.884
   10SOL    HW2   50   0.884   0.827   1.738
   11SOL     OW   51   0.686   1.008   0.651
   11SOL    HW1   52   0.749   0.993   0.721
   11SOL    HW2   53   0.615   1.057   0.692
   12SOL     OW   54   0.706   1.154   1.807
   12SOL    HW1   55   0.752   1.235   1.830
   12SOL    HW2   56   0.620   1.182   1.776
   13SOL     OW   57   0.332   1.431   1.071
   13SOL    HW1   58   0.265   1.385   1.020
   13SOL    HW2   59   0.384   1.478   1.005
   14SOL     OW   60   0.449   0.401   1.494
   14SOL    HW1   61   0.524   0.341   1.497
   14SOL    HW2   62   0.373   0.345   1.506
   15SOL     OW   63   1.612   0.456   0.734
   15SOL    HW1   64   1.535   0.483   0.683
   15SOL    HW2   65   1.631   0.531   0.791
   16SOL     OW   66   0.219   1.715   0.480
   16SOL    HW1   67   0.242   1.796   0.525
   16SOL    HW2   68   0.287   1.704   0.413
   17SOL     OW   69   0.247   1.449   0.531
   17SOL    HW1   70   0.210   1.537   0.527
   17SOL    HW2   71   0.185   1.400   0.585
   18SOL     OW   72   0.255   1.083   0.891
   18SOL    HW1   73   0.252   0.997   0.934
   18SOL    HW2   74   0.195   1.137   0.943
   19SOL     OW   75   0.623   1.787   1.439
   19SOL    HW1   76   0.536   1.770   1.477
   19SOL    HW2   77   0.639   1.879   1.457
   20SOL     OW   78   0.592   0.975   0.147
   20SOL    HW1   79   0.607   1.048   0.086
   20SOL    HW2   80   0.634   1.003   0.229
   21SOL     OW   81   1.549   0.142   1.462
   21SOL    HW1   82   1.589   0.214   1.412
   21SOL    HW2   83   1.616   0.118   1.526
   22SOL     OW   84   0.124   0.628   0.571
   22SOL    HW1   85   0.083   0.551   0.610
   22SOL    HW2   86   0.119   0.695   0.638
   23SOL     OW   87   1.844   1.761   0.337
   23SOL    HW1   88   1.899   1.728   0.408
   23SOL    HW2   89   1.871   1.852   0.326
   24SOL     OW   90   0.020   1.599   0.115
   24SOL    HW1   91   0.020   1.504   0.132
   24SOL    HW2   92   2.990   1.638   0.197
   25SOL     OW   93   1.692   0.921   0.638
   25SOL    HW1   94   1.776   0.880   0.617
   25SOL    HW2   95   1.669   0.970   0.559
   26SOL     OW   96   1.646   1.108   0.432
   26SOL    HW1   97   1.731   1.115   0.389
   26SOL    HW2   98   1.652   1.168   0.506
   27SOL     OW   99   0.127   0.746   1.591
   27SOL    HW1  100   0.222   0.756   1.600
   27SOL    HW2  101   0.093   0.836   1.589
   28SOL     OW  102   0.612   1.380   0.735
   28SOL    HW1  103   0.564   1.297   0.743
   28SOL    HW2  104   0.595   1.409   0.646
   29SOL     OW  105   0.819   0.011   0.509
   29SOL    HW1  106   0.847   0.101   0.496
   29SOL    HW2  107   0.724   0.013   0.499
   30SOL     OW  108   0.189   0.960   1.272
   30SOL    HW1  109   0.273   0.919   1.250
   30SOL    HW2  110   0.125   0.912   1.221
   31SOL     OW  111   1.507   1.006   0.208
   31SOL    HW1  112   1.444   0.944   0.244
   31SOL    HW2  113   1.561   1.032   0.283
   32SOL     OW  114   1.184   1.812   1.614
   32SOL    HW1  115   1.198   1.884   1.553
   32SOL    HW2  116   1.189   1.734   1.560
   33SOL     OW  117   0.329   0.253   1.794
   33SOL    HW1  118   0.382   0.329   1.820
   33SOL    HW2  119   0.247   0.263   1.841
   34SOL     OW  120   1.457   1.422   0.940
   34SOL    HW1  121   1.398   1.436   1.015
   34SOL    HW2  122   1.450   1.329   0.921
   35SOL     OW  123   1.664   1.730   0.577
   35SOL    HW1  124   1.638   1.704   0.489
   35SOL    HW2  125   1.636   1.658   0.633
   36SOL     OW  126   0.591   0.720   0.264
   36SOL    HW1  127   0.603   0.802   0.216
   36SOL    HW2  128   0.529   0.742   0.334
   37SOL     OW  129   1.285   0.342   0.930
   37SOL    HW1  130   1.194   0.315   0.938
   37SOL    HW2  131   1.331   0.292   0.998
   38SOL     OW  132   1.583   1.667   0.310
   38SOL    HW1  133   1.671   1.703   0.303
   38SOL    HW2  134   1.558   1.646   0.220
   39SOL     OW  135   0.793   0.618   1.456
   39SOL    HW1  136   0.765   0.595   1.544
   39SOL    HW2  137   0.751   0.553   1.399
   40SOL     OW  138   1.397   0.477   1.677
   40SOL    HW1  139   1.396   0.520   1.762
   40SOL    HW2  140   1.456   0.402   1.688
   41SOL     OW  141   0.961   0.890   1.582
   41SOL    HW1  142   1.014   0.817   1.548
   41SOL    HW2  143   0.911   0.919   1.506
   42SOL     OW  144   0.994   0.423   1.230
   42SOL    HW1  145   0.918   0.436   1.286
   42SOL    HW2  146   0.962   0.369   1.157
   43SOL     OW  147   1.047   0.705   0.425
   43SOL    HW1  148   1.064   0.695   0.519
   43SOL    HW2  149   0.968   0.654   0.409
   44SOL     OW  150   0.102   0.818   0.762
   44SOL    HW1  151   0.180   0.812   0.818
   44SOL    HW2  152   0.042   0.873   0.812
   45SOL     OW  153   0.138   1.832   1.571
   45SOL    HW1  154   0.125   1.813   1.664
   45SOL    HW2  155   0.053   1.861   1.540
   46SOL     OW  156   0.928   0.338   0.220
   46SOL    HW1  157   0.935   0.400   0.147
   46SOL    HW2  158   0.882   0.263   0.183
   47SOL     OW  159   1.713   0.580   1.829
   47SOL    HW1  160   1.676   0.658   1.787
   47SOL    HW2  161   1.732   0.521   1.756
   48SOL     OW  162   1.374   1.141   0.541
   48SOL    HW1  163   1.452   1.128   0.488
   48SOL    HW2  164   1.322   1.205   0.492
   49SOL     OW  165   0.514   0.194   0.913
   49SOL    HW1  166   0.536   0.211   1.005
   49SOL    HW2  167   0.547   0.271   0.867
   50SOL     OW  168   1.010   1.449   0.475
   50SOL    HW1  169   0.967   1.517   0.424
   50SOL    HW2  170   0.993   1.472   0.567
   51SOL     OW  171   0.353   1.804   0.853
   51SOL    HW1  172   0.401   1.722   0.866
   51SOL    HW2  173   0.419   1.872   0.870
   52SOL     OW  174   1.799   1.064   0.869
   52SOL    HW1  175   1.746   1.047   0.791
   52SOL    HW2  176   1.737   1.066   0.941
   53SOL     OW  177   0.321   0.951   0.233
   53SOL    HW1  178   0.412   0.958   0.205
   53SOL    HW2  179   0.294   0.863   0.204
   54SOL     OW  180   1.474   0.739   0.728
   54SOL    HW1  181   1.462   0.691   0.811
   54SOL    HW2  182   1.551   0.793   0.743
   55SOL     OW  183   0.465   1.260   1.734
   55SOL    HW1  184   0.435   1.267   1.643
   55SOL    HW2  185   0.385   1.266   1.786
   56SOL     OW  186   1.110   1.777   0.225
   56SOL    HW1  187   1.052   1.728   0.282
   56SOL    HW2  188   1.140   1.712   0.161
   57SOL     OW  189   0.200   0.296   1.495
   57SOL    HW1  190   0.116   0.342   1.492
   57SOL    HW2  191   0.186   0.225   1.558
   58SOL     OW  192   1.627   1.364   0.084
   58SOL    HW1  193   1.599   1.455   0.075
   58SOL    HW2  194   1.546   1.313   0.077
   59SOL     OW  195   0.467   1.725   0.333
   59SOL    HW1  196   0.499   1.793   0.393
   59SOL    HW2  197   0.533   1.722   0.264
   60SOL     OW  198   1.408   0.107   0.435
   60SOL    HW1  199   1.389   0.081   0.345
   60SOL    HW2  200   1.502   0.126   0.435
   61SOL     OW  201   0.265   1.797   1.233
   61SOL    HW1  202   0.302   1.724   1.283
   61SOL    HW2  203   0.229   1.757   1.154
   62SOL     OW  204   0.939   1.697   0.901
   62SOL    HW1  205   1.018   1.645   0.915
   62SOL    HW2  206   0.891   1.650   0.833
   63SOL     OW  207   0.391   0.693   0.474
   63SOL    HW1  208   0.422   0.604   0.489
   63SOL    HW2  209   0.299   0.691   0.500
   64SOL     OW  210   1.540   0.246   1.734
   64SOL    HW1  211   1.543   0.256   1.829
   64SOL    HW2  212   1.482   0.171   1.719
   65SOL     OW  213   0.610   0.110   0.108
   65SOL    HW1  214   0.705   0.110   0.120
   65SOL    HW2  215   0.597   0.139   0.018
   66SOL     OW  216   0.766   0.269   1.748
   66SOL    HW1  217   0.840   0.212   1.767
   66SOL    HW2  218   0.721   0.278   1.832
   67SOL     OW  219   0.878   1.520   1.193
   67SOL    HW1  220   0.860   1.489   1.104
   67SOL    HW2  221   0.949   1.464   1.224
   68SOL     OW  222   1.342   0.588   1.432
   68SOL    HW1  223   1.372   0.556   1.517
   68SOL    HW2  224   1.377   0.677   1.426
   69SOL     OW  225   0.812   1.399   0.934
   69SOL    HW1  226   0.895   1.392   0.887
   69SOL    HW2  227   0.746   1.396   0.866
   70SOL     OW  228   0.926   0.510   0.903
   70SOL    HW1  229   0.904   0.502   0.810
   70SOL    HW2  230   0.960   0.424   0.928
   71SOL     OW  231   0.540   0.049   0.497
   71SOL    HW1  232   0.454   0.041   0.538
   71SOL    HW2  233   0.534   0.127   0.443
   72SOL     OW  234   1.413   1.208   0.049
   72SOL    HW1  235   1.435   1.133   0.103
   72SOL    HW2  236   1.323   1.231   0.073
   73SOL     OW  237   0.301   0.080   0.195
   73SOL    HW1  238   0.381   0.132   0.186
   73SOL    HW2  239   0.331   2.990   0.204
   74SOL     OW  240   0.943   0.251   0.474
   74SOL    HW1  241   0.918   0.289   0.389
   74SOL    HW2  242   1.038   0.259   0.476
   75SOL     OW  243   1.080   0.679   1.458
   75SOL    HW1  244   1.009   0.614   1.467
   75SOL    HW2  245   1.160   0.626   1.453
   76SOL     OW  246   1.222   1.573   0.797
   76SOL    HW1  247   1.241   1.637   0.729
   76SOL    HW2  248   1.297   1.577   0.856
   77SOL     OW  249   0.466   1.146   0.740
   77SOL    HW1  250   0.394   1.128   0.799
   77SOL    HW2  251   0.430   1.133   0.652
   78SOL     OW  252   1.271   1.795   0.603
   78SOL    HW1  253   1.316   1.857   0.545
   78SOL    HW2  254   1.208   1.849   0.652
   79SOL     OW  255   1.043   0.502   0.028
   79SOL    HW1  256   0.999   0.587   0.016
   79SOL    HW2  257   1.110   0.519   0.094
   80SOL     OW  258   0.081   0.563   1.391
   80SOL    HW1  259   0.170   0.560   1.356
   80SOL    HW2  260   0.085   0.629   1.460
   81SOL     OW  261   0.578   0.215   1.175
   81SOL    HW1  262   0.610   0.161   1.247
   81SOL    HW2  263   0.485   0.228   1.195
   82SOL     OW  264   0.877   0.469   0.638
   82SOL    HW1  265   0.821   0.516   0.576
   82SOL    HW2  266   0.885   0.381   0.602
   83SOL     OW  267   1.000   0.053   0.766
   83SOL    HW1  268   0.963   0.061   0.678
   83SOL    HW2  269   0.977   2.964   0.794
   84SOL     OW  270   1.435   1.161   0.860
   84SOL    HW1  271   1.368   1.093   0.853
   84SOL    HW2  272   1.460   1.180   0.770
   85SOL     OW  273   1.470   0.600   0.981
   85SOL    HW1  274   1.421   0.518   0.989
   85SOL    HW2  275   1.530   0.599   1.055
   86SOL     OW  276   1.845   0.820   0.384
   86SOL    HW1  277   1.902   0.762   0.435
   86SOL    HW2  278   1.820   0.768   0.308
   87SOL     OW  279   0.490   1.405   0.155
   87SOL    HW1  280   0.423   1.375   0.217
   87SOL    HW2  281   0.444   1.411   0.071
   88SOL     OW  282   1.667   1.265   0.652
   88SOL    HW1  283   1.762   1.272   0.662
   88SOL    HW2  284   1.635   1.353   0.671
   89SOL     OW  285   1.413   0.577   0.098
   89SOL    HW1  286   1.340   0.567   0.160
   89SOL    HW2  287   1.462   0.496   0.105
   90SOL     OW  288   0.529   0.263   0.327
   90SOL    HW1  289   0.567   0.212   0.256
   90SOL    HW2  290   0.505   0.347   0.286
   91SOL     OW  291   1.752   1.215   1.576
   91SOL    HW1  292   1.847   1.206   1.564
   91SOL    HW2  293   1.742   1.303   1.613
   92SOL     OW  294   1.072   1.349   1.361
   92SOL    HW1  295   0.982   1.325   1.386
   92SOL    HW2  296   1.121   1.267   1.370
   93SOL     OW  297   1.124   1.216   1.110
   93SOL    HW1  298   1.044   1.230   1.161
   93SOL    HW2  299   1.098   1.230   1.019
   94SOL     OW  300   1.630   1.102   1.076
   94SOL    HW1  301   1.619   1.166   1.147
   94SOL    HW2  302   1.550   1.109   1.025
   95SOL     OW  303   0.902   0.108   1.391
   95SOL    HW1  304   0.941   0.090   1.305
   95SOL    HW2  305   0.968   0.161   1.436
   96SOL     OW  306   0.983   1.126   1.709
   96SOL    HW1  307   0.892   1.132   1.739
   96SOL    HW2  308   0.988   1.042   1.664
   97SOL     OW  309   0.704   1.062   0.377
   97SOL    HW1  310   0.690   1.050   0.471
   97SOL    HW2  311   0.784   1.013   0.359
   98SOL     OW  312   0.419   0.812   1.248
   98SOL    HW1  313   0.486   0.823   1.315
   98SOL    HW2  314   0.382   0.726   1.265
   99SOL     OW  315   1.272   0.388   1.259
   99SOL    HW1  316   1.300   0.459   1.317
   99SOL    HW2  317   1.178   0.402   1.247
  100SOL     OW  318   0.068   1.571   1.309
  100SOL    HW1  319   0.025   1.654   1.332
  100SOL    HW2  320   0.154   1.577   1.350
  101SOL     OW  321   0.362   1.108   0.491
  101SOL    HW1  322   0.350   1.182   0.432
  101SOL    HW2  323   0.356   1.031   0.435
  102SOL     OW  324   0.555   0.542   0.863
  102SOL    HW1  325   0.574   0.596   0.787
  102SOL    HW2  326   0.618   0.569   0.929
  103SOL     OW  327   1.248   1.345   0.396
  103SOL    HW1  328   1.302   1.419   0.422
  103SOL    HW2  329   1.160   1.368   0.426
  104SOL     OW  330   1.275   1.451   1.145
  104SOL    HW1  331   1.315   1.440   1.232
  104SOL    HW2  332   1.219   1.374   1.135
  105SOL     OW  333   1.585   0.628   0.477
  105SOL    HW1  334   1.540   0.686   0.539
  105SOL    HW2  335   1.629   0.687   0.417
  106SOL     OW  336   0.351   1.526   1.322
  106SOL    HW1  337   0.331   1.485   1.238
  106SOL    HW2  338   0.446   1.537   1.322
  107SOL     OW  339   0.410   0.742   1.601
  107SOL    HW1  340   0.467   0.792   1.543
  107SOL    HW2  341   0.458   0.660   1.618
  108SOL     OW  342   1.596   0.774   1.676
  108SOL    HW1  343   1.509   0.814   1.671
  108SOL    HW2  344   1.648   0.821   1.610
  109SOL     OW  345   1.003   0.109   1.762
  109SOL    HW1  346   1.044   0.191   1.736
  109SOL    HW2  347   1.029   0.046   1.694
  110SOL     OW  348   0.502   0.051   1.749
  110SOL    HW1  349   0.471   2.992   1.681
  110SOL    HW2  350   0.433   0.117   1.758
  111SOL     OW  351   0.584   0.871   1.032
  111SOL    HW1  352   0.608   0.963   1.026
  111SOL    HW2  353   0.525   0.866   1.107
  112SOL     OW  354   1.360   0.862   1.036
  112SOL    HW1  355   1.281   0.853   0.984
  112SOL    HW2  356   1.397   0.774   1.039
  113SOL     OW  357   1.206   0.532   0.272
  113SOL    HW1  358   1.214   0.450   0.322
  113SOL    HW2  359   1.165   0.593   0.333
  114SOL     OW  360   0.324   0.207   1.247
  114SOL    HW1  361   0.289   0.250   1.325
  114SOL    HW2  362   0.274   0.125   1.241
  115SOL     OW  363   0.035   1.305   1.279
  115SOL    HW1  364   0.069   1.260   1.357
  115SOL    HW2  365   0.045   1.398   1.300
  116SOL     OW  366   0.728   0.632   1.061
  116SOL    HW1  367   0.799   0.614   1.000
  116SOL    HW2  368   0.699   0.721   1.039
  117SOL     OW  369   1.736   0.955   1.854
  117SOL    HW1  370   1.684   0.913   1.785
  117SOL    HW2  371   1.673   0.970   1.925
  118SOL     OW  372   0.308   0.068   0.641
  118SOL    HW1  373   0.303   0.155   0.680
  118SOL    HW2  374   0.285   0.008   0.711
  119SOL     OW  375   1.613   0.373   0.369
  119SOL    HW1  376   1.645   0.309   0.433
  119SOL    HW2  377   1.588   0.449   0.421
  120SOL     OW  378   1.026   0.760   0.964
  120SOL    HW1  379   1.028   0.777   1.058
  120SOL    HW2  380   1.000   0.669   0.956
  121SOL     OW  381   0.990   1.563   1.707
  121SOL    HW1  382   0.959   1.617   1.635
  121SOL    HW2  383   0.938   1.483   1.702
  122SOL     OW  384   0.354   0.914   1.808
  122SOL    HW1  385   0.436   0.934   1.854
  122SOL    HW2  386   0.379   0.852   1.740
  123SOL     OW  387   1.506   0.298   0.125
  123SOL    HW1  388   1.465   0.214   0.143
  123SOL    HW2  389   1.562   0.315   0.201
  124SOL     OW  390   1.294   0.825   0.035
  124SOL    HW1  391   1.335   0.740   0.049
  124SOL    HW2  392   1.323   0.852   2.948
  125SOL     OW  393   1.068   1.333   0.854
  125SOL    HW1  394   1.068   1.261   0.790
  125SOL    HW2  395   1.128   1.398   0.816
  126SOL     OW  396   0.311   0.809   0.949
  126SOL    HW1  397   0.405   0.829   0.943
  126SOL    HW2  398   0.307   0.722   0.988
  127SOL     OW  399   0.337   0.513   1.016
  127SOL    HW1  400   0.296   0.431   0.990
  127SOL    HW2  401   0.410   0.523   0.955
  128SOL     OW  402   1.140   0.383   1.696
  128SOL    HW1  403   1.097   0.437   1.762
  128SOL    HW2  404   1.228   0.421   1.689
  129SOL     OW  405   1.101   0.255   1.470
  129SOL    HW1  406   1.124   0.305   1.548
  129SOL    HW2  407   1.185   0.238   1.428
  130SOL     OW  408   0.007   1.316   0.174
  130SOL    HW1  409   2.915   1.331   0.152
  130SOL    HW2  410   0.007   1.238   0.230
  131SOL     OW  411   0.098   1.805   0.965
  131SOL    HW1  412   0.055   1.740   0.909
  131SOL    HW2  413   0.183   1.820   0.923
  132SOL     OW  414   0.498   1.572   0.903
  132SOL    HW1  415   0.567   1.634   0.929
  132SOL    HW2  416   0.543   1.506   0.850
  133SOL     OW  417   0.989   0.799   1.230
  133SOL    HW1  418   1.041   0.769   1.305
  133SOL    HW2  419   0.903   0.758   1.243
  134SOL     OW  420   0.045   0.561   1.106
  134SOL    HW1  421   0.132   0.530   1.082
  134SOL    HW2  422   0.039   0.543   1.200
  135SOL     OW  423   0.194   0.517   1.719
  135SOL    HW1  424   0.265   0.494   1.660
  135SOL    HW2  425   0.156   0.596   1.681
  136SOL     OW  426   1.366   0.923   1.658
  136SOL    HW1  427   1.396   1.013   1.663
  136SOL    HW2  428   1.367   0.902   1.564
  137SOL     OW  429   0.818   0.577   0.347
  137SOL    HW1  430   0.822   0.497   0.293
  137SOL    HW2  431   0.736   0.619   0.322
  138SOL     OW  432   1.644   0.603   1.190
  138SOL    HW1  433   1.629   0.544   1.264
  138SOL    HW2  434   1.730   0.579   1.157
  139SOL     OW  435   0.281   1.560   1.747
  139SOL    HW1  436   0.221   1.618   1.794
  139SOL    HW2  437   0.251   1.472   1.767
  140SOL     OW  438   0.691   0.458   1.265
  140SOL    HW1  439   0.646   0.380   1.232
  140SOL    HW2  440   0.694   0.518   1.191
  141SOL     OW  441   0.946   1.677   1.460
  141SOL    HW1  442   0.906   1.648   1.378
  141SOL    HW2  443   0.936   1.772   1.459
  142SOL     OW  444   0.446   0.495   0.200
  142SOL    HW1  445   0.512   0.562   0.217
  142SOL    HW2  446   0.364   0.543   0.191
  143SOL     OW  447   0.162   1.143   1.465
  143SOL    HW1  448   0.147   1.093   1.545
  143SOL    HW2  449   0.169   1.077   1.396
  144SOL     OW  450   1.337   1.060   1.223
  144SOL    HW1  451   1.356   0.992   1.159
  144SOL    HW2  452   1.259   1.103   1.189
  145SOL     OW  453   1.307   0.850   0.311
  145SOL    HW1  454   1.228   0.822   0.358
  145SOL    HW2  455   1.285   0.841   0.219
  146SOL     OW  456   1.735   1.757   1.118
  146SOL    HW1  457   1.818   1.771   1.072
  146SOL    HW2  458   1.741   1.668   1.153
  147SOL     OW  459   1.244   1.730   1.122
  147SOL    HW1  460   1.324   1.753   1.075
  147SOL    HW2  461   1.246   1.635   1.128
  148SOL     OW  462   0.092   1.244   1.027
  148SOL    HW1  463   0.077   1.259   1.120
  148SOL    HW2  464   0.007   1.259   0.986
  149SOL     OW  465   0.684   1.667   1.720
  149SOL    HW1  466   0.623   1.740   1.730
  149SOL    HW2  467   0.725   1.682   1.634
  150SOL     OW  468   0.885   0.082   0.141
  150SOL    HW1  469   0.943   0.064   0.067
  150SOL    HW2  470   0.919   0.029   0.212
  151SOL     OW  471   1.717   0.140   0.508
  151SOL    HW1  472   1.787   0.136   0.443
  151SOL    HW2  473   1.726   0.059   0.558
  152SOL     OW  474   1.389   1.569   0.482
  152SOL    HW1  475   1.451   1.599   0.415
  152SOL    HW2  476   1.344   1.648   0.510
  153SOL     OW  477   0.125   1.799   1.843
  153SOL    HW1  478   0.083   1.729   1.894
  153SOL    HW2  479   0.183   1.842   1.906
  154SOL     OW  480   1.278   0.925   0.671
  154SOL    HW1  481   1.350   0.862   0.675
  154SOL    HW2  482   1.311   0.998   0.619
  155SOL     OW  483   0.821   1.276   1.425
  155SOL    HW1  484   0.794   1.307   1.512
  155SOL    HW2  485   0.746   1.293   1.369
  156SOL     OW  486   0.674   1.608   0.158
  156SOL    HW1  487   0.671   1.627   0.064
  156SOL    HW2  488   0.618   1.530   0.169
  157SOL     OW  489   1.849   0.158   0.967
  157SOL    HW1  490   1.854   0.076   0.917
  157SOL    HW2  491   1.766   0.197   0.940
  158SOL     OW  492   0.268   0.335   0.743
  158SOL    HW1  493   0.179   0.367   0.727
  158SOL    HW2  494   0.267   0.304   0.833
  159SOL     OW  495   1.203   1.605   0.033
  159SOL    HW1  496   1.199   1.515   0.066
  159SOL    HW2  497   1.150   1.605   2.954
  160SOL     OW  498   0.823   1.006   1.374
  160SOL    HW1  499   0.862   1.001   1.287
  160SOL    HW2  500   0.825   1.099   1.395
  161SOL     OW  501   0.919   0.925   0.304
  161SOL    HW1  502   0.984   0.960   0.243
  161SOL    HW2  503   0.965   0.858   0.353
  162SOL     OW  504   1.489   1.602   0.050
  162SOL    HW1  505   1.395   1.617   0.053
  162SOL    HW2  506   1.516   1.633   2.964
  163SOL     OW  507   0.375   1.302   1.489
  163SOL    HW1  508   0.355   1.382   1.441
  163SOL    HW2  509   0.298   1.247   1.476
  164SOL     OW  510   1.047   1.105   0.706
  164SOL    HW1  511   0.977   1.053   0.745
  164SOL    HW2  512   1.107   1.040   0.669
  165SOL     OW  513   1.017   0.242   0.965
  165SOL    HW1  514   1.011   0.191   0.884
  165SOL    HW2  515   1.019   0.176   1.035
  166SOL     OW  516   0.601   1.492   0.485
  166SOL    HW1  517   0.639   1.440   0.414
  166SOL    HW2  518   0.537   1.549   0.442
  167SOL     OW  519   1.718   0.391   1.380
  167SOL    HW1  520   1.790   0.455   1.377
  167SOL    HW2  521   1.747   0.321   1.321
  168SOL     OW  522   0.263   1.336   0.293
  168SOL    HW1  523   0.174   1.342   0.259
  168SOL    HW2  524   0.260   1.381   0.377
  169SOL     OW  525   0.124   1.012   1.708
  169SOL    HW1  526   0.048   0.974   1.753
  169SOL    HW2  527   0.200   0.977   1.755
  170SOL     OW  528   0.665   0.208   1.493
  170SOL    HW1  529   0.747   0.180   1.453
  170SOL    HW2  530   0.687   0.224   1.585
  171SOL     OW  531   0.071   0.318   0.049
  171SOL    HW1  532   2.977   0.325   0.031
  171SOL    HW2  533   0.107   0.402   0.019
  172SOL     OW  534   1.431   0.856   1.398
  172SOL    HW1  535   1.387   0.924   1.346
  172SOL    HW2  536   1.523   0.862   1.372
  173SOL     OW  537   0.039   0.187   0.292
  173SOL    HW1  538   0.047   0.247   0.217
  173SOL    HW2  539   0.126   0.148   0.302
  174SOL     OW  540   1.184   1.349   0.124
  174SOL    HW1  541   1.091   1.330   0.114
  174SOL    HW2  542   1.202   1.338   0.217
  175SOL     OW  543   0.616   0.831   1.433
  175SOL    HW1  544   0.672   0.908   1.419
  175SOL    HW2  545   0.678   0.759   1.441
  176SOL     OW  546   1.488   1.773   0.977
  176SOL    HW1  547   1.513   1.830   0.903
  176SOL    HW2  548   1.568   1.766   1.029
  177SOL     OW  549   0.715   0.565   1.708
  177SOL    HW1  550   0.751   0.632   1.767
  177SOL    HW2  551   0.759   0.484   1.733
  178SOL     OW  552   1.474   1.164   1.626
  178SOL    HW1  553   1.458   1.190   1.717
  178SOL    HW2  554   1.563   1.196   1.607
  179SOL     OW  555   0.388   1.737   1.562
  179SOL    HW1  556   0.302   1.776   1.550
  179SOL    HW2  557   0.371   1.656   1.610
  180SOL     OW  558   1.674   0.883   1.254
  180SOL    HW1  559   1.663   0.795   1.217
  180SOL    HW2  560   1.664   0.942   1.180
  181SOL     OW  561   1.226   0.317   0.453
  181SOL    HW1  562   1.287   0.244   0.453
  181SOL    HW2  563   1.248   0.367   0.532
  182SOL     OW  564   0.593   0.742   0.664
  182SOL    HW1  565   0.632   0.828   0.649
  182SOL    HW2  566   0.520   0.737   0.603
  183SOL     OW  567   1.767   0.351   1.645
  183SOL    HW1  568   1.745   0.375   1.555
  183SOL    HW2  569   1.685   0.316   1.681
  184SOL     OW  570   1.743   0.933   1.515
  184SOL    HW1  571   1.747   1.027   1.533
  184SOL    HW2  572   1.729   0.927   1.420
  185SOL     OW  573   0.904   1.385   0.060
  185SOL    HW1  574   0.830   1.387   0.121
  185SOL    HW2  575   0.869   1.420   2.978
  186SOL     OW  576   0.658   1.794   0.950
  186SOL    HW1  577   0.634   1.883   0.925
  186SOL    HW2  578   0.753   1.791   0.939
  187SOL     OW  579   0.865   0.964   0.857
  187SOL    HW1  580   0.914   0.893   0.898
  187SOL    HW2  581   0.833   1.016   0.931
  188SOL     OW  582   1.100   1.021   0.098
  188SOL    HW1  583   1.064   1.053   0.015
  188SOL    HW2  584   1.165   0.955   0.071
  189SOL     OW  585   1.853   1.557   0.854
  189SOL    HW1  586   1.781   1.547   0.792
  189SOL    HW2  587   1.861   1.471   0.896
  190SOL     OW  588   0.226   1.304   1.856
  190SOL    HW1  589   0.173   1.229   1.830
  190SOL    HW2  590   0.210   1.315   1.949
  191SOL     OW  591   0.126   1.251   0.666
  191SOL    HW1  592   0.079   1.185   0.717
  191SOL    HW2  593   0.172   1.201   0.598
  192SOL     OW  594   0.682   1.402   1.623
  192SOL    HW1  595   0.604   1.353   1.650
  192SOL    HW2  596   0.671   1.488   1.664
  193SOL     OW  597   1.798   0.179   1.235
  193SOL    HW1  598   1.841   0.101   1.270
  193SOL    HW2  599   1.824   0.181   1.143
  194SOL     OW  600   0.460   0.433   0.543
  194SOL    HW1  601   0.453   0.371   0.471
  194SOL    HW2  602   0.402   0.398   0.611
  195SOL     OW  603   0.331   0.553   1.290
  195SOL    HW1  604   0.386   0.498   1.345
  195SOL    HW2  605   0.351   0.526   1.200
  196SOL     OW  606   0.825   1.577   0.680
  196SOL    HW1  607   0.821   1.623   0.596
  196SOL    HW2  608   0.745   1.524   0.682
  197SOL     OW  609   1.428   0.215   1.127
  197SOL    HW1  610   1.452   0.145   1.187
  197SOL    HW2  611   1.379   0.277   1.180
  198SOL     OW  612   1.013   0.029   1.151
  198SOL    HW1  613   0.937   2.988   1.109
  198SOL    HW2  614   1.084   2.966   1.139
  199SOL     OW  615   0.764   1.329   0.313
  199SOL    HW1  616   0.732   1.240   0.327
  199SOL    HW2  617   0.852   1.330   0.350
  200SOL     OW  618   0.621   1.559   1.284
  200SOL    HW1  619   0.623   1.640   1.335
  200SOL    HW2  620   0.707   1.555   1.243
  201SOL     OW  621   1.355   0.056   0.172
  201SOL    HW1  622   1.411   2.987   0.135
  201SOL    HW2  623   1.266   0.023   0.159
  202SOL     OW  624   1.298   0.460   0.683
  202SOL    HW1  625   1.242   0.537   0.692
  202SOL    HW2  626   1.296   0.419   0.770
  203SOL     OW  627   1.606   0.231   0.887
  203SOL    HW1  628   1.524   0.226   0.937
  203SOL    HW2  629   1.594   0.306   0.829
  204SOL     OW  630   0.069   1.089   0.342
  204SOL    HW1  631   0.147   1.052   0.301
  204SOL    HW2  632   0.004   1.018   0.337
  205SOL     OW  633   0.881   1.650   0.346
  205SOL    HW1  634   0.811   1.628   0.284
  205SOL    HW2  635   0.847   1.725   0.395
  206SOL     OW  636   0.238   0.647   1.972
  206SOL    HW1  637   0.170   0.609   2.027
  206SOL    HW2  638   0.227   0.604   1.887
  207SOL     OW  639   0.235   0.248   2.850
  207SOL    HW1  640   0.252   0.239   2.944
  207SOL    HW2  641   0.141   0.238   2.841
  208SOL     OW  642   0.008   0.384   2.521
  208SOL    HW1  643   2.924   0.423   2.546
  208SOL    HW2  644   2.985   0.312   2.462
  209SOL     OW  645   1.556   1.510   2.566
  209SOL    HW1  646   1.509   1.494   2.648
  209SOL    HW2  647   1.488   1.517   2.500
  210SOL     OW  648   1.132   0.699   2.566
  210SOL    HW1  649   1.183   0.779   2.552
  210SOL    HW2  650   1.083   0.716   2.647
  211SOL     OW  651   1.764   0.607   2.094
  211SOL    HW1  652   1.745   0.599   2.001
  211SOL    HW2  653   1.730   0.526   2.132
  212SOL     OW  654   0.752   1.145   2.894
  212SOL    HW1  655   0.685   1.190   2.946
  212SOL    HW2  656   0.803   1.216   2.855
  213SOL     OW  657   0.685   1.009   2.511
  213SOL    HW1  658   0.749   0.993   2.580
  213SOL    HW2  659   0.614   1.057   2.554
  214SOL     OW  660   0.330   1.452   2.933
  214SOL    HW1  661   0.277   1.389   2.886
  214SOL    HW2  662   0.387   1.491   2.865
  215SOL     OW  663   1.615   0.455   2.592
  215SOL    HW1  664   1.539   0.480   2.540
  215SOL    HW2  665   1.621   0.522   2.660
  216SOL     OW  666   0.221   1.712   2.347
  216SOL    HW1  667   0.243   1.795   2.388
  216SOL    HW2  668   0.279   1.707   2.271
  217SOL     OW  669   0.248   1.446   2.389
  217SOL    HW1  670   0.215   1.536   2.389
  217SOL    HW2  671   0.186   1.398   2.445
  218SOL     OW  672   0.238   1.084   2.748
  218SOL    HW1  673   0.257   1.004   2.796
  218SOL    HW2  674   0.193   1.140   2.811
  219SOL     OW  675   0.589   0.980   1.994
  219SOL    HW1  676   0.631   1.032   1.926
  219SOL    HW2  677   0.632   1.006   2.075
  220SOL     OW  678   0.130   0.625   2.435
  220SOL    HW1  679   0.083   0.550   2.473
  220SOL    HW2  680   0.122   0.694   2.501
  221SOL     OW  681   1.841   1.762   2.201
  221SOL    HW1  682   1.900   1.733   2.271
  221SOL    HW2  683   1.870   1.851   2.182
  222SOL     OW  684   0.032   1.598   1.997
  222SOL    HW1  685   0.020   1.503   2.006
  222SOL    HW2  686   2.978   1.635   2.067
  223SOL     OW  687   1.689   0.917   2.497
  223SOL    HW1  688   1.776   0.881   2.479
  223SOL    HW2  689   1.668   0.969   2.420
  224SOL     OW  690   1.644   1.107   2.294
  224SOL    HW1  691   1.727   1.119   2.247
  224SOL    HW2  692   1.650   1.168   2.367
  225SOL     OW  693   0.609   1.379   2.593
  225SOL    HW1  694   0.562   1.296   2.601
  225SOL    HW2  695   0.593   1.407   2.503
  226SOL     OW  696   0.820   0.009   2.369
  226SOL    HW1  697   0.848   0.099   2.353
  226SOL    HW2  698   0.725   0.012   2.360
  227SOL     OW  699   1.535   0.986   2.063
  227SOL    HW1  700   1.463   0.930   2.091
  227SOL    HW2  701   1.571   1.022   2.144
  228SOL     OW  702   1.437   1.422   2.803
  228SOL    HW1  703   1.414   1.420   2.896
  228SOL    HW2  704   1.445   1.330   2.778
  229SOL     OW  705   1.661   1.732   2.440
  229SOL    HW1  706   1.637   1.704   2.351
  229SOL    HW2  707   1.636   1.658   2.496
  230SOL     OW  708   0.596   0.723   2.125
  230SOL    HW1  709   0.606   0.802   2.072
  230SOL    HW2  710   0.531   0.747   2.191
  231SOL     OW  711   1.294   0.334   2.807
  231SOL    HW1  712   1.199   0.322   2.802
  231SOL    HW2  713   1.318   0.296   2.891
  232SOL     OW  714   1.582   1.669   2.172
  232SOL    HW1  715   1.671   1.704   2.167
  232SOL    HW2  716   1.557   1.654   2.081
  233SOL     OW  717   1.048   0.699   2.290
  233SOL    HW1  718   1.063   0.692   2.384
  233SOL    HW2  719   0.967   0.651   2.275
  234SOL     OW  720   0.103   0.816   2.625
  234SOL    HW1  721   0.182   0.812   2.679
  234SOL    HW2  722   0.048   0.881   2.668
  235SOL     OW  723   0.872   0.352   2.048
  235SOL    HW1  724   0.932   0.410   2.002
  235SOL    HW2  725   0.903   0.264   2.028
  236SOL     OW  726   1.375   1.143   2.405
  236SOL    HW1  727   1.452   1.127   2.351
  236SOL    HW2  728   1.323   1.205   2.354
  237SOL     OW  729   0.554   0.195   2.828
  237SOL    HW1  730   0.509   0.265   2.875
  237SOL    HW2  731   0.570   0.230   2.741
  238SOL     OW  732   1.007   1.445   2.337
  238SOL    HW1  733   0.968   1.517   2.288
  238SOL    HW2  734   0.996   1.469   2.429
  239SOL     OW  735   0.353   1.800   2.712
  239SOL    HW1  736   0.401   1.718   2.728
  239SOL    HW2  737   0.415   1.869   2.735
  240SOL     OW  738   1.804   1.060   2.721
  240SOL    HW1  739   1.744   1.046   2.648
  240SOL    HW2  740   1.748   1.062   2.798
  241SOL     OW  741   0.316   0.949   2.106
  241SOL    HW1  742   0.399   0.976   2.066
  241SOL    HW2  743   0.296   0.864   2.066
  242SOL     OW  744   1.472   0.742   2.589
  242SOL    HW1  745   1.468   0.688   2.668
  242SOL    HW2  746   1.553   0.792   2.598
  243SOL     OW  747   1.116   1.784   2.103
  243SOL    HW1  748   1.047   1.737   2.151
  243SOL    HW2  749   1.139   1.725   2.031
  244SOL     OW  750   1.619   1.373   1.971
  244SOL    HW1  751   1.602   1.453   1.921
  244SOL    HW2  752   1.562   1.307   1.931
  245SOL     OW  753   0.467   1.740   2.182
  245SOL    HW1  754   0.506   1.795   2.251
  245SOL    HW2  755   0.541   1.714   2.128
  246SOL     OW  756   1.408   0.109   2.296
  246SOL    HW1  757   1.391   0.078   2.207
  246SOL    HW2  758   1.502   0.128   2.297
  247SOL     OW  759   0.264   1.798   0.099
  247SOL    HW1  760   0.301   1.727   0.151
  247SOL    HW2  761   0.208   1.754   0.035
  248SOL     OW  762   0.941   1.692   2.759
  248SOL    HW1  763   1.021   1.638   2.763
  248SOL    HW2  764   0.887   1.649   2.692
  249SOL     OW  765   0.391   0.694   2.338
  249SOL    HW1  766   0.424   0.605   2.351
  249SOL    HW2  767   0.299   0.689   2.362
  250SOL     OW  768   0.623   0.121   1.975
  250SOL    HW1  769   0.713   0.088   1.971
  250SOL    HW2  770   0.587   0.102   1.889
  251SOL     OW  771   0.804   1.402   2.789
  251SOL    HW1  772   0.891   1.393   2.750
  251SOL    HW2  773   0.744   1.394   2.715
  252SOL     OW  774   0.920   0.518   2.759
  252SOL    HW1  775   0.903   0.498   2.667
  252SOL    HW2  776   0.952   0.435   2.796
  253SOL     OW  777   0.544   0.060   2.366
  253SOL    HW1  778   0.456   0.044   2.400
  253SOL    HW2  779   0.533   0.131   2.303
  254SOL     OW  780   1.427   1.177   1.893
  254SOL    HW1  781   1.451   1.115   1.961
  254SOL    HW2  782   1.354   1.227   1.931
  255SOL     OW  783   0.292   0.035   2.048
  255SOL    HW1  784   0.344   0.110   2.020
  255SOL    HW2  785   0.356   2.973   2.084
  256SOL     OW  786   0.938   0.252   2.327
  256SOL    HW1  787   0.908   0.297   2.247
  256SOL    HW2  788   1.033   0.263   2.327
  257SOL     OW  789   1.220   1.583   2.668
  257SOL    HW1  790   1.244   1.640   2.595
  257SOL    HW2  791   1.301   1.569   2.716
  258SOL     OW  792   0.462   1.145   2.602
  258SOL    HW1  793   0.389   1.129   2.662
  258SOL    HW2  794   0.426   1.129   2.515
  259SOL     OW  795   1.272   1.796   2.466
  259SOL    HW1  796   1.315   1.857   2.406
  259SOL    HW2  797   1.208   1.850   2.513
  260SOL     OW  798   1.023   0.549   1.883
  260SOL    HW1  799   0.985   0.635   1.863
  260SOL    HW2  800   1.089   0.567   1.950
  261SOL     OW  801   0.875   0.467   2.498
  261SOL    HW1  802   0.823   0.515   2.433
  261SOL    HW2  803   0.886   0.380   2.460
  262SOL     OW  804   1.000   0.048   2.625
  262SOL    HW1  805   0.964   0.055   2.536
  262SOL    HW2  806   0.977   2.959   2.653
  263SOL     OW  807   1.438   1.160   2.714
  263SOL    HW1  808   1.365   1.099   2.707
  263SOL    HW2  809   1.463   1.178   2.624
  264SOL     OW  810   1.489   0.585   2.821
  264SOL    HW1  811   1.425   0.514   2.829
  264SOL    HW2  812   1.511   0.607   2.912
  265SOL     OW  813   1.849   0.819   2.244
  265SOL    HW1  814   1.905   0.765   2.299
  265SOL    HW2  815   1.818   0.760   2.176
  266SOL     OW  816   0.493   1.410   2.026
  266SOL    HW1  817   0.416   1.382   2.076
  266SOL    HW2  818   0.466   1.399   1.934
  267SOL     OW  819   1.668   1.265   2.513
  267SOL    HW1  820   1.763   1.272   2.523
  267SOL    HW2  821   1.635   1.353   2.532
  268SOL     OW  822   1.393   0.571   1.933
  268SOL    HW1  823   1.333   0.553   2.005
  268SOL    HW2  824   1.478   0.538   1.963
  269SOL     OW  825   0.526   0.264   2.184
  269SOL    HW1  826   0.564   0.211   2.114
  269SOL    HW2  827   0.510   0.349   2.144
  270SOL     OW  828   1.647   1.103   2.932
  270SOL    HW1  829   1.647   1.171   3.000
  270SOL    HW2  830   1.561   1.111   2.890
  271SOL     OW  831   0.708   1.060   2.235
  271SOL    HW1  832   0.695   1.046   2.328
  271SOL    HW2  833   0.784   1.007   2.213
  272SOL     OW  834   0.353   1.106   2.355
  272SOL    HW1  835   0.357   1.180   2.294
  272SOL    HW2  836   0.358   1.028   2.299
  273SOL     OW  837   0.548   0.545   2.731
  273SOL    HW1  838   0.570   0.593   2.650
  273SOL    HW2  839   0.617   0.569   2.792
  274SOL     OW  840   1.247   1.345   2.260
  274SOL    HW1  841   1.302   1.420   2.284
  274SOL    HW2  842   1.160   1.369   2.289
  275SOL     OW  843   1.585   0.627   2.339
  275SOL    HW1  844   1.540   0.686   2.399
  275SOL    HW2  845   1.627   0.686   2.275
  276SOL     OW  846   0.576   0.871   2.880
  276SOL    HW1  847   0.617   0.954   2.857
  276SOL    HW2  848   0.548   0.882   2.971
  277SOL     OW  849   1.211   0.534   2.134
  277SOL    HW1  850   1.215   0.452   2.184
  277SOL    HW2  851   1.166   0.596   2.192
  278SOL     OW  852   0.731   0.641   2.918
  278SOL    HW1  853   0.797   0.615   2.855
  278SOL    HW2  854   0.699   0.726   2.886
  279SOL     OW  855   0.309   0.067   2.504
  279SOL    HW1  856   0.301   0.154   2.544
  279SOL    HW2  857   0.283   0.006   2.572
  280SOL     OW  858   1.606   0.372   2.233
  280SOL    HW1  859   1.645   0.311   2.295
  280SOL    HW2  860   1.588   0.451   2.284
  281SOL     OW  861   1.021   0.763   2.820
  281SOL    HW1  862   1.026   0.771   2.915
  281SOL    HW2  863   0.996   0.672   2.805
  282SOL     OW  864   1.531   0.274   1.993
  282SOL    HW1  865   1.469   0.208   2.022
  282SOL    HW2  866   1.565   0.312   2.074
  283SOL     OW  867   1.295   0.826   1.900
  283SOL    HW1  868   1.337   0.741   1.903
  283SOL    HW2  869   1.321   0.864   1.816
  284SOL     OW  870   1.053   1.346   2.699
  284SOL    HW1  871   1.064   1.264   2.651
  284SOL    HW2  872   1.129   1.399   2.675
  285SOL     OW  873   0.311   0.811   2.812
  285SOL    HW1  874   0.404   0.831   2.809
  285SOL    HW2  875   0.306   0.722   2.848
  286SOL     OW  876   0.322   0.518   2.872
  286SOL    HW1  877   0.292   0.430   2.848
  286SOL    HW2  878   0.401   0.531   2.819
  287SOL     OW  879   2.996   1.319   2.041
  287SOL    HW1  880   2.902   1.325   2.021
  287SOL    HW2  881   0.005   1.238   2.091
  288SOL     OW  882   0.093   1.817   2.809
  288SOL    HW1  883   0.056   1.739   2.770
  288SOL    HW2  884   0.184   1.820   2.777
  289SOL     OW  885   0.504   1.574   2.762
  289SOL    HW1  886   0.574   1.635   2.785
  289SOL    HW2  887   0.548   1.505   2.711
  290SOL     OW  888   0.980   0.755   0.087
  290SOL    HW1  889   1.028   0.752   0.170
  290SOL    HW2  890   0.889   0.772   0.114
  291SOL     OW  891   0.814   0.569   2.215
  291SOL    HW1  892   0.817   0.494   2.154
  291SOL    HW2  893   0.739   0.620   2.185
  292SOL     OW  894   0.700   0.440   0.094
  292SOL    HW1  895   0.606   0.423   0.095
  292SOL    HW2  896   0.710   0.517   0.038
  293SOL     OW  897   0.467   0.494   2.049
  293SOL    HW1  898   0.528   0.567   2.067
  293SOL    HW2  899   0.381   0.536   2.044
  294SOL     OW  900   1.307   0.856   2.172
  294SOL    HW1  901   1.228   0.826   2.217
  294SOL    HW2  902   1.288   0.843   2.079
  295SOL     OW  903   1.734   1.766   2.971
  295SOL    HW1  904   1.814   1.789   2.922
  295SOL    HW2  905   1.758   1.687   0.020
  296SOL     OW  906   0.074   1.247   2.902
  296SOL    HW1  907   0.047   1.274   2.989
  296SOL    HW2  908   0.001   1.274   2.845
  297SOL     OW  909   1.721   0.142   2.370
  297SOL    HW1  910   1.785   0.135   2.298
  297SOL    HW2  911   1.729   0.060   2.417
  298SOL     OW  912   1.390   1.568   2.346
  298SOL    HW1  913   1.451   1.595   2.277
  298SOL    HW2  914   1.344   1.648   2.370
  299SOL     OW  915   1.277   0.926   2.532
  299SOL    HW1  916   1.349   0.863   2.538
  299SOL    HW2  917   1.311   0.998   2.480
  300SOL     OW  918   0.671   1.616   2.018
  300SOL    HW1  919   0.680   1.625   1.923
  300SOL    HW2  920   0.620   1.536   2.029
  301SOL     OW  921   1.852   0.162   2.816
  301SOL    HW1  922   1.852   0.076   2.773
  301SOL    HW2  923   1.766   0.199   2.796
  302SOL     OW  924   0.271   0.336   2.601
  302SOL    HW1  925   0.182   0.369   2.590
  302SOL    HW2  926   0.273   0.302   2.691
  303SOL     OW  927   1.175   1.618   1.908
  303SOL    HW1  928   1.221   1.535   1.903
  303SOL    HW2  929   1.110   1.614   1.838
  304SOL     OW  930   0.915   0.910   2.152
  304SOL    HW1  931   0.975   0.940   2.084
  304SOL    HW2  932   0.961   0.839   2.195
  305SOL     OW  933   1.501   1.655   1.903
  305SOL    HW1  934   1.417   1.611   1.908
  305SOL    HW2  935   1.546   1.613   1.829
  306SOL     OW  936   1.048   1.104   2.569
  306SOL    HW1  937   0.977   1.052   2.605
  306SOL    HW2  938   1.108   1.039   2.531
  307SOL     OW  939   1.014   0.245   2.812
  307SOL    HW1  940   1.009   0.182   2.739
  307SOL    HW2  941   1.041   0.192   2.887
  308SOL     OW  942   0.602   1.490   2.343
  308SOL    HW1  943   0.638   1.439   2.271
  308SOL    HW2  944   0.533   1.544   2.303
  309SOL     OW  945   0.254   1.346   2.145
  309SOL    HW1  946   0.160   1.345   2.128
  309SOL    HW2  947   0.263   1.385   2.232
  310SOL     OW  948   0.096   0.327   1.912
  310SOL    HW1  949   0.011   0.298   1.878
  310SOL    HW2  950   0.111   0.412   1.871
  311SOL     OW  951   0.024   0.215   2.149
  311SOL    HW1  952   0.065   0.262   2.076
  311SOL    HW2  953   0.085   0.144   2.169
  312SOL     OW  954   1.169   1.327   1.993
  312SOL    HW1  955   1.077   1.303   2.004
  312SOL    HW2  956   1.202   1.335   2.082
  313SOL     OW  957   1.503   1.779   2.829
  313SOL    HW1  958   1.518   1.831   2.750
  313SOL    HW2  959   1.584   1.787   2.880
  314SOL     OW  960   1.719   0.853   0.068
  314SOL    HW1  961   1.639   0.809   0.095
  314SOL    HW2  962   1.692   0.943   0.048
  315SOL     OW  963   1.223   0.317   2.316
  315SOL    HW1  964   1.286   0.245   2.316
  315SOL    HW2  965   1.246   0.368   2.394
  316SOL     OW  966   0.592   0.742   2.527
  316SOL    HW1  967   0.632   0.827   2.511
  316SOL    HW2  968   0.521   0.737   2.464
  317SOL     OW  969   0.848   1.381   1.887
  317SOL    HW1  970   0.818   1.377   1.978
  317SOL    HW2  971   0.889   1.467   1.879
  318SOL     OW  972   0.661   1.797   2.822
  318SOL    HW1  973   0.637   1.883   2.789
  318SOL    HW2  974   0.755   1.790   2.805
  319SOL     OW  975   0.861   0.963   2.716
  319SOL    HW1  976   0.913   0.894   2.756
  319SOL    HW2  977   0.833   1.017   2.790
  320SOL     OW  978   1.072   0.982   1.943
  320SOL    HW1  979   1.067   1.046   1.872
  320SOL    HW2  980   1.154   0.935   1.927
  321SOL     OW  981   1.856   1.559   2.712
  321SOL    HW1  982   1.781   1.545   2.653
  321SOL    HW2  983   1.861   1.478   2.763
  322SOL     OW  984   0.124   1.250   2.524
  322SOL    HW1  985   0.088   1.185   2.584
  322SOL    HW2  986   0.180   1.199   2.464
  323SOL     OW  987   1.813   0.191   0.083
  323SOL    HW1  988   1.832   0.106   0.123
  323SOL    HW2  989   1.829   0.178   2.989
  324SOL     OW  990   0.461   0.434   2.401
  324SOL    HW1  991   0.454   0.370   2.330
  324SOL    HW2  992   0.405   0.399   2.471
  325SOL     OW  993   0.819   1.584   2.540
  325SOL    HW1  994   0.820   1.620   2.451
  325SOL    HW2  995   0.743   1.527   2.542
  326SOL     OW  996   0.777   1.329   2.163
  326SOL    HW1  997   0.739   1.242   2.177
  326SOL    HW2  998   0.854   1.330   2.219
  327SOL     OW  999   1.347   0.048   2.030
  327SOL    HW1 1000   1.409   2.989   1.987
  327SOL    HW2 1001   1.266   2.997   2.037
  328SOL     OW 1002   1.298   0.456   2.548
  328SOL    HW1 1003   1.243   0.534   2.556
  328SOL    HW2 1004   1.296   0.417   2.635
  329SOL     OW 1005   1.601   0.235   2.751
  329SOL    HW1 1006   1.510   0.227   2.780
  329SOL    HW2 1007   1.600   0.308   2.690
  330SOL     OW 1008   0.062   1.082   2.163
  330SOL    HW1 1009   0.151   1.046   2.163
  330SOL    HW2 1010   0.008   1.012   2.200
  331SOL     OW 1011   0.878   1.648   2.210
  331SOL    HW1 1012   0.808   1.630   2.146
  331SOL    HW2 1013   0.849   1.726   2.257
  332SOL     OW 1014   0.233   2.517   0.099
  332SOL    HW1 1015   0.168   2.471   0.152
  332SOL    HW2 1016   0.247   2.460   0.023
  333SOL     OW 1017   0.212   2.137   0.990
  333SOL    HW1 1018   0.247   2.108   1.074
  333SOL    HW2 1019   0.126   2.095   0.983
  334SOL     OW 1020   0.015   2.247   0.645
  334SOL    HW1 1021   2.930   2.281   0.671
  334SOL    HW2 1022   2.996   2.165   0.601
  335SOL     OW 1023   1.134   2.568   0.704
  335SOL    HW1 1024   1.180   2.651   0.694
  335SOL    HW2 1025   1.081   2.579   0.783
  336SOL     OW 1026   1.761   2.457   0.229
  336SOL    HW1 1027   1.746   2.437   0.136
  336SOL    HW2 1028   1.726   2.381   0.276
  337SOL     OW 1029   0.760   0.010   1.032
  337SOL    HW1 1030   0.677   0.042   1.069
  337SOL    HW2 1031   0.786   0.077   0.970
  338SOL     OW 1032   0.865   2.642   1.821
  338SOL    HW1 1033   0.844   2.707   1.888
  338SOL    HW2 1034   0.887   2.693   1.743
  339SOL     OW 1035   0.653   2.850   0.707
  339SOL    HW1 1036   0.747   2.856   0.724
  339SOL    HW2 1037   0.629   2.935   0.670
  340SOL     OW 1038   0.471   2.271   1.490
  340SOL    HW1 1039   0.540   2.204   1.494
  340SOL    HW2 1040   0.390   2.222   1.505
  341SOL     OW 1041   1.613   2.311   0.739
  341SOL    HW1 1042   1.537   2.339   0.688
  341SOL    HW2 1043   1.636   2.388   0.791
  342SOL     OW 1044   0.216   0.312   0.466
  342SOL    HW1 1045   0.215   0.387   0.526
  342SOL    HW2 1046   0.193   0.237   0.522
  343SOL     OW 1047   0.233   2.945   0.878
  343SOL    HW1 1048   0.258   2.865   0.923
  343SOL    HW2 1049   0.200   0.002   0.947
  344SOL     OW 1050   0.615   2.832   0.146
  344SOL    HW1 1051   0.601   2.924   0.122
  344SOL    HW2 1052   0.674   2.836   0.222
  345SOL     OW 1053   1.584   1.979   1.474
  345SOL    HW1 1054   1.595   2.052   1.414
  345SOL    HW2 1055   1.584   2.018   1.561
  346SOL     OW 1056   0.121   2.496   0.566
  346SOL    HW1 1057   0.093   2.412   0.602
  346SOL    HW2 1058   0.115   2.557   0.639
  347SOL     OW 1059   1.699   2.805   0.622
  347SOL    HW1 1060   1.776   2.750   0.631
  347SOL    HW2 1061   1.692   2.821   0.528
  348SOL     OW 1062   0.126   2.608   1.588
  348SOL    HW1 1063   0.221   2.620   1.601
  348SOL    HW2 1064   0.089   2.695   1.604
  349SOL     OW 1065   0.658   0.239   0.685
  349SOL    HW1 1066   0.594   0.176   0.717
  349SOL    HW2 1067   0.609   0.295   0.624
  350SOL     OW 1068   1.302   0.052   1.443
  350SOL    HW1 1069   1.328   2.997   1.370
  350SOL    HW2 1070   1.382   0.099   1.468
  351SOL     OW 1071   0.812   1.861   0.507
  351SOL    HW1 1072   0.851   1.947   0.492
  351SOL    HW2 1073   0.718   1.879   0.515
  352SOL     OW 1074   0.191   2.835   1.256
  352SOL    HW1 1075   0.274   2.789   1.249
  352SOL    HW2 1076   0.125   2.770   1.232
  353SOL     OW 1077   1.524   2.842   0.203
  353SOL    HW1 1078   1.453   2.797   0.248
  353SOL    HW2 1079   1.586   2.864   0.272
  354SOL     OW 1080   0.334   2.112   1.804
  354SOL    HW1 1081   0.382   2.192   1.823
  354SOL    HW2 1082   0.248   2.125   1.845
  355SOL     OW 1083   0.593   2.582   0.267
  355SOL    HW1 1084   0.600   2.662   0.215
  355SOL    HW2 1085   0.528   2.603   0.334
  356SOL     OW 1086   1.280   2.209   0.933
  356SOL    HW1 1087   1.191   2.175   0.939
  356SOL    HW2 1088   1.330   2.157   0.995
  357SOL     OW 1089   0.794   2.478   1.454
  357SOL    HW1 1090   0.766   2.457   1.543
  357SOL    HW2 1091   0.750   2.413   1.399
  358SOL     OW 1092   1.393   2.335   1.678
  358SOL    HW1 1093   1.394   2.379   1.763
  358SOL    HW2 1094   1.458   2.265   1.687
  359SOL     OW 1095   0.962   2.758   1.589
  359SOL    HW1 1096   1.014   2.686   1.552
  359SOL    HW2 1097   0.910   2.789   1.515
  360SOL     OW 1098   0.992   2.275   1.240
  360SOL    HW1 1099   0.909   2.299   1.282
  360SOL    HW2 1100   0.966   2.227   1.161
  361SOL     OW 1101   1.048   2.567   0.424
  361SOL    HW1 1102   1.062   2.559   0.518
  361SOL    HW2 1103   0.968   2.518   0.407
  362SOL     OW 1104   0.101   2.671   0.768
  362SOL    HW1 1105   0.179   2.674   0.824
  362SOL    HW2 1106   0.048   2.745   0.797
  363SOL     OW 1107   0.928   2.194   0.221
  363SOL    HW1 1108   0.932   2.258   0.149
  363SOL    HW2 1109   0.893   2.115   0.180
  364SOL     OW 1110   1.711   2.440   1.828
  364SOL    HW1 1111   1.675   2.516   1.784
  364SOL    HW2 1112   1.734   2.379   1.757
  365SOL     OW 1113   0.548   2.046   0.892
  365SOL    HW1 1114   0.551   2.073   0.984
  365SOL    HW2 1115   0.551   2.128   0.843
  366SOL     OW 1116   1.797   2.909   0.867
  366SOL    HW1 1117   1.739   2.894   0.792
  366SOL    HW2 1118   1.737   2.918   0.942
  367SOL     OW 1119   1.479   2.598   0.727
  367SOL    HW1 1120   1.460   2.548   0.806
  367SOL    HW2 1121   1.551   2.656   0.753
  368SOL     OW 1122   0.233   2.164   1.507
  368SOL    HW1 1123   0.152   2.209   1.483
  368SOL    HW2 1124   0.204   2.089   1.560
  369SOL     OW 1125   1.402   1.969   0.430
  369SOL    HW1 1126   1.391   1.947   0.337
  369SOL    HW2 1127   1.497   1.979   0.441
  370SOL     OW 1128   0.387   2.556   0.474
  370SOL    HW1 1129   0.413   2.465   0.483
  370SOL    HW2 1130   0.295   2.558   0.498
  371SOL     OW 1131   1.540   2.091   1.727
  371SOL    HW1 1132   1.546   2.112   1.820
  371SOL    HW2 1133   1.476   2.020   1.723
  372SOL     OW 1134   0.626   1.984   0.117
  372SOL    HW1 1135   0.719   1.962   0.118
  372SOL    HW2 1136   0.591   1.940   0.039
  373SOL     OW 1137   0.768   2.137   1.750
  373SOL    HW1 1138   0.840   2.074   1.762
  373SOL    HW2 1139   0.717   2.129   1.831
  374SOL     OW 1140   1.341   2.451   1.433
  374SOL    HW1 1141   1.372   2.417   1.517
  374SOL    HW2 1142   1.378   2.539   1.427
  375SOL     OW 1143   0.928   2.371   0.902
  375SOL    HW1 1144   0.904   2.362   0.810
  375SOL    HW2 1145   0.960   2.285   0.928
  376SOL     OW 1146   0.548   1.924   0.506
  376SOL    HW1 1147   0.466   1.926   0.556
  376SOL    HW2 1148   0.544   2.001   0.450
  377SOL     OW 1149   0.940   2.103   0.472
  377SOL    HW1 1150   0.914   2.141   0.388
  377SOL    HW2 1151   1.035   2.114   0.475
  378SOL     OW 1152   1.078   2.544   1.458
  378SOL    HW1 1153   1.008   2.481   1.468
  378SOL    HW2 1154   1.158   2.491   1.453
  379SOL     OW 1155   1.049   2.363   0.024
  379SOL    HW1 1156   0.998   2.443   0.013
  379SOL    HW2 1157   1.109   2.383   0.097
  380SOL     OW 1158   0.086   2.416   1.399
  380SOL    HW1 1159   0.171   2.421   1.356
  380SOL    HW2 1160   0.086   2.487   1.462
  381SOL     OW 1161   0.562   2.089   1.162
  381SOL    HW1 1162   0.598   2.007   1.198
  381SOL    HW2 1163   0.470   2.088   1.190
  382SOL     OW 1164   0.871   2.322   0.639
  382SOL    HW1 1165   0.822   2.376   0.578
  382SOL    HW2 1166   0.889   2.241   0.591
  383SOL     OW 1167   1.014   1.914   0.755
  383SOL    HW1 1168   0.955   1.908   0.679
  383SOL    HW2 1169   0.993   1.837   0.808
  384SOL     OW 1170   1.426   2.996   0.872
  384SOL    HW1 1171   1.359   2.938   0.834
  384SOL    HW2 1172   1.447   0.058   0.802
  385SOL     OW 1173   1.468   2.463   0.983
  385SOL    HW1 1174   1.422   2.379   0.987
  385SOL    HW2 1175   1.530   2.461   1.056
  386SOL     OW 1176   1.833   2.668   0.390
  386SOL    HW1 1177   1.896   2.619   0.442
  386SOL    HW2 1178   1.817   2.614   0.313
  387SOL     OW 1179   1.412   2.439   0.099
  387SOL    HW1 1180   1.340   2.427   0.160
  387SOL    HW2 1181   1.463   2.358   0.106
  388SOL     OW 1182   0.522   2.124   0.326
  388SOL    HW1 1183   0.557   2.072   0.253
  388SOL    HW2 1184   0.504   2.210   0.288
  389SOL     OW 1185   1.780   0.077   1.593
  389SOL    HW1 1186   1.869   0.043   1.579
  389SOL    HW2 1187   1.794   0.163   1.633
  390SOL     OW 1188   1.627   2.957   1.075
  390SOL    HW1 1189   1.639   0.039   1.122
  390SOL    HW2 1190   1.550   2.972   1.020
  391SOL     OW 1191   0.919   1.955   1.402
  391SOL    HW1 1192   0.940   1.940   1.310
  391SOL    HW2 1193   0.996   2.000   1.437
  392SOL     OW 1194   0.415   2.678   1.253
  392SOL    HW1 1195   0.485   2.684   1.317
  392SOL    HW2 1196   0.380   2.590   1.264
  393SOL     OW 1197   1.267   2.240   1.272
  393SOL    HW1 1198   1.299   2.317   1.319
  393SOL    HW2 1199   1.179   2.264   1.246
  394SOL     OW 1200   0.557   2.399   0.862
  394SOL    HW1 1201   0.573   2.454   0.785
  394SOL    HW2 1202   0.619   2.431   0.927
  395SOL     OW 1203   1.580   2.489   0.474
  395SOL    HW1 1204   1.541   2.546   0.540
  395SOL    HW2 1205   1.635   2.547   0.421
  396SOL     OW 1206   0.411   2.601   1.603
  396SOL    HW1 1207   0.469   2.650   1.544
  396SOL    HW2 1208   0.458   2.518   1.619
  397SOL     OW 1209   1.594   2.635   1.678
  397SOL    HW1 1210   1.507   2.675   1.669
  397SOL    HW2 1211   1.647   2.679   1.612
  398SOL     OW 1212   0.995   1.979   1.757
  398SOL    HW1 1213   1.045   2.055   1.726
  398SOL    HW2 1214   1.050   1.903   1.732
  399SOL     OW 1215   0.501   1.904   1.745
  399SOL    HW1 1216   0.459   1.849   1.678
  399SOL    HW2 1217   0.439   1.977   1.758
  400SOL     OW 1218   0.591   2.729   1.038
  400SOL    HW1 1219   0.599   2.821   1.014
  400SOL    HW2 1220   0.525   2.728   1.107
  401SOL     OW 1221   1.350   2.715   1.036
  401SOL    HW1 1222   1.282   2.707   0.969
  401SOL    HW2 1223   1.394   2.630   1.034
  402SOL     OW 1224   1.206   2.395   0.273
  402SOL    HW1 1225   1.212   2.311   0.317
  402SOL    HW2 1226   1.161   2.452   0.335
  403SOL     OW 1227   0.301   2.066   1.242
  403SOL    HW1 1228   0.281   2.096   1.331
  403SOL    HW2 1229   0.284   1.972   1.244
  404SOL     OW 1230   0.055   0.170   1.270
  404SOL    HW1 1231   0.085   0.136   1.355
  404SOL    HW2 1232   0.019   0.256   1.291
  405SOL     OW 1233   0.730   2.494   1.062
  405SOL    HW1 1234   0.798   2.476   0.997
  405SOL    HW2 1235   0.698   2.582   1.041
  406SOL     OW 1236   1.735   2.818   1.846
  406SOL    HW1 1237   1.685   2.765   1.784
  406SOL    HW2 1238   1.679   2.827   1.922
  407SOL     OW 1239   0.301   1.931   0.622
  407SOL    HW1 1240   0.286   2.022   0.649
  407SOL    HW2 1241   0.307   1.882   0.703
  408SOL     OW 1242   1.617   2.233   0.370
  408SOL    HW1 1243   1.642   2.169   0.436
  408SOL    HW2 1244   1.589   2.310   0.420
  409SOL     OW 1245   1.026   2.619   0.966
  409SOL    HW1 1246   1.028   2.634   1.061
  409SOL    HW2 1247   1.000   2.528   0.957
  410SOL     OW 1248   0.355   2.786   1.798
  410SOL    HW1 1249   0.421   2.785   1.868
  410SOL    HW2 1250   0.380   2.714   1.741
  411SOL     OW 1251   1.508   2.163   0.126
  411SOL    HW1 1252   1.470   2.076   0.139
  411SOL    HW2 1253   1.561   2.179   0.204
  412SOL     OW 1254   1.295   2.686   0.037
  412SOL    HW1 1255   1.336   2.600   0.049
  412SOL    HW2 1256   1.325   2.714   2.950
  413SOL     OW 1257   0.313   2.678   0.953
  413SOL    HW1 1258   0.407   2.688   0.937
  413SOL    HW2 1259   0.304   2.589   0.987
  414SOL     OW 1260   0.337   2.378   1.014
  414SOL    HW1 1261   0.296   2.294   0.991
  414SOL    HW2 1262   0.411   2.385   0.953
  415SOL     OW 1263   1.135   2.240   1.679
  415SOL    HW1 1264   1.090   2.296   1.743
  415SOL    HW2 1265   1.224   2.275   1.675
  416SOL     OW 1266   1.161   2.065   1.471
  416SOL    HW1 1267   1.152   2.128   1.542
  416SOL    HW2 1268   1.198   2.115   1.399
  417SOL     OW 1269   0.986   2.668   1.233
  417SOL    HW1 1270   1.039   2.637   1.306
  417SOL    HW2 1271   0.903   2.620   1.241
  418SOL     OW 1272   0.049   2.439   1.115
  418SOL    HW1 1273   0.121   2.390   1.077
  418SOL    HW2 1274   0.034   2.399   1.200
  419SOL     OW 1275   0.197   2.380   1.721
  419SOL    HW1 1276   0.265   2.353   1.659
  419SOL    HW2 1277   0.159   2.459   1.682
  420SOL     OW 1278   1.377   2.808   1.661
  420SOL    HW1 1279   1.405   2.900   1.660
  420SOL    HW2 1280   1.371   2.783   1.569
  421SOL     OW 1281   0.819   2.437   0.348
  421SOL    HW1 1282   0.818   2.360   0.292
  421SOL    HW2 1283   0.738   2.483   0.326
  422SOL     OW 1284   1.643   2.464   1.191
  422SOL    HW1 1285   1.632   2.403   1.264
  422SOL    HW2 1286   1.730   2.443   1.156
  423SOL     OW 1287   0.697   2.315   1.262
  423SOL    HW1 1288   0.644   2.241   1.231
  423SOL    HW2 1289   0.695   2.377   1.190
  424SOL     OW 1290   0.440   2.358   0.208
  424SOL    HW1 1291   0.512   2.420   0.219
  424SOL    HW2 1292   0.364   2.413   0.190
  425SOL     OW 1293   0.162   0.007   1.469
  425SOL    HW1 1294   0.151   2.954   1.548
  425SOL    HW2 1295   0.173   2.943   1.398
  426SOL     OW 1296   1.353   2.909   1.221
  426SOL    HW1 1297   1.366   2.846   1.150
  426SOL    HW2 1298   1.276   2.959   1.194
  427SOL     OW 1299   1.300   2.723   0.313
  427SOL    HW1 1300   1.228   2.678   0.357
  427SOL    HW2 1301   1.289   2.700   0.220
  428SOL     OW 1302   0.898   1.937   0.125
  428SOL    HW1 1303   0.956   1.927   0.050
  428SOL    HW2 1304   0.946   1.898   0.198
  429SOL     OW 1305   1.714   2.002   0.513
  429SOL    HW1 1306   1.794   1.993   0.461
  429SOL    HW2 1307   1.702   1.916   0.553
  430SOL     OW 1308   1.292   2.795   0.683
  430SOL    HW1 1309   1.358   2.726   0.679
  430SOL    HW2 1310   1.306   2.846   0.603
  431SOL     OW 1311   1.840   2.037   0.966
  431SOL    HW1 1312   1.869   1.949   0.941
  431SOL    HW2 1313   1.752   2.045   0.929
  432SOL     OW 1314   0.268   2.180   0.722
  432SOL    HW1 1315   0.185   2.218   0.693
  432SOL    HW2 1316   0.258   2.169   0.816
  433SOL     OW 1317   0.812   2.859   1.372
  433SOL    HW1 1318   0.867   2.839   1.297
  433SOL    HW2 1319   0.833   2.950   1.395
  434SOL     OW 1320   0.901   2.788   0.287
  434SOL    HW1 1321   0.980   2.817   0.240
  434SOL    HW2 1322   0.935   2.734   0.359
  435SOL     OW 1323   1.019   2.102   0.965
  435SOL    HW1 1324   1.013   2.054   0.883
  435SOL    HW2 1325   1.014   2.035   1.033
  436SOL     OW 1326   1.718   2.253   1.380
  436SOL    HW1 1327   1.790   2.316   1.379
  436SOL    HW2 1328   1.749   2.181   1.324
  437SOL     OW 1329   0.116   2.866   1.697
  437SOL    HW1 1330   0.046   2.842   1.758
  437SOL    HW2 1331   0.197   2.851   1.746
  438SOL     OW 1332   0.673   2.058   1.498
  438SOL    HW1 1333   0.757   2.041   1.456
  438SOL    HW2 1334   0.695   2.084   1.587
  439SOL     OW 1335   0.056   2.174   0.051
  439SOL    HW1 1336   2.967   2.197   0.023
  439SOL    HW2 1337   0.111   2.244   0.015
  440SOL     OW 1338   1.435   2.718   1.404
  440SOL    HW1 1339   1.391   2.777   1.342
  440SOL    HW2 1340   1.527   2.720   1.378
  441SOL     OW 1341   0.063   2.058   0.321
  441SOL    HW1 1342   0.051   2.100   0.236
  441SOL    HW2 1343   0.129   1.990   0.306
  442SOL     OW 1344   1.142   0.213   0.096
  442SOL    HW1 1345   1.068   0.247   0.145
  442SOL    HW2 1346   1.217   0.222   0.156
  443SOL     OW 1347   0.613   2.690   1.435
  443SOL    HW1 1348   0.670   2.766   1.418
  443SOL    HW2 1349   0.674   2.616   1.443
  444SOL     OW 1350   0.717   2.428   1.707
  444SOL    HW1 1351   0.752   2.492   1.769
  444SOL    HW2 1352   0.755   2.344   1.734
  445SOL     OW 1353   1.676   2.745   1.254
  445SOL    HW1 1354   1.665   2.658   1.216
  445SOL    HW2 1355   1.660   2.806   1.182
  446SOL     OW 1356   1.221   2.181   0.459
  446SOL    HW1 1357   1.286   2.111   0.448
  446SOL    HW2 1358   1.251   2.230   0.536
  447SOL     OW 1359   0.593   2.588   0.662
  447SOL    HW1 1360   0.620   2.680   0.669
  447SOL    HW2 1361   0.521   2.589   0.598
  448SOL     OW 1362   1.766   2.222   1.647
  448SOL    HW1 1363   1.747   2.234   1.555
  448SOL    HW2 1364   1.695   2.166   1.679
  449SOL     OW 1365   1.733   2.796   1.516
  449SOL    HW1 1366   1.752   2.888   1.534
  449SOL    HW2 1367   1.727   2.791   1.420
  450SOL     OW 1368   0.886   2.830   0.862
  450SOL    HW1 1369   0.921   2.750   0.900
  450SOL    HW2 1370   0.827   2.865   0.930
  451SOL     OW 1371   1.110   2.889   0.084
  451SOL    HW1 1372   1.061   2.888   0.001
  451SOL    HW2 1373   1.170   2.815   0.077
  452SOL     OW 1374   1.813   2.048   1.238
  452SOL    HW1 1375   1.813   1.954   1.257
  452SOL    HW2 1376   1.824   2.053   1.143
  453SOL     OW 1377   0.430   2.295   0.526
  453SOL    HW1 1378   0.459   2.224   0.469
  453SOL    HW2 1379   0.385   2.251   0.598
  454SOL     OW 1380   0.333   2.417   1.289
  454SOL    HW1 1381   0.391   2.361   1.342
  454SOL    HW2 1382   0.349   2.388   1.199
  455SOL     OW 1383   1.431   2.083   1.118
  455SOL    HW1 1384   1.470   2.011   1.167
  455SOL    HW2 1385   1.380   2.131   1.183
  456SOL     OW 1386   1.007   1.883   1.147
  456SOL    HW1 1387   0.954   1.815   1.106
  456SOL    HW2 1388   1.096   1.847   1.148
  457SOL     OW 1389   1.354   1.913   0.164
  457SOL    HW1 1390   1.379   1.865   0.085
  457SOL    HW2 1391   1.268   1.878   0.187
  458SOL     OW 1392   1.300   2.323   0.685
  458SOL    HW1 1393   1.243   2.400   0.693
  458SOL    HW2 1394   1.296   2.281   0.771
  459SOL     OW 1395   1.587   2.068   0.876
  459SOL    HW1 1396   1.522   2.084   0.944
  459SOL    HW2 1397   1.587   2.147   0.823
  460SOL     OW 1398   0.002   2.888   0.286
  460SOL    HW1 1399   0.088   2.920   0.258
  460SOL    HW2 1400   0.018   2.849   0.372
  461SOL     OW 1401   0.228   2.507   1.969
  461SOL    HW1 1402   0.165   2.460   2.023
  461SOL    HW2 1403   0.224   2.463   1.884
  462SOL     OW 1404   0.235   2.124   2.838
  462SOL    HW1 1405   0.270   2.103   2.924
  462SOL    HW2 1406   0.147   2.087   2.837
  463SOL     OW 1407   0.015   2.247   2.506
  463SOL    HW1 1408   2.930   2.280   2.533
  463SOL    HW2 1409   2.996   2.162   2.467
  464SOL     OW 1410   1.135   2.567   2.567
  464SOL    HW1 1411   1.182   2.650   2.556
  464SOL    HW2 1412   1.082   2.580   2.645
  465SOL     OW 1413   1.760   2.468   2.092
  465SOL    HW1 1414   1.744   2.458   1.999
  465SOL    HW2 1415   1.729   2.386   2.131
  466SOL     OW 1416   0.777   0.012   2.879
  466SOL    HW1 1417   0.686   0.027   2.905
  466SOL    HW2 1418   0.800   0.088   2.826
  467SOL     OW 1419   0.652   2.847   2.564
  467SOL    HW1 1420   0.745   2.851   2.589
  467SOL    HW2 1421   0.632   2.936   2.536
  468SOL     OW 1422   1.617   2.311   2.594
  468SOL    HW1 1423   1.539   2.337   2.545
  468SOL    HW2 1424   1.626   2.379   2.661
  469SOL     OW 1425   0.214   0.311   2.329
  469SOL    HW1 1426   0.219   0.386   2.388
  469SOL    HW2 1427   0.195   0.236   2.385
  470SOL     OW 1428   0.233   2.947   2.743
  470SOL    HW1 1429   0.257   2.863   2.783
  470SOL    HW2 1430   0.207   0.002   2.817
  471SOL     OW 1431   0.608   2.824   1.991
  471SOL    HW1 1432   0.598   2.908   1.946
  471SOL    HW2 1433   0.664   2.843   2.066
  472SOL     OW 1434   0.122   2.494   2.427
  472SOL    HW1 1435   0.094   2.411   2.465
  472SOL    HW2 1436   0.119   2.557   2.499
  473SOL     OW 1437   1.698   2.805   2.483
  473SOL    HW1 1438   1.776   2.751   2.494
  473SOL    HW2 1439   1.692   2.819   2.389
  474SOL     OW 1440   0.633   0.244   2.569
  474SOL    HW1 1441   0.592   0.159   2.551
  474SOL    HW2 1442   0.612   0.297   2.492
  475SOL     OW 1443   0.811   1.861   2.366
  475SOL    HW1 1444   0.852   1.946   2.352
  475SOL    HW2 1445   0.718   1.880   2.378
  476SOL     OW 1446   0.212   2.807   0.101
  476SOL    HW1 1447   0.278   2.737   0.101
  476SOL    HW2 1448   0.128   2.761   0.093
  477SOL     OW 1449   1.538   2.839   2.045
  477SOL    HW1 1450   1.468   2.787   2.085
  477SOL    HW2 1451   1.589   2.871   2.120
  478SOL     OW 1452   0.596   2.581   2.126
  478SOL    HW1 1453   0.604   2.659   2.072
  478SOL    HW2 1454   0.531   2.604   2.193
  479SOL     OW 1455   1.296   2.197   2.807
  479SOL    HW1 1456   1.202   2.180   2.801
  479SOL    HW2 1457   1.322   2.161   2.892
  480SOL     OW 1458   1.051   2.562   2.289
  480SOL    HW1 1459   1.062   2.557   2.384
  480SOL    HW2 1460   0.968   2.517   2.272
  481SOL     OW 1461   0.105   2.672   2.626
  481SOL    HW1 1462   0.181   2.672   2.684
  481SOL    HW2 1463   0.047   2.739   2.662
  482SOL     OW 1464   0.883   2.207   2.055
  482SOL    HW1 1465   0.929   2.268   1.998
  482SOL    HW2 1466   0.906   2.120   2.021
  483SOL     OW 1467   0.553   2.048   2.765
  483SOL    HW1 1468   0.519   2.080   2.849
  483SOL    HW2 1469   0.559   2.126   2.710
  484SOL     OW 1470   1.798   2.912   2.728
  484SOL    HW1 1471   1.738   2.893   2.656
  484SOL    HW2 1472   1.741   2.915   2.806
  485SOL     OW 1473   1.478   2.601   2.586
  485SOL    HW1 1474   1.464   2.546   2.663
  485SOL    HW2 1475   1.554   2.655   2.609
  486SOL     OW 1476   1.401   1.970   2.291
  486SOL    HW1 1477   1.388   1.944   2.200
  486SOL    HW2 1478   1.496   1.976   2.301
  487SOL     OW 1479   0.394   2.555   2.337
  487SOL    HW1 1480   0.412   2.462   2.351
  487SOL    HW2 1481   0.301   2.564   2.356
  488SOL     OW 1482   0.627   1.988   1.970
  488SOL    HW1 1483   0.704   1.933   1.980
  488SOL    HW2 1484   0.584   1.954   1.891
  489SOL     OW 1485   0.922   2.380   2.758
  489SOL    HW1 1486   0.902   2.358   2.667
  489SOL    HW2 1487   0.958   2.300   2.795
  490SOL     OW 1488   0.548   1.925   2.369
  490SOL    HW1 1489   0.466   1.926   2.418
  490SOL    HW2 1490   0.543   2.003   2.313
  491SOL     OW 1491   0.292   1.905   2.042
  491SOL    HW1 1492   0.351   1.975   2.013
  491SOL    HW2 1493   0.349   1.841   2.085
  492SOL     OW 1494   0.936   2.104   2.326
  492SOL    HW1 1495   0.906   2.149   2.247
  492SOL    HW2 1496   1.030   2.116   2.326
  493SOL     OW 1497   1.027   2.408   1.879
  493SOL    HW1 1498   0.983   2.491   1.860
  493SOL    HW2 1499   1.089   2.429   1.949
  494SOL     OW 1500   0.870   2.319   2.500
  494SOL    HW1 1501   0.823   2.375   2.439
  494SOL    HW2 1502   0.887   2.239   2.449
  495SOL     OW 1503   1.012   1.911   2.615
  495SOL    HW1 1504   0.955   1.904   2.538
  495SOL    HW2 1505   0.992   1.833   2.666
  496SOL     OW 1506   1.422   0.000   2.736
  496SOL    HW1 1507   1.355   2.943   2.699
  496SOL    HW2 1508   1.448   0.057   2.663
  497SOL     OW 1509   1.487   2.448   2.821
  497SOL    HW1 1510   1.423   2.378   2.831
  497SOL    HW2 1511   1.513   2.471   2.910
  498SOL     OW 1512   1.839   2.669   2.253
  498SOL    HW1 1513   1.899   2.619   2.307
  498SOL    HW2 1514   1.816   2.611   2.180
  499SOL     OW 1515   1.394   2.435   1.934
  499SOL    HW1 1516   1.335   2.413   2.007
  499SOL    HW2 1517   1.479   2.400   1.961
  500SOL     OW 1518   0.527   2.124   2.184
  500SOL    HW1 1519   0.565   2.074   2.112
  500SOL    HW2 1520   0.511   2.211   2.147
  501SOL     OW 1521   1.626   2.966   2.935
  501SOL    HW1 1522   1.632   0.042   2.992
  501SOL    HW2 1523   1.551   2.983   2.879
  502SOL     OW 1524   0.555   2.397   2.726
  502SOL    HW1 1525   0.570   2.452   2.649
  502SOL    HW2 1526   0.615   2.430   2.792
  503SOL     OW 1527   1.579   2.488   2.334
  503SOL    HW1 1528   1.542   2.546   2.400
  503SOL    HW2 1529   1.633   2.545   2.280
  504SOL     OW 1530   0.574   2.726   2.883
  504SOL    HW1 1531   0.615   2.808   2.856
  504SOL    HW2 1532   0.555   2.739   2.976
  505SOL     OW 1533   1.208   2.392   2.133
  505SOL    HW1 1534   1.216   2.313   2.186
  505SOL    HW2 1535   1.163   2.454   2.190
  506SOL     OW 1536   0.325   2.062   0.081
  506SOL    HW1 1537   0.310   2.105   0.166
  506SOL    HW2 1538   0.301   1.971   0.096
  507SOL     OW 1539   0.731   2.501   2.916
  507SOL    HW1 1540   0.796   2.478   2.851
  507SOL    HW2 1541   0.696   2.586   2.887
  508SOL     OW 1542   0.302   1.931   2.483
  508SOL    HW1 1543   0.285   2.021   2.510
  508SOL    HW2 1544   0.306   1.882   2.565
  509SOL     OW 1545   1.612   2.232   2.232
  509SOL    HW1 1546   1.640   2.170   2.299
  509SOL    HW2 1547   1.589   2.311   2.281
  510SOL     OW 1548   1.024   2.622   2.822
  510SOL    HW1 1549   1.028   2.628   2.918
  510SOL    HW2 1550   0.996   2.532   2.805
  511SOL     OW 1551   1.530   2.138   1.990
  511SOL    HW1 1552   1.468   2.069   2.015
  511SOL    HW2 1553   1.563   2.172   2.073
  512SOL     OW 1554   1.294   2.688   1.896
  512SOL    HW1 1555   1.336   2.602   1.901
  512SOL    HW2 1556   1.325   2.725   1.813
  513SOL     OW 1557   0.311   2.675   2.810
  513SOL    HW1 1558   0.405   2.692   2.809
  513SOL    HW2 1559   0.303   2.586   2.846
  514SOL     OW 1560   0.323   2.384   2.867
  514SOL    HW1 1561   0.292   2.295   2.852
  514SOL    HW2 1562   0.402   2.391   2.814
  515SOL     OW 1563   0.985   2.618   0.088
  515SOL    HW1 1564   1.028   2.608   0.174
  515SOL    HW2 1565   0.894   2.636   0.110
  516SOL     OW 1566   0.817   2.430   2.215
  516SOL    HW1 1567   0.816   2.355   2.155
  516SOL    HW2 1568   0.742   2.483   2.188
  517SOL     OW 1569   0.703   2.310   0.104
  517SOL    HW1 1570   0.620   2.266   0.090
  517SOL    HW2 1571   0.703   2.381   0.039
  518SOL     OW 1572   0.466   2.356   2.048
  518SOL    HW1 1573   0.527   2.426   2.068
  518SOL    HW2 1574   0.380   2.399   2.048
  519SOL     OW 1575   1.302   2.725   2.171
  519SOL    HW1 1576   1.229   2.685   2.217
  519SOL    HW2 1577   1.287   2.703   2.079
  520SOL     OW 1578   1.718   2.003   2.376
  520SOL    HW1 1579   1.792   1.990   2.316
  520SOL    HW2 1580   1.703   1.917   2.414
  521SOL     OW 1581   1.293   2.798   2.544
  521SOL    HW1 1582   1.357   2.727   2.543
  521SOL    HW2 1583   1.307   2.844   2.461
  522SOL     OW 1584   1.840   2.040   2.823
  522SOL    HW1 1585   1.870   1.953   2.798
  522SOL    HW2 1586   1.751   2.046   2.789
  523SOL     OW 1587   0.270   2.181   2.577
  523SOL    HW1 1588   0.186   2.220   2.554
  523SOL    HW2 1589   0.265   2.167   2.672
  524SOL     OW 1590   0.905   2.759   2.117
  524SOL    HW1 1591   0.979   2.808   2.083
  524SOL    HW2 1592   0.940   2.710   2.191
  525SOL     OW 1593   1.032   2.104   2.809
  525SOL    HW1 1594   1.020   2.052   2.730
  525SOL    HW2 1595   1.007   2.046   2.881
  526SOL     OW 1596   0.092   2.184   1.917
  526SOL    HW1 1597   0.009   2.154   1.880
  526SOL    HW2 1598   0.106   2.270   1.879
  527SOL     OW 1599   0.066   2.057   2.178
  527SOL    HW1 1600   0.070   2.106   2.096
  527SOL    HW2 1601   0.134   1.990   2.169
  528SOL     OW 1602   1.133   0.245   2.000
  528SOL    HW1 1603   1.101   0.161   1.967
  528SOL    HW2 1604   1.211   0.223   2.050
  529SOL     OW 1605   1.728   2.710   0.055
  529SOL    HW1 1606   1.653   2.665   0.095
  529SOL    HW2 1607   1.699   2.801   0.046
  530SOL     OW 1608   1.219   2.182   2.319
  530SOL    HW1 1609   1.283   2.111   2.309
  530SOL    HW2 1610   1.248   2.229   2.397
  531SOL     OW 1611   0.595   2.586   2.524
  531SOL    HW1 1612   0.622   2.678   2.531
  531SOL    HW2 1613   0.523   2.587   2.461
  532SOL     OW 1614   0.880   2.825   2.717
  532SOL    HW1 1615   0.923   2.750   2.758
  532SOL    HW2 1616   0.843   2.874   2.790
  533SOL     OW 1617   1.102   2.872   1.953
  533SOL    HW1 1618   1.061   2.898   1.870
  533SOL    HW2 1619   1.158   2.798   1.930
  534SOL     OW 1620   1.826   2.053   0.095
  534SOL    HW1 1621   1.798   1.962   0.106
  534SOL    HW2 1622   1.830   2.065   0.000
  535SOL     OW 1623   0.426   2.293   2.382
  535SOL    HW1 1624   0.458   2.220   2.329
  535SOL    HW2 1625   0.383   2.253   2.457
  536SOL     OW 1626   1.353   1.915   2.024
  536SOL    HW1 1627   1.386   1.848   1.964
  536SOL    HW2 1628   1.266   1.883   2.049
  537SOL     OW 1629   1.298   2.320   2.548
  537SOL    HW1 1630   1.243   2.398   2.557
  537SOL    HW2 1631   1.298   2.280   2.636
  538SOL     OW 1632   1.584   2.075   2.739
  538SOL    HW1 1633   1.501   2.094   2.784
  538SOL    HW2 1634   1.596   2.148   2.679
  539SOL     OW 1635   0.020   2.930   2.153
  539SOL    HW1 1636   0.115   2.925   2.144
  539SOL    HW2 1637   3.000   2.872   2.226
  540SOL     OW 1638   2.092   0.637   0.120
  540SOL    HW1 1639   1.999   0.627   0.138
  540SOL    HW2 1640   2.103   0.601   0.032
  541SOL     OW 1641   2.079   0.284   1.006
  541SOL    HW1 1642   2.111   0.249   1.089
  541SOL    HW2 1643   1.994   0.242   0.994
  542SOL     OW 1644   1.866   0.379   0.643
  542SOL    HW1 1645   1.784   0.406   0.686
  542SOL    HW2 1646   1.841   0.305   0.588
  543SOL     OW 1647   2.427   1.280   1.170
  543SOL    HW1 1648   2.339   1.287   1.134
  543SOL    HW2 1649   2.444   1.367   1.208
  544SOL     OW 1650   2.619   1.144   1.034
  544SOL    HW1 1651   2.551   1.177   1.092
  544SOL    HW2 1652   2.657   1.222   0.994
  545SOL     OW 1653   2.718   0.781   1.818
  545SOL    HW1 1654   2.712   0.851   1.883
  545SOL    HW2 1655   2.742   0.826   1.737
  546SOL     OW 1656   2.547   1.009   0.651
  546SOL    HW1 1657   2.609   0.991   0.722
  546SOL    HW2 1658   2.477   1.058   0.692
  547SOL     OW 1659   2.567   1.153   1.809
  547SOL    HW1 1660   2.615   1.233   1.831
  547SOL    HW2 1661   2.483   1.184   1.775
  548SOL     OW 1662   2.193   1.428   1.066
  548SOL    HW1 1663   2.121   1.400   1.010
  548SOL    HW2 1664   2.249   1.481   1.009
  549SOL     OW 1665   2.312   0.400   1.489
  549SOL    HW1 1666   2.386   0.340   1.495
  549SOL    HW2 1667   2.235   0.345   1.504
  550SOL     OW 1668   2.083   1.713   0.474
  550SOL    HW1 1669   2.106   1.790   0.528
  550SOL    HW2 1670   2.156   1.704   0.413
  551SOL     OW 1671   2.983   1.345   1.686
  551SOL    HW1 1672   0.028   1.348   1.771
  551SOL    HW2 1673   2.936   1.262   1.687
  552SOL     OW 1674   2.087   1.441   0.534
  552SOL    HW1 1675   2.074   1.535   0.542
  552SOL    HW2 1676   2.025   1.403   0.597
  553SOL     OW 1677   2.110   1.091   0.888
  553SOL    HW1 1678   2.115   1.006   0.932
  553SOL    HW2 1679   2.057   1.145   0.947
  554SOL     OW 1680   2.481   1.788   1.435
  554SOL    HW1 1681   2.396   1.771   1.476
  554SOL    HW2 1682   2.499   1.880   1.456
  555SOL     OW 1683   2.456   0.977   0.144
  555SOL    HW1 1684   2.478   1.050   0.087
  555SOL    HW2 1685   2.493   1.001   0.229
  556SOL     OW 1686   1.980   0.643   0.563
  556SOL    HW1 1687   1.936   0.562   0.587
  556SOL    HW2 1688   1.972   0.699   0.640
  557SOL     OW 1689   1.877   1.589   0.120
  557SOL    HW1 1690   1.888   1.499   0.149
  557SOL    HW2 1691   1.878   1.640   0.202
  558SOL     OW 1692   1.983   0.742   1.585
  558SOL    HW1 1693   2.075   0.762   1.606
  558SOL    HW2 1694   1.937   0.825   1.595
  559SOL     OW 1695   2.474   1.381   0.734
  559SOL    HW1 1696   2.428   1.297   0.742
  559SOL    HW2 1697   2.457   1.409   0.644
  560SOL     OW 1698   2.682   0.013   0.513
  560SOL    HW1 1699   2.706   0.105   0.498
  560SOL    HW2 1700   2.587   0.011   0.501
  561SOL     OW 1701   2.052   0.975   1.255
  561SOL    HW1 1702   2.137   0.932   1.249
  561SOL    HW2 1703   1.989   0.906   1.238
  562SOL     OW 1704   2.187   0.254   1.799
  562SOL    HW1 1705   2.237   0.332   1.821
  562SOL    HW2 1706   2.101   0.268   1.840
  563SOL     OW 1707   2.453   0.722   0.264
  563SOL    HW1 1708   2.462   0.804   0.215
  563SOL    HW2 1709   2.390   0.742   0.333
  564SOL     OW 1710   2.655   0.626   1.454
  564SOL    HW1 1711   2.629   0.600   1.543
  564SOL    HW2 1712   2.616   0.559   1.397
  565SOL     OW 1713   2.831   0.883   1.574
  565SOL    HW1 1714   2.859   0.797   1.541
  565SOL    HW2 1715   2.782   0.922   1.501
  566SOL     OW 1716   2.845   0.378   1.260
  566SOL    HW1 1717   2.772   0.432   1.289
  566SOL    HW2 1718   2.835   0.374   1.164
  567SOL     OW 1719   2.892   0.714   0.412
  567SOL    HW1 1720   2.927   0.700   0.499
  567SOL    HW2 1721   2.817   0.655   0.406
  568SOL     OW 1722   1.952   0.819   0.774
  568SOL    HW1 1723   2.034   0.810   0.823
  568SOL    HW2 1724   1.911   0.898   0.810
  569SOL     OW 1725   2.002   1.862   1.582
  569SOL    HW1 1726   1.995   1.834   1.674
  569SOL    HW2 1727   1.912   1.854   1.548
  570SOL     OW 1728   2.784   0.342   0.219
  570SOL    HW1 1729   2.768   0.398   0.142
  570SOL    HW2 1730   2.771   0.253   0.187
  571SOL     OW 1731   2.380   0.194   0.910
  571SOL    HW1 1732   2.397   0.211   1.003
  571SOL    HW2 1733   2.404   0.276   0.867
  572SOL     OW 1734   2.864   1.443   0.471
  572SOL    HW1 1735   2.829   1.519   0.424
  572SOL    HW2 1736   2.862   1.469   0.563
  573SOL     OW 1737   2.217   1.804   0.854
  573SOL    HW1 1738   2.262   1.721   0.866
  573SOL    HW2 1739   2.283   1.871   0.873
  574SOL     OW 1740   2.181   0.952   0.243
  574SOL    HW1 1741   2.264   0.969   0.199
  574SOL    HW2 1742   2.153   0.867   0.209
  575SOL     OW 1743   2.325   1.260   1.736
  575SOL    HW1 1744   2.296   1.266   1.645
  575SOL    HW2 1745   2.244   1.263   1.787
  576SOL     OW 1746   2.062   0.294   1.498
  576SOL    HW1 1747   1.979   0.341   1.496
  576SOL    HW2 1748   2.051   0.228   1.566
  577SOL     OW 1749   2.328   1.726   0.332
  577SOL    HW1 1750   2.362   1.793   0.392
  577SOL    HW2 1751   2.395   1.719   0.264
  578SOL     OW 1752   2.122   1.794   1.235
  578SOL    HW1 1753   2.153   1.722   1.291
  578SOL    HW2 1754   2.099   1.752   1.152
  579SOL     OW 1755   2.801   1.695   0.900
  579SOL    HW1 1756   2.864   1.629   0.927
  579SOL    HW2 1757   2.751   1.654   0.830
  580SOL     OW 1758   2.254   0.692   0.476
  580SOL    HW1 1759   2.285   0.603   0.491
  580SOL    HW2 1760   2.161   0.689   0.499
  581SOL     OW 1761   2.475   0.108   0.109
  581SOL    HW1 1762   2.570   0.112   0.120
  581SOL    HW2 1763   2.461   0.139   0.019
  582SOL     OW 1764   2.635   0.275   1.752
  582SOL    HW1 1765   2.701   0.209   1.771
  582SOL    HW2 1766   2.578   0.275   1.829
  583SOL     OW 1767   2.742   1.518   1.193
  583SOL    HW1 1768   2.722   1.483   1.106
  583SOL    HW2 1769   2.804   1.454   1.230
  584SOL     OW 1770   2.668   1.404   0.937
  584SOL    HW1 1771   2.753   1.391   0.893
  584SOL    HW2 1772   2.604   1.397   0.866
  585SOL     OW 1773   2.784   0.505   0.905
  585SOL    HW1 1774   2.757   0.494   0.813
  585SOL    HW2 1775   2.824   0.421   0.928
  586SOL     OW 1776   2.402   0.049   0.496
  586SOL    HW1 1777   2.316   0.040   0.538
  586SOL    HW2 1778   2.394   0.129   0.444
  587SOL     OW 1779   0.318   1.155   0.045
  587SOL    HW1 1780   0.311   1.100   0.123
  587SOL    HW2 1781   0.249   1.220   0.055
  588SOL     OW 1782   2.162   0.085   0.186
  588SOL    HW1 1783   2.245   0.133   0.189
  588SOL    HW2 1784   2.186   2.994   0.204
  589SOL     OW 1785   2.822   0.248   0.468
  589SOL    HW1 1786   2.779   0.294   0.396
  589SOL    HW2 1787   2.899   0.208   0.429
  590SOL     OW 1788   0.083   1.582   0.797
  590SOL    HW1 1789   0.110   1.621   0.714
  590SOL    HW2 1790   0.165   1.554   0.839
  591SOL     OW 1791   2.327   1.147   0.737
  591SOL    HW1 1792   2.255   1.128   0.798
  591SOL    HW2 1793   2.290   1.130   0.651
  592SOL     OW 1794   2.897   0.514   0.020
  592SOL    HW1 1795   2.845   0.593   0.005
  592SOL    HW2 1796   2.944   0.532   0.101
  593SOL     OW 1797   1.937   0.556   1.390
  593SOL    HW1 1798   2.028   0.553   1.363
  593SOL    HW2 1799   1.933   0.626   1.456
  594SOL     OW 1800   2.428   0.217   1.177
  594SOL    HW1 1801   2.462   0.162   1.247
  594SOL    HW2 1802   2.336   0.229   1.198
  595SOL     OW 1803   2.745   0.468   0.635
  595SOL    HW1 1804   2.679   0.518   0.587
  595SOL    HW2 1805   2.739   0.380   0.598
  596SOL     OW 1806   2.863   0.054   0.761
  596SOL    HW1 1807   2.823   0.057   0.674
  596SOL    HW2 1808   2.838   2.969   0.796
  597SOL     OW 1809   2.353   1.400   0.153
  597SOL    HW1 1810   2.286   1.373   0.215
  597SOL    HW2 1811   2.307   1.409   0.069
  598SOL     OW 1812   2.393   0.263   0.325
  598SOL    HW1 1813   2.432   0.212   0.254
  598SOL    HW2 1814   2.367   0.346   0.285
  599SOL     OW 1815   2.780   0.111   1.401
  599SOL    HW1 1816   2.807   0.097   1.310
  599SOL    HW2 1817   2.845   0.173   1.436
  600SOL     OW 1818   2.841   1.109   1.729
  600SOL    HW1 1819   2.748   1.131   1.738
  600SOL    HW2 1820   2.843   1.042   1.661
  601SOL     OW 1821   2.563   1.062   0.378
  601SOL    HW1 1822   2.550   1.050   0.472
  601SOL    HW2 1823   2.646   1.017   0.360
  602SOL     OW 1824   2.275   0.814   1.253
  602SOL    HW1 1825   2.346   0.825   1.316
  602SOL    HW2 1826   2.242   0.726   1.269
  603SOL     OW 1827   2.217   1.107   0.491
  603SOL    HW1 1828   2.217   1.181   0.431
  603SOL    HW2 1829   2.215   1.030   0.434
  604SOL     OW 1830   2.419   0.542   0.864
  604SOL    HW1 1831   2.436   0.597   0.787
  604SOL    HW2 1832   2.483   0.570   0.929
  605SOL     OW 1833   2.214   1.518   1.321
  605SOL    HW1 1834   2.198   1.480   1.234
  605SOL    HW2 1835   2.308   1.535   1.323
  606SOL     OW 1836   2.274   0.745   1.602
  606SOL    HW1 1837   2.335   0.792   1.543
  606SOL    HW2 1838   2.316   0.660   1.616
  607SOL     OW 1839   2.868   0.115   1.762
  607SOL    HW1 1840   2.898   0.191   1.712
  607SOL    HW2 1841   2.904   0.039   1.715
  608SOL     OW 1842   2.365   0.055   1.748
  608SOL    HW1 1843   2.331   2.990   1.686
  608SOL    HW2 1844   2.294   0.118   1.758
  609SOL     OW 1845   2.441   0.873   1.030
  609SOL    HW1 1846   2.477   0.962   1.029
  609SOL    HW2 1847   2.387   0.871   1.109
  610SOL     OW 1848   0.063   0.533   0.271
  610SOL    HW1 1849   0.084   0.450   0.315
  610SOL    HW2 1850   0.035   0.591   0.342
  611SOL     OW 1851   2.162   0.200   1.250
  611SOL    HW1 1852   2.131   0.241   1.331
  611SOL    HW2 1853   2.138   0.108   1.258
  612SOL     OW 1854   2.590   0.634   1.061
  612SOL    HW1 1855   2.665   0.616   1.004
  612SOL    HW2 1856   2.563   0.723   1.038
  613SOL     OW 1857   2.168   0.060   0.640
  613SOL    HW1 1858   2.168   0.151   0.668
  613SOL    HW2 1859   2.152   0.010   0.720
  614SOL     OW 1860   2.867   0.769   0.972
  614SOL    HW1 1861   2.897   0.775   1.063
  614SOL    HW2 1862   2.872   0.676   0.951
  615SOL     OW 1863   2.834   1.568   1.704
  615SOL    HW1 1864   2.826   1.609   1.617
  615SOL    HW2 1865   2.890   1.492   1.690
  616SOL     OW 1866   2.215   0.912   1.811
  616SOL    HW1 1867   2.299   0.936   1.850
  616SOL    HW2 1868   2.238   0.853   1.739
  617SOL     OW 1869   2.907   1.344   0.835
  617SOL    HW1 1870   2.911   1.266   0.780
  617SOL    HW2 1871   2.981   1.398   0.806
  618SOL     OW 1872   2.173   0.811   0.947
  618SOL    HW1 1873   2.266   0.834   0.945
  618SOL    HW2 1874   2.171   0.722   0.983
  619SOL     OW 1875   2.197   0.524   1.013
  619SOL    HW1 1876   2.159   0.437   0.996
  619SOL    HW2 1877   2.272   0.529   0.953
  620SOL     OW 1878   2.967   0.368   1.665
  620SOL    HW1 1879   2.912   0.432   1.709
  620SOL    HW2 1880   0.055   0.406   1.667
  621SOL     OW 1881   1.871   1.321   0.189
  621SOL    HW1 1882   1.780   1.334   0.161
  621SOL    HW2 1883   1.871   1.234   0.229
  622SOL     OW 1884   1.954   1.792   0.937
  622SOL    HW1 1885   1.921   1.712   0.896
  622SOL    HW2 1886   2.043   1.800   0.904
  623SOL     OW 1887   2.362   1.572   0.906
  623SOL    HW1 1888   2.430   1.635   0.930
  623SOL    HW2 1889   2.407   1.506   0.853
  624SOL     OW 1890   2.864   0.795   1.251
  624SOL    HW1 1891   2.907   0.732   1.309
  624SOL    HW2 1892   2.774   0.763   1.243
  625SOL     OW 1893   1.898   0.540   1.116
  625SOL    HW1 1894   1.980   0.524   1.069
  625SOL    HW2 1895   1.925   0.550   1.208
  626SOL     OW 1896   2.050   0.518   1.724
  626SOL    HW1 1897   2.109   0.483   1.657
  626SOL    HW2 1898   2.005   0.590   1.681
  627SOL     OW 1899   2.674   0.572   0.348
  627SOL    HW1 1900   2.679   0.493   0.294
  627SOL    HW2 1901   2.592   0.615   0.322
  628SOL     OW 1902   2.135   1.558   1.742
  628SOL    HW1 1903   2.081   1.617   1.795
  628SOL    HW2 1904   2.110   1.470   1.771
  629SOL     OW 1905   2.554   0.460   1.265
  629SOL    HW1 1906   2.509   0.382   1.233
  629SOL    HW2 1907   2.555   0.519   1.190
  630SOL     OW 1908   2.804   1.688   1.460
  630SOL    HW1 1909   2.770   1.642   1.383
  630SOL    HW2 1910   2.777   1.779   1.446
  631SOL     OW 1911   2.313   0.494   0.201
  631SOL    HW1 1912   2.373   0.566   0.220
  631SOL    HW2 1913   2.228   0.535   0.186
  632SOL     OW 1914   2.011   1.139   1.471
  632SOL    HW1 1915   2.015   1.081   1.547
  632SOL    HW2 1916   2.027   1.082   1.396
  633SOL     OW 1917   1.934   1.272   1.021
  633SOL    HW1 1918   1.940   1.249   1.114
  633SOL    HW2 1919   1.872   1.209   0.984
  634SOL     OW 1920   2.539   1.664   1.727
  634SOL    HW1 1921   2.485   1.743   1.718
  634SOL    HW2 1922   2.602   1.669   1.655
  635SOL     OW 1923   2.765   0.086   0.140
  635SOL    HW1 1924   2.810   0.046   0.066
  635SOL    HW2 1925   2.807   0.047   0.217
  636SOL     OW 1926   1.995   1.796   1.844
  636SOL    HW1 1927   1.946   1.730   1.893
  636SOL    HW2 1928   2.045   1.842   1.911
  637SOL     OW 1929   2.681   1.269   1.426
  637SOL    HW1 1930   2.671   1.313   1.510
  637SOL    HW2 1931   2.605   1.299   1.374
  638SOL     OW 1932   2.531   1.610   0.159
  638SOL    HW1 1933   2.535   1.626   0.065
  638SOL    HW2 1934   2.479   1.530   0.167
  639SOL     OW 1935   2.137   0.349   0.754
  639SOL    HW1 1936   2.047   0.368   0.727
  639SOL    HW2 1937   2.128   0.314   0.842
  640SOL     OW 1938   2.688   1.006   1.375
  640SOL    HW1 1939   2.732   1.001   1.290
  640SOL    HW2 1940   2.689   1.099   1.397
  641SOL     OW 1941   2.786   0.939   0.308
  641SOL    HW1 1942   2.838   0.952   0.228
  641SOL    HW2 1943   2.822   0.860   0.347
  642SOL     OW 1944   2.231   1.298   1.491
  642SOL    HW1 1945   2.218   1.379   1.441
  642SOL    HW2 1946   2.150   1.248   1.476
  643SOL     OW 1947   2.913   1.083   0.720
  643SOL    HW1 1948   2.836   1.042   0.760
  643SOL    HW2 1949   2.933   1.029   0.644
  644SOL     OW 1950   2.877   0.239   0.968
  644SOL    HW1 1951   2.875   0.187   0.887
  644SOL    HW2 1952   2.871   0.174   1.038
  645SOL     OW 1953   2.459   1.488   0.484
  645SOL    HW1 1954   2.502   1.439   0.413
  645SOL    HW2 1955   2.402   1.550   0.438
  646SOL     OW 1956   2.130   1.337   0.295
  646SOL    HW1 1957   2.043   1.341   0.254
  646SOL    HW2 1958   2.119   1.380   0.380
  647SOL     OW 1959   1.974   1.012   1.719
  647SOL    HW1 1960   1.898   0.993   1.773
  647SOL    HW2 1961   2.049   0.979   1.770
  648SOL     OW 1962   2.528   0.207   1.492
  648SOL    HW1 1963   2.611   0.182   1.452
  648SOL    HW2 1964   2.549   0.221   1.584
  649SOL     OW 1965   1.916   0.198   0.331
  649SOL    HW1 1966   1.889   0.235   0.247
  649SOL    HW2 1967   2.000   0.156   0.314
  650SOL     OW 1968   2.478   0.834   1.431
  650SOL    HW1 1969   2.534   0.911   1.418
  650SOL    HW2 1970   2.540   0.761   1.438
  651SOL     OW 1971   2.579   0.564   1.705
  651SOL    HW1 1972   2.611   0.628   1.769
  651SOL    HW2 1973   2.617   0.481   1.734
  652SOL     OW 1974   2.248   1.740   1.563
  652SOL    HW1 1975   2.163   1.783   1.553
  652SOL    HW2 1976   2.228   1.658   1.607
  653SOL     OW 1977   2.458   0.741   0.663
  653SOL    HW1 1978   2.494   0.828   0.650
  653SOL    HW2 1979   2.384   0.736   0.602
  654SOL     OW 1980   2.763   1.378   0.062
  654SOL    HW1 1981   2.690   1.387   0.123
  654SOL    HW2 1982   2.736   1.428   2.985
  655SOL     OW 1983   2.520   1.795   0.949
  655SOL    HW1 1984   2.497   1.885   0.924
  655SOL    HW2 1985   2.615   1.791   0.939
  656SOL     OW 1986   2.717   0.961   0.857
  656SOL    HW1 1987   2.766   0.890   0.899
  656SOL    HW2 1988   2.689   1.016   0.930
  657SOL     OW 1989   2.958   1.016   0.077
  657SOL    HW1 1990   2.927   1.051   2.994
  657SOL    HW2 1991   0.015   0.942   0.052
  658SOL     OW 1992   2.085   1.304   1.854
  658SOL    HW1 1993   2.015   1.243   1.827
  658SOL    HW2 1994   2.068   1.320   1.946
  659SOL     OW 1995   1.944   1.238   0.665
  659SOL    HW1 1996   1.949   1.182   0.743
  659SOL    HW2 1997   2.013   1.203   0.607
  660SOL     OW 1998   2.541   1.400   1.626
  660SOL    HW1 1999   2.460   1.356   1.653
  660SOL    HW2 2000   2.534   1.488   1.664
  661SOL     OW 2001   2.336   0.434   0.547
  661SOL    HW1 2002   2.324   0.376   0.472
  661SOL    HW2 2003   2.268   0.407   0.609
  662SOL     OW 2004   2.187   0.551   1.290
  662SOL    HW1 2005   2.244   0.498   1.346
  662SOL    HW2 2006   2.211   0.527   1.201
  663SOL     OW 2007   2.683   1.582   0.680
  663SOL    HW1 2008   2.683   1.616   0.591
  663SOL    HW2 2009   2.606   1.526   0.684
  664SOL     OW 2010   2.854   0.019   1.149
  664SOL    HW1 2011   2.818   2.946   1.098
  664SOL    HW2 2012   2.946   2.995   1.164
  665SOL     OW 2013   2.628   1.330   0.313
  665SOL    HW1 2014   2.599   1.240   0.329
  665SOL    HW2 2015   2.713   1.336   0.357
  666SOL     OW 2016   2.483   1.560   1.282
  666SOL    HW1 2017   2.485   1.640   1.334
  666SOL    HW2 2018   2.571   1.553   1.244
  667SOL     OW 2019   1.902   1.075   0.305
  667SOL    HW1 2020   1.996   1.068   0.287
  667SOL    HW2 2021   1.875   0.986   0.326
  668SOL     OW 2022   2.737   1.648   0.348
  668SOL    HW1 2023   2.668   1.632   0.283
  668SOL    HW2 2024   2.708   1.727   0.394
  669SOL     OW 2025   2.093   0.623   1.983
  669SOL    HW1 2026   2.003   0.624   2.015
  669SOL    HW2 2027   2.085   0.596   1.891
  670SOL     OW 2028   2.087   0.276   2.878
  670SOL    HW1 2029   2.104   0.239   2.965
  670SOL    HW2 2030   2.002   0.242   2.853
  671SOL     OW 2031   1.866   0.379   2.505
  671SOL    HW1 2032   1.785   0.409   2.546
  671SOL    HW2 2033   1.839   0.304   2.451
  672SOL     OW 2034   2.615   1.147   2.894
  672SOL    HW1 2035   2.552   1.191   2.951
  672SOL    HW2 2036   2.663   1.219   2.853
  673SOL     OW 2037   2.548   1.009   2.510
  673SOL    HW1 2038   2.607   0.991   2.583
  673SOL    HW2 2039   2.476   1.058   2.549
  674SOL     OW 2040   2.203   1.432   2.931
  674SOL    HW1 2041   2.125   1.400   2.885
  674SOL    HW2 2042   2.249   1.485   2.865
  675SOL     OW 2043   2.082   1.712   2.338
  675SOL    HW1 2044   2.107   1.789   2.389
  675SOL    HW2 2045   2.149   1.707   2.270
  676SOL     OW 2046   2.092   1.439   2.396
  676SOL    HW1 2047   2.075   1.533   2.402
  676SOL    HW2 2048   2.028   1.400   2.456
  677SOL     OW 2049   2.115   1.091   2.753
  677SOL    HW1 2050   2.109   1.005   2.794
  677SOL    HW2 2051   2.056   1.146   2.805
  678SOL     OW 2052   2.455   0.977   1.993
  678SOL    HW1 2053   2.493   1.034   1.925
  678SOL    HW2 2054   2.494   1.008   2.075
  679SOL     OW 2055   1.981   0.644   2.425
  679SOL    HW1 2056   1.934   0.563   2.448
  679SOL    HW2 2057   1.972   0.699   2.502
  680SOL     OW 2058   1.889   1.596   1.987
  680SOL    HW1 2059   1.874   1.504   2.006
  680SOL    HW2 2060   1.865   1.642   2.067
  681SOL     OW 2061   2.471   1.379   2.593
  681SOL    HW1 2062   2.424   1.296   2.600
  681SOL    HW2 2063   2.455   1.408   2.503
  682SOL     OW 2064   2.683   0.013   2.373
  682SOL    HW1 2065   2.706   0.104   2.358
  682SOL    HW2 2066   2.588   0.010   2.363
  683SOL     OW 2067   2.458   0.725   2.126
  683SOL    HW1 2068   2.465   0.804   2.072
  683SOL    HW2 2069   2.391   0.747   2.191
  684SOL     OW 2070   2.892   0.707   2.282
  684SOL    HW1 2071   2.918   0.694   2.373
  684SOL    HW2 2072   2.816   0.651   2.270
  685SOL     OW 2073   1.952   0.819   2.635
  685SOL    HW1 2074   2.032   0.811   2.687
  685SOL    HW2 2075   1.908   0.896   2.671
  686SOL     OW 2076   2.736   0.344   2.051
  686SOL    HW1 2077   2.790   0.405   2.001
  686SOL    HW2 2078   2.775   0.258   2.035
  687SOL     OW 2079   2.415   0.198   2.825
  687SOL    HW1 2080   2.366   0.261   2.876
  687SOL    HW2 2081   2.425   0.239   2.739
  688SOL     OW 2082   2.865   1.442   2.333
  688SOL    HW1 2083   2.828   1.517   2.286
  688SOL    HW2 2084   2.865   1.468   2.425
  689SOL     OW 2085   2.216   1.803   2.715
  689SOL    HW1 2086   2.260   1.719   2.728
  689SOL    HW2 2087   2.284   1.869   2.734
  690SOL     OW 2088   2.185   0.952   2.111
  690SOL    HW1 2089   2.265   0.975   2.063
  690SOL    HW2 2090   2.153   0.874   2.067
  691SOL     OW 2091   2.329   1.739   2.184
  691SOL    HW1 2092   2.369   1.794   2.251
  691SOL    HW2 2093   2.402   1.712   2.128
  692SOL     OW 2094   2.125   1.800   0.102
  692SOL    HW1 2095   2.166   1.730   0.154
  692SOL    HW2 2096   2.081   1.753   0.030
  693SOL     OW 2097   2.795   1.698   2.759
  693SOL    HW1 2098   2.861   1.638   2.794
  693SOL    HW2 2099   2.754   1.650   2.688
  694SOL     OW 2100   2.255   0.692   2.341
  694SOL    HW1 2101   2.284   0.602   2.353
  694SOL    HW2 2102   2.161   0.690   2.361
  695SOL     OW 2103   2.486   0.123   1.974
  695SOL    HW1 2104   2.575   0.087   1.971
  695SOL    HW2 2105   2.449   0.101   1.888
  696SOL     OW 2106   2.662   1.404   2.789
  696SOL    HW1 2107   2.748   1.395   2.748
  696SOL    HW2 2108   2.600   1.396   2.716
  697SOL     OW 2109   2.783   0.518   2.756
  697SOL    HW1 2110   2.757   0.494   2.667
  697SOL    HW2 2111   2.814   0.436   2.794
  698SOL     OW 2112   2.405   0.059   2.364
  698SOL    HW1 2113   2.318   0.043   2.400
  698SOL    HW2 2114   2.393   0.132   2.303
  699SOL     OW 2115   2.152   0.036   2.057
  699SOL    HW1 2116   2.197   0.110   2.017
  699SOL    HW2 2117   2.223   2.976   2.081
  700SOL     OW 2118   2.814   0.251   2.324
  700SOL    HW1 2119   2.762   0.290   2.254
  700SOL    HW2 2120   2.892   0.218   2.280
  701SOL     OW 2121   0.083   1.577   2.661
  701SOL    HW1 2122   0.113   1.623   2.582
  701SOL    HW2 2123   0.164   1.556   2.708
  702SOL     OW 2124   2.328   1.145   2.599
  702SOL    HW1 2125   2.256   1.129   2.661
  702SOL    HW2 2126   2.290   1.128   2.513
  703SOL     OW 2127   2.889   0.552   1.875
  703SOL    HW1 2128   2.842   0.633   1.856
  703SOL    HW2 2129   2.939   0.571   1.955
  704SOL     OW 2130   2.744   0.467   2.494
  704SOL    HW1 2131   2.679   0.518   2.446
  704SOL    HW2 2132   2.740   0.380   2.454
  705SOL     OW 2133   2.860   0.053   2.620
  705SOL    HW1 2134   2.822   0.051   2.532
  705SOL    HW2 2135   2.839   2.967   2.657
  706SOL     OW 2136   2.355   1.411   2.025
  706SOL    HW1 2137   2.279   1.382   2.076
  706SOL    HW2 2138   2.330   1.395   1.934
  707SOL     OW 2139   2.394   0.266   2.184
  707SOL    HW1 2140   2.427   0.211   2.112
  707SOL    HW2 2141   2.372   0.349   2.143
  708SOL     OW 2142   2.569   1.060   2.234
  708SOL    HW1 2143   2.554   1.047   2.327
  708SOL    HW2 2144   2.647   1.008   2.214
  709SOL     OW 2145   2.219   1.105   2.354
  709SOL    HW1 2146   2.219   1.180   2.294
  709SOL    HW2 2147   2.216   1.028   2.297
  710SOL     OW 2148   2.416   0.541   2.728
  710SOL    HW1 2149   2.434   0.593   2.650
  710SOL    HW2 2150   2.480   0.572   2.793
  711SOL     OW 2151   2.437   0.870   2.880
  711SOL    HW1 2152   2.480   0.952   2.857
  711SOL    HW2 2153   2.413   0.880   2.972
  712SOL     OW 2154   0.057   0.531   2.134
  712SOL    HW1 2155   0.083   0.454   2.183
  712SOL    HW2 2156   0.026   0.593   2.201
  713SOL     OW 2157   2.596   0.645   2.919
  713SOL    HW1 2158   2.660   0.619   2.852
  713SOL    HW2 2159   2.561   0.728   2.887
  714SOL     OW 2160   2.173   0.060   2.505
  714SOL    HW1 2161   2.163   0.151   2.533
  714SOL    HW2 2162   2.151   0.009   2.583
  715SOL     OW 2163   2.874   0.776   2.830
  715SOL    HW1 2164   2.885   0.769   2.925
  715SOL    HW2 2165   2.867   0.685   2.800
  716SOL     OW 2166   2.907   1.343   2.698
  716SOL    HW1 2167   2.913   1.268   2.639
  716SOL    HW2 2168   2.977   1.402   2.669
  717SOL     OW 2169   2.171   0.811   2.812
  717SOL    HW1 2170   2.264   0.832   2.808
  717SOL    HW2 2171   2.168   0.720   2.842
  718SOL     OW 2172   2.186   0.532   2.869
  718SOL    HW1 2173   2.151   0.443   2.863
  718SOL    HW2 2174   2.264   0.530   2.813
  719SOL     OW 2175   1.866   1.323   2.056
  719SOL    HW1 2176   1.776   1.337   2.027
  719SOL    HW2 2177   1.867   1.232   2.088
  720SOL     OW 2178   1.952   1.796   2.795
  720SOL    HW1 2179   1.920   1.713   2.759
  720SOL    HW2 2180   2.043   1.801   2.766
  721SOL     OW 2181   2.366   1.576   2.765
  721SOL    HW1 2182   2.437   1.637   2.786
  721SOL    HW2 2183   2.408   1.507   2.714
  722SOL     OW 2184   2.849   0.759   0.103
  722SOL    HW1 2185   2.888   0.743   0.189
  722SOL    HW2 2186   2.756   0.771   0.121
  723SOL     OW 2187   2.672   0.566   2.213
  723SOL    HW1 2188   2.671   0.489   2.155
  723SOL    HW2 2189   2.596   0.618   2.184
  724SOL     OW 2190   2.563   0.439   0.088
  724SOL    HW1 2191   2.469   0.427   0.101
  724SOL    HW2 2192   2.569   0.518   0.033
  725SOL     OW 2193   2.331   0.495   2.051
  725SOL    HW1 2194   2.386   0.570   2.070
  725SOL    HW2 2195   2.243   0.531   2.040
  726SOL     OW 2196   1.943   1.267   2.885
  726SOL    HW1 2197   1.930   1.274   2.980
  726SOL    HW2 2198   1.869   1.214   2.855
  727SOL     OW 2199   2.533   1.617   2.016
  727SOL    HW1 2200   2.541   1.627   1.922
  727SOL    HW2 2201   2.481   1.537   2.028
  728SOL     OW 2202   2.134   0.335   2.615
  728SOL    HW1 2203   2.047   0.367   2.590
  728SOL    HW2 2204   2.125   0.311   2.707
  729SOL     OW 2205   2.784   0.920   2.156
  729SOL    HW1 2206   2.834   0.930   2.075
  729SOL    HW2 2207   2.819   0.840   2.195
  730SOL     OW 2208   2.912   1.080   2.584
  730SOL    HW1 2209   2.832   1.039   2.618
  730SOL    HW2 2210   2.932   1.029   2.505
  731SOL     OW 2211   2.879   0.236   2.822
  731SOL    HW1 2212   2.874   0.191   2.738
  731SOL    HW2 2213   2.878   0.166   2.887
  732SOL     OW 2214   2.461   1.488   2.343
  732SOL    HW1 2215   2.502   1.438   2.273
  732SOL    HW2 2216   2.397   1.545   2.299
  733SOL     OW 2217   2.120   1.347   2.149
  733SOL    HW1 2218   2.027   1.345   2.126
  733SOL    HW2 2219   2.123   1.384   2.237
  734SOL     OW 2220   1.940   0.338   1.899
  734SOL    HW1 2221   1.851   0.317   1.871
  734SOL    HW2 2222   1.965   0.412   1.844
  735SOL     OW 2223   1.903   0.205   2.163
  735SOL    HW1 2224   1.921   0.265   2.091
  735SOL    HW2 2225   1.974   0.141   2.160
  736SOL     OW 2226   2.457   0.741   2.527
  736SOL    HW1 2227   2.494   0.828   2.510
  736SOL    HW2 2228   2.384   0.734   2.465
  737SOL     OW 2229   2.731   1.370   1.896
  737SOL    HW1 2230   2.681   1.401   1.971
  737SOL    HW2 2231   2.748   1.448   1.844
  738SOL     OW 2232   2.525   1.798   2.823
  738SOL    HW1 2233   2.503   1.885   2.788
  738SOL    HW2 2234   2.618   1.788   2.805
  739SOL     OW 2235   2.712   0.960   2.719
  739SOL    HW1 2236   2.767   0.892   2.759
  739SOL    HW2 2237   2.688   1.017   2.792
  740SOL     OW 2238   2.935   0.952   1.932
  740SOL    HW1 2239   2.908   1.028   1.881
  740SOL    HW2 2240   0.027   0.967   1.951
  741SOL     OW 2241   1.945   1.239   2.526
  741SOL    HW1 2242   1.944   1.184   2.605
  741SOL    HW2 2243   2.013   1.200   2.471
  742SOL     OW 2244   2.330   0.430   2.406
  742SOL    HW1 2245   2.320   0.373   2.331
  742SOL    HW2 2246   2.263   0.401   2.468
  743SOL     OW 2247   2.683   1.581   2.539
  743SOL    HW1 2248   2.685   1.616   2.450
  743SOL    HW2 2249   2.604   1.527   2.542
  744SOL     OW 2250   2.634   1.332   2.172
  744SOL    HW1 2251   2.602   1.243   2.180
  744SOL    HW2 2252   2.715   1.334   2.223
  745SOL     OW 2253   1.906   1.075   2.167
  745SOL    HW1 2254   1.999   1.064   2.150
  745SOL    HW2 2255   1.875   0.987   2.190
  746SOL     OW 2256   2.737   1.645   2.210
  746SOL    HW1 2257   2.668   1.631   2.145
  746SOL    HW2 2258   2.712   1.726   2.254
  747SOL     OW 2259   2.088   2.501   0.112
  747SOL    HW1 2260   1.999   2.477   0.136
  747SOL    HW2 2261   2.104   2.458   0.028
  748SOL     OW 2262   2.086   2.141   0.991
  748SOL    HW1 2263   2.115   2.110   1.077
  748SOL    HW2 2264   1.997   2.108   0.982
  749SOL     OW 2265   1.869   2.245   0.639
  749SOL    HW1 2266   1.785   2.265   0.680
  749SOL    HW2 2267   1.853   2.166   0.588
  750SOL     OW 2268   2.601   0.002   1.023
  750SOL    HW1 2269   2.529   0.046   1.069
  750SOL    HW2 2270   2.646   0.072   0.976
  751SOL     OW 2271   2.719   2.641   1.818
  751SOL    HW1 2272   2.718   2.702   1.891
  751SOL    HW2 2273   2.749   2.693   1.743
  752SOL     OW 2274   2.516   2.847   0.705
  752SOL    HW1 2275   2.609   2.855   0.725
  752SOL    HW2 2276   2.490   2.934   0.675
  753SOL     OW 2277   2.308   2.261   1.492
  753SOL    HW1 2278   2.383   2.201   1.495
  753SOL    HW2 2279   2.232   2.205   1.503
  754SOL     OW 2280   2.107   0.306   0.484
  754SOL    HW1 2281   2.061   0.387   0.505
  754SOL    HW2 2282   2.046   0.236   0.508
  755SOL     OW 2283   2.108   2.950   0.883
  755SOL    HW1 2284   2.123   2.863   0.921
  755SOL    HW2 2285   2.058   2.996   0.950
  756SOL     OW 2286   2.477   2.832   0.146
  756SOL    HW1 2287   2.464   2.924   0.123
  756SOL    HW2 2288   2.539   2.833   0.219
  757SOL     OW 2289   1.977   2.509   0.561
  757SOL    HW1 2290   1.948   2.420   0.582
  757SOL    HW2 2291   1.969   2.558   0.643
  758SOL     OW 2292   1.984   2.604   1.585
  758SOL    HW1 2293   2.076   2.619   1.606
  758SOL    HW2 2294   1.941   2.688   1.603
  759SOL     OW 2295   2.523   0.244   0.679
  759SOL    HW1 2296   2.465   0.180   0.720
  759SOL    HW2 2297   2.465   0.298   0.626
  760SOL     OW 2298   2.673   1.863   0.504
  760SOL    HW1 2299   2.711   1.950   0.493
  760SOL    HW2 2300   2.580   1.879   0.515
  761SOL     OW 2301   2.057   2.841   1.256
  761SOL    HW1 2302   2.139   2.792   1.249
  761SOL    HW2 2303   1.989   2.777   1.234
  762SOL     OW 2304   2.192   2.114   1.808
  762SOL    HW1 2305   2.238   2.197   1.821
  762SOL    HW2 2306   2.103   2.130   1.839
  763SOL     OW 2307   2.454   2.581   0.267
  763SOL    HW1 2308   2.465   2.661   0.215
  763SOL    HW2 2309   2.390   2.604   0.334
  764SOL     OW 2310   2.654   2.487   1.453
  764SOL    HW1 2311   2.629   2.462   1.542
  764SOL    HW2 2312   2.615   2.420   1.397
  765SOL     OW 2313   2.830   2.748   1.579
  765SOL    HW1 2314   2.859   2.663   1.547
  765SOL    HW2 2315   2.777   2.784   1.508
  766SOL     OW 2316   2.847   2.241   1.257
  766SOL    HW1 2317   2.771   2.290   1.288
  766SOL    HW2 2318   2.832   2.230   1.163
  767SOL     OW 2319   2.889   2.579   0.412
  767SOL    HW1 2320   2.926   2.563   0.499
  767SOL    HW2 2321   2.816   2.518   0.406
  768SOL     OW 2322   1.947   2.681   0.777
  768SOL    HW1 2323   2.031   2.671   0.821
  768SOL    HW2 2324   1.912   2.764   0.810
  769SOL     OW 2325   2.790   2.194   0.217
  769SOL    HW1 2326   2.782   2.262   0.150
  769SOL    HW2 2327   2.756   2.115   0.175
  770SOL     OW 2328   2.410   2.047   0.891
  770SOL    HW1 2329   2.413   2.072   0.984
  770SOL    HW2 2330   2.413   2.131   0.845
  771SOL     OW 2331   2.062   2.147   1.501
  771SOL    HW1 2332   1.978   2.193   1.496
  771SOL    HW2 2333   2.047   2.077   1.564
  772SOL     OW 2334   2.249   2.556   0.475
  772SOL    HW1 2335   2.275   2.465   0.484
  772SOL    HW2 2336   2.156   2.557   0.497
  773SOL     OW 2337   2.486   1.983   0.114
  773SOL    HW1 2338   2.579   1.964   0.118
  773SOL    HW2 2339   2.455   1.939   0.035
  774SOL     OW 2340   2.633   2.142   1.755
  774SOL    HW1 2341   2.701   2.076   1.768
  774SOL    HW2 2342   2.571   2.127   1.826
  775SOL     OW 2343   2.787   2.367   0.903
  775SOL    HW1 2344   2.760   2.355   0.812
  775SOL    HW2 2345   2.825   2.282   0.928
  776SOL     OW 2346   2.409   1.924   0.506
  776SOL    HW1 2347   2.329   1.926   0.558
  776SOL    HW2 2348   2.404   2.001   0.451
  777SOL     OW 2349   2.808   2.101   0.467
  777SOL    HW1 2350   2.773   2.148   0.391
  777SOL    HW2 2351   2.895   2.074   0.440
  778SOL     OW 2352   2.887   2.382   0.029
  778SOL    HW1 2353   2.845   2.465   0.008
  778SOL    HW2 2354   2.944   2.402   0.103
  779SOL     OW 2355   1.937   2.419   1.389
  779SOL    HW1 2356   2.029   2.415   1.362
  779SOL    HW2 2357   1.935   2.488   1.455
  780SOL     OW 2358   2.424   2.088   1.163
  780SOL    HW1 2359   2.461   2.008   1.198
  780SOL    HW2 2360   2.333   2.088   1.192
  781SOL     OW 2361   2.742   2.320   0.636
  781SOL    HW1 2362   2.685   2.379   0.586
  781SOL    HW2 2363   2.744   2.239   0.584
  782SOL     OW 2364   2.859   1.922   0.756
  782SOL    HW1 2365   2.811   1.902   0.676
  782SOL    HW2 2366   2.852   1.843   0.809
  783SOL     OW 2367   2.381   2.122   0.324
  783SOL    HW1 2368   2.420   2.073   0.252
  783SOL    HW2 2369   2.367   2.210   0.289
  784SOL     OW 2370   2.757   1.950   1.392
  784SOL    HW1 2371   2.781   1.934   1.301
  784SOL    HW2 2372   2.833   1.993   1.431
  785SOL     OW 2373   2.275   2.677   1.254
  785SOL    HW1 2374   2.347   2.684   1.317
  785SOL    HW2 2375   2.241   2.589   1.266
  786SOL     OW 2376   2.419   2.399   0.861
  786SOL    HW1 2377   2.435   2.456   0.786
  786SOL    HW2 2378   2.482   2.429   0.928
  787SOL     OW 2379   2.275   2.604   1.603
  787SOL    HW1 2380   2.336   2.649   1.544
  787SOL    HW2 2381   2.314   2.518   1.618
  788SOL     OW 2382   2.858   1.987   1.771
  788SOL    HW1 2383   2.897   2.043   1.705
  788SOL    HW2 2384   2.899   1.902   1.759
  789SOL     OW 2385   2.362   1.908   1.745
  789SOL    HW1 2386   2.321   1.852   1.679
  789SOL    HW2 2387   2.298   1.979   1.758
  790SOL     OW 2388   2.449   2.730   1.035
  790SOL    HW1 2389   2.467   2.822   1.017
  790SOL    HW2 2390   2.386   2.731   1.107
  791SOL     OW 2391   0.063   2.398   0.273
  791SOL    HW1 2392   0.079   2.318   0.322
  791SOL    HW2 2393   0.034   2.461   0.339
  792SOL     OW 2394   2.164   2.065   1.245
  792SOL    HW1 2395   2.127   2.096   1.327
  792SOL    HW2 2396   2.146   1.971   1.245
  793SOL     OW 2397   2.589   2.493   1.061
  793SOL    HW1 2398   2.665   2.479   1.004
  793SOL    HW2 2399   2.561   2.582   1.041
  794SOL     OW 2400   2.162   1.929   0.622
  794SOL    HW1 2401   2.146   2.019   0.649
  794SOL    HW2 2402   2.169   1.880   0.704
  795SOL     OW 2403   2.858   2.626   0.982
  795SOL    HW1 2404   2.908   2.623   1.063
  795SOL    HW2 2405   2.865   2.537   0.946
  796SOL     OW 2406   2.222   2.786   1.801
  796SOL    HW1 2407   2.290   2.781   1.868
  796SOL    HW2 2408   2.243   2.716   1.739
  797SOL     OW 2409   2.174   2.675   0.949
  797SOL    HW1 2410   2.267   2.692   0.937
  797SOL    HW2 2411   2.170   2.586   0.984
  798SOL     OW 2412   2.195   2.385   1.010
  798SOL    HW1 2413   2.160   2.297   0.994
  798SOL    HW2 2414   2.272   2.390   0.952
  799SOL     OW 2415   2.970   2.242   1.666
  799SOL    HW1 2416   2.914   2.302   1.716
  799SOL    HW2 2417   0.058   2.280   1.672
  800SOL     OW 2418   2.980   2.062   1.471
  800SOL    HW1 2419   2.966   2.134   1.534
  800SOL    HW2 2420   2.987   2.106   1.386
  801SOL     OW 2421   2.859   2.668   1.263
  801SOL    HW1 2422   2.907   2.600   1.309
  801SOL    HW2 2423   2.777   2.625   1.237
  802SOL     OW 2424   1.898   2.407   1.116
  802SOL    HW1 2425   1.978   2.385   1.069
  802SOL    HW2 2426   1.924   2.412   1.208
  803SOL     OW 2427   2.052   2.380   1.724
  803SOL    HW1 2428   2.108   2.342   1.655
  803SOL    HW2 2429   2.003   2.449   1.680
  804SOL     OW 2430   2.671   2.427   0.354
  804SOL    HW1 2431   2.673   2.358   0.289
  804SOL    HW2 2432   2.596   2.482   0.329
  805SOL     OW 2433   2.555   2.318   1.265
  805SOL    HW1 2434   2.507   2.242   1.233
  805SOL    HW2 2435   2.555   2.379   1.190
  806SOL     OW 2436   2.305   2.356   0.208
  806SOL    HW1 2437   2.373   2.423   0.221
  806SOL    HW2 2438   2.226   2.406   0.188
  807SOL     OW 2439   2.019   2.996   1.473
  807SOL    HW1 2440   2.024   2.939   1.550
  807SOL    HW2 2441   2.034   2.939   1.398
  808SOL     OW 2442   2.761   1.935   0.125
  808SOL    HW1 2443   2.820   1.913   0.053
  808SOL    HW2 2444   2.804   1.899   0.203
  809SOL     OW 2445   2.127   2.179   0.719
  809SOL    HW1 2446   2.043   2.217   0.693
  809SOL    HW2 2447   2.121   2.169   0.814
  810SOL     OW 2448   2.673   2.866   1.374
  810SOL    HW1 2449   2.728   2.843   1.300
  810SOL    HW2 2450   2.699   2.955   1.398
  811SOL     OW 2451   2.747   2.782   0.287
  811SOL    HW1 2452   2.826   2.833   0.266
  811SOL    HW2 2453   2.776   2.720   0.354
  812SOL     OW 2454   2.879   2.103   0.967
  812SOL    HW1 2455   2.875   2.053   0.885
  812SOL    HW2 2456   2.869   2.037   1.035
  813SOL     OW 2457   1.974   2.864   1.709
  813SOL    HW1 2458   1.898   2.856   1.768
  813SOL    HW2 2459   2.049   2.845   1.765
  814SOL     OW 2460   2.528   2.061   1.499
  814SOL    HW1 2461   2.609   2.041   1.453
  814SOL    HW2 2462   2.556   2.088   1.587
  815SOL     OW 2463   1.938   2.020   0.340
  815SOL    HW1 2464   1.902   2.069   0.266
  815SOL    HW2 2465   2.027   1.997   0.314
  816SOL     OW 2466   2.475   2.693   1.433
  816SOL    HW1 2467   2.532   2.768   1.417
  816SOL    HW2 2468   2.535   2.619   1.441
  817SOL     OW 2469   2.578   2.426   1.704
  817SOL    HW1 2470   2.610   2.491   1.766
  817SOL    HW2 2471   2.614   2.343   1.735
  818SOL     OW 2472   2.456   2.587   0.660
  818SOL    HW1 2473   2.483   2.679   0.669
  818SOL    HW2 2474   2.383   2.590   0.597
  819SOL     OW 2475   2.749   2.836   0.861
  819SOL    HW1 2476   2.779   2.752   0.897
  819SOL    HW2 2477   2.683   2.867   0.923
  820SOL     OW 2478   2.292   2.295   0.527
  820SOL    HW1 2479   2.320   2.224   0.469
  820SOL    HW2 2480   2.246   2.251   0.598
  821SOL     OW 2481   2.189   2.414   1.290
  821SOL    HW1 2482   2.243   2.359   1.346
  821SOL    HW2 2483   2.211   2.386   1.201
  822SOL     OW 2484   2.866   1.881   1.147
  822SOL    HW1 2485   2.813   1.813   1.107
  822SOL    HW2 2486   2.956   1.857   1.124
  823SOL     OW 2487   1.874   2.919   0.305
  823SOL    HW1 2488   1.959   2.922   0.262
  823SOL    HW2 2489   1.866   2.829   0.337
  824SOL     OW 2490   2.094   2.473   1.982
  824SOL    HW1 2491   2.005   2.490   2.014
  824SOL    HW2 2492   2.083   2.452   1.889
  825SOL     OW 2493   2.089   2.141   2.846
  825SOL    HW1 2494   2.117   2.115   2.934
  825SOL    HW2 2495   2.000   2.109   2.838
  826SOL     OW 2496   1.870   2.244   2.499
  826SOL    HW1 2497   1.787   2.268   2.539
  826SOL    HW2 2498   1.851   2.163   2.452
  827SOL     OW 2499   2.639   0.016   2.881
  827SOL    HW1 2500   2.549   0.024   2.913
  827SOL    HW2 2501   2.651   0.091   2.823
  828SOL     OW 2502   2.515   2.844   2.560
  828SOL    HW1 2503   2.605   2.850   2.591
  828SOL    HW2 2504   2.491   2.935   2.540
  829SOL     OW 2505   2.098   0.301   2.340
  829SOL    HW1 2506   2.058   0.384   2.363
  829SOL    HW2 2507   2.042   0.234   2.380
  830SOL     OW 2508   2.111   2.953   2.749
  830SOL    HW1 2509   2.123   2.864   2.783
  830SOL    HW2 2510   2.055   2.995   2.814
  831SOL     OW 2511   2.466   2.825   1.994
  831SOL    HW1 2512   2.462   2.907   1.945
  831SOL    HW2 2513   2.528   2.841   2.065
  832SOL     OW 2514   1.978   2.509   2.423
  832SOL    HW1 2515   1.948   2.421   2.445
  832SOL    HW2 2516   1.969   2.558   2.505
  833SOL     OW 2517   2.506   0.247   2.561
  833SOL    HW1 2518   2.459   0.163   2.558
  833SOL    HW2 2519   2.465   0.300   2.493
  834SOL     OW 2520   2.673   1.863   2.365
  834SOL    HW1 2521   2.712   1.949   2.354
  834SOL    HW2 2522   2.580   1.880   2.378
  835SOL     OW 2523   2.061   2.808   0.115
  835SOL    HW1 2524   2.131   2.743   0.106
  835SOL    HW2 2525   1.981   2.760   0.093
  836SOL     OW 2526   2.458   2.581   2.127
  836SOL    HW1 2527   2.466   2.659   2.072
  836SOL    HW2 2528   2.393   2.605   2.193
  837SOL     OW 2529   2.896   2.577   2.276
  837SOL    HW1 2530   2.924   2.567   2.367
  837SOL    HW2 2531   2.818   2.523   2.268
  838SOL     OW 2532   1.947   2.682   2.638
  838SOL    HW1 2533   2.030   2.670   2.685
  838SOL    HW2 2534   1.910   2.763   2.675
  839SOL     OW 2535   2.748   2.204   2.061
  839SOL    HW1 2536   2.787   2.267   2.000
  839SOL    HW2 2537   2.755   2.120   2.016
  840SOL     OW 2538   2.413   2.049   2.763
  840SOL    HW1 2539   2.383   2.082   2.848
  840SOL    HW2 2540   2.419   2.127   2.709
  841SOL     OW 2541   2.249   2.556   2.337
  841SOL    HW1 2542   2.275   2.465   2.347
  841SOL    HW2 2543   2.156   2.557   2.359
  842SOL     OW 2544   2.493   1.989   1.967
  842SOL    HW1 2545   2.563   1.926   1.981
  842SOL    HW2 2546   2.445   1.956   1.891
  843SOL     OW 2547   2.785   2.376   2.757
  843SOL    HW1 2548   2.760   2.354   2.667
  843SOL    HW2 2549   2.814   2.293   2.795
  844SOL     OW 2550   2.409   1.925   2.369
  844SOL    HW1 2551   2.328   1.926   2.419
  844SOL    HW2 2552   2.404   2.004   2.314
  845SOL     OW 2553   2.154   1.908   2.046
  845SOL    HW1 2554   2.211   1.974   2.007
  845SOL    HW2 2555   2.213   1.844   2.085
  846SOL     OW 2556   2.803   2.103   2.321
  846SOL    HW1 2557   2.765   2.148   2.246
  846SOL    HW2 2558   2.891   2.078   2.291
  847SOL     OW 2559   2.889   2.415   1.876
  847SOL    HW1 2560   2.841   2.495   1.855
  847SOL    HW2 2561   2.936   2.435   1.956
  848SOL     OW 2562   2.742   2.318   2.495
  848SOL    HW1 2563   2.684   2.378   2.448
  848SOL    HW2 2564   2.742   2.238   2.443
  849SOL     OW 2565   2.857   1.924   2.612
  849SOL    HW1 2566   2.808   1.897   2.535
  849SOL    HW2 2567   2.854   1.848   2.670
  850SOL     OW 2568   2.390   2.124   2.184
  850SOL    HW1 2569   2.427   2.075   2.111
  850SOL    HW2 2570   2.371   2.210   2.147
  851SOL     OW 2571   2.419   2.395   2.724
  851SOL    HW1 2572   2.433   2.453   2.649
  851SOL    HW2 2573   2.477   2.429   2.792
  852SOL     OW 2574   2.433   2.729   2.884
  852SOL    HW1 2575   2.481   2.807   2.857
  852SOL    HW2 2576   2.418   2.740   2.978
  853SOL     OW 2577   0.056   2.391   2.138
  853SOL    HW1 2578   0.088   2.317   2.190
  853SOL    HW2 2579   0.020   2.452   2.202
  854SOL     OW 2580   2.159   2.070   0.092
  854SOL    HW1 2581   2.185   2.102   0.178
  854SOL    HW2 2582   2.153   1.975   0.103
  855SOL     OW 2583   2.591   2.500   2.915
  855SOL    HW1 2584   2.662   2.480   2.854
  855SOL    HW2 2585   2.561   2.587   2.889
  856SOL     OW 2586   2.163   1.929   2.484
  856SOL    HW1 2587   2.146   2.019   2.510
  856SOL    HW2 2588   2.167   1.880   2.566
  857SOL     OW 2589   2.870   2.633   2.825
  857SOL    HW1 2590   2.895   2.635   2.918
  857SOL    HW2 2591   2.868   2.540   2.803
  858SOL     OW 2592   2.171   2.673   2.810
  858SOL    HW1 2593   2.264   2.694   2.811
  858SOL    HW2 2594   2.167   2.582   2.840
  859SOL     OW 2595   2.186   2.394   2.865
  859SOL    HW1 2596   2.150   2.306   2.858
  859SOL    HW2 2597   2.266   2.392   2.813
  860SOL     OW 2598   2.876   2.641   0.095
  860SOL    HW1 2599   2.914   2.633   0.182
  860SOL    HW2 2600   2.785   2.666   0.111
  861SOL     OW 2601   2.675   2.429   2.216
  861SOL    HW1 2602   2.673   2.353   2.157
  861SOL    HW2 2603   2.600   2.482   2.188
  862SOL     OW 2604   2.567   2.308   0.102
  862SOL    HW1 2605   2.481   2.269   0.091
  862SOL    HW2 2606   2.569   2.380   0.039
  863SOL     OW 2607   2.332   2.354   2.051
  863SOL    HW1 2608   2.386   2.430   2.072
  863SOL    HW2 2609   2.244   2.390   2.039
  864SOL     OW 2610   0.165   2.704   2.165
  864SOL    HW1 2611   0.103   2.649   2.213
  864SOL    HW2 2612   0.192   2.650   2.091
  865SOL     OW 2613   2.128   2.180   2.579
  865SOL    HW1 2614   2.043   2.217   2.553
  865SOL    HW2 2615   2.122   2.171   2.674
  866SOL     OW 2616   2.760   2.763   2.116
  866SOL    HW1 2617   2.836   2.813   2.088
  866SOL    HW2 2618   2.794   2.705   2.185
  867SOL     OW 2619   2.876   2.100   2.821
  867SOL    HW1 2620   2.873   2.057   2.735
  867SOL    HW2 2621   2.892   2.029   2.883
  868SOL     OW 2622   1.938   2.199   1.898
  868SOL    HW1 2623   1.852   2.178   1.862
  868SOL    HW2 2624   1.968   2.274   1.846
  869SOL     OW 2625   1.933   2.021   2.176
  869SOL    HW1 2626   1.918   2.100   2.125
  869SOL    HW2 2627   2.018   1.988   2.146
  870SOL     OW 2628   2.457   2.585   2.521
  870SOL    HW1 2629   2.485   2.676   2.529
  870SOL    HW2 2630   2.383   2.588   2.460
  871SOL     OW 2631   2.739   2.832   2.715
  871SOL    HW1 2632   2.782   2.754   2.751
  871SOL    HW2 2633   2.705   2.879   2.791
  872SOL     OW 2634   2.948   2.830   1.901
  872SOL    HW1 2635   2.916   2.920   1.908
  872SOL    HW2 2636   0.012   2.822   1.971
  873SOL     OW 2637   2.293   2.294   2.387
  873SOL    HW1 2638   2.318   2.222   2.329
  873SOL    HW2 2639   2.245   2.253   2.458
  874SOL     OW 2640   1.886   2.920   2.173
  874SOL    HW1 2641   1.973   2.929   2.133
  874SOL    HW2 2642   1.880   2.827   2.195
   3.00000   3.00000   3.00000
