UNNAMED in water
 2650
    1ALA      N    1   1.358   1.491   1.519
    1ALA     H1    2   1.311   1.501   1.428
    1ALA     H2    3   1.326   1.403   1.566
    1ALA     H3    4   1.335   1.571   1.582
    1ALA     CA    5   1.507   1.485   1.507
    1ALA     HA    6   1.532   1.391   1.460
    1ALA     CB    7   1.557   1.602   1.420
    1ALA    HB1    8   1.668   1.600   1.414
    1ALA    HB2    9   1.518   1.597   1.316
    1ALA    HB3   10   1.528   1.700   1.464
    1ALA      C   11   1.577   1.482   1.644
    1ALA    OT1   12   1.509   1.490   1.748
    1ALA    OT2   13   1.703   1.464   1.646
    2SOL     OW   14   0.241   0.663   0.109
    2SOL    HW1   15   0.171   0.617   0.156
    2SOL    HW2   16   0.253   0.614   0.028
    3SOL     OW   17   0.202   0.272   1.002
    3SOL    HW1   18   0.239   0.247   1.087
    3SOL    HW2   19   0.108   0.258   1.012
    4SOL     OW   20   0.008   0.389   0.659
    4SOL    HW1   21   2.925   0.430   0.683
    4SOL    HW2   22   2.983   0.316   0.602
    5SOL     OW   23   0.570   1.286   1.175
    5SOL    HW1   24   0.480   1.283   1.142
    5SOL    HW2   25   0.580   1.375   1.209
    6SOL     OW   26   1.561   1.511   0.705
    6SOL    HW1   27   1.518   1.493   0.789
    6SOL    HW2   28   1.489   1.516   0.642
    7SOL     OW   29   1.131   0.699   0.699
    7SOL    HW1   30   1.180   0.781   0.689
    7SOL    HW2   31   1.082   0.711   0.781
    8SOL     OW   32   1.768   0.591   0.232
    8SOL    HW1   33   1.743   0.582   0.140
    8SOL    HW2   34   1.729   0.516   0.276
    9SOL     OW   35   0.761   1.145   1.042
    9SOL    HW1   36   0.690   1.177   1.097
    9SOL    HW2   37   0.791   1.222   0.995
   10SOL     OW   38   0.864   0.778   1.821
   10SOL    HW1   39   0.854   0.849   1.884
   10SOL    HW2   40   0.889   0.821   1.740
   11SOL     OW   41   0.685   1.004   0.650
   11SOL    HW1   42   0.750   0.992   0.720
   11SOL    HW2   43   0.615   1.055   0.690
   12SOL     OW   44   0.710   1.151   1.811
   12SOL    HW1   45   0.757   1.231   1.837
   12SOL    HW2   46   0.626   1.183   1.776
   13SOL     OW   47   0.332   1.426   1.072
   13SOL    HW1   48   0.266   1.377   1.024
   13SOL    HW2   49   0.381   1.473   1.005
   14SOL     OW   50   0.453   0.404   1.491
   14SOL    HW1   51   0.526   0.342   1.494
   14SOL    HW2   52   0.376   0.349   1.505
   15SOL     OW   53   1.611   0.457   0.736
   15SOL    HW1   54   1.536   0.479   0.681
   15SOL    HW2   55   1.623   0.534   0.792
   16SOL     OW   56   0.217   1.716   0.479
   16SOL    HW1   57   0.237   1.798   0.524
   16SOL    HW2   58   0.289   1.704   0.418
   17SOL     OW   59   1.149   1.336   1.686
   17SOL    HW1   60   1.183   1.338   1.776
   17SOL    HW2   61   1.090   1.260   1.684
   18SOL     OW   62   0.252   1.451   0.529
   18SOL    HW1   63   0.214   1.538   0.523
   18SOL    HW2   64   0.192   1.402   0.585
   19SOL     OW   65   0.264   1.082   0.897
   19SOL    HW1   66   0.255   0.994   0.933
   19SOL    HW2   67   0.200   1.134   0.944
   20SOL     OW   68   0.621   1.788   1.437
   20SOL    HW1   69   0.536   1.769   1.476
   20SOL    HW2   70   0.637   1.880   1.457
   21SOL     OW   71   0.587   0.976   0.152
   21SOL    HW1   72   0.600   1.049   0.091
   21SOL    HW2   73   0.628   1.005   0.233
   22SOL     OW   74   1.554   0.147   1.456
   22SOL    HW1   75   1.590   0.224   1.413
   22SOL    HW2   76   1.624   0.113   1.511
   23SOL     OW   77   0.122   0.628   0.569
   23SOL    HW1   78   0.085   0.550   0.611
   23SOL    HW2   79   0.119   0.696   0.637
   24SOL     OW   80   1.845   1.757   0.335
   24SOL    HW1   81   1.906   1.724   0.401
   24SOL    HW2   82   1.868   1.849   0.324
   25SOL     OW   83   0.024   1.601   0.119
   25SOL    HW1   84   0.023   1.506   0.128
   25SOL    HW2   85   2.985   1.633   0.201
   26SOL     OW   86   1.689   0.918   0.640
   26SOL    HW1   87   1.773   0.877   0.619
   26SOL    HW2   88   1.667   0.969   0.562
   27SOL     OW   89   1.647   1.107   0.431
   27SOL    HW1   90   1.733   1.111   0.389
   27SOL    HW2   91   1.653   1.168   0.505
   28SOL     OW   92   0.133   0.748   1.588
   28SOL    HW1   93   0.228   0.761   1.588
   28SOL    HW2   94   0.097   0.836   1.592
   29SOL     OW   95   0.613   1.384   0.736
   29SOL    HW1   96   0.566   1.301   0.745
   29SOL    HW2   97   0.595   1.412   0.646
   30SOL     OW   98   1.298   1.226   1.418
   30SOL    HW1   99   1.313   1.157   1.354
   30SOL    HW2  100   1.344   1.196   1.497
   31SOL     OW  101   0.820   0.014   0.517
   31SOL    HW1  102   0.852   0.102   0.501
   31SOL    HW2  103   0.726   0.018   0.500
   32SOL     OW  104   0.186   0.954   1.277
   32SOL    HW1  105   0.270   0.915   1.254
   32SOL    HW2  106   0.124   0.912   1.217
   33SOL     OW  107   1.506   1.007   0.212
   33SOL    HW1  108   1.440   0.950   0.252
   33SOL    HW2  109   1.559   1.036   0.286
   34SOL     OW  110   1.205   1.789   1.596
   34SOL    HW1  111   1.202   1.871   1.548
   34SOL    HW2  112   1.125   1.743   1.570
   35SOL     OW  113   0.335   0.253   1.797
   35SOL    HW1  114   0.384   0.330   1.825
   35SOL    HW2  115   0.251   0.261   1.841
   36SOL     OW  116   1.470   1.415   0.952
   36SOL    HW1  117   1.399   1.431   1.014
   36SOL    HW2  118   1.456   1.325   0.923
   37SOL     OW  119   1.660   1.738   0.578
   37SOL    HW1  120   1.639   1.709   0.489
   37SOL    HW2  121   1.635   1.664   0.633
   38SOL     OW  122   0.592   0.719   0.268
   38SOL    HW1  123   0.598   0.802   0.222
   38SOL    HW2  124   0.529   0.736   0.339
   39SOL     OW  125   1.286   0.344   0.931
   39SOL    HW1  126   1.194   0.320   0.938
   39SOL    HW2  127   1.330   0.293   0.998
   40SOL     OW  128   1.583   1.667   0.311
   40SOL    HW1  129   1.672   1.700   0.302
   40SOL    HW2  130   1.556   1.647   0.221
   41SOL     OW  131   0.792   0.619   1.454
   41SOL    HW1  132   0.764   0.595   1.542
   41SOL    HW2  133   0.752   0.553   1.397
   42SOL     OW  134   1.396   0.480   1.677
   42SOL    HW1  135   1.399   0.523   1.763
   42SOL    HW2  136   1.452   0.403   1.687
   43SOL     OW  137   0.957   0.888   1.582
   43SOL    HW1  138   1.010   0.817   1.547
   43SOL    HW2  139   0.908   0.920   1.507
   44SOL     OW  140   0.996   0.424   1.228
   44SOL    HW1  141   0.916   0.435   1.280
   44SOL    HW2  142   0.967   0.375   1.151
   45SOL     OW  143   1.050   0.706   0.424
   45SOL    HW1  144   1.067   0.695   0.518
   45SOL    HW2  145   0.969   0.657   0.408
   46SOL     OW  146   0.104   0.816   0.762
   46SOL    HW1  147   0.181   0.814   0.819
   46SOL    HW2  148   0.037   0.863   0.812
   47SOL     OW  149   0.140   1.839   1.571
   47SOL    HW1  150   0.125   1.817   1.663
   47SOL    HW2  151   0.054   1.867   1.539
   48SOL     OW  152   0.929   0.339   0.220
   48SOL    HW1  153   0.937   0.399   0.146
   48SOL    HW2  154   0.878   0.265   0.186
   49SOL     OW  155   1.711   0.575   1.828
   49SOL    HW1  156   1.672   0.651   1.783
   49SOL    HW2  157   1.737   0.516   1.758
   50SOL     OW  158   1.377   1.141   0.541
   50SOL    HW1  159   1.456   1.130   0.488
   50SOL    HW2  160   1.324   1.204   0.492
   51SOL     OW  161   0.511   0.199   0.916
   51SOL    HW1  162   0.536   0.213   1.007
   51SOL    HW2  163   0.549   0.274   0.869
   52SOL     OW  164   1.007   1.448   0.474
   52SOL    HW1  165   0.967   1.518   0.422
   52SOL    HW2  166   0.983   1.468   0.565
   53SOL     OW  167   0.354   1.809   0.857
   53SOL    HW1  168   0.399   1.725   0.869
   53SOL    HW2  169   0.421   1.875   0.877
   54SOL     OW  170   1.802   1.057   0.865
   54SOL    HW1  171   1.748   1.040   0.787
   54SOL    HW2  172   1.739   1.058   0.937
   55SOL     OW  173   0.317   0.947   0.235
   55SOL    HW1  174   0.409   0.955   0.207
   55SOL    HW2  175   0.291   0.860   0.205
   56SOL     OW  176   1.477   0.743   0.728
   56SOL    HW1  177   1.468   0.699   0.812
   56SOL    HW2  178   1.555   0.797   0.737
   57SOL     OW  179   0.467   1.261   1.734
   57SOL    HW1  180   0.439   1.267   1.643
   57SOL    HW2  181   0.386   1.267   1.785
   58SOL     OW  182   1.111   1.775   0.223
   58SOL    HW1  183   1.051   1.728   0.280
   58SOL    HW2  184   1.142   1.710   0.161
   59SOL     OW  185   0.203   0.298   1.495
   59SOL    HW1  186   0.118   0.343   1.492
   59SOL    HW2  187   0.186   0.219   1.546
   60SOL     OW  188   1.626   1.361   0.086
   60SOL    HW1  189   1.600   1.452   0.076
   60SOL    HW2  190   1.544   1.312   0.080
   61SOL     OW  191   0.466   1.721   0.336
   61SOL    HW1  192   0.500   1.791   0.391
   61SOL    HW2  193   0.531   1.711   0.267
   62SOL     OW  194   1.410   0.109   0.437
   62SOL    HW1  195   1.393   0.084   0.346
   62SOL    HW2  196   1.504   0.125   0.441
   63SOL     OW  197   0.269   1.797   1.233
   63SOL    HW1  198   0.303   1.721   1.279
   63SOL    HW2  199   0.224   1.761   1.157
   64SOL     OW  200   0.938   1.698   0.898
   64SOL    HW1  201   1.016   1.646   0.916
   64SOL    HW2  202   0.892   1.649   0.830
   65SOL     OW  203   0.394   0.690   0.474
   65SOL    HW1  204   0.424   0.601   0.493
   65SOL    HW2  205   0.301   0.690   0.496
   66SOL     OW  206   1.537   0.253   1.736
   66SOL    HW1  207   1.538   0.259   1.831
   66SOL    HW2  208   1.487   0.173   1.717
   67SOL     OW  209   0.608   0.111   0.105
   67SOL    HW1  210   0.703   0.108   0.116
   67SOL    HW2  211   0.595   0.151   0.019
   68SOL     OW  212   0.765   0.272   1.749
   68SOL    HW1  213   0.842   0.217   1.762
   68SOL    HW2  214   0.726   0.279   1.837
   69SOL     OW  215   0.879   1.522   1.194
   69SOL    HW1  216   0.861   1.486   1.107
   69SOL    HW2  217   0.948   1.465   1.229
   70SOL     OW  218   1.341   0.589   1.433
   70SOL    HW1  219   1.371   0.556   1.518
   70SOL    HW2  220   1.378   0.677   1.427
   71SOL     OW  221   0.815   1.396   0.938
   71SOL    HW1  222   0.898   1.386   0.891
   71SOL    HW2  223   0.749   1.397   0.869
   72SOL     OW  224   0.928   0.511   0.902
   72SOL    HW1  225   0.906   0.504   0.810
   72SOL    HW2  226   0.958   0.423   0.926
   73SOL     OW  227   0.542   0.047   0.499
   73SOL    HW1  228   0.455   0.038   0.539
   73SOL    HW2  229   0.534   0.122   0.440
   74SOL     OW  230   1.409   1.209   0.049
   74SOL    HW1  231   1.428   1.133   0.105
   74SOL    HW2  232   1.322   1.237   0.075
   75SOL     OW  233   0.297   0.083   0.199
   75SOL    HW1  234   0.383   0.126   0.200
   75SOL    HW2  235   0.317   2.990   0.190
   76SOL     OW  236   0.949   0.253   0.474
   76SOL    HW1  237   0.927   0.289   0.389
   76SOL    HW2  238   1.044   0.264   0.482
   77SOL     OW  239   1.080   0.680   1.459
   77SOL    HW1  240   1.011   0.614   1.465
   77SOL    HW2  241   1.161   0.629   1.452
   78SOL     OW  242   1.226   1.572   0.797
   78SOL    HW1  243   1.236   1.636   0.726
   78SOL    HW2  244   1.298   1.591   0.857
   79SOL     OW  245   0.469   1.149   0.736
   79SOL    HW1  246   0.398   1.129   0.797
   79SOL    HW2  247   0.429   1.136   0.649
   80SOL     OW  248   1.268   1.794   0.606
   80SOL    HW1  249   1.316   1.855   0.550
   80SOL    HW2  250   1.203   1.848   0.651
   81SOL     OW  251   1.048   0.497   0.032
   81SOL    HW1  252   1.005   0.583   0.027
   81SOL    HW2  253   1.115   0.508   0.099
   82SOL     OW  254   0.081   0.567   1.389
   82SOL    HW1  255   0.171   0.561   1.356
   82SOL    HW2  256   0.086   0.631   1.460
   83SOL     OW  257   0.582   0.209   1.182
   83SOL    HW1  258   0.619   0.174   1.263
   83SOL    HW2  259   0.488   0.217   1.199
   84SOL     OW  260   0.877   0.473   0.638
   84SOL    HW1  261   0.821   0.518   0.575
   84SOL    HW2  262   0.885   0.384   0.604
   85SOL     OW  263   0.996   0.059   0.765
   85SOL    HW1  264   0.961   0.067   0.677
   85SOL    HW2  265   0.973   2.970   0.792
   86SOL     OW  266   1.435   1.161   0.856
   86SOL    HW1  267   1.367   1.094   0.852
   86SOL    HW2  268   1.462   1.174   0.765
   87SOL     OW  269   1.468   0.603   0.977
   87SOL    HW1  270   1.415   0.523   0.983
   87SOL    HW2  271   1.527   0.599   1.052
   88SOL     OW  272   1.844   0.815   0.383
   88SOL    HW1  273   1.901   0.760   0.437
   88SOL    HW2  274   1.820   0.759   0.309
   89SOL     OW  275   0.489   1.408   0.151
   89SOL    HW1  276   0.426   1.374   0.214
   89SOL    HW2  277   0.440   1.418   0.070
   90SOL     OW  278   1.669   1.264   0.649
   90SOL    HW1  279   1.764   1.267   0.661
   90SOL    HW2  280   1.640   1.353   0.668
   91SOL     OW  281   1.415   0.573   0.098
   91SOL    HW1  282   1.344   0.568   0.162
   91SOL    HW2  283   1.457   0.488   0.101
   92SOL     OW  284   0.526   0.261   0.324
   92SOL    HW1  285   0.570   0.214   0.253
   92SOL    HW2  286   0.499   0.344   0.285
   93SOL     OW  287   1.748   1.219   1.570
   93SOL    HW1  288   1.842   1.203   1.570
   93SOL    HW2  289   1.738   1.307   1.606
   94SOL     OW  290   1.061   1.351   1.341
   94SOL    HW1  291   0.981   1.326   1.387
   94SOL    HW2  292   1.130   1.300   1.384
   95SOL     OW  293   1.130   1.209   1.102
   95SOL    HW1  294   1.063   1.233   1.166
   95SOL    HW2  295   1.091   1.231   1.017
   96SOL     OW  296   1.626   1.085   1.066
   96SOL    HW1  297   1.623   1.146   1.139
   96SOL    HW2  298   1.548   1.105   1.015
   97SOL     OW  299   0.898   0.112   1.383
   97SOL    HW1  300   0.939   0.093   1.299
   97SOL    HW2  301   0.962   0.166   1.429
   98SOL     OW  302   0.984   1.118   1.719
   98SOL    HW1  303   0.893   1.132   1.743
   98SOL    HW2  304   0.983   1.038   1.666
   99SOL     OW  305   0.705   1.064   0.379
   99SOL    HW1  306   0.690   1.048   0.473
   99SOL    HW2  307   0.785   1.015   0.360
  100SOL     OW  308   0.421   0.813   1.248
  100SOL    HW1  309   0.488   0.824   1.316
  100SOL    HW2  310   0.385   0.726   1.264
  101SOL     OW  311   1.272   0.389   1.259
  101SOL    HW1  312   1.300   0.460   1.316
  101SOL    HW2  313   1.177   0.401   1.250
  102SOL     OW  314   0.067   1.573   1.311
  102SOL    HW1  315   0.025   1.651   1.347
  102SOL    HW2  316   0.155   1.574   1.347
  103SOL     OW  317   0.359   1.113   0.488
  103SOL    HW1  318   0.345   1.185   0.427
  103SOL    HW2  319   0.352   1.034   0.434
  104SOL     OW  320   0.551   0.541   0.862
  104SOL    HW1  321   0.569   0.595   0.785
  104SOL    HW2  322   0.618   0.566   0.926
  105SOL     OW  323   1.247   1.346   0.398
  105SOL    HW1  324   1.303   1.419   0.424
  105SOL    HW2  325   1.160   1.370   0.429
  106SOL     OW  326   1.276   1.446   1.143
  106SOL    HW1  327   1.304   1.413   1.228
  106SOL    HW2  328   1.212   1.381   1.113
  107SOL     OW  329   1.583   0.625   0.480
  107SOL    HW1  330   1.536   0.680   0.542
  107SOL    HW2  331   1.629   0.686   0.423
  108SOL     OW  332   0.349   1.530   1.320
  108SOL    HW1  333   0.331   1.488   1.236
  108SOL    HW2  334   0.444   1.540   1.322
  109SOL     OW  335   0.414   0.740   1.602
  109SOL    HW1  336   0.470   0.789   1.543
  109SOL    HW2  337   0.461   0.658   1.618
  110SOL     OW  338   1.601   0.777   1.682
  110SOL    HW1  339   1.514   0.815   1.675
  110SOL    HW2  340   1.652   0.821   1.614
  111SOL     OW  341   1.006   0.114   1.761
  111SOL    HW1  342   1.051   0.195   1.737
  111SOL    HW2  343   1.023   0.055   1.687
  112SOL     OW  344   0.505   0.050   1.750
  112SOL    HW1  345   0.470   2.987   1.688
  112SOL    HW2  346   0.437   0.117   1.756
  113SOL     OW  347   0.586   0.872   1.032
  113SOL    HW1  348   0.609   0.964   1.028
  113SOL    HW2  349   0.527   0.864   1.107
  114SOL     OW  350   1.358   0.857   1.028
  114SOL    HW1  351   1.275   0.845   0.982
  114SOL    HW2  352   1.399   0.771   1.026
  115SOL     OW  353   1.204   0.530   0.270
  115SOL    HW1  354   1.214   0.450   0.322
  115SOL    HW2  355   1.160   0.592   0.329
  116SOL     OW  356   0.326   0.206   1.250
  116SOL    HW1  357   0.292   0.253   1.327
  116SOL    HW2  358   0.274   0.126   1.246
  117SOL     OW  359   0.030   1.305   1.278
  117SOL    HW1  360   0.064   1.259   1.355
  117SOL    HW2  361   0.041   1.398   1.299
  118SOL     OW  362   0.725   0.631   1.058
  118SOL    HW1  363   0.799   0.615   1.000
  118SOL    HW2  364   0.697   0.720   1.037
  119SOL     OW  365   1.735   0.959   1.853
  119SOL    HW1  366   1.688   0.900   1.794
  119SOL    HW2  367   1.675   0.973   1.926
  120SOL     OW  368   0.309   0.073   0.642
  120SOL    HW1  369   0.304   0.158   0.686
  120SOL    HW2  370   0.282   0.010   0.710
  121SOL     OW  371   1.618   0.375   0.365
  121SOL    HW1  372   1.647   0.310   0.429
  121SOL    HW2  373   1.592   0.451   0.418
  122SOL     OW  374   1.028   0.759   0.962
  122SOL    HW1  375   1.025   0.776   1.056
  122SOL    HW2  376   1.001   0.668   0.953
  123SOL     OW  377   0.998   1.568   1.708
  123SOL    HW1  378   0.967   1.604   1.625
  123SOL    HW2  379   1.031   1.481   1.686
  124SOL     OW  380   0.357   0.916   1.808
  124SOL    HW1  381   0.438   0.934   1.856
  124SOL    HW2  382   0.382   0.851   1.743
  125SOL     OW  383   1.496   0.305   0.126
  125SOL    HW1  384   1.460   0.218   0.139
  125SOL    HW2  385   1.554   0.319   0.200
  126SOL     OW  386   1.292   0.821   0.034
  126SOL    HW1  387   1.335   0.737   0.048
  126SOL    HW2  388   1.322   0.849   2.948
  127SOL     OW  389   1.068   1.336   0.853
  127SOL    HW1  390   1.069   1.263   0.791
  127SOL    HW2  391   1.128   1.400   0.816
  128SOL     OW  392   0.310   0.806   0.948
  128SOL    HW1  393   0.403   0.826   0.942
  128SOL    HW2  394   0.306   0.718   0.985
  129SOL     OW  395   0.333   0.515   1.018
  129SOL    HW1  396   0.293   0.431   0.994
  129SOL    HW2  397   0.407   0.524   0.958
  130SOL     OW  398   1.141   0.379   1.704
  130SOL    HW1  399   1.095   0.435   1.767
  130SOL    HW2  400   1.227   0.420   1.694
  131SOL     OW  401   1.098   0.255   1.473
  131SOL    HW1  402   1.119   0.307   1.551
  131SOL    HW2  403   1.183   0.228   1.439
  132SOL     OW  404   0.010   1.315   0.170
  132SOL    HW1  405   2.918   1.330   0.149
  132SOL    HW2  406   0.008   1.241   0.231
  133SOL     OW  407   0.100   1.806   0.973
  133SOL    HW1  408   0.059   1.741   0.915
  133SOL    HW2  409   0.185   1.823   0.934
  134SOL     OW  410   0.494   1.573   0.902
  134SOL    HW1  411   0.563   1.634   0.929
  134SOL    HW2  412   0.539   1.509   0.847
  135SOL     OW  413   0.984   0.795   1.228
  135SOL    HW1  414   1.039   0.769   1.302
  135SOL    HW2  415   0.899   0.755   1.245
  136SOL     OW  416   0.043   0.558   1.107
  136SOL    HW1  417   0.134   0.539   1.083
  136SOL    HW2  418   0.040   0.544   1.202
  137SOL     OW  419   0.191   0.519   1.720
  137SOL    HW1  420   0.264   0.492   1.666
  137SOL    HW2  421   0.160   0.601   1.680
  138SOL     OW  422   1.373   0.931   1.659
  138SOL    HW1  423   1.399   1.023   1.662
  138SOL    HW2  424   1.375   0.908   1.566
  139SOL     OW  425   0.820   0.578   0.349
  139SOL    HW1  426   0.822   0.498   0.296
  139SOL    HW2  427   0.738   0.621   0.323
  140SOL     OW  428   1.643   0.603   1.186
  140SOL    HW1  429   1.630   0.544   1.261
  140SOL    HW2  430   1.729   0.580   1.153
  141SOL     OW  431   0.284   1.560   1.747
  141SOL    HW1  432   0.222   1.617   1.792
  141SOL    HW2  433   0.255   1.471   1.768
  142SOL     OW  434   0.699   0.455   1.262
  142SOL    HW1  435   0.651   0.379   1.230
  142SOL    HW2  436   0.698   0.517   1.189
  143SOL     OW  437   0.948   1.688   1.465
  143SOL    HW1  438   0.915   1.643   1.387
  143SOL    HW2  439   0.924   1.779   1.452
  144SOL     OW  440   0.452   0.495   0.200
  144SOL    HW1  441   0.511   0.566   0.223
  144SOL    HW2  442   0.367   0.538   0.186
  145SOL     OW  443   0.160   1.145   1.464
  145SOL    HW1  444   0.142   1.098   1.546
  145SOL    HW2  445   0.167   1.076   1.399
  146SOL     OW  446   1.324   1.047   1.217
  146SOL    HW1  447   1.350   0.982   1.152
  146SOL    HW2  448   1.255   1.098   1.174
  147SOL     OW  449   1.306   0.852   0.312
  147SOL    HW1  450   1.231   0.818   0.361
  147SOL    HW2  451   1.283   0.839   0.220
  148SOL     OW  452   1.758   1.760   1.137
  148SOL    HW1  453   1.828   1.773   1.073
  148SOL    HW2  454   1.739   1.666   1.133
  149SOL     OW  455   1.244   1.729   1.119
  149SOL    HW1  456   1.325   1.754   1.074
  149SOL    HW2  457   1.247   1.634   1.125
  150SOL     OW  458   0.093   1.247   1.025
  150SOL    HW1  459   0.075   1.259   1.118
  150SOL    HW2  460   0.011   1.267   0.981
  151SOL     OW  461   0.680   1.668   1.728
  151SOL    HW1  462   0.619   1.741   1.731
  151SOL    HW2  463   0.731   1.682   1.649
  152SOL     OW  464   0.875   0.080   0.148
  152SOL    HW1  465   0.939   0.065   0.077
  152SOL    HW2  466   0.906   0.024   0.219
  153SOL     OW  467   1.713   0.142   0.504
  153SOL    HW1  468   1.783   0.143   0.439
  153SOL    HW2  469   1.730   0.063   0.557
  154SOL     OW  470   1.390   1.569   0.485
  154SOL    HW1  471   1.452   1.600   0.419
  154SOL    HW2  472   1.343   1.647   0.513
  155SOL     OW  473   0.121   1.798   1.843
  155SOL    HW1  474   0.080   1.729   1.894
  155SOL    HW2  475   0.179   1.842   1.905
  156SOL     OW  476   1.278   0.926   0.672
  156SOL    HW1  477   1.351   0.865   0.678
  156SOL    HW2  478   1.311   0.999   0.619
  157SOL     OW  479   0.814   1.276   1.427
  157SOL    HW1  480   0.786   1.313   1.511
  157SOL    HW2  481   0.741   1.294   1.368
  158SOL     OW  482   0.671   1.610   0.161
  158SOL    HW1  483   0.673   1.630   0.068
  158SOL    HW2  484   0.616   1.532   0.168
  159SOL     OW  485   1.850   0.154   0.967
  159SOL    HW1  486   1.854   0.072   0.919
  159SOL    HW2  487   1.768   0.195   0.938
  160SOL     OW  488   0.266   0.333   0.741
  160SOL    HW1  489   0.176   0.361   0.728
  160SOL    HW2  490   0.269   0.302   0.832
  161SOL     OW  491   1.206   1.601   0.034
  161SOL    HW1  492   1.199   1.512   0.066
  161SOL    HW2  493   1.155   1.603   2.953
  162SOL     OW  494   0.823   1.006   1.374
  162SOL    HW1  495   0.864   1.000   1.288
  162SOL    HW2  496   0.823   1.100   1.394
  163SOL     OW  497   0.923   0.929   0.305
  163SOL    HW1  498   0.988   0.966   0.246
  163SOL    HW2  499   0.971   0.864   0.356
  164SOL     OW  500   1.486   1.601   0.051
  164SOL    HW1  501   1.390   1.608   0.053
  164SOL    HW2  502   1.511   1.644   2.969
  165SOL     OW  503   0.376   1.305   1.489
  165SOL    HW1  504   0.357   1.385   1.439
  165SOL    HW2  505   0.299   1.249   1.475
  166SOL     OW  506   1.617   1.263   1.263
  166SOL    HW1  507   1.699   1.262   1.313
  166SOL    HW2  508   1.569   1.338   1.299
  167SOL     OW  509   1.051   1.107   0.707
  167SOL    HW1  510   0.980   1.056   0.746
  167SOL    HW2  511   1.113   1.042   0.675
  168SOL     OW  512   1.020   0.245   0.966
  168SOL    HW1  513   1.012   0.193   0.885
  168SOL    HW2  514   1.023   0.179   1.035
  169SOL     OW  515   0.604   1.492   0.484
  169SOL    HW1  516   0.643   1.441   0.413
  169SOL    HW2  517   0.536   1.545   0.441
  170SOL     OW  518   1.721   0.392   1.378
  170SOL    HW1  519   1.793   0.454   1.376
  170SOL    HW2  520   1.748   0.321   1.319
  171SOL     OW  521   0.269   1.330   0.293
  171SOL    HW1  522   0.180   1.336   0.258
  171SOL    HW2  523   0.264   1.378   0.377
  172SOL     OW  524   0.126   1.011   1.706
  172SOL    HW1  525   0.053   0.972   1.755
  172SOL    HW2  526   0.204   0.978   1.750
  173SOL     OW  527   0.663   0.212   1.492
  173SOL    HW1  528   0.745   0.180   1.453
  173SOL    HW2  529   0.685   0.228   1.584
  174SOL     OW  530   0.068   0.310   0.053
  174SOL    HW1  531   2.977   0.329   0.031
  174SOL    HW2  532   0.115   0.391   0.033
  175SOL     OW  533   1.430   0.860   1.401
  175SOL    HW1  534   1.382   0.917   1.340
  175SOL    HW2  535   1.521   0.862   1.369
  176SOL     OW  536   0.036   0.179   0.289
  176SOL    HW1  537   0.038   0.234   0.211
  176SOL    HW2  538   0.127   0.150   0.300
  177SOL     OW  539   1.182   1.346   0.125
  177SOL    HW1  540   1.088   1.339   0.114
  177SOL    HW2  541   1.196   1.336   0.219
  178SOL     OW  542   0.618   0.831   1.434
  178SOL    HW1  543   0.673   0.907   1.420
  178SOL    HW2  544   0.679   0.758   1.442
  179SOL     OW  545   1.487   1.772   0.981
  179SOL    HW1  546   1.509   1.833   0.910
  179SOL    HW2  547   1.569   1.763   1.030
  180SOL     OW  548   0.716   0.566   1.707
  180SOL    HW1  549   0.757   0.630   1.765
  180SOL    HW2  550   0.751   0.482   1.735
  181SOL     OW  551   1.467   1.188   1.632
  181SOL    HW1  552   1.453   1.207   1.724
  181SOL    HW2  553   1.562   1.194   1.620
  182SOL     OW  554   0.388   1.736   1.564
  182SOL    HW1  555   0.302   1.776   1.548
  182SOL    HW2  556   0.369   1.657   1.614
  183SOL     OW  557   1.670   0.881   1.254
  183SOL    HW1  558   1.664   0.793   1.215
  183SOL    HW2  559   1.660   0.941   1.180
  184SOL     OW  560   1.226   0.318   0.455
  184SOL    HW1  561   1.287   0.243   0.454
  184SOL    HW2  562   1.250   0.368   0.532
  185SOL     OW  563   0.592   0.739   0.667
  185SOL    HW1  564   0.630   0.826   0.655
  185SOL    HW2  565   0.522   0.734   0.602
  186SOL     OW  566   1.765   0.354   1.646
  186SOL    HW1  567   1.744   0.378   1.555
  186SOL    HW2  568   1.682   0.320   1.681
  187SOL     OW  569   1.740   0.934   1.513
  187SOL    HW1  570   1.746   1.029   1.529
  187SOL    HW2  571   1.729   0.926   1.418
  188SOL     OW  572   0.909   1.389   0.063
  188SOL    HW1  573   0.837   1.386   0.126
  188SOL    HW2  574   0.867   1.409   2.979
  189SOL     OW  575   0.659   1.791   0.945
  189SOL    HW1  576   0.637   1.881   0.922
  189SOL    HW2  577   0.754   1.787   0.937
  190SOL     OW  578   0.867   0.967   0.856
  190SOL    HW1  579   0.916   0.894   0.895
  190SOL    HW2  580   0.832   1.015   0.931
  191SOL     OW  581   1.099   1.016   0.103
  191SOL    HW1  582   1.066   1.058   0.024
  191SOL    HW2  583   1.166   0.955   0.072
  192SOL     OW  584   1.857   1.555   0.842
  192SOL    HW1  585   1.776   1.544   0.792
  192SOL    HW2  586   1.854   1.485   0.908
  193SOL     OW  587   0.226   1.302   1.854
  193SOL    HW1  588   0.178   1.222   1.830
  193SOL    HW2  589   0.212   1.311   1.949
  194SOL     OW  590   0.130   1.251   0.664
  194SOL    HW1  591   0.077   1.186   0.710
  194SOL    HW2  592   0.180   1.202   0.599
  195SOL     OW  593   0.683   1.404   1.628
  195SOL    HW1  594   0.603   1.358   1.653
  195SOL    HW2  595   0.674   1.491   1.667
  196SOL     OW  596   1.796   0.176   1.235
  196SOL    HW1  597   1.844   0.101   1.272
  196SOL    HW2  598   1.822   0.177   1.143
  197SOL     OW  599   0.464   0.432   0.549
  197SOL    HW1  600   0.453   0.370   0.477
  197SOL    HW2  601   0.405   0.399   0.617
  198SOL     OW  602   1.694   1.498   1.103
  198SOL    HW1  603   1.622   1.462   1.050
  198SOL    HW2  604   1.730   1.422   1.149
  199SOL     OW  605   0.334   0.556   1.291
  199SOL    HW1  606   0.390   0.501   1.346
  199SOL    HW2  607   0.352   0.526   1.202
  200SOL     OW  608   0.828   1.577   0.677
  200SOL    HW1  609   0.815   1.633   0.600
  200SOL    HW2  610   0.750   1.521   0.679
  201SOL     OW  611   1.427   0.214   1.129
  201SOL    HW1  612   1.449   0.144   1.190
  201SOL    HW2  613   1.379   0.278   1.180
  202SOL     OW  614   1.013   0.025   1.146
  202SOL    HW1  615   0.930   2.999   1.106
  202SOL    HW2  616   1.071   2.950   1.132
  203SOL     OW  617   0.766   1.329   0.314
  203SOL    HW1  618   0.734   1.240   0.331
  203SOL    HW2  619   0.852   1.332   0.357
  204SOL     OW  620   0.622   1.557   1.285
  204SOL    HW1  621   0.624   1.638   1.335
  204SOL    HW2  622   0.709   1.551   1.245
  205SOL     OW  623   1.360   0.057   0.168
  205SOL    HW1  624   1.415   2.980   0.153
  205SOL    HW2  625   1.271   0.027   0.148
  206SOL     OW  626   1.297   0.461   0.680
  206SOL    HW1  627   1.242   0.538   0.688
  206SOL    HW2  628   1.294   0.420   0.767
  207SOL     OW  629   1.605   0.230   0.887
  207SOL    HW1  630   1.527   0.232   0.944
  207SOL    HW2  631   1.596   0.306   0.831
  208SOL     OW  632   0.073   1.091   0.342
  208SOL    HW1  633   0.149   1.047   0.306
  208SOL    HW2  634   0.003   1.027   0.336
  209SOL     OW  635   0.883   1.654   0.343
  209SOL    HW1  636   0.812   1.632   0.283
  209SOL    HW2  637   0.850   1.727   0.395
  210SOL     OW  638   0.244   0.645   1.975
  210SOL    HW1  639   0.174   0.610   2.030
  210SOL    HW2  640   0.226   0.610   1.888
  211SOL     OW  641   0.237   0.250   2.851
  211SOL    HW1  642   0.251   0.229   2.943
  211SOL    HW2  643   0.143   0.240   2.838
  212SOL     OW  644   0.007   0.389   2.524
  212SOL    HW1  645   2.921   0.426   2.545
  212SOL    HW2  646   2.988   0.316   2.466
  213SOL     OW  647   1.560   1.509   2.568
  213SOL    HW1  648   1.513   1.492   2.649
  213SOL    HW2  649   1.491   1.516   2.502
  214SOL     OW  650   1.133   0.697   2.563
  214SOL    HW1  651   1.183   0.778   2.549
  214SOL    HW2  652   1.085   0.712   2.644
  215SOL     OW  653   1.766   0.605   2.092
  215SOL    HW1  654   1.746   0.598   1.999
  215SOL    HW2  655   1.733   0.524   2.130
  216SOL     OW  656   0.746   1.144   2.897
  216SOL    HW1  657   0.679   1.191   2.946
  216SOL    HW2  658   0.799   1.212   2.856
  217SOL     OW  659   0.684   1.006   2.508
  217SOL    HW1  660   0.749   0.993   2.576
  217SOL    HW2  661   0.614   1.056   2.551
  218SOL     OW  662   0.330   1.450   2.933
  218SOL    HW1  663   0.280   1.384   2.885
  218SOL    HW2  664   0.386   1.491   2.867
  219SOL     OW  665   1.615   0.457   2.595
  219SOL    HW1  666   1.543   0.479   2.536
  219SOL    HW2  667   1.608   0.520   2.667
  220SOL     OW  668   0.219   1.711   2.347
  220SOL    HW1  669   0.239   1.795   2.389
  220SOL    HW2  670   0.279   1.707   2.273
  221SOL     OW  671   0.255   1.446   2.387
  221SOL    HW1  672   0.222   1.536   2.386
  221SOL    HW2  673   0.194   1.399   2.443
  222SOL     OW  674   0.241   1.084   2.750
  222SOL    HW1  675   0.259   1.002   2.795
  222SOL    HW2  676   0.193   1.137   2.815
  223SOL     OW  677   0.585   0.982   1.996
  223SOL    HW1  678   0.630   1.031   1.927
  223SOL    HW2  679   0.626   1.012   2.077
  224SOL     OW  680   0.130   0.624   2.435
  224SOL    HW1  681   0.088   0.548   2.476
  224SOL    HW2  682   0.124   0.693   2.501
  225SOL     OW  683   1.842   1.760   2.201
  225SOL    HW1  684   1.908   1.732   2.264
  225SOL    HW2  685   1.867   1.850   2.179
  226SOL     OW  686   0.030   1.598   2.002
  226SOL    HW1  687   0.021   1.502   2.007
  226SOL    HW2  688   2.974   1.631   2.072
  227SOL     OW  689   1.688   0.917   2.500
  227SOL    HW1  690   1.773   0.877   2.479
  227SOL    HW2  691   1.667   0.968   2.422
  228SOL     OW  692   1.645   1.106   2.292
  228SOL    HW1  693   1.730   1.114   2.248
  228SOL    HW2  694   1.650   1.168   2.365
  229SOL     OW  695   0.610   1.382   2.593
  229SOL    HW1  696   0.562   1.299   2.602
  229SOL    HW2  697   0.594   1.408   2.502
  230SOL     OW  698   0.821   0.015   2.380
  230SOL    HW1  699   0.855   0.100   2.353
  230SOL    HW2  700   0.728   0.018   2.359
  231SOL     OW  701   1.532   0.992   2.061
  231SOL    HW1  702   1.462   0.935   2.094
  231SOL    HW2  703   1.572   1.027   2.140
  232SOL     OW  704   1.430   1.421   2.798
  232SOL    HW1  705   1.418   1.421   2.893
  232SOL    HW2  706   1.437   1.329   2.775
  233SOL     OW  707   1.657   1.740   2.443
  233SOL    HW1  708   1.639   1.710   2.353
  233SOL    HW2  709   1.634   1.665   2.498
  234SOL     OW  710   0.597   0.722   2.127
  234SOL    HW1  711   0.602   0.803   2.076
  234SOL    HW2  712   0.532   0.740   2.194
  235SOL     OW  713   1.295   0.339   2.811
  235SOL    HW1  714   1.201   0.326   2.800
  235SOL    HW2  715   1.314   0.302   2.897
  236SOL     OW  716   1.582   1.671   2.178
  236SOL    HW1  717   1.673   1.701   2.170
  236SOL    HW2  718   1.552   1.663   2.087
  237SOL     OW  719   1.049   0.698   2.289
  237SOL    HW1  720   1.065   0.691   2.384
  237SOL    HW2  721   0.967   0.651   2.275
  238SOL     OW  722   0.106   0.816   2.623
  238SOL    HW1  723   0.183   0.815   2.679
  238SOL    HW2  724   0.045   0.875   2.667
  239SOL     OW  725   0.873   0.354   2.044
  239SOL    HW1  726   0.926   0.418   1.996
  239SOL    HW2  727   0.922   0.273   2.037
  240SOL     OW  728   1.377   1.143   2.402
  240SOL    HW1  729   1.456   1.130   2.349
  240SOL    HW2  730   1.324   1.205   2.352
  241SOL     OW  731   0.562   0.202   2.844
  241SOL    HW1  732   0.502   0.273   2.865
  241SOL    HW2  733   0.585   0.216   2.752
  242SOL     OW  734   1.006   1.444   2.335
  242SOL    HW1  735   0.968   1.517   2.287
  242SOL    HW2  736   0.989   1.464   2.427
  243SOL     OW  737   0.354   1.803   2.716
  243SOL    HW1  738   0.399   1.720   2.729
  243SOL    HW2  739   0.416   1.870   2.743
  244SOL     OW  740   1.807   1.056   2.719
  244SOL    HW1  741   1.748   1.039   2.646
  244SOL    HW2  742   1.751   1.060   2.796
  245SOL     OW  743   0.315   0.948   2.110
  245SOL    HW1  744   0.397   0.975   2.067
  245SOL    HW2  745   0.294   0.863   2.070
  246SOL     OW  746   1.476   0.747   2.588
  246SOL    HW1  747   1.475   0.695   2.668
  246SOL    HW2  748   1.558   0.797   2.592
  247SOL     OW  749   1.120   1.779   2.092
  247SOL    HW1  750   1.049   1.737   2.140
  247SOL    HW2  751   1.145   1.716   2.024
  248SOL     OW  752   1.623   1.374   1.963
  248SOL    HW1  753   1.615   1.437   1.891
  248SOL    HW2  754   1.556   1.308   1.944
  249SOL     OW  755   0.466   1.739   2.181
  249SOL    HW1  756   0.507   1.794   2.247
  249SOL    HW2  757   0.538   1.708   2.127
  250SOL     OW  758   1.409   0.113   2.297
  250SOL    HW1  759   1.393   0.079   2.208
  250SOL    HW2  760   1.503   0.128   2.300
  251SOL     OW  761   0.264   1.799   0.100
  251SOL    HW1  762   0.301   1.728   0.153
  251SOL    HW2  763   0.198   1.756   0.045
  252SOL     OW  764   0.943   1.690   2.754
  252SOL    HW1  765   1.024   1.640   2.755
  252SOL    HW2  766   0.889   1.646   2.688
  253SOL     OW  767   0.395   0.691   2.337
  253SOL    HW1  768   0.426   0.602   2.353
  253SOL    HW2  769   0.302   0.689   2.359
  254SOL     OW  770   0.628   0.117   1.976
  254SOL    HW1  771   0.719   0.089   1.965
  254SOL    HW2  772   0.589   0.102   1.890
  255SOL     OW  773   0.805   1.395   2.795
  255SOL    HW1  774   0.892   1.389   2.755
  255SOL    HW2  775   0.745   1.393   2.721
  256SOL     OW  776   0.920   0.520   2.758
  256SOL    HW1  777   0.902   0.500   2.666
  256SOL    HW2  778   0.951   0.437   2.794
  257SOL     OW  779   0.546   0.062   2.370
  257SOL    HW1  780   0.458   0.044   2.403
  257SOL    HW2  781   0.533   0.129   2.303
  258SOL     OW  782   1.423   1.189   1.900
  258SOL    HW1  783   1.455   1.117   1.955
  258SOL    HW2  784   1.344   1.219   1.944
  259SOL     OW  785   0.287   0.033   2.056
  259SOL    HW1  786   0.338   0.108   2.024
  259SOL    HW2  787   0.352   2.970   2.086
  260SOL     OW  788   0.940   0.257   2.321
  260SOL    HW1  789   0.913   0.301   2.241
  260SOL    HW2  790   1.035   0.267   2.323
  261SOL     OW  791   1.217   1.587   2.673
  261SOL    HW1  792   1.242   1.644   2.600
  261SOL    HW2  793   1.300   1.565   2.716
  262SOL     OW  794   0.462   1.146   2.600
  262SOL    HW1  795   0.391   1.129   2.661
  262SOL    HW2  796   0.424   1.131   2.513
  263SOL     OW  797   1.270   1.794   2.468
  263SOL    HW1  798   1.316   1.855   2.410
  263SOL    HW2  799   1.204   1.847   2.512
  264SOL     OW  800   1.022   0.548   1.888
  264SOL    HW1  801   0.981   0.633   1.869
  264SOL    HW2  802   1.088   0.568   1.955
  265SOL     OW  803   0.870   0.467   2.497
  265SOL    HW1  804   0.823   0.516   2.429
  265SOL    HW2  805   0.889   0.382   2.456
  266SOL     OW  806   0.997   0.050   2.622
  266SOL    HW1  807   0.964   0.059   2.533
  266SOL    HW2  808   0.973   2.962   2.649
  267SOL     OW  809   1.439   1.159   2.710
  267SOL    HW1  810   1.363   1.101   2.702
  267SOL    HW2  811   1.469   1.173   2.621
  268SOL     OW  812   1.487   0.585   2.817
  268SOL    HW1  813   1.422   0.514   2.820
  268SOL    HW2  814   1.504   0.605   2.909
  269SOL     OW  815   1.849   0.815   2.246
  269SOL    HW1  816   1.906   0.763   2.302
  269SOL    HW2  817   1.818   0.754   2.179
  270SOL     OW  818   0.491   1.415   2.022
  270SOL    HW1  819   0.415   1.387   2.072
  270SOL    HW2  820   0.469   1.396   1.931
  271SOL     OW  821   1.669   1.264   2.509
  271SOL    HW1  822   1.764   1.268   2.521
  271SOL    HW2  823   1.638   1.352   2.529
  272SOL     OW  824   1.394   0.572   1.934
  272SOL    HW1  825   1.333   0.554   2.005
  272SOL    HW2  826   1.478   0.537   1.966
  273SOL     OW  827   0.524   0.262   2.182
  273SOL    HW1  828   0.567   0.212   2.112
  273SOL    HW2  829   0.504   0.346   2.141
  274SOL     OW  830   1.650   1.107   2.930
  274SOL    HW1  831   1.648   1.172   2.999
  274SOL    HW2  832   1.564   1.114   2.888
  275SOL     OW  833   0.708   1.061   2.233
  275SOL    HW1  834   0.695   1.045   2.327
  275SOL    HW2  835   0.784   1.007   2.210
  276SOL     OW  836   0.347   1.110   2.353
  276SOL    HW1  837   0.354   1.182   2.290
  276SOL    HW2  838   0.352   1.031   2.299
  277SOL     OW  839   0.542   0.547   2.731
  277SOL    HW1  840   0.563   0.596   2.652
  277SOL    HW2  841   0.615   0.564   2.790
  278SOL     OW  842   1.248   1.348   2.250
  278SOL    HW1  843   1.304   1.419   2.281
  278SOL    HW2  844   1.161   1.370   2.285
  279SOL     OW  845   1.582   0.625   2.341
  279SOL    HW1  846   1.535   0.681   2.402
  279SOL    HW2  847   1.625   0.686   2.281
  280SOL     OW  848   0.578   0.874   2.880
  280SOL    HW1  849   0.617   0.957   2.853
  280SOL    HW2  850   0.558   0.886   2.973
  281SOL     OW  851   1.207   0.534   2.131
  281SOL    HW1  852   1.213   0.453   2.182
  281SOL    HW2  853   1.163   0.595   2.189
  282SOL     OW  854   0.730   0.640   2.917
  282SOL    HW1  855   0.799   0.615   2.855
  282SOL    HW2  856   0.697   0.724   2.884
  283SOL     OW  857   0.307   0.071   2.504
  283SOL    HW1  858   0.302   0.156   2.548
  283SOL    HW2  859   0.280   0.009   2.572
  284SOL     OW  860   1.609   0.375   2.231
  284SOL    HW1  861   1.649   0.315   2.293
  284SOL    HW2  862   1.591   0.454   2.283
  285SOL     OW  863   1.019   0.763   2.818
  285SOL    HW1  864   1.022   0.769   2.913
  285SOL    HW2  865   0.993   0.673   2.800
  286SOL     OW  866   1.526   0.273   1.997
  286SOL    HW1  867   1.464   0.206   2.027
  286SOL    HW2  868   1.562   0.310   2.078
  287SOL     OW  869   1.291   0.825   1.896
  287SOL    HW1  870   1.334   0.739   1.900
  287SOL    HW2  871   1.321   0.863   1.813
  288SOL     OW  872   1.049   1.350   2.695
  288SOL    HW1  873   1.062   1.268   2.647
  288SOL    HW2  874   1.126   1.403   2.674
  289SOL     OW  875   0.311   0.811   2.811
  289SOL    HW1  876   0.405   0.829   2.811
  289SOL    HW2  877   0.304   0.721   2.843
  290SOL     OW  878   0.316   0.522   2.875
  290SOL    HW1  879   0.287   0.434   2.853
  290SOL    HW2  880   0.396   0.534   2.823
  291SOL     OW  881   2.993   1.319   2.039
  291SOL    HW1  882   2.901   1.322   2.012
  291SOL    HW2  883   0.000   1.238   2.089
  292SOL     OW  884   0.094   1.823   2.812
  292SOL    HW1  885   0.058   1.744   2.773
  292SOL    HW2  886   0.185   1.825   2.783
  293SOL     OW  887   0.502   1.575   2.760
  293SOL    HW1  888   0.572   1.636   2.785
  293SOL    HW2  889   0.546   1.509   2.706
  294SOL     OW  890   0.973   0.748   0.087
  294SOL    HW1  891   1.024   0.753   0.167
  294SOL    HW2  892   0.885   0.775   0.113
  295SOL     OW  893   0.815   0.569   2.218
  295SOL    HW1  894   0.816   0.495   2.157
  295SOL    HW2  895   0.742   0.623   2.190
  296SOL     OW  896   0.696   0.434   0.087
  296SOL    HW1  897   0.602   0.438   0.105
  296SOL    HW2  898   0.713   0.509   0.031
  297SOL     OW  899   0.466   0.494   2.048
  297SOL    HW1  900   0.528   0.564   2.069
  297SOL    HW2  901   0.382   0.538   2.036
  298SOL     OW  902   1.311   0.858   2.169
  298SOL    HW1  903   1.235   0.826   2.219
  298SOL    HW2  904   1.287   0.842   2.078
  299SOL     OW  905   1.740   1.771   2.972
  299SOL    HW1  906   1.813   1.789   2.913
  299SOL    HW2  907   1.769   1.696   0.024
  300SOL     OW  908   0.071   1.247   2.904
  300SOL    HW1  909   0.046   1.278   2.991
  300SOL    HW2  910   0.004   1.283   2.846
  301SOL     OW  911   1.721   0.146   2.365
  301SOL    HW1  912   1.781   0.143   2.290
  301SOL    HW2  913   1.737   0.064   2.411
  302SOL     OW  914   1.390   1.566   2.348
  302SOL    HW1  915   1.452   1.597   2.282
  302SOL    HW2  916   1.343   1.645   2.374
  303SOL     OW  917   1.277   0.928   2.532
  303SOL    HW1  918   1.350   0.867   2.541
  303SOL    HW2  919   1.311   0.999   2.478
  304SOL     OW  920   0.672   1.618   2.018
  304SOL    HW1  921   0.680   1.631   1.923
  304SOL    HW2  922   0.617   1.540   2.027
  305SOL     OW  923   1.853   0.161   2.813
  305SOL    HW1  924   1.852   0.075   2.772
  305SOL    HW2  925   1.768   0.199   2.792
  306SOL     OW  926   0.269   0.333   2.597
  306SOL    HW1  927   0.179   0.364   2.589
  306SOL    HW2  928   0.276   0.302   2.687
  307SOL     OW  929   1.200   1.605   1.899
  307SOL    HW1  930   1.202   1.513   1.923
  307SOL    HW2  931   1.135   1.610   1.828
  308SOL     OW  932   0.915   0.910   2.152
  308SOL    HW1  933   0.976   0.942   2.085
  308SOL    HW2  934   0.963   0.840   2.197
  309SOL     OW  935   1.472   1.679   1.921
  309SOL    HW1  936   1.382   1.649   1.918
  309SOL    HW2  937   1.518   1.625   1.856
  310SOL     OW  938   1.054   1.106   2.571
  310SOL    HW1  939   0.981   1.055   2.606
  310SOL    HW2  940   1.115   1.040   2.538
  311SOL     OW  941   1.023   0.251   2.807
  311SOL    HW1  942   1.015   0.182   2.740
  311SOL    HW2  943   1.045   0.204   2.887
  312SOL     OW  944   0.604   1.490   2.341
  312SOL    HW1  945   0.644   1.440   2.270
  312SOL    HW2  946   0.530   1.535   2.301
  313SOL     OW  947   0.254   1.343   2.143
  313SOL    HW1  948   0.159   1.342   2.128
  313SOL    HW2  949   0.264   1.383   2.229
  314SOL     OW  950   0.100   0.324   1.910
  314SOL    HW1  951   0.017   0.295   1.874
  314SOL    HW2  952   0.113   0.411   1.873
  315SOL     OW  953   0.010   0.216   2.140
  315SOL    HW1  954   0.061   0.261   2.073
  315SOL    HW2  955   0.063   0.138   2.162
  316SOL     OW  956   1.179   1.339   1.978
  316SOL    HW1  957   1.088   1.309   1.983
  316SOL    HW2  958   1.208   1.340   2.069
  317SOL     OW  959   1.506   1.780   2.832
  317SOL    HW1  960   1.515   1.835   2.754
  317SOL    HW2  961   1.590   1.789   2.878
  318SOL     OW  962   1.714   0.847   0.059
  318SOL    HW1  963   1.636   0.820   0.108
  318SOL    HW2  964   1.698   0.939   0.037
  319SOL     OW  965   1.222   0.318   2.318
  319SOL    HW1  966   1.283   0.244   2.317
  319SOL    HW2  967   1.247   0.368   2.396
  320SOL     OW  968   0.592   0.740   2.530
  320SOL    HW1  969   0.630   0.826   2.514
  320SOL    HW2  970   0.522   0.733   2.464
  321SOL     OW  971   0.863   1.369   1.895
  321SOL    HW1  972   0.824   1.388   1.980
  321SOL    HW2  973   0.878   1.455   1.856
  322SOL     OW  974   0.664   1.794   2.822
  322SOL    HW1  975   0.641   1.882   2.793
  322SOL    HW2  976   0.758   1.787   2.805
  323SOL     OW  977   0.862   0.967   2.715
  323SOL    HW1  978   0.913   0.895   2.752
  323SOL    HW2  979   0.831   1.016   2.791
  324SOL     OW  980   1.077   0.987   1.949
  324SOL    HW1  981   1.059   1.039   1.871
  324SOL    HW2  982   1.153   0.934   1.926
  325SOL     OW  983   1.855   1.555   2.711
  325SOL    HW1  984   1.776   1.543   2.658
  325SOL    HW2  985   1.863   1.474   2.761
  326SOL     OW  986   0.130   1.249   2.522
  326SOL    HW1  987   0.091   1.184   2.580
  326SOL    HW2  988   0.191   1.198   2.467
  327SOL     OW  989   1.810   0.184   0.083
  327SOL    HW1  990   1.833   0.098   0.117
  327SOL    HW2  991   1.828   0.179   2.989
  328SOL     OW  992   0.462   0.435   2.405
  328SOL    HW1  993   0.456   0.370   2.335
  328SOL    HW2  994   0.411   0.399   2.477
  329SOL     OW  995   0.819   1.583   2.537
  329SOL    HW1  996   0.812   1.631   2.454
  329SOL    HW2  997   0.745   1.523   2.536
  330SOL     OW  998   0.774   1.331   2.172
  330SOL    HW1  999   0.741   1.242   2.180
  330SOL    HW2 1000   0.854   1.333   2.225
  331SOL     OW 1001   1.346   0.046   2.029
  331SOL    HW1 1002   1.414   2.983   2.003
  331SOL    HW2 1003   1.265   2.995   2.032
  332SOL     OW 1004   1.297   0.457   2.547
  332SOL    HW1 1005   1.243   0.535   2.554
  332SOL    HW2 1006   1.293   0.418   2.635
  333SOL     OW 1007   1.598   0.235   2.749
  333SOL    HW1 1008   1.508   0.235   2.780
  333SOL    HW2 1009   1.603   0.309   2.689
  334SOL     OW 1010   0.064   1.077   2.153
  334SOL    HW1 1011   0.153   1.043   2.161
  334SOL    HW2 1012   0.011   1.017   2.205
  335SOL     OW 1013   0.883   1.652   2.206
  335SOL    HW1 1014   0.811   1.634   2.145
  335SOL    HW2 1015   0.854   1.728   2.256
  336SOL     OW 1016   0.240   2.518   0.100
  336SOL    HW1 1017   0.171   2.474   0.149
  336SOL    HW2 1018   0.251   2.465   0.021
  337SOL     OW 1019   0.210   2.137   0.990
  337SOL    HW1 1020   0.243   2.106   1.075
  337SOL    HW2 1021   0.122   2.100   0.984
  338SOL     OW 1022   0.015   2.249   0.647
  338SOL    HW1 1023   2.929   2.286   0.667
  338SOL    HW2 1024   2.996   2.167   0.602
  339SOL     OW 1025   1.134   2.569   0.700
  339SOL    HW1 1026   1.180   2.653   0.694
  339SOL    HW2 1027   1.082   2.577   0.780
  340SOL     OW 1028   1.764   2.451   0.227
  340SOL    HW1 1029   1.744   2.433   0.135
  340SOL    HW2 1030   1.727   2.377   0.274
  341SOL     OW 1031   0.759   0.014   1.032
  341SOL    HW1 1032   0.679   0.049   1.071
  341SOL    HW2 1033   0.779   0.072   0.959
  342SOL     OW 1034   0.870   2.633   1.824
  342SOL    HW1 1035   0.846   2.696   1.893
  342SOL    HW2 1036   0.892   2.687   1.749
  343SOL     OW 1037   0.649   2.852   0.713
  343SOL    HW1 1038   0.744   2.856   0.724
  343SOL    HW2 1039   0.628   2.926   0.656
  344SOL     OW 1040   0.476   2.273   1.486
  344SOL    HW1 1041   0.546   2.208   1.490
  344SOL    HW2 1042   0.396   2.224   1.502
  345SOL     OW 1043   1.612   2.309   0.740
  345SOL    HW1 1044   1.536   2.332   0.687
  345SOL    HW2 1045   1.630   2.387   0.792
  346SOL     OW 1046   0.214   0.320   0.458
  346SOL    HW1 1047   0.213   0.387   0.528
  346SOL    HW2 1048   0.207   0.237   0.505
  347SOL     OW 1049   0.229   2.941   0.876
  347SOL    HW1 1050   0.259   2.861   0.918
  347SOL    HW2 1051   0.208   3.000   0.949
  348SOL     OW 1052   0.617   2.832   0.150
  348SOL    HW1 1053   0.599   2.925   0.133
  348SOL    HW2 1054   0.688   2.834   0.215
  349SOL     OW 1055   1.582   1.981   1.467
  349SOL    HW1 1056   1.604   2.058   1.415
  349SOL    HW2 1057   1.580   2.013   1.557
  350SOL     OW 1058   0.116   2.496   0.563
  350SOL    HW1 1059   0.095   2.411   0.601
  350SOL    HW2 1060   0.115   2.557   0.637
  351SOL     OW 1061   1.703   2.805   0.623
  351SOL    HW1 1062   1.780   2.750   0.637
  351SOL    HW2 1063   1.697   2.814   0.528
  352SOL     OW 1064   0.132   2.609   1.586
  352SOL    HW1 1065   0.226   2.623   1.589
  352SOL    HW2 1066   0.094   2.694   1.610
  353SOL     OW 1067   0.662   0.245   0.686
  353SOL    HW1 1068   0.598   0.177   0.707
  353SOL    HW2 1069   0.616   0.304   0.627
  354SOL     OW 1070   1.306   0.052   1.451
  354SOL    HW1 1071   1.319   2.993   1.377
  354SOL    HW2 1072   1.391   0.096   1.461
  355SOL     OW 1073   0.814   1.862   0.510
  355SOL    HW1 1074   0.854   1.947   0.493
  355SOL    HW2 1075   0.721   1.880   0.516
  356SOL     OW 1076   0.189   2.835   1.257
  356SOL    HW1 1077   0.273   2.789   1.249
  356SOL    HW2 1078   0.124   2.771   1.230
  357SOL     OW 1079   1.522   2.842   0.208
  357SOL    HW1 1080   1.454   2.797   0.258
  357SOL    HW2 1081   1.592   2.857   0.271
  358SOL     OW 1082   0.340   2.111   1.811
  358SOL    HW1 1083   0.384   2.194   1.831
  358SOL    HW2 1084   0.252   2.121   1.848
  359SOL     OW 1085   0.592   2.581   0.272
  359SOL    HW1 1086   0.593   2.662   0.220
  359SOL    HW2 1087   0.525   2.596   0.339
  360SOL     OW 1088   1.279   2.214   0.933
  360SOL    HW1 1089   1.189   2.181   0.941
  360SOL    HW2 1090   1.330   2.161   0.994
  361SOL     OW 1091   0.792   2.478   1.452
  361SOL    HW1 1092   0.765   2.456   1.541
  361SOL    HW2 1093   0.752   2.412   1.397
  362SOL     OW 1094   1.393   2.335   1.678
  362SOL    HW1 1095   1.397   2.380   1.763
  362SOL    HW2 1096   1.454   2.262   1.687
  363SOL     OW 1097   0.960   2.759   1.595
  363SOL    HW1 1098   1.012   2.689   1.555
  363SOL    HW2 1099   0.906   2.792   1.523
  364SOL     OW 1100   0.992   2.276   1.238
  364SOL    HW1 1101   0.906   2.296   1.276
  364SOL    HW2 1102   0.971   2.229   1.157
  365SOL     OW 1103   1.051   2.568   0.423
  365SOL    HW1 1104   1.065   2.560   0.517
  365SOL    HW2 1105   0.969   2.521   0.407
  366SOL     OW 1106   0.103   2.668   0.768
  366SOL    HW1 1107   0.179   2.675   0.826
  366SOL    HW2 1108   0.047   2.742   0.793
  367SOL     OW 1109   0.930   2.192   0.223
  367SOL    HW1 1110   0.940   2.254   0.151
  367SOL    HW2 1111   0.895   2.113   0.182
  368SOL     OW 1112   1.710   2.436   1.827
  368SOL    HW1 1113   1.671   2.510   1.779
  368SOL    HW2 1114   1.736   2.375   1.759
  369SOL     OW 1115   0.548   2.043   0.893
  369SOL    HW1 1116   0.552   2.073   0.984
  369SOL    HW2 1117   0.550   2.124   0.841
  370SOL     OW 1118   1.795   2.905   0.867
  370SOL    HW1 1119   1.741   2.889   0.789
  370SOL    HW2 1120   1.733   2.912   0.939
  371SOL     OW 1121   1.486   2.601   0.727
  371SOL    HW1 1122   1.465   2.552   0.806
  371SOL    HW2 1123   1.557   2.660   0.753
  372SOL     OW 1124   0.236   2.161   1.505
  372SOL    HW1 1125   0.157   2.208   1.479
  372SOL    HW2 1126   0.204   2.084   1.552
  373SOL     OW 1127   1.403   1.968   0.432
  373SOL    HW1 1128   1.394   1.948   0.339
  373SOL    HW2 1129   1.497   1.978   0.446
  374SOL     OW 1130   0.390   2.555   0.473
  374SOL    HW1 1131   0.411   2.463   0.486
  374SOL    HW2 1132   0.297   2.561   0.493
  375SOL     OW 1133   1.536   2.089   1.727
  375SOL    HW1 1134   1.544   2.111   1.820
  375SOL    HW2 1135   1.475   2.016   1.724
  376SOL     OW 1136   0.627   1.979   0.121
  376SOL    HW1 1137   0.722   1.963   0.118
  376SOL    HW2 1138   0.593   1.935   0.043
  377SOL     OW 1139   0.766   2.140   1.753
  377SOL    HW1 1140   0.841   2.081   1.756
  377SOL    HW2 1141   0.717   2.120   1.833
  378SOL     OW 1142   1.339   2.451   1.433
  378SOL    HW1 1143   1.371   2.417   1.517
  378SOL    HW2 1144   1.377   2.538   1.426
  379SOL     OW 1145   0.929   2.371   0.901
  379SOL    HW1 1146   0.905   2.362   0.809
  379SOL    HW2 1147   0.959   2.283   0.926
  380SOL     OW 1148   0.549   1.924   0.503
  380SOL    HW1 1149   0.468   1.926   0.554
  380SOL    HW2 1150   0.543   2.001   0.446
  381SOL     OW 1151   0.945   2.104   0.474
  381SOL    HW1 1152   0.922   2.140   0.389
  381SOL    HW2 1153   1.040   2.118   0.482
  382SOL     OW 1154   1.078   2.548   1.458
  382SOL    HW1 1155   1.008   2.483   1.467
  382SOL    HW2 1156   1.159   2.496   1.454
  383SOL     OW 1157   1.053   2.354   0.029
  383SOL    HW1 1158   1.005   2.437   0.023
  383SOL    HW2 1159   1.114   2.367   0.102
  384SOL     OW 1160   0.091   2.412   1.403
  384SOL    HW1 1161   0.175   2.420   1.358
  384SOL    HW2 1162   0.089   2.485   1.465
  385SOL     OW 1163   0.560   2.089   1.165
  385SOL    HW1 1164   0.598   2.010   1.203
  385SOL    HW2 1165   0.468   2.087   1.192
  386SOL     OW 1166   0.870   2.323   0.639
  386SOL    HW1 1167   0.819   2.376   0.578
  386SOL    HW2 1168   0.890   2.243   0.590
  387SOL     OW 1169   1.016   1.915   0.752
  387SOL    HW1 1170   0.957   1.911   0.677
  387SOL    HW2 1171   0.992   1.839   0.805
  388SOL     OW 1172   1.426   2.989   0.874
  388SOL    HW1 1173   1.361   2.933   0.829
  388SOL    HW2 1174   1.448   0.056   0.810
  389SOL     OW 1175   1.466   2.466   0.978
  389SOL    HW1 1176   1.417   2.384   0.982
  389SOL    HW2 1177   1.527   2.461   1.052
  390SOL     OW 1178   1.827   2.662   0.391
  390SOL    HW1 1179   1.891   2.617   0.445
  390SOL    HW2 1180   1.814   2.604   0.316
  391SOL     OW 1181   1.414   2.435   0.099
  391SOL    HW1 1182   1.343   2.428   0.162
  391SOL    HW2 1183   1.458   2.350   0.103
  392SOL     OW 1184   0.518   2.124   0.324
  392SOL    HW1 1185   0.558   2.074   0.253
  392SOL    HW2 1186   0.498   2.209   0.286
  393SOL     OW 1187   1.779   0.076   1.587
  393SOL    HW1 1188   1.868   0.043   1.573
  393SOL    HW2 1189   1.791   0.158   1.636
  394SOL     OW 1190   1.622   2.954   1.072
  394SOL    HW1 1191   1.637   0.038   1.115
  394SOL    HW2 1192   1.547   2.969   1.015
  395SOL     OW 1193   0.918   1.958   1.397
  395SOL    HW1 1194   0.940   1.941   1.306
  395SOL    HW2 1195   0.996   2.001   1.433
  396SOL     OW 1196   0.416   2.680   1.252
  396SOL    HW1 1197   0.485   2.687   1.318
  396SOL    HW2 1198   0.381   2.591   1.262
  397SOL     OW 1199   1.265   2.238   1.276
  397SOL    HW1 1200   1.298   2.315   1.322
  397SOL    HW2 1201   1.175   2.261   1.252
  398SOL     OW 1202   0.554   2.396   0.861
  398SOL    HW1 1203   0.569   2.450   0.784
  398SOL    HW2 1204   0.619   2.425   0.925
  399SOL     OW 1205   1.579   2.485   0.477
  399SOL    HW1 1206   1.538   2.539   0.545
  399SOL    HW2 1207   1.637   2.545   0.430
  400SOL     OW 1208   0.414   2.596   1.604
  400SOL    HW1 1209   0.471   2.645   1.545
  400SOL    HW2 1210   0.460   2.514   1.619
  401SOL     OW 1211   1.598   2.636   1.681
  401SOL    HW1 1212   1.512   2.677   1.674
  401SOL    HW2 1213   1.650   2.679   1.614
  402SOL     OW 1214   0.995   1.986   1.754
  402SOL    HW1 1215   1.051   2.059   1.728
  402SOL    HW2 1216   1.050   1.908   1.744
  403SOL     OW 1217   0.501   1.901   1.747
  403SOL    HW1 1218   0.457   1.847   1.681
  403SOL    HW2 1219   0.442   1.975   1.759
  404SOL     OW 1220   0.594   2.729   1.039
  404SOL    HW1 1221   0.595   2.820   1.009
  404SOL    HW2 1222   0.528   2.726   1.108
  405SOL     OW 1223   1.348   2.712   1.033
  405SOL    HW1 1224   1.278   2.706   0.968
  405SOL    HW2 1225   1.393   2.628   1.028
  406SOL     OW 1226   1.203   2.394   0.270
  406SOL    HW1 1227   1.210   2.310   0.316
  406SOL    HW2 1228   1.157   2.451   0.331
  407SOL     OW 1229   0.300   2.065   1.243
  407SOL    HW1 1230   0.279   2.094   1.332
  407SOL    HW2 1231   0.285   1.970   1.245
  408SOL     OW 1232   0.054   0.171   1.264
  408SOL    HW1 1233   0.079   0.137   1.350
  408SOL    HW2 1234   0.005   0.251   1.284
  409SOL     OW 1235   0.728   2.492   1.060
  409SOL    HW1 1236   0.799   2.478   0.997
  409SOL    HW2 1237   0.697   2.580   1.041
  410SOL     OW 1238   1.737   2.818   1.845
  410SOL    HW1 1239   1.690   2.757   1.789
  410SOL    HW2 1240   1.678   2.832   1.920
  411SOL     OW 1241   0.302   1.931   0.622
  411SOL    HW1 1242   0.285   2.022   0.648
  411SOL    HW2 1243   0.311   1.883   0.704
  412SOL     OW 1244   1.620   2.236   0.367
  412SOL    HW1 1245   1.645   2.170   0.432
  412SOL    HW2 1246   1.593   2.311   0.418
  413SOL     OW 1247   1.029   2.616   0.965
  413SOL    HW1 1248   1.026   2.631   1.060
  413SOL    HW2 1249   1.002   2.525   0.955
  414SOL     OW 1250   0.359   2.787   1.797
  414SOL    HW1 1251   0.419   2.781   1.871
  414SOL    HW2 1252   0.383   2.713   1.741
  415SOL     OW 1253   1.500   2.170   0.126
  415SOL    HW1 1254   1.463   2.082   0.137
  415SOL    HW2 1255   1.555   2.183   0.203
  416SOL     OW 1256   1.295   2.682   0.038
  416SOL    HW1 1257   1.336   2.597   0.050
  416SOL    HW2 1258   1.325   2.712   2.952
  417SOL     OW 1259   0.314   2.677   0.951
  417SOL    HW1 1260   0.407   2.683   0.932
  417SOL    HW2 1261   0.302   2.589   0.986
  418SOL     OW 1262   0.334   2.379   1.015
  418SOL    HW1 1263   0.294   2.295   0.994
  418SOL    HW2 1264   0.409   2.386   0.956
  419SOL     OW 1265   1.134   2.237   1.682
  419SOL    HW1 1266   1.087   2.293   1.744
  419SOL    HW2 1267   1.222   2.274   1.678
  420SOL     OW 1268   1.160   2.062   1.473
  420SOL    HW1 1269   1.150   2.127   1.543
  420SOL    HW2 1270   1.201   2.110   1.401
  421SOL     OW 1271   0.979   2.667   1.231
  421SOL    HW1 1272   1.035   2.639   1.304
  421SOL    HW2 1273   0.899   2.617   1.242
  422SOL     OW 1274   0.046   2.445   1.120
  422SOL    HW1 1275   0.119   2.400   1.078
  422SOL    HW2 1276   0.032   2.397   1.202
  423SOL     OW 1277   0.195   2.382   1.722
  423SOL    HW1 1278   0.264   2.351   1.664
  423SOL    HW2 1279   0.164   2.462   1.681
  424SOL     OW 1280   1.379   2.805   1.661
  424SOL    HW1 1281   1.395   2.900   1.655
  424SOL    HW2 1282   1.372   2.777   1.570
  425SOL     OW 1283   0.820   2.439   0.350
  425SOL    HW1 1284   0.818   2.361   0.294
  425SOL    HW2 1285   0.740   2.486   0.327
  426SOL     OW 1286   1.642   2.465   1.187
  426SOL    HW1 1287   1.632   2.404   1.261
  426SOL    HW2 1288   1.729   2.445   1.152
  427SOL     OW 1289   0.705   2.311   1.259
  427SOL    HW1 1290   0.649   2.238   1.230
  427SOL    HW2 1291   0.700   2.374   1.188
  428SOL     OW 1292   0.442   2.358   0.207
  428SOL    HW1 1293   0.512   2.421   0.225
  428SOL    HW2 1294   0.366   2.411   0.185
  429SOL     OW 1295   0.157   0.011   1.468
  429SOL    HW1 1296   0.145   2.959   1.547
  429SOL    HW2 1297   0.171   2.946   1.399
  430SOL     OW 1298   1.344   2.908   1.221
  430SOL    HW1 1299   1.362   2.844   1.152
  430SOL    HW2 1300   1.282   2.968   1.181
  431SOL     OW 1301   1.299   2.722   0.316
  431SOL    HW1 1302   1.228   2.675   0.360
  431SOL    HW2 1303   1.289   2.700   0.223
  432SOL     OW 1304   0.899   1.936   0.121
  432SOL    HW1 1305   0.955   1.915   0.046
  432SOL    HW2 1306   0.944   1.897   0.196
  433SOL     OW 1307   1.712   2.006   0.511
  433SOL    HW1 1308   1.792   1.998   0.458
  433SOL    HW2 1309   1.700   1.920   0.551
  434SOL     OW 1310   1.295   2.796   0.685
  434SOL    HW1 1311   1.364   2.729   0.681
  434SOL    HW2 1312   1.304   2.843   0.602
  435SOL     OW 1313   1.841   2.036   0.966
  435SOL    HW1 1314   1.870   1.948   0.942
  435SOL    HW2 1315   1.754   2.044   0.927
  436SOL     OW 1316   0.267   2.179   0.723
  436SOL    HW1 1317   0.183   2.216   0.696
  436SOL    HW2 1318   0.259   2.167   0.817
  437SOL     OW 1319   0.814   2.857   1.377
  437SOL    HW1 1320   0.869   2.831   1.302
  437SOL    HW2 1321   0.833   2.950   1.389
  438SOL     OW 1322   0.899   2.795   0.282
  438SOL    HW1 1323   0.981   2.822   0.241
  438SOL    HW2 1324   0.926   2.748   0.361
  439SOL     OW 1325   1.020   2.103   0.966
  439SOL    HW1 1326   1.016   2.055   0.883
  439SOL    HW2 1327   1.015   2.035   1.033
  440SOL     OW 1328   1.721   2.254   1.379
  440SOL    HW1 1329   1.794   2.317   1.379
  440SOL    HW2 1330   1.751   2.182   1.324
  441SOL     OW 1331   0.119   2.865   1.693
  441SOL    HW1 1332   0.051   2.848   1.757
  441SOL    HW2 1333   0.201   2.851   1.740
  442SOL     OW 1334   0.675   2.059   1.499
  442SOL    HW1 1335   0.759   2.039   1.458
  442SOL    HW2 1336   0.697   2.087   1.587
  443SOL     OW 1337   0.050   2.162   0.057
  443SOL    HW1 1338   2.967   2.204   0.034
  443SOL    HW2 1339   0.117   2.221   0.024
  444SOL     OW 1340   1.434   2.717   1.404
  444SOL    HW1 1341   1.390   2.776   1.342
  444SOL    HW2 1342   1.526   2.718   1.378
  445SOL     OW 1343   0.060   2.061   0.320
  445SOL    HW1 1344   0.047   2.098   0.233
  445SOL    HW2 1345   0.122   1.990   0.308
  446SOL     OW 1346   1.139   0.210   0.090
  446SOL    HW1 1347   1.072   0.259   0.138
  446SOL    HW2 1348   1.218   0.217   0.143
  447SOL     OW 1349   0.613   2.688   1.437
  447SOL    HW1 1350   0.671   2.763   1.420
  447SOL    HW2 1351   0.673   2.614   1.445
  448SOL     OW 1352   0.717   2.427   1.705
  448SOL    HW1 1353   0.759   2.489   1.765
  448SOL    HW2 1354   0.746   2.341   1.736
  449SOL     OW 1355   1.675   2.745   1.253
  449SOL    HW1 1356   1.666   2.658   1.214
  449SOL    HW2 1357   1.657   2.806   1.182
  450SOL     OW 1358   1.220   2.180   0.461
  450SOL    HW1 1359   1.284   2.110   0.450
  450SOL    HW2 1360   1.251   2.230   0.536
  451SOL     OW 1361   0.591   2.587   0.667
  451SOL    HW1 1362   0.613   2.680   0.678
  451SOL    HW2 1363   0.524   2.586   0.599
  452SOL     OW 1364   1.762   2.225   1.649
  452SOL    HW1 1365   1.744   2.238   1.556
  452SOL    HW2 1366   1.691   2.168   1.679
  453SOL     OW 1367   1.733   2.796   1.515
  453SOL    HW1 1368   1.748   2.889   1.534
  453SOL    HW2 1369   1.727   2.792   1.420
  454SOL     OW 1370   0.891   2.831   0.862
  454SOL    HW1 1371   0.929   2.750   0.897
  454SOL    HW2 1372   0.827   2.857   0.928
  455SOL     OW 1373   1.110   2.885   0.086
  455SOL    HW1 1374   1.063   2.887   0.003
  455SOL    HW2 1375   1.173   2.813   0.077
  456SOL     OW 1376   1.811   2.045   1.238
  456SOL    HW1 1377   1.804   1.951   1.252
  456SOL    HW2 1378   1.824   2.055   1.144
  457SOL     OW 1379   0.430   2.296   0.529
  457SOL    HW1 1380   0.460   2.225   0.471
  457SOL    HW2 1381   0.384   2.251   0.600
  458SOL     OW 1382   0.337   2.420   1.290
  458SOL    HW1 1383   0.397   2.366   1.342
  458SOL    HW2 1384   0.350   2.390   1.200
  459SOL     OW 1385   1.431   2.085   1.118
  459SOL    HW1 1386   1.469   2.012   1.167
  459SOL    HW2 1387   1.380   2.134   1.183
  460SOL     OW 1388   1.009   1.881   1.143
  460SOL    HW1 1389   0.956   1.813   1.102
  460SOL    HW2 1390   1.097   1.843   1.147
  461SOL     OW 1391   1.355   1.915   0.163
  461SOL    HW1 1392   1.381   1.863   0.087
  461SOL    HW2 1393   1.269   1.880   0.188
  462SOL     OW 1394   1.300   2.325   0.683
  462SOL    HW1 1395   1.244   2.403   0.690
  462SOL    HW2 1396   1.294   2.284   0.769
  463SOL     OW 1397   1.585   2.063   0.877
  463SOL    HW1 1398   1.525   2.084   0.948
  463SOL    HW2 1399   1.586   2.142   0.823
  464SOL     OW 1400   2.996   2.880   0.285
  464SOL    HW1 1401   0.077   2.917   0.249
  464SOL    HW2 1402   0.019   2.852   0.373
  465SOL     OW 1403   0.235   2.500   1.974
  465SOL    HW1 1404   0.166   2.458   2.025
  465SOL    HW2 1405   0.222   2.467   1.885
  466SOL     OW 1406   0.234   2.125   2.837
  466SOL    HW1 1407   0.272   2.099   2.921
  466SOL    HW2 1408   0.148   2.084   2.836
  467SOL     OW 1409   0.014   2.248   2.506
  467SOL    HW1 1410   2.929   2.284   2.529
  467SOL    HW2 1411   2.995   2.162   2.470
  468SOL     OW 1412   1.137   2.569   2.563
  468SOL    HW1 1413   1.183   2.653   2.556
  468SOL    HW2 1414   1.085   2.578   2.643
  469SOL     OW 1415   1.763   2.464   2.090
  469SOL    HW1 1416   1.745   2.457   1.996
  469SOL    HW2 1417   1.730   2.382   2.127
  470SOL     OW 1418   0.775   0.011   2.871
  470SOL    HW1 1419   0.684   0.032   2.894
  470SOL    HW2 1420   0.806   0.087   2.821
  471SOL     OW 1421   0.647   2.848   2.573
  471SOL    HW1 1422   0.740   2.847   2.593
  471SOL    HW2 1423   0.635   2.927   2.520
  472SOL     OW 1424   1.617   2.310   2.595
  472SOL    HW1 1425   1.542   2.333   2.540
  472SOL    HW2 1426   1.614   2.374   2.667
  473SOL     OW 1427   0.209   0.317   2.320
  473SOL    HW1 1428   0.222   0.385   2.386
  473SOL    HW2 1429   0.211   0.235   2.369
  474SOL     OW 1430   0.232   2.944   2.743
  474SOL    HW1 1431   0.259   2.858   2.776
  474SOL    HW2 1432   0.216   2.996   2.822
  475SOL     OW 1433   0.604   2.822   1.996
  475SOL    HW1 1434   0.593   2.907   1.952
  475SOL    HW2 1435   0.672   2.838   2.061
  476SOL     OW 1436   0.121   2.495   2.423
  476SOL    HW1 1437   0.098   2.411   2.463
  476SOL    HW2 1438   0.120   2.557   2.496
  477SOL     OW 1439   1.703   2.804   2.484
  477SOL    HW1 1440   1.781   2.751   2.501
  477SOL    HW2 1441   1.699   2.812   2.389
  478SOL     OW 1442   0.617   0.237   2.577
  478SOL    HW1 1443   0.596   0.160   2.525
  478SOL    HW2 1444   0.618   0.309   2.514
  479SOL     OW 1445   0.814   1.862   2.369
  479SOL    HW1 1446   0.855   1.947   2.350
  479SOL    HW2 1447   0.721   1.882   2.379
  480SOL     OW 1448   0.218   2.805   0.105
  480SOL    HW1 1449   0.273   2.727   0.100
  480SOL    HW2 1450   0.129   2.771   0.092
  481SOL     OW 1451   1.536   2.845   2.048
  481SOL    HW1 1452   1.470   2.789   2.089
  481SOL    HW2 1453   1.598   2.864   2.118
  482SOL     OW 1454   0.597   2.577   2.129
  482SOL    HW1 1455   0.598   2.657   2.076
  482SOL    HW2 1456   0.532   2.595   2.197
  483SOL     OW 1457   1.300   2.201   2.811
  483SOL    HW1 1458   1.207   2.182   2.801
  483SOL    HW2 1459   1.321   2.172   2.900
  484SOL     OW 1460   1.053   2.563   2.288
  484SOL    HW1 1461   1.066   2.558   2.383
  484SOL    HW2 1462   0.970   2.517   2.273
  485SOL     OW 1463   0.108   2.671   2.623
  485SOL    HW1 1464   0.183   2.674   2.683
  485SOL    HW2 1465   0.044   2.730   2.662
  486SOL     OW 1466   0.891   2.209   2.056
  486SOL    HW1 1467   0.932   2.271   1.995
  486SOL    HW2 1468   0.909   2.123   2.018
  487SOL     OW 1469   0.551   2.046   2.769
  487SOL    HW1 1470   0.513   2.083   2.849
  487SOL    HW2 1471   0.561   2.120   2.710
  488SOL     OW 1472   1.797   2.907   2.728
  488SOL    HW1 1473   1.740   2.889   2.654
  488SOL    HW2 1474   1.738   2.911   2.803
  489SOL     OW 1475   1.485   2.605   2.584
  489SOL    HW1 1476   1.470   2.551   2.661
  489SOL    HW2 1477   1.561   2.658   2.607
  490SOL     OW 1478   1.401   1.970   2.294
  490SOL    HW1 1479   1.390   1.946   2.202
  490SOL    HW2 1480   1.496   1.976   2.306
  491SOL     OW 1481   0.397   2.555   2.333
  491SOL    HW1 1482   0.412   2.461   2.348
  491SOL    HW2 1483   0.305   2.568   2.354
  492SOL     OW 1484   0.634   1.987   1.966
  492SOL    HW1 1485   0.703   1.922   1.980
  492SOL    HW2 1486   0.585   1.953   1.891
  493SOL     OW 1487   0.923   2.381   2.755
  493SOL    HW1 1488   0.902   2.358   2.665
  493SOL    HW2 1489   0.959   2.301   2.793
  494SOL     OW 1490   0.550   1.925   2.365
  494SOL    HW1 1491   0.468   1.926   2.415
  494SOL    HW2 1492   0.544   2.003   2.309
  495SOL     OW 1493   0.289   1.905   2.042
  495SOL    HW1 1494   0.348   1.974   2.013
  495SOL    HW2 1495   0.346   1.842   2.086
  496SOL     OW 1496   0.938   2.107   2.321
  496SOL    HW1 1497   0.911   2.150   2.240
  496SOL    HW2 1498   1.032   2.121   2.325
  497SOL     OW 1499   1.025   2.404   1.883
  497SOL    HW1 1500   0.980   2.486   1.864
  497SOL    HW2 1501   1.088   2.426   1.951
  498SOL     OW 1502   0.868   2.317   2.498
  498SOL    HW1 1503   0.821   2.374   2.438
  498SOL    HW2 1504   0.888   2.239   2.447
  499SOL     OW 1505   1.012   1.910   2.610
  499SOL    HW1 1506   0.955   1.904   2.534
  499SOL    HW2 1507   0.992   1.833   2.662
  500SOL     OW 1508   1.421   2.993   2.737
  500SOL    HW1 1509   1.355   2.938   2.695
  500SOL    HW2 1510   1.448   0.054   2.668
  501SOL     OW 1511   1.484   2.448   2.817
  501SOL    HW1 1512   1.420   2.377   2.822
  501SOL    HW2 1513   1.504   2.469   2.908
  502SOL     OW 1514   1.834   2.665   2.253
  502SOL    HW1 1515   1.895   2.617   2.310
  502SOL    HW2 1516   1.814   2.603   2.183
  503SOL     OW 1517   1.395   2.434   1.934
  503SOL    HW1 1518   1.334   2.413   2.005
  503SOL    HW2 1519   1.479   2.399   1.963
  504SOL     OW 1520   0.527   2.124   2.180
  504SOL    HW1 1521   0.570   2.077   2.109
  504SOL    HW2 1522   0.505   2.209   2.142
  505SOL     OW 1523   1.624   2.966   2.933
  505SOL    HW1 1524   1.628   0.044   2.988
  505SOL    HW2 1525   1.549   2.980   2.876
  506SOL     OW 1526   0.550   2.393   2.726
  506SOL    HW1 1527   0.565   2.448   2.649
  506SOL    HW2 1528   0.614   2.424   2.791
  507SOL     OW 1529   1.577   2.484   2.337
  507SOL    HW1 1530   1.538   2.539   2.404
  507SOL    HW2 1531   1.634   2.543   2.288
  508SOL     OW 1532   0.576   2.728   2.886
  508SOL    HW1 1533   0.611   2.807   2.844
  508SOL    HW2 1534   0.570   2.751   2.979
  509SOL     OW 1535   1.205   2.392   2.130
  509SOL    HW1 1536   1.214   2.313   2.184
  509SOL    HW2 1537   1.159   2.454   2.186
  510SOL     OW 1538   0.330   2.061   0.076
  510SOL    HW1 1539   0.324   2.101   0.163
  510SOL    HW2 1540   0.308   1.969   0.091
  511SOL     OW 1541   0.727   2.499   2.912
  511SOL    HW1 1542   0.797   2.480   2.849
  511SOL    HW2 1543   0.693   2.584   2.886
  512SOL     OW 1544   0.304   1.931   2.482
  512SOL    HW1 1545   0.285   2.021   2.507
  512SOL    HW2 1546   0.309   1.883   2.565
  513SOL     OW 1547   1.616   2.234   2.230
  513SOL    HW1 1548   1.644   2.171   2.296
  513SOL    HW2 1549   1.592   2.313   2.279
  514SOL     OW 1550   1.025   2.619   2.822
  514SOL    HW1 1551   1.026   2.623   2.918
  514SOL    HW2 1552   0.996   2.531   2.802
  515SOL     OW 1553   1.527   2.139   1.989
  515SOL    HW1 1554   1.465   2.070   2.014
  515SOL    HW2 1555   1.561   2.171   2.073
  516SOL     OW 1556   1.291   2.686   1.894
  516SOL    HW1 1557   1.333   2.600   1.899
  516SOL    HW2 1558   1.324   2.724   1.813
  517SOL     OW 1559   0.312   2.675   2.809
  517SOL    HW1 1560   0.406   2.691   2.814
  517SOL    HW2 1561   0.301   2.586   2.841
  518SOL     OW 1562   0.318   2.387   2.867
  518SOL    HW1 1563   0.286   2.298   2.852
  518SOL    HW2 1564   0.398   2.394   2.816
  519SOL     OW 1565   0.979   2.609   0.089
  519SOL    HW1 1566   1.024   2.603   0.173
  519SOL    HW2 1567   0.891   2.639   0.111
  520SOL     OW 1568   0.818   2.432   2.220
  520SOL    HW1 1569   0.819   2.357   2.161
  520SOL    HW2 1570   0.743   2.484   2.192
  521SOL     OW 1571   0.705   2.309   0.100
  521SOL    HW1 1572   0.615   2.276   0.093
  521SOL    HW2 1573   0.708   2.381   0.037
  522SOL     OW 1574   0.463   2.354   2.047
  522SOL    HW1 1575   0.526   2.423   2.070
  522SOL    HW2 1576   0.380   2.401   2.038
  523SOL     OW 1577   1.304   2.725   2.170
  523SOL    HW1 1578   1.233   2.684   2.218
  523SOL    HW2 1579   1.287   2.704   2.079
  524SOL     OW 1580   1.718   2.007   2.373
  524SOL    HW1 1581   1.791   1.993   2.312
  524SOL    HW2 1582   1.703   1.922   2.412
  525SOL     OW 1583   1.296   2.800   2.545
  525SOL    HW1 1584   1.363   2.731   2.546
  525SOL    HW2 1585   1.305   2.842   2.460
  526SOL     OW 1586   1.840   2.043   2.821
  526SOL    HW1 1587   1.870   1.955   2.798
  526SOL    HW2 1588   1.750   2.047   2.789
  527SOL     OW 1589   0.269   2.180   2.576
  527SOL    HW1 1590   0.184   2.218   2.554
  527SOL    HW2 1591   0.266   2.167   2.670
  528SOL     OW 1592   0.902   2.762   2.107
  528SOL    HW1 1593   0.979   2.811   2.079
  528SOL    HW2 1594   0.931   2.714   2.184
  529SOL     OW 1595   1.039   2.109   2.801
  529SOL    HW1 1596   1.027   2.050   2.726
  529SOL    HW2 1597   1.002   2.062   2.875
  530SOL     OW 1598   0.094   2.177   1.918
  530SOL    HW1 1599   0.012   2.146   1.879
  530SOL    HW2 1600   0.104   2.266   1.886
  531SOL     OW 1601   0.063   2.062   2.175
  531SOL    HW1 1602   0.072   2.107   2.091
  531SOL    HW2 1603   0.128   1.992   2.172
  532SOL     OW 1604   1.118   0.231   2.011
  532SOL    HW1 1605   1.108   0.158   1.950
  532SOL    HW2 1606   1.208   0.222   2.044
  533SOL     OW 1607   1.731   2.712   0.050
  533SOL    HW1 1608   1.660   2.671   0.101
  533SOL    HW2 1609   1.700   2.800   0.032
  534SOL     OW 1610   1.217   2.182   2.320
  534SOL    HW1 1611   1.281   2.110   2.310
  534SOL    HW2 1612   1.246   2.229   2.398
  535SOL     OW 1613   0.594   2.583   2.529
  535SOL    HW1 1614   0.615   2.675   2.542
  535SOL    HW2 1615   0.527   2.582   2.461
  536SOL     OW 1616   0.886   2.823   2.713
  536SOL    HW1 1617   0.930   2.749   2.755
  536SOL    HW2 1618   0.847   2.872   2.785
  537SOL     OW 1619   1.108   2.879   1.954
  537SOL    HW1 1620   1.062   2.902   1.873
  537SOL    HW2 1621   1.162   2.804   1.930
  538SOL     OW 1622   1.821   2.048   0.097
  538SOL    HW1 1623   1.788   1.958   0.096
  538SOL    HW2 1624   1.832   2.070   0.004
  539SOL     OW 1625   0.426   2.294   2.382
  539SOL    HW1 1626   0.459   2.221   2.330
  539SOL    HW2 1627   0.381   2.253   2.456
  540SOL     OW 1628   1.356   1.917   2.026
  540SOL    HW1 1629   1.397   1.845   1.977
  540SOL    HW2 1630   1.268   1.884   2.046
  541SOL     OW 1631   1.297   2.320   2.548
  541SOL    HW1 1632   1.244   2.399   2.555
  541SOL    HW2 1633   1.295   2.281   2.636
  542SOL     OW 1634   1.581   2.073   2.737
  542SOL    HW1 1635   1.497   2.095   2.777
  542SOL    HW2 1636   1.598   2.145   2.676
  543SOL     OW 1637   0.016   2.932   2.157
  543SOL    HW1 1638   0.110   2.926   2.138
  543SOL    HW2 1639   0.003   2.876   2.233
  544SOL     OW 1640   2.093   0.637   0.123
  544SOL    HW1 1641   1.998   0.629   0.136
  544SOL    HW2 1642   2.107   0.608   0.032
  545SOL     OW 1643   2.078   0.288   1.011
  545SOL    HW1 1644   2.110   0.249   1.092
  545SOL    HW2 1645   1.995   0.243   0.994
  546SOL     OW 1646   1.865   0.383   0.641
  546SOL    HW1 1647   1.783   0.409   0.683
  546SOL    HW2 1648   1.841   0.306   0.588
  547SOL     OW 1649   2.426   1.286   1.173
  547SOL    HW1 1650   2.339   1.293   1.135
  547SOL    HW2 1651   2.444   1.372   1.209
  548SOL     OW 1652   2.614   1.142   1.037
  548SOL    HW1 1653   2.547   1.177   1.096
  548SOL    HW2 1654   2.654   1.220   0.998
  549SOL     OW 1655   2.721   0.774   1.817
  549SOL    HW1 1656   2.714   0.843   1.882
  549SOL    HW2 1657   2.747   0.819   1.736
  550SOL     OW 1658   2.546   1.005   0.649
  550SOL    HW1 1659   2.608   0.990   0.720
  550SOL    HW2 1660   2.476   1.056   0.688
  551SOL     OW 1661   2.571   1.153   1.813
  551SOL    HW1 1662   2.618   1.232   1.839
  551SOL    HW2 1663   2.488   1.185   1.777
  552SOL     OW 1664   2.194   1.425   1.068
  552SOL    HW1 1665   2.120   1.392   1.017
  552SOL    HW2 1666   2.245   1.477   1.006
  553SOL     OW 1667   2.315   0.402   1.485
  553SOL    HW1 1668   2.389   0.342   1.491
  553SOL    HW2 1669   2.238   0.348   1.502
  554SOL     OW 1670   2.083   1.714   0.472
  554SOL    HW1 1671   2.103   1.791   0.527
  554SOL    HW2 1672   2.160   1.704   0.417
  555SOL     OW 1673   2.980   1.348   1.689
  555SOL    HW1 1674   0.033   1.346   1.769
  555SOL    HW2 1675   2.934   1.264   1.689
  556SOL     OW 1676   2.083   1.442   0.534
  556SOL    HW1 1677   2.073   1.537   0.541
  556SOL    HW2 1678   2.026   1.408   0.603
  557SOL     OW 1679   2.116   1.090   0.889
  557SOL    HW1 1680   2.116   1.005   0.932
  557SOL    HW2 1681   2.061   1.145   0.945
  558SOL     OW 1682   2.476   1.788   1.434
  558SOL    HW1 1683   2.393   1.770   1.477
  558SOL    HW2 1684   2.495   1.880   1.455
  559SOL     OW 1685   2.451   0.979   0.148
  559SOL    HW1 1686   2.480   1.049   0.089
  559SOL    HW2 1687   2.485   1.005   0.234
  560SOL     OW 1688   1.980   0.646   0.563
  560SOL    HW1 1689   1.937   0.564   0.588
  560SOL    HW2 1690   1.973   0.701   0.640
  561SOL     OW 1691   1.875   1.590   0.120
  561SOL    HW1 1692   1.889   1.499   0.147
  561SOL    HW2 1693   1.877   1.640   0.202
  562SOL     OW 1694   1.985   0.743   1.585
  562SOL    HW1 1695   2.078   0.767   1.594
  562SOL    HW2 1696   1.938   0.826   1.597
  563SOL     OW 1697   2.474   1.385   0.735
  563SOL    HW1 1698   2.428   1.301   0.744
  563SOL    HW2 1699   2.458   1.412   0.645
  564SOL     OW 1700   2.682   0.016   0.522
  564SOL    HW1 1701   2.711   0.106   0.503
  564SOL    HW2 1702   2.589   0.016   0.503
  565SOL     OW 1703   2.052   0.968   1.267
  565SOL    HW1 1704   2.137   0.926   1.254
  565SOL    HW2 1705   1.990   0.907   1.226
  566SOL     OW 1706   2.188   0.253   1.803
  566SOL    HW1 1707   2.237   0.332   1.828
  566SOL    HW2 1708   2.101   0.265   1.842
  567SOL     OW 1709   2.451   0.721   0.268
  567SOL    HW1 1710   2.456   0.804   0.221
  567SOL    HW2 1711   2.389   0.736   0.338
  568SOL     OW 1712   2.655   0.628   1.452
  568SOL    HW1 1713   2.629   0.601   1.540
  568SOL    HW2 1714   2.618   0.562   1.394
  569SOL     OW 1715   2.827   0.881   1.574
  569SOL    HW1 1716   2.851   0.795   1.540
  569SOL    HW2 1717   2.781   0.923   1.502
  570SOL     OW 1718   2.846   0.370   1.261
  570SOL    HW1 1719   2.770   0.421   1.288
  570SOL    HW2 1720   2.846   0.376   1.165
  571SOL     OW 1721   2.892   0.717   0.406
  571SOL    HW1 1722   2.932   0.699   0.491
  571SOL    HW2 1723   2.816   0.659   0.403
  572SOL     OW 1724   1.952   0.820   0.774
  572SOL    HW1 1725   2.033   0.812   0.825
  572SOL    HW2 1726   1.910   0.899   0.808
  573SOL     OW 1727   1.989   1.851   1.577
  573SOL    HW1 1728   1.990   1.828   1.670
  573SOL    HW2 1729   1.899   1.835   1.549
  574SOL     OW 1730   2.778   0.344   0.220
  574SOL    HW1 1731   2.755   0.394   0.141
  574SOL    HW2 1732   2.774   0.253   0.193
  575SOL     OW 1733   2.382   0.201   0.910
  575SOL    HW1 1734   2.397   0.214   1.004
  575SOL    HW2 1735   2.402   0.286   0.870
  576SOL     OW 1736   2.857   1.439   0.467
  576SOL    HW1 1737   2.827   1.517   0.421
  576SOL    HW2 1738   2.856   1.465   0.560
  577SOL     OW 1739   2.217   1.808   0.859
  577SOL    HW1 1740   2.260   1.723   0.869
  577SOL    HW2 1741   2.285   1.872   0.879
  578SOL     OW 1742   2.179   0.952   0.245
  578SOL    HW1 1743   2.262   0.968   0.200
  578SOL    HW2 1744   2.151   0.866   0.213
  579SOL     OW 1745   2.327   1.260   1.736
  579SOL    HW1 1746   2.300   1.267   1.645
  579SOL    HW2 1747   2.246   1.263   1.786
  580SOL     OW 1748   2.064   0.295   1.499
  580SOL    HW1 1749   1.981   0.342   1.502
  580SOL    HW2 1750   2.052   0.221   1.558
  581SOL     OW 1751   2.328   1.721   0.334
  581SOL    HW1 1752   2.363   1.791   0.389
  581SOL    HW2 1753   2.395   1.708   0.267
  582SOL     OW 1754   2.122   1.793   1.234
  582SOL    HW1 1755   2.169   1.724   1.281
  582SOL    HW2 1756   2.102   1.754   1.148
  583SOL     OW 1757   2.800   1.695   0.899
  583SOL    HW1 1758   2.861   1.628   0.928
  583SOL    HW2 1759   2.752   1.654   0.826
  584SOL     OW 1760   2.258   0.688   0.476
  584SOL    HW1 1761   2.288   0.599   0.496
  584SOL    HW2 1762   2.165   0.688   0.495
  585SOL     OW 1763   2.478   0.109   0.105
  585SOL    HW1 1764   2.573   0.114   0.117
  585SOL    HW2 1765   2.462   0.154   0.021
  586SOL     OW 1766   2.631   0.278   1.753
  586SOL    HW1 1767   2.703   0.216   1.764
  586SOL    HW2 1768   2.581   0.272   1.835
  587SOL     OW 1769   2.740   1.516   1.194
  587SOL    HW1 1770   2.718   1.482   1.107
  587SOL    HW2 1771   2.804   1.454   1.229
  588SOL     OW 1772   2.669   1.401   0.941
  588SOL    HW1 1773   2.753   1.388   0.896
  588SOL    HW2 1774   2.604   1.398   0.872
  589SOL     OW 1775   2.785   0.504   0.906
  589SOL    HW1 1776   2.758   0.494   0.814
  589SOL    HW2 1777   2.824   0.420   0.928
  590SOL     OW 1778   2.402   0.045   0.496
  590SOL    HW1 1779   2.316   0.037   0.539
  590SOL    HW2 1780   2.395   0.124   0.443
  591SOL     OW 1781   0.323   1.150   0.043
  591SOL    HW1 1782   0.309   1.096   0.121
  591SOL    HW2 1783   0.259   1.221   0.051
  592SOL     OW 1784   2.157   0.092   0.185
  592SOL    HW1 1785   2.242   0.132   0.205
  592SOL    HW2 1786   2.172   2.998   0.190
  593SOL     OW 1787   2.831   0.246   0.466
  593SOL    HW1 1788   2.790   0.298   0.397
  593SOL    HW2 1789   2.907   0.205   0.424
  594SOL     OW 1790   0.085   1.583   0.797
  594SOL    HW1 1791   0.108   1.621   0.712
  594SOL    HW2 1792   0.167   1.550   0.832
  595SOL     OW 1793   2.329   1.149   0.733
  595SOL    HW1 1794   2.259   1.130   0.796
  595SOL    HW2 1795   2.289   1.134   0.647
  596SOL     OW 1796   2.896   0.509   0.023
  596SOL    HW1 1797   2.845   0.589   0.013
  596SOL    HW2 1798   2.942   0.519   0.107
  597SOL     OW 1799   1.939   0.556   1.392
  597SOL    HW1 1800   2.031   0.553   1.365
  597SOL    HW2 1801   1.935   0.627   1.456
  598SOL     OW 1802   2.427   0.214   1.184
  598SOL    HW1 1803   2.465   0.174   1.262
  598SOL    HW2 1804   2.333   0.220   1.203
  599SOL     OW 1805   2.744   0.470   0.636
  599SOL    HW1 1806   2.677   0.520   0.589
  599SOL    HW2 1807   2.732   0.380   0.605
  600SOL     OW 1808   2.860   0.061   0.759
  600SOL    HW1 1809   2.821   0.063   0.672
  600SOL    HW2 1810   2.835   2.975   0.794
  601SOL     OW 1811   2.353   1.402   0.150
  601SOL    HW1 1812   2.289   1.372   0.214
  601SOL    HW2 1813   2.304   1.410   0.068
  602SOL     OW 1814   2.390   0.259   0.321
  602SOL    HW1 1815   2.436   0.214   0.250
  602SOL    HW2 1816   2.362   0.342   0.283
  603SOL     OW 1817   2.777   0.115   1.400
  603SOL    HW1 1818   2.803   0.100   1.309
  603SOL    HW2 1819   2.835   0.185   1.430
  604SOL     OW 1820   2.840   1.109   1.731
  604SOL    HW1 1821   2.747   1.131   1.742
  604SOL    HW2 1822   2.840   1.042   1.663
  605SOL     OW 1823   2.563   1.064   0.380
  605SOL    HW1 1824   2.549   1.048   0.473
  605SOL    HW2 1825   2.648   1.023   0.361
  606SOL     OW 1826   2.279   0.815   1.252
  606SOL    HW1 1827   2.348   0.825   1.317
  606SOL    HW2 1828   2.245   0.727   1.267
  607SOL     OW 1829   1.927   1.569   1.324
  607SOL    HW1 1830   1.898   1.658   1.306
  607SOL    HW2 1831   2.019   1.579   1.352
  608SOL     OW 1832   2.212   1.110   0.488
  608SOL    HW1 1833   2.211   1.185   0.428
  608SOL    HW2 1834   2.209   1.034   0.431
  609SOL     OW 1835   2.417   0.541   0.863
  609SOL    HW1 1836   2.433   0.595   0.786
  609SOL    HW2 1837   2.483   0.568   0.926
  610SOL     OW 1838   2.211   1.527   1.317
  610SOL    HW1 1839   2.196   1.485   1.233
  610SOL    HW2 1840   2.306   1.538   1.322
  611SOL     OW 1841   2.276   0.744   1.602
  611SOL    HW1 1842   2.336   0.791   1.544
  611SOL    HW2 1843   2.317   0.659   1.616
  612SOL     OW 1844   2.865   0.120   1.761
  612SOL    HW1 1845   2.902   0.193   1.712
  612SOL    HW2 1846   2.898   0.042   1.716
  613SOL     OW 1847   2.367   0.055   1.749
  613SOL    HW1 1848   2.330   2.985   1.696
  613SOL    HW2 1849   2.296   0.119   1.757
  614SOL     OW 1850   2.442   0.875   1.030
  614SOL    HW1 1851   2.477   0.964   1.031
  614SOL    HW2 1852   2.388   0.869   1.109
  615SOL     OW 1853   0.063   0.531   0.267
  615SOL    HW1 1854   0.087   0.449   0.310
  615SOL    HW2 1855   0.035   0.589   0.338
  616SOL     OW 1856   2.159   0.194   1.254
  616SOL    HW1 1857   2.128   0.238   1.333
  616SOL    HW2 1858   2.139   0.102   1.269
  617SOL     OW 1859   1.894   1.306   1.280
  617SOL    HW1 1860   1.939   1.257   1.349
  617SOL    HW2 1861   1.910   1.398   1.302
  618SOL     OW 1862   2.589   0.635   1.059
  618SOL    HW1 1863   2.666   0.618   1.005
  618SOL    HW2 1864   2.562   0.723   1.037
  619SOL     OW 1865   2.168   0.064   0.642
  619SOL    HW1 1866   2.171   0.155   0.672
  619SOL    HW2 1867   2.152   0.013   0.721
  620SOL     OW 1868   2.868   0.770   0.971
  620SOL    HW1 1869   2.894   0.774   1.063
  620SOL    HW2 1870   2.874   0.677   0.949
  621SOL     OW 1871   2.829   1.570   1.704
  621SOL    HW1 1872   2.826   1.610   1.617
  621SOL    HW2 1873   2.886   1.494   1.692
  622SOL     OW 1874   2.215   0.913   1.811
  622SOL    HW1 1875   2.298   0.937   1.852
  622SOL    HW2 1876   2.239   0.852   1.741
  623SOL     OW 1877   2.906   1.345   0.832
  623SOL    HW1 1878   2.910   1.265   0.779
  623SOL    HW2 1879   2.979   1.398   0.801
  624SOL     OW 1880   2.172   0.809   0.946
  624SOL    HW1 1881   2.264   0.832   0.943
  624SOL    HW2 1882   2.171   0.719   0.980
  625SOL     OW 1883   2.196   0.529   1.015
  625SOL    HW1 1884   2.159   0.442   1.000
  625SOL    HW2 1885   2.271   0.533   0.955
  626SOL     OW 1886   2.964   0.365   1.665
  626SOL    HW1 1887   2.903   0.426   1.704
  626SOL    HW2 1888   0.049   0.408   1.671
  627SOL     OW 1889   1.875   1.318   0.183
  627SOL    HW1 1890   1.783   1.332   0.158
  627SOL    HW2 1891   1.874   1.233   0.228
  628SOL     OW 1892   1.953   1.788   0.937
  628SOL    HW1 1893   1.923   1.709   0.893
  628SOL    HW2 1894   2.043   1.800   0.907
  629SOL     OW 1895   2.359   1.574   0.906
  629SOL    HW1 1896   2.428   1.636   0.931
  629SOL    HW2 1897   2.403   1.510   0.850
  630SOL     OW 1898   2.864   0.789   1.252
  630SOL    HW1 1899   2.911   0.722   1.302
  630SOL    HW2 1900   2.773   0.759   1.253
  631SOL     OW 1901   1.897   0.541   1.117
  631SOL    HW1 1902   1.978   0.528   1.067
  631SOL    HW2 1903   1.926   0.549   1.208
  632SOL     OW 1904   2.049   0.520   1.726
  632SOL    HW1 1905   2.108   0.482   1.661
  632SOL    HW2 1906   2.010   0.595   1.682
  633SOL     OW 1907   2.672   0.573   0.351
  633SOL    HW1 1908   2.678   0.493   0.299
  633SOL    HW2 1909   2.590   0.614   0.322
  634SOL     OW 1910   2.141   1.558   1.743
  634SOL    HW1 1911   2.082   1.618   1.789
  634SOL    HW2 1912   2.114   1.471   1.770
  635SOL     OW 1913   2.562   0.458   1.262
  635SOL    HW1 1914   2.513   0.382   1.232
  635SOL    HW2 1915   2.560   0.519   1.188
  636SOL     OW 1916   2.803   1.689   1.458
  636SOL    HW1 1917   2.773   1.637   1.383
  636SOL    HW2 1918   2.770   1.777   1.440
  637SOL     OW 1919   2.317   0.494   0.199
  637SOL    HW1 1920   2.370   0.570   0.224
  637SOL    HW2 1921   2.230   0.529   0.182
  638SOL     OW 1922   2.011   1.140   1.471
  638SOL    HW1 1923   2.012   1.088   1.551
  638SOL    HW2 1924   2.028   1.077   1.401
  639SOL     OW 1925   1.942   1.270   1.013
  639SOL    HW1 1926   1.930   1.276   1.107
  639SOL    HW2 1927   1.875   1.208   0.984
  640SOL     OW 1928   2.537   1.665   1.734
  640SOL    HW1 1929   2.482   1.743   1.720
  640SOL    HW2 1930   2.606   1.672   1.667
  641SOL     OW 1931   2.765   0.086   0.144
  641SOL    HW1 1932   2.794   0.033   0.070
  641SOL    HW2 1933   2.811   0.048   0.219
  642SOL     OW 1934   1.998   1.796   1.841
  642SOL    HW1 1935   1.948   1.729   1.888
  642SOL    HW2 1936   2.046   1.842   1.910
  643SOL     OW 1937   2.675   1.270   1.426
  643SOL    HW1 1938   2.662   1.315   1.509
  643SOL    HW2 1939   2.602   1.300   1.370
  644SOL     OW 1940   2.528   1.611   0.161
  644SOL    HW1 1941   2.535   1.631   0.068
  644SOL    HW2 1942   2.476   1.531   0.165
  645SOL     OW 1943   2.137   0.347   0.753
  645SOL    HW1 1944   2.047   0.366   0.727
  645SOL    HW2 1945   2.130   0.315   0.843
  646SOL     OW 1946   2.689   1.007   1.375
  646SOL    HW1 1947   2.736   1.001   1.292
  646SOL    HW2 1948   2.687   1.100   1.395
  647SOL     OW 1949   2.795   0.950   0.310
  647SOL    HW1 1950   2.841   0.959   0.226
  647SOL    HW2 1951   2.827   0.868   0.347
  648SOL     OW 1952   2.233   1.302   1.491
  648SOL    HW1 1953   2.219   1.381   1.439
  648SOL    HW2 1954   2.155   1.249   1.476
  649SOL     OW 1955   2.917   1.084   0.722
  649SOL    HW1 1956   2.842   1.043   0.765
  649SOL    HW2 1957   2.929   1.033   0.642
  650SOL     OW 1958   2.880   0.239   0.971
  650SOL    HW1 1959   2.877   0.189   0.889
  650SOL    HW2 1960   2.869   0.173   1.039
  651SOL     OW 1961   2.461   1.488   0.482
  651SOL    HW1 1962   2.506   1.439   0.413
  651SOL    HW2 1963   2.401   1.546   0.436
  652SOL     OW 1964   2.134   1.330   0.299
  652SOL    HW1 1965   2.050   1.335   0.253
  652SOL    HW2 1966   2.119   1.375   0.382
  653SOL     OW 1967   1.974   1.015   1.715
  653SOL    HW1 1968   1.898   0.997   1.771
  653SOL    HW2 1969   2.049   0.982   1.766
  654SOL     OW 1970   2.528   0.212   1.490
  654SOL    HW1 1971   2.610   0.180   1.453
  654SOL    HW2 1972   2.547   0.227   1.583
  655SOL     OW 1973   1.913   0.200   0.332
  655SOL    HW1 1974   1.876   0.230   0.249
  655SOL    HW2 1975   1.999   0.164   0.309
  656SOL     OW 1976   2.479   0.835   1.433
  656SOL    HW1 1977   2.535   0.911   1.418
  656SOL    HW2 1978   2.540   0.762   1.440
  657SOL     OW 1979   2.579   0.563   1.702
  657SOL    HW1 1980   2.615   0.626   1.764
  657SOL    HW2 1981   2.608   0.478   1.735
  658SOL     OW 1982   2.243   1.741   1.565
  658SOL    HW1 1983   2.157   1.780   1.550
  658SOL    HW2 1984   2.225   1.661   1.615
  659SOL     OW 1985   2.457   0.738   0.666
  659SOL    HW1 1986   2.493   0.827   0.655
  659SOL    HW2 1987   2.387   0.732   0.602
  660SOL     OW 1988   2.766   1.379   0.064
  660SOL    HW1 1989   2.696   1.385   0.130
  660SOL    HW2 1990   2.727   1.416   2.985
  661SOL     OW 1991   2.522   1.794   0.946
  661SOL    HW1 1992   2.501   1.884   0.922
  661SOL    HW2 1993   2.617   1.788   0.936
  662SOL     OW 1994   2.718   0.964   0.857
  662SOL    HW1 1995   2.765   0.891   0.898
  662SOL    HW2 1996   2.685   1.015   0.930
  663SOL     OW 1997   2.954   1.013   0.079
  663SOL    HW1 1998   2.934   1.062   2.999
  663SOL    HW2 1999   0.014   0.944   0.050
  664SOL     OW 2000   2.086   1.301   1.854
  664SOL    HW1 2001   2.012   1.247   1.825
  664SOL    HW2 2002   2.067   1.320   1.946
  665SOL     OW 2003   1.944   1.233   0.666
  665SOL    HW1 2004   1.952   1.183   0.747
  665SOL    HW2 2005   2.013   1.199   0.609
  666SOL     OW 2006   2.543   1.404   1.629
  666SOL    HW1 2007   2.462   1.359   1.654
  666SOL    HW2 2008   2.536   1.491   1.668
  667SOL     OW 2009   2.343   0.432   0.555
  667SOL    HW1 2010   2.325   0.377   0.479
  667SOL    HW2 2011   2.274   0.410   0.617
  668SOL     OW 2012   2.189   0.554   1.292
  668SOL    HW1 2013   2.248   0.502   1.346
  668SOL    HW2 2014   2.211   0.530   1.202
  669SOL     OW 2015   2.685   1.583   0.678
  669SOL    HW1 2016   2.677   1.625   0.592
  669SOL    HW2 2017   2.610   1.523   0.682
  670SOL     OW 2018   2.852   0.016   1.147
  670SOL    HW1 2019   2.823   2.942   1.094
  670SOL    HW2 2020   2.944   2.999   1.165
  671SOL     OW 2021   2.630   1.330   0.315
  671SOL    HW1 2022   2.602   1.241   0.335
  671SOL    HW2 2023   2.712   1.340   0.363
  672SOL     OW 2024   2.483   1.557   1.284
  672SOL    HW1 2025   2.486   1.638   1.335
  672SOL    HW2 2026   2.571   1.549   1.247
  673SOL     OW 2027   1.902   1.073   0.306
  673SOL    HW1 2028   1.996   1.066   0.288
  673SOL    HW2 2029   1.876   0.983   0.327
  674SOL     OW 2030   2.740   1.652   0.345
  674SOL    HW1 2031   2.668   1.635   0.284
  674SOL    HW2 2032   2.711   1.729   0.395
  675SOL     OW 2033   2.092   0.622   1.985
  675SOL    HW1 2034   2.002   0.621   2.019
  675SOL    HW2 2035   2.082   0.598   1.893
  676SOL     OW 2036   2.089   0.278   2.884
  676SOL    HW1 2037   2.106   0.236   2.968
  676SOL    HW2 2038   2.004   0.242   2.856
  677SOL     OW 2039   1.865   0.382   2.501
  677SOL    HW1 2040   1.785   0.414   2.543
  677SOL    HW2 2041   1.838   0.305   2.452
  678SOL     OW 2042   2.608   1.147   2.899
  678SOL    HW1 2043   2.547   1.195   2.954
  678SOL    HW2 2044   2.658   1.215   2.854
  679SOL     OW 2045   2.547   1.005   2.506
  679SOL    HW1 2046   2.607   0.990   2.579
  679SOL    HW2 2047   2.475   1.056   2.544
  680SOL     OW 2048   2.201   1.432   2.931
  680SOL    HW1 2049   2.125   1.397   2.885
  680SOL    HW2 2050   2.247   1.484   2.864
  681SOL     OW 2051   2.081   1.713   2.335
  681SOL    HW1 2052   2.103   1.790   2.388
  681SOL    HW2 2053   2.153   1.707   2.271
  682SOL     OW 2054   2.093   1.441   2.398
  682SOL    HW1 2055   2.076   1.535   2.400
  682SOL    HW2 2056   2.031   1.404   2.460
  683SOL     OW 2057   2.119   1.093   2.755
  683SOL    HW1 2058   2.112   1.005   2.792
  683SOL    HW2 2059   2.059   1.146   2.808
  684SOL     OW 2060   2.451   0.980   1.995
  684SOL    HW1 2061   2.493   1.032   1.927
  684SOL    HW2 2062   2.488   1.013   2.077
  685SOL     OW 2063   1.980   0.646   2.425
  685SOL    HW1 2064   1.936   0.565   2.450
  685SOL    HW2 2065   1.974   0.702   2.502
  686SOL     OW 2066   1.897   1.596   1.988
  686SOL    HW1 2067   1.876   1.504   2.004
  686SOL    HW2 2068   1.869   1.642   2.068
  687SOL     OW 2069   2.471   1.383   2.593
  687SOL    HW1 2070   2.424   1.301   2.601
  687SOL    HW2 2071   2.455   1.411   2.502
  688SOL     OW 2072   2.683   0.017   2.385
  688SOL    HW1 2073   2.714   0.103   2.356
  688SOL    HW2 2074   2.590   0.016   2.363
  689SOL     OW 2075   2.457   0.724   2.127
  689SOL    HW1 2076   2.460   0.805   2.075
  689SOL    HW2 2077   2.392   0.741   2.194
  690SOL     OW 2078   2.889   0.708   2.282
  690SOL    HW1 2079   2.920   0.689   2.370
  690SOL    HW2 2080   2.813   0.651   2.270
  691SOL     OW 2081   1.953   0.820   2.635
  691SOL    HW1 2082   2.031   0.812   2.689
  691SOL    HW2 2083   1.907   0.896   2.670
  692SOL     OW 2084   2.740   0.345   2.049
  692SOL    HW1 2085   2.790   0.408   1.996
  692SOL    HW2 2086   2.790   0.263   2.041
  693SOL     OW 2087   2.423   0.206   2.841
  693SOL    HW1 2088   2.355   0.269   2.865
  693SOL    HW2 2089   2.443   0.228   2.750
  694SOL     OW 2090   2.860   1.437   2.330
  694SOL    HW1 2091   2.826   1.513   2.283
  694SOL    HW2 2092   2.860   1.464   2.422
  695SOL     OW 2093   2.217   1.806   2.719
  695SOL    HW1 2094   2.260   1.721   2.731
  695SOL    HW2 2095   2.284   1.870   2.743
  696SOL     OW 2096   2.184   0.954   2.113
  696SOL    HW1 2097   2.263   0.977   2.065
  696SOL    HW2 2098   2.151   0.875   2.070
  697SOL     OW 2099   2.328   1.738   2.183
  697SOL    HW1 2100   2.371   1.794   2.248
  697SOL    HW2 2101   2.399   1.706   2.128
  698SOL     OW 2102   2.128   1.800   0.104
  698SOL    HW1 2103   2.169   1.732   0.157
  698SOL    HW2 2104   2.078   1.752   0.038
  699SOL     OW 2105   2.792   1.700   2.757
  699SOL    HW1 2106   2.855   1.640   2.797
  699SOL    HW2 2107   2.754   1.651   2.684
  700SOL     OW 2108   2.259   0.688   2.340
  700SOL    HW1 2109   2.287   0.598   2.357
  700SOL    HW2 2110   2.165   0.688   2.358
  701SOL     OW 2111   2.492   0.121   1.972
  701SOL    HW1 2112   2.581   0.085   1.964
  701SOL    HW2 2113   2.451   0.102   1.888
  702SOL     OW 2114   2.663   1.399   2.794
  702SOL    HW1 2115   2.749   1.392   2.752
  702SOL    HW2 2116   2.600   1.397   2.721
  703SOL     OW 2117   2.782   0.523   2.755
  703SOL    HW1 2118   2.757   0.498   2.666
  703SOL    HW2 2119   2.813   0.442   2.795
  704SOL     OW 2120   2.407   0.061   2.368
  704SOL    HW1 2121   2.319   0.044   2.403
  704SOL    HW2 2122   2.394   0.131   2.304
  705SOL     OW 2123   2.146   0.033   2.062
  705SOL    HW1 2124   2.188   0.109   2.022
  705SOL    HW2 2125   2.219   2.975   2.086
  706SOL     OW 2126   2.810   0.253   2.318
  706SOL    HW1 2127   2.760   0.300   2.250
  706SOL    HW2 2128   2.890   0.225   2.273
  707SOL     OW 2129   0.084   1.577   2.660
  707SOL    HW1 2130   0.111   1.622   2.580
  707SOL    HW2 2131   0.166   1.554   2.703
  708SOL     OW 2132   2.330   1.146   2.596
  708SOL    HW1 2133   2.260   1.130   2.659
  708SOL    HW2 2134   2.289   1.131   2.510
  709SOL     OW 2135   2.884   0.548   1.882
  709SOL    HW1 2136   2.839   0.630   1.861
  709SOL    HW2 2137   2.937   0.569   1.959
  710SOL     OW 2138   2.741   0.466   2.494
  710SOL    HW1 2139   2.678   0.518   2.444
  710SOL    HW2 2140   2.740   0.380   2.452
  711SOL     OW 2141   2.857   0.057   2.613
  711SOL    HW1 2142   2.818   0.055   2.526
  711SOL    HW2 2143   2.835   2.971   2.650
  712SOL     OW 2144   2.354   1.416   2.021
  712SOL    HW1 2145   2.279   1.386   2.073
  712SOL    HW2 2146   2.331   1.392   1.931
  713SOL     OW 2147   2.394   0.264   2.181
  713SOL    HW1 2148   2.432   0.213   2.109
  713SOL    HW2 2149   2.368   0.347   2.141
  714SOL     OW 2150   2.570   1.062   2.232
  714SOL    HW1 2151   2.554   1.046   2.325
  714SOL    HW2 2152   2.649   1.011   2.212
  715SOL     OW 2153   2.213   1.108   2.351
  715SOL    HW1 2154   2.215   1.183   2.291
  715SOL    HW2 2155   2.210   1.032   2.294
  716SOL     OW 2156   2.409   0.544   2.730
  716SOL    HW1 2157   2.429   0.595   2.651
  716SOL    HW2 2158   2.480   0.566   2.791
  717SOL     OW 2159   2.439   0.873   2.880
  717SOL    HW1 2160   2.479   0.955   2.851
  717SOL    HW2 2161   2.422   0.886   2.973
  718SOL     OW 2162   0.054   0.533   2.131
  718SOL    HW1 2163   0.084   0.457   2.180
  718SOL    HW2 2164   0.022   0.593   2.198
  719SOL     OW 2165   2.598   0.647   2.917
  719SOL    HW1 2166   2.663   0.622   2.852
  719SOL    HW2 2167   2.559   0.727   2.884
  720SOL     OW 2168   2.172   0.065   2.508
  720SOL    HW1 2169   2.165   0.156   2.539
  720SOL    HW2 2170   2.153   0.012   2.585
  721SOL     OW 2171   2.874   0.779   2.831
  721SOL    HW1 2172   2.879   0.770   2.926
  721SOL    HW2 2173   2.867   0.689   2.799
  722SOL     OW 2174   2.908   1.344   2.697
  722SOL    HW1 2175   2.915   1.268   2.639
  722SOL    HW2 2176   2.975   1.405   2.664
  723SOL     OW 2177   2.170   0.811   2.810
  723SOL    HW1 2178   2.264   0.831   2.810
  723SOL    HW2 2179   2.165   0.719   2.837
  724SOL     OW 2180   2.179   0.539   2.870
  724SOL    HW1 2181   2.147   0.448   2.870
  724SOL    HW2 2182   2.258   0.536   2.816
  725SOL     OW 2183   1.867   1.321   2.058
  725SOL    HW1 2184   1.778   1.337   2.026
  725SOL    HW2 2185   1.866   1.231   2.090
  726SOL     OW 2186   1.951   1.794   2.794
  726SOL    HW1 2187   1.922   1.711   2.758
  726SOL    HW2 2188   2.043   1.801   2.769
  727SOL     OW 2189   2.365   1.578   2.764
  727SOL    HW1 2190   2.436   1.638   2.786
  727SOL    HW2 2191   2.406   1.512   2.708
  728SOL     OW 2192   2.841   0.754   0.107
  728SOL    HW1 2193   2.881   0.736   0.192
  728SOL    HW2 2194   2.749   0.770   0.126
  729SOL     OW 2195   2.669   0.564   2.216
  729SOL    HW1 2196   2.668   0.489   2.156
  729SOL    HW2 2197   2.595   0.618   2.188
  730SOL     OW 2198   2.557   0.435   0.079
  730SOL    HW1 2199   2.466   0.442   0.107
  730SOL    HW2 2200   2.570   0.513   0.024
  731SOL     OW 2201   2.328   0.494   2.048
  731SOL    HW1 2202   2.384   0.568   2.070
  731SOL    HW2 2203   2.241   0.532   2.036
  732SOL     OW 2204   1.942   1.269   2.886
  732SOL    HW1 2205   1.928   1.281   2.980
  732SOL    HW2 2206   1.869   1.214   2.858
  733SOL     OW 2207   2.532   1.620   2.017
  733SOL    HW1 2208   2.541   1.632   1.922
  733SOL    HW2 2209   2.477   1.542   2.026
  734SOL     OW 2210   2.132   0.328   2.615
  734SOL    HW1 2211   2.045   0.362   2.592
  734SOL    HW2 2212   2.127   0.310   2.709
  735SOL     OW 2213   2.788   0.923   2.155
  735SOL    HW1 2214   2.837   0.927   2.073
  735SOL    HW2 2215   2.820   0.844   2.198
  736SOL     OW 2216   2.915   1.079   2.585
  736SOL    HW1 2217   2.837   1.040   2.624
  736SOL    HW2 2218   2.928   1.031   2.503
  737SOL     OW 2219   2.883   0.238   2.816
  737SOL    HW1 2220   2.877   0.188   2.735
  737SOL    HW2 2221   2.873   0.172   2.885
  738SOL     OW 2222   2.462   1.488   2.341
  738SOL    HW1 2223   2.507   1.439   2.272
  738SOL    HW2 2224   2.394   1.537   2.295
  739SOL     OW 2225   2.122   1.343   2.152
  739SOL    HW1 2226   2.029   1.343   2.127
  739SOL    HW2 2227   2.123   1.382   2.239
  740SOL     OW 2228   1.940   0.335   1.899
  740SOL    HW1 2229   1.849   0.318   1.872
  740SOL    HW2 2230   1.967   0.410   1.845
  741SOL     OW 2231   1.896   0.209   2.158
  741SOL    HW1 2232   1.918   0.267   2.084
  741SOL    HW2 2233   1.963   0.141   2.155
  742SOL     OW 2234   2.459   0.738   2.529
  742SOL    HW1 2235   2.492   0.827   2.514
  742SOL    HW2 2236   2.387   0.729   2.466
  743SOL     OW 2237   2.733   1.369   1.901
  743SOL    HW1 2238   2.682   1.403   1.975
  743SOL    HW2 2239   2.746   1.445   1.845
  744SOL     OW 2240   2.528   1.797   2.824
  744SOL    HW1 2241   2.507   1.884   2.792
  744SOL    HW2 2242   2.621   1.785   2.804
  745SOL     OW 2243   2.711   0.963   2.720
  745SOL    HW1 2244   2.765   0.894   2.759
  745SOL    HW2 2245   2.684   1.016   2.795
  746SOL     OW 2246   2.941   0.949   1.927
  746SOL    HW1 2247   2.906   1.023   1.876
  746SOL    HW2 2248   0.020   0.984   1.968
  747SOL     OW 2249   1.945   1.236   2.528
  747SOL    HW1 2250   1.945   1.181   2.606
  747SOL    HW2 2251   2.013   1.198   2.472
  748SOL     OW 2252   2.336   0.429   2.413
  748SOL    HW1 2253   2.321   0.374   2.336
  748SOL    HW2 2254   2.269   0.402   2.475
  749SOL     OW 2255   2.685   1.580   2.536
  749SOL    HW1 2256   2.681   1.625   2.451
  749SOL    HW2 2257   2.608   1.523   2.537
  750SOL     OW 2258   2.634   1.334   2.177
  750SOL    HW1 2259   2.606   1.243   2.186
  750SOL    HW2 2260   2.714   1.339   2.228
  751SOL     OW 2261   1.905   1.071   2.169
  751SOL    HW1 2262   1.998   1.064   2.150
  751SOL    HW2 2263   1.878   0.982   2.191
  752SOL     OW 2264   2.739   1.647   2.209
  752SOL    HW1 2265   2.669   1.634   2.145
  752SOL    HW2 2266   2.716   1.728   2.254
  753SOL     OW 2267   2.089   2.501   0.112
  753SOL    HW1 2268   1.999   2.475   0.131
  753SOL    HW2 2269   2.107   2.463   0.026
  754SOL     OW 2270   2.086   2.144   0.992
  754SOL    HW1 2271   2.115   2.109   1.077
  754SOL    HW2 2272   1.997   2.111   0.982
  755SOL     OW 2273   1.868   2.247   0.639
  755SOL    HW1 2274   1.783   2.267   0.680
  755SOL    HW2 2275   1.851   2.169   0.586
  756SOL     OW 2276   2.588   2.999   1.022
  756SOL    HW1 2277   2.521   0.052   1.065
  756SOL    HW2 2278   2.638   0.062   0.970
  757SOL     OW 2279   2.726   2.634   1.822
  757SOL    HW1 2280   2.723   2.694   1.896
  757SOL    HW2 2281   2.755   2.687   1.748
  758SOL     OW 2282   2.513   2.848   0.710
  758SOL    HW1 2283   2.607   2.856   0.722
  758SOL    HW2 2284   2.488   2.926   0.661
  759SOL     OW 2285   2.309   2.261   1.488
  759SOL    HW1 2286   2.384   2.201   1.492
  759SOL    HW2 2287   2.233   2.205   1.501
  760SOL     OW 2288   2.113   0.313   0.475
  760SOL    HW1 2289   2.056   0.387   0.497
  760SOL    HW2 2290   2.058   0.236   0.486
  761SOL     OW 2291   2.108   2.947   0.883
  761SOL    HW1 2292   2.128   2.859   0.915
  761SOL    HW2 2293   2.061   2.988   0.956
  762SOL     OW 2294   2.481   2.832   0.149
  762SOL    HW1 2295   2.463   2.925   0.137
  762SOL    HW2 2296   2.554   2.829   0.211
  763SOL     OW 2297   1.977   2.511   0.561
  763SOL    HW1 2298   1.949   2.422   0.583
  763SOL    HW2 2299   1.969   2.559   0.644
  764SOL     OW 2300   1.986   2.605   1.583
  764SOL    HW1 2301   2.080   2.623   1.595
  764SOL    HW2 2302   1.943   2.687   1.607
  765SOL     OW 2303   2.530   0.251   0.674
  765SOL    HW1 2304   2.473   0.187   0.716
  765SOL    HW2 2305   2.470   0.310   0.628
  766SOL     OW 2306   2.675   1.864   0.507
  766SOL    HW1 2307   2.714   1.951   0.493
  766SOL    HW2 2308   2.581   1.881   0.516
  767SOL     OW 2309   2.056   2.842   1.256
  767SOL    HW1 2310   2.138   2.793   1.249
  767SOL    HW2 2311   1.988   2.780   1.229
  768SOL     OW 2312   2.196   2.113   1.814
  768SOL    HW1 2313   2.237   2.198   1.829
  768SOL    HW2 2314   2.105   2.125   1.843
  769SOL     OW 2315   2.452   2.580   0.272
  769SOL    HW1 2316   2.458   2.661   0.221
  769SOL    HW2 2317   2.387   2.599   0.339
  770SOL     OW 2318   2.653   2.489   1.451
  770SOL    HW1 2319   2.630   2.462   1.539
  770SOL    HW2 2320   2.617   2.420   1.394
  771SOL     OW 2321   2.825   2.744   1.583
  771SOL    HW1 2322   2.851   2.661   1.544
  771SOL    HW2 2323   2.773   2.787   1.514
  772SOL     OW 2324   2.849   2.236   1.257
  772SOL    HW1 2325   2.768   2.278   1.285
  772SOL    HW2 2326   2.840   2.229   1.162
  773SOL     OW 2327   2.887   2.582   0.408
  773SOL    HW1 2328   2.930   2.563   0.491
  773SOL    HW2 2329   2.814   2.519   0.404
  774SOL     OW 2330   1.946   2.683   0.777
  774SOL    HW1 2331   2.029   2.672   0.822
  774SOL    HW2 2332   1.910   2.765   0.811
  775SOL     OW 2333   2.787   2.192   0.218
  775SOL    HW1 2334   2.780   2.259   0.151
  775SOL    HW2 2335   2.760   2.111   0.174
  776SOL     OW 2336   2.411   2.045   0.893
  776SOL    HW1 2337   2.414   2.073   0.985
  776SOL    HW2 2338   2.412   2.127   0.843
  777SOL     OW 2339   2.062   2.143   1.503
  777SOL    HW1 2340   1.979   2.190   1.498
  777SOL    HW2 2341   2.045   2.068   1.560
  778SOL     OW 2342   2.252   2.555   0.474
  778SOL    HW1 2343   2.273   2.463   0.486
  778SOL    HW2 2344   2.158   2.560   0.493
  779SOL     OW 2345   2.486   1.978   0.116
  779SOL    HW1 2346   2.581   1.966   0.117
  779SOL    HW2 2347   2.458   1.933   0.036
  780SOL     OW 2348   2.628   2.144   1.758
  780SOL    HW1 2349   2.702   2.084   1.764
  780SOL    HW2 2350   2.570   2.119   1.829
  781SOL     OW 2351   2.789   2.365   0.902
  781SOL    HW1 2352   2.761   2.354   0.811
  781SOL    HW2 2353   2.825   2.280   0.927
  782SOL     OW 2354   2.410   1.924   0.503
  782SOL    HW1 2355   2.330   1.925   0.556
  782SOL    HW2 2356   2.402   2.001   0.446
  783SOL     OW 2357   2.815   2.100   0.465
  783SOL    HW1 2358   2.781   2.148   0.390
  783SOL    HW2 2359   2.902   2.070   0.438
  784SOL     OW 2360   2.887   2.376   0.037
  784SOL    HW1 2361   2.843   2.459   0.019
  784SOL    HW2 2362   2.943   2.394   0.113
  785SOL     OW 2363   1.940   2.418   1.390
  785SOL    HW1 2364   2.032   2.415   1.364
  785SOL    HW2 2365   1.936   2.488   1.456
  786SOL     OW 2366   2.422   2.089   1.166
  786SOL    HW1 2367   2.462   2.011   1.203
  786SOL    HW2 2368   2.331   2.087   1.196
  787SOL     OW 2369   2.743   2.319   0.634
  787SOL    HW1 2370   2.685   2.378   0.586
  787SOL    HW2 2371   2.744   2.239   0.582
  788SOL     OW 2372   2.855   1.925   0.757
  788SOL    HW1 2373   2.811   1.905   0.675
  788SOL    HW2 2374   2.848   1.844   0.808
  789SOL     OW 2375   2.375   2.121   0.321
  789SOL    HW1 2376   2.420   2.074   0.251
  789SOL    HW2 2377   2.361   2.209   0.285
  790SOL     OW 2378   2.751   1.949   1.385
  790SOL    HW1 2379   2.777   1.933   1.295
  790SOL    HW2 2380   2.827   1.991   1.426
  791SOL     OW 2381   2.275   2.679   1.254
  791SOL    HW1 2382   2.346   2.686   1.318
  791SOL    HW2 2383   2.242   2.590   1.264
  792SOL     OW 2384   2.417   2.396   0.861
  792SOL    HW1 2385   2.431   2.452   0.785
  792SOL    HW2 2386   2.482   2.425   0.925
  793SOL     OW 2387   2.275   2.602   1.604
  793SOL    HW1 2388   2.337   2.646   1.546
  793SOL    HW2 2389   2.314   2.516   1.619
  794SOL     OW 2390   2.856   1.991   1.774
  794SOL    HW1 2391   2.902   2.042   1.707
  794SOL    HW2 2392   2.898   1.905   1.772
  795SOL     OW 2393   2.360   1.906   1.747
  795SOL    HW1 2394   2.317   1.850   1.682
  795SOL    HW2 2395   2.299   1.979   1.759
  796SOL     OW 2396   2.450   2.730   1.035
  796SOL    HW1 2397   2.469   2.822   1.017
  796SOL    HW2 2398   2.389   2.732   1.108
  797SOL     OW 2399   0.061   2.399   0.267
  797SOL    HW1 2400   0.075   2.318   0.316
  797SOL    HW2 2401   0.035   2.463   0.334
  798SOL     OW 2402   2.162   2.062   1.246
  798SOL    HW1 2403   2.124   2.094   1.329
  798SOL    HW2 2404   2.144   1.968   1.247
  799SOL     OW 2405   2.587   2.491   1.059
  799SOL    HW1 2406   2.666   2.481   1.005
  799SOL    HW2 2407   2.558   2.581   1.041
  800SOL     OW 2408   2.163   1.927   0.623
  800SOL    HW1 2409   2.145   2.018   0.647
  800SOL    HW2 2410   2.172   1.881   0.706
  801SOL     OW 2411   2.857   2.622   0.982
  801SOL    HW1 2412   2.913   2.615   1.059
  801SOL    HW2 2413   2.860   2.535   0.943
  802SOL     OW 2414   2.226   2.788   1.801
  802SOL    HW1 2415   2.289   2.776   1.872
  802SOL    HW2 2416   2.245   2.716   1.740
  803SOL     OW 2417   2.174   2.674   0.945
  803SOL    HW1 2418   2.267   2.690   0.933
  803SOL    HW2 2419   2.169   2.585   0.981
  804SOL     OW 2420   2.193   2.389   1.011
  804SOL    HW1 2421   2.159   2.301   0.997
  804SOL    HW2 2422   2.271   2.393   0.955
  805SOL     OW 2423   2.965   2.242   1.669
  805SOL    HW1 2424   2.906   2.300   1.717
  805SOL    HW2 2425   0.051   2.285   1.675
  806SOL     OW 2426   2.973   2.069   1.467
  806SOL    HW1 2427   2.961   2.138   1.532
  806SOL    HW2 2428   2.967   2.115   1.383
  807SOL     OW 2429   2.859   2.666   1.268
  807SOL    HW1 2430   2.911   2.594   1.305
  807SOL    HW2 2431   2.777   2.625   1.241
  808SOL     OW 2432   1.897   2.409   1.116
  808SOL    HW1 2433   1.977   2.391   1.067
  808SOL    HW2 2434   1.925   2.411   1.207
  809SOL     OW 2435   2.051   2.380   1.725
  809SOL    HW1 2436   2.106   2.340   1.658
  809SOL    HW2 2437   2.008   2.453   1.680
  810SOL     OW 2438   2.668   2.426   0.358
  810SOL    HW1 2439   2.670   2.357   0.292
  810SOL    HW2 2440   2.594   2.482   0.333
  811SOL     OW 2441   2.562   2.315   1.262
  811SOL    HW1 2442   2.511   2.240   1.232
  811SOL    HW2 2443   2.560   2.377   1.189
  812SOL     OW 2444   2.307   2.356   0.206
  812SOL    HW1 2445   2.370   2.425   0.225
  812SOL    HW2 2446   2.226   2.402   0.184
  813SOL     OW 2447   2.021   2.996   1.476
  813SOL    HW1 2448   2.022   2.939   1.552
  813SOL    HW2 2449   2.035   2.937   1.402
  814SOL     OW 2450   2.761   1.932   0.124
  814SOL    HW1 2451   2.818   1.902   0.053
  814SOL    HW2 2452   2.800   1.894   0.203
  815SOL     OW 2453   2.124   2.177   0.718
  815SOL    HW1 2454   2.039   2.214   0.695
  815SOL    HW2 2455   2.121   2.169   0.814
  816SOL     OW 2456   2.674   2.866   1.378
  816SOL    HW1 2457   2.731   2.837   1.307
  816SOL    HW2 2458   2.700   2.957   1.395
  817SOL     OW 2459   2.738   2.789   0.284
  817SOL    HW1 2460   2.821   2.838   0.276
  817SOL    HW2 2461   2.756   2.723   0.351
  818SOL     OW 2462   2.881   2.104   0.968
  818SOL    HW1 2463   2.876   2.055   0.886
  818SOL    HW2 2464   2.869   2.037   1.036
  819SOL     OW 2465   1.975   2.863   1.708
  819SOL    HW1 2466   1.900   2.856   1.766
  819SOL    HW2 2467   2.051   2.846   1.764
  820SOL     OW 2468   2.526   2.063   1.501
  820SOL    HW1 2469   2.607   2.040   1.455
  820SOL    HW2 2470   2.555   2.094   1.587
  821SOL     OW 2471   1.934   2.017   0.341
  821SOL    HW1 2472   1.899   2.057   0.262
  821SOL    HW2 2473   2.027   2.004   0.323
  822SOL     OW 2474   2.475   2.693   1.435
  822SOL    HW1 2475   2.532   2.768   1.419
  822SOL    HW2 2476   2.534   2.618   1.442
  823SOL     OW 2477   2.579   2.425   1.701
  823SOL    HW1 2478   2.616   2.489   1.762
  823SOL    HW2 2479   2.604   2.340   1.737
  824SOL     OW 2480   2.455   2.585   0.665
  824SOL    HW1 2481   2.477   2.677   0.678
  824SOL    HW2 2482   2.387   2.586   0.597
  825SOL     OW 2483   2.754   2.839   0.865
  825SOL    HW1 2484   2.784   2.754   0.899
  825SOL    HW2 2485   2.679   2.862   0.920
  826SOL     OW 2486   2.293   2.295   0.529
  826SOL    HW1 2487   2.320   2.224   0.471
  826SOL    HW2 2488   2.244   2.251   0.599
  827SOL     OW 2489   2.192   2.417   1.291
  827SOL    HW1 2490   2.247   2.362   1.347
  827SOL    HW2 2491   2.212   2.388   1.202
  828SOL     OW 2492   2.868   1.878   1.140
  828SOL    HW1 2493   2.815   1.808   1.102
  828SOL    HW2 2494   2.958   1.857   1.115
  829SOL     OW 2495   1.867   2.914   0.300
  829SOL    HW1 2496   1.951   2.915   0.255
  829SOL    HW2 2497   1.860   2.825   0.335
  830SOL     OW 2498   2.094   2.472   1.982
  830SOL    HW1 2499   2.006   2.487   2.017
  830SOL    HW2 2500   2.080   2.451   1.890
  831SOL     OW 2501   2.090   2.144   2.846
  831SOL    HW1 2502   2.116   2.117   2.933
  831SOL    HW2 2503   2.000   2.113   2.836
  832SOL     OW 2504   1.868   2.246   2.497
  832SOL    HW1 2505   1.786   2.272   2.538
  832SOL    HW2 2506   1.848   2.165   2.451
  833SOL     OW 2507   2.639   0.017   2.876
  833SOL    HW1 2508   2.549   0.026   2.907
  833SOL    HW2 2509   2.652   0.092   2.817
  834SOL     OW 2510   2.508   2.845   2.570
  834SOL    HW1 2511   2.601   2.846   2.594
  834SOL    HW2 2512   2.494   2.927   2.523
  835SOL     OW 2513   2.103   0.306   2.329
  835SOL    HW1 2514   2.048   0.381   2.356
  835SOL    HW2 2515   2.056   0.229   2.363
  836SOL     OW 2516   2.112   2.950   2.750
  836SOL    HW1 2517   2.130   2.860   2.778
  836SOL    HW2 2518   2.056   2.985   2.819
  837SOL     OW 2519   2.462   2.823   1.999
  837SOL    HW1 2520   2.457   2.906   1.951
  837SOL    HW2 2521   2.535   2.834   2.059
  838SOL     OW 2522   1.978   2.510   2.425
  838SOL    HW1 2523   1.950   2.421   2.446
  838SOL    HW2 2524   1.970   2.559   2.507
  839SOL     OW 2525   2.494   0.244   2.571
  839SOL    HW1 2526   2.462   0.163   2.530
  839SOL    HW2 2527   2.466   0.314   2.511
  840SOL     OW 2528   2.676   1.864   2.368
  840SOL    HW1 2529   2.715   1.949   2.352
  840SOL    HW2 2530   2.582   1.882   2.379
  841SOL     OW 2531   2.061   2.805   0.118
  841SOL    HW1 2532   2.126   2.735   0.110
  841SOL    HW2 2533   1.978   2.765   0.090
  842SOL     OW 2534   2.457   2.578   2.131
  842SOL    HW1 2535   2.460   2.657   2.076
  842SOL    HW2 2536   2.391   2.597   2.197
  843SOL     OW 2537   2.893   2.579   2.272
  843SOL    HW1 2538   2.924   2.568   2.362
  843SOL    HW2 2539   2.815   2.524   2.267
  844SOL     OW 2540   1.946   2.684   2.638
  844SOL    HW1 2541   2.028   2.671   2.686
  844SOL    HW2 2542   1.909   2.764   2.676
  845SOL     OW 2543   2.751   2.207   2.058
  845SOL    HW1 2544   2.789   2.269   1.997
  845SOL    HW2 2545   2.752   2.123   2.012
  846SOL     OW 2546   2.410   2.047   2.767
  846SOL    HW1 2547   2.377   2.086   2.848
  846SOL    HW2 2548   2.422   2.121   2.707
  847SOL     OW 2549   2.252   2.555   2.335
  847SOL    HW1 2550   2.274   2.462   2.347
  847SOL    HW2 2551   2.159   2.560   2.356
  848SOL     OW 2552   2.500   1.986   1.964
  848SOL    HW1 2553   2.560   1.914   1.982
  848SOL    HW2 2554   2.447   1.955   1.890
  849SOL     OW 2555   2.786   2.378   2.756
  849SOL    HW1 2556   2.762   2.355   2.666
  849SOL    HW2 2557   2.815   2.295   2.795
  850SOL     OW 2558   2.411   1.926   2.365
  850SOL    HW1 2559   2.329   1.925   2.416
  850SOL    HW2 2560   2.404   2.004   2.310
  851SOL     OW 2561   2.152   1.910   2.047
  851SOL    HW1 2562   2.211   1.974   2.006
  851SOL    HW2 2563   2.211   1.846   2.087
  852SOL     OW 2564   2.807   2.102   2.312
  852SOL    HW1 2565   2.771   2.150   2.237
  852SOL    HW2 2566   2.895   2.077   2.283
  853SOL     OW 2567   2.884   2.412   1.882
  853SOL    HW1 2568   2.836   2.491   1.859
  853SOL    HW2 2569   2.932   2.435   1.962
  854SOL     OW 2570   2.742   2.316   2.493
  854SOL    HW1 2571   2.683   2.377   2.447
  854SOL    HW2 2572   2.742   2.237   2.439
  855SOL     OW 2573   2.853   1.925   2.608
  855SOL    HW1 2574   2.805   1.897   2.530
  855SOL    HW2 2575   2.849   1.849   2.667
  856SOL     OW 2576   2.390   2.124   2.180
  856SOL    HW1 2577   2.433   2.077   2.108
  856SOL    HW2 2578   2.367   2.209   2.143
  857SOL     OW 2579   2.415   2.391   2.724
  857SOL    HW1 2580   2.429   2.448   2.648
  857SOL    HW2 2581   2.477   2.423   2.790
  858SOL     OW 2582   2.435   2.729   2.888
  858SOL    HW1 2583   2.475   2.805   2.846
  858SOL    HW2 2584   2.433   2.751   2.981
  859SOL     OW 2585   0.052   2.392   2.136
  859SOL    HW1 2586   0.084   2.319   2.189
  859SOL    HW2 2587   0.011   2.451   2.199
  860SOL     OW 2588   2.158   2.070   0.093
  860SOL    HW1 2589   2.201   2.099   0.174
  860SOL    HW2 2590   2.153   1.975   0.102
  861SOL     OW 2591   2.590   2.498   2.911
  861SOL    HW1 2592   2.663   2.482   2.851
  861SOL    HW2 2593   2.558   2.585   2.887
  862SOL     OW 2594   2.164   1.927   2.483
  862SOL    HW1 2595   2.145   2.017   2.507
  862SOL    HW2 2596   2.170   1.881   2.567
  863SOL     OW 2597   2.875   2.632   2.824
  863SOL    HW1 2598   2.893   2.632   2.918
  863SOL    HW2 2599   2.867   2.540   2.801
  864SOL     OW 2600   2.171   2.673   2.807
  864SOL    HW1 2601   2.264   2.694   2.815
  864SOL    HW2 2602   2.164   2.582   2.834
  865SOL     OW 2603   2.181   2.400   2.865
  865SOL    HW1 2604   2.146   2.311   2.859
  865SOL    HW2 2605   2.263   2.397   2.815
  866SOL     OW 2606   2.876   2.642   0.097
  866SOL    HW1 2607   2.920   2.635   0.181
  866SOL    HW2 2608   2.790   2.679   0.118
  867SOL     OW 2609   2.674   2.429   2.221
  867SOL    HW1 2610   2.674   2.353   2.162
  867SOL    HW2 2611   2.599   2.481   2.192
  868SOL     OW 2612   2.566   2.308   0.098
  868SOL    HW1 2613   2.474   2.282   0.095
  868SOL    HW2 2614   2.573   2.380   0.035
  869SOL     OW 2615   2.329   2.352   2.049
  869SOL    HW1 2616   2.384   2.426   2.073
  869SOL    HW2 2617   2.243   2.389   2.035
  870SOL     OW 2618   0.163   2.700   2.157
  870SOL    HW1 2619   0.112   2.643   2.215
  870SOL    HW2 2620   0.203   2.640   2.094
  871SOL     OW 2621   2.125   2.179   2.576
  871SOL    HW1 2622   2.040   2.215   2.553
  871SOL    HW2 2623   2.123   2.172   2.671
  872SOL     OW 2624   2.755   2.766   2.107
  872SOL    HW1 2625   2.832   2.820   2.091
  872SOL    HW2 2626   2.783   2.705   2.176
  873SOL     OW 2627   2.876   2.104   2.814
  873SOL    HW1 2628   2.870   2.055   2.732
  873SOL    HW2 2629   2.903   2.039   2.879
  874SOL     OW 2630   1.939   2.194   1.897
  874SOL    HW1 2631   1.853   2.174   1.861
  874SOL    HW2 2632   1.969   2.270   1.846
  875SOL     OW 2633   1.930   2.020   2.173
  875SOL    HW1 2634   1.917   2.099   2.121
  875SOL    HW2 2635   2.015   1.986   2.143
  876SOL     OW 2636   2.456   2.581   2.525
  876SOL    HW1 2637   2.478   2.673   2.539
  876SOL    HW2 2638   2.386   2.582   2.460
  877SOL     OW 2639   2.744   2.832   2.711
  877SOL    HW1 2640   2.788   2.756   2.749
  877SOL    HW2 2641   2.710   2.880   2.786
  878SOL     OW 2642   2.953   2.839   1.900
  878SOL    HW1 2643   2.916   2.927   1.913
  878SOL    HW2 2644   0.009   2.825   1.976
  879SOL     OW 2645   2.293   2.295   2.387
  879SOL    HW1 2646   2.320   2.223   2.330
  879SOL    HW2 2647   2.244   2.253   2.458
  880SOL     OW 2648   1.885   2.920   2.178
  880SOL    HW1 2649   1.968   2.931   2.132
  880SOL    HW2 2650   1.880   2.827   2.198
   3.00000   3.00000   3.00000
