UNNAMED in water
 2638
    1ARG      N    1   1.154   1.373   1.652
    1ARG     H1    2   1.109   1.389   1.559
    1ARG     H2    3   1.119   1.281   1.691
    1ARG     H3    4   1.124   1.445   1.720
    1ARG     CA    5   1.304   1.376   1.644
    1ARG     HA    6   1.336   1.283   1.598
    1ARG     CB    7   1.350   1.499   1.558
    1ARG    HB1    8   1.291   1.501   1.463
    1ARG    HB2    9   1.327   1.592   1.615
    1ARG     CG   10   1.500   1.503   1.521
    1ARG    HG1   11   1.560   1.514   1.615
    1ARG    HG2   12   1.530   1.406   1.476
    1ARG     CD   13   1.541   1.620   1.430
    1ARG    HD1   14   1.485   1.617   1.333
    1ARG    HD2   15   1.520   1.717   1.480
    1ARG     NE   16   1.689   1.609   1.409
    1ARG     HE   17   1.747   1.597   1.491
    1ARG     CZ   18   1.754   1.602   1.292
    1ARG    NH1   19   1.887   1.600   1.292
    1ARG   HH11   20   1.933   1.642   1.371
    1ARG   HH12   21   1.933   1.608   1.205
    1ARG    NH2   22   1.691   1.595   1.174
    1ARG   HH21   23   1.593   1.582   1.174
    1ARG   HH22   24   1.744   1.574   1.092
    1ARG      C   25   1.369   1.386   1.784
    1ARG    OT1   26   1.293   1.396   1.883
    1ARG    OT2   27   1.494   1.385   1.796
    2SOL     OW   28   0.235   0.661   0.105
    2SOL    HW1   29   0.169   0.613   0.155
    2SOL    HW2   30   0.250   0.607   0.027
    3SOL     OW   31   0.205   0.272   1.000
    3SOL    HW1   32   0.244   0.247   1.084
    3SOL    HW2   33   0.112   0.252   1.010
    4SOL     OW   34   0.008   0.387   0.659
    4SOL    HW1   35   2.925   0.425   0.685
    4SOL    HW2   36   2.984   0.314   0.601
    5SOL     OW   37   0.568   1.281   1.172
    5SOL    HW1   38   0.479   1.281   1.139
    5SOL    HW2   39   0.581   1.370   1.205
    6SOL     OW   40   1.557   1.511   0.702
    6SOL    HW1   41   1.514   1.494   0.786
    6SOL    HW2   42   1.485   1.517   0.640
    7SOL     OW   43   1.131   0.699   0.703
    7SOL    HW1   44   1.180   0.780   0.691
    7SOL    HW2   45   1.082   0.713   0.784
    8SOL     OW   46   1.766   0.594   0.232
    8SOL    HW1   47   1.744   0.580   0.140
    8SOL    HW2   48   1.727   0.519   0.278
    9SOL     OW   49   0.765   1.146   1.041
    9SOL    HW1   50   0.692   1.177   1.094
    9SOL    HW2   51   0.793   1.223   0.992
   10SOL     OW   52   0.855   0.784   1.819
   10SOL    HW1   53   0.859   0.852   1.885
   10SOL    HW2   54   0.885   0.827   1.738
   11SOL     OW   55   0.686   1.007   0.651
   11SOL    HW1   56   0.749   0.993   0.721
   11SOL    HW2   57   0.615   1.057   0.691
   12SOL     OW   58   0.707   1.153   1.808
   12SOL    HW1   59   0.753   1.235   1.830
   12SOL    HW2   60   0.622   1.181   1.775
   13SOL     OW   61   0.332   1.431   1.071
   13SOL    HW1   62   0.267   1.383   1.019
   13SOL    HW2   63   0.385   1.478   1.006
   14SOL     OW   64   0.450   0.402   1.494
   14SOL    HW1   65   0.524   0.342   1.496
   14SOL    HW2   66   0.373   0.346   1.506
   15SOL     OW   67   1.612   0.456   0.735
   15SOL    HW1   68   1.535   0.482   0.683
   15SOL    HW2   69   1.629   0.532   0.791
   16SOL     OW   70   0.219   1.715   0.480
   16SOL    HW1   71   0.240   1.796   0.525
   16SOL    HW2   72   0.288   1.704   0.415
   17SOL     OW   73   0.247   1.449   0.529
   17SOL    HW1   74   0.212   1.538   0.526
   17SOL    HW2   75   0.186   1.401   0.585
   18SOL     OW   76   0.255   1.082   0.891
   18SOL    HW1   77   0.253   0.996   0.933
   18SOL    HW2   78   0.196   1.136   0.943
   19SOL     OW   79   0.623   1.787   1.441
   19SOL    HW1   80   0.536   1.771   1.478
   19SOL    HW2   81   0.640   1.879   1.457
   20SOL     OW   82   0.591   0.975   0.148
   20SOL    HW1   83   0.606   1.048   0.087
   20SOL    HW2   84   0.632   1.003   0.230
   21SOL     OW   85   1.550   0.143   1.461
   21SOL    HW1   86   1.589   0.216   1.412
   21SOL    HW2   87   1.619   0.117   1.523
   22SOL     OW   88   0.123   0.628   0.570
   22SOL    HW1   89   0.083   0.551   0.611
   22SOL    HW2   90   0.118   0.695   0.638
   23SOL     OW   91   1.845   1.760   0.335
   23SOL    HW1   92   1.900   1.728   0.406
   23SOL    HW2   93   1.871   1.852   0.325
   24SOL     OW   94   0.019   1.599   0.114
   24SOL    HW1   95   0.020   1.504   0.131
   24SOL    HW2   96   2.992   1.638   0.198
   25SOL     OW   97   1.692   0.921   0.639
   25SOL    HW1   98   1.775   0.878   0.617
   25SOL    HW2   99   1.668   0.970   0.560
   26SOL     OW  100   1.646   1.108   0.431
   26SOL    HW1  101   1.731   1.114   0.389
   26SOL    HW2  102   1.651   1.168   0.505
   27SOL     OW  103   0.128   0.747   1.591
   27SOL    HW1  104   0.223   0.757   1.597
   27SOL    HW2  105   0.094   0.836   1.589
   28SOL     OW  106   0.610   1.381   0.735
   28SOL    HW1  107   0.563   1.298   0.743
   28SOL    HW2  108   0.594   1.409   0.645
   29SOL     OW  109   0.820   0.012   0.509
   29SOL    HW1  110   0.847   0.102   0.496
   29SOL    HW2  111   0.724   0.014   0.499
   30SOL     OW  112   0.188   0.958   1.274
   30SOL    HW1  113   0.273   0.919   1.252
   30SOL    HW2  114   0.125   0.911   1.219
   31SOL     OW  115   1.507   1.006   0.209
   31SOL    HW1  116   1.443   0.946   0.246
   31SOL    HW2  117   1.560   1.033   0.284
   32SOL     OW  118   1.186   1.797   1.609
   32SOL    HW1  119   1.196   1.877   1.556
   32SOL    HW2  120   1.144   1.735   1.550
   33SOL     OW  121   0.330   0.253   1.794
   33SOL    HW1  122   0.382   0.329   1.821
   33SOL    HW2  123   0.248   0.263   1.842
   34SOL     OW  124   1.462   1.423   0.946
   34SOL    HW1  125   1.400   1.432   1.018
   34SOL    HW2  126   1.458   1.331   0.922
   35SOL     OW  127   1.668   1.727   0.578
   35SOL    HW1  128   1.639   1.706   0.490
   35SOL    HW2  129   1.633   1.657   0.633
   36SOL     OW  130   0.591   0.720   0.265
   36SOL    HW1  131   0.602   0.802   0.217
   36SOL    HW2  132   0.530   0.740   0.335
   37SOL     OW  133   1.286   0.342   0.930
   37SOL    HW1  134   1.194   0.316   0.938
   37SOL    HW2  135   1.331   0.292   0.998
   38SOL     OW  136   1.583   1.668   0.310
   38SOL    HW1  137   1.672   1.703   0.302
   38SOL    HW2  138   1.557   1.647   0.220
   39SOL     OW  139   0.793   0.618   1.455
   39SOL    HW1  140   0.764   0.595   1.544
   39SOL    HW2  141   0.751   0.553   1.399
   40SOL     OW  142   1.397   0.478   1.677
   40SOL    HW1  143   1.397   0.520   1.763
   40SOL    HW2  144   1.454   0.402   1.688
   41SOL     OW  145   0.964   0.893   1.583
   41SOL    HW1  146   1.015   0.819   1.550
   41SOL    HW2  147   0.911   0.921   1.508
   42SOL     OW  148   0.995   0.423   1.229
   42SOL    HW1  149   0.918   0.436   1.284
   42SOL    HW2  150   0.964   0.370   1.156
   43SOL     OW  151   1.048   0.705   0.425
   43SOL    HW1  152   1.064   0.695   0.519
   43SOL    HW2  153   0.968   0.655   0.409
   44SOL     OW  154   0.103   0.817   0.763
   44SOL    HW1  155   0.180   0.813   0.818
   44SOL    HW2  156   0.042   0.873   0.811
   45SOL     OW  157   0.138   1.833   1.572
   45SOL    HW1  158   0.124   1.814   1.664
   45SOL    HW2  159   0.053   1.864   1.540
   46SOL     OW  160   0.929   0.338   0.220
   46SOL    HW1  161   0.936   0.399   0.147
   46SOL    HW2  162   0.882   0.263   0.184
   47SOL     OW  163   1.714   0.580   1.828
   47SOL    HW1  164   1.674   0.656   1.786
   47SOL    HW2  165   1.733   0.519   1.757
   48SOL     OW  166   1.375   1.141   0.541
   48SOL    HW1  167   1.453   1.128   0.488
   48SOL    HW2  168   1.322   1.205   0.493
   49SOL     OW  169   0.512   0.195   0.914
   49SOL    HW1  170   0.535   0.211   1.006
   49SOL    HW2  171   0.548   0.270   0.867
   50SOL     OW  172   1.009   1.449   0.475
   50SOL    HW1  173   0.967   1.518   0.424
   50SOL    HW2  174   0.990   1.472   0.566
   51SOL     OW  175   0.354   1.806   0.855
   51SOL    HW1  176   0.402   1.724   0.867
   51SOL    HW2  177   0.419   1.874   0.873
   52SOL     OW  178   1.799   1.063   0.867
   52SOL    HW1  179   1.744   1.044   0.792
   52SOL    HW2  180   1.738   1.065   0.941
   53SOL     OW  181   0.320   0.950   0.233
   53SOL    HW1  182   0.412   0.957   0.205
   53SOL    HW2  183   0.293   0.863   0.204
   54SOL     OW  184   1.475   0.739   0.728
   54SOL    HW1  185   1.463   0.693   0.811
   54SOL    HW2  186   1.552   0.794   0.742
   55SOL     OW  187   0.465   1.260   1.735
   55SOL    HW1  188   0.436   1.267   1.644
   55SOL    HW2  189   0.384   1.266   1.786
   56SOL     OW  190   1.112   1.777   0.224
   56SOL    HW1  191   1.053   1.730   0.282
   56SOL    HW2  192   1.141   1.711   0.161
   57SOL     OW  193   0.200   0.296   1.495
   57SOL    HW1  194   0.116   0.342   1.492
   57SOL    HW2  195   0.186   0.224   1.556
   58SOL     OW  196   1.627   1.364   0.084
   58SOL    HW1  197   1.599   1.455   0.075
   58SOL    HW2  198   1.546   1.313   0.078
   59SOL     OW  199   0.467   1.725   0.333
   59SOL    HW1  200   0.499   1.793   0.392
   59SOL    HW2  201   0.534   1.719   0.265
   60SOL     OW  202   1.409   0.108   0.436
   60SOL    HW1  203   1.390   0.081   0.346
   60SOL    HW2  204   1.503   0.126   0.436
   61SOL     OW  205   0.261   1.796   1.235
   61SOL    HW1  206   0.303   1.724   1.282
   61SOL    HW2  207   0.232   1.758   1.153
   62SOL     OW  208   0.929   1.687   0.913
   62SOL    HW1  209   1.018   1.653   0.912
   62SOL    HW2  210   0.889   1.654   0.833
   63SOL     OW  211   0.391   0.693   0.473
   63SOL    HW1  212   0.422   0.604   0.490
   63SOL    HW2  213   0.299   0.691   0.499
   64SOL     OW  214   1.539   0.248   1.734
   64SOL    HW1  215   1.542   0.257   1.829
   64SOL    HW2  216   1.483   0.172   1.718
   65SOL     OW  217   0.610   0.110   0.108
   65SOL    HW1  218   0.705   0.110   0.119
   65SOL    HW2  219   0.597   0.142   0.018
   66SOL     OW  220   0.766   0.270   1.748
   66SOL    HW1  221   0.840   0.213   1.765
   66SOL    HW2  222   0.722   0.278   1.833
   67SOL     OW  223   0.869   1.503   1.199
   67SOL    HW1  224   0.860   1.493   1.104
   67SOL    HW2  225   0.957   1.471   1.218
   68SOL     OW  226   1.343   0.589   1.432
   68SOL    HW1  227   1.372   0.556   1.517
   68SOL    HW2  228   1.377   0.679   1.429
   69SOL     OW  229   0.812   1.392   0.932
   69SOL    HW1  230   0.895   1.396   0.885
   69SOL    HW2  231   0.745   1.396   0.864
   70SOL     OW  232   0.927   0.510   0.903
   70SOL    HW1  233   0.905   0.502   0.810
   70SOL    HW2  234   0.959   0.424   0.927
   71SOL     OW  235   0.541   0.050   0.498
   71SOL    HW1  236   0.454   0.041   0.538
   71SOL    HW2  237   0.533   0.127   0.442
   72SOL     OW  238   1.412   1.208   0.049
   72SOL    HW1  239   1.433   1.133   0.104
   72SOL    HW2  240   1.323   1.233   0.074
   73SOL     OW  241   0.300   0.081   0.196
   73SOL    HW1  242   0.382   0.131   0.189
   73SOL    HW2  243   0.328   2.990   0.201
   74SOL     OW  244   0.944   0.253   0.474
   74SOL    HW1  245   0.920   0.290   0.389
   74SOL    HW2  246   1.039   0.260   0.478
   75SOL     OW  247   1.079   0.679   1.459
   75SOL    HW1  248   1.009   0.615   1.467
   75SOL    HW2  249   1.159   0.627   1.453
   76SOL     OW  250   1.225   1.570   0.797
   76SOL    HW1  251   1.233   1.638   0.730
   76SOL    HW2  252   1.302   1.581   0.853
   77SOL     OW  253   0.466   1.146   0.739
   77SOL    HW1  254   0.394   1.127   0.799
   77SOL    HW2  255   0.429   1.133   0.651
   78SOL     OW  256   1.276   1.790   0.605
   78SOL    HW1  257   1.313   1.860   0.552
   78SOL    HW2  258   1.196   1.829   0.642
   79SOL     OW  259   1.044   0.501   0.029
   79SOL    HW1  260   1.001   0.585   0.019
   79SOL    HW2  261   1.111   0.516   0.096
   80SOL     OW  262   0.081   0.565   1.391
   80SOL    HW1  263   0.170   0.560   1.356
   80SOL    HW2  264   0.086   0.630   1.461
   81SOL     OW  265   0.579   0.214   1.177
   81SOL    HW1  266   0.612   0.164   1.250
   81SOL    HW2  267   0.485   0.225   1.196
   82SOL     OW  268   0.877   0.470   0.638
   82SOL    HW1  269   0.821   0.516   0.576
   82SOL    HW2  270   0.886   0.382   0.602
   83SOL     OW  271   0.999   0.054   0.766
   83SOL    HW1  272   0.963   0.062   0.677
   83SOL    HW2  273   0.976   2.965   0.793
   84SOL     OW  274   1.437   1.163   0.858
   84SOL    HW1  275   1.369   1.096   0.855
   84SOL    HW2  276   1.459   1.179   0.767
   85SOL     OW  277   1.469   0.601   0.980
   85SOL    HW1  278   1.419   0.520   0.987
   85SOL    HW2  279   1.529   0.599   1.055
   86SOL     OW  280   1.846   0.819   0.384
   86SOL    HW1  281   1.902   0.761   0.435
   86SOL    HW2  282   1.820   0.766   0.308
   87SOL     OW  283   0.490   1.405   0.153
   87SOL    HW1  284   0.424   1.375   0.216
   87SOL    HW2  285   0.442   1.412   0.070
   88SOL     OW  286   1.668   1.265   0.650
   88SOL    HW1  287   1.762   1.273   0.662
   88SOL    HW2  288   1.634   1.353   0.669
   89SOL     OW  289   1.414   0.576   0.098
   89SOL    HW1  290   1.341   0.567   0.160
   89SOL    HW2  291   1.461   0.493   0.104
   90SOL     OW  292   0.528   0.263   0.326
   90SOL    HW1  293   0.568   0.213   0.255
   90SOL    HW2  294   0.503   0.346   0.285
   91SOL     OW  295   1.760   1.235   1.553
   91SOL    HW1  296   1.846   1.199   1.572
   91SOL    HW2  297   1.745   1.300   1.621
   92SOL     OW  298   1.081   1.348   1.379
   92SOL    HW1  299   0.988   1.330   1.388
   92SOL    HW2  300   1.121   1.262   1.363
   93SOL     OW  301   1.120   1.218   1.113
   93SOL    HW1  302   1.035   1.226   1.155
   93SOL    HW2  303   1.101   1.232   1.020
   94SOL     OW  304   1.631   1.099   1.077
   94SOL    HW1  305   1.630   1.165   1.145
   94SOL    HW2  306   1.551   1.114   1.027
   95SOL     OW  307   0.901   0.109   1.389
   95SOL    HW1  308   0.941   0.090   1.303
   95SOL    HW2  309   0.966   0.162   1.434
   96SOL     OW  310   0.994   1.136   1.703
   96SOL    HW1  311   0.905   1.144   1.739
   96SOL    HW2  312   0.995   1.049   1.663
   97SOL     OW  313   0.704   1.062   0.378
   97SOL    HW1  314   0.690   1.049   0.472
   97SOL    HW2  315   0.784   1.013   0.359
   98SOL     OW  316   0.419   0.812   1.248
   98SOL    HW1  317   0.487   0.823   1.315
   98SOL    HW2  318   0.382   0.725   1.265
   99SOL     OW  319   1.272   0.388   1.259
   99SOL    HW1  320   1.300   0.460   1.316
   99SOL    HW2  321   1.178   0.401   1.248
  100SOL     OW  322   0.067   1.571   1.313
  100SOL    HW1  323   0.032   1.658   1.330
  100SOL    HW2  324   0.156   1.573   1.347
  101SOL     OW  325   0.360   1.109   0.491
  101SOL    HW1  326   0.350   1.183   0.431
  101SOL    HW2  327   0.356   1.032   0.434
  102SOL     OW  328   0.554   0.542   0.863
  102SOL    HW1  329   0.573   0.596   0.786
  102SOL    HW2  330   0.618   0.569   0.928
  103SOL     OW  331   1.247   1.346   0.397
  103SOL    HW1  332   1.302   1.420   0.423
  103SOL    HW2  333   1.159   1.369   0.427
  104SOL     OW  334   1.283   1.437   1.150
  104SOL    HW1  335   1.274   1.449   1.244
  104SOL    HW2  336   1.224   1.366   1.128
  105SOL     OW  337   1.584   0.627   0.478
  105SOL    HW1  338   1.539   0.684   0.540
  105SOL    HW2  339   1.629   0.688   0.418
  106SOL     OW  340   0.350   1.526   1.322
  106SOL    HW1  341   0.332   1.485   1.237
  106SOL    HW2  342   0.445   1.538   1.323
  107SOL     OW  343   0.410   0.741   1.601
  107SOL    HW1  344   0.468   0.791   1.543
  107SOL    HW2  345   0.458   0.660   1.618
  108SOL     OW  346   1.598   0.777   1.680
  108SOL    HW1  347   1.509   0.811   1.672
  108SOL    HW2  348   1.647   0.821   1.610
  109SOL     OW  349   1.003   0.109   1.762
  109SOL    HW1  350   1.045   0.191   1.736
  109SOL    HW2  351   1.026   0.048   1.693
  110SOL     OW  352   0.503   0.051   1.750
  110SOL    HW1  353   0.472   2.991   1.682
  110SOL    HW2  354   0.434   0.117   1.758
  111SOL     OW  355   0.584   0.871   1.032
  111SOL    HW1  356   0.609   0.964   1.026
  111SOL    HW2  357   0.526   0.866   1.107
  112SOL     OW  358   1.360   0.861   1.037
  112SOL    HW1  359   1.280   0.854   0.985
  112SOL    HW2  360   1.398   0.773   1.037
  113SOL     OW  361   1.206   0.531   0.271
  113SOL    HW1  362   1.214   0.450   0.322
  113SOL    HW2  363   1.164   0.593   0.332
  114SOL     OW  364   0.324   0.207   1.248
  114SOL    HW1  365   0.290   0.250   1.325
  114SOL    HW2  366   0.275   0.125   1.242
  115SOL     OW  367   0.033   1.305   1.279
  115SOL    HW1  368   0.068   1.259   1.356
  115SOL    HW2  369   0.044   1.398   1.301
  116SOL     OW  370   0.727   0.632   1.061
  116SOL    HW1  371   0.799   0.614   1.000
  116SOL    HW2  372   0.699   0.721   1.038
  117SOL     OW  373   1.733   0.960   1.850
  117SOL    HW1  374   1.684   0.905   1.790
  117SOL    HW2  375   1.677   0.967   1.928
  118SOL     OW  376   0.308   0.070   0.641
  118SOL    HW1  377   0.304   0.156   0.683
  118SOL    HW2  378   0.284   0.008   0.710
  119SOL     OW  379   1.614   0.373   0.368
  119SOL    HW1  380   1.645   0.309   0.432
  119SOL    HW2  381   1.589   0.449   0.420
  120SOL     OW  382   1.027   0.760   0.963
  120SOL    HW1  383   1.027   0.777   1.058
  120SOL    HW2  384   1.000   0.668   0.955
  121SOL     OW  385   1.872   1.522   1.601
  121SOL    HW1  386   1.930   1.490   1.533
  121SOL    HW2  387   1.929   1.543   1.675
  122SOL     OW  388   0.355   0.915   1.808
  122SOL    HW1  389   0.436   0.934   1.854
  122SOL    HW2  390   0.380   0.852   1.740
  123SOL     OW  391   1.504   0.300   0.125
  123SOL    HW1  392   1.463   0.215   0.142
  123SOL    HW2  393   1.560   0.315   0.201
  124SOL     OW  394   1.294   0.824   0.034
  124SOL    HW1  395   1.335   0.739   0.048
  124SOL    HW2  396   1.323   0.851   2.947
  125SOL     OW  397   1.075   1.331   0.857
  125SOL    HW1  398   1.070   1.262   0.790
  125SOL    HW2  399   1.128   1.399   0.817
  126SOL     OW  400   0.311   0.809   0.949
  126SOL    HW1  401   0.405   0.828   0.943
  126SOL    HW2  402   0.307   0.721   0.987
  127SOL     OW  403   0.336   0.514   1.016
  127SOL    HW1  404   0.295   0.431   0.991
  127SOL    HW2  405   0.409   0.524   0.956
  128SOL     OW  406   1.141   0.383   1.698
  128SOL    HW1  407   1.096   0.437   1.763
  128SOL    HW2  408   1.228   0.421   1.690
  129SOL     OW  409   1.100   0.255   1.471
  129SOL    HW1  410   1.123   0.306   1.549
  129SOL    HW2  411   1.185   0.235   1.430
  130SOL     OW  412   0.007   1.315   0.173
  130SOL    HW1  413   2.915   1.330   0.151
  130SOL    HW2  414   0.007   1.239   0.230
  131SOL     OW  415   0.098   1.806   0.965
  131SOL    HW1  416   0.058   1.739   0.909
  131SOL    HW2  417   0.184   1.822   0.926
  132SOL     OW  418   0.498   1.572   0.904
  132SOL    HW1  419   0.566   1.635   0.928
  132SOL    HW2  420   0.543   1.507   0.850
  133SOL     OW  421   0.988   0.798   1.230
  133SOL    HW1  422   1.040   0.769   1.305
  133SOL    HW2  423   0.903   0.757   1.243
  134SOL     OW  424   0.044   0.562   1.107
  134SOL    HW1  425   0.132   0.532   1.081
  134SOL    HW2  426   0.039   0.543   1.200
  135SOL     OW  427   0.193   0.517   1.719
  135SOL    HW1  428   0.266   0.493   1.661
  135SOL    HW2  429   0.157   0.597   1.681
  136SOL     OW  430   1.375   0.934   1.665
  136SOL    HW1  431   1.396   1.023   1.693
  136SOL    HW2  432   1.385   0.937   1.569
  137SOL     OW  433   0.818   0.577   0.347
  137SOL    HW1  434   0.822   0.498   0.294
  137SOL    HW2  435   0.737   0.620   0.322
  138SOL     OW  436   1.644   0.603   1.190
  138SOL    HW1  437   1.629   0.543   1.263
  138SOL    HW2  438   1.730   0.579   1.156
  139SOL     OW  439   0.282   1.560   1.748
  139SOL    HW1  440   0.221   1.618   1.794
  139SOL    HW2  441   0.252   1.472   1.768
  140SOL     OW  442   0.693   0.457   1.265
  140SOL    HW1  443   0.647   0.380   1.232
  140SOL    HW2  444   0.695   0.518   1.191
  141SOL     OW  445   0.956   1.678   1.466
  141SOL    HW1  446   0.920   1.646   1.383
  141SOL    HW2  447   0.936   1.772   1.465
  142SOL     OW  448   0.447   0.495   0.200
  142SOL    HW1  449   0.512   0.563   0.218
  142SOL    HW2  450   0.365   0.542   0.190
  143SOL     OW  451   0.160   1.144   1.465
  143SOL    HW1  452   0.146   1.094   1.546
  143SOL    HW2  453   0.168   1.077   1.397
  144SOL     OW  454   1.328   1.056   1.228
  144SOL    HW1  455   1.354   0.993   1.161
  144SOL    HW2  456   1.256   1.105   1.188
  145SOL     OW  457   1.307   0.851   0.311
  145SOL    HW1  458   1.229   0.822   0.359
  145SOL    HW2  459   1.284   0.840   0.219
  146SOL     OW  460   1.289   1.725   1.151
  146SOL    HW1  461   1.338   1.747   1.072
  146SOL    HW2  462   1.243   1.644   1.129
  147SOL     OW  463   0.092   1.244   1.027
  147SOL    HW1  464   0.076   1.259   1.120
  147SOL    HW2  465   0.008   1.260   0.985
  148SOL     OW  466   0.692   1.667   1.721
  148SOL    HW1  467   0.629   1.739   1.726
  148SOL    HW2  468   0.734   1.678   1.636
  149SOL     OW  469   0.883   0.082   0.142
  149SOL    HW1  470   0.942   0.063   0.070
  149SOL    HW2  471   0.915   0.028   0.214
  150SOL     OW  472   1.716   0.140   0.507
  150SOL    HW1  473   1.786   0.138   0.443
  150SOL    HW2  474   1.726   0.060   0.558
  151SOL     OW  475   1.390   1.568   0.482
  151SOL    HW1  476   1.450   1.601   0.415
  151SOL    HW2  477   1.344   1.647   0.513
  152SOL     OW  478   0.123   1.799   1.843
  152SOL    HW1  479   0.082   1.729   1.894
  152SOL    HW2  480   0.182   1.843   1.905
  153SOL     OW  481   1.277   0.925   0.671
  153SOL    HW1  482   1.350   0.863   0.675
  153SOL    HW2  483   1.311   0.998   0.619
  154SOL     OW  484   0.823   1.276   1.426
  154SOL    HW1  485   0.792   1.309   1.510
  154SOL    HW2  486   0.754   1.298   1.364
  155SOL     OW  487   0.672   1.608   0.158
  155SOL    HW1  488   0.671   1.627   0.065
  155SOL    HW2  489   0.617   1.530   0.168
  156SOL     OW  490   1.849   0.157   0.967
  156SOL    HW1  491   1.853   0.075   0.918
  156SOL    HW2  492   1.767   0.197   0.940
  157SOL     OW  493   0.268   0.335   0.742
  157SOL    HW1  494   0.178   0.365   0.728
  157SOL    HW2  495   0.268   0.304   0.833
  158SOL     OW  496   1.205   1.604   0.033
  158SOL    HW1  497   1.199   1.514   0.065
  158SOL    HW2  498   1.151   1.604   2.954
  159SOL     OW  499   0.823   1.006   1.375
  159SOL    HW1  500   0.860   1.001   1.286
  159SOL    HW2  501   0.823   1.099   1.395
  160SOL     OW  502   0.919   0.926   0.304
  160SOL    HW1  503   0.985   0.962   0.244
  160SOL    HW2  504   0.967   0.859   0.354
  161SOL     OW  505   1.489   1.602   0.050
  161SOL    HW1  506   1.394   1.614   0.054
  161SOL    HW2  507   1.514   1.636   2.964
  162SOL     OW  508   0.374   1.303   1.490
  162SOL    HW1  509   0.357   1.382   1.440
  162SOL    HW2  510   0.297   1.248   1.476
  163SOL     OW  511   1.616   1.286   1.275
  163SOL    HW1  512   1.679   1.270   1.346
  163SOL    HW2  513   1.541   1.327   1.317
  164SOL     OW  514   1.048   1.105   0.705
  164SOL    HW1  515   0.977   1.054   0.745
  164SOL    HW2  516   1.108   1.039   0.670
  165SOL     OW  517   1.018   0.242   0.965
  165SOL    HW1  518   1.011   0.191   0.884
  165SOL    HW2  519   1.020   0.177   1.035
  166SOL     OW  520   0.600   1.490   0.485
  166SOL    HW1  521   0.640   1.440   0.413
  166SOL    HW2  522   0.538   1.549   0.441
  167SOL     OW  523   1.719   0.391   1.379
  167SOL    HW1  524   1.791   0.455   1.376
  167SOL    HW2  525   1.747   0.321   1.321
  168SOL     OW  526   0.264   1.335   0.292
  168SOL    HW1  527   0.175   1.340   0.259
  168SOL    HW2  528   0.261   1.380   0.376
  169SOL     OW  529   0.125   1.013   1.709
  169SOL    HW1  530   0.050   0.972   1.753
  169SOL    HW2  531   0.201   0.978   1.754
  170SOL     OW  532   0.664   0.209   1.493
  170SOL    HW1  533   0.746   0.180   1.453
  170SOL    HW2  534   0.687   0.225   1.584
  171SOL     OW  535   0.070   0.316   0.050
  171SOL    HW1  536   2.977   0.326   0.032
  171SOL    HW2  537   0.109   0.399   0.022
  172SOL     OW  538   1.435   0.864   1.402
  172SOL    HW1  539   1.386   0.923   1.345
  172SOL    HW2  540   1.524   0.864   1.365
  173SOL     OW  541   0.037   0.185   0.290
  173SOL    HW1  542   0.045   0.244   0.215
  173SOL    HW2  543   0.125   0.149   0.302
  174SOL     OW  544   1.184   1.348   0.124
  174SOL    HW1  545   1.090   1.332   0.114
  174SOL    HW2  546   1.200   1.338   0.218
  175SOL     OW  547   0.617   0.831   1.433
  175SOL    HW1  548   0.672   0.908   1.420
  175SOL    HW2  549   0.678   0.758   1.441
  176SOL     OW  550   1.493   1.767   0.965
  176SOL    HW1  551   1.499   1.827   0.890
  176SOL    HW2  552   1.572   1.785   1.017
  177SOL     OW  553   0.715   0.565   1.708
  177SOL    HW1  554   0.752   0.632   1.766
  177SOL    HW2  555   0.758   0.484   1.734
  178SOL     OW  556   0.387   1.738   1.563
  178SOL    HW1  557   0.301   1.777   1.550
  178SOL    HW2  558   0.370   1.656   1.611
  179SOL     OW  559   1.672   0.882   1.255
  179SOL    HW1  560   1.664   0.796   1.214
  179SOL    HW2  561   1.663   0.944   1.183
  180SOL     OW  562   1.226   0.318   0.454
  180SOL    HW1  563   1.287   0.244   0.453
  180SOL    HW2  564   1.249   0.367   0.532
  181SOL     OW  565   0.593   0.741   0.665
  181SOL    HW1  566   0.631   0.828   0.651
  181SOL    HW2  567   0.520   0.737   0.602
  182SOL     OW  568   1.766   0.352   1.645
  182SOL    HW1  569   1.745   0.376   1.555
  182SOL    HW2  570   1.685   0.317   1.681
  183SOL     OW  571   1.743   0.936   1.513
  183SOL    HW1  572   1.745   1.031   1.523
  183SOL    HW2  573   1.728   0.923   1.419
  184SOL     OW  574   0.906   1.385   0.061
  184SOL    HW1  575   0.833   1.387   0.123
  184SOL    HW2  576   0.868   1.418   2.979
  185SOL     OW  577   0.657   1.794   0.946
  185SOL    HW1  578   0.639   1.885   0.924
  185SOL    HW2  579   0.752   1.787   0.946
  186SOL     OW  580   0.866   0.965   0.857
  186SOL    HW1  581   0.915   0.894   0.898
  186SOL    HW2  582   0.833   1.017   0.930
  187SOL     OW  583   1.100   1.019   0.099
  187SOL    HW1  584   1.064   1.055   0.018
  187SOL    HW2  585   1.165   0.955   0.071
  188SOL     OW  586   1.837   1.551   0.882
  188SOL    HW1  587   1.785   1.553   0.801
  188SOL    HW2  588   1.868   1.460   0.888
  189SOL     OW  589   0.223   1.304   1.854
  189SOL    HW1  590   0.175   1.224   1.832
  189SOL    HW2  591   0.211   1.314   1.949
  190SOL     OW  592   0.126   1.252   0.666
  190SOL    HW1  593   0.081   1.185   0.717
  190SOL    HW2  594   0.174   1.202   0.599
  191SOL     OW  595   0.682   1.399   1.623
  191SOL    HW1  596   0.602   1.354   1.651
  191SOL    HW2  597   0.674   1.487   1.660
  192SOL     OW  598   1.799   0.179   1.235
  192SOL    HW1  599   1.841   0.100   1.270
  192SOL    HW2  600   1.824   0.180   1.143
  193SOL     OW  601   0.460   0.434   0.544
  193SOL    HW1  602   0.453   0.370   0.472
  193SOL    HW2  603   0.403   0.399   0.612
  194SOL     OW  604   0.331   0.554   1.290
  194SOL    HW1  605   0.387   0.498   1.345
  194SOL    HW2  606   0.351   0.526   1.201
  195SOL     OW  607   0.828   1.573   0.679
  195SOL    HW1  608   0.824   1.631   0.603
  195SOL    HW2  609   0.746   1.525   0.677
  196SOL     OW  610   1.429   0.215   1.127
  196SOL    HW1  611   1.448   0.143   1.187
  196SOL    HW2  612   1.379   0.278   1.180
  197SOL     OW  613   1.013   0.028   1.149
  197SOL    HW1  614   0.935   2.990   1.109
  197SOL    HW2  615   1.081   2.961   1.136
  198SOL     OW  616   0.765   1.329   0.312
  198SOL    HW1  617   0.734   1.240   0.328
  198SOL    HW2  618   0.851   1.332   0.353
  199SOL     OW  619   0.618   1.560   1.285
  199SOL    HW1  620   0.624   1.641   1.336
  199SOL    HW2  621   0.705   1.549   1.247
  200SOL     OW  622   1.357   0.055   0.171
  200SOL    HW1  623   1.412   2.984   0.139
  200SOL    HW2  624   1.267   0.025   0.157
  201SOL     OW  625   1.298   0.460   0.683
  201SOL    HW1  626   1.242   0.537   0.691
  201SOL    HW2  627   1.295   0.419   0.769
  202SOL     OW  628   1.606   0.231   0.887
  202SOL    HW1  629   1.525   0.227   0.938
  202SOL    HW2  630   1.594   0.306   0.829
  203SOL     OW  631   0.069   1.090   0.341
  203SOL    HW1  632   0.148   1.052   0.303
  203SOL    HW2  633   0.005   1.019   0.338
  204SOL     OW  634   0.883   1.650   0.342
  204SOL    HW1  635   0.811   1.629   0.282
  204SOL    HW2  636   0.851   1.724   0.394
  205SOL     OW  637   0.239   0.647   1.973
  205SOL    HW1  638   0.171   0.609   2.028
  205SOL    HW2  639   0.227   0.605   1.887
  206SOL     OW  640   0.236   0.248   2.850
  206SOL    HW1  641   0.252   0.236   2.943
  206SOL    HW2  642   0.141   0.238   2.841
  207SOL     OW  643   0.007   0.385   2.522
  207SOL    HW1  644   2.923   0.423   2.546
  207SOL    HW2  645   2.986   0.313   2.463
  208SOL     OW  646   1.557   1.510   2.567
  208SOL    HW1  647   1.510   1.493   2.649
  208SOL    HW2  648   1.489   1.517   2.501
  209SOL     OW  649   1.132   0.698   2.566
  209SOL    HW1  650   1.182   0.778   2.551
  209SOL    HW2  651   1.083   0.715   2.646
  210SOL     OW  652   1.766   0.607   2.094
  210SOL    HW1  653   1.746   0.599   2.000
  210SOL    HW2  654   1.731   0.527   2.132
  211SOL     OW  655   0.751   1.145   2.895
  211SOL    HW1  656   0.685   1.191   2.947
  211SOL    HW2  657   0.803   1.215   2.855
  212SOL     OW  658   0.684   1.008   2.510
  212SOL    HW1  659   0.749   0.993   2.579
  212SOL    HW2  660   0.614   1.057   2.554
  213SOL     OW  661   0.330   1.452   2.933
  213SOL    HW1  662   0.278   1.387   2.885
  213SOL    HW2  663   0.386   1.491   2.866
  214SOL     OW  664   1.615   0.456   2.593
  214SOL    HW1  665   1.539   0.480   2.540
  214SOL    HW2  666   1.618   0.522   2.662
  215SOL     OW  667   0.221   1.712   2.346
  215SOL    HW1  668   0.242   1.795   2.388
  215SOL    HW2  669   0.280   1.706   2.272
  216SOL     OW  670   0.249   1.446   2.388
  216SOL    HW1  671   0.217   1.536   2.388
  216SOL    HW2  672   0.188   1.398   2.444
  217SOL     OW  673   0.238   1.084   2.748
  217SOL    HW1  674   0.257   1.003   2.796
  217SOL    HW2  675   0.193   1.139   2.812
  218SOL     OW  676   0.587   0.981   1.994
  218SOL    HW1  677   0.631   1.031   1.926
  218SOL    HW2  678   0.631   1.008   2.075
  219SOL     OW  679   0.129   0.625   2.435
  219SOL    HW1  680   0.084   0.549   2.474
  219SOL    HW2  681   0.122   0.694   2.501
  220SOL     OW  682   1.843   1.761   2.197
  220SOL    HW1  683   1.899   1.732   2.269
  220SOL    HW2  684   1.869   1.851   2.181
  221SOL     OW  685   0.030   1.598   1.997
  221SOL    HW1  686   0.022   1.503   2.006
  221SOL    HW2  687   2.979   1.634   2.070
  222SOL     OW  688   1.690   0.918   2.499
  222SOL    HW1  689   1.775   0.880   2.479
  222SOL    HW2  690   1.667   0.969   2.421
  223SOL     OW  691   1.647   1.107   2.295
  223SOL    HW1  692   1.732   1.118   2.252
  223SOL    HW2  693   1.649   1.168   2.368
  224SOL     OW  694   0.609   1.379   2.593
  224SOL    HW1  695   0.562   1.297   2.601
  224SOL    HW2  696   0.594   1.407   2.503
  225SOL     OW  697   0.820   0.010   2.371
  225SOL    HW1  698   0.849   0.099   2.353
  225SOL    HW2  699   0.725   0.013   2.360
  226SOL     OW  700   1.549   0.975   2.070
  226SOL    HW1  701   1.471   0.925   2.094
  226SOL    HW2  702   1.577   1.016   2.152
  227SOL     OW  703   1.437   1.421   2.802
  227SOL    HW1  704   1.414   1.420   2.895
  227SOL    HW2  705   1.444   1.329   2.777
  228SOL     OW  706   1.662   1.732   2.438
  228SOL    HW1  707   1.636   1.703   2.351
  228SOL    HW2  708   1.636   1.660   2.496
  229SOL     OW  709   0.596   0.723   2.125
  229SOL    HW1  710   0.606   0.802   2.073
  229SOL    HW2  711   0.532   0.746   2.192
  230SOL     OW  712   1.294   0.335   2.808
  230SOL    HW1  713   1.199   0.323   2.801
  230SOL    HW2  714   1.317   0.297   2.893
  231SOL     OW  715   1.584   1.666   2.170
  231SOL    HW1  716   1.672   1.703   2.166
  231SOL    HW2  717   1.557   1.657   2.079
  232SOL     OW  718   1.048   0.698   2.290
  232SOL    HW1  719   1.063   0.691   2.384
  232SOL    HW2  720   0.966   0.651   2.275
  233SOL     OW  721   0.104   0.816   2.624
  233SOL    HW1  722   0.182   0.812   2.679
  233SOL    HW2  723   0.047   0.880   2.668
  234SOL     OW  724   0.872   0.353   2.047
  234SOL    HW1  725   0.932   0.412   2.002
  234SOL    HW2  726   0.906   0.265   2.030
  235SOL     OW  727   1.378   1.140   2.408
  235SOL    HW1  728   1.453   1.126   2.350
  235SOL    HW2  729   1.324   1.204   2.362
  236SOL     OW  730   0.556   0.197   2.833
  236SOL    HW1  731   0.507   0.268   2.872
  236SOL    HW2  732   0.574   0.226   2.744
  237SOL     OW  733   1.006   1.445   2.334
  237SOL    HW1  734   0.967   1.519   2.287
  237SOL    HW2  735   0.997   1.468   2.427
  238SOL     OW  736   0.353   1.800   2.713
  238SOL    HW1  737   0.400   1.718   2.728
  238SOL    HW2  738   0.415   1.869   2.737
  239SOL     OW  739   1.805   1.060   2.720
  239SOL    HW1  740   1.744   1.043   2.647
  239SOL    HW2  741   1.749   1.062   2.797
  240SOL     OW  742   0.315   0.949   2.106
  240SOL    HW1  743   0.398   0.975   2.066
  240SOL    HW2  744   0.296   0.864   2.067
  241SOL     OW  745   1.474   0.742   2.588
  241SOL    HW1  746   1.469   0.689   2.668
  241SOL    HW2  747   1.554   0.794   2.598
  242SOL     OW  748   1.116   1.786   2.105
  242SOL    HW1  749   1.046   1.740   2.152
  242SOL    HW2  750   1.142   1.726   2.035
  243SOL     OW  751   0.467   1.740   2.182
  243SOL    HW1  752   0.506   1.795   2.250
  243SOL    HW2  753   0.540   1.713   2.127
  244SOL     OW  754   1.408   0.109   2.296
  244SOL    HW1  755   1.392   0.078   2.207
  244SOL    HW2  756   1.502   0.128   2.297
  245SOL     OW  757   0.263   1.799   0.100
  245SOL    HW1  758   0.302   1.729   0.152
  245SOL    HW2  759   0.206   1.753   0.038
  246SOL     OW  760   0.942   1.692   2.758
  246SOL    HW1  761   1.021   1.639   2.761
  246SOL    HW2  762   0.887   1.649   2.692
  247SOL     OW  763   0.392   0.693   2.337
  247SOL    HW1  764   0.424   0.604   2.352
  247SOL    HW2  765   0.299   0.689   2.362
  248SOL     OW  766   0.625   0.121   1.975
  248SOL    HW1  767   0.714   0.088   1.970
  248SOL    HW2  768   0.587   0.102   1.889
  249SOL     OW  769   0.805   1.401   2.790
  249SOL    HW1  770   0.892   1.392   2.751
  249SOL    HW2  771   0.744   1.393   2.716
  250SOL     OW  772   0.920   0.519   2.759
  250SOL    HW1  773   0.903   0.499   2.667
  250SOL    HW2  774   0.951   0.436   2.796
  251SOL     OW  775   0.544   0.061   2.368
  251SOL    HW1  776   0.456   0.043   2.401
  251SOL    HW2  777   0.533   0.130   2.303
  252SOL     OW  778   1.382   1.117   1.895
  252SOL    HW1  779   1.446   1.085   1.959
  252SOL    HW2  780   1.372   1.210   1.915
  253SOL     OW  781   0.291   0.035   2.051
  253SOL    HW1  782   0.343   0.109   2.021
  253SOL    HW2  783   0.355   2.972   2.084
  254SOL     OW  784   0.938   0.253   2.325
  254SOL    HW1  785   0.909   0.298   2.246
  254SOL    HW2  786   1.033   0.264   2.326
  255SOL     OW  787   1.219   1.584   2.670
  255SOL    HW1  788   1.244   1.641   2.596
  255SOL    HW2  789   1.301   1.569   2.716
  256SOL     OW  790   0.462   1.146   2.602
  256SOL    HW1  791   0.389   1.129   2.662
  256SOL    HW2  792   0.425   1.129   2.515
  257SOL     OW  793   1.272   1.796   2.466
  257SOL    HW1  794   1.314   1.858   2.407
  257SOL    HW2  795   1.206   1.849   2.513
  258SOL     OW  796   1.023   0.550   1.884
  258SOL    HW1  797   0.985   0.635   1.865
  258SOL    HW2  798   1.089   0.568   1.951
  259SOL     OW  799   0.874   0.467   2.498
  259SOL    HW1  800   0.823   0.515   2.432
  259SOL    HW2  801   0.886   0.380   2.459
  260SOL     OW  802   0.999   0.048   2.624
  260SOL    HW1  803   0.964   0.056   2.535
  260SOL    HW2  804   0.976   2.960   2.652
  261SOL     OW  805   1.439   1.159   2.713
  261SOL    HW1  806   1.363   1.100   2.707
  261SOL    HW2  807   1.462   1.177   2.621
  262SOL     OW  808   1.489   0.585   2.820
  262SOL    HW1  809   1.424   0.514   2.827
  262SOL    HW2  810   1.509   0.607   2.911
  263SOL     OW  811   1.851   0.820   2.243
  263SOL    HW1  812   1.905   0.765   2.300
  263SOL    HW2  813   1.817   0.760   2.177
  264SOL     OW  814   0.492   1.412   2.025
  264SOL    HW1  815   0.416   1.383   2.075
  264SOL    HW2  816   0.467   1.398   1.933
  265SOL     OW  817   1.669   1.266   2.511
  265SOL    HW1  818   1.764   1.273   2.524
  265SOL    HW2  819   1.635   1.353   2.532
  266SOL     OW  820   1.395   0.568   1.933
  266SOL    HW1  821   1.333   0.553   2.004
  266SOL    HW2  822   1.478   0.535   1.966
  267SOL     OW  823   0.526   0.264   2.184
  267SOL    HW1  824   0.565   0.211   2.113
  267SOL    HW2  825   0.508   0.349   2.143
  268SOL     OW  826   1.648   1.104   2.931
  268SOL    HW1  827   1.647   1.171   3.000
  268SOL    HW2  828   1.562   1.112   2.889
  269SOL     OW  829   0.707   1.060   2.234
  269SOL    HW1  830   0.695   1.046   2.328
  269SOL    HW2  831   0.784   1.007   2.212
  270SOL     OW  832   0.350   1.107   2.355
  270SOL    HW1  833   0.358   1.180   2.293
  270SOL    HW2  834   0.357   1.029   2.300
  271SOL     OW  835   0.547   0.546   2.731
  271SOL    HW1  836   0.568   0.593   2.651
  271SOL    HW2  837   0.617   0.568   2.792
  272SOL     OW  838   1.253   1.339   2.275
  272SOL    HW1  839   1.301   1.421   2.288
  272SOL    HW2  840   1.161   1.364   2.283
  273SOL     OW  841   1.585   0.627   2.339
  273SOL    HW1  842   1.539   0.684   2.400
  273SOL    HW2  843   1.624   0.687   2.275
  274SOL     OW  844   0.576   0.872   2.880
  274SOL    HW1  845   0.618   0.954   2.856
  274SOL    HW2  846   0.551   0.883   2.972
  275SOL     OW  847   1.211   0.534   2.133
  275SOL    HW1  848   1.215   0.453   2.184
  275SOL    HW2  849   1.167   0.596   2.190
  276SOL     OW  850   0.731   0.641   2.918
  276SOL    HW1  851   0.798   0.615   2.855
  276SOL    HW2  852   0.699   0.725   2.885
  277SOL     OW  853   0.308   0.069   2.504
  277SOL    HW1  854   0.301   0.154   2.546
  277SOL    HW2  855   0.282   0.007   2.572
  278SOL     OW  856   1.607   0.373   2.232
  278SOL    HW1  857   1.646   0.312   2.295
  278SOL    HW2  858   1.589   0.452   2.284
  279SOL     OW  859   1.021   0.763   2.820
  279SOL    HW1  860   1.025   0.771   2.915
  279SOL    HW2  861   0.995   0.672   2.804
  280SOL     OW  862   1.531   0.273   1.994
  280SOL    HW1  863   1.467   0.208   2.023
  280SOL    HW2  864   1.565   0.311   2.076
  281SOL     OW  865   1.291   0.821   1.900
  281SOL    HW1  866   1.337   0.737   1.899
  281SOL    HW2  867   1.322   0.866   1.822
  282SOL     OW  868   1.052   1.347   2.699
  282SOL    HW1  869   1.063   1.265   2.650
  282SOL    HW2  870   1.128   1.400   2.674
  283SOL     OW  871   0.311   0.811   2.811
  283SOL    HW1  872   0.404   0.830   2.809
  283SOL    HW2  873   0.306   0.722   2.847
  284SOL     OW  874   0.321   0.519   2.873
  284SOL    HW1  875   0.291   0.431   2.849
  284SOL    HW2  876   0.399   0.532   2.820
  285SOL     OW  877   2.995   1.319   2.042
  285SOL    HW1  878   2.901   1.323   2.022
  285SOL    HW2  879   0.005   1.238   2.091
  286SOL     OW  880   0.093   1.819   2.808
  286SOL    HW1  881   0.057   1.739   2.770
  286SOL    HW2  882   0.184   1.821   2.779
  287SOL     OW  883   0.504   1.574   2.761
  287SOL    HW1  884   0.573   1.635   2.785
  287SOL    HW2  885   0.548   1.506   2.710
  288SOL     OW  886   0.978   0.752   0.087
  288SOL    HW1  887   1.028   0.752   0.169
  288SOL    HW2  888   0.888   0.774   0.114
  289SOL     OW  889   0.814   0.568   2.216
  289SOL    HW1  890   0.817   0.495   2.155
  289SOL    HW2  891   0.740   0.621   2.186
  290SOL     OW  892   0.699   0.439   0.092
  290SOL    HW1  893   0.604   0.427   0.097
  290SOL    HW2  894   0.711   0.515   0.036
  291SOL     OW  895   0.467   0.494   2.049
  291SOL    HW1  896   0.528   0.566   2.067
  291SOL    HW2  897   0.381   0.537   2.042
  292SOL     OW  898   1.311   0.854   2.171
  292SOL    HW1  899   1.231   0.828   2.217
  292SOL    HW2  900   1.290   0.844   2.078
  293SOL     OW  901   1.736   1.767   2.971
  293SOL    HW1  902   1.814   1.789   2.920
  293SOL    HW2  903   1.760   1.689   0.021
  294SOL     OW  904   0.072   1.247   2.902
  294SOL    HW1  905   0.047   1.275   2.990
  294SOL    HW2  906   0.001   1.277   2.846
  295SOL     OW  907   1.721   0.143   2.368
  295SOL    HW1  908   1.784   0.136   2.296
  295SOL    HW2  909   1.730   0.061   2.416
  296SOL     OW  910   1.392   1.570   2.348
  296SOL    HW1  911   1.450   1.598   2.277
  296SOL    HW2  912   1.344   1.649   2.372
  297SOL     OW  913   1.276   0.925   2.532
  297SOL    HW1  914   1.349   0.863   2.538
  297SOL    HW2  915   1.310   0.998   2.481
  298SOL     OW  916   0.672   1.616   2.017
  298SOL    HW1  917   0.677   1.627   1.922
  298SOL    HW2  918   0.621   1.536   2.029
  299SOL     OW  919   1.853   0.162   2.815
  299SOL    HW1  920   1.852   0.076   2.773
  299SOL    HW2  921   1.767   0.199   2.795
  300SOL     OW  922   0.270   0.335   2.600
  300SOL    HW1  923   0.181   0.367   2.590
  300SOL    HW2  924   0.274   0.302   2.689
  301SOL     OW  925   1.188   1.626   1.910
  301SOL    HW1  926   1.221   1.537   1.912
  301SOL    HW2  927   1.145   1.634   1.824
  302SOL     OW  928   0.914   0.909   2.153
  302SOL    HW1  929   0.973   0.939   2.083
  302SOL    HW2  930   0.962   0.839   2.196
  303SOL     OW  931   1.494   1.653   1.902
  303SOL    HW1  932   1.407   1.615   1.919
  303SOL    HW2  933   1.540   1.587   1.852
  304SOL     OW  934   1.049   1.104   2.572
  304SOL    HW1  935   0.977   1.051   2.606
  304SOL    HW2  936   1.109   1.041   2.531
  305SOL     OW  937   1.016   0.246   2.810
  305SOL    HW1  938   1.010   0.182   2.740
  305SOL    HW2  939   1.042   0.195   2.887
  306SOL     OW  940   0.602   1.489   2.342
  306SOL    HW1  941   0.640   1.439   2.271
  306SOL    HW2  942   0.533   1.541   2.301
  307SOL     OW  943   0.254   1.345   2.143
  307SOL    HW1  944   0.160   1.344   2.128
  307SOL    HW2  945   0.263   1.384   2.230
  308SOL     OW  946   0.097   0.327   1.912
  308SOL    HW1  947   0.013   0.298   1.877
  308SOL    HW2  948   0.112   0.412   1.871
  309SOL     OW  949   0.021   0.215   2.146
  309SOL    HW1  950   0.064   0.262   2.075
  309SOL    HW2  951   0.080   0.143   2.168
  310SOL     OW  952   1.504   1.779   2.829
  310SOL    HW1  953   1.517   1.833   2.752
  310SOL    HW2  954   1.585   1.787   2.879
  311SOL     OW  955   1.718   0.852   0.065
  311SOL    HW1  956   1.638   0.811   0.099
  311SOL    HW2  957   1.693   0.942   0.046
  312SOL     OW  958   1.223   0.317   2.317
  312SOL    HW1  959   1.285   0.244   2.317
  312SOL    HW2  960   1.246   0.368   2.395
  313SOL     OW  961   0.592   0.741   2.528
  313SOL    HW1  962   0.632   0.827   2.512
  313SOL    HW2  963   0.521   0.736   2.464
  314SOL     OW  964   0.856   1.377   1.886
  314SOL    HW1  965   0.828   1.367   1.977
  314SOL    HW2  966   0.867   1.472   1.875
  315SOL     OW  967   0.661   1.796   2.821
  315SOL    HW1  968   0.638   1.883   2.790
  315SOL    HW2  969   0.755   1.789   2.806
  316SOL     OW  970   0.860   0.963   2.716
  316SOL    HW1  971   0.913   0.894   2.755
  316SOL    HW2  972   0.832   1.017   2.790
  317SOL     OW  973   1.068   0.976   1.940
  317SOL    HW1  974   1.070   1.049   1.878
  317SOL    HW2  975   1.153   0.933   1.929
  318SOL     OW  976   1.857   1.557   2.710
  318SOL    HW1  977   1.778   1.545   2.656
  318SOL    HW2  978   1.861   1.478   2.764
  319SOL     OW  979   0.126   1.249   2.523
  319SOL    HW1  980   0.090   1.185   2.584
  319SOL    HW2  981   0.183   1.199   2.465
  320SOL     OW  982   1.814   0.190   0.083
  320SOL    HW1  983   1.832   0.105   0.121
  320SOL    HW2  984   1.829   0.179   2.989
  321SOL     OW  985   0.460   0.435   2.401
  321SOL    HW1  986   0.454   0.370   2.331
  321SOL    HW2  987   0.407   0.399   2.472
  322SOL     OW  988   0.819   1.584   2.540
  322SOL    HW1  989   0.818   1.622   2.452
  322SOL    HW2  990   0.743   1.526   2.541
  323SOL     OW  991   0.776   1.329   2.163
  323SOL    HW1  992   0.741   1.241   2.178
  323SOL    HW2  993   0.857   1.331   2.214
  324SOL     OW  994   1.347   0.048   2.030
  324SOL    HW1  995   1.410   2.988   1.989
  324SOL    HW2  996   1.266   2.997   2.036
  325SOL     OW  997   1.298   0.456   2.548
  325SOL    HW1  998   1.243   0.535   2.555
  325SOL    HW2  999   1.295   0.417   2.635
  326SOL     OW 1000   1.600   0.235   2.751
  326SOL    HW1 1001   1.509   0.228   2.780
  326SOL    HW2 1002   1.600   0.309   2.689
  327SOL     OW 1003   0.063   1.080   2.160
  327SOL    HW1 1004   0.152   1.046   2.163
  327SOL    HW2 1005   0.009   1.013   2.202
  328SOL     OW 1006   0.879   1.650   2.208
  328SOL    HW1 1007   0.808   1.631   2.147
  328SOL    HW2 1008   0.849   1.727   2.256
  329SOL     OW 1009   0.233   2.518   0.098
  329SOL    HW1 1010   0.168   2.471   0.151
  329SOL    HW2 1011   0.248   2.461   0.023
  330SOL     OW 1012   0.212   2.138   0.990
  330SOL    HW1 1013   0.247   2.108   1.074
  330SOL    HW2 1014   0.126   2.095   0.984
  331SOL     OW 1015   0.015   2.248   0.646
  331SOL    HW1 1016   2.929   2.282   0.669
  331SOL    HW2 1017   2.997   2.165   0.602
  332SOL     OW 1018   1.134   2.569   0.700
  332SOL    HW1 1019   1.178   2.654   0.696
  332SOL    HW2 1020   1.081   2.573   0.779
  333SOL     OW 1021   1.764   2.455   0.228
  333SOL    HW1 1022   1.745   2.436   0.136
  333SOL    HW2 1023   1.726   2.382   0.276
  334SOL     OW 1024   0.759   0.011   1.033
  334SOL    HW1 1025   0.677   0.044   1.069
  334SOL    HW2 1026   0.784   0.076   0.968
  335SOL     OW 1027   0.867   2.640   1.822
  335SOL    HW1 1028   0.844   2.705   1.888
  335SOL    HW2 1029   0.888   2.691   1.744
  336SOL     OW 1030   0.652   2.850   0.708
  336SOL    HW1 1031   0.746   2.854   0.725
  336SOL    HW2 1032   0.631   2.935   0.669
  337SOL     OW 1033   0.471   2.273   1.495
  337SOL    HW1 1034   0.542   2.208   1.492
  337SOL    HW2 1035   0.391   2.222   1.506
  338SOL     OW 1036   1.614   2.311   0.737
  338SOL    HW1 1037   1.534   2.333   0.690
  338SOL    HW2 1038   1.630   2.387   0.793
  339SOL     OW 1039   0.214   0.315   0.464
  339SOL    HW1 1040   0.217   0.387   0.527
  339SOL    HW2 1041   0.198   0.237   0.518
  340SOL     OW 1042   0.231   2.944   0.877
  340SOL    HW1 1043   0.259   2.863   0.921
  340SOL    HW2 1044   0.203   0.001   0.948
  341SOL     OW 1045   0.615   2.833   0.148
  341SOL    HW1 1046   0.600   2.925   0.126
  341SOL    HW2 1047   0.677   2.835   0.220
  342SOL     OW 1048   1.596   1.975   1.473
  342SOL    HW1 1049   1.591   2.051   1.414
  342SOL    HW2 1050   1.585   2.012   1.560
  343SOL     OW 1051   0.118   2.497   0.565
  343SOL    HW1 1052   0.095   2.411   0.602
  343SOL    HW2 1053   0.115   2.557   0.639
  344SOL     OW 1054   1.701   2.808   0.622
  344SOL    HW1 1055   1.777   2.750   0.632
  344SOL    HW2 1056   1.692   2.820   0.528
  345SOL     OW 1057   0.128   2.608   1.588
  345SOL    HW1 1058   0.223   2.620   1.597
  345SOL    HW2 1059   0.091   2.695   1.606
  346SOL     OW 1060   0.659   0.241   0.687
  346SOL    HW1 1061   0.595   0.175   0.713
  346SOL    HW2 1062   0.611   0.296   0.624
  347SOL     OW 1063   1.303   0.053   1.444
  347SOL    HW1 1064   1.326   2.996   1.371
  347SOL    HW2 1065   1.384   0.098   1.466
  348SOL     OW 1066   0.807   1.858   0.495
  348SOL    HW1 1067   0.851   1.943   0.490
  348SOL    HW2 1068   0.715   1.879   0.510
  349SOL     OW 1069   0.190   2.835   1.257
  349SOL    HW1 1070   0.274   2.790   1.249
  349SOL    HW2 1071   0.125   2.770   1.230
  350SOL     OW 1072   1.524   2.841   0.204
  350SOL    HW1 1073   1.452   2.797   0.250
  350SOL    HW2 1074   1.587   2.863   0.273
  351SOL     OW 1075   0.335   2.111   1.806
  351SOL    HW1 1076   0.383   2.192   1.822
  351SOL    HW2 1077   0.249   2.125   1.847
  352SOL     OW 1078   0.592   2.582   0.268
  352SOL    HW1 1079   0.598   2.662   0.216
  352SOL    HW2 1080   0.527   2.601   0.335
  353SOL     OW 1081   1.291   2.210   0.931
  353SOL    HW1 1082   1.199   2.183   0.936
  353SOL    HW2 1083   1.335   2.156   0.995
  354SOL     OW 1084   0.791   2.480   1.455
  354SOL    HW1 1085   0.763   2.456   1.543
  354SOL    HW2 1086   0.752   2.414   1.398
  355SOL     OW 1087   1.394   2.336   1.678
  355SOL    HW1 1088   1.394   2.380   1.763
  355SOL    HW2 1089   1.457   2.265   1.687
  356SOL     OW 1090   0.962   2.758   1.590
  356SOL    HW1 1091   1.013   2.685   1.554
  356SOL    HW2 1092   0.909   2.789   1.517
  357SOL     OW 1093   0.991   2.280   1.248
  357SOL    HW1 1094   0.899   2.290   1.271
  357SOL    HW2 1095   0.991   2.223   1.171
  358SOL     OW 1096   1.049   2.567   0.424
  358SOL    HW1 1097   1.064   2.559   0.518
  358SOL    HW2 1098   0.968   2.519   0.408
  359SOL     OW 1099   0.102   2.670   0.769
  359SOL    HW1 1100   0.180   2.673   0.825
  359SOL    HW2 1101   0.050   2.746   0.796
  360SOL     OW 1102   0.929   2.194   0.221
  360SOL    HW1 1103   0.931   2.257   0.149
  360SOL    HW2 1104   0.894   2.114   0.181
  361SOL     OW 1105   1.712   2.439   1.827
  361SOL    HW1 1106   1.674   2.515   1.784
  361SOL    HW2 1107   1.734   2.379   1.756
  362SOL     OW 1108   0.540   2.046   0.892
  362SOL    HW1 1109   0.551   2.073   0.983
  362SOL    HW2 1110   0.555   2.126   0.842
  363SOL     OW 1111   1.797   2.908   0.867
  363SOL    HW1 1112   1.741   2.893   0.791
  363SOL    HW2 1113   1.736   2.917   0.941
  364SOL     OW 1114   1.481   2.599   0.725
  364SOL    HW1 1115   1.458   2.548   0.802
  364SOL    HW2 1116   1.552   2.657   0.755
  365SOL     OW 1117   0.233   2.162   1.506
  365SOL    HW1 1118   0.153   2.208   1.481
  365SOL    HW2 1119   0.203   2.087   1.557
  366SOL     OW 1120   1.402   1.970   0.430
  366SOL    HW1 1121   1.390   1.948   0.337
  366SOL    HW2 1122   1.497   1.980   0.440
  367SOL     OW 1123   0.387   2.556   0.473
  367SOL    HW1 1124   0.412   2.465   0.483
  367SOL    HW2 1125   0.294   2.559   0.497
  368SOL     OW 1126   1.539   2.089   1.726
  368SOL    HW1 1127   1.547   2.110   1.819
  368SOL    HW2 1128   1.469   2.023   1.722
  369SOL     OW 1129   0.626   1.985   0.116
  369SOL    HW1 1130   0.719   1.963   0.118
  369SOL    HW2 1131   0.592   1.938   0.040
  370SOL     OW 1132   0.769   2.138   1.752
  370SOL    HW1 1133   0.840   2.075   1.761
  370SOL    HW2 1134   0.716   2.127   1.832
  371SOL     OW 1135   1.341   2.451   1.432
  371SOL    HW1 1136   1.371   2.417   1.516
  371SOL    HW2 1137   1.378   2.539   1.427
  372SOL     OW 1138   0.922   2.384   0.897
  372SOL    HW1 1139   0.902   2.368   0.805
  372SOL    HW2 1140   0.948   2.299   0.931
  373SOL     OW 1141   0.545   1.924   0.506
  373SOL    HW1 1142   0.464   1.927   0.557
  373SOL    HW2 1143   0.542   2.002   0.450
  374SOL     OW 1144   0.939   2.102   0.473
  374SOL    HW1 1145   0.917   2.141   0.389
  374SOL    HW2 1146   1.034   2.113   0.480
  375SOL     OW 1147   1.078   2.544   1.460
  375SOL    HW1 1148   1.006   2.480   1.462
  375SOL    HW2 1149   1.156   2.490   1.450
  376SOL     OW 1150   1.052   2.362   0.024
  376SOL    HW1 1151   1.001   2.443   0.016
  376SOL    HW2 1152   1.110   2.378   0.099
  377SOL     OW 1153   0.086   2.416   1.398
  377SOL    HW1 1154   0.172   2.420   1.356
  377SOL    HW2 1155   0.087   2.488   1.462
  378SOL     OW 1156   0.561   2.091   1.162
  378SOL    HW1 1157   0.603   2.012   1.195
  378SOL    HW2 1158   0.470   2.084   1.192
  379SOL     OW 1159   0.870   2.328   0.634
  379SOL    HW1 1160   0.820   2.375   0.567
  379SOL    HW2 1161   0.888   2.243   0.595
  380SOL     OW 1162   1.038   1.870   0.718
  380SOL    HW1 1163   0.966   1.920   0.678
  380SOL    HW2 1164   1.016   1.869   0.811
  381SOL     OW 1165   1.426   2.995   0.872
  381SOL    HW1 1166   1.361   2.936   0.834
  381SOL    HW2 1167   1.446   0.057   0.802
  382SOL     OW 1168   1.468   2.463   0.980
  382SOL    HW1 1169   1.419   2.381   0.983
  382SOL    HW2 1170   1.528   2.458   1.055
  383SOL     OW 1171   1.832   2.667   0.390
  383SOL    HW1 1172   1.896   2.618   0.443
  383SOL    HW2 1173   1.817   2.611   0.314
  384SOL     OW 1174   1.413   2.438   0.099
  384SOL    HW1 1175   1.340   2.428   0.160
  384SOL    HW2 1176   1.462   2.356   0.106
  385SOL     OW 1177   0.521   2.124   0.325
  385SOL    HW1 1178   0.557   2.073   0.253
  385SOL    HW2 1179   0.502   2.210   0.287
  386SOL     OW 1180   1.780   0.077   1.592
  386SOL    HW1 1181   1.869   0.043   1.578
  386SOL    HW2 1182   1.794   0.162   1.634
  387SOL     OW 1183   1.626   2.957   1.075
  387SOL    HW1 1184   1.637   0.040   1.120
  387SOL    HW2 1185   1.549   2.970   1.019
  388SOL     OW 1186   0.916   1.960   1.411
  388SOL    HW1 1187   0.933   1.925   1.324
  388SOL    HW2 1188   0.996   2.005   1.436
  389SOL     OW 1189   0.415   2.679   1.253
  389SOL    HW1 1190   0.485   2.684   1.318
  389SOL    HW2 1191   0.381   2.589   1.263
  390SOL     OW 1192   1.269   2.238   1.272
  390SOL    HW1 1193   1.296   2.317   1.319
  390SOL    HW2 1194   1.180   2.258   1.242
  391SOL     OW 1195   0.554   2.402   0.863
  391SOL    HW1 1196   0.573   2.456   0.786
  391SOL    HW2 1197   0.622   2.425   0.925
  392SOL     OW 1198   1.580   2.489   0.473
  392SOL    HW1 1199   1.540   2.542   0.542
  392SOL    HW2 1200   1.635   2.550   0.424
  393SOL     OW 1201   0.412   2.599   1.603
  393SOL    HW1 1202   0.469   2.648   1.544
  393SOL    HW2 1203   0.458   2.517   1.618
  394SOL     OW 1204   1.595   2.636   1.679
  394SOL    HW1 1205   1.508   2.675   1.670
  394SOL    HW2 1206   1.648   2.679   1.612
  395SOL     OW 1207   0.998   1.980   1.759
  395SOL    HW1 1208   1.044   2.057   1.725
  395SOL    HW2 1209   1.050   1.906   1.729
  396SOL     OW 1210   0.500   1.903   1.747
  396SOL    HW1 1211   0.460   1.849   1.679
  396SOL    HW2 1212   0.440   1.976   1.758
  397SOL     OW 1213   0.590   2.730   1.036
  397SOL    HW1 1214   0.599   2.823   1.016
  397SOL    HW2 1215   0.525   2.727   1.107
  398SOL     OW 1216   1.351   2.714   1.035
  398SOL    HW1 1217   1.279   2.706   0.971
  398SOL    HW2 1218   1.394   2.629   1.032
  399SOL     OW 1219   1.205   2.396   0.272
  399SOL    HW1 1220   1.212   2.312   0.317
  399SOL    HW2 1221   1.159   2.453   0.333
  400SOL     OW 1222   0.299   2.064   1.242
  400SOL    HW1 1223   0.282   2.094   1.332
  400SOL    HW2 1224   0.282   1.970   1.245
  401SOL     OW 1225   0.054   0.170   1.269
  401SOL    HW1 1226   0.084   0.136   1.354
  401SOL    HW2 1227   0.016   0.256   1.290
  402SOL     OW 1228   0.732   2.495   1.064
  402SOL    HW1 1229   0.799   2.473   0.999
  402SOL    HW2 1230   0.700   2.581   1.037
  403SOL     OW 1231   1.736   2.818   1.846
  403SOL    HW1 1232   1.685   2.764   1.785
  403SOL    HW2 1233   1.679   2.828   1.922
  404SOL     OW 1234   0.299   1.931   0.623
  404SOL    HW1 1235   0.285   2.022   0.650
  404SOL    HW2 1236   0.309   1.883   0.705
  405SOL     OW 1237   1.618   2.234   0.369
  405SOL    HW1 1238   1.641   2.170   0.436
  405SOL    HW2 1239   1.589   2.311   0.419
  406SOL     OW 1240   1.030   2.622   0.967
  406SOL    HW1 1241   1.029   2.633   1.062
  406SOL    HW2 1242   0.999   2.532   0.953
  407SOL     OW 1243   0.356   2.786   1.798
  407SOL    HW1 1244   0.421   2.784   1.868
  407SOL    HW2 1245   0.381   2.713   1.740
  408SOL     OW 1246   1.507   2.164   0.126
  408SOL    HW1 1247   1.468   2.078   0.139
  408SOL    HW2 1248   1.559   2.179   0.204
  409SOL     OW 1249   1.295   2.685   0.037
  409SOL    HW1 1250   1.336   2.599   0.049
  409SOL    HW2 1251   1.325   2.713   2.950
  410SOL     OW 1252   0.313   2.677   0.952
  410SOL    HW1 1253   0.407   2.687   0.936
  410SOL    HW2 1254   0.304   2.588   0.985
  411SOL     OW 1255   0.334   2.380   1.013
  411SOL    HW1 1256   0.295   2.295   0.992
  411SOL    HW2 1257   0.410   2.388   0.956
  412SOL     OW 1258   1.135   2.238   1.682
  412SOL    HW1 1259   1.088   2.295   1.743
  412SOL    HW2 1260   1.222   2.276   1.675
  413SOL     OW 1261   1.165   2.061   1.476
  413SOL    HW1 1262   1.153   2.128   1.543
  413SOL    HW2 1263   1.195   2.109   1.399
  414SOL     OW 1264   0.983   2.669   1.235
  414SOL    HW1 1265   1.037   2.637   1.307
  414SOL    HW2 1266   0.904   2.616   1.237
  415SOL     OW 1267   0.046   2.438   1.115
  415SOL    HW1 1268   0.122   2.394   1.076
  415SOL    HW2 1269   0.037   2.399   1.202
  416SOL     OW 1270   0.197   2.380   1.721
  416SOL    HW1 1271   0.266   2.353   1.661
  416SOL    HW2 1272   0.161   2.460   1.682
  417SOL     OW 1273   1.378   2.807   1.661
  417SOL    HW1 1274   1.402   2.900   1.658
  417SOL    HW2 1275   1.371   2.781   1.570
  418SOL     OW 1276   0.819   2.438   0.347
  418SOL    HW1 1277   0.819   2.360   0.292
  418SOL    HW2 1278   0.738   2.484   0.325
  419SOL     OW 1279   1.643   2.465   1.191
  419SOL    HW1 1280   1.630   2.403   1.263
  419SOL    HW2 1281   1.729   2.442   1.156
  420SOL     OW 1282   0.693   2.316   1.264
  420SOL    HW1 1283   0.648   2.240   1.229
  420SOL    HW2 1284   0.698   2.377   1.190
  421SOL     OW 1285   0.440   2.358   0.206
  421SOL    HW1 1286   0.512   2.420   0.220
  421SOL    HW2 1287   0.364   2.413   0.190
  422SOL     OW 1288   0.161   0.008   1.469
  422SOL    HW1 1289   0.150   2.955   1.548
  422SOL    HW2 1290   0.173   2.943   1.399
  423SOL     OW 1291   1.352   2.909   1.220
  423SOL    HW1 1292   1.366   2.846   1.150
  423SOL    HW2 1293   1.274   2.959   1.192
  424SOL     OW 1294   1.299   2.724   0.313
  424SOL    HW1 1295   1.229   2.677   0.359
  424SOL    HW2 1296   1.288   2.699   0.221
  425SOL     OW 1297   0.898   1.938   0.123
  425SOL    HW1 1298   0.960   1.923   0.052
  425SOL    HW2 1299   0.940   1.899   0.200
  426SOL     OW 1300   1.715   2.003   0.514
  426SOL    HW1 1301   1.794   1.994   0.460
  426SOL    HW2 1302   1.703   1.916   0.553
  427SOL     OW 1303   1.294   2.797   0.685
  427SOL    HW1 1304   1.359   2.727   0.680
  427SOL    HW2 1305   1.305   2.845   0.602
  428SOL     OW 1306   1.839   2.034   0.971
  428SOL    HW1 1307   1.869   1.947   0.943
  428SOL    HW2 1308   1.754   2.046   0.929
  429SOL     OW 1309   0.268   2.180   0.721
  429SOL    HW1 1310   0.184   2.218   0.695
  429SOL    HW2 1311   0.260   2.169   0.816
  430SOL     OW 1312   0.811   2.859   1.373
  430SOL    HW1 1313   0.868   2.834   1.300
  430SOL    HW2 1314   0.834   2.950   1.392
  431SOL     OW 1315   0.900   2.789   0.285
  431SOL    HW1 1316   0.981   2.817   0.242
  431SOL    HW2 1317   0.931   2.737   0.360
  432SOL     OW 1318   1.718   2.255   1.381
  432SOL    HW1 1319   1.791   2.318   1.379
  432SOL    HW2 1320   1.747   2.184   1.324
  433SOL     OW 1321   0.117   2.866   1.696
  433SOL    HW1 1322   0.047   2.844   1.758
  433SOL    HW2 1323   0.198   2.851   1.744
  434SOL     OW 1324   0.671   2.059   1.498
  434SOL    HW1 1325   0.754   2.041   1.455
  434SOL    HW2 1326   0.695   2.086   1.587
  435SOL     OW 1327   0.053   2.171   0.052
  435SOL    HW1 1328   2.966   2.201   0.025
  435SOL    HW2 1329   0.113   2.238   0.018
  436SOL     OW 1330   1.435   2.719   1.404
  436SOL    HW1 1331   1.391   2.776   1.342
  436SOL    HW2 1332   1.527   2.720   1.377
  437SOL     OW 1333   0.061   2.058   0.321
  437SOL    HW1 1334   0.051   2.099   0.235
  437SOL    HW2 1335   0.127   1.990   0.308
  438SOL     OW 1336   1.142   0.212   0.095
  438SOL    HW1 1337   1.069   0.251   0.143
  438SOL    HW2 1338   1.217   0.221   0.153
  439SOL     OW 1339   0.613   2.690   1.436
  439SOL    HW1 1340   0.670   2.765   1.418
  439SOL    HW2 1341   0.672   2.615   1.443
  440SOL     OW 1342   0.715   2.428   1.708
  440SOL    HW1 1343   0.754   2.491   1.768
  440SOL    HW2 1344   0.753   2.344   1.734
  441SOL     OW 1345   1.676   2.745   1.254
  441SOL    HW1 1346   1.665   2.658   1.216
  441SOL    HW2 1347   1.659   2.806   1.182
  442SOL     OW 1348   1.223   2.183   0.458
  442SOL    HW1 1349   1.285   2.111   0.450
  442SOL    HW2 1350   1.251   2.230   0.536
  443SOL     OW 1351   0.592   2.588   0.661
  443SOL    HW1 1352   0.619   2.680   0.670
  443SOL    HW2 1353   0.521   2.590   0.597
  444SOL     OW 1354   1.767   2.218   1.647
  444SOL    HW1 1355   1.747   2.234   1.555
  444SOL    HW2 1356   1.694   2.164   1.678
  445SOL     OW 1357   1.735   2.795   1.515
  445SOL    HW1 1358   1.751   2.888   1.534
  445SOL    HW2 1359   1.727   2.791   1.420
  446SOL     OW 1360   0.887   2.831   0.862
  446SOL    HW1 1361   0.923   2.750   0.898
  446SOL    HW2 1362   0.827   2.862   0.930
  447SOL     OW 1363   1.110   2.888   0.084
  447SOL    HW1 1364   1.061   2.887   0.001
  447SOL    HW2 1365   1.171   2.815   0.077
  448SOL     OW 1366   1.813   2.050   1.239
  448SOL    HW1 1367   1.834   1.959   1.260
  448SOL    HW2 1368   1.822   2.056   1.144
  449SOL     OW 1369   0.427   2.296   0.525
  449SOL    HW1 1370   0.460   2.224   0.470
  449SOL    HW2 1371   0.385   2.252   0.599
  450SOL     OW 1372   0.334   2.416   1.290
  450SOL    HW1 1373   0.394   2.363   1.341
  450SOL    HW2 1374   0.349   2.389   1.199
  451SOL     OW 1375   1.437   2.083   1.124
  451SOL    HW1 1376   1.455   2.005   1.176
  451SOL    HW2 1377   1.378   2.136   1.179
  452SOL     OW 1378   0.999   1.833   1.185
  452SOL    HW1 1379   0.945   1.837   1.106
  452SOL    HW2 1380   1.082   1.873   1.158
  453SOL     OW 1381   1.354   1.914   0.163
  453SOL    HW1 1382   1.378   1.864   0.085
  453SOL    HW2 1383   1.269   1.879   0.188
  454SOL     OW 1384   1.304   2.325   0.685
  454SOL    HW1 1385   1.242   2.398   0.692
  454SOL    HW2 1386   1.297   2.280   0.768
  455SOL     OW 1387   1.588   2.068   0.878
  455SOL    HW1 1388   1.521   2.086   0.944
  455SOL    HW2 1389   1.588   2.145   0.821
  456SOL     OW 1390   0.000   2.885   0.286
  456SOL    HW1 1391   0.085   2.919   0.256
  456SOL    HW2 1392   0.019   2.849   0.373
  457SOL     OW 1393   0.229   2.506   1.970
  457SOL    HW1 1394   0.164   2.459   2.023
  457SOL    HW2 1395   0.224   2.464   1.884
  458SOL     OW 1396   0.235   2.125   2.838
  458SOL    HW1 1397   0.270   2.102   2.923
  458SOL    HW2 1398   0.147   2.086   2.837
  459SOL     OW 1399   0.015   2.247   2.506
  459SOL    HW1 1400   2.930   2.281   2.532
  459SOL    HW2 1401   2.996   2.161   2.468
  460SOL     OW 1402   1.136   2.568   2.566
  460SOL    HW1 1403   1.182   2.651   2.556
  460SOL    HW2 1404   1.083   2.579   2.645
  461SOL     OW 1405   1.763   2.467   2.091
  461SOL    HW1 1406   1.745   2.458   1.998
  461SOL    HW2 1407   1.729   2.386   2.131
  462SOL     OW 1408   0.777   0.011   2.877
  462SOL    HW1 1409   0.686   0.028   2.903
  462SOL    HW2 1410   0.801   0.088   2.826
  463SOL     OW 1411   0.651   2.847   2.566
  463SOL    HW1 1412   0.744   2.849   2.590
  463SOL    HW2 1413   0.633   2.935   2.532
  464SOL     OW 1414   1.617   2.311   2.594
  464SOL    HW1 1415   1.539   2.335   2.544
  464SOL    HW2 1416   1.623   2.377   2.663
  465SOL     OW 1417   0.212   0.313   2.326
  465SOL    HW1 1418   0.221   0.386   2.388
  465SOL    HW2 1419   0.200   0.236   2.382
  466SOL     OW 1420   0.232   2.946   2.743
  466SOL    HW1 1421   0.257   2.862   2.781
  466SOL    HW2 1422   0.209   0.000   2.819
  467SOL     OW 1423   0.607   2.824   1.992
  467SOL    HW1 1424   0.597   2.907   1.947
  467SOL    HW2 1425   0.666   2.842   2.065
  468SOL     OW 1426   0.121   2.495   2.426
  468SOL    HW1 1427   0.095   2.411   2.465
  468SOL    HW2 1428   0.119   2.557   2.498
  469SOL     OW 1429   1.699   2.805   2.483
  469SOL    HW1 1430   1.777   2.751   2.496
  469SOL    HW2 1431   1.693   2.817   2.389
  470SOL     OW 1432   0.628   0.243   2.571
  470SOL    HW1 1433   0.593   0.158   2.545
  470SOL    HW2 1434   0.614   0.300   2.495
  471SOL     OW 1435   0.812   1.861   2.366
  471SOL    HW1 1436   0.852   1.946   2.351
  471SOL    HW2 1437   0.719   1.881   2.378
  472SOL     OW 1438   0.213   2.806   0.102
  472SOL    HW1 1439   0.277   2.736   0.100
  472SOL    HW2 1440   0.128   2.762   0.093
  473SOL     OW 1441   1.538   2.839   2.046
  473SOL    HW1 1442   1.468   2.787   2.086
  473SOL    HW2 1443   1.590   2.870   2.120
  474SOL     OW 1444   0.596   2.580   2.127
  474SOL    HW1 1445   0.602   2.659   2.073
  474SOL    HW2 1446   0.532   2.602   2.194
  475SOL     OW 1447   1.297   2.198   2.808
  475SOL    HW1 1448   1.203   2.180   2.801
  475SOL    HW2 1449   1.321   2.164   2.894
  476SOL     OW 1450   1.051   2.562   2.289
  476SOL    HW1 1451   1.063   2.557   2.384
  476SOL    HW2 1452   0.969   2.517   2.272
  477SOL     OW 1453   0.106   2.671   2.626
  477SOL    HW1 1454   0.182   2.672   2.684
  477SOL    HW2 1455   0.047   2.738   2.662
  478SOL     OW 1456   0.885   2.207   2.056
  478SOL    HW1 1457   0.929   2.269   1.997
  478SOL    HW2 1458   0.906   2.121   2.020
  479SOL     OW 1459   0.552   2.048   2.766
  479SOL    HW1 1460   0.519   2.081   2.849
  479SOL    HW2 1461   0.559   2.125   2.710
  480SOL     OW 1462   1.798   2.910   2.728
  480SOL    HW1 1463   1.738   2.892   2.655
  480SOL    HW2 1464   1.741   2.914   2.805
  481SOL     OW 1465   1.480   2.602   2.585
  481SOL    HW1 1466   1.465   2.547   2.662
  481SOL    HW2 1467   1.555   2.656   2.609
  482SOL     OW 1468   1.401   1.971   2.292
  482SOL    HW1 1469   1.389   1.945   2.200
  482SOL    HW2 1470   1.496   1.977   2.302
  483SOL     OW 1471   0.394   2.555   2.336
  483SOL    HW1 1472   0.412   2.462   2.350
  483SOL    HW2 1473   0.301   2.565   2.356
  484SOL     OW 1474   0.628   1.988   1.969
  484SOL    HW1 1475   0.705   1.931   1.980
  484SOL    HW2 1476   0.583   1.954   1.892
  485SOL     OW 1477   0.922   2.381   2.757
  485SOL    HW1 1478   0.902   2.358   2.666
  485SOL    HW2 1479   0.958   2.301   2.795
  486SOL     OW 1480   0.548   1.925   2.368
  486SOL    HW1 1481   0.466   1.926   2.418
  486SOL    HW2 1482   0.543   2.003   2.313
  487SOL     OW 1483   0.291   1.905   2.042
  487SOL    HW1 1484   0.350   1.974   2.012
  487SOL    HW2 1485   0.348   1.842   2.085
  488SOL     OW 1486   0.936   2.105   2.325
  488SOL    HW1 1487   0.907   2.149   2.245
  488SOL    HW2 1488   1.031   2.117   2.326
  489SOL     OW 1489   1.026   2.407   1.881
  489SOL    HW1 1490   0.982   2.490   1.860
  489SOL    HW2 1491   1.088   2.430   1.950
  490SOL     OW 1492   0.870   2.318   2.499
  490SOL    HW1 1493   0.822   2.375   2.438
  490SOL    HW2 1494   0.887   2.239   2.449
  491SOL     OW 1495   1.012   1.911   2.613
  491SOL    HW1 1496   0.954   1.904   2.537
  491SOL    HW2 1497   0.993   1.833   2.665
  492SOL     OW 1498   1.422   2.999   2.736
  492SOL    HW1 1499   1.355   2.942   2.699
  492SOL    HW2 1500   1.448   0.056   2.664
  493SOL     OW 1501   1.487   2.448   2.820
  493SOL    HW1 1502   1.422   2.378   2.829
  493SOL    HW2 1503   1.511   2.471   2.910
  494SOL     OW 1504   1.838   2.668   2.253
  494SOL    HW1 1505   1.898   2.618   2.308
  494SOL    HW2 1506   1.816   2.608   2.181
  495SOL     OW 1507   1.394   2.434   1.934
  495SOL    HW1 1508   1.334   2.414   2.006
  495SOL    HW2 1509   1.479   2.401   1.963
  496SOL     OW 1510   0.527   2.124   2.183
  496SOL    HW1 1511   0.566   2.074   2.111
  496SOL    HW2 1512   0.509   2.211   2.146
  497SOL     OW 1513   1.626   2.966   2.935
  497SOL    HW1 1514   1.630   0.043   2.992
  497SOL    HW2 1515   1.551   2.982   2.878
  498SOL     OW 1516   0.554   2.396   2.725
  498SOL    HW1 1517   0.569   2.452   2.649
  498SOL    HW2 1518   0.615   2.428   2.792
  499SOL     OW 1519   1.579   2.487   2.334
  499SOL    HW1 1520   1.540   2.543   2.401
  499SOL    HW2 1521   1.634   2.546   2.282
  500SOL     OW 1522   0.574   2.727   2.884
  500SOL    HW1 1523   0.615   2.808   2.854
  500SOL    HW2 1524   0.558   2.741   2.977
  501SOL     OW 1525   1.208   2.392   2.133
  501SOL    HW1 1526   1.216   2.313   2.186
  501SOL    HW2 1527   1.162   2.455   2.189
  502SOL     OW 1528   0.325   2.062   0.080
  502SOL    HW1 1529   0.317   2.104   0.166
  502SOL    HW2 1530   0.303   1.971   0.096
  503SOL     OW 1531   0.729   2.501   2.915
  503SOL    HW1 1532   0.797   2.479   2.851
  503SOL    HW2 1533   0.696   2.586   2.886
  504SOL     OW 1534   0.302   1.931   2.483
  504SOL    HW1 1535   0.285   2.021   2.509
  504SOL    HW2 1536   0.307   1.882   2.565
  505SOL     OW 1537   1.613   2.233   2.231
  505SOL    HW1 1538   1.641   2.171   2.298
  505SOL    HW2 1539   1.590   2.312   2.280
  506SOL     OW 1540   1.024   2.622   2.823
  506SOL    HW1 1541   1.028   2.627   2.918
  506SOL    HW2 1542   0.996   2.532   2.805
  507SOL     OW 1543   1.531   2.137   1.989
  507SOL    HW1 1544   1.468   2.070   2.014
  507SOL    HW2 1545   1.563   2.172   2.072
  508SOL     OW 1546   1.294   2.687   1.896
  508SOL    HW1 1547   1.335   2.601   1.900
  508SOL    HW2 1548   1.325   2.725   1.813
  509SOL     OW 1549   0.311   2.675   2.809
  509SOL    HW1 1550   0.405   2.691   2.810
  509SOL    HW2 1551   0.302   2.586   2.845
  510SOL     OW 1552   0.321   2.385   2.867
  510SOL    HW1 1553   0.291   2.295   2.852
  510SOL    HW2 1554   0.401   2.392   2.815
  511SOL     OW 1555   0.984   2.616   0.089
  511SOL    HW1 1556   1.027   2.606   0.173
  511SOL    HW2 1557   0.893   2.637   0.111
  512SOL     OW 1558   0.817   2.431   2.216
  512SOL    HW1 1559   0.817   2.356   2.157
  512SOL    HW2 1560   0.742   2.484   2.189
  513SOL     OW 1561   0.704   2.310   0.102
  513SOL    HW1 1562   0.619   2.267   0.091
  513SOL    HW2 1563   0.704   2.381   0.038
  514SOL     OW 1564   0.465   2.356   2.048
  514SOL    HW1 1565   0.527   2.425   2.069
  514SOL    HW2 1566   0.380   2.400   2.046
  515SOL     OW 1567   1.303   2.725   2.171
  515SOL    HW1 1568   1.230   2.685   2.218
  515SOL    HW2 1569   1.287   2.704   2.079
  516SOL     OW 1570   1.717   2.004   2.374
  516SOL    HW1 1571   1.792   1.991   2.316
  516SOL    HW2 1572   1.703   1.918   2.414
  517SOL     OW 1573   1.294   2.798   2.544
  517SOL    HW1 1574   1.359   2.728   2.544
  517SOL    HW2 1575   1.306   2.843   2.461
  518SOL     OW 1576   1.840   2.041   2.822
  518SOL    HW1 1577   1.869   1.953   2.798
  518SOL    HW2 1578   1.750   2.046   2.789
  519SOL     OW 1579   0.270   2.181   2.577
  519SOL    HW1 1580   0.185   2.219   2.554
  519SOL    HW2 1581   0.265   2.167   2.672
  520SOL     OW 1582   0.904   2.760   2.115
  520SOL    HW1 1583   0.980   2.808   2.082
  520SOL    HW2 1584   0.938   2.711   2.190
  521SOL     OW 1585   1.034   2.105   2.807
  521SOL    HW1 1586   1.022   2.050   2.730
  521SOL    HW2 1587   1.004   2.051   2.880
  522SOL     OW 1588   0.092   2.183   1.918
  522SOL    HW1 1589   0.010   2.154   1.879
  522SOL    HW2 1590   0.108   2.269   1.880
  523SOL     OW 1591   0.064   2.058   2.176
  523SOL    HW1 1592   0.072   2.107   2.094
  523SOL    HW2 1593   0.132   1.990   2.170
  524SOL     OW 1594   1.130   0.243   2.002
  524SOL    HW1 1595   1.104   0.160   1.963
  524SOL    HW2 1596   1.210   0.223   2.049
  525SOL     OW 1597   1.728   2.710   0.053
  525SOL    HW1 1598   1.655   2.666   0.097
  525SOL    HW2 1599   1.699   2.801   0.043
  526SOL     OW 1600   1.219   2.182   2.319
  526SOL    HW1 1601   1.282   2.111   2.310
  526SOL    HW2 1602   1.247   2.230   2.397
  527SOL     OW 1603   0.595   2.585   2.525
  527SOL    HW1 1604   0.620   2.677   2.534
  527SOL    HW2 1605   0.524   2.586   2.460
  528SOL     OW 1606   0.881   2.824   2.716
  528SOL    HW1 1607   0.924   2.749   2.757
  528SOL    HW2 1608   0.844   2.874   2.789
  529SOL     OW 1609   1.104   2.874   1.953
  529SOL    HW1 1610   1.061   2.898   1.871
  529SOL    HW2 1611   1.159   2.800   1.930
  530SOL     OW 1612   1.827   2.051   0.095
  530SOL    HW1 1613   1.795   1.961   0.103
  530SOL    HW2 1614   1.831   2.066   0.001
  531SOL     OW 1615   0.426   2.294   2.381
  531SOL    HW1 1616   0.459   2.220   2.330
  531SOL    HW2 1617   0.383   2.252   2.457
  532SOL     OW 1618   1.354   1.915   2.025
  532SOL    HW1 1619   1.385   1.848   1.964
  532SOL    HW2 1620   1.266   1.886   2.050
  533SOL     OW 1621   1.299   2.320   2.549
  533SOL    HW1 1622   1.244   2.398   2.557
  533SOL    HW2 1623   1.297   2.280   2.636
  534SOL     OW 1624   1.583   2.074   2.738
  534SOL    HW1 1625   1.501   2.094   2.783
  534SOL    HW2 1626   1.596   2.148   2.679
  535SOL     OW 1627   0.018   2.930   2.154
  535SOL    HW1 1628   0.113   2.926   2.141
  535SOL    HW2 1629   0.001   2.872   2.228
  536SOL     OW 1630   2.092   0.637   0.121
  536SOL    HW1 1631   1.998   0.628   0.138
  536SOL    HW2 1632   2.104   0.603   0.032
  537SOL     OW 1633   2.078   0.285   1.007
  537SOL    HW1 1634   2.111   0.249   1.090
  537SOL    HW2 1635   1.994   0.242   0.994
  538SOL     OW 1636   1.865   0.380   0.643
  538SOL    HW1 1637   1.784   0.407   0.685
  538SOL    HW2 1638   1.841   0.305   0.588
  539SOL     OW 1639   2.427   1.281   1.172
  539SOL    HW1 1640   2.339   1.285   1.134
  539SOL    HW2 1641   2.443   1.369   1.205
  540SOL     OW 1642   2.618   1.143   1.034
  540SOL    HW1 1643   2.551   1.177   1.094
  540SOL    HW2 1644   2.657   1.221   0.995
  541SOL     OW 1645   2.718   0.780   1.817
  541SOL    HW1 1646   2.715   0.849   1.883
  541SOL    HW2 1647   2.743   0.824   1.736
  542SOL     OW 1648   2.547   1.008   0.650
  542SOL    HW1 1649   2.609   0.990   0.721
  542SOL    HW2 1650   2.476   1.058   0.691
  543SOL     OW 1651   2.568   1.153   1.810
  543SOL    HW1 1652   2.617   1.232   1.834
  543SOL    HW2 1653   2.485   1.185   1.776
  544SOL     OW 1654   2.184   1.439   1.067
  544SOL    HW1 1655   2.125   1.391   1.010
  544SOL    HW2 1656   2.244   1.484   1.007
  545SOL     OW 1657   2.312   0.401   1.489
  545SOL    HW1 1658   2.386   0.341   1.494
  545SOL    HW2 1659   2.235   0.346   1.504
  546SOL     OW 1660   2.083   1.713   0.476
  546SOL    HW1 1661   2.105   1.790   0.527
  546SOL    HW2 1662   2.156   1.703   0.414
  547SOL     OW 1663   2.980   1.348   1.689
  547SOL    HW1 1664   0.036   1.346   1.766
  547SOL    HW2 1665   2.937   1.262   1.688
  548SOL     OW 1666   2.088   1.441   0.534
  548SOL    HW1 1667   2.074   1.536   0.540
  548SOL    HW2 1668   2.026   1.404   0.596
  549SOL     OW 1669   2.114   1.091   0.891
  549SOL    HW1 1670   2.115   1.004   0.932
  549SOL    HW2 1671   2.054   1.142   0.946
  550SOL     OW 1672   2.476   1.790   1.432
  550SOL    HW1 1673   2.393   1.775   1.478
  550SOL    HW2 1674   2.500   1.880   1.455
  551SOL     OW 1675   2.455   0.977   0.145
  551SOL    HW1 1676   2.479   1.050   0.087
  551SOL    HW2 1677   2.491   1.002   0.230
  552SOL     OW 1678   1.980   0.644   0.562
  552SOL    HW1 1679   1.936   0.562   0.587
  552SOL    HW2 1680   1.972   0.699   0.640
  553SOL     OW 1681   1.878   1.590   0.120
  553SOL    HW1 1682   1.888   1.499   0.149
  553SOL    HW2 1683   1.878   1.641   0.201
  554SOL     OW 1684   1.983   0.742   1.586
  554SOL    HW1 1685   2.075   0.763   1.602
  554SOL    HW2 1686   1.938   0.825   1.593
  555SOL     OW 1687   2.472   1.382   0.735
  555SOL    HW1 1688   2.427   1.298   0.742
  555SOL    HW2 1689   2.457   1.410   0.644
  556SOL     OW 1690   2.682   0.014   0.516
  556SOL    HW1 1691   2.707   0.105   0.499
  556SOL    HW2 1692   2.587   0.013   0.501
  557SOL     OW 1693   2.054   0.970   1.264
  557SOL    HW1 1694   2.138   0.926   1.252
  557SOL    HW2 1695   1.989   0.908   1.230
  558SOL     OW 1696   2.187   0.253   1.800
  558SOL    HW1 1697   2.237   0.332   1.822
  558SOL    HW2 1698   2.102   0.267   1.840
  559SOL     OW 1699   2.453   0.722   0.265
  559SOL    HW1 1700   2.461   0.804   0.216
  559SOL    HW2 1701   2.390   0.741   0.334
  560SOL     OW 1702   2.654   0.627   1.454
  560SOL    HW1 1703   2.629   0.600   1.542
  560SOL    HW2 1704   2.616   0.560   1.397
  561SOL     OW 1705   2.830   0.883   1.574
  561SOL    HW1 1706   2.858   0.797   1.541
  561SOL    HW2 1707   2.782   0.921   1.501
  562SOL     OW 1708   2.845   0.377   1.260
  562SOL    HW1 1709   2.770   0.430   1.288
  562SOL    HW2 1710   2.838   0.374   1.164
  563SOL     OW 1711   2.892   0.715   0.410
  563SOL    HW1 1712   2.929   0.699   0.497
  563SOL    HW2 1713   2.817   0.656   0.405
  564SOL     OW 1714   1.953   0.819   0.774
  564SOL    HW1 1715   2.034   0.811   0.824
  564SOL    HW2 1716   1.910   0.897   0.810
  565SOL     OW 1717   1.976   1.810   1.566
  565SOL    HW1 1718   1.982   1.803   1.661
  565SOL    HW2 1719   1.904   1.871   1.551
  566SOL     OW 1720   2.783   0.343   0.219
  566SOL    HW1 1721   2.766   0.397   0.142
  566SOL    HW2 1722   2.772   0.253   0.188
  567SOL     OW 1723   2.380   0.195   0.911
  567SOL    HW1 1724   2.397   0.212   1.003
  567SOL    HW2 1725   2.404   0.277   0.867
  568SOL     OW 1726   2.861   1.441   0.470
  568SOL    HW1 1727   2.828   1.518   0.423
  568SOL    HW2 1728   2.863   1.468   0.562
  569SOL     OW 1729   2.218   1.804   0.857
  569SOL    HW1 1730   2.266   1.721   0.866
  569SOL    HW2 1731   2.285   1.872   0.872
  570SOL     OW 1732   2.181   0.952   0.243
  570SOL    HW1 1733   2.264   0.969   0.199
  570SOL    HW2 1734   2.153   0.867   0.210
  571SOL     OW 1735   2.326   1.264   1.740
  571SOL    HW1 1736   2.299   1.269   1.648
  571SOL    HW2 1737   2.244   1.261   1.789
  572SOL     OW 1738   2.063   0.295   1.498
  572SOL    HW1 1739   1.978   0.340   1.497
  572SOL    HW2 1740   2.051   0.225   1.564
  573SOL     OW 1741   2.328   1.725   0.333
  573SOL    HW1 1742   2.362   1.793   0.391
  573SOL    HW2 1743   2.395   1.716   0.265
  574SOL     OW 1744   2.112   1.788   1.235
  574SOL    HW1 1745   2.169   1.724   1.279
  574SOL    HW2 1746   2.122   1.768   1.142
  575SOL     OW 1747   2.800   1.695   0.901
  575SOL    HW1 1748   2.865   1.630   0.925
  575SOL    HW2 1749   2.751   1.654   0.829
  576SOL     OW 1750   2.255   0.692   0.476
  576SOL    HW1 1751   2.286   0.602   0.492
  576SOL    HW2 1752   2.162   0.689   0.498
  577SOL     OW 1753   2.476   0.108   0.107
  577SOL    HW1 1754   2.570   0.113   0.120
  577SOL    HW2 1755   2.461   0.143   0.019
  578SOL     OW 1756   2.633   0.276   1.752
  578SOL    HW1 1757   2.702   0.211   1.769
  578SOL    HW2 1758   2.579   0.274   1.831
  579SOL     OW 1759   2.739   1.516   1.195
  579SOL    HW1 1760   2.721   1.483   1.107
  579SOL    HW2 1761   2.804   1.455   1.230
  580SOL     OW 1762   2.668   1.403   0.937
  580SOL    HW1 1763   2.752   1.390   0.894
  580SOL    HW2 1764   2.604   1.397   0.866
  581SOL     OW 1765   2.784   0.504   0.905
  581SOL    HW1 1766   2.757   0.494   0.814
  581SOL    HW2 1767   2.824   0.421   0.928
  582SOL     OW 1768   2.402   0.048   0.497
  582SOL    HW1 1769   2.316   0.039   0.538
  582SOL    HW2 1770   2.394   0.128   0.444
  583SOL     OW 1771   0.318   1.153   0.044
  583SOL    HW1 1772   0.311   1.099   0.122
  583SOL    HW2 1773   0.252   1.221   0.056
  584SOL     OW 1774   2.161   0.087   0.186
  584SOL    HW1 1775   2.245   0.133   0.193
  584SOL    HW2 1776   2.183   2.995   0.201
  585SOL     OW 1777   2.824   0.247   0.468
  585SOL    HW1 1778   2.782   0.295   0.396
  585SOL    HW2 1779   2.901   0.207   0.428
  586SOL     OW 1780   0.084   1.582   0.797
  586SOL    HW1 1781   0.110   1.621   0.714
  586SOL    HW2 1782   0.166   1.553   0.838
  587SOL     OW 1783   2.327   1.148   0.737
  587SOL    HW1 1784   2.257   1.128   0.798
  587SOL    HW2 1785   2.289   1.131   0.650
  588SOL     OW 1786   2.896   0.512   0.021
  588SOL    HW1 1787   2.845   0.592   0.007
  588SOL    HW2 1788   2.944   0.528   0.103
  589SOL     OW 1789   1.937   0.556   1.390
  589SOL    HW1 1790   2.029   0.553   1.363
  589SOL    HW2 1791   1.934   0.626   1.456
  590SOL     OW 1792   2.428   0.217   1.179
  590SOL    HW1 1793   2.463   0.164   1.251
  590SOL    HW2 1794   2.335   0.227   1.199
  591SOL     OW 1795   2.745   0.468   0.635
  591SOL    HW1 1796   2.679   0.518   0.587
  591SOL    HW2 1797   2.738   0.380   0.600
  592SOL     OW 1798   2.862   0.056   0.761
  592SOL    HW1 1799   2.823   0.059   0.673
  592SOL    HW2 1800   2.837   2.970   0.795
  593SOL     OW 1801   2.353   1.401   0.152
  593SOL    HW1 1802   2.287   1.373   0.214
  593SOL    HW2 1803   2.306   1.409   0.069
  594SOL     OW 1804   2.392   0.262   0.325
  594SOL    HW1 1805   2.433   0.213   0.254
  594SOL    HW2 1806   2.366   0.345   0.284
  595SOL     OW 1807   2.779   0.112   1.401
  595SOL    HW1 1808   2.806   0.098   1.310
  595SOL    HW2 1809   2.843   0.175   1.435
  596SOL     OW 1810   2.840   1.109   1.729
  596SOL    HW1 1811   2.748   1.131   1.738
  596SOL    HW2 1812   2.843   1.042   1.661
  597SOL     OW 1813   2.563   1.062   0.378
  597SOL    HW1 1814   2.550   1.049   0.472
  597SOL    HW2 1815   2.646   1.019   0.360
  598SOL     OW 1816   2.277   0.814   1.253
  598SOL    HW1 1817   2.347   0.824   1.317
  598SOL    HW2 1818   2.243   0.726   1.267
  599SOL     OW 1819   2.215   1.108   0.491
  599SOL    HW1 1820   2.216   1.182   0.430
  599SOL    HW2 1821   2.214   1.030   0.434
  600SOL     OW 1822   2.418   0.542   0.864
  600SOL    HW1 1823   2.436   0.597   0.787
  600SOL    HW2 1824   2.483   0.570   0.928
  601SOL     OW 1825   2.209   1.517   1.322
  601SOL    HW1 1826   2.196   1.482   1.233
  601SOL    HW2 1827   2.304   1.534   1.327
  602SOL     OW 1828   2.275   0.745   1.602
  602SOL    HW1 1829   2.335   0.791   1.544
  602SOL    HW2 1830   2.315   0.660   1.616
  603SOL     OW 1831   2.867   0.116   1.761
  603SOL    HW1 1832   2.900   0.191   1.712
  603SOL    HW2 1833   2.903   0.040   1.716
  604SOL     OW 1834   2.365   0.055   1.748
  604SOL    HW1 1835   2.331   2.990   1.687
  604SOL    HW2 1836   2.294   0.118   1.758
  605SOL     OW 1837   2.441   0.874   1.030
  605SOL    HW1 1838   2.478   0.962   1.029
  605SOL    HW2 1839   2.387   0.870   1.109
  606SOL     OW 1840   0.063   0.532   0.270
  606SOL    HW1 1841   0.085   0.450   0.314
  606SOL    HW2 1842   0.036   0.590   0.341
  607SOL     OW 1843   2.162   0.199   1.251
  607SOL    HW1 1844   2.130   0.240   1.332
  607SOL    HW2 1845   2.138   0.107   1.260
  608SOL     OW 1846   1.920   1.301   1.275
  608SOL    HW1 1847   1.945   1.246   1.348
  608SOL    HW2 1848   1.926   1.390   1.308
  609SOL     OW 1849   2.590   0.634   1.061
  609SOL    HW1 1850   2.665   0.616   1.004
  609SOL    HW2 1851   2.563   0.723   1.037
  610SOL     OW 1852   2.169   0.060   0.640
  610SOL    HW1 1853   2.169   0.152   0.668
  610SOL    HW2 1854   2.153   0.011   0.721
  611SOL     OW 1855   2.866   0.769   0.973
  611SOL    HW1 1856   2.898   0.774   1.063
  611SOL    HW2 1857   2.872   0.676   0.950
  612SOL     OW 1858   2.829   1.568   1.705
  612SOL    HW1 1859   2.825   1.609   1.618
  612SOL    HW2 1860   2.887   1.493   1.693
  613SOL     OW 1861   2.215   0.917   1.806
  613SOL    HW1 1862   2.297   0.935   1.852
  613SOL    HW2 1863   2.238   0.854   1.738
  614SOL     OW 1864   2.906   1.345   0.834
  614SOL    HW1 1865   2.910   1.266   0.780
  614SOL    HW2 1866   2.980   1.398   0.806
  615SOL     OW 1867   2.172   0.811   0.948
  615SOL    HW1 1868   2.265   0.833   0.944
  615SOL    HW2 1869   2.171   0.721   0.982
  616SOL     OW 1870   2.197   0.525   1.014
  616SOL    HW1 1871   2.159   0.439   0.997
  616SOL    HW2 1872   2.271   0.531   0.954
  617SOL     OW 1873   2.966   0.367   1.665
  617SOL    HW1 1874   2.910   0.431   1.709
  617SOL    HW2 1875   0.054   0.406   1.668
  618SOL     OW 1876   1.872   1.321   0.188
  618SOL    HW1 1877   1.781   1.334   0.160
  618SOL    HW2 1878   1.872   1.234   0.229
  619SOL     OW 1879   1.956   1.792   0.937
  619SOL    HW1 1880   1.920   1.711   0.902
  619SOL    HW2 1881   2.044   1.797   0.900
  620SOL     OW 1882   2.362   1.571   0.907
  620SOL    HW1 1883   2.431   1.633   0.931
  620SOL    HW2 1884   2.406   1.507   0.852
  621SOL     OW 1885   2.863   0.795   1.253
  621SOL    HW1 1886   2.908   0.729   1.306
  621SOL    HW2 1887   2.774   0.761   1.244
  622SOL     OW 1888   1.898   0.541   1.116
  622SOL    HW1 1889   1.979   0.525   1.068
  622SOL    HW2 1890   1.925   0.550   1.208
  623SOL     OW 1891   2.051   0.518   1.725
  623SOL    HW1 1892   2.108   0.481   1.658
  623SOL    HW2 1893   2.006   0.590   1.681
  624SOL     OW 1894   2.674   0.572   0.349
  624SOL    HW1 1895   2.679   0.493   0.295
  624SOL    HW2 1896   2.592   0.614   0.322
  625SOL     OW 1897   2.113   1.553   1.734
  625SOL    HW1 1898   2.090   1.616   1.803
  625SOL    HW2 1899   2.111   1.468   1.779
  626SOL     OW 1900   2.555   0.460   1.265
  626SOL    HW1 1901   2.510   0.382   1.233
  626SOL    HW2 1902   2.556   0.519   1.190
  627SOL     OW 1903   2.798   1.688   1.462
  627SOL    HW1 1904   2.772   1.641   1.383
  627SOL    HW2 1905   2.775   1.779   1.444
  628SOL     OW 1906   2.314   0.494   0.200
  628SOL    HW1 1907   2.372   0.567   0.221
  628SOL    HW2 1908   2.229   0.534   0.185
  629SOL     OW 1909   2.018   1.137   1.471
  629SOL    HW1 1910   2.019   1.083   1.550
  629SOL    HW2 1911   2.032   1.075   1.399
  630SOL     OW 1912   1.935   1.275   1.007
  630SOL    HW1 1913   1.929   1.275   1.103
  630SOL    HW2 1914   1.870   1.211   0.979
  631SOL     OW 1915   2.536   1.663   1.727
  631SOL    HW1 1916   2.490   1.747   1.719
  631SOL    HW2 1917   2.605   1.668   1.661
  632SOL     OW 1918   2.765   0.086   0.141
  632SOL    HW1 1919   2.807   0.043   0.067
  632SOL    HW2 1920   2.808   0.048   0.218
  633SOL     OW 1921   1.998   1.797   1.840
  633SOL    HW1 1922   1.946   1.734   1.890
  633SOL    HW2 1923   2.047   1.846   1.906
  634SOL     OW 1924   2.680   1.268   1.425
  634SOL    HW1 1925   2.671   1.314   1.509
  634SOL    HW2 1926   2.606   1.300   1.373
  635SOL     OW 1927   2.530   1.610   0.160
  635SOL    HW1 1928   2.536   1.627   0.066
  635SOL    HW2 1929   2.478   1.530   0.167
  636SOL     OW 1930   2.137   0.350   0.754
  636SOL    HW1 1931   2.047   0.368   0.727
  636SOL    HW2 1932   2.129   0.315   0.843
  637SOL     OW 1933   2.687   1.006   1.374
  637SOL    HW1 1934   2.734   0.999   1.291
  637SOL    HW2 1935   2.689   1.099   1.395
  638SOL     OW 1936   2.787   0.942   0.308
  638SOL    HW1 1937   2.838   0.954   0.228
  638SOL    HW2 1938   2.823   0.862   0.347
  639SOL     OW 1939   2.231   1.302   1.496
  639SOL    HW1 1940   2.221   1.376   1.436
  639SOL    HW2 1941   2.158   1.244   1.475
  640SOL     OW 1942   2.913   1.083   0.721
  640SOL    HW1 1943   2.837   1.041   0.761
  640SOL    HW2 1944   2.932   1.031   0.643
  641SOL     OW 1945   2.877   0.239   0.969
  641SOL    HW1 1946   2.875   0.188   0.888
  641SOL    HW2 1947   2.870   0.174   1.039
  642SOL     OW 1948   2.459   1.488   0.483
  642SOL    HW1 1949   2.503   1.439   0.414
  642SOL    HW2 1950   2.402   1.549   0.437
  643SOL     OW 1951   2.131   1.335   0.295
  643SOL    HW1 1952   2.044   1.340   0.254
  643SOL    HW2 1953   2.120   1.379   0.380
  644SOL     OW 1954   1.973   1.022   1.721
  644SOL    HW1 1955   1.897   0.996   1.773
  644SOL    HW2 1956   2.048   0.983   1.767
  645SOL     OW 1957   2.528   0.208   1.492
  645SOL    HW1 1958   2.611   0.182   1.452
  645SOL    HW2 1959   2.549   0.223   1.584
  646SOL     OW 1960   1.915   0.199   0.332
  646SOL    HW1 1961   1.886   0.233   0.247
  646SOL    HW2 1962   2.000   0.158   0.313
  647SOL     OW 1963   2.478   0.835   1.432
  647SOL    HW1 1964   2.535   0.911   1.417
  647SOL    HW2 1965   2.539   0.761   1.439
  648SOL     OW 1966   2.578   0.564   1.705
  648SOL    HW1 1967   2.612   0.628   1.767
  648SOL    HW2 1968   2.615   0.480   1.734
  649SOL     OW 1969   2.243   1.741   1.564
  649SOL    HW1 1970   2.154   1.774   1.550
  649SOL    HW2 1971   2.231   1.656   1.606
  650SOL     OW 1972   2.457   0.740   0.664
  650SOL    HW1 1973   2.493   0.828   0.651
  650SOL    HW2 1974   2.385   0.735   0.602
  651SOL     OW 1975   2.763   1.377   0.062
  651SOL    HW1 1976   2.692   1.386   0.125
  651SOL    HW2 1977   2.735   1.426   2.985
  652SOL     OW 1978   2.519   1.795   0.949
  652SOL    HW1 1979   2.498   1.885   0.923
  652SOL    HW2 1980   2.614   1.789   0.939
  653SOL     OW 1981   2.717   0.961   0.857
  653SOL    HW1 1982   2.765   0.889   0.898
  653SOL    HW2 1983   2.688   1.015   0.930
  654SOL     OW 1984   2.956   1.015   0.077
  654SOL    HW1 1985   2.929   1.053   2.994
  654SOL    HW2 1986   0.015   0.944   0.052
  655SOL     OW 1987   2.084   1.306   1.855
  655SOL    HW1 1988   2.020   1.239   1.831
  655SOL    HW2 1989   2.074   1.316   1.950
  656SOL     OW 1990   1.945   1.240   0.667
  656SOL    HW1 1991   1.946   1.183   0.744
  656SOL    HW2 1992   2.012   1.204   0.609
  657SOL     OW 1993   2.539   1.402   1.622
  657SOL    HW1 1994   2.461   1.357   1.655
  657SOL    HW2 1995   2.536   1.488   1.664
  658SOL     OW 1996   2.338   0.434   0.549
  658SOL    HW1 1997   2.325   0.376   0.474
  658SOL    HW2 1998   2.269   0.408   0.611
  659SOL     OW 1999   2.188   0.552   1.291
  659SOL    HW1 2000   2.246   0.499   1.346
  659SOL    HW2 2001   2.211   0.527   1.201
  660SOL     OW 2002   2.682   1.583   0.681
  660SOL    HW1 2003   2.684   1.618   0.592
  660SOL    HW2 2004   2.607   1.525   0.682
  661SOL     OW 2005   2.854   0.018   1.148
  661SOL    HW1 2006   2.820   2.945   1.097
  661SOL    HW2 2007   2.945   2.996   1.164
  662SOL     OW 2008   2.628   1.330   0.314
  662SOL    HW1 2009   2.600   1.240   0.331
  662SOL    HW2 2010   2.712   1.338   0.359
  663SOL     OW 2011   2.480   1.560   1.282
  663SOL    HW1 2012   2.485   1.640   1.334
  663SOL    HW2 2013   2.568   1.550   1.245
  664SOL     OW 2014   1.903   1.075   0.306
  664SOL    HW1 2015   1.996   1.067   0.287
  664SOL    HW2 2016   1.875   0.986   0.327
  665SOL     OW 2017   2.737   1.649   0.348
  665SOL    HW1 2018   2.668   1.633   0.284
  665SOL    HW2 2019   2.708   1.728   0.394
  666SOL     OW 2020   2.092   0.625   1.983
  666SOL    HW1 2021   2.003   0.622   2.017
  666SOL    HW2 2022   2.084   0.596   1.892
  667SOL     OW 2023   2.088   0.276   2.879
  667SOL    HW1 2024   2.104   0.238   2.966
  667SOL    HW2 2025   2.002   0.242   2.854
  668SOL     OW 2026   1.866   0.379   2.504
  668SOL    HW1 2027   1.785   0.410   2.546
  668SOL    HW2 2028   1.839   0.304   2.451
  669SOL     OW 2029   2.613   1.147   2.894
  669SOL    HW1 2030   2.552   1.192   2.953
  669SOL    HW2 2031   2.663   1.218   2.853
  670SOL     OW 2032   2.547   1.009   2.509
  670SOL    HW1 2033   2.607   0.991   2.581
  670SOL    HW2 2034   2.476   1.058   2.549
  671SOL     OW 2035   2.203   1.432   2.931
  671SOL    HW1 2036   2.125   1.399   2.885
  671SOL    HW2 2037   2.249   1.485   2.865
  672SOL     OW 2038   2.083   1.713   2.337
  672SOL    HW1 2039   2.105   1.789   2.390
  672SOL    HW2 2040   2.152   1.707   2.271
  673SOL     OW 2041   2.090   1.439   2.393
  673SOL    HW1 2042   2.076   1.533   2.401
  673SOL    HW2 2043   2.031   1.400   2.457
  674SOL     OW 2044   2.116   1.092   2.754
  674SOL    HW1 2045   2.110   1.005   2.793
  674SOL    HW2 2046   2.057   1.146   2.806
  675SOL     OW 2047   2.452   0.979   1.994
  675SOL    HW1 2048   2.493   1.032   1.926
  675SOL    HW2 2049   2.492   1.009   2.075
  676SOL     OW 2050   1.981   0.644   2.425
  676SOL    HW1 2051   1.934   0.564   2.448
  676SOL    HW2 2052   1.972   0.700   2.502
  677SOL     OW 2053   1.891   1.596   1.984
  677SOL    HW1 2054   1.877   1.504   2.008
  677SOL    HW2 2055   1.868   1.644   2.064
  678SOL     OW 2056   2.471   1.380   2.593
  678SOL    HW1 2057   2.424   1.297   2.601
  678SOL    HW2 2058   2.455   1.408   2.502
  679SOL     OW 2059   2.683   0.013   2.375
  679SOL    HW1 2060   2.708   0.104   2.357
  679SOL    HW2 2061   2.588   0.011   2.362
  680SOL     OW 2062   2.458   0.724   2.126
  680SOL    HW1 2063   2.464   0.804   2.073
  680SOL    HW2 2064   2.392   0.745   2.192
  681SOL     OW 2065   2.891   0.709   2.282
  681SOL    HW1 2066   2.920   0.693   2.372
  681SOL    HW2 2067   2.815   0.651   2.271
  682SOL     OW 2068   1.953   0.820   2.635
  682SOL    HW1 2069   2.032   0.811   2.688
  682SOL    HW2 2070   1.907   0.896   2.671
  683SOL     OW 2071   2.737   0.344   2.050
  683SOL    HW1 2072   2.791   0.405   2.000
  683SOL    HW2 2073   2.778   0.259   2.036
  684SOL     OW 2074   2.417   0.200   2.829
  684SOL    HW1 2075   2.362   0.263   2.874
  684SOL    HW2 2076   2.430   0.237   2.742
  685SOL     OW 2077   2.861   1.439   2.332
  685SOL    HW1 2078   2.827   1.516   2.286
  685SOL    HW2 2079   2.866   1.466   2.423
  686SOL     OW 2080   2.217   1.804   2.715
  686SOL    HW1 2081   2.260   1.720   2.729
  686SOL    HW2 2082   2.283   1.869   2.737
  687SOL     OW 2083   2.184   0.956   2.109
  687SOL    HW1 2084   2.266   0.974   2.064
  687SOL    HW2 2085   2.152   0.874   2.070
  688SOL     OW 2086   2.329   1.739   2.183
  688SOL    HW1 2087   2.368   1.795   2.250
  688SOL    HW2 2088   2.402   1.711   2.128
  689SOL     OW 2089   2.126   1.800   0.103
  689SOL    HW1 2090   2.167   1.730   0.154
  689SOL    HW2 2091   2.080   1.753   0.033
  690SOL     OW 2092   2.794   1.699   2.759
  690SOL    HW1 2093   2.859   1.639   2.795
  690SOL    HW2 2094   2.754   1.650   2.687
  691SOL     OW 2095   2.255   0.692   2.340
  691SOL    HW1 2096   2.285   0.602   2.354
  691SOL    HW2 2097   2.162   0.690   2.361
  692SOL     OW 2098   2.487   0.123   1.973
  692SOL    HW1 2099   2.576   0.087   1.970
  692SOL    HW2 2100   2.449   0.101   1.888
  693SOL     OW 2101   2.662   1.403   2.790
  693SOL    HW1 2102   2.748   1.394   2.749
  693SOL    HW2 2103   2.600   1.396   2.717
  694SOL     OW 2104   2.782   0.519   2.756
  694SOL    HW1 2105   2.757   0.495   2.667
  694SOL    HW2 2106   2.813   0.437   2.795
  695SOL     OW 2107   2.405   0.059   2.365
  695SOL    HW1 2108   2.318   0.043   2.400
  695SOL    HW2 2109   2.393   0.132   2.303
  696SOL     OW 2110   2.151   0.035   2.058
  696SOL    HW1 2111   2.195   0.110   2.018
  696SOL    HW2 2112   2.222   2.976   2.083
  697SOL     OW 2113   2.813   0.251   2.323
  697SOL    HW1 2114   2.762   0.292   2.253
  697SOL    HW2 2115   2.892   0.220   2.279
  698SOL     OW 2116   0.084   1.577   2.660
  698SOL    HW1 2117   0.113   1.623   2.582
  698SOL    HW2 2118   0.165   1.555   2.707
  699SOL     OW 2119   2.328   1.146   2.599
  699SOL    HW1 2120   2.258   1.129   2.661
  699SOL    HW2 2121   2.289   1.128   2.513
  700SOL     OW 2122   2.888   0.551   1.877
  700SOL    HW1 2123   2.842   0.633   1.857
  700SOL    HW2 2124   2.938   0.570   1.956
  701SOL     OW 2125   2.744   0.467   2.494
  701SOL    HW1 2126   2.679   0.518   2.445
  701SOL    HW2 2127   2.740   0.380   2.454
  702SOL     OW 2128   2.859   0.054   2.618
  702SOL    HW1 2129   2.821   0.052   2.530
  702SOL    HW2 2130   2.838   2.968   2.655
  703SOL     OW 2131   2.354   1.414   2.024
  703SOL    HW1 2132   2.278   1.384   2.075
  703SOL    HW2 2133   2.336   1.386   1.934
  704SOL     OW 2134   2.394   0.266   2.183
  704SOL    HW1 2135   2.428   0.212   2.112
  704SOL    HW2 2136   2.371   0.349   2.142
  705SOL     OW 2137   2.569   1.061   2.234
  705SOL    HW1 2138   2.555   1.047   2.327
  705SOL    HW2 2139   2.647   1.009   2.213
  706SOL     OW 2140   2.216   1.105   2.354
  706SOL    HW1 2141   2.221   1.179   2.294
  706SOL    HW2 2142   2.214   1.028   2.298
  707SOL     OW 2143   2.414   0.542   2.728
  707SOL    HW1 2144   2.433   0.593   2.650
  707SOL    HW2 2145   2.480   0.570   2.792
  708SOL     OW 2146   2.437   0.871   2.879
  708SOL    HW1 2147   2.481   0.953   2.856
  708SOL    HW2 2148   2.415   0.881   2.972
  709SOL     OW 2149   0.056   0.532   2.134
  709SOL    HW1 2150   0.084   0.454   2.182
  709SOL    HW2 2151   0.026   0.593   2.201
  710SOL     OW 2152   2.596   0.645   2.918
  710SOL    HW1 2153   2.661   0.620   2.852
  710SOL    HW2 2154   2.561   0.728   2.885
  711SOL     OW 2155   2.173   0.061   2.506
  711SOL    HW1 2156   2.163   0.152   2.534
  711SOL    HW2 2157   2.152   0.009   2.583
  712SOL     OW 2158   2.874   0.777   2.830
  712SOL    HW1 2159   2.884   0.770   2.925
  712SOL    HW2 2160   2.867   0.686   2.800
  713SOL     OW 2161   2.907   1.343   2.697
  713SOL    HW1 2162   2.914   1.268   2.639
  713SOL    HW2 2163   2.977   1.402   2.668
  714SOL     OW 2164   2.171   0.811   2.811
  714SOL    HW1 2165   2.264   0.832   2.809
  714SOL    HW2 2166   2.167   0.720   2.841
  715SOL     OW 2167   2.185   0.534   2.869
  715SOL    HW1 2168   2.150   0.445   2.865
  715SOL    HW2 2169   2.263   0.531   2.813
  716SOL     OW 2170   1.854   1.322   2.054
  716SOL    HW1 2171   1.762   1.326   2.026
  716SOL    HW2 2172   1.865   1.233   2.088
  717SOL     OW 2173   1.952   1.795   2.795
  717SOL    HW1 2174   1.921   1.712   2.758
  717SOL    HW2 2175   2.043   1.801   2.767
  718SOL     OW 2176   2.366   1.576   2.764
  718SOL    HW1 2177   2.436   1.637   2.786
  718SOL    HW2 2178   2.408   1.508   2.713
  719SOL     OW 2179   2.847   0.758   0.104
  719SOL    HW1 2180   2.887   0.741   0.189
  719SOL    HW2 2181   2.754   0.771   0.123
  720SOL     OW 2182   2.671   0.565   2.213
  720SOL    HW1 2183   2.671   0.489   2.155
  720SOL    HW2 2184   2.596   0.617   2.185
  721SOL     OW 2185   2.561   0.438   0.085
  721SOL    HW1 2186   2.468   0.431   0.103
  721SOL    HW2 2187   2.570   0.517   0.031
  722SOL     OW 2188   2.330   0.494   2.050
  722SOL    HW1 2189   2.386   0.569   2.069
  722SOL    HW2 2190   2.242   0.531   2.040
  723SOL     OW 2191   1.943   1.268   2.885
  723SOL    HW1 2192   1.930   1.276   2.980
  723SOL    HW2 2193   1.869   1.214   2.856
  724SOL     OW 2194   2.533   1.618   2.017
  724SOL    HW1 2195   2.543   1.627   1.922
  724SOL    HW2 2196   2.480   1.539   2.028
  725SOL     OW 2197   2.133   0.333   2.615
  725SOL    HW1 2198   2.047   0.366   2.591
  725SOL    HW2 2199   2.126   0.311   2.708
  726SOL     OW 2200   2.784   0.920   2.155
  726SOL    HW1 2201   2.834   0.929   2.074
  726SOL    HW2 2202   2.818   0.841   2.196
  727SOL     OW 2203   2.911   1.080   2.584
  727SOL    HW1 2204   2.833   1.039   2.620
  727SOL    HW2 2205   2.932   1.029   2.505
  728SOL     OW 2206   2.880   0.236   2.820
  728SOL    HW1 2207   2.874   0.190   2.737
  728SOL    HW2 2208   2.877   0.167   2.887
  729SOL     OW 2209   2.461   1.487   2.343
  729SOL    HW1 2210   2.503   1.438   2.272
  729SOL    HW2 2211   2.398   1.544   2.298
  730SOL     OW 2212   2.114   1.348   2.144
  730SOL    HW1 2213   2.020   1.347   2.127
  730SOL    HW2 2214   2.122   1.383   2.233
  731SOL     OW 2215   1.940   0.338   1.899
  731SOL    HW1 2216   1.851   0.317   1.873
  731SOL    HW2 2217   1.965   0.411   1.844
  732SOL     OW 2218   1.902   0.206   2.162
  732SOL    HW1 2219   1.921   0.265   2.089
  732SOL    HW2 2220   1.972   0.141   2.159
  733SOL     OW 2221   2.458   0.740   2.527
  733SOL    HW1 2222   2.493   0.828   2.511
  733SOL    HW2 2223   2.385   0.733   2.465
  734SOL     OW 2224   2.725   1.369   1.894
  734SOL    HW1 2225   2.682   1.402   1.973
  734SOL    HW2 2226   2.748   1.447   1.844
  735SOL     OW 2227   2.525   1.798   2.823
  735SOL    HW1 2228   2.504   1.885   2.789
  735SOL    HW2 2229   2.619   1.787   2.805
  736SOL     OW 2230   2.712   0.960   2.719
  736SOL    HW1 2231   2.766   0.892   2.759
  736SOL    HW2 2232   2.687   1.017   2.793
  737SOL     OW 2233   2.936   0.950   1.930
  737SOL    HW1 2234   2.908   1.027   1.879
  737SOL    HW2 2235   0.026   0.970   1.956
  738SOL     OW 2236   1.947   1.238   2.527
  738SOL    HW1 2237   1.942   1.183   2.605
  738SOL    HW2 2238   2.015   1.198   2.473
  739SOL     OW 2239   2.331   0.431   2.407
  739SOL    HW1 2240   2.320   0.373   2.332
  739SOL    HW2 2241   2.265   0.402   2.470
  740SOL     OW 2242   2.683   1.581   2.538
  740SOL    HW1 2243   2.684   1.617   2.449
  740SOL    HW2 2244   2.605   1.526   2.541
  741SOL     OW 2245   2.635   1.333   2.172
  741SOL    HW1 2246   2.604   1.243   2.182
  741SOL    HW2 2247   2.714   1.337   2.225
  742SOL     OW 2248   1.907   1.076   2.165
  742SOL    HW1 2249   2.001   1.064   2.150
  742SOL    HW2 2250   1.875   0.989   2.188
  743SOL     OW 2251   2.737   1.645   2.210
  743SOL    HW1 2252   2.668   1.633   2.145
  743SOL    HW2 2253   2.713   1.727   2.254
  744SOL     OW 2254   2.088   2.501   0.112
  744SOL    HW1 2255   1.999   2.477   0.135
  744SOL    HW2 2256   2.104   2.459   0.028
  745SOL     OW 2257   2.086   2.141   0.991
  745SOL    HW1 2258   2.115   2.110   1.076
  745SOL    HW2 2259   1.997   2.108   0.982
  746SOL     OW 2260   1.869   2.245   0.640
  746SOL    HW1 2261   1.785   2.268   0.679
  746SOL    HW2 2262   1.850   2.166   0.587
  747SOL     OW 2263   2.598   0.001   1.022
  747SOL    HW1 2264   2.527   0.048   1.067
  747SOL    HW2 2265   2.645   0.069   0.974
  748SOL     OW 2266   2.719   2.639   1.818
  748SOL    HW1 2267   2.720   2.700   1.892
  748SOL    HW2 2268   2.750   2.692   1.744
  749SOL     OW 2269   2.515   2.847   0.707
  749SOL    HW1 2270   2.609   2.855   0.724
  749SOL    HW2 2271   2.490   2.933   0.671
  750SOL     OW 2272   2.305   2.260   1.493
  750SOL    HW1 2273   2.383   2.204   1.495
  750SOL    HW2 2274   2.232   2.199   1.502
  751SOL     OW 2275   2.109   0.307   0.483
  751SOL    HW1 2276   2.060   0.386   0.503
  751SOL    HW2 2277   2.048   0.236   0.501
  752SOL     OW 2278   2.108   2.949   0.883
  752SOL    HW1 2279   2.124   2.862   0.920
  752SOL    HW2 2280   2.057   2.994   0.950
  753SOL     OW 2281   2.478   2.832   0.147
  753SOL    HW1 2282   2.463   2.924   0.127
  753SOL    HW2 2283   2.543   2.832   0.217
  754SOL     OW 2284   1.977   2.509   0.561
  754SOL    HW1 2285   1.948   2.421   0.583
  754SOL    HW2 2286   1.968   2.558   0.643
  755SOL     OW 2287   1.984   2.604   1.585
  755SOL    HW1 2288   2.077   2.622   1.603
  755SOL    HW2 2289   1.940   2.687   1.603
  756SOL     OW 2290   2.524   0.245   0.678
  756SOL    HW1 2291   2.466   0.181   0.718
  756SOL    HW2 2292   2.466   0.301   0.626
  757SOL     OW 2293   2.674   1.863   0.505
  757SOL    HW1 2294   2.712   1.950   0.493
  757SOL    HW2 2295   2.580   1.880   0.516
  758SOL     OW 2296   2.056   2.841   1.256
  758SOL    HW1 2297   2.138   2.792   1.249
  758SOL    HW2 2298   1.988   2.778   1.232
  759SOL     OW 2299   2.189   2.114   1.801
  759SOL    HW1 2300   2.239   2.194   1.821
  759SOL    HW2 2301   2.103   2.130   1.839
  760SOL     OW 2302   2.454   2.581   0.268
  760SOL    HW1 2303   2.463   2.661   0.216
  760SOL    HW2 2304   2.389   2.603   0.335
  761SOL     OW 2305   2.653   2.487   1.453
  761SOL    HW1 2306   2.629   2.461   1.542
  761SOL    HW2 2307   2.615   2.420   1.397
  762SOL     OW 2308   2.828   2.747   1.580
  762SOL    HW1 2309   2.859   2.663   1.546
  762SOL    HW2 2310   2.776   2.785   1.509
  763SOL     OW 2311   2.846   2.237   1.258
  763SOL    HW1 2312   2.771   2.289   1.286
  763SOL    HW2 2313   2.836   2.231   1.163
  764SOL     OW 2314   2.888   2.580   0.412
  764SOL    HW1 2315   2.929   2.563   0.496
  764SOL    HW2 2316   2.816   2.518   0.406
  765SOL     OW 2317   1.947   2.681   0.777
  765SOL    HW1 2318   2.031   2.672   0.821
  765SOL    HW2 2319   1.911   2.763   0.810
  766SOL     OW 2320   2.789   2.194   0.217
  766SOL    HW1 2321   2.782   2.262   0.150
  766SOL    HW2 2322   2.757   2.115   0.174
  767SOL     OW 2323   2.409   2.046   0.892
  767SOL    HW1 2324   2.414   2.073   0.983
  767SOL    HW2 2325   2.413   2.128   0.842
  768SOL     OW 2326   2.058   2.139   1.498
  768SOL    HW1 2327   1.982   2.198   1.490
  768SOL    HW2 2328   2.049   2.100   1.585
  769SOL     OW 2329   2.249   2.556   0.475
  769SOL    HW1 2330   2.275   2.464   0.485
  769SOL    HW2 2331   2.156   2.558   0.496
  770SOL     OW 2332   2.486   1.981   0.115
  770SOL    HW1 2333   2.580   1.965   0.118
  770SOL    HW2 2334   2.456   1.937   0.035
  771SOL     OW 2335   2.630   2.141   1.754
  771SOL    HW1 2336   2.701   2.078   1.766
  771SOL    HW2 2337   2.573   2.127   1.829
  772SOL     OW 2338   2.786   2.366   0.903
  772SOL    HW1 2339   2.760   2.355   0.812
  772SOL    HW2 2340   2.825   2.282   0.927
  773SOL     OW 2341   2.409   1.924   0.506
  773SOL    HW1 2342   2.328   1.926   0.557
  773SOL    HW2 2343   2.404   2.001   0.450
  774SOL     OW 2344   2.809   2.101   0.466
  774SOL    HW1 2345   2.775   2.148   0.390
  774SOL    HW2 2346   2.897   2.073   0.439
  775SOL     OW 2347   2.886   2.380   0.032
  775SOL    HW1 2348   2.845   2.464   0.011
  775SOL    HW2 2349   2.944   2.399   0.106
  776SOL     OW 2350   1.940   2.416   1.392
  776SOL    HW1 2351   2.031   2.416   1.363
  776SOL    HW2 2352   1.935   2.487   1.456
  777SOL     OW 2353   2.424   2.089   1.163
  777SOL    HW1 2354   2.463   2.010   1.200
  777SOL    HW2 2355   2.333   2.087   1.194
  778SOL     OW 2356   2.741   2.319   0.636
  778SOL    HW1 2357   2.686   2.379   0.585
  778SOL    HW2 2358   2.744   2.239   0.583
  779SOL     OW 2359   2.857   1.923   0.757
  779SOL    HW1 2360   2.812   1.903   0.675
  779SOL    HW2 2361   2.851   1.843   0.809
  780SOL     OW 2362   2.380   2.122   0.324
  780SOL    HW1 2363   2.421   2.073   0.252
  780SOL    HW2 2364   2.365   2.209   0.288
  781SOL     OW 2365   2.755   1.949   1.390
  781SOL    HW1 2366   2.781   1.934   1.299
  781SOL    HW2 2367   2.830   1.992   1.430
  782SOL     OW 2368   2.275   2.678   1.254
  782SOL    HW1 2369   2.346   2.685   1.317
  782SOL    HW2 2370   2.241   2.589   1.266
  783SOL     OW 2371   2.418   2.399   0.862
  783SOL    HW1 2372   2.434   2.455   0.786
  783SOL    HW2 2373   2.483   2.428   0.927
  784SOL     OW 2374   2.275   2.603   1.603
  784SOL    HW1 2375   2.335   2.649   1.544
  784SOL    HW2 2376   2.318   2.519   1.619
  785SOL     OW 2377   2.856   1.988   1.771
  785SOL    HW1 2378   2.899   2.043   1.705
  785SOL    HW2 2379   2.901   1.903   1.763
  786SOL     OW 2380   2.361   1.907   1.746
  786SOL    HW1 2381   2.320   1.852   1.679
  786SOL    HW2 2382   2.299   1.979   1.758
  787SOL     OW 2383   2.450   2.730   1.035
  787SOL    HW1 2384   2.468   2.822   1.016
  787SOL    HW2 2385   2.387   2.732   1.107
  788SOL     OW 2386   0.063   2.398   0.272
  788SOL    HW1 2387   0.080   2.318   0.321
  788SOL    HW2 2388   0.035   2.461   0.338
  789SOL     OW 2389   2.163   2.062   1.245
  789SOL    HW1 2390   2.127   2.097   1.327
  789SOL    HW2 2391   2.140   1.968   1.248
  790SOL     OW 2392   2.589   2.492   1.061
  790SOL    HW1 2393   2.666   2.478   1.005
  790SOL    HW2 2394   2.561   2.582   1.042
  791SOL     OW 2395   2.162   1.928   0.623
  791SOL    HW1 2396   2.146   2.019   0.648
  791SOL    HW2 2397   2.170   1.881   0.706
  792SOL     OW 2398   2.857   2.625   0.983
  792SOL    HW1 2399   2.910   2.621   1.062
  792SOL    HW2 2400   2.864   2.537   0.945
  793SOL     OW 2401   2.222   2.786   1.801
  793SOL    HW1 2402   2.290   2.780   1.869
  793SOL    HW2 2403   2.244   2.715   1.740
  794SOL     OW 2404   2.174   2.675   0.949
  794SOL    HW1 2405   2.267   2.692   0.936
  794SOL    HW2 2406   2.171   2.585   0.983
  795SOL     OW 2407   2.195   2.385   1.011
  795SOL    HW1 2408   2.159   2.298   0.994
  795SOL    HW2 2409   2.272   2.391   0.954
  796SOL     OW 2410   2.969   2.242   1.667
  796SOL    HW1 2411   2.913   2.302   1.716
  796SOL    HW2 2412   0.056   2.280   1.672
  797SOL     OW 2413   2.977   2.063   1.472
  797SOL    HW1 2414   2.964   2.135   1.533
  797SOL    HW2 2415   2.984   2.105   1.386
  798SOL     OW 2416   2.859   2.668   1.265
  798SOL    HW1 2417   2.909   2.598   1.307
  798SOL    HW2 2418   2.778   2.625   1.237
  799SOL     OW 2419   1.898   2.405   1.117
  799SOL    HW1 2420   1.979   2.388   1.068
  799SOL    HW2 2421   1.925   2.411   1.208
  800SOL     OW 2422   2.050   2.379   1.722
  800SOL    HW1 2423   2.114   2.351   1.656
  800SOL    HW2 2424   2.003   2.451   1.680
  801SOL     OW 2425   2.670   2.427   0.356
  801SOL    HW1 2426   2.673   2.357   0.290
  801SOL    HW2 2427   2.596   2.481   0.330
  802SOL     OW 2428   2.553   2.319   1.265
  802SOL    HW1 2429   2.508   2.241   1.231
  802SOL    HW2 2430   2.556   2.379   1.191
  803SOL     OW 2431   2.305   2.356   0.208
  803SOL    HW1 2432   2.372   2.423   0.222
  803SOL    HW2 2433   2.226   2.405   0.187
  804SOL     OW 2434   2.020   2.997   1.474
  804SOL    HW1 2435   2.024   2.939   1.551
  804SOL    HW2 2436   2.034   2.939   1.400
  805SOL     OW 2437   2.761   1.934   0.125
  805SOL    HW1 2438   2.820   1.911   0.053
  805SOL    HW2 2439   2.804   1.900   0.203
  806SOL     OW 2440   2.126   2.178   0.718
  806SOL    HW1 2441   2.042   2.215   0.693
  806SOL    HW2 2442   2.121   2.170   0.814
  807SOL     OW 2443   2.672   2.866   1.375
  807SOL    HW1 2444   2.729   2.842   1.302
  807SOL    HW2 2445   2.699   2.956   1.397
  808SOL     OW 2446   2.745   2.784   0.287
  808SOL    HW1 2447   2.825   2.834   0.269
  808SOL    HW2 2448   2.771   2.720   0.353
  809SOL     OW 2449   2.878   2.103   0.967
  809SOL    HW1 2450   2.875   2.054   0.885
  809SOL    HW2 2451   2.869   2.037   1.036
  810SOL     OW 2452   1.974   2.864   1.709
  810SOL    HW1 2453   1.899   2.856   1.767
  810SOL    HW2 2454   2.050   2.845   1.765
  811SOL     OW 2455   2.527   2.061   1.500
  811SOL    HW1 2456   2.608   2.041   1.453
  811SOL    HW2 2457   2.556   2.090   1.587
  812SOL     OW 2458   1.937   2.019   0.341
  812SOL    HW1 2459   1.901   2.066   0.266
  812SOL    HW2 2460   2.027   1.999   0.315
  813SOL     OW 2461   2.475   2.693   1.434
  813SOL    HW1 2462   2.532   2.768   1.418
  813SOL    HW2 2463   2.535   2.619   1.441
  814SOL     OW 2464   2.577   2.426   1.704
  814SOL    HW1 2465   2.611   2.492   1.764
  814SOL    HW2 2466   2.613   2.343   1.736
  815SOL     OW 2467   2.455   2.586   0.662
  815SOL    HW1 2468   2.482   2.678   0.671
  815SOL    HW2 2469   2.384   2.589   0.597
  816SOL     OW 2470   2.750   2.836   0.862
  816SOL    HW1 2471   2.780   2.753   0.898
  816SOL    HW2 2472   2.682   2.866   0.923
  817SOL     OW 2473   2.293   2.295   0.528
  817SOL    HW1 2474   2.320   2.225   0.469
  817SOL    HW2 2475   2.245   2.251   0.598
  818SOL     OW 2476   2.189   2.414   1.289
  818SOL    HW1 2477   2.245   2.361   1.345
  818SOL    HW2 2478   2.211   2.388   1.200
  819SOL     OW 2479   2.867   1.879   1.145
  819SOL    HW1 2480   2.815   1.811   1.103
  819SOL    HW2 2481   2.957   1.858   1.122
  820SOL     OW 2482   1.873   2.918   0.304
  820SOL    HW1 2483   1.958   2.920   0.260
  820SOL    HW2 2484   1.865   2.828   0.336
  821SOL     OW 2485   2.093   2.470   1.982
  821SOL    HW1 2486   2.006   2.491   2.015
  821SOL    HW2 2487   2.081   2.453   1.889
  822SOL     OW 2488   2.090   2.141   2.845
  822SOL    HW1 2489   2.117   2.115   2.933
  822SOL    HW2 2490   2.000   2.110   2.838
  823SOL     OW 2491   1.869   2.245   2.498
  823SOL    HW1 2492   1.787   2.270   2.539
  823SOL    HW2 2493   1.849   2.163   2.452
  824SOL     OW 2494   2.639   0.016   2.880
  824SOL    HW1 2495   2.549   0.024   2.911
  824SOL    HW2 2496   2.651   0.091   2.822
  825SOL     OW 2497   2.513   2.844   2.562
  825SOL    HW1 2498   2.604   2.848   2.591
  825SOL    HW2 2499   2.492   2.934   2.536
  826SOL     OW 2500   2.099   0.302   2.337
  826SOL    HW1 2501   2.056   0.383   2.362
  826SOL    HW2 2502   2.045   0.233   2.375
  827SOL     OW 2503   2.111   2.952   2.750
  827SOL    HW1 2504   2.125   2.863   2.782
  827SOL    HW2 2505   2.055   2.993   2.815
  828SOL     OW 2506   2.465   2.824   1.995
  828SOL    HW1 2507   2.461   2.907   1.946
  828SOL    HW2 2508   2.529   2.840   2.064
  829SOL     OW 2509   1.978   2.509   2.424
  829SOL    HW1 2510   1.948   2.421   2.446
  829SOL    HW2 2511   1.970   2.558   2.505
  830SOL     OW 2512   2.504   0.247   2.563
  830SOL    HW1 2513   2.459   0.163   2.552
  830SOL    HW2 2514   2.466   0.303   2.495
  831SOL     OW 2515   2.673   1.863   2.364
  831SOL    HW1 2516   2.713   1.949   2.354
  831SOL    HW2 2517   2.580   1.880   2.378
  832SOL     OW 2518   2.062   2.807   0.116
  832SOL    HW1 2519   2.130   2.740   0.107
  832SOL    HW2 2520   1.981   2.762   0.092
  833SOL     OW 2521   2.458   2.580   2.128
  833SOL    HW1 2522   2.465   2.658   2.072
  833SOL    HW2 2523   2.393   2.603   2.194
  834SOL     OW 2524   2.895   2.578   2.275
  834SOL    HW1 2525   2.925   2.567   2.365
  834SOL    HW2 2526   2.817   2.523   2.268
  835SOL     OW 2527   1.947   2.682   2.638
  835SOL    HW1 2528   2.029   2.670   2.685
  835SOL    HW2 2529   1.910   2.763   2.675
  836SOL     OW 2530   2.747   2.204   2.059
  836SOL    HW1 2531   2.788   2.268   2.001
  836SOL    HW2 2532   2.760   2.120   2.016
  837SOL     OW 2533   2.412   2.049   2.764
  837SOL    HW1 2534   2.382   2.082   2.848
  837SOL    HW2 2535   2.420   2.126   2.709
  838SOL     OW 2536   2.249   2.556   2.336
  838SOL    HW1 2537   2.275   2.464   2.347
  838SOL    HW2 2538   2.156   2.558   2.359
  839SOL     OW 2539   2.493   1.989   1.967
  839SOL    HW1 2540   2.564   1.926   1.982
  839SOL    HW2 2541   2.446   1.954   1.891
  840SOL     OW 2542   2.785   2.376   2.756
  840SOL    HW1 2543   2.761   2.354   2.667
  840SOL    HW2 2544   2.814   2.293   2.795
  841SOL     OW 2545   2.409   1.925   2.368
  841SOL    HW1 2546   2.328   1.926   2.419
  841SOL    HW2 2547   2.404   2.004   2.313
  842SOL     OW 2548   2.155   1.908   2.043
  842SOL    HW1 2549   2.214   1.976   2.011
  842SOL    HW2 2550   2.213   1.844   2.086
  843SOL     OW 2551   2.804   2.103   2.318
  843SOL    HW1 2552   2.766   2.149   2.244
  843SOL    HW2 2553   2.891   2.078   2.290
  844SOL     OW 2554   2.887   2.414   1.877
  844SOL    HW1 2555   2.840   2.495   1.856
  844SOL    HW2 2556   2.936   2.435   1.957
  845SOL     OW 2557   2.741   2.318   2.495
  845SOL    HW1 2558   2.684   2.378   2.448
  845SOL    HW2 2559   2.742   2.238   2.442
  846SOL     OW 2560   2.856   1.924   2.611
  846SOL    HW1 2561   2.807   1.896   2.534
  846SOL    HW2 2562   2.854   1.849   2.670
  847SOL     OW 2563   2.388   2.124   2.183
  847SOL    HW1 2564   2.429   2.076   2.111
  847SOL    HW2 2565   2.370   2.210   2.147
  848SOL     OW 2566   2.418   2.394   2.723
  848SOL    HW1 2567   2.432   2.452   2.648
  848SOL    HW2 2568   2.477   2.427   2.791
  849SOL     OW 2569   2.433   2.729   2.885
  849SOL    HW1 2570   2.480   2.807   2.855
  849SOL    HW2 2571   2.422   2.742   2.979
  850SOL     OW 2572   0.055   2.391   2.138
  850SOL    HW1 2573   0.089   2.318   2.191
  850SOL    HW2 2574   0.018   2.452   2.202
  851SOL     OW 2575   2.159   2.070   0.091
  851SOL    HW1 2576   2.188   2.102   0.177
  851SOL    HW2 2577   2.153   1.975   0.103
  852SOL     OW 2578   2.590   2.499   2.913
  852SOL    HW1 2579   2.662   2.480   2.853
  852SOL    HW2 2580   2.561   2.587   2.888
  853SOL     OW 2581   2.163   1.928   2.483
  853SOL    HW1 2582   2.145   2.019   2.509
  853SOL    HW2 2583   2.168   1.880   2.566
  854SOL     OW 2584   2.871   2.633   2.825
  854SOL    HW1 2585   2.894   2.634   2.918
  854SOL    HW2 2586   2.868   2.540   2.802
  855SOL     OW 2587   2.170   2.673   2.809
  855SOL    HW1 2588   2.264   2.694   2.811
  855SOL    HW2 2589   2.166   2.582   2.839
  856SOL     OW 2590   2.185   2.395   2.865
  856SOL    HW1 2591   2.149   2.307   2.858
  856SOL    HW2 2592   2.265   2.393   2.813
  857SOL     OW 2593   2.876   2.641   0.095
  857SOL    HW1 2594   2.916   2.634   0.182
  857SOL    HW2 2595   2.786   2.669   0.113
  858SOL     OW 2596   2.674   2.428   2.217
  858SOL    HW1 2597   2.672   2.353   2.158
  858SOL    HW2 2598   2.600   2.482   2.189
  859SOL     OW 2599   2.566   2.308   0.101
  859SOL    HW1 2600   2.479   2.271   0.091
  859SOL    HW2 2601   2.570   2.380   0.038
  860SOL     OW 2602   2.331   2.353   2.050
  860SOL    HW1 2603   2.386   2.428   2.072
  860SOL    HW2 2604   2.244   2.389   2.038
  861SOL     OW 2605   0.165   2.703   2.163
  861SOL    HW1 2606   0.105   2.647   2.214
  861SOL    HW2 2607   0.195   2.647   2.092
  862SOL     OW 2608   2.127   2.180   2.578
  862SOL    HW1 2609   2.042   2.217   2.553
  862SOL    HW2 2610   2.123   2.171   2.673
  863SOL     OW 2611   2.759   2.763   2.114
  863SOL    HW1 2612   2.835   2.815   2.089
  863SOL    HW2 2613   2.791   2.705   2.183
  864SOL     OW 2614   2.875   2.101   2.819
  864SOL    HW1 2615   2.871   2.056   2.735
  864SOL    HW2 2616   2.896   2.032   2.882
  865SOL     OW 2617   1.939   2.195   1.896
  865SOL    HW1 2618   1.850   2.179   1.864
  865SOL    HW2 2619   1.968   2.272   1.847
  866SOL     OW 2620   1.932   2.020   2.176
  866SOL    HW1 2621   1.917   2.100   2.126
  866SOL    HW2 2622   2.018   1.989   2.146
  867SOL     OW 2623   2.457   2.584   2.521
  867SOL    HW1 2624   2.483   2.675   2.532
  867SOL    HW2 2625   2.383   2.587   2.460
  868SOL     OW 2626   2.740   2.832   2.714
  868SOL    HW1 2627   2.783   2.754   2.750
  868SOL    HW2 2628   2.706   2.879   2.790
  869SOL     OW 2629   2.949   2.832   1.900
  869SOL    HW1 2630   2.916   2.921   1.909
  869SOL    HW2 2631   0.011   2.822   1.973
  870SOL     OW 2632   2.293   2.295   2.386
  870SOL    HW1 2633   2.319   2.222   2.330
  870SOL    HW2 2634   2.245   2.253   2.458
  871SOL     OW 2635   1.886   2.920   2.174
  871SOL    HW1 2636   1.972   2.929   2.132
  871SOL    HW2 2637   1.880   2.827   2.195
  872CL      CL 2638   1.010   2.103   0.996
   3.00000   3.00000   3.00000
