;
;	File 'topology.top' was generated
;	By user: root (131270)
;	On host: csky004
;	At date: Thu Sep  3 09:09:50 2026
;
;	This is a standalone topology file
;
;	Created by:
;	              :-) GROMACS - gmx pdb2gmx, 2021.4-plumed-2.8.0 (-:
;	
;	Executable:   /home/apps/centos7/gromacs/2021.4/gcc9.1_ompi4.1.2/bin/gmx_mpi
;	Data prefix:  /home/apps/centos7/gromacs/2021.4/gcc9.1_ompi4.1.2
;	Working dir:  /scratch/civil/visitor/satya.visitor/dev_gromacs/100_1K48_peptide
;	Command line:
;	  gmx_mpi pdb2gmx -f 1K48_clean.pdb -o 1K48.gro -p topology.top -ignh
;	Force field was read from the standard GROMACS share directory.
;

; Include forcefield parameters
#include "amber99sb-ildn.ff/forcefield.itp"

[ moleculetype ]
; Name            nrexcl
Protein_chain_A     3

[ atoms ]
;   nr       type  resnr residue  atom   cgnr     charge       mass  typeB    chargeB      massB
; residue   8 ASN rtp ASN  q  0.0
     1          N      8    ASN      N      1    -0.4157      14.01
     2          H      8    ASN      H      2     0.2719      1.008
     3         CT      8    ASN     CA      3     0.0143      12.01
     4         H1      8    ASN     HA      4     0.1048      1.008
     5         CT      8    ASN     CB      5    -0.2041      12.01
     6         HC      8    ASN    HB1      6     0.0797      1.008
     7         HC      8    ASN    HB2      7     0.0797      1.008
     8          C      8    ASN     CG      8      0.713      12.01
     9          O      8    ASN    OD1      9    -0.5931         16
    10          N      8    ASN    ND2     10    -0.9191      14.01
    11          H      8    ASN   HD21     11     0.4196      1.008
    12          H      8    ASN   HD22     12     0.4196      1.008
    13          C      8    ASN      C     13     0.5973      12.01
    14          O      8    ASN      O     14    -0.5679         16   ; qtot 0
; residue   9 GLY rtp GLY  q  0.0
    15          N      9    GLY      N     15    -0.4157      14.01
    16          H      9    GLY      H     16     0.2719      1.008
    17         CT      9    GLY     CA     17    -0.0252      12.01
    18         H1      9    GLY    HA1     18     0.0698      1.008
    19         H1      9    GLY    HA2     19     0.0698      1.008
    20          C      9    GLY      C     20     0.5973      12.01
    21          O      9    GLY      O     21    -0.5679         16   ; qtot 0
; residue  10 LEU rtp LEU  q  0.0
    22          N     10    LEU      N     22    -0.4157      14.01
    23          H     10    LEU      H     23     0.2719      1.008
    24         CT     10    LEU     CA     24    -0.0518      12.01
    25         H1     10    LEU     HA     25     0.0922      1.008
    26         CT     10    LEU     CB     26    -0.1102      12.01
    27         HC     10    LEU    HB1     27     0.0457      1.008
    28         HC     10    LEU    HB2     28     0.0457      1.008
    29         CT     10    LEU     CG     29     0.3531      12.01
    30         HC     10    LEU     HG     30    -0.0361      1.008
    31         CT     10    LEU    CD1     31    -0.4121      12.01
    32         HC     10    LEU   HD11     32        0.1      1.008
    33         HC     10    LEU   HD12     33        0.1      1.008
    34         HC     10    LEU   HD13     34        0.1      1.008
    35         CT     10    LEU    CD2     35    -0.4121      12.01
    36         HC     10    LEU   HD21     36        0.1      1.008
    37         HC     10    LEU   HD22     37        0.1      1.008
    38         HC     10    LEU   HD23     38        0.1      1.008
    39          C     10    LEU      C     39     0.5973      12.01
    40          O     10    LEU      O     40    -0.5679         16   ; qtot 0
; residue  11 PRO rtp PRO  q  0.0
    41          N     11    PRO      N     41    -0.2548      14.01
    42         CT     11    PRO     CD     42     0.0192      12.01
    43         H1     11    PRO    HD1     43     0.0391      1.008
    44         H1     11    PRO    HD2     44     0.0391      1.008
    45         CT     11    PRO     CG     45     0.0189      12.01
    46         HC     11    PRO    HG1     46     0.0213      1.008
    47         HC     11    PRO    HG2     47     0.0213      1.008
    48         CT     11    PRO     CB     48     -0.007      12.01
    49         HC     11    PRO    HB1     49     0.0253      1.008
    50         HC     11    PRO    HB2     50     0.0253      1.008
    51         CT     11    PRO     CA     51    -0.0266      12.01
    52         H1     11    PRO     HA     52     0.0641      1.008
    53          C     11    PRO      C     53     0.5896      12.01
    54          O     11    PRO      O     54    -0.5748         16   ; qtot 0
; residue  12 VAL rtp VAL  q  0.0
    55          N     12    VAL      N     55    -0.4157      14.01
    56          H     12    VAL      H     56     0.2719      1.008
    57         CT     12    VAL     CA     57    -0.0875      12.01
    58         H1     12    VAL     HA     58     0.0969      1.008
    59         CT     12    VAL     CB     59     0.2985      12.01
    60         HC     12    VAL     HB     60    -0.0297      1.008
    61         CT     12    VAL    CG1     61    -0.3192      12.01
    62         HC     12    VAL   HG11     62     0.0791      1.008
    63         HC     12    VAL   HG12     63     0.0791      1.008
    64         HC     12    VAL   HG13     64     0.0791      1.008
    65         CT     12    VAL    CG2     65    -0.3192      12.01
    66         HC     12    VAL   HG21     66     0.0791      1.008
    67         HC     12    VAL   HG22     67     0.0791      1.008
    68         HC     12    VAL   HG23     68     0.0791      1.008
    69          C     12    VAL      C     69     0.5973      12.01
    70          O     12    VAL      O     70    -0.5679         16   ; qtot 0
; residue  13 CYS rtp CYX  q  0.0
    71          N     13    CYS      N     71    -0.4157      14.01
    72          H     13    CYS      H     72     0.2719      1.008
    73         CT     13    CYS     CA     73     0.0429      12.01
    74         H1     13    CYS     HA     74     0.0766      1.008
    75         CT     13    CYS     CB     75     -0.079      12.01
    76         H1     13    CYS    HB1     76      0.091      1.008
    77         H1     13    CYS    HB2     77      0.091      1.008
    78          S     13    CYS     SG     78    -0.1081      32.06
    79          C     13    CYS      C     79     0.5973      12.01
    80          O     13    CYS      O     80    -0.5679         16   ; qtot 0
; residue  14 GLY rtp GLY  q  0.0
    81          N     14    GLY      N     81    -0.4157      14.01
    82          H     14    GLY      H     82     0.2719      1.008
    83         CT     14    GLY     CA     83    -0.0252      12.01
    84         H1     14    GLY    HA1     84     0.0698      1.008
    85         H1     14    GLY    HA2     85     0.0698      1.008
    86          C     14    GLY      C     86     0.5973      12.01
    87          O     14    GLY      O     87    -0.5679         16   ; qtot 0
; residue  15 GLU rtp GLU  q -1.0
    88          N     15    GLU      N     88    -0.5163      14.01
    89          H     15    GLU      H     89     0.2936      1.008
    90         CT     15    GLU     CA     90     0.0397      12.01
    91         H1     15    GLU     HA     91     0.1105      1.008
    92         CT     15    GLU     CB     92      0.056      12.01
    93         HC     15    GLU    HB1     93    -0.0173      1.008
    94         HC     15    GLU    HB2     94    -0.0173      1.008
    95         CT     15    GLU     CG     95     0.0136      12.01
    96         HC     15    GLU    HG1     96    -0.0425      1.008
    97         HC     15    GLU    HG2     97    -0.0425      1.008
    98          C     15    GLU     CD     98     0.8054      12.01
    99         O2     15    GLU    OE1     99    -0.8188         16
   100         O2     15    GLU    OE2    100    -0.8188         16
   101          C     15    GLU      C    101     0.5366      12.01
   102          O     15    GLU      O    102    -0.5819         16   ; qtot -1
; residue  16 THR rtp THR  q  0.0
   103          N     16    THR      N    103    -0.4157      14.01
   104          H     16    THR      H    104     0.2719      1.008
   105         CT     16    THR     CA    105    -0.0389      12.01
   106         H1     16    THR     HA    106     0.1007      1.008
   107         CT     16    THR     CB    107     0.3654      12.01
   108         H1     16    THR     HB    108     0.0043      1.008
   109         CT     16    THR    CG2    109    -0.2438      12.01
   110         HC     16    THR   HG21    110     0.0642      1.008
   111         HC     16    THR   HG22    111     0.0642      1.008
   112         HC     16    THR   HG23    112     0.0642      1.008
   113         OH     16    THR    OG1    113    -0.6761         16
   114         HO     16    THR    HG1    114     0.4102      1.008
   115          C     16    THR      C    115     0.5973      12.01
   116          O     16    THR      O    116    -0.5679         16   ; qtot -1
; residue  17 CYS rtp CYX  q  0.0
   117          N     17    CYS      N    117    -0.4157      14.01
   118          H     17    CYS      H    118     0.2719      1.008
   119         CT     17    CYS     CA    119     0.0429      12.01
   120         H1     17    CYS     HA    120     0.0766      1.008
   121         CT     17    CYS     CB    121     -0.079      12.01
   122         H1     17    CYS    HB1    122      0.091      1.008
   123         H1     17    CYS    HB2    123      0.091      1.008
   124          S     17    CYS     SG    124    -0.1081      32.06
   125          C     17    CYS      C    125     0.5973      12.01
   126          O     17    CYS      O    126    -0.5679         16   ; qtot -1
; residue  18 VAL rtp VAL  q  0.0
   127          N     18    VAL      N    127    -0.4157      14.01
   128          H     18    VAL      H    128     0.2719      1.008
   129         CT     18    VAL     CA    129    -0.0875      12.01
   130         H1     18    VAL     HA    130     0.0969      1.008
   131         CT     18    VAL     CB    131     0.2985      12.01
   132         HC     18    VAL     HB    132    -0.0297      1.008
   133         CT     18    VAL    CG1    133    -0.3192      12.01
   134         HC     18    VAL   HG11    134     0.0791      1.008
   135         HC     18    VAL   HG12    135     0.0791      1.008
   136         HC     18    VAL   HG13    136     0.0791      1.008
   137         CT     18    VAL    CG2    137    -0.3192      12.01
   138         HC     18    VAL   HG21    138     0.0791      1.008
   139         HC     18    VAL   HG22    139     0.0791      1.008
   140         HC     18    VAL   HG23    140     0.0791      1.008
   141          C     18    VAL      C    141     0.5973      12.01
   142          O     18    VAL      O    142    -0.5679         16   ; qtot -1
; residue  19 GLY rtp GLY  q  0.0
   143          N     19    GLY      N    143    -0.4157      14.01
   144          H     19    GLY      H    144     0.2719      1.008
   145         CT     19    GLY     CA    145    -0.0252      12.01
   146         H1     19    GLY    HA1    146     0.0698      1.008
   147         H1     19    GLY    HA2    147     0.0698      1.008
   148          C     19    GLY      C    148     0.5973      12.01
   149          O     19    GLY      O    149    -0.5679         16   ; qtot -1
; residue  20 GLY rtp GLY  q  0.0
   150          N     20    GLY      N    150    -0.4157      14.01
   151          H     20    GLY      H    151     0.2719      1.008
   152         CT     20    GLY     CA    152    -0.0252      12.01
   153         H1     20    GLY    HA1    153     0.0698      1.008
   154         H1     20    GLY    HA2    154     0.0698      1.008
   155          C     20    GLY      C    155     0.5973      12.01
   156          O     20    GLY      O    156    -0.5679         16   ; qtot -1
; residue  21 THR rtp THR  q  0.0
   157          N     21    THR      N    157    -0.4157      14.01
   158          H     21    THR      H    158     0.2719      1.008
   159         CT     21    THR     CA    159    -0.0389      12.01
   160         H1     21    THR     HA    160     0.1007      1.008
   161         CT     21    THR     CB    161     0.3654      12.01
   162         H1     21    THR     HB    162     0.0043      1.008
   163         CT     21    THR    CG2    163    -0.2438      12.01
   164         HC     21    THR   HG21    164     0.0642      1.008
   165         HC     21    THR   HG22    165     0.0642      1.008
   166         HC     21    THR   HG23    166     0.0642      1.008
   167         OH     21    THR    OG1    167    -0.6761         16
   168         HO     21    THR    HG1    168     0.4102      1.008
   169          C     21    THR      C    169     0.5973      12.01
   170          O     21    THR      O    170    -0.5679         16   ; qtot -1
; residue  22 CYS rtp CYX  q  0.0
   171          N     22    CYS      N    171    -0.4157      14.01
   172          H     22    CYS      H    172     0.2719      1.008
   173         CT     22    CYS     CA    173     0.0429      12.01
   174         H1     22    CYS     HA    174     0.0766      1.008
   175         CT     22    CYS     CB    175     -0.079      12.01
   176         H1     22    CYS    HB1    176      0.091      1.008
   177         H1     22    CYS    HB2    177      0.091      1.008
   178          S     22    CYS     SG    178    -0.1081      32.06
   179          C     22    CYS      C    179     0.5973      12.01
   180          O     22    CYS      O    180    -0.5679         16   ; qtot -1
; residue  23 ASN rtp ASN  q  0.0
   181          N     23    ASN      N    181    -0.4157      14.01
   182          H     23    ASN      H    182     0.2719      1.008
   183         CT     23    ASN     CA    183     0.0143      12.01
   184         H1     23    ASN     HA    184     0.1048      1.008
   185         CT     23    ASN     CB    185    -0.2041      12.01
   186         HC     23    ASN    HB1    186     0.0797      1.008
   187         HC     23    ASN    HB2    187     0.0797      1.008
   188          C     23    ASN     CG    188      0.713      12.01
   189          O     23    ASN    OD1    189    -0.5931         16
   190          N     23    ASN    ND2    190    -0.9191      14.01
   191          H     23    ASN   HD21    191     0.4196      1.008
   192          H     23    ASN   HD22    192     0.4196      1.008
   193          C     23    ASN      C    193     0.5973      12.01
   194          O     23    ASN      O    194    -0.5679         16   ; qtot -1
; residue  24 THR rtp THR  q  0.0
   195          N     24    THR      N    195    -0.4157      14.01
   196          H     24    THR      H    196     0.2719      1.008
   197         CT     24    THR     CA    197    -0.0389      12.01
   198         H1     24    THR     HA    198     0.1007      1.008
   199         CT     24    THR     CB    199     0.3654      12.01
   200         H1     24    THR     HB    200     0.0043      1.008
   201         CT     24    THR    CG2    201    -0.2438      12.01
   202         HC     24    THR   HG21    202     0.0642      1.008
   203         HC     24    THR   HG22    203     0.0642      1.008
   204         HC     24    THR   HG23    204     0.0642      1.008
   205         OH     24    THR    OG1    205    -0.6761         16
   206         HO     24    THR    HG1    206     0.4102      1.008
   207          C     24    THR      C    207     0.5973      12.01
   208          O     24    THR      O    208    -0.5679         16   ; qtot -1
; residue  25 PRO rtp PRO  q  0.0
   209          N     25    PRO      N    209    -0.2548      14.01
   210         CT     25    PRO     CD    210     0.0192      12.01
   211         H1     25    PRO    HD1    211     0.0391      1.008
   212         H1     25    PRO    HD2    212     0.0391      1.008
   213         CT     25    PRO     CG    213     0.0189      12.01
   214         HC     25    PRO    HG1    214     0.0213      1.008
   215         HC     25    PRO    HG2    215     0.0213      1.008
   216         CT     25    PRO     CB    216     -0.007      12.01
   217         HC     25    PRO    HB1    217     0.0253      1.008
   218         HC     25    PRO    HB2    218     0.0253      1.008
   219         CT     25    PRO     CA    219    -0.0266      12.01
   220         H1     25    PRO     HA    220     0.0641      1.008
   221          C     25    PRO      C    221     0.5896      12.01
   222          O     25    PRO      O    222    -0.5748         16   ; qtot -1
; residue  26 GLY rtp GLY  q  0.0
   223          N     26    GLY      N    223    -0.4157      14.01
   224          H     26    GLY      H    224     0.2719      1.008
   225         CT     26    GLY     CA    225    -0.0252      12.01
   226         H1     26    GLY    HA1    226     0.0698      1.008
   227         H1     26    GLY    HA2    227     0.0698      1.008
   228          C     26    GLY      C    228     0.5973      12.01
   229          O     26    GLY      O    229    -0.5679         16   ; qtot -1
; residue  27 CYS rtp CYX  q  0.0
   230          N     27    CYS      N    230    -0.4157      14.01
   231          H     27    CYS      H    231     0.2719      1.008
   232         CT     27    CYS     CA    232     0.0429      12.01
   233         H1     27    CYS     HA    233     0.0766      1.008
   234         CT     27    CYS     CB    234     -0.079      12.01
   235         H1     27    CYS    HB1    235      0.091      1.008
   236         H1     27    CYS    HB2    236      0.091      1.008
   237          S     27    CYS     SG    237    -0.1081      32.06
   238          C     27    CYS      C    238     0.5973      12.01
   239          O     27    CYS      O    239    -0.5679         16   ; qtot -1
; residue  28 THR rtp THR  q  0.0
   240          N     28    THR      N    240    -0.4157      14.01
   241          H     28    THR      H    241     0.2719      1.008
   242         CT     28    THR     CA    242    -0.0389      12.01
   243         H1     28    THR     HA    243     0.1007      1.008
   244         CT     28    THR     CB    244     0.3654      12.01
   245         H1     28    THR     HB    245     0.0043      1.008
   246         CT     28    THR    CG2    246    -0.2438      12.01
   247         HC     28    THR   HG21    247     0.0642      1.008
   248         HC     28    THR   HG22    248     0.0642      1.008
   249         HC     28    THR   HG23    249     0.0642      1.008
   250         OH     28    THR    OG1    250    -0.6761         16
   251         HO     28    THR    HG1    251     0.4102      1.008
   252          C     28    THR      C    252     0.5973      12.01
   253          O     28    THR      O    253    -0.5679         16   ; qtot -1
; residue  29 CYS rtp CYX  q  0.0
   254          N     29    CYS      N    254    -0.4157      14.01
   255          H     29    CYS      H    255     0.2719      1.008
   256         CT     29    CYS     CA    256     0.0429      12.01
   257         H1     29    CYS     HA    257     0.0766      1.008
   258         CT     29    CYS     CB    258     -0.079      12.01
   259         H1     29    CYS    HB1    259      0.091      1.008
   260         H1     29    CYS    HB2    260      0.091      1.008
   261          S     29    CYS     SG    261    -0.1081      32.06
   262          C     29    CYS      C    262     0.5973      12.01
   263          O     29    CYS      O    263    -0.5679         16   ; qtot -1
; residue  30 SER rtp SER  q  0.0
   264          N     30    SER      N    264    -0.4157      14.01
   265          H     30    SER      H    265     0.2719      1.008
   266         CT     30    SER     CA    266    -0.0249      12.01
   267         H1     30    SER     HA    267     0.0843      1.008
   268         CT     30    SER     CB    268     0.2117      12.01
   269         H1     30    SER    HB1    269     0.0352      1.008
   270         H1     30    SER    HB2    270     0.0352      1.008
   271         OH     30    SER     OG    271    -0.6546         16
   272         HO     30    SER     HG    272     0.4275      1.008
   273          C     30    SER      C    273     0.5973      12.01
   274          O     30    SER      O    274    -0.5679         16   ; qtot -1
; residue  31 TRP rtp TRP  q  0.0
   275          N     31    TRP      N    275    -0.4157      14.01
   276          H     31    TRP      H    276     0.2719      1.008
   277         CT     31    TRP     CA    277    -0.0275      12.01
   278         H1     31    TRP     HA    278     0.1123      1.008
   279         CT     31    TRP     CB    279     -0.005      12.01
   280         HC     31    TRP    HB1    280     0.0339      1.008
   281         HC     31    TRP    HB2    281     0.0339      1.008
   282         C*     31    TRP     CG    282    -0.1415      12.01
   283         CW     31    TRP    CD1    283    -0.1638      12.01
   284         H4     31    TRP    HD1    284     0.2062      1.008
   285         NA     31    TRP    NE1    285    -0.3418      14.01
   286          H     31    TRP    HE1    286     0.3412      1.008
   287         CN     31    TRP    CE2    287      0.138      12.01
   288         CA     31    TRP    CZ2    288    -0.2601      12.01
   289         HA     31    TRP    HZ2    289     0.1572      1.008
   290         CA     31    TRP    CH2    290    -0.1134      12.01
   291         HA     31    TRP    HH2    291     0.1417      1.008
   292         CA     31    TRP    CZ3    292    -0.1972      12.01
   293         HA     31    TRP    HZ3    293     0.1447      1.008
   294         CA     31    TRP    CE3    294    -0.2387      12.01
   295         HA     31    TRP    HE3    295       0.17      1.008
   296         CB     31    TRP    CD2    296     0.1243      12.01
   297          C     31    TRP      C    297     0.5973      12.01
   298          O     31    TRP      O    298    -0.5679         16   ; qtot -1
; residue  32 PRO rtp PRO  q  0.0
   299          N     32    PRO      N    299    -0.2548      14.01
   300         CT     32    PRO     CD    300     0.0192      12.01
   301         H1     32    PRO    HD1    301     0.0391      1.008
   302         H1     32    PRO    HD2    302     0.0391      1.008
   303         CT     32    PRO     CG    303     0.0189      12.01
   304         HC     32    PRO    HG1    304     0.0213      1.008
   305         HC     32    PRO    HG2    305     0.0213      1.008
   306         CT     32    PRO     CB    306     -0.007      12.01
   307         HC     32    PRO    HB1    307     0.0253      1.008
   308         HC     32    PRO    HB2    308     0.0253      1.008
   309         CT     32    PRO     CA    309    -0.0266      12.01
   310         H1     32    PRO     HA    310     0.0641      1.008
   311          C     32    PRO      C    311     0.5896      12.01
   312          O     32    PRO      O    312    -0.5748         16   ; qtot -1
; residue  33 VAL rtp VAL  q  0.0
   313          N     33    VAL      N    313    -0.4157      14.01
   314          H     33    VAL      H    314     0.2719      1.008
   315         CT     33    VAL     CA    315    -0.0875      12.01
   316         H1     33    VAL     HA    316     0.0969      1.008
   317         CT     33    VAL     CB    317     0.2985      12.01
   318         HC     33    VAL     HB    318    -0.0297      1.008
   319         CT     33    VAL    CG1    319    -0.3192      12.01
   320         HC     33    VAL   HG11    320     0.0791      1.008
   321         HC     33    VAL   HG12    321     0.0791      1.008
   322         HC     33    VAL   HG13    322     0.0791      1.008
   323         CT     33    VAL    CG2    323    -0.3192      12.01
   324         HC     33    VAL   HG21    324     0.0791      1.008
   325         HC     33    VAL   HG22    325     0.0791      1.008
   326         HC     33    VAL   HG23    326     0.0791      1.008
   327          C     33    VAL      C    327     0.5973      12.01
   328          O     33    VAL      O    328    -0.5679         16   ; qtot -1
; residue  34 CYS rtp CYX  q  0.0
   329          N     34    CYS      N    329    -0.4157      14.01
   330          H     34    CYS      H    330     0.2719      1.008
   331         CT     34    CYS     CA    331     0.0429      12.01
   332         H1     34    CYS     HA    332     0.0766      1.008
   333         CT     34    CYS     CB    333     -0.079      12.01
   334         H1     34    CYS    HB1    334      0.091      1.008
   335         H1     34    CYS    HB2    335      0.091      1.008
   336          S     34    CYS     SG    336    -0.1081      32.06
   337          C     34    CYS      C    337     0.5973      12.01
   338          O     34    CYS      O    338    -0.5679         16   ; qtot -1
; residue  35 THR rtp THR  q  0.0
   339          N     35    THR      N    339    -0.4157      14.01
   340          H     35    THR      H    340     0.2719      1.008
   341         CT     35    THR     CA    341    -0.0389      12.01
   342         H1     35    THR     HA    342     0.1007      1.008
   343         CT     35    THR     CB    343     0.3654      12.01
   344         H1     35    THR     HB    344     0.0043      1.008
   345         CT     35    THR    CG2    345    -0.2438      12.01
   346         HC     35    THR   HG21    346     0.0642      1.008
   347         HC     35    THR   HG22    347     0.0642      1.008
   348         HC     35    THR   HG23    348     0.0642      1.008
   349         OH     35    THR    OG1    349    -0.6761         16
   350         HO     35    THR    HG1    350     0.4102      1.008
   351          C     35    THR      C    351     0.5973      12.01
   352          O     35    THR      O    352    -0.5679         16   ; qtot -1
; residue  36 ARG rtp ARG  q +1.0
   353          N     36    ARG      N    353    -0.3479      14.01
   354          H     36    ARG      H    354     0.2747      1.008
   355         CT     36    ARG     CA    355    -0.2637      12.01
   356         H1     36    ARG     HA    356      0.156      1.008
   357         CT     36    ARG     CB    357    -0.0007      12.01
   358         HC     36    ARG    HB1    358     0.0327      1.008
   359         HC     36    ARG    HB2    359     0.0327      1.008
   360         CT     36    ARG     CG    360      0.039      12.01
   361         HC     36    ARG    HG1    361     0.0285      1.008
   362         HC     36    ARG    HG2    362     0.0285      1.008
   363         CT     36    ARG     CD    363     0.0486      12.01
   364         H1     36    ARG    HD1    364     0.0687      1.008
   365         H1     36    ARG    HD2    365     0.0687      1.008
   366         N2     36    ARG     NE    366    -0.5295      14.01
   367          H     36    ARG     HE    367     0.3456      1.008
   368         CA     36    ARG     CZ    368     0.8076      12.01
   369         N2     36    ARG    NH1    369    -0.8627      14.01
   370          H     36    ARG   HH11    370     0.4478      1.008
   371          H     36    ARG   HH12    371     0.4478      1.008
   372         N2     36    ARG    NH2    372    -0.8627      14.01
   373          H     36    ARG   HH21    373     0.4478      1.008
   374          H     36    ARG   HH22    374     0.4478      1.008
   375          C     36    ARG      C    375     0.7341      12.01
   376          O     36    ARG      O    376    -0.5894         16   ; qtot 0

[ bonds ]
;  ai    aj funct            c0            c1            c2            c3
    1     2     1 
    1     3     1 
    1   375     1 
    3     4     1 
    3     5     1 
    3    13     1 
    5     6     1 
    5     7     1 
    5     8     1 
    8     9     1 
    8    10     1 
   10    11     1 
   10    12     1 
   13    14     1 
   13    15     1 
   15    16     1 
   15    17     1 
   17    18     1 
   17    19     1 
   17    20     1 
   20    21     1 
   20    22     1 
   22    23     1 
   22    24     1 
   24    25     1 
   24    26     1 
   24    39     1 
   26    27     1 
   26    28     1 
   26    29     1 
   29    30     1 
   29    31     1 
   29    35     1 
   31    32     1 
   31    33     1 
   31    34     1 
   35    36     1 
   35    37     1 
   35    38     1 
   39    40     1 
   39    41     1 
   41    42     1 
   41    51     1 
   42    43     1 
   42    44     1 
   42    45     1 
   45    46     1 
   45    47     1 
   45    48     1 
   48    49     1 
   48    50     1 
   48    51     1 
   51    52     1 
   51    53     1 
   53    54     1 
   53    55     1 
   55    56     1 
   55    57     1 
   57    58     1 
   57    59     1 
   57    69     1 
   59    60     1 
   59    61     1 
   59    65     1 
   61    62     1 
   61    63     1 
   61    64     1 
   65    66     1 
   65    67     1 
   65    68     1 
   69    70     1 
   69    71     1 
   71    72     1 
   71    73     1 
   73    74     1 
   73    75     1 
   73    79     1 
   75    76     1 
   75    77     1 
   75    78     1 
   78   336     1 
   79    80     1 
   79    81     1 
   81    82     1 
   81    83     1 
   83    84     1 
   83    85     1 
   83    86     1 
   86    87     1 
   86    88     1 
   88    89     1 
   88    90     1 
   90    91     1 
   90    92     1 
   90   101     1 
   92    93     1 
   92    94     1 
   92    95     1 
   95    96     1 
   95    97     1 
   95    98     1 
   98    99     1 
   98   100     1 
  101   102     1 
  101   103     1 
  103   104     1 
  103   105     1 
  105   106     1 
  105   107     1 
  105   115     1 
  107   108     1 
  107   109     1 
  107   113     1 
  109   110     1 
  109   111     1 
  109   112     1 
  113   114     1 
  115   116     1 
  115   117     1 
  117   118     1 
  117   119     1 
  119   120     1 
  119   121     1 
  119   125     1 
  121   122     1 
  121   123     1 
  121   124     1 
  124   261     1 
  125   126     1 
  125   127     1 
  127   128     1 
  127   129     1 
  129   130     1 
  129   131     1 
  129   141     1 
  131   132     1 
  131   133     1 
  131   137     1 
  133   134     1 
  133   135     1 
  133   136     1 
  137   138     1 
  137   139     1 
  137   140     1 
  141   142     1 
  141   143     1 
  143   144     1 
  143   145     1 
  145   146     1 
  145   147     1 
  145   148     1 
  148   149     1 
  148   150     1 
  150   151     1 
  150   152     1 
  152   153     1 
  152   154     1 
  152   155     1 
  155   156     1 
  155   157     1 
  157   158     1 
  157   159     1 
  159   160     1 
  159   161     1 
  159   169     1 
  161   162     1 
  161   163     1 
  161   167     1 
  163   164     1 
  163   165     1 
  163   166     1 
  167   168     1 
  169   170     1 
  169   171     1 
  171   172     1 
  171   173     1 
  173   174     1 
  173   175     1 
  173   179     1 
  175   176     1 
  175   177     1 
  175   178     1 
  178   237     1 
  179   180     1 
  179   181     1 
  181   182     1 
  181   183     1 
  183   184     1 
  183   185     1 
  183   193     1 
  185   186     1 
  185   187     1 
  185   188     1 
  188   189     1 
  188   190     1 
  190   191     1 
  190   192     1 
  193   194     1 
  193   195     1 
  195   196     1 
  195   197     1 
  197   198     1 
  197   199     1 
  197   207     1 
  199   200     1 
  199   201     1 
  199   205     1 
  201   202     1 
  201   203     1 
  201   204     1 
  205   206     1 
  207   208     1 
  207   209     1 
  209   210     1 
  209   219     1 
  210   211     1 
  210   212     1 
  210   213     1 
  213   214     1 
  213   215     1 
  213   216     1 
  216   217     1 
  216   218     1 
  216   219     1 
  219   220     1 
  219   221     1 
  221   222     1 
  221   223     1 
  223   224     1 
  223   225     1 
  225   226     1 
  225   227     1 
  225   228     1 
  228   229     1 
  228   230     1 
  230   231     1 
  230   232     1 
  232   233     1 
  232   234     1 
  232   238     1 
  234   235     1 
  234   236     1 
  234   237     1 
  238   239     1 
  238   240     1 
  240   241     1 
  240   242     1 
  242   243     1 
  242   244     1 
  242   252     1 
  244   245     1 
  244   246     1 
  244   250     1 
  246   247     1 
  246   248     1 
  246   249     1 
  250   251     1 
  252   253     1 
  252   254     1 
  254   255     1 
  254   256     1 
  256   257     1 
  256   258     1 
  256   262     1 
  258   259     1 
  258   260     1 
  258   261     1 
  262   263     1 
  262   264     1 
  264   265     1 
  264   266     1 
  266   267     1 
  266   268     1 
  266   273     1 
  268   269     1 
  268   270     1 
  268   271     1 
  271   272     1 
  273   274     1 
  273   275     1 
  275   276     1 
  275   277     1 
  277   278     1 
  277   279     1 
  277   297     1 
  279   280     1 
  279   281     1 
  279   282     1 
  282   283     1 
  282   296     1 
  283   284     1 
  283   285     1 
  285   286     1 
  285   287     1 
  287   288     1 
  287   296     1 
  288   289     1 
  288   290     1 
  290   291     1 
  290   292     1 
  292   293     1 
  292   294     1 
  294   295     1 
  294   296     1 
  297   298     1 
  297   299     1 
  299   300     1 
  299   309     1 
  300   301     1 
  300   302     1 
  300   303     1 
  303   304     1 
  303   305     1 
  303   306     1 
  306   307     1 
  306   308     1 
  306   309     1 
  309   310     1 
  309   311     1 
  311   312     1 
  311   313     1 
  313   314     1 
  313   315     1 
  315   316     1 
  315   317     1 
  315   327     1 
  317   318     1 
  317   319     1 
  317   323     1 
  319   320     1 
  319   321     1 
  319   322     1 
  323   324     1 
  323   325     1 
  323   326     1 
  327   328     1 
  327   329     1 
  329   330     1 
  329   331     1 
  331   332     1 
  331   333     1 
  331   337     1 
  333   334     1 
  333   335     1 
  333   336     1 
  337   338     1 
  337   339     1 
  339   340     1 
  339   341     1 
  341   342     1 
  341   343     1 
  341   351     1 
  343   344     1 
  343   345     1 
  343   349     1 
  345   346     1 
  345   347     1 
  345   348     1 
  349   350     1 
  351   352     1 
  351   353     1 
  353   354     1 
  353   355     1 
  355   356     1 
  355   357     1 
  355   375     1 
  357   358     1 
  357   359     1 
  357   360     1 
  360   361     1 
  360   362     1 
  360   363     1 
  363   364     1 
  363   365     1 
  363   366     1 
  366   367     1 
  366   368     1 
  368   369     1 
  368   372     1 
  369   370     1 
  369   371     1 
  372   373     1 
  372   374     1 
  375   376     1 

[ pairs ]
;  ai    aj funct            c0            c1            c2            c3
    1     6     1 
    1     7     1 
    1     8     1 
    1    14     1 
    1    15     1 
    1   353     1 
    1   356     1 
    1   357     1 
    2     4     1 
    2     5     1 
    2    13     1 
    2   355     1 
    2   376     1 
    3     9     1 
    3    10     1 
    3    16     1 
    3    17     1 
    3   355     1 
    3   376     1 
    4     6     1 
    4     7     1 
    4     8     1 
    4    14     1 
    4    15     1 
    4   375     1 
    5    11     1 
    5    12     1 
    5    14     1 
    5    15     1 
    5   375     1 
    6     9     1 
    6    10     1 
    6    13     1 
    7     9     1 
    7    10     1 
    7    13     1 
    8    13     1 
    9    11     1 
    9    12     1 
   13    18     1 
   13    19     1 
   13    20     1 
   13   375     1 
   14    16     1 
   14    17     1 
   15    21     1 
   15    22     1 
   16    18     1 
   16    19     1 
   16    20     1 
   17    23     1 
   17    24     1 
   18    21     1 
   18    22     1 
   19    21     1 
   19    22     1 
   20    25     1 
   20    26     1 
   20    39     1 
   21    23     1 
   21    24     1 
   22    27     1 
   22    28     1 
   22    29     1 
   22    40     1 
   22    41     1 
   23    25     1 
   23    26     1 
   23    39     1 
   24    30     1 
   24    31     1 
   24    35     1 
   24    42     1 
   24    51     1 
   25    27     1 
   25    28     1 
   25    29     1 
   25    40     1 
   25    41     1 
   26    32     1 
   26    33     1 
   26    34     1 
   26    36     1 
   26    37     1 
   26    38     1 
   26    40     1 
   26    41     1 
   27    30     1 
   27    31     1 
   27    35     1 
   27    39     1 
   28    30     1 
   28    31     1 
   28    35     1 
   28    39     1 
   29    39     1 
   30    32     1 
   30    33     1 
   30    34     1 
   30    36     1 
   30    37     1 
   30    38     1 
   31    36     1 
   31    37     1 
   31    38     1 
   32    35     1 
   33    35     1 
   34    35     1 
   39    43     1 
   39    44     1 
   39    45     1 
   39    48     1 
   39    52     1 
   39    53     1 
   40    42     1 
   40    51     1 
   41    46     1 
   41    47     1 
   41    49     1 
   41    50     1 
   41    54     1 
   41    55     1 
   42    49     1 
   42    50     1 
   42    52     1 
   42    53     1 
   43    46     1 
   43    47     1 
   43    48     1 
   43    51     1 
   44    46     1 
   44    47     1 
   44    48     1 
   44    51     1 
   45    52     1 
   45    53     1 
   46    49     1 
   46    50     1 
   46    51     1 
   47    49     1 
   47    50     1 
   47    51     1 
   48    54     1 
   48    55     1 
   49    52     1 
   49    53     1 
   50    52     1 
   50    53     1 
   51    56     1 
   51    57     1 
   52    54     1 
   52    55     1 
   53    58     1 
   53    59     1 
   53    69     1 
   54    56     1 
   54    57     1 
   55    60     1 
   55    61     1 
   55    65     1 
   55    70     1 
   55    71     1 
   56    58     1 
   56    59     1 
   56    69     1 
   57    62     1 
   57    63     1 
   57    64     1 
   57    66     1 
   57    67     1 
   57    68     1 
   57    72     1 
   57    73     1 
   58    60     1 
   58    61     1 
   58    65     1 
   58    70     1 
   58    71     1 
   59    70     1 
   59    71     1 
   60    62     1 
   60    63     1 
   60    64     1 
   60    66     1 
   60    67     1 
   60    68     1 
   60    69     1 
   61    66     1 
   61    67     1 
   61    68     1 
   61    69     1 
   62    65     1 
   63    65     1 
   64    65     1 
   65    69     1 
   69    74     1 
   69    75     1 
   69    79     1 
   70    72     1 
   70    73     1 
   71    76     1 
   71    77     1 
   71    78     1 
   71    80     1 
   71    81     1 
   72    74     1 
   72    75     1 
   72    79     1 
   73    82     1 
   73    83     1 
   73   336     1 
   74    76     1 
   74    77     1 
   74    78     1 
   74    80     1 
   74    81     1 
   75    80     1 
   75    81     1 
   75   333     1 
   76    79     1 
   76   336     1 
   77    79     1 
   77   336     1 
   78    79     1 
   78   331     1 
   78   334     1 
   78   335     1 
   79    84     1 
   79    85     1 
   79    86     1 
   80    82     1 
   80    83     1 
   81    87     1 
   81    88     1 
   82    84     1 
   82    85     1 
   82    86     1 
   83    89     1 
   83    90     1 
   84    87     1 
   84    88     1 
   85    87     1 
   85    88     1 
   86    91     1 
   86    92     1 
   86   101     1 
   87    89     1 
   87    90     1 
   88    93     1 
   88    94     1 
   88    95     1 
   88   102     1 
   88   103     1 
   89    91     1 
   89    92     1 
   89   101     1 
   90    96     1 
   90    97     1 
   90    98     1 
   90   104     1 
   90   105     1 
   91    93     1 
   91    94     1 
   91    95     1 
   91   102     1 
   91   103     1 
   92    99     1 
   92   100     1 
   92   102     1 
   92   103     1 
   93    96     1 
   93    97     1 
   93    98     1 
   93   101     1 
   94    96     1 
   94    97     1 
   94    98     1 
   94   101     1 
   95   101     1 
   96    99     1 
   96   100     1 
   97    99     1 
   97   100     1 
  101   106     1 
  101   107     1 
  101   115     1 
  102   104     1 
  102   105     1 
  103   108     1 
  103   109     1 
  103   113     1 
  103   116     1 
  103   117     1 
  104   106     1 
  104   107     1 
  104   115     1 
  105   110     1 
  105   111     1 
  105   112     1 
  105   114     1 
  105   118     1 
  105   119     1 
  106   108     1 
  106   109     1 
  106   113     1 
  106   116     1 
  106   117     1 
  107   116     1 
  107   117     1 
  108   110     1 
  108   111     1 
  108   112     1 
  108   114     1 
  108   115     1 
  109   114     1 
  109   115     1 
  110   113     1 
  111   113     1 
  112   113     1 
  113   115     1 
  115   120     1 
  115   121     1 
  115   125     1 
  116   118     1 
  116   119     1 
  117   122     1 
  117   123     1 
  117   124     1 
  117   126     1 
  117   127     1 
  118   120     1 
  118   121     1 
  118   125     1 
  119   128     1 
  119   129     1 
  119   261     1 
  120   122     1 
  120   123     1 
  120   124     1 
  120   126     1 
  120   127     1 
  121   126     1 
  121   127     1 
  121   258     1 
  122   125     1 
  122   261     1 
  123   125     1 
  123   261     1 
  124   125     1 
  124   256     1 
  124   259     1 
  124   260     1 
  125   130     1 
  125   131     1 
  125   141     1 
  126   128     1 
  126   129     1 
  127   132     1 
  127   133     1 
  127   137     1 
  127   142     1 
  127   143     1 
  128   130     1 
  128   131     1 
  128   141     1 
  129   134     1 
  129   135     1 
  129   136     1 
  129   138     1 
  129   139     1 
  129   140     1 
  129   144     1 
  129   145     1 
  130   132     1 
  130   133     1 
  130   137     1 
  130   142     1 
  130   143     1 
  131   142     1 
  131   143     1 
  132   134     1 
  132   135     1 
  132   136     1 
  132   138     1 
  132   139     1 
  132   140     1 
  132   141     1 
  133   138     1 
  133   139     1 
  133   140     1 
  133   141     1 
  134   137     1 
  135   137     1 
  136   137     1 
  137   141     1 
  141   146     1 
  141   147     1 
  141   148     1 
  142   144     1 
  142   145     1 
  143   149     1 
  143   150     1 
  144   146     1 
  144   147     1 
  144   148     1 
  145   151     1 
  145   152     1 
  146   149     1 
  146   150     1 
  147   149     1 
  147   150     1 
  148   153     1 
  148   154     1 
  148   155     1 
  149   151     1 
  149   152     1 
  150   156     1 
  150   157     1 
  151   153     1 
  151   154     1 
  151   155     1 
  152   158     1 
  152   159     1 
  153   156     1 
  153   157     1 
  154   156     1 
  154   157     1 
  155   160     1 
  155   161     1 
  155   169     1 
  156   158     1 
  156   159     1 
  157   162     1 
  157   163     1 
  157   167     1 
  157   170     1 
  157   171     1 
  158   160     1 
  158   161     1 
  158   169     1 
  159   164     1 
  159   165     1 
  159   166     1 
  159   168     1 
  159   172     1 
  159   173     1 
  160   162     1 
  160   163     1 
  160   167     1 
  160   170     1 
  160   171     1 
  161   170     1 
  161   171     1 
  162   164     1 
  162   165     1 
  162   166     1 
  162   168     1 
  162   169     1 
  163   168     1 
  163   169     1 
  164   167     1 
  165   167     1 
  166   167     1 
  167   169     1 
  169   174     1 
  169   175     1 
  169   179     1 
  170   172     1 
  170   173     1 
  171   176     1 
  171   177     1 
  171   178     1 
  171   180     1 
  171   181     1 
  172   174     1 
  172   175     1 
  172   179     1 
  173   182     1 
  173   183     1 
  173   237     1 
  174   176     1 
  174   177     1 
  174   178     1 
  174   180     1 
  174   181     1 
  175   180     1 
  175   181     1 
  175   234     1 
  176   179     1 
  176   237     1 
  177   179     1 
  177   237     1 
  178   179     1 
  178   232     1 
  178   235     1 
  178   236     1 
  179   184     1 
  179   185     1 
  179   193     1 
  180   182     1 
  180   183     1 
  181   186     1 
  181   187     1 
  181   188     1 
  181   194     1 
  181   195     1 
  182   184     1 
  182   185     1 
  182   193     1 
  183   189     1 
  183   190     1 
  183   196     1 
  183   197     1 
  184   186     1 
  184   187     1 
  184   188     1 
  184   194     1 
  184   195     1 
  185   191     1 
  185   192     1 
  185   194     1 
  185   195     1 
  186   189     1 
  186   190     1 
  186   193     1 
  187   189     1 
  187   190     1 
  187   193     1 
  188   193     1 
  189   191     1 
  189   192     1 
  193   198     1 
  193   199     1 
  193   207     1 
  194   196     1 
  194   197     1 
  195   200     1 
  195   201     1 
  195   205     1 
  195   208     1 
  195   209     1 
  196   198     1 
  196   199     1 
  196   207     1 
  197   202     1 
  197   203     1 
  197   204     1 
  197   206     1 
  197   210     1 
  197   219     1 
  198   200     1 
  198   201     1 
  198   205     1 
  198   208     1 
  198   209     1 
  199   208     1 
  199   209     1 
  200   202     1 
  200   203     1 
  200   204     1 
  200   206     1 
  200   207     1 
  201   206     1 
  201   207     1 
  202   205     1 
  203   205     1 
  204   205     1 
  205   207     1 
  207   211     1 
  207   212     1 
  207   213     1 
  207   216     1 
  207   220     1 
  207   221     1 
  208   210     1 
  208   219     1 
  209   214     1 
  209   215     1 
  209   217     1 
  209   218     1 
  209   222     1 
  209   223     1 
  210   217     1 
  210   218     1 
  210   220     1 
  210   221     1 
  211   214     1 
  211   215     1 
  211   216     1 
  211   219     1 
  212   214     1 
  212   215     1 
  212   216     1 
  212   219     1 
  213   220     1 
  213   221     1 
  214   217     1 
  214   218     1 
  214   219     1 
  215   217     1 
  215   218     1 
  215   219     1 
  216   222     1 
  216   223     1 
  217   220     1 
  217   221     1 
  218   220     1 
  218   221     1 
  219   224     1 
  219   225     1 
  220   222     1 
  220   223     1 
  221   226     1 
  221   227     1 
  221   228     1 
  222   224     1 
  222   225     1 
  223   229     1 
  223   230     1 
  224   226     1 
  224   227     1 
  224   228     1 
  225   231     1 
  225   232     1 
  226   229     1 
  226   230     1 
  227   229     1 
  227   230     1 
  228   233     1 
  228   234     1 
  228   238     1 
  229   231     1 
  229   232     1 
  230   235     1 
  230   236     1 
  230   237     1 
  230   239     1 
  230   240     1 
  231   233     1 
  231   234     1 
  231   238     1 
  232   241     1 
  232   242     1 
  233   235     1 
  233   236     1 
  233   237     1 
  233   239     1 
  233   240     1 
  234   239     1 
  234   240     1 
  235   238     1 
  236   238     1 
  237   238     1 
  238   243     1 
  238   244     1 
  238   252     1 
  239   241     1 
  239   242     1 
  240   245     1 
  240   246     1 
  240   250     1 
  240   253     1 
  240   254     1 
  241   243     1 
  241   244     1 
  241   252     1 
  242   247     1 
  242   248     1 
  242   249     1 
  242   251     1 
  242   255     1 
  242   256     1 
  243   245     1 
  243   246     1 
  243   250     1 
  243   253     1 
  243   254     1 
  244   253     1 
  244   254     1 
  245   247     1 
  245   248     1 
  245   249     1 
  245   251     1 
  245   252     1 
  246   251     1 
  246   252     1 
  247   250     1 
  248   250     1 
  249   250     1 
  250   252     1 
  252   257     1 
  252   258     1 
  252   262     1 
  253   255     1 
  253   256     1 
  254   259     1 
  254   260     1 
  254   261     1 
  254   263     1 
  254   264     1 
  255   257     1 
  255   258     1 
  255   262     1 
  256   265     1 
  256   266     1 
  257   259     1 
  257   260     1 
  257   261     1 
  257   263     1 
  257   264     1 
  258   263     1 
  258   264     1 
  259   262     1 
  260   262     1 
  261   262     1 
  262   267     1 
  262   268     1 
  262   273     1 
  263   265     1 
  263   266     1 
  264   269     1 
  264   270     1 
  264   271     1 
  264   274     1 
  264   275     1 
  265   267     1 
  265   268     1 
  265   273     1 
  266   272     1 
  266   276     1 
  266   277     1 
  267   269     1 
  267   270     1 
  267   271     1 
  267   274     1 
  267   275     1 
  268   274     1 
  268   275     1 
  269   272     1 
  269   273     1 
  270   272     1 
  270   273     1 
  271   273     1 
  273   278     1 
  273   279     1 
  273   297     1 
  274   276     1 
  274   277     1 
  275   280     1 
  275   281     1 
  275   282     1 
  275   298     1 
  275   299     1 
  276   278     1 
  276   279     1 
  276   297     1 
  277   283     1 
  277   296     1 
  277   300     1 
  277   309     1 
  278   280     1 
  278   281     1 
  278   282     1 
  278   298     1 
  278   299     1 
  279   284     1 
  279   285     1 
  279   287     1 
  279   294     1 
  279   298     1 
  279   299     1 
  280   283     1 
  280   296     1 
  280   297     1 
  281   283     1 
  281   296     1 
  281   297     1 
  282   286     1 
  282   288     1 
  282   292     1 
  282   295     1 
  282   297     1 
  283   288     1 
  283   294     1 
  284   286     1 
  284   287     1 
  284   296     1 
  285   289     1 
  285   290     1 
  285   294     1 
  286   288     1 
  286   296     1 
  287   291     1 
  287   292     1 
  287   295     1 
  288   293     1 
  288   294     1 
  289   291     1 
  289   292     1 
  289   296     1 
  290   295     1 
  290   296     1 
  291   293     1 
  291   294     1 
  293   295     1 
  293   296     1 
  297   301     1 
  297   302     1 
  297   303     1 
  297   306     1 
  297   310     1 
  297   311     1 
  298   300     1 
  298   309     1 
  299   304     1 
  299   305     1 
  299   307     1 
  299   308     1 
  299   312     1 
  299   313     1 
  300   307     1 
  300   308     1 
  300   310     1 
  300   311     1 
  301   304     1 
  301   305     1 
  301   306     1 
  301   309     1 
  302   304     1 
  302   305     1 
  302   306     1 
  302   309     1 
  303   310     1 
  303   311     1 
  304   307     1 
  304   308     1 
  304   309     1 
  305   307     1 
  305   308     1 
  305   309     1 
  306   312     1 
  306   313     1 
  307   310     1 
  307   311     1 
  308   310     1 
  308   311     1 
  309   314     1 
  309   315     1 
  310   312     1 
  310   313     1 
  311   316     1 
  311   317     1 
  311   327     1 
  312   314     1 
  312   315     1 
  313   318     1 
  313   319     1 
  313   323     1 
  313   328     1 
  313   329     1 
  314   316     1 
  314   317     1 
  314   327     1 
  315   320     1 
  315   321     1 
  315   322     1 
  315   324     1 
  315   325     1 
  315   326     1 
  315   330     1 
  315   331     1 
  316   318     1 
  316   319     1 
  316   323     1 
  316   328     1 
  316   329     1 
  317   328     1 
  317   329     1 
  318   320     1 
  318   321     1 
  318   322     1 
  318   324     1 
  318   325     1 
  318   326     1 
  318   327     1 
  319   324     1 
  319   325     1 
  319   326     1 
  319   327     1 
  320   323     1 
  321   323     1 
  322   323     1 
  323   327     1 
  327   332     1 
  327   333     1 
  327   337     1 
  328   330     1 
  328   331     1 
  329   334     1 
  329   335     1 
  329   336     1 
  329   338     1 
  329   339     1 
  330   332     1 
  330   333     1 
  330   337     1 
  331   340     1 
  331   341     1 
  332   334     1 
  332   335     1 
  332   336     1 
  332   338     1 
  332   339     1 
  333   338     1 
  333   339     1 
  334   337     1 
  335   337     1 
  336   337     1 
  337   342     1 
  337   343     1 
  337   351     1 
  338   340     1 
  338   341     1 
  339   344     1 
  339   345     1 
  339   349     1 
  339   352     1 
  339   353     1 
  340   342     1 
  340   343     1 
  340   351     1 
  341   346     1 
  341   347     1 
  341   348     1 
  341   350     1 
  341   354     1 
  341   355     1 
  342   344     1 
  342   345     1 
  342   349     1 
  342   352     1 
  342   353     1 
  343   352     1 
  343   353     1 
  344   346     1 
  344   347     1 
  344   348     1 
  344   350     1 
  344   351     1 
  345   350     1 
  345   351     1 
  346   349     1 
  347   349     1 
  348   349     1 
  349   351     1 
  351   356     1 
  351   357     1 
  351   375     1 
  352   354     1 
  352   355     1 
  353   358     1 
  353   359     1 
  353   360     1 
  353   376     1 
  354   356     1 
  354   357     1 
  354   375     1 
  355   361     1 
  355   362     1 
  355   363     1 
  356   358     1 
  356   359     1 
  356   360     1 
  356   376     1 
  357   364     1 
  357   365     1 
  357   366     1 
  357   376     1 
  358   361     1 
  358   362     1 
  358   363     1 
  358   375     1 
  359   361     1 
  359   362     1 
  359   363     1 
  359   375     1 
  360   367     1 
  360   368     1 
  360   375     1 
  361   364     1 
  361   365     1 
  361   366     1 
  362   364     1 
  362   365     1 
  362   366     1 
  363   369     1 
  363   372     1 
  364   367     1 
  364   368     1 
  365   367     1 
  365   368     1 
  366   370     1 
  366   371     1 
  366   373     1 
  366   374     1 
  367   369     1 
  367   372     1 
  369   373     1 
  369   374     1 
  370   372     1 
  371   372     1 

[ angles ]
;  ai    aj    ak funct            c0            c1            c2            c3
    2     1     3     1 
    2     1   375     1 
    3     1   375     1 
    1     3     4     1 
    1     3     5     1 
    1     3    13     1 
    4     3     5     1 
    4     3    13     1 
    5     3    13     1 
    3     5     6     1 
    3     5     7     1 
    3     5     8     1 
    6     5     7     1 
    6     5     8     1 
    7     5     8     1 
    5     8     9     1 
    5     8    10     1 
    9     8    10     1 
    8    10    11     1 
    8    10    12     1 
   11    10    12     1 
    3    13    14     1 
    3    13    15     1 
   14    13    15     1 
   13    15    16     1 
   13    15    17     1 
   16    15    17     1 
   15    17    18     1 
   15    17    19     1 
   15    17    20     1 
   18    17    19     1 
   18    17    20     1 
   19    17    20     1 
   17    20    21     1 
   17    20    22     1 
   21    20    22     1 
   20    22    23     1 
   20    22    24     1 
   23    22    24     1 
   22    24    25     1 
   22    24    26     1 
   22    24    39     1 
   25    24    26     1 
   25    24    39     1 
   26    24    39     1 
   24    26    27     1 
   24    26    28     1 
   24    26    29     1 
   27    26    28     1 
   27    26    29     1 
   28    26    29     1 
   26    29    30     1 
   26    29    31     1 
   26    29    35     1 
   30    29    31     1 
   30    29    35     1 
   31    29    35     1 
   29    31    32     1 
   29    31    33     1 
   29    31    34     1 
   32    31    33     1 
   32    31    34     1 
   33    31    34     1 
   29    35    36     1 
   29    35    37     1 
   29    35    38     1 
   36    35    37     1 
   36    35    38     1 
   37    35    38     1 
   24    39    40     1 
   24    39    41     1 
   40    39    41     1 
   39    41    42     1 
   39    41    51     1 
   42    41    51     1 
   41    42    43     1 
   41    42    44     1 
   41    42    45     1 
   43    42    44     1 
   43    42    45     1 
   44    42    45     1 
   42    45    46     1 
   42    45    47     1 
   42    45    48     1 
   46    45    47     1 
   46    45    48     1 
   47    45    48     1 
   45    48    49     1 
   45    48    50     1 
   45    48    51     1 
   49    48    50     1 
   49    48    51     1 
   50    48    51     1 
   41    51    48     1 
   41    51    52     1 
   41    51    53     1 
   48    51    52     1 
   48    51    53     1 
   52    51    53     1 
   51    53    54     1 
   51    53    55     1 
   54    53    55     1 
   53    55    56     1 
   53    55    57     1 
   56    55    57     1 
   55    57    58     1 
   55    57    59     1 
   55    57    69     1 
   58    57    59     1 
   58    57    69     1 
   59    57    69     1 
   57    59    60     1 
   57    59    61     1 
   57    59    65     1 
   60    59    61     1 
   60    59    65     1 
   61    59    65     1 
   59    61    62     1 
   59    61    63     1 
   59    61    64     1 
   62    61    63     1 
   62    61    64     1 
   63    61    64     1 
   59    65    66     1 
   59    65    67     1 
   59    65    68     1 
   66    65    67     1 
   66    65    68     1 
   67    65    68     1 
   57    69    70     1 
   57    69    71     1 
   70    69    71     1 
   69    71    72     1 
   69    71    73     1 
   72    71    73     1 
   71    73    74     1 
   71    73    75     1 
   71    73    79     1 
   74    73    75     1 
   74    73    79     1 
   75    73    79     1 
   73    75    76     1 
   73    75    77     1 
   73    75    78     1 
   76    75    77     1 
   76    75    78     1 
   77    75    78     1 
   75    78   336     1 
   73    79    80     1 
   73    79    81     1 
   80    79    81     1 
   79    81    82     1 
   79    81    83     1 
   82    81    83     1 
   81    83    84     1 
   81    83    85     1 
   81    83    86     1 
   84    83    85     1 
   84    83    86     1 
   85    83    86     1 
   83    86    87     1 
   83    86    88     1 
   87    86    88     1 
   86    88    89     1 
   86    88    90     1 
   89    88    90     1 
   88    90    91     1 
   88    90    92     1 
   88    90   101     1 
   91    90    92     1 
   91    90   101     1 
   92    90   101     1 
   90    92    93     1 
   90    92    94     1 
   90    92    95     1 
   93    92    94     1 
   93    92    95     1 
   94    92    95     1 
   92    95    96     1 
   92    95    97     1 
   92    95    98     1 
   96    95    97     1 
   96    95    98     1 
   97    95    98     1 
   95    98    99     1 
   95    98   100     1 
   99    98   100     1 
   90   101   102     1 
   90   101   103     1 
  102   101   103     1 
  101   103   104     1 
  101   103   105     1 
  104   103   105     1 
  103   105   106     1 
  103   105   107     1 
  103   105   115     1 
  106   105   107     1 
  106   105   115     1 
  107   105   115     1 
  105   107   108     1 
  105   107   109     1 
  105   107   113     1 
  108   107   109     1 
  108   107   113     1 
  109   107   113     1 
  107   109   110     1 
  107   109   111     1 
  107   109   112     1 
  110   109   111     1 
  110   109   112     1 
  111   109   112     1 
  107   113   114     1 
  105   115   116     1 
  105   115   117     1 
  116   115   117     1 
  115   117   118     1 
  115   117   119     1 
  118   117   119     1 
  117   119   120     1 
  117   119   121     1 
  117   119   125     1 
  120   119   121     1 
  120   119   125     1 
  121   119   125     1 
  119   121   122     1 
  119   121   123     1 
  119   121   124     1 
  122   121   123     1 
  122   121   124     1 
  123   121   124     1 
  121   124   261     1 
  119   125   126     1 
  119   125   127     1 
  126   125   127     1 
  125   127   128     1 
  125   127   129     1 
  128   127   129     1 
  127   129   130     1 
  127   129   131     1 
  127   129   141     1 
  130   129   131     1 
  130   129   141     1 
  131   129   141     1 
  129   131   132     1 
  129   131   133     1 
  129   131   137     1 
  132   131   133     1 
  132   131   137     1 
  133   131   137     1 
  131   133   134     1 
  131   133   135     1 
  131   133   136     1 
  134   133   135     1 
  134   133   136     1 
  135   133   136     1 
  131   137   138     1 
  131   137   139     1 
  131   137   140     1 
  138   137   139     1 
  138   137   140     1 
  139   137   140     1 
  129   141   142     1 
  129   141   143     1 
  142   141   143     1 
  141   143   144     1 
  141   143   145     1 
  144   143   145     1 
  143   145   146     1 
  143   145   147     1 
  143   145   148     1 
  146   145   147     1 
  146   145   148     1 
  147   145   148     1 
  145   148   149     1 
  145   148   150     1 
  149   148   150     1 
  148   150   151     1 
  148   150   152     1 
  151   150   152     1 
  150   152   153     1 
  150   152   154     1 
  150   152   155     1 
  153   152   154     1 
  153   152   155     1 
  154   152   155     1 
  152   155   156     1 
  152   155   157     1 
  156   155   157     1 
  155   157   158     1 
  155   157   159     1 
  158   157   159     1 
  157   159   160     1 
  157   159   161     1 
  157   159   169     1 
  160   159   161     1 
  160   159   169     1 
  161   159   169     1 
  159   161   162     1 
  159   161   163     1 
  159   161   167     1 
  162   161   163     1 
  162   161   167     1 
  163   161   167     1 
  161   163   164     1 
  161   163   165     1 
  161   163   166     1 
  164   163   165     1 
  164   163   166     1 
  165   163   166     1 
  161   167   168     1 
  159   169   170     1 
  159   169   171     1 
  170   169   171     1 
  169   171   172     1 
  169   171   173     1 
  172   171   173     1 
  171   173   174     1 
  171   173   175     1 
  171   173   179     1 
  174   173   175     1 
  174   173   179     1 
  175   173   179     1 
  173   175   176     1 
  173   175   177     1 
  173   175   178     1 
  176   175   177     1 
  176   175   178     1 
  177   175   178     1 
  175   178   237     1 
  173   179   180     1 
  173   179   181     1 
  180   179   181     1 
  179   181   182     1 
  179   181   183     1 
  182   181   183     1 
  181   183   184     1 
  181   183   185     1 
  181   183   193     1 
  184   183   185     1 
  184   183   193     1 
  185   183   193     1 
  183   185   186     1 
  183   185   187     1 
  183   185   188     1 
  186   185   187     1 
  186   185   188     1 
  187   185   188     1 
  185   188   189     1 
  185   188   190     1 
  189   188   190     1 
  188   190   191     1 
  188   190   192     1 
  191   190   192     1 
  183   193   194     1 
  183   193   195     1 
  194   193   195     1 
  193   195   196     1 
  193   195   197     1 
  196   195   197     1 
  195   197   198     1 
  195   197   199     1 
  195   197   207     1 
  198   197   199     1 
  198   197   207     1 
  199   197   207     1 
  197   199   200     1 
  197   199   201     1 
  197   199   205     1 
  200   199   201     1 
  200   199   205     1 
  201   199   205     1 
  199   201   202     1 
  199   201   203     1 
  199   201   204     1 
  202   201   203     1 
  202   201   204     1 
  203   201   204     1 
  199   205   206     1 
  197   207   208     1 
  197   207   209     1 
  208   207   209     1 
  207   209   210     1 
  207   209   219     1 
  210   209   219     1 
  209   210   211     1 
  209   210   212     1 
  209   210   213     1 
  211   210   212     1 
  211   210   213     1 
  212   210   213     1 
  210   213   214     1 
  210   213   215     1 
  210   213   216     1 
  214   213   215     1 
  214   213   216     1 
  215   213   216     1 
  213   216   217     1 
  213   216   218     1 
  213   216   219     1 
  217   216   218     1 
  217   216   219     1 
  218   216   219     1 
  209   219   216     1 
  209   219   220     1 
  209   219   221     1 
  216   219   220     1 
  216   219   221     1 
  220   219   221     1 
  219   221   222     1 
  219   221   223     1 
  222   221   223     1 
  221   223   224     1 
  221   223   225     1 
  224   223   225     1 
  223   225   226     1 
  223   225   227     1 
  223   225   228     1 
  226   225   227     1 
  226   225   228     1 
  227   225   228     1 
  225   228   229     1 
  225   228   230     1 
  229   228   230     1 
  228   230   231     1 
  228   230   232     1 
  231   230   232     1 
  230   232   233     1 
  230   232   234     1 
  230   232   238     1 
  233   232   234     1 
  233   232   238     1 
  234   232   238     1 
  232   234   235     1 
  232   234   236     1 
  232   234   237     1 
  235   234   236     1 
  235   234   237     1 
  236   234   237     1 
  178   237   234     1 
  232   238   239     1 
  232   238   240     1 
  239   238   240     1 
  238   240   241     1 
  238   240   242     1 
  241   240   242     1 
  240   242   243     1 
  240   242   244     1 
  240   242   252     1 
  243   242   244     1 
  243   242   252     1 
  244   242   252     1 
  242   244   245     1 
  242   244   246     1 
  242   244   250     1 
  245   244   246     1 
  245   244   250     1 
  246   244   250     1 
  244   246   247     1 
  244   246   248     1 
  244   246   249     1 
  247   246   248     1 
  247   246   249     1 
  248   246   249     1 
  244   250   251     1 
  242   252   253     1 
  242   252   254     1 
  253   252   254     1 
  252   254   255     1 
  252   254   256     1 
  255   254   256     1 
  254   256   257     1 
  254   256   258     1 
  254   256   262     1 
  257   256   258     1 
  257   256   262     1 
  258   256   262     1 
  256   258   259     1 
  256   258   260     1 
  256   258   261     1 
  259   258   260     1 
  259   258   261     1 
  260   258   261     1 
  124   261   258     1 
  256   262   263     1 
  256   262   264     1 
  263   262   264     1 
  262   264   265     1 
  262   264   266     1 
  265   264   266     1 
  264   266   267     1 
  264   266   268     1 
  264   266   273     1 
  267   266   268     1 
  267   266   273     1 
  268   266   273     1 
  266   268   269     1 
  266   268   270     1 
  266   268   271     1 
  269   268   270     1 
  269   268   271     1 
  270   268   271     1 
  268   271   272     1 
  266   273   274     1 
  266   273   275     1 
  274   273   275     1 
  273   275   276     1 
  273   275   277     1 
  276   275   277     1 
  275   277   278     1 
  275   277   279     1 
  275   277   297     1 
  278   277   279     1 
  278   277   297     1 
  279   277   297     1 
  277   279   280     1 
  277   279   281     1 
  277   279   282     1 
  280   279   281     1 
  280   279   282     1 
  281   279   282     1 
  279   282   283     1 
  279   282   296     1 
  283   282   296     1 
  282   283   284     1 
  282   283   285     1 
  284   283   285     1 
  283   285   286     1 
  283   285   287     1 
  286   285   287     1 
  285   287   288     1 
  285   287   296     1 
  288   287   296     1 
  287   288   289     1 
  287   288   290     1 
  289   288   290     1 
  288   290   291     1 
  288   290   292     1 
  291   290   292     1 
  290   292   293     1 
  290   292   294     1 
  293   292   294     1 
  292   294   295     1 
  292   294   296     1 
  295   294   296     1 
  282   296   287     1 
  282   296   294     1 
  287   296   294     1 
  277   297   298     1 
  277   297   299     1 
  298   297   299     1 
  297   299   300     1 
  297   299   309     1 
  300   299   309     1 
  299   300   301     1 
  299   300   302     1 
  299   300   303     1 
  301   300   302     1 
  301   300   303     1 
  302   300   303     1 
  300   303   304     1 
  300   303   305     1 
  300   303   306     1 
  304   303   305     1 
  304   303   306     1 
  305   303   306     1 
  303   306   307     1 
  303   306   308     1 
  303   306   309     1 
  307   306   308     1 
  307   306   309     1 
  308   306   309     1 
  299   309   306     1 
  299   309   310     1 
  299   309   311     1 
  306   309   310     1 
  306   309   311     1 
  310   309   311     1 
  309   311   312     1 
  309   311   313     1 
  312   311   313     1 
  311   313   314     1 
  311   313   315     1 
  314   313   315     1 
  313   315   316     1 
  313   315   317     1 
  313   315   327     1 
  316   315   317     1 
  316   315   327     1 
  317   315   327     1 
  315   317   318     1 
  315   317   319     1 
  315   317   323     1 
  318   317   319     1 
  318   317   323     1 
  319   317   323     1 
  317   319   320     1 
  317   319   321     1 
  317   319   322     1 
  320   319   321     1 
  320   319   322     1 
  321   319   322     1 
  317   323   324     1 
  317   323   325     1 
  317   323   326     1 
  324   323   325     1 
  324   323   326     1 
  325   323   326     1 
  315   327   328     1 
  315   327   329     1 
  328   327   329     1 
  327   329   330     1 
  327   329   331     1 
  330   329   331     1 
  329   331   332     1 
  329   331   333     1 
  329   331   337     1 
  332   331   333     1 
  332   331   337     1 
  333   331   337     1 
  331   333   334     1 
  331   333   335     1 
  331   333   336     1 
  334   333   335     1 
  334   333   336     1 
  335   333   336     1 
   78   336   333     1 
  331   337   338     1 
  331   337   339     1 
  338   337   339     1 
  337   339   340     1 
  337   339   341     1 
  340   339   341     1 
  339   341   342     1 
  339   341   343     1 
  339   341   351     1 
  342   341   343     1 
  342   341   351     1 
  343   341   351     1 
  341   343   344     1 
  341   343   345     1 
  341   343   349     1 
  344   343   345     1 
  344   343   349     1 
  345   343   349     1 
  343   345   346     1 
  343   345   347     1 
  343   345   348     1 
  346   345   347     1 
  346   345   348     1 
  347   345   348     1 
  343   349   350     1 
  341   351   352     1 
  341   351   353     1 
  352   351   353     1 
  351   353   354     1 
  351   353   355     1 
  354   353   355     1 
  353   355   356     1 
  353   355   357     1 
  353   355   375     1 
  356   355   357     1 
  356   355   375     1 
  357   355   375     1 
  355   357   358     1 
  355   357   359     1 
  355   357   360     1 
  358   357   359     1 
  358   357   360     1 
  359   357   360     1 
  357   360   361     1 
  357   360   362     1 
  357   360   363     1 
  361   360   362     1 
  361   360   363     1 
  362   360   363     1 
  360   363   364     1 
  360   363   365     1 
  360   363   366     1 
  364   363   365     1 
  364   363   366     1 
  365   363   366     1 
  363   366   367     1 
  363   366   368     1 
  367   366   368     1 
  366   368   369     1 
  366   368   372     1 
  369   368   372     1 
  368   369   370     1 
  368   369   371     1 
  370   369   371     1 
  368   372   373     1 
  368   372   374     1 
  373   372   374     1 
    1   375   355     1 
    1   375   376     1 
  355   375   376     1 

[ dihedrals ]
;  ai    aj    ak    al funct            c0            c1            c2            c3            c4            c5
    2     1     3     4     9 
    2     1     3     5     9 
    2     1     3    13     9 
  375     1     3     4     9 
  375     1     3     5     9 
  375     1     3    13     9 
    2     1   375   355     9 
    2     1   375   376     9 
    3     1   375   355     9 
    3     1   375   376     9 
   13     3     5     8     9    torsion_ASN_C_CA_CB_CG_mult1
   13     3     5     8     9    torsion_ASN_C_CA_CB_CG_mult2
   13     3     5     8     9    torsion_ASN_C_CA_CB_CG_mult3
   13     3     5     8     9    torsion_ASN_C_CA_CB_CG_mult4
   13     3     5     8     9    torsion_ASN_C_CA_CB_CG_mult5
   13     3     5     8     9    torsion_ASN_C_CA_CB_CG_mult6
    1     3     5     6     9 
    1     3     5     7     9 
    1     3     5     8     9 
    4     3     5     6     9 
    4     3     5     7     9 
    4     3     5     8     9 
   13     3     5     6     9 
   13     3     5     7     9 
    1     3    13    14     9 
    1     3    13    15     9 
    4     3    13    14     9 
    4     3    13    15     9 
    5     3    13    14     9 
    5     3    13    15     9 
    3     5     8    10     9    torsion_ASN_CA_CB_CG_ND2_mult1
    3     5     8    10     9    torsion_ASN_CA_CB_CG_ND2_mult2
    3     5     8    10     9    torsion_ASN_CA_CB_CG_ND2_mult3
    3     5     8    10     9    torsion_ASN_CA_CB_CG_ND2_mult4
    3     5     8    10     9    torsion_ASN_CA_CB_CG_ND2_mult5
    3     5     8    10     9    torsion_ASN_CA_CB_CG_ND2_mult6
    3     5     8     9     9 
    6     5     8     9     9 
    6     5     8    10     9 
    7     5     8     9     9 
    7     5     8    10     9 
    5     8    10    11     9 
    5     8    10    12     9 
    9     8    10    11     9 
    9     8    10    12     9 
    3    13    15    16     9 
    3    13    15    17     9 
   14    13    15    16     9 
   14    13    15    17     9 
   13    15    17    18     9 
   13    15    17    19     9 
   13    15    17    20     9 
   16    15    17    18     9 
   16    15    17    19     9 
   16    15    17    20     9 
   15    17    20    21     9 
   15    17    20    22     9 
   18    17    20    21     9 
   18    17    20    22     9 
   19    17    20    21     9 
   19    17    20    22     9 
   17    20    22    23     9 
   17    20    22    24     9 
   21    20    22    23     9 
   21    20    22    24     9 
   20    22    24    25     9 
   20    22    24    26     9 
   20    22    24    39     9 
   23    22    24    25     9 
   23    22    24    26     9 
   23    22    24    39     9 
   39    24    26    29     9    torsion_LEU_C_CA_CB_CG_mult1
   39    24    26    29     9    torsion_LEU_C_CA_CB_CG_mult2
   39    24    26    29     9    torsion_LEU_C_CA_CB_CG_mult3
   22    24    26    27     9 
   22    24    26    28     9 
   22    24    26    29     9 
   25    24    26    27     9 
   25    24    26    28     9 
   25    24    26    29     9 
   39    24    26    27     9 
   39    24    26    28     9 
   22    24    39    40     9 
   22    24    39    41     9 
   25    24    39    40     9 
   25    24    39    41     9 
   26    24    39    40     9 
   26    24    39    41     9 
   24    26    29    30     9 
   24    26    29    31     9 
   24    26    29    35     9 
   27    26    29    30     9 
   27    26    29    31     9 
   27    26    29    35     9 
   28    26    29    30     9 
   28    26    29    31     9 
   28    26    29    35     9 
   26    29    31    32     9 
   26    29    31    33     9 
   26    29    31    34     9 
   30    29    31    32     9 
   30    29    31    33     9 
   30    29    31    34     9 
   35    29    31    32     9 
   35    29    31    33     9 
   35    29    31    34     9 
   26    29    35    36     9 
   26    29    35    37     9 
   26    29    35    38     9 
   30    29    35    36     9 
   30    29    35    37     9 
   30    29    35    38     9 
   31    29    35    36     9 
   31    29    35    37     9 
   31    29    35    38     9 
   24    39    41    42     9 
   24    39    41    51     9 
   40    39    41    42     9 
   40    39    41    51     9 
   39    41    42    43     9 
   39    41    42    44     9 
   39    41    42    45     9 
   51    41    42    43     9 
   51    41    42    44     9 
   51    41    42    45     9 
   39    41    51    48     9 
   39    41    51    52     9 
   39    41    51    53     9 
   42    41    51    48     9 
   42    41    51    52     9 
   42    41    51    53     9 
   41    42    45    46     9 
   41    42    45    47     9 
   41    42    45    48     9 
   43    42    45    46     9 
   43    42    45    47     9 
   43    42    45    48     9 
   44    42    45    46     9 
   44    42    45    47     9 
   44    42    45    48     9 
   42    45    48    49     9 
   42    45    48    50     9 
   42    45    48    51     9 
   46    45    48    49     9 
   46    45    48    50     9 
   46    45    48    51     9 
   47    45    48    49     9 
   47    45    48    50     9 
   47    45    48    51     9 
   45    48    51    41     9 
   45    48    51    52     9 
   45    48    51    53     9 
   49    48    51    41     9 
   49    48    51    52     9 
   49    48    51    53     9 
   50    48    51    41     9 
   50    48    51    52     9 
   50    48    51    53     9 
   41    51    53    54     9 
   41    51    53    55     9 
   48    51    53    54     9 
   48    51    53    55     9 
   52    51    53    54     9 
   52    51    53    55     9 
   51    53    55    56     9 
   51    53    55    57     9 
   54    53    55    56     9 
   54    53    55    57     9 
   53    55    57    58     9 
   53    55    57    59     9 
   53    55    57    69     9 
   56    55    57    58     9 
   56    55    57    59     9 
   56    55    57    69     9 
   55    57    59    60     9 
   55    57    59    61     9 
   55    57    59    65     9 
   58    57    59    60     9 
   58    57    59    61     9 
   58    57    59    65     9 
   69    57    59    60     9 
   69    57    59    61     9 
   69    57    59    65     9 
   55    57    69    70     9 
   55    57    69    71     9 
   58    57    69    70     9 
   58    57    69    71     9 
   59    57    69    70     9 
   59    57    69    71     9 
   57    59    61    62     9 
   57    59    61    63     9 
   57    59    61    64     9 
   60    59    61    62     9 
   60    59    61    63     9 
   60    59    61    64     9 
   65    59    61    62     9 
   65    59    61    63     9 
   65    59    61    64     9 
   57    59    65    66     9 
   57    59    65    67     9 
   57    59    65    68     9 
   60    59    65    66     9 
   60    59    65    67     9 
   60    59    65    68     9 
   61    59    65    66     9 
   61    59    65    67     9 
   61    59    65    68     9 
   57    69    71    72     9 
   57    69    71    73     9 
   70    69    71    72     9 
   70    69    71    73     9 
   69    71    73    74     9 
   69    71    73    75     9 
   69    71    73    79     9 
   72    71    73    74     9 
   72    71    73    75     9 
   72    71    73    79     9 
   71    73    75    76     9 
   71    73    75    77     9 
   71    73    75    78     9 
   74    73    75    76     9 
   74    73    75    77     9 
   74    73    75    78     9 
   79    73    75    76     9 
   79    73    75    77     9 
   79    73    75    78     9 
   71    73    79    80     9 
   71    73    79    81     9 
   74    73    79    80     9 
   74    73    79    81     9 
   75    73    79    80     9 
   75    73    79    81     9 
   73    75    78   336     9 
   76    75    78   336     9 
   77    75    78   336     9 
   75    78   336   333     9 
   73    79    81    82     9 
   73    79    81    83     9 
   80    79    81    82     9 
   80    79    81    83     9 
   79    81    83    84     9 
   79    81    83    85     9 
   79    81    83    86     9 
   82    81    83    84     9 
   82    81    83    85     9 
   82    81    83    86     9 
   81    83    86    87     9 
   81    83    86    88     9 
   84    83    86    87     9 
   84    83    86    88     9 
   85    83    86    87     9 
   85    83    86    88     9 
   83    86    88    89     9 
   83    86    88    90     9 
   87    86    88    89     9 
   87    86    88    90     9 
   86    88    90    91     9 
   86    88    90    92     9 
   86    88    90   101     9 
   89    88    90    91     9 
   89    88    90    92     9 
   89    88    90   101     9 
   88    90    92    93     9 
   88    90    92    94     9 
   88    90    92    95     9 
   91    90    92    93     9 
   91    90    92    94     9 
   91    90    92    95     9 
  101    90    92    93     9 
  101    90    92    94     9 
  101    90    92    95     9 
   88    90   101   102     9 
   88    90   101   103     9 
   91    90   101   102     9 
   91    90   101   103     9 
   92    90   101   102     9 
   92    90   101   103     9 
   90    92    95    96     9 
   90    92    95    97     9 
   90    92    95    98     9 
   93    92    95    96     9 
   93    92    95    97     9 
   93    92    95    98     9 
   94    92    95    96     9 
   94    92    95    97     9 
   94    92    95    98     9 
   92    95    98    99     9 
   92    95    98   100     9 
   96    95    98    99     9 
   96    95    98   100     9 
   97    95    98    99     9 
   97    95    98   100     9 
   90   101   103   104     9 
   90   101   103   105     9 
  102   101   103   104     9 
  102   101   103   105     9 
  101   103   105   106     9 
  101   103   105   107     9 
  101   103   105   115     9 
  104   103   105   106     9 
  104   103   105   107     9 
  104   103   105   115     9 
  103   105   107   108     9 
  103   105   107   109     9 
  103   105   107   113     9 
  106   105   107   108     9 
  106   105   107   109     9 
  106   105   107   113     9 
  115   105   107   108     9 
  115   105   107   109     9 
  115   105   107   113     9 
  103   105   115   116     9 
  103   105   115   117     9 
  106   105   115   116     9 
  106   105   115   117     9 
  107   105   115   116     9 
  107   105   115   117     9 
  105   107   109   110     9 
  105   107   109   111     9 
  105   107   109   112     9 
  108   107   109   110     9 
  108   107   109   111     9 
  108   107   109   112     9 
  113   107   109   110     9 
  113   107   109   111     9 
  113   107   109   112     9 
  105   107   113   114     9 
  108   107   113   114     9 
  109   107   113   114     9 
  105   115   117   118     9 
  105   115   117   119     9 
  116   115   117   118     9 
  116   115   117   119     9 
  115   117   119   120     9 
  115   117   119   121     9 
  115   117   119   125     9 
  118   117   119   120     9 
  118   117   119   121     9 
  118   117   119   125     9 
  117   119   121   122     9 
  117   119   121   123     9 
  117   119   121   124     9 
  120   119   121   122     9 
  120   119   121   123     9 
  120   119   121   124     9 
  125   119   121   122     9 
  125   119   121   123     9 
  125   119   121   124     9 
  117   119   125   126     9 
  117   119   125   127     9 
  120   119   125   126     9 
  120   119   125   127     9 
  121   119   125   126     9 
  121   119   125   127     9 
  119   121   124   261     9 
  122   121   124   261     9 
  123   121   124   261     9 
  121   124   261   258     9 
  119   125   127   128     9 
  119   125   127   129     9 
  126   125   127   128     9 
  126   125   127   129     9 
  125   127   129   130     9 
  125   127   129   131     9 
  125   127   129   141     9 
  128   127   129   130     9 
  128   127   129   131     9 
  128   127   129   141     9 
  127   129   131   132     9 
  127   129   131   133     9 
  127   129   131   137     9 
  130   129   131   132     9 
  130   129   131   133     9 
  130   129   131   137     9 
  141   129   131   132     9 
  141   129   131   133     9 
  141   129   131   137     9 
  127   129   141   142     9 
  127   129   141   143     9 
  130   129   141   142     9 
  130   129   141   143     9 
  131   129   141   142     9 
  131   129   141   143     9 
  129   131   133   134     9 
  129   131   133   135     9 
  129   131   133   136     9 
  132   131   133   134     9 
  132   131   133   135     9 
  132   131   133   136     9 
  137   131   133   134     9 
  137   131   133   135     9 
  137   131   133   136     9 
  129   131   137   138     9 
  129   131   137   139     9 
  129   131   137   140     9 
  132   131   137   138     9 
  132   131   137   139     9 
  132   131   137   140     9 
  133   131   137   138     9 
  133   131   137   139     9 
  133   131   137   140     9 
  129   141   143   144     9 
  129   141   143   145     9 
  142   141   143   144     9 
  142   141   143   145     9 
  141   143   145   146     9 
  141   143   145   147     9 
  141   143   145   148     9 
  144   143   145   146     9 
  144   143   145   147     9 
  144   143   145   148     9 
  143   145   148   149     9 
  143   145   148   150     9 
  146   145   148   149     9 
  146   145   148   150     9 
  147   145   148   149     9 
  147   145   148   150     9 
  145   148   150   151     9 
  145   148   150   152     9 
  149   148   150   151     9 
  149   148   150   152     9 
  148   150   152   153     9 
  148   150   152   154     9 
  148   150   152   155     9 
  151   150   152   153     9 
  151   150   152   154     9 
  151   150   152   155     9 
  150   152   155   156     9 
  150   152   155   157     9 
  153   152   155   156     9 
  153   152   155   157     9 
  154   152   155   156     9 
  154   152   155   157     9 
  152   155   157   158     9 
  152   155   157   159     9 
  156   155   157   158     9 
  156   155   157   159     9 
  155   157   159   160     9 
  155   157   159   161     9 
  155   157   159   169     9 
  158   157   159   160     9 
  158   157   159   161     9 
  158   157   159   169     9 
  157   159   161   162     9 
  157   159   161   163     9 
  157   159   161   167     9 
  160   159   161   162     9 
  160   159   161   163     9 
  160   159   161   167     9 
  169   159   161   162     9 
  169   159   161   163     9 
  169   159   161   167     9 
  157   159   169   170     9 
  157   159   169   171     9 
  160   159   169   170     9 
  160   159   169   171     9 
  161   159   169   170     9 
  161   159   169   171     9 
  159   161   163   164     9 
  159   161   163   165     9 
  159   161   163   166     9 
  162   161   163   164     9 
  162   161   163   165     9 
  162   161   163   166     9 
  167   161   163   164     9 
  167   161   163   165     9 
  167   161   163   166     9 
  159   161   167   168     9 
  162   161   167   168     9 
  163   161   167   168     9 
  159   169   171   172     9 
  159   169   171   173     9 
  170   169   171   172     9 
  170   169   171   173     9 
  169   171   173   174     9 
  169   171   173   175     9 
  169   171   173   179     9 
  172   171   173   174     9 
  172   171   173   175     9 
  172   171   173   179     9 
  171   173   175   176     9 
  171   173   175   177     9 
  171   173   175   178     9 
  174   173   175   176     9 
  174   173   175   177     9 
  174   173   175   178     9 
  179   173   175   176     9 
  179   173   175   177     9 
  179   173   175   178     9 
  171   173   179   180     9 
  171   173   179   181     9 
  174   173   179   180     9 
  174   173   179   181     9 
  175   173   179   180     9 
  175   173   179   181     9 
  173   175   178   237     9 
  176   175   178   237     9 
  177   175   178   237     9 
  175   178   237   234     9 
  173   179   181   182     9 
  173   179   181   183     9 
  180   179   181   182     9 
  180   179   181   183     9 
  179   181   183   184     9 
  179   181   183   185     9 
  179   181   183   193     9 
  182   181   183   184     9 
  182   181   183   185     9 
  182   181   183   193     9 
  193   183   185   188     9    torsion_ASN_C_CA_CB_CG_mult1
  193   183   185   188     9    torsion_ASN_C_CA_CB_CG_mult2
  193   183   185   188     9    torsion_ASN_C_CA_CB_CG_mult3
  193   183   185   188     9    torsion_ASN_C_CA_CB_CG_mult4
  193   183   185   188     9    torsion_ASN_C_CA_CB_CG_mult5
  193   183   185   188     9    torsion_ASN_C_CA_CB_CG_mult6
  181   183   185   186     9 
  181   183   185   187     9 
  181   183   185   188     9 
  184   183   185   186     9 
  184   183   185   187     9 
  184   183   185   188     9 
  193   183   185   186     9 
  193   183   185   187     9 
  181   183   193   194     9 
  181   183   193   195     9 
  184   183   193   194     9 
  184   183   193   195     9 
  185   183   193   194     9 
  185   183   193   195     9 
  183   185   188   190     9    torsion_ASN_CA_CB_CG_ND2_mult1
  183   185   188   190     9    torsion_ASN_CA_CB_CG_ND2_mult2
  183   185   188   190     9    torsion_ASN_CA_CB_CG_ND2_mult3
  183   185   188   190     9    torsion_ASN_CA_CB_CG_ND2_mult4
  183   185   188   190     9    torsion_ASN_CA_CB_CG_ND2_mult5
  183   185   188   190     9    torsion_ASN_CA_CB_CG_ND2_mult6
  183   185   188   189     9 
  186   185   188   189     9 
  186   185   188   190     9 
  187   185   188   189     9 
  187   185   188   190     9 
  185   188   190   191     9 
  185   188   190   192     9 
  189   188   190   191     9 
  189   188   190   192     9 
  183   193   195   196     9 
  183   193   195   197     9 
  194   193   195   196     9 
  194   193   195   197     9 
  193   195   197   198     9 
  193   195   197   199     9 
  193   195   197   207     9 
  196   195   197   198     9 
  196   195   197   199     9 
  196   195   197   207     9 
  195   197   199   200     9 
  195   197   199   201     9 
  195   197   199   205     9 
  198   197   199   200     9 
  198   197   199   201     9 
  198   197   199   205     9 
  207   197   199   200     9 
  207   197   199   201     9 
  207   197   199   205     9 
  195   197   207   208     9 
  195   197   207   209     9 
  198   197   207   208     9 
  198   197   207   209     9 
  199   197   207   208     9 
  199   197   207   209     9 
  197   199   201   202     9 
  197   199   201   203     9 
  197   199   201   204     9 
  200   199   201   202     9 
  200   199   201   203     9 
  200   199   201   204     9 
  205   199   201   202     9 
  205   199   201   203     9 
  205   199   201   204     9 
  197   199   205   206     9 
  200   199   205   206     9 
  201   199   205   206     9 
  197   207   209   210     9 
  197   207   209   219     9 
  208   207   209   210     9 
  208   207   209   219     9 
  207   209   210   211     9 
  207   209   210   212     9 
  207   209   210   213     9 
  219   209   210   211     9 
  219   209   210   212     9 
  219   209   210   213     9 
  207   209   219   216     9 
  207   209   219   220     9 
  207   209   219   221     9 
  210   209   219   216     9 
  210   209   219   220     9 
  210   209   219   221     9 
  209   210   213   214     9 
  209   210   213   215     9 
  209   210   213   216     9 
  211   210   213   214     9 
  211   210   213   215     9 
  211   210   213   216     9 
  212   210   213   214     9 
  212   210   213   215     9 
  212   210   213   216     9 
  210   213   216   217     9 
  210   213   216   218     9 
  210   213   216   219     9 
  214   213   216   217     9 
  214   213   216   218     9 
  214   213   216   219     9 
  215   213   216   217     9 
  215   213   216   218     9 
  215   213   216   219     9 
  213   216   219   209     9 
  213   216   219   220     9 
  213   216   219   221     9 
  217   216   219   209     9 
  217   216   219   220     9 
  217   216   219   221     9 
  218   216   219   209     9 
  218   216   219   220     9 
  218   216   219   221     9 
  209   219   221   222     9 
  209   219   221   223     9 
  216   219   221   222     9 
  216   219   221   223     9 
  220   219   221   222     9 
  220   219   221   223     9 
  219   221   223   224     9 
  219   221   223   225     9 
  222   221   223   224     9 
  222   221   223   225     9 
  221   223   225   226     9 
  221   223   225   227     9 
  221   223   225   228     9 
  224   223   225   226     9 
  224   223   225   227     9 
  224   223   225   228     9 
  223   225   228   229     9 
  223   225   228   230     9 
  226   225   228   229     9 
  226   225   228   230     9 
  227   225   228   229     9 
  227   225   228   230     9 
  225   228   230   231     9 
  225   228   230   232     9 
  229   228   230   231     9 
  229   228   230   232     9 
  228   230   232   233     9 
  228   230   232   234     9 
  228   230   232   238     9 
  231   230   232   233     9 
  231   230   232   234     9 
  231   230   232   238     9 
  230   232   234   235     9 
  230   232   234   236     9 
  230   232   234   237     9 
  233   232   234   235     9 
  233   232   234   236     9 
  233   232   234   237     9 
  238   232   234   235     9 
  238   232   234   236     9 
  238   232   234   237     9 
  230   232   238   239     9 
  230   232   238   240     9 
  233   232   238   239     9 
  233   232   238   240     9 
  234   232   238   239     9 
  234   232   238   240     9 
  232   234   237   178     9 
  235   234   237   178     9 
  236   234   237   178     9 
  232   238   240   241     9 
  232   238   240   242     9 
  239   238   240   241     9 
  239   238   240   242     9 
  238   240   242   243     9 
  238   240   242   244     9 
  238   240   242   252     9 
  241   240   242   243     9 
  241   240   242   244     9 
  241   240   242   252     9 
  240   242   244   245     9 
  240   242   244   246     9 
  240   242   244   250     9 
  243   242   244   245     9 
  243   242   244   246     9 
  243   242   244   250     9 
  252   242   244   245     9 
  252   242   244   246     9 
  252   242   244   250     9 
  240   242   252   253     9 
  240   242   252   254     9 
  243   242   252   253     9 
  243   242   252   254     9 
  244   242   252   253     9 
  244   242   252   254     9 
  242   244   246   247     9 
  242   244   246   248     9 
  242   244   246   249     9 
  245   244   246   247     9 
  245   244   246   248     9 
  245   244   246   249     9 
  250   244   246   247     9 
  250   244   246   248     9 
  250   244   246   249     9 
  242   244   250   251     9 
  245   244   250   251     9 
  246   244   250   251     9 
  242   252   254   255     9 
  242   252   254   256     9 
  253   252   254   255     9 
  253   252   254   256     9 
  252   254   256   257     9 
  252   254   256   258     9 
  252   254   256   262     9 
  255   254   256   257     9 
  255   254   256   258     9 
  255   254   256   262     9 
  254   256   258   259     9 
  254   256   258   260     9 
  254   256   258   261     9 
  257   256   258   259     9 
  257   256   258   260     9 
  257   256   258   261     9 
  262   256   258   259     9 
  262   256   258   260     9 
  262   256   258   261     9 
  254   256   262   263     9 
  254   256   262   264     9 
  257   256   262   263     9 
  257   256   262   264     9 
  258   256   262   263     9 
  258   256   262   264     9 
  256   258   261   124     9 
  259   258   261   124     9 
  260   258   261   124     9 
  256   262   264   265     9 
  256   262   264   266     9 
  263   262   264   265     9 
  263   262   264   266     9 
  262   264   266   267     9 
  262   264   266   268     9 
  262   264   266   273     9 
  265   264   266   267     9 
  265   264   266   268     9 
  265   264   266   273     9 
  264   266   268   269     9 
  264   266   268   270     9 
  264   266   268   271     9 
  267   266   268   269     9 
  267   266   268   270     9 
  267   266   268   271     9 
  273   266   268   269     9 
  273   266   268   270     9 
  273   266   268   271     9 
  264   266   273   274     9 
  264   266   273   275     9 
  267   266   273   274     9 
  267   266   273   275     9 
  268   266   273   274     9 
  268   266   273   275     9 
  266   268   271   272     9 
  269   268   271   272     9 
  270   268   271   272     9 
  266   273   275   276     9 
  266   273   275   277     9 
  274   273   275   276     9 
  274   273   275   277     9 
  273   275   277   278     9 
  273   275   277   279     9 
  273   275   277   297     9 
  276   275   277   278     9 
  276   275   277   279     9 
  276   275   277   297     9 
  275   277   279   280     9 
  275   277   279   281     9 
  275   277   279   282     9 
  278   277   279   280     9 
  278   277   279   281     9 
  278   277   279   282     9 
  297   277   279   280     9 
  297   277   279   281     9 
  297   277   279   282     9 
  275   277   297   298     9 
  275   277   297   299     9 
  278   277   297   298     9 
  278   277   297   299     9 
  279   277   297   298     9 
  279   277   297   299     9 
  277   279   282   283     9 
  277   279   282   296     9 
  280   279   282   283     9 
  280   279   282   296     9 
  281   279   282   283     9 
  281   279   282   296     9 
  279   282   283   284     9 
  279   282   283   285     9 
  296   282   283   284     9 
  296   282   283   285     9 
  279   282   296   287     9 
  279   282   296   294     9 
  283   282   296   287     9 
  283   282   296   294     9 
  282   283   285   286     9 
  282   283   285   287     9 
  284   283   285   286     9 
  284   283   285   287     9 
  283   285   287   288     9 
  283   285   287   296     9 
  286   285   287   288     9 
  286   285   287   296     9 
  285   287   288   289     9 
  285   287   288   290     9 
  296   287   288   289     9 
  296   287   288   290     9 
  285   287   296   282     9 
  285   287   296   294     9 
  288   287   296   282     9 
  288   287   296   294     9 
  287   288   290   291     9 
  287   288   290   292     9 
  289   288   290   291     9 
  289   288   290   292     9 
  288   290   292   293     9 
  288   290   292   294     9 
  291   290   292   293     9 
  291   290   292   294     9 
  290   292   294   295     9 
  290   292   294   296     9 
  293   292   294   295     9 
  293   292   294   296     9 
  292   294   296   282     9 
  292   294   296   287     9 
  295   294   296   282     9 
  295   294   296   287     9 
  277   297   299   300     9 
  277   297   299   309     9 
  298   297   299   300     9 
  298   297   299   309     9 
  297   299   300   301     9 
  297   299   300   302     9 
  297   299   300   303     9 
  309   299   300   301     9 
  309   299   300   302     9 
  309   299   300   303     9 
  297   299   309   306     9 
  297   299   309   310     9 
  297   299   309   311     9 
  300   299   309   306     9 
  300   299   309   310     9 
  300   299   309   311     9 
  299   300   303   304     9 
  299   300   303   305     9 
  299   300   303   306     9 
  301   300   303   304     9 
  301   300   303   305     9 
  301   300   303   306     9 
  302   300   303   304     9 
  302   300   303   305     9 
  302   300   303   306     9 
  300   303   306   307     9 
  300   303   306   308     9 
  300   303   306   309     9 
  304   303   306   307     9 
  304   303   306   308     9 
  304   303   306   309     9 
  305   303   306   307     9 
  305   303   306   308     9 
  305   303   306   309     9 
  303   306   309   299     9 
  303   306   309   310     9 
  303   306   309   311     9 
  307   306   309   299     9 
  307   306   309   310     9 
  307   306   309   311     9 
  308   306   309   299     9 
  308   306   309   310     9 
  308   306   309   311     9 
  299   309   311   312     9 
  299   309   311   313     9 
  306   309   311   312     9 
  306   309   311   313     9 
  310   309   311   312     9 
  310   309   311   313     9 
  309   311   313   314     9 
  309   311   313   315     9 
  312   311   313   314     9 
  312   311   313   315     9 
  311   313   315   316     9 
  311   313   315   317     9 
  311   313   315   327     9 
  314   313   315   316     9 
  314   313   315   317     9 
  314   313   315   327     9 
  313   315   317   318     9 
  313   315   317   319     9 
  313   315   317   323     9 
  316   315   317   318     9 
  316   315   317   319     9 
  316   315   317   323     9 
  327   315   317   318     9 
  327   315   317   319     9 
  327   315   317   323     9 
  313   315   327   328     9 
  313   315   327   329     9 
  316   315   327   328     9 
  316   315   327   329     9 
  317   315   327   328     9 
  317   315   327   329     9 
  315   317   319   320     9 
  315   317   319   321     9 
  315   317   319   322     9 
  318   317   319   320     9 
  318   317   319   321     9 
  318   317   319   322     9 
  323   317   319   320     9 
  323   317   319   321     9 
  323   317   319   322     9 
  315   317   323   324     9 
  315   317   323   325     9 
  315   317   323   326     9 
  318   317   323   324     9 
  318   317   323   325     9 
  318   317   323   326     9 
  319   317   323   324     9 
  319   317   323   325     9 
  319   317   323   326     9 
  315   327   329   330     9 
  315   327   329   331     9 
  328   327   329   330     9 
  328   327   329   331     9 
  327   329   331   332     9 
  327   329   331   333     9 
  327   329   331   337     9 
  330   329   331   332     9 
  330   329   331   333     9 
  330   329   331   337     9 
  329   331   333   334     9 
  329   331   333   335     9 
  329   331   333   336     9 
  332   331   333   334     9 
  332   331   333   335     9 
  332   331   333   336     9 
  337   331   333   334     9 
  337   331   333   335     9 
  337   331   333   336     9 
  329   331   337   338     9 
  329   331   337   339     9 
  332   331   337   338     9 
  332   331   337   339     9 
  333   331   337   338     9 
  333   331   337   339     9 
  331   333   336    78     9 
  334   333   336    78     9 
  335   333   336    78     9 
  331   337   339   340     9 
  331   337   339   341     9 
  338   337   339   340     9 
  338   337   339   341     9 
  337   339   341   342     9 
  337   339   341   343     9 
  337   339   341   351     9 
  340   339   341   342     9 
  340   339   341   343     9 
  340   339   341   351     9 
  339   341   343   344     9 
  339   341   343   345     9 
  339   341   343   349     9 
  342   341   343   344     9 
  342   341   343   345     9 
  342   341   343   349     9 
  351   341   343   344     9 
  351   341   343   345     9 
  351   341   343   349     9 
  339   341   351   352     9 
  339   341   351   353     9 
  342   341   351   352     9 
  342   341   351   353     9 
  343   341   351   352     9 
  343   341   351   353     9 
  341   343   345   346     9 
  341   343   345   347     9 
  341   343   345   348     9 
  344   343   345   346     9 
  344   343   345   347     9 
  344   343   345   348     9 
  349   343   345   346     9 
  349   343   345   347     9 
  349   343   345   348     9 
  341   343   349   350     9 
  344   343   349   350     9 
  345   343   349   350     9 
  341   351   353   354     9 
  341   351   353   355     9 
  352   351   353   354     9 
  352   351   353   355     9 
  351   353   355   356     9 
  351   353   355   357     9 
  351   353   355   375     9 
  354   353   355   356     9 
  354   353   355   357     9 
  354   353   355   375     9 
  353   355   357   358     9 
  353   355   357   359     9 
  353   355   357   360     9 
  356   355   357   358     9 
  356   355   357   359     9 
  356   355   357   360     9 
  375   355   357   358     9 
  375   355   357   359     9 
  375   355   357   360     9 
  353   355   375     1     9 
  353   355   375   376     9 
  356   355   375     1     9 
  356   355   375   376     9 
  357   355   375     1     9 
  357   355   375   376     9 
  355   357   360   361     9 
  355   357   360   362     9 
  355   357   360   363     9 
  358   357   360   361     9 
  358   357   360   362     9 
  358   357   360   363     9 
  359   357   360   361     9 
  359   357   360   362     9 
  359   357   360   363     9 
  357   360   363   364     9 
  357   360   363   365     9 
  357   360   363   366     9 
  361   360   363   364     9 
  361   360   363   365     9 
  361   360   363   366     9 
  362   360   363   364     9 
  362   360   363   365     9 
  362   360   363   366     9 
  360   363   366   367     9 
  360   363   366   368     9 
  364   363   366   367     9 
  364   363   366   368     9 
  365   363   366   367     9 
  365   363   366   368     9 
  363   366   368   369     9 
  363   366   368   372     9 
  367   366   368   369     9 
  367   366   368   372     9 
  366   368   369   370     9 
  366   368   369   371     9 
  372   368   369   370     9 
  372   368   369   371     9 
  366   368   372   373     9 
  366   368   372   374     9 
  369   368   372   373     9 
  369   368   372   374     9 

[ dihedrals ]
;  ai    aj    ak    al funct            c0            c1            c2            c3
    2     1     3   375     4 
    3    15    13    14     4 
    5    10     8     9     4 
    8    11    10    12     4 
   13    17    15    16     4 
   17    22    20    21     4 
   20    24    22    23     4 
   24    41    39    40     4 
   39    42    41    51     4 
   51    55    53    54     4 
   53    57    55    56     4 
   57    71    69    70     4 
   69    73    71    72     4 
   73    81    79    80     4 
   79    83    81    82     4 
   83    88    86    87     4 
   86    90    88    89     4 
   90   103   101   102     4 
   95    99    98   100     4 
  101   105   103   104     4 
  105   117   115   116     4 
  115   119   117   118     4 
  119   127   125   126     4 
  125   129   127   128     4 
  129   143   141   142     4 
  141   145   143   144     4 
  145   150   148   149     4 
  148   152   150   151     4 
  152   157   155   156     4 
  155   159   157   158     4 
  159   171   169   170     4 
  169   173   171   172     4 
  173   181   179   180     4 
  179   183   181   182     4 
  183   195   193   194     4 
  185   190   188   189     4 
  188   191   190   192     4 
  193   197   195   196     4 
  197   209   207   208     4 
  207   210   209   219     4 
  219   223   221   222     4 
  221   225   223   224     4 
  225   230   228   229     4 
  228   232   230   231     4 
  232   240   238   239     4 
  238   242   240   241     4 
  242   254   252   253     4 
  252   256   254   255     4 
  256   264   262   263     4 
  262   266   264   265     4 
  266   275   273   274     4 
  273   277   275   276     4 
  277   299   297   298     4 
  282   285   283   284     4 
  283   287   285   286     4 
  283   282   279   296     4 
  287   290   288   289     4 
  288   292   290   291     4 
  290   294   292   293     4 
  292   296   294   295     4 
  297   300   299   309     4 
  309   313   311   312     4 
  311   315   313   314     4 
  315   329   327   328     4 
  327   331   329   330     4 
  331   339   337   338     4 
  337   341   339   340     4 
  341   353   351   352     4 
  351   355   353   354     4 
  355     1   375   376     4 
  363   368   366   367     4 
  366   369   368   372     4 
  368   370   369   371     4 
  368   373   372   374     4 

; Include Position restraint file
#ifdef POSRES
#include "posre.itp"
#endif

; Include water topology
#include "amber99sb-ildn.ff/tip3p.itp"

#ifdef POSRES_WATER
; Position restraint for each water oxygen
[ position_restraints ]
;  i funct       fcx        fcy        fcz
   1    1       1000       1000       1000
#endif

; Include topology for ions
#include "amber99sb-ildn.ff/ions.itp"

[ system ]
; Name
KALATA B1 in water

[ molecules ]
; Compound        #mols
Protein_chain_A     1
SOL               763
