Dyes system in water
95772
    1HECX    H6    1   7.866   6.433   0.717
    1HECX    O2    2   7.784   6.498   0.739
    1HECX    C2    3   7.836   6.631   0.756
    1HECX    C1    4   7.733   6.738   0.719
    1HECX    O1    5   7.789   6.870   0.712
    1HECX    H1    6   7.719   6.934   0.666
    2HECX    H6    7   9.978   8.562   9.824
    2HECX    O2    8   9.937   8.474   9.782
    2HECX    C2    9   9.898   8.389   9.892
    2HECX    C1   10   9.822   8.262   9.850
    2HECX    O1   11   9.829   8.163   9.955
    2HECX    H1   12   9.793   8.069   9.918
    3HECX    H6   13   6.254   7.605   5.785
    3HECX    O2   14   6.217   7.659   5.703
    3HECX    C2   15   6.073   7.671   5.716
    3HECX    C1   16   5.995   7.557   5.647
    3HECX    O1   17   5.853   7.560   5.671
    3HECX    H1   18   5.808   7.642   5.617
    4HECX    H6   19   7.835   6.595   8.505
    4HECX    O2   20   7.862   6.514   8.567
    4HECX    C2   21   7.866   6.562   8.703
    4HECX    C1   22   7.888   6.448   8.804
    4HECX    O1   23   7.947   6.496   8.926
    4HECX    H1   24   8.048   6.512   8.905
    5HECX    H6   25   9.872   2.579   2.247
    5HECX    O2   26   9.844   2.673   2.286
    5HECX    C2   27   9.714   2.706   2.235
    5HECX    C1   28   9.692   2.857   2.219
    5HECX    O1   29   9.559   2.888   2.172
    5HECX    H1   30   9.556   2.988   2.136
    6HECX    H6   31   5.771   0.467   5.658
    6HECX    O2   32   5.793   0.472   5.561
    6HECX    C2   33   5.676   0.521   5.492
    6HECX    C1   34   5.709   0.614   5.375
    6HECX    O1   35   5.602   0.616   5.278
    6HECX    H1   36   5.579   0.716   5.252
    7HECX    H6   37   3.989   2.332   4.788
    7HECX    O2   38   3.996   2.433   4.824
    7HECX    C2   39   4.084   2.507   4.736
    7HECX    C1   40   4.173   2.609   4.809
    7HECX    O1   41   4.307   2.561   4.836
    7HECX    H1   42   4.338   2.602   4.928
    8HECX    H6   43   4.222   8.673   5.004
    8HECX    O2   44   4.288   8.656   4.923
    8HECX    C2   45   4.217   8.698   4.804
    8HECX    C1   46   4.257   8.838   4.756
    8HECX    O1   47   4.171   8.885   4.650
    8HECX    H1   48   4.211   8.852   4.557
    9HECX    H6   49   2.952   7.293   9.301
    9HECX    O2   50   2.999   7.385   9.331
    9HECX    C2   51   3.141   7.378   9.308
    9HECX    C1   52   3.186   7.385   9.162
    9HECX    O1   53   3.331   7.379   9.154
    9HECX    H1   54   3.357   7.348   9.056
   10HECX    H6   55   5.359   8.348   7.812
   10HECX    O2   56   5.266   8.388   7.786
   10HECX    C2   57   5.214   8.469   7.894
   10HECX    C1   58   5.073   8.520   7.861
   10HECX    O1   59   5.009   8.596   7.966
   10HECX    H1   60   4.967   8.683   7.921
   11HECX    H6   61   4.775   7.541   2.486
   11HECX    O2   62   4.793   7.596   2.400
   11HECX    C2   63   4.849   7.512   2.297
   11HECX    C1   64   4.832   7.578   2.159
   11HECX    O1   65   4.881   7.500   2.048
   11HECX    H1   66   4.837   7.539   1.961
   12HECX    H6   67   9.885   5.768   8.345
   12HECX    O2   68   9.966   5.804   8.290
   12HECX    C2   69   9.926   5.927   8.225
   12HECX    C1   70   9.905   5.917   8.073
   12HECX    O1   71   0.024   5.907   7.992
   12HECX    H1   72   0.034   5.997   7.938
   13HECX    H6   73   6.391   2.041   5.205
   13HECX    O2   74   6.305   2.084   5.249
   13HECX    C2   75   6.333   2.110   5.389
   13HECX    C1   76   6.228   2.201   5.455
   13HECX    O1   77   6.248   2.222   5.596
   13HECX    H1   78   6.166   2.274   5.635
   14HECX    H6   79   4.159   8.324   2.670
   14HECX    O2   80   4.100   8.398   2.719
   14HECX    C2   81   4.123   8.392   2.862
   14HECX    C1   82   4.040   8.283   2.932
   14HECX    O1   83   4.065   8.277   3.073
   14HECX    H1   84   4.071   8.175   3.102
   15HECX    H6   85   0.477   9.743   3.003
   15HECX    O2   86   0.415   9.715   2.922
   15HECX    C2   87   0.422   9.572   2.906
   15HECX    C1   88   0.543   9.527   2.823
   15HECX    O1   89   0.524   9.398   2.760
   15HECX    H1   90   0.459   9.412   2.678
   16HECX    H6   91   8.674   7.689   3.310
   16HECX    O2   92   8.648   7.642   3.401
   16HECX    C2   93   8.542   7.723   3.457
   16HECX    C1   94   8.464   7.657   3.572
   16HECX    O1   95   8.365   7.748   3.625
   16HECX    H1   96   8.415   7.819   3.688
   17HECX    H6   97   3.355   2.887   8.655
   17HECX    O2   98   3.448   2.847   8.681
   17HECX    C2   99   3.523   2.832   8.559
   17HECX    C1  100   3.604   2.956   8.516
   17HECX    O1  101   3.739   2.963   8.566
   17HECX    H1  102   3.743   3.040   8.641
   18HECX    H6  103   5.936   3.650   8.134
   18HECX    O2  104   5.939   3.658   8.031
   18HECX    C2  105   5.996   3.538   7.976
   18HECX    C1  106   6.015   3.545   7.824
   18HECX    O1  107   6.057   3.420   7.767
   18HECX    H1  108   5.973   3.356   7.767
   19HECX    H6  109   8.983   4.363   7.500
   19HECX    O2  110   8.895   4.400   7.545
   19HECX    C2  111   8.877   4.334   7.672
   19HECX    C1  112   8.947   4.406   7.788
   19HECX    O1  113   8.957   4.325   7.908
   19HECX    H1  114   8.951   4.393   7.989
   20HECX    H6  115   9.230   6.729   0.725
   20HECX    O2  116   9.234   6.798   0.646
   20HECX    C2  117   9.260   6.928   0.703
   20HECX    C1  118   9.306   7.029   0.597
   20HECX    O1  119   9.324   7.162   0.652
   20HECX    H1  120   9.398   7.211   0.594
   21HECX    H6  121   3.710   4.223   2.517
   21HECX    O2  122   3.761   4.311   2.547
   21HECX    C2  123   3.680   4.376   2.647
   21HECX    C1  124   3.744   4.500   2.712
   21HECX    O1  125   3.743   4.619   2.631
   21HECX    H1  126   3.821   4.680   2.663
   22HECX    H6  127   1.016   7.049   6.549
   22HECX    O2  128   0.991   7.124   6.619
   22HECX    C2  129   0.916   7.062   6.724
   22HECX    C1  130   0.768   7.050   6.687
   22HECX    O1  131   0.695   6.950   6.762
   22HECX    H1  132   0.594   6.960   6.732
   23HECX    H6  133   2.577   9.624   1.447
   23HECX    O2  134   2.495   9.556   1.444
   23HECX    C2  135   2.535   9.429   1.501
   23HECX    C1  136   2.420   9.328   1.488
   23HECX    O1  137   2.440   9.200   1.552
   23HECX    H1  138   2.345   9.169   1.588
   24HECX    H6  139   5.284   7.330   4.607
   24HECX    O2  140   5.190   7.375   4.607
   24HECX    C2  141   5.192   7.482   4.510
   24HECX    C1  142   5.057   7.554   4.491
   24HECX    O1  143   4.960   7.477   4.418
   24HECX    H1  144   4.863   7.504   4.450
   25HECX    H6  145   2.030   8.369   0.566
   25HECX    O2  146   2.041   8.422   0.476
   25HECX    C2  147   2.183   8.444   0.454
   25HECX    C1  148   2.238   8.402   0.316
   25HECX    O1  149   2.187   8.478   0.204
   25HECX    H1  150   2.082   8.468   0.204
   26HECX    H6  151   4.245   3.105   4.320
   26HECX    O2  152   4.264   3.061   4.412
   26HECX    C2  153   4.141   3.010   4.467
   26HECX    C1  154   4.157   2.953   4.609
   26HECX    O1  155   4.035   2.895   4.661
   26HECX    H1  156   3.970   2.972   4.695
   27HECX    H6  157   0.679   1.283   1.262
   27HECX    O2  158   0.737   1.260   1.349
   27HECX    C2  159   0.676   1.333   1.457
   27HECX    C1  160   0.768   1.349   1.579
   27HECX    O1  161   0.714   1.437   1.680
   27HECX    H1  162   0.764   1.415   1.771
   28HECX    H6  163   7.210   0.315   1.917
   28HECX    O2  164   7.295   0.323   1.854
   28HECX    C2  165   7.334   0.462   1.844
   28HECX    C1  166   7.351   0.530   1.981
   28HECX    O1  167   7.408   0.662   1.976
   28HECX    H1  168   7.331   0.735   1.953
   29HECX    H6  169   2.062   7.598   4.356
   29HECX    O2  170   2.039   7.514   4.295
   29HECX    C2  171   2.163   7.443   4.274
   29HECX    C1  172   2.230   7.387   4.401
   29HECX    O1  173   2.159   7.278   4.465
   29HECX    H1  174   2.230   7.222   4.522
   30HECX    H6  175   9.722   6.586   0.399
   30HECX    O2  176   9.803   6.622   0.455
   30HECX    C2  177   9.754   6.724   0.545
   30HECX    C1  178   9.684   6.669   0.669
   30HECX    O1  179   9.632   6.772   0.755
   30HECX    H1  180   9.604   6.733   0.844
   31HECX    H6  181   9.177   7.462   1.697
   31HECX    O2  182   9.233   7.548   1.683
   31HECX    C2  183   9.335   7.519   1.585
   31HECX    C1  184   9.479   7.556   1.628
   31HECX    O1  185   9.513   7.696   1.631
   31HECX    H1  186   9.550   7.718   1.727
   32HECX    H6  187   6.986   7.182   9.377
   32HECX    O2  188   7.083   7.226   9.383
   32HECX    C2  189   7.162   7.165   9.278
   32HECX    C1  190   7.208   7.264   9.170
   32HECX    O1  191   7.268   7.195   9.058
   32HECX    H1  192   7.310   7.266   8.994
   33HECX    H6  193   2.915   8.955   8.623
   33HECX    O2  194   2.905   9.027   8.549
   33HECX    C2  195   3.015   9.016   8.456
   33HECX    C1  196   2.978   8.934   8.332
   33HECX    O1  197   3.081   8.931   8.231
   33HECX    H1  198   3.165   8.887   8.273
   34HECX    H6  199   1.240   6.579   6.657
   34HECX    O2  200   1.326   6.529   6.615
   34HECX    C2  201   1.346   6.405   6.686
   34HECX    C1  202   1.246   6.294   6.649
   34HECX    O1  203   1.287   6.163   6.695
   34HECX    H1  204   1.201   6.111   6.720
   35HECX    H6  205   4.582   4.312   5.555
   35HECX    O2  206   4.605   4.210   5.573
   35HECX    C2  207   4.748   4.191   5.562
   35HECX    C1  208   4.824   4.322   5.582
   35HECX    O1  209   4.964   4.307   5.615
   35HECX    H1  210   4.969   4.277   5.719
   36HECX    H6  211   8.515   3.016   6.128
   36HECX    O2  212   8.512   3.021   6.023
   36HECX    C2  213   8.561   2.897   5.969
   36HECX    C1  214   8.698   2.909   5.900
   36HECX    O1  215   8.750   2.781   5.859
   36HECX    H1  216   8.741   2.770   5.754
   37HECX    H6  217   3.977   1.029   5.047
   37HECX    O2  218   3.894   1.098   5.037
   37HECX    C2  219   3.776   1.017   5.020
   37HECX    C1  220   3.694   1.001   5.150
   37HECX    O1  221   3.613   0.881   5.151
   37HECX    H1  222   3.678   0.800   5.136
   38HECX    H6  223   6.842   3.979   3.108
   38HECX    O2  224   6.862   3.894   3.048
   38HECX    C2  225   6.960   3.931   2.950
   38HECX    C1  226   6.902   4.029   2.846
   38HECX    O1  227   6.997   4.067   2.745
   38HECX    H1  228   6.958   4.040   2.657
   39HECX    H6  229   6.078   7.948   6.924
   39HECX    O2  230   6.007   7.994   6.989
   39HECX    C2  231   5.921   8.080   6.911
   39HECX    C1  232   5.778   8.026   6.894
   39HECX    O1  233   5.692   8.123   6.830
   39HECX    H1  234   5.597   8.081   6.820
   40HECX    H6  235   1.173   9.278   2.987
   40HECX    O2  236   1.100   9.340   3.032
   40HECX    C2  237   1.074   9.452   2.944
   40HECX    C1  238   1.012   9.411   2.810
   40HECX    O1  239   1.042   9.505   2.704
   40HECX    H1  240   1.063   9.446   2.618
   41HECX    H6  241   4.433   8.473   3.929
   41HECX    O2  242   4.379   8.558   3.959
   41HECX    C2  243   4.240   8.522   3.977
   41HECX    C1  244   4.151   8.559   3.856
   41HECX    O1  245   4.011   8.530   3.877
   41HECX    H1  246   3.963   8.543   3.784
   42HECX    H6  247   7.657   0.496   3.641
   42HECX    O2  248   7.666   0.406   3.701
   42HECX    C2  249   7.535   0.345   3.706
   42HECX    C1  250   7.534   0.198   3.752
   42HECX    O1  251   7.404   0.138   3.740
   42HECX    H1  252   7.400   0.053   3.801
   43HECX    H6  253   6.795   9.558   2.857
   43HECX    O2  254   6.887   9.606   2.876
   43HECX    C2  255   6.869   9.749   2.878
   43HECX    C1  256   6.930   9.815   3.003
   43HECX    O1  257   6.999   9.939   2.978
   43HECX    H1  258   7.092   9.932   3.030
   44HECX    H6  259   3.681   5.678   1.899
   44HECX    O2  260   3.594   5.734   1.914
   44HECX    C2  261   3.623   5.842   2.006
   44HECX    C1  262   3.509   5.876   2.104
   44HECX    O1  263   3.542   5.992   2.183
   44HECX    H1  264   3.478   6.001   2.264
   45HECX    H6  265   7.953   3.561   5.217
   45HECX    O2  266   7.986   3.535   5.121
   45HECX    C2  267   8.058   3.647   5.065
   45HECX    C1  268   8.211   3.631   5.067
   45HECX    O1  269   8.278   3.754   5.030
   45HECX    H1  270   8.350   3.733   4.957
   46HECX    H6  271   9.590   8.122   9.057
   46HECX    O2  272   9.639   8.137   9.151
   46HECX    C2  273   9.758   8.055   9.154
   46HECX    C1  274   9.887   8.135   9.182
   46HECX    O1  275   9.974   8.069   9.276
   46HECX    H1  276   0.053   8.137   9.300
   47HECX    H6  277   2.541   5.883   5.106
   47HECX    O2  278   2.512   5.967   5.050
   47HECX    C2  279   2.578   5.961   4.921
   47HECX    C1  280   2.713   6.035   4.917
   47HECX    O1  281   2.829   5.950   4.925
   47HECX    H1  282   2.848   5.913   4.828
   48HECX    H6  283   5.000   6.290   7.515
   48HECX    O2  284   4.950   6.383   7.526
   48HECX    C2  285   4.878   6.402   7.402
   48HECX    C1  286   4.726   6.423   7.415
   48HECX    O1  287   4.662   6.329   7.504
   48HECX    H1  288   4.664   6.373   7.598
   49HECX    H6  289   4.800   4.338   8.834
   49HECX    O2  290   4.696   4.347   8.812
   49HECX    C2  291   4.635   4.219   8.841
   49HECX    C1  292   4.540   4.168   8.731
   49HECX    O1  293   4.492   4.036   8.764
   49HECX    H1  294   4.420   4.005   8.696
   50HECX    H6  295   9.110   2.455   6.742
   50HECX    O2  296   9.005   2.430   6.742
   50HECX    C2  297   8.940   2.493   6.854
   50HECX    C1  298   8.947   2.411   6.983
   50HECX    O1  299   8.860   2.463   7.086
   50HECX    H1  300   8.909   2.541   7.135
   51HECX    H6  301   7.285   6.847   6.944
   51HECX    O2  302   7.201   6.801   6.984
   51HECX    C2  303   7.200   6.664   6.940
   51HECX    C1  304   7.292   6.578   7.027
   51HECX    O1  305   7.280   6.436   7.005
   51HECX    H1  306   7.365   6.392   7.049
   52HECX    H6  307   6.311   4.757   3.064
   52HECX    O2  308   6.302   4.663   3.120
   52HECX    C2  309   6.371   4.685   3.245
   52HECX    C1  310   6.283   4.755   3.350
   52HECX    O1  311   6.356   4.790   3.469
   52HECX    H1  312   6.289   4.816   3.547
   53HECX    H6  313   5.660   1.736   5.068
   53HECX    O2  314   5.625   1.711   5.164
   53HECX    C2  315   5.491   1.761   5.186
   53HECX    C1  316   5.392   1.729   5.073
   53HECX    O1  317   5.258   1.772   5.106
   53HECX    H1  318   5.261   1.875   5.127
   54HECX    H6  319   2.949   6.966   1.398
   54HECX    O2  320   2.892   6.921   1.324
   54HECX    C2  321   2.754   6.964   1.332
   54HECX    C1  322   2.688   6.945   1.470
   54HECX    O1  323   2.733   7.040   1.569
   54HECX    H1  324   2.701   7.008   1.661
   55HECX    H6  325   9.799   8.732   2.418
   55HECX    O2  326   9.902   8.737   2.398
   55HECX    C2  327   9.972   8.680   2.510
   55HECX    C1  328   9.940   8.531   2.531
   55HECX    O1  329   9.992   8.478   2.655
   55HECX    H1  330   9.964   8.379   2.657
   56HECX    H6  331   2.586   5.139   4.579
   56HECX    O2  332   2.654   5.158   4.657
   56HECX    C2  333   2.759   5.060   4.644
   56HECX    C1  334   2.885   5.114   4.575
   56HECX    O1  335   2.988   5.013   4.574
   56HECX    H1  336   2.952   4.929   4.517
   57HECX    H6  337   7.327   2.761   5.110
   57HECX    O2  338   7.380   2.788   5.198
   57HECX    C2  339   7.406   2.930   5.189
   57HECX    C1  340   7.335   3.011   5.298
   57HECX    O1  341   7.286   3.139   5.253
   57HECX    H1  342   7.355   3.214   5.284
   58HECX    H6  343   2.499   7.525   5.026
   58HECX    O2  344   2.554   7.583   4.960
   58HECX    C2  345   2.633   7.497   4.875
   58HECX    C1  346   2.776   7.469   4.927
   58HECX    O1  347   2.866   7.582   4.915
   58HECX    H1  348   2.911   7.597   5.008
   59HECX    H6  349   2.925   7.404   8.610
   59HECX    O2  350   2.838   7.455   8.645
   59HECX    C2  351   2.742   7.462   8.538
   59HECX    C1  352   2.628   7.360   8.547
   59HECX    O1  353   2.529   7.386   8.649
   59HECX    H1  354   2.508   7.298   8.697
   60HECX    H6  355   2.357   3.428   9.764
   60HECX    O2  356   2.267   3.477   9.792
   60HECX    C2  357   2.263   3.608   9.732
   60HECX    C1  358   2.118   3.655   9.714
   60HECX    O1  359   2.103   3.799   9.711
   60HECX    H1  360   2.136   3.833   9.806
   61HECX    H6  361   8.900   5.981   6.757
   61HECX    O2  362   8.926   6.082   6.769
   61HECX    C2  363   8.893   6.121   6.904
   61HECX    C1  364   8.745   6.157   6.927
   61HECX    O1  365   8.702   6.281   6.866
   61HECX    H1  366   8.764   6.359   6.902
   62HECX    H6  367   3.055   5.522   7.859
   62HECX    O2  368   3.056   5.511   7.756
   62HECX    C2  369   2.938   5.438   7.716
   62HECX    C1  370   2.831   5.528   7.652
   62HECX    O1  371   2.716   5.456   7.603
   62HECX    H1  372   2.748   5.394   7.523
   63HECX    H6  373   1.926   6.879   1.932
   63HECX    O2  374   1.941   6.930   1.840
   63HECX    C2  375   2.065   6.880   1.785
   63HECX    C1  376   2.155   6.988   1.725
   63HECX    O1  377   2.277   6.933   1.672
   63HECX    H1  378   2.258   6.894   1.574
   64HECX    H6  379   3.471   6.278   3.101
   64HECX    O2  380   3.448   6.177   3.109
   64HECX    C2  381   3.464   6.143   3.248
   64HECX    C1  382   3.449   5.993   3.281
   64HECX    O1  383   3.447   5.970   3.424
   64HECX    H1  384   3.453   5.871   3.437
   65HECX    H6  385   1.120   0.356   0.515
   65HECX    O2  386   1.018   0.349   0.543
   65HECX    C2  387   0.999   0.425   0.664
   65HECX    C1  388   0.856   0.475   0.686
   65HECX    O1  389   0.844   0.554   0.807
   65HECX    H1  390   0.741   0.565   0.827
   66HECX    H6  391   4.705   9.003   5.967
   66HECX    O2  392   4.746   8.907   5.976
   66HECX    C2  393   4.636   8.813   5.972
   66HECX    C1  394   4.650   8.703   5.866
   66HECX    O1  395   4.639   8.747   5.729
   66HECX    H1  396   4.637   8.661   5.667
   67HECX    H6  397   5.835   0.888   4.607
   67HECX    O2  398   5.876   0.898   4.703
   67HECX    C2  399   5.942   0.777   4.742
   67HECX    C1  400   5.969   0.764   4.894
   67HECX    O1  401   6.055   0.866   4.949
   67HECX    H1  402   6.107   0.829   5.033
   68HECX    H6  403   3.355   1.153   2.315
   68HECX    O2  404   3.249   1.154   2.317
   68HECX    C2  405   3.204   1.249   2.219
   68HECX    C1  406   3.068   1.214   2.156
   68HECX    O1  407   3.046   1.286   2.032
   68HECX    H1  408   2.943   1.281   2.009
   69HECX    H6  409   3.222   7.327   3.195
   69HECX    O2  410   3.256   7.363   3.287
   69HECX    C2  411   3.332   7.260   3.353
   69HECX    C1  412   3.390   7.308   3.487
   69HECX    O1  413   3.456   7.205   3.564
   69HECX    H1  414   3.544   7.174   3.514
   70HECX    H6  415   9.100   1.570   3.895
   70HECX    O2  416   8.997   1.590   3.880
   70HECX    C2  417   8.941   1.489   3.792
   70HECX    C1  418   9.033   1.447   3.676
   70HECX    O1  419   8.984   1.336   3.597
   70HECX    H1  420   8.935   1.265   3.659
   71HECX    H6  421   6.514   4.570   2.496
   71HECX    O2  422   6.485   4.624   2.576
   71HECX    C2  423   6.456   4.532   2.684
   71HECX    C1  424   6.402   4.603   2.809
   71HECX    O1  425   6.367   4.513   2.916
   71HECX    H1  426   6.347   4.570   3.001
   72HECX    H6  427   8.017   9.830   8.964
   72HECX    O2  428   7.938   9.822   8.893
   72HECX    C2  429   7.994   9.759   8.776
   72HECX    C1  430   8.095   9.851   8.708
   72HECX    O1  431   8.166   9.790   8.599
   72HECX    H1  432   8.102   9.788   8.516
   73HECX    H6  433   3.492   2.879   2.872
   73HECX    O2  434   3.493   2.774   2.862
   73HECX    C2  435   3.459   2.743   2.725
   73HECX    C1  436   3.398   2.603   2.707
   73HECX    O1  437   3.346   2.580   2.574
   73HECX    H1  438   3.279   2.498   2.578
   74HECX    H6  439   5.075   4.495   0.150
   74HECX    O2  440   5.062   4.476   0.253
   74HECX    C2  441   4.999   4.593   0.308
   74HECX    C1  442   5.097   4.690   0.375
   74HECX    O1  443   5.201   4.741   0.289
   74HECX    H1  444   5.281   4.773   0.353
   75HECX    H6  445   7.712   8.438   5.906
   75HECX    O2  446   7.693   8.531   5.957
   75HECX    C2  447   7.765   8.638   5.891
   75HECX    C1  448   7.733   8.652   5.741
   75HECX    O1  449   7.779   8.777   5.686
   75HECX    H1  450   7.703   8.850   5.702
   76HECX    H6  451   3.713   8.521   0.962
   76HECX    O2  452   3.688   8.436   0.905
   76HECX    C2  453   3.545   8.421   0.913
   76HECX    C1  454   3.479   8.370   0.784
   76HECX    O1  455   3.336   8.356   0.799
   76HECX    H1  456   3.318   8.263   0.848
   77HECX    H6  457   6.915   7.430   3.827
   77HECX    O2  458   6.867   7.339   3.808
   77HECX    C2  459   6.738   7.340   3.873
   77HECX    C1  460   6.659   7.210   3.850
   77HECX    O1  461   6.522   7.211   3.898
   77HECX    H1  462   6.523   7.225   4.004
   78HECX    H6  463   7.950   4.319   9.693
   78HECX    O2  464   7.986   4.242   9.630
   78HECX    C2  465   7.991   4.292   9.495
   78HECX    C1  466   8.122   4.363   9.460
   78HECX    O1  467   8.127   4.403   9.321
   78HECX    H1  468   8.221   4.450   9.304
   79HECX    H6  469   5.152   1.709   1.164
   79HECX    O2  470   5.246   1.686   1.206
   79HECX    C2  471   5.328   1.637   1.098
   79HECX    C1  472   5.440   1.542   1.143
   79HECX    O1  473   5.494   1.465   1.033
   79HECX    H1  474   5.451   1.370   1.034
   80HECX    H6  475   6.486   8.700   6.895
   80HECX    O2  476   6.445   8.645   6.814
   80HECX    C2  477   6.332   8.716   6.757
   80HECX    C1  478   6.300   8.671   6.614
   80HECX    O1  479   6.179   8.730   6.562
   80HECX    H1  480   6.160   8.692   6.467
   81HECX    H6  481   4.887   1.781   2.622
   81HECX    O2  482   4.794   1.777   2.668
   81HECX    C2  483   4.695   1.816   2.570
   81HECX    C1  484   4.698   1.964   2.529
   81HECX    O1  485   4.635   2.056   2.621
   81HECX    H1  486   4.597   2.136   2.565
   82HECX    H6  487   2.924   9.387   0.296
   82HECX    O2  488   2.886   9.448   0.370
   82HECX    C2  489   2.980   9.556   0.391
   82HECX    C1  490   2.955   9.635   0.520
   82HECX    O1  491   3.053   9.739   0.542
   82HECX    H1  492   3.029   9.823   0.482
   83HECX    H6  493   8.371   5.191   7.618
   83HECX    O2  494   8.462   5.242   7.630
   83HECX    C2  495   8.466   5.294   7.765
   83HECX    C1  496   8.377   5.418   7.783
   83HECX    O1  497   8.368   5.456   7.921
   83HECX    H1  498   8.317   5.549   7.930
   84HECX    H6  499   1.764   8.857   0.202
   84HECX    O2  500   1.823   8.837   0.287
   84HECX    C2  501   1.771   8.717   0.348
   84HECX    C1  502   1.620   8.723   0.371
   84HECX    O1  503   1.558   8.594   0.388
   84HECX    H1  504   1.460   8.613   0.403
   85HECX    H6  505   2.989   7.928   2.473
   85HECX    O2  506   2.893   7.892   2.446
   85HECX    C2  507   2.797   7.945   2.540
   85HECX    C1  508   2.820   7.885   2.679
   85HECX    O1  509   2.800   7.974   2.790
   85HECX    H1  510   2.831   7.919   2.877
   86HECX    H6  511   2.388   2.360   3.512
   86HECX    O2  512   2.286   2.384   3.499
   86HECX    C2  513   2.228   2.300   3.396
   86HECX    C1  514   2.157   2.175   3.453
   86HECX    O1  515   2.045   2.127   3.376
   86HECX    H1  516   1.958   2.173   3.413
   87HECX    H6  517   4.146   7.523   0.240
   87HECX    O2  518   4.105   7.427   0.220
   87HECX    C2  519   4.206   7.329   0.255
   87HECX    C1  520   4.294   7.289   0.134
   87HECX    O1  521   4.424   7.237   0.168
   87HECX    H1  522   4.497   7.307   0.142
   88HECX    H6  523   0.370   9.821   6.717
   88HECX    O2  524   0.274   9.831   6.669
   88HECX    C2  525   0.276   9.748   6.550
   88HECX    C1  526   0.268   9.597   6.576
   88HECX    O1  527   0.325   9.521   6.467
   88HECX    H1  528   0.428   9.507   6.491
   89HECX    H6  529   4.361   1.876   4.568
   89HECX    O2  530   4.368   1.913   4.470
   89HECX    C2  531   4.290   2.035   4.463
   89HECX    C1  532   4.283   2.094   4.321
   89HECX    O1  533   4.225   2.007   4.222
   89HECX    H1  534   4.227   2.064   4.130
   90HECX    H6  535   5.194   8.941   8.013
   90HECX    O2  536   5.256   8.922   8.097
   90HECX    C2  537   5.168   8.880   8.205
   90HECX    C1  538   5.094   8.997   8.273
   90HECX    O1  539   5.013   8.953   8.384
   90HECX    H1  540   4.982   9.039   8.438
   91HECX    H6  541   3.539   6.270   7.326
   91HECX    O2  542   3.566   6.175   7.366
   91HECX    C2  543   3.660   6.113   7.276
   91HECX    C1  544   3.654   5.960   7.282
   91HECX    O1  545   3.785   5.902   7.291
   91HECX    H1  546   3.815   5.865   7.198
   92HECX    H6  547   9.561   0.815   1.251
   92HECX    O2  548   9.464   0.796   1.280
   92HECX    C2  549   9.430   0.901   1.373
   92HECX    C1  550   9.415   0.850   1.517
   92HECX    O1  551   9.478   0.936   1.615
   92HECX    H1  552   9.580   0.911   1.618
   93HECX    H6  553   3.912   7.452   6.064
   93HECX    O2  554   3.971   7.395   6.125
   93HECX    C2  555   4.082   7.478   6.166
   93HECX    C1  556   4.180   7.402   6.256
   93HECX    O1  557   4.299   7.476   6.294
   93HECX    H1  558   4.271   7.560   6.355
   94HECX    H6  559   3.691   9.667   5.058
   94HECX    O2  560   3.666   9.600   5.138
   94HECX    C2  561   3.579   9.496   5.088
   94HECX    C1  562   3.650   9.373   5.028
   94HECX    O1  563   3.730   9.296   5.121
   94HECX    H1  564   3.816   9.262   5.067
   95HECX    H6  565   8.633   9.207   2.332
   95HECX    O2  566   8.639   9.165   2.236
   95HECX    C2  567   8.698   9.035   2.250
   95HECX    C1  568   8.776   8.992   2.125
   95HECX    O1  569   8.814   8.853   2.126
   95HECX    H1  570   8.858   8.833   2.034
   96HECX    H6  571   8.163   2.432   7.243
   96HECX    O2  572   8.096   2.509   7.221
   96HECX    C2  573   8.175   2.623   7.179
   96HECX    C1  574   8.218   2.612   7.033
   96HECX    O1  575   8.330   2.695   6.999
   96HECX    H1  576   8.370   2.658   6.910
   97HECX    H6  577   1.734   1.105   2.128
   97HECX    O2  578   1.723   1.009   2.170
   97HECX    C2  579   1.650   0.923   2.080
   97HECX    C1  580   1.671   0.775   2.115
   97HECX    O1  581   1.597   0.679   2.037
   97HECX    H1  582   1.600   0.587   2.088
   98HECX    H6  583   0.943   4.439   8.976
   98HECX    O2  584   0.869   4.470   9.045
   98HECX    C2  585   0.923   4.577   9.128
   98HECX    C1  586   0.956   4.705   9.049
   98HECX    O1  587   0.989   4.818   9.133
   98HECX    H1  588   0.903   4.846   9.187
   99HECX    H6  589   6.191   4.563   3.170
   99HECX    O2  590   6.119   4.500   3.211
   99HECX    C2  591   5.992   4.520   3.146
   99HECX    C1  592   6.003   4.523   2.993
   99HECX    O1  593   5.874   4.528   2.928
   99HECX    H1  594   5.854   4.432   2.894
  100HECX    H6  595   8.843   1.129   5.255
  100HECX    O2  596   8.770   1.070   5.200
  100HECX    C2  597   8.692   1.160   5.119
  100HECX    C1  598   8.561   1.100   5.067
  100HECX    O1  599   8.481   1.197   4.996
  100HECX    H1  600   8.394   1.218   5.053
  101HECX    H6  601   7.671   5.020   1.173
  101HECX    O2  602   7.766   5.032   1.127
  101HECX    C2  603   7.759   4.970   0.996
  101HECX    C1  604   7.720   5.068   0.884
  101HECX    O1  605   7.716   5.007   0.752
  101HECX    H1  606   7.781   4.926   0.750
  102HECX    H6  607   0.449   4.733   8.255
  102HECX    O2  608   0.527   4.702   8.193
  102HECX    C2  609   0.510   4.563   8.160
  102HECX    C1  610   0.643   4.488   8.145
  102HECX    O1  611   0.626   4.346   8.126
  102HECX    H1  612   0.720   4.303   8.104
  103HECX    H6  613   6.986   7.595   3.340
  103HECX    O2  614   7.084   7.552   3.338
  103HECX    C2  615   7.177   7.631   3.259
  103HECX    C1  616   7.117   7.749   3.182
  103HECX    O1  617   7.213   7.816   3.096
  103HECX    H1  618   7.202   7.774   3.000
  104HECX    H6  619   0.895   3.926   2.462
  104HECX    O2  620   0.954   3.920   2.376
  104HECX    C2  621   1.074   3.997   2.391
  104HECX    C1  622   1.181   3.968   2.284
  104HECX    O1  623   1.245   3.839   2.294
  104HECX    H1  624   1.294   3.820   2.204
  105HECX    H6  625   9.033   6.671   7.563
  105HECX    O2  626   9.009   6.760   7.510
  105HECX    C2  627   8.875   6.796   7.551
  105HECX    C1  628   8.841   6.943   7.527
  105HECX    O1  629   8.707   6.974   7.569
  105HECX    H1  630   8.705   6.974   7.675
  106HECX    H6  631   2.169   8.427   6.953
  106HECX    O2  632   2.130   8.512   7.002
  106HECX    C2  633   2.171   8.631   6.932
  106HECX    C1  634   2.214   8.744   7.027
  106HECX    O1  635   2.226   8.873   6.961
  106HECX    H1  636   2.329   8.899   6.954
  107HECX    H6  637   2.874   6.581   5.850
  107HECX    O2  638   2.832   6.605   5.944
  107HECX    C2  639   2.934   6.655   6.033
  107HECX    C1  640   2.880   6.682   6.175
  107HECX    O1  641   2.977   6.737   6.267
  107HECX    H1  642   3.057   6.670   6.274
  108HECX    H6  643   5.215   7.920   6.651
  108HECX    O2  644   5.262   8.003   6.602
  108HECX    C2  645   5.164   8.109   6.594
  108HECX    C1  646   5.214   8.238   6.528
  108HECX    O1  647   5.116   8.343   6.535
  108HECX    H1  648   5.086   8.367   6.438
  109HECX    H6  649   1.476   6.971   1.472
  109HECX    O2  650   1.487   6.871   1.510
  109HECX    C2  651   1.625   6.833   1.493
  109HECX    C1  652   1.707   6.823   1.623
  109HECX    O1  653   1.735   6.949   1.687
  109HECX    H1  654   1.819   6.937   1.747
  110HECX    H6  655   0.716   1.805   8.524
  110HECX    O2  656   0.711   1.827   8.627
  110HECX    C2  657   0.635   1.723   8.693
  110HECX    C1  658   0.594   1.763   8.835
  110HECX    O1  659   0.497   1.671   8.890
  110HECX    H1  660   0.455   1.713   8.977
  111HECX    H6  661   9.327   8.899   4.638
  111HECX    O2  662   9.312   8.996   4.603
  111HECX    C2  663   9.264   8.987   4.467
  111HECX    C1  664   9.115   9.021   4.451
  111HECX    O1  665   9.047   8.931   4.360
  111HECX    H1  666   8.968   8.981   4.314
  112HECX    H6  667   7.509   0.146   4.919
  112HECX    O2  668   7.552   0.133   5.015
  112HECX    C2  669   7.461   0.196   5.109
  112HECX    C1  670   7.530   0.259   5.231
  112HECX    O1  671   7.435   0.324   5.319
  112HECX    H1  672   7.398   0.251   5.389
  113HECX    H6  673   4.967   8.986   9.029
  113HECX    O2  674   4.972   9.081   8.982
  113HECX    C2  675   5.087   9.081   8.894
  113HECX    C1  676   5.092   8.956   8.804
  113HECX    O1  677   5.196   8.958   8.705
  113HECX    H1  678   5.178   8.875   8.642
  114HECX    H6  679   9.829   8.384   6.538
  114HECX    O2  680   9.867   8.314   6.470
  114HECX    C2  681   9.758   8.270   6.387
  114HECX    C1  682   9.747   8.359   6.263
  114HECX    O1  683   9.648   8.317   6.168
  114HECX    H1  684   9.638   8.395   6.097
  115HECX    H6  685   6.421   3.836   1.284
  115HECX    O2  686   6.329   3.873   1.248
  115HECX    C2  687   6.265   3.765   1.178
  115HECX    C1  688   6.312   3.757   1.032
  115HECX    O1  689   6.302   3.625   0.976
  115HECX    H1  690   6.397   3.595   0.948
  116HECX    H6  691   3.225   4.181   5.215
  116HECX    O2  692   3.166   4.145   5.134
  116HECX    C2  693   3.049   4.081   5.190
  116HECX    C1  694   2.975   4.172   5.289
  116HECX    O1  695   2.896   4.096   5.381
  116HECX    H1  696   2.889   4.150   5.473
  117HECX    H6  697   6.708   6.366   7.707
  117HECX    O2  698   6.750   6.390   7.612
  117HECX    C2  699   6.725   6.280   7.522
  117HECX    C1  700   6.814   6.278   7.397
  117HECX    O1  701   6.823   6.147   7.336
  117HECX    H1  702   6.889   6.088   7.397
  118HECX    H6  703   8.807   5.752   0.133
  118HECX    O2  704   8.794   5.855   0.133
  118HECX    C2  705   8.671   5.879   0.205
  118HECX    C1  706   8.675   5.999   0.302
  118HECX    O1  707   8.653   6.126   0.237
  118HECX    H1  708   8.586   6.179   0.300
  119HECX    H6  709   6.522   0.300   9.949
  119HECX    O2  710   6.548   0.203   9.990
  119HECX    C2  711   6.442   0.168   0.081
  119HECX    C1  712   6.487   0.079   0.198
  119HECX    O1  713   6.375   0.030   0.274
  119HECX    H1  714   6.375   0.078   0.370
  120HECX    H6  715   8.600   9.350   7.645
  120HECX    O2  716   8.623   9.455   7.642
  120HECX    C2  717   8.758   9.474   7.597
  120HECX    C1  718   8.807   9.615   7.633
  120HECX    O1  719   8.943   9.644   7.595
  120HECX    H1  720   8.985   9.702   7.671
  121HECX    H6  721   4.446   4.759   2.565
  121HECX    O2  722   4.449   4.756   2.461
  121HECX    C2  723   4.445   4.892   2.413
  121HECX    C1  724   4.412   4.903   2.263
  121HECX    O1  725   4.391   5.039   2.220
  121HECX    H1  726   4.344   5.039   2.127
  122HECX    H6  727   6.075   9.704   0.782
  122HECX    O2  728   6.084   9.710   0.887
  122HECX    C2  729   6.039   9.842   0.924
  122HECX    C1  730   5.999   9.858   1.072
  122HECX    O1  731   5.941   9.987   1.100
  122HECX    H1  732   6.020   0.059   1.105
  123HECX    H6  733   3.792   3.594   4.040
  123HECX    O2  734   3.713   3.599   3.968
  123HECX    C2  735   3.701   3.738   3.932
  123HECX    C1  736   3.611   3.763   3.811
  123HECX    O1  737   3.628   3.897   3.761
  123HECX    H1  738   3.544   3.922   3.705
  124HECX    H6  739   9.869   6.143   7.536
  124HECX    O2  740   9.953   6.141   7.473
  124HECX    C2  741   0.001   6.277   7.460
  124HECX    C1  742   0.141   6.298   7.519
  124HECX    O1  743   0.182   6.437   7.523
  124HECX    H1  744   0.284   6.440   7.496
  125HECX    H6  745   6.961   2.518   7.659
  125HECX    O2  746   7.039   2.568   7.612
  125HECX    C2  747   7.064   2.501   7.486
  125HECX    C1  748   7.195   2.545   7.418
  125HECX    O1  749   7.216   2.485   7.288
  125HECX    H1  750   7.299   2.529   7.245
  126HECX    H6  751   5.965   5.532   7.436
  126HECX    O2  752   6.052   5.588   7.417
  126HECX    C2  753   6.013   5.693   7.326
  126HECX    C1  754   6.128   5.783   7.279
  126HECX    O1  755   6.085   5.877   7.178
  126HECX    H1  756   6.171   5.929   7.143
  127HECX    H6  757   9.849   4.131   9.559
  127HECX    O2  758   9.925   4.081   9.611
  127HECX    C2  759   9.904   4.104   9.752
  127HECX    C1  760   0.035   4.135   9.826
  127HECX    O1  761   0.016   4.173   9.964
  127HECX    H1  762   0.072   4.104   0.023
  128HECX    H6  763   2.938   9.275   4.833
  128HECX    O2  764   2.880   9.341   4.890
  128HECX    C2  765   2.839   9.454   4.811
  128HECX    C1  766   2.958   9.528   4.748
  128HECX    O1  767   2.930   9.664   4.708
  128HECX    H1  768   3.009   9.695   4.656
  129HECX    H6  769   2.816   0.757   2.973
  129HECX    O2  770   2.903   0.797   3.015
  129HECX    C2  771   2.888   0.800   3.158
  129HECX    C1  772   2.779   0.896   3.206
  129HECX    O1  773   2.740   0.872   3.343
  129HECX    H1  774   2.696   0.778   3.350
  130HECX    H6  775   5.433   5.308   1.648
  130HECX    O2  776   5.337   5.348   1.664
  130HECX    C2  777   5.259   5.317   1.546
  130HECX    C1  778   5.304   5.397   1.423
  130HECX    O1  779   5.261   5.338   1.298
  130HECX    H1  780   5.265   5.411   1.226
  131HECX    H6  781   4.140   6.575   9.404
  131HECX    O2  782   4.045   6.561   9.359
  131HECX    C2  783   3.970   6.465   9.438
  131HECX    C1  784   3.878   6.521   9.548
  131HECX    O1  785   3.762   6.594   9.501
  131HECX    H1  786   3.677   6.564   9.557
  132HECX    H6  787   6.666   9.396   2.138
  132HECX    O2  788   6.741   9.331   2.106
  132HECX    C2  789   6.687   9.197   2.101
  132HECX    C1  790   6.784   9.097   2.165
  132HECX    O1  791   6.750   8.958   2.145
  132HECX    H1  792   6.812   8.900   2.207
  133HECX    H6  793   5.096   9.447   4.771
  133HECX    O2  794   5.113   9.344   4.776
  133HECX    C2  795   5.249   9.320   4.819
  133HECX    C1  796   5.296   9.181   4.774
  133HECX    O1  797   5.420   9.139   4.834
  133HECX    H1  798   5.447   9.048   4.788
  134HECX    H6  799   7.188   4.238   7.848
  134HECX    O2  800   7.228   4.163   7.785
  134HECX    C2  801   7.120   4.096   7.715
  134HECX    C1  802   7.171   3.988   7.618
  134HECX    O1  803   7.070   3.940   7.526
  134HECX    H1  804   6.995   3.889   7.580
  135HECX    H6  805   3.603   7.612   2.164
  135HECX    O2  806   3.522   7.639   2.229
  135HECX    C2  807   3.581   7.713   2.338
  135HECX    C1  808   3.480   7.784   2.429
  135HECX    O1  809   3.545   7.848   2.541
  135HECX    H1  810   3.474   7.888   2.598
  136HECX    H6  811   7.603   7.405   0.950
  136HECX    O2  812   7.522   7.451   1.001
  136HECX    C2  813   7.413   7.356   1.014
  136HECX    C1  814   7.311   7.402   1.120
  136HECX    O1  815   7.217   7.302   1.164
  136HECX    H1  816   7.218   7.299   1.270
  137HECX    H6  817   5.418   9.964   8.195
  137HECX    O2  818   5.510   9.921   8.222
  137HECX    C2  819   5.485   9.784   8.263
  137HECX    C1  820   5.464   9.688   8.145
  137HECX    O1  821   5.462   9.549   8.184
  137HECX    H1  822   5.447   9.494   8.096
  138HECX    H6  823   6.787   1.871   6.633
  138HECX    O2  824   6.767   1.946   6.563
  138HECX    C2  825   6.792   1.887   6.434
  138HECX    C1  826   6.858   1.982   6.333
  138HECX    O1  827   6.878   1.916   6.207
  138HECX    H1  828   6.933   1.978   6.143
  139HECX    H6  829   8.836   4.617   2.211
  139HECX    O2  830   8.849   4.517   2.178
  139HECX    C2  831   8.721   4.452   2.195
  139HECX    C1  832   8.722   4.307   2.142
  139HECX    O1  833   8.599   4.236   2.166
  139HECX    H1  834   8.621   4.161   2.238
  140HECX    H6  835   8.708   4.702   5.743
  140HECX    O2  836   8.801   4.724   5.789
  140HECX    C2  837   8.864   4.601   5.831
  140HECX    C1  838   8.776   4.514   5.922
  140HECX    O1  839   8.828   4.381   5.944
  140HECX    H1  840   8.771   4.338   6.022
  141HECX    H6  841   0.589   5.807   5.738
  141HECX    O2  842   0.665   5.785   5.667
  141HECX    C2  843   0.679   5.642   5.660
  141HECX    C1  844   0.582   5.576   5.561
  141HECX    O1  845   0.579   5.433   5.572
  141HECX    H1  846   0.485   5.396   5.538
  142HECX    H6  847   3.889   7.108   0.394
  142HECX    O2  848   3.967   7.066   0.455
  142HECX    C2  849   3.919   7.055   0.591
  142HECX    C1  850   3.994   6.944   0.665
  142HECX    O1  851   3.938   6.913   0.795
  142HECX    H1  852   3.997   6.836   0.836
  143HECX    H6  853   4.899   6.450   9.024
  143HECX    O2  854   4.806   6.405   9.012
  143HECX    C2  855   4.811   6.327   8.891
  143HECX    C1  856   4.699   6.223   8.878
  143HECX    O1  857   4.730   6.123   8.779
  143HECX    H1  858   4.638   6.077   8.747
  144HECX    H6  859   1.955   7.987   1.832
  144HECX    O2  860   2.044   7.932   1.844
  144HECX    C2  861   2.157   8.022   1.845
  144HECX    C1  862   2.288   7.950   1.882
  144HECX    O1  863   2.406   8.031   1.865
  144HECX    H1  864   2.419   8.090   1.950
  145HECX    H6  865   8.790   1.607   1.134
  145HECX    O2  866   8.780   1.712   1.125
  145HECX    C2  867   8.641   1.746   1.139
  145HECX    C1  868   8.607   1.879   1.070
  145HECX    O1  869   8.466   1.910   1.075
  145HECX    H1  870   8.418   1.842   1.013
  146HECX    H6  871   5.267   3.712   5.573
  146HECX    O2  872   5.248   3.626   5.630
  146HECX    C2  873   5.188   3.527   5.544
  146HECX    C1  874   5.271   3.491   5.420
  146HECX    O1  875   5.199   3.404   5.331
  146HECX    H1  876   5.117   3.454   5.293
  147HECX    H6  877   4.507   6.155   1.210
  147HECX    O2  878   4.590   6.222   1.222
  147HECX    C2  879   4.568   6.335   1.135
  147HECX    C1  880   4.688   6.430   1.125
  147HECX    O1  881   4.669   6.530   1.022
  147HECX    H1  882   4.717   6.619   1.049
  148HECX    H6  883   7.669   7.274   3.611
  148HECX    O2  884   7.688   7.275   3.504
  148HECX    C2  885   7.603   7.375   3.445
  148HECX    C1  886   7.686   7.479   3.370
  148HECX    O1  887   7.609   7.587   3.311
  148HECX    H1  888   7.541   7.546   3.238
  149HECX    H6  889   2.268   9.527   2.775
  149HECX    O2  890   2.362   9.499   2.733
  149HECX    C2  891   2.442   9.620   2.728
  149HECX    C1  892   2.405   9.712   2.610
  149HECX    O1  893   2.437   9.850   2.636
  149HECX    H1  894   2.437   9.905   2.547
  150HECX    H6  895   3.474   1.772   3.450
  150HECX    O2  896   3.419   1.696   3.497
  150HECX    C2  897   3.348   1.624   3.394
  150HECX    C1  898   3.441   1.534   3.311
  150HECX    O1  899   3.379   1.479   3.193
  150HECX    H1  900   3.403   1.373   3.188
  151HECX    H6  901   5.083   5.936   2.834
  151HECX    O2  902   5.069   6.003   2.754
  151HECX    C2  903   4.944   6.070   2.778
  151HECX    C1  904   4.825   5.990   2.726
  151HECX    O1  905   4.701   6.061   2.749
  151HECX    H1  906   4.651   6.066   2.654
  152HECX    H6  907   6.365   2.670   8.168
  152HECX    O2  908   6.452   2.701   8.220
  152HECX    C2  909   6.414   2.700   8.360
  152HECX    C1  910   6.527   2.661   8.455
  152HECX    O1  911   6.471   2.606   8.576
  152HECX    H1  912   6.545   2.605   8.650
  153HECX    H6  913   7.301   1.517   2.571
  153HECX    O2  914   7.399   1.475   2.580
  153HECX    C2  915   7.382   1.338   2.624
  153HECX    C1  916   7.507   1.250   2.606
  153HECX    O1  917   7.482   1.112   2.641
  153HECX    H1  918   7.570   1.074   2.683
  154HECX    H6  919   8.143   9.626   1.039
  154HECX    O2  920   8.153   9.577   1.127
  154HECX    C2  921   8.023   9.577   1.190
  154HECX    C1  922   7.954   9.440   1.201
  154HECX    O1  923   7.813   9.451   1.233
  154HECX    H1  924   7.801   9.485   1.334
  155HECX    H6  925   8.291   4.766   4.132
  155HECX    O2  926   8.209   4.831   4.158
  155HECX    C2  927   8.193   4.835   4.302
  155HECX    C1  928   8.067   4.913   4.345
  155HECX    O1  929   8.055   4.936   4.487
  155HECX    H1  930   7.962   4.899   4.517
  156HECX    H6  931   9.394   0.001   4.291
  156HECX    O2  932   9.325   9.945   4.232
  156HECX    C2  933   9.300   0.012   4.108
  156HECX    C1  934   9.190   9.943   4.025
  156HECX    O1  935   9.157   0.006   3.899
  156HECX    H1  936   9.118   0.101   3.915
  157HECX    H6  937   5.969   3.444   6.316
  157HECX    O2  938   6.010   3.505   6.390
  157HECX    C2  939   6.153   3.496   6.386
  157HECX    C1  940   6.215   3.577   6.271
  157HECX    O1  941   6.357   3.597   6.286
  157HECX    H1  942   6.389   3.657   6.208
  158HECX    H6  943   5.837   1.303   0.147
  158HECX    O2  944   5.852   1.276   0.045
  158HECX    C2  945   5.872   1.396   9.968
  158HECX    C1  946   5.864   1.367   9.817
  158HECX    O1  947   5.923   1.472   9.738
  158HECX    H1  948   6.030   1.459   9.744
  159HECX    H6  949   6.484   2.907   0.359
  159HECX    O2  950   6.406   2.974   0.393
  159HECX    C2  951   6.278   2.908   0.378
  159HECX    C1  952   6.243   2.888   0.230
  159HECX    O1  953   6.111   2.833   0.208
  159HECX    H1  954   6.069   2.886   0.126
  160HECX    H6  955   6.794   6.661   1.307
  160HECX    O2  956   6.762   6.729   1.381
  160HECX    C2  957   6.854   6.722   1.492
  160HECX    C1  958   6.831   6.598   1.580
  160HECX    O1  959   6.925   6.579   1.688
  160HECX    H1  960   6.920   6.661   1.755
  161HECX    H6  961   4.603   2.530   7.061
  161HECX    O2  962   4.679   2.600   7.043
  161HECX    C2  963   4.704   2.676   7.163
  161HECX    C1  964   4.578   2.746   7.217
  161HECX    O1  965   4.600   2.826   7.334
  161HECX    H1  966   4.511   2.873   7.360
  162HECX    H6  967   6.117   2.192   9.153
  162HECX    O2  968   6.149   2.120   9.221
  162HECX    C2  969   6.281   2.152   9.272
  162HECX    C1  970   6.278   2.251   9.390
  162HECX    O1  971   6.404   2.260   9.461
  162HECX    H1  972   6.475   2.310   9.402
  163HECX    H6  973   1.102   7.530   6.084
  163HECX    O2  974   1.162   7.463   6.137
  163HECX    C2  975   1.206   7.358   6.048
  163HECX    C1  976   1.325   7.282   6.108
  163HECX    O1  977   1.369   7.172   6.027
  163HECX    H1  978   1.464   7.198   5.984
  164HECX    H6  979   8.403   1.620   7.713
  164HECX    O2  980   8.460   1.586   7.633
  164HECX    C2  981   8.571   1.678   7.619
  164HECX    C1  982   8.678   1.635   7.517
  164HECX    O1  983   8.783   1.734   7.506
  164HECX    H1  984   8.853   1.702   7.432
  165HECX    H6  985   6.231   8.772   1.528
  165HECX    O2  986   6.234   8.686   1.466
  165HECX    C2  987   6.130   8.693   1.365
  165HECX    C1  988   5.993   8.740   1.416
  165HECX    O1  989   5.936   8.656   1.518
  165HECX    H1  990   5.840   8.638   1.494
  166HECX    H6  991   9.911   2.138   0.213
  166HECX    O2  992   9.846   2.221   0.229
  166HECX    C2  993   9.818   2.288   0.104
  166HECX    C1  994   9.768   2.200   9.988
  166HECX    O1  995   9.739   2.276   9.869
  166HECX    H1  996   9.756   2.217   9.786
  167HECX    H6  997   2.049   4.340   9.360
  167HECX    O2  998   2.066   4.309   9.460
  167HECX    C2  999   1.973   4.204   9.496
  167HECX    C1 1000   1.850   4.257   9.571
  167HECX    O1 1001   1.795   4.164   9.666
  167HECX    H1 1002   1.732   4.218   9.730
  168HECX    H6 1003   3.325   4.280   6.872
  168HECX    O2 1004   3.399   4.243   6.809
  168HECX    C2 1005   3.493   4.173   6.894
  168HECX    C1 1006   3.584   4.074   6.820
  168HECX    O1 1007   3.661   3.989   6.909
  168HECX    H1 1008   3.723   3.934   6.852
  169HECX    H6 1009   5.068   0.074   2.433
  169HECX    O2 1010   4.996   0.078   2.357
  169HECX    C2 1011   5.062   0.118   2.234
  169HECX    C1 1012   5.068   0.270   2.213
  169HECX    O1 1013   5.128   0.307   2.086
  169HECX    H1 1014   5.067   0.263   2.008
  170HECX    H6 1015   3.644   3.403   4.658
  170HECX    O2 1016   3.727   3.438   4.603
  170HECX    C2 1017   3.782   3.325   4.532
  170HECX    C1 1018   3.877   3.362   4.418
  170HECX    O1 1019   3.922   3.246   4.344
  170HECX    H1 1020   3.935   3.273   4.243
  171HECX    H6 1021   3.976   3.242   2.934
  171HECX    O2 1022   4.048   3.303   2.968
  171HECX    C2 1023   4.127   3.352   2.857
  171HECX    C1 1024   4.064   3.470   2.782
  171HECX    O1 1025   4.048   3.591   2.860
  171HECX    H1 1026   4.140   3.649   2.853
  172HECX    H6 1027   5.558   6.887   1.843
  172HECX    O2 1028   5.534   6.928   1.749
  172HECX    C2 1029   5.501   6.821   1.658
  172HECX    C1 1030   5.352   6.817   1.624
  172HECX    O1 1031   5.317   6.727   1.516
  172HECX    H1 1032   5.324   6.780   1.424
  173HECX    H6 1033   2.880   4.285   3.425
  173HECX    O2 1034   2.960   4.333   3.375
  173HECX    C2 1035   2.905   4.450   3.311
  173HECX    C1 1036   2.973   4.580   3.357
  173HECX    O1 1037   2.937   4.695   3.278
  173HECX    H1 1038   3.016   4.764   3.292
  174HECX    H6 1039   2.039   9.361   3.940
  174HECX    O2 1040   1.932   9.375   3.951
  174HECX    C2 1041   1.878   9.440   3.834
  174HECX    C1 1042   1.941   9.395   3.701
  174HECX    O1 1043   1.894   9.272   3.642
  174HECX    H1 1044   1.885   9.197   3.714
  175HECX    H6 1045   9.253   6.436   2.411
  175HECX    O2 1046   9.235   6.469   2.510
  175HECX    C2 1047   9.239   6.614   2.511
  175HECX    C1 1048   9.235   6.673   2.653
  175HECX    O1 1049   9.214   6.815   2.651
  175HECX    H1 1050   9.238   6.851   2.740
  176HECX    H6 1051   9.333   3.926   4.161
  176HECX    O2 1052   9.286   3.976   4.243
  176HECX    C2 1053   9.333   3.914   4.365
  176HECX    C1 1054   9.478   3.950   4.399
  176HECX    O1 1055   9.530   3.873   4.509
  176HECX    H1 1056   9.623   3.914   4.536
  177HECX    H6 1057   5.326   7.932   6.475
  177HECX    O2 1058   5.360   7.870   6.399
  177HECX    C2 1059   5.324   7.734   6.431
  177HECX    C1 1060   5.222   7.673   6.335
  177HECX    O1 1061   5.196   7.534   6.364
  177HECX    H1 1062   5.104   7.507   6.320
  178HECX    H6 1063   1.762   1.704   0.926
  178HECX    O2 1064   1.799   1.800   0.962
  178HECX    C2 1065   1.906   1.840   0.874
  178HECX    C1 1066   1.855   1.901   0.743
  178HECX    O1 1067   1.961   1.935   0.650
  178HECX    H1 1068   2.026   2.006   0.700
  179HECX    H6 1069   0.048   6.599   9.574
  179HECX    O2 1070   0.099   6.548   9.497
  179HECX    C2 1071   0.185   6.450   9.558
  179HECX    C1 1072   0.107   6.332   9.620
  179HECX    O1 1073   0.189   6.241   9.698
  179HECX    H1 1074   0.214   6.158   9.636
  180HECX    H6 1075   6.878   6.758   4.980
  180HECX    O2 1076   6.892   6.856   5.018
  180HECX    C2 1077   7.012   6.854   5.099
  180HECX    C1 1078   7.059   6.992   5.148
  180HECX    O1 1079   7.114   7.076   5.045
  180HECX    H1 1080   7.134   7.170   5.089
  181HECX    H6 1081   4.474   1.796   0.827
  181HECX    O2 1082   4.415   1.720   0.803
  181HECX    C2 1083   4.283   1.751   0.852
  181HECX    C1 1084   4.177   1.644   0.821
  181HECX    O1 1085   4.045   1.686   0.865
  181HECX    H1 1086   3.973   1.618   0.831
  182HECX    H6 1087   4.168   0.454   7.396
  182HECX    O2 1088   4.132   0.425   7.302
  182HECX    C2 1089   4.019   0.339   7.328
  182HECX    C1 1090   3.887   0.417   7.339
  182HECX    O1 1091   3.786   0.341   7.409
  182HECX    H1 1092   3.696   0.352   7.356
  183HECX    H6 1093   0.480   4.080   7.931
  183HECX    O2 1094   0.490   3.992   7.869
  183HECX    C2 1095   0.577   4.024   7.758
  183HECX    C1 1096   0.613   3.898   7.679
  183HECX    O1 1097   0.714   3.918   7.578
  183HECX    H1 1098   0.728   3.824   7.531
  184HECX    H6 1099   1.395   8.917   4.222
  184HECX    O2 1100   1.365   8.824   4.184
  184HECX    C2 1101   1.273   8.849   4.076
  184HECX    C1 1102   1.262   8.732   3.978
  184HECX    O1 1103   1.166   8.756   3.873
  184HECX    H1 1104   1.069   8.745   3.915
  185HECX    H6 1105   1.832   2.236   7.935
  185HECX    O2 1106   1.823   2.241   7.830
  185HECX    C2 1107   1.892   2.361   7.788
  185HECX    C1 1108   1.839   2.423   7.659
  185HECX    O1 1109   1.897   2.553   7.638
  185HECX    H1 1110   1.849   2.601   7.555
  186HECX    H6 1111   2.013   6.173   6.785
  186HECX    O2 1112   1.933   6.178   6.856
  186HECX    C2 1113   1.985   6.245   6.973
  186HECX    C1 1114   1.874   6.292   7.069
  186HECX    O1 1115   1.917   6.306   7.206
  186HECX    H1 1116   1.977   6.393   7.217
  187HECX    H6 1117   4.340   7.517   6.969
  187HECX    O2 1118   4.262   7.460   6.919
  187HECX    C2 1119   4.145   7.470   7.002
  187HECX    C1 1120   4.015   7.497   6.924
  187HECX    O1 1121   3.909   7.549   7.007
  187HECX    H1 1122   3.879   7.472   7.078
  188HECX    H6 1123   9.008   5.496   8.118
  188HECX    O2 1124   9.017   5.589   8.071
  188HECX    C2 1125   9.157   5.614   8.048
  188HECX    C1 1126   9.181   5.731   7.952
  188HECX    O1 1127   9.321   5.757   7.930
  188HECX    H1 1128   9.341   5.753   7.826
  189HECX    H6 1129   9.204   6.388   5.689
  189HECX    O2 1130   9.217   6.292   5.733
  189HECX    C2 1131   9.126   6.199   5.670
  189HECX    C1 1132   8.978   6.230   5.701
  189HECX    O1 1133   8.884   6.149   5.627
  189HECX    H1 1134   8.876   6.056   5.676
  190HECX    H6 1135   7.568   1.905   1.666
  190HECX    O2 1136   7.608   1.938   1.573
  190HECX    C2 1137   7.746   1.897   1.567
  190HECX    C1 1138   7.769   1.749   1.600
  190HECX    O1 1139   7.906   1.721   1.635
  190HECX    H1 1140   7.910   1.623   1.658
  191HECX    H6 1141   6.325   8.143   2.200
  191HECX    O2 1142   6.401   8.174   2.267
  191HECX    C2 1143   6.531   8.161   2.205
  191HECX    C1 1144   6.637   8.235   2.287
  191HECX    O1 1145   6.774   8.217   2.244
  191HECX    H1 1146   6.836   8.260   2.319
  192HECX    H6 1147   1.590   1.220   9.017
  192HECX    O2 1148   1.493   1.184   9.025
  192HECX    C2 1149   1.486   1.109   9.148
  192HECX    C1 1150   1.370   1.008   9.151
  192HECX    O1 1151   1.393   0.902   9.246
  192HECX    H1 1152   1.307   0.860   9.270
  193HECX    H6 1153   4.481   8.398   4.833
  193HECX    O2 1154   4.463   8.296   4.857
  193HECX    C2 1155   4.326   8.283   4.898
  193HECX    C1 1156   4.232   8.303   4.778
  193HECX    O1 1157   4.093   8.275   4.804
  193HECX    H1 1158   4.076   8.173   4.776
  194HECX    H6 1159   0.203   4.851   5.173
  194HECX    O2 1160   0.112   4.888   5.207
  194HECX    C2 1161   0.031   4.777   5.251
  194HECX    C1 1162   0.043   4.656   5.157
  194HECX    O1 1163   9.963   4.541   5.195
  194HECX    H1 1164   0.020   4.454   5.168
  195HECX    H6 1165   9.485   7.440   3.265
  195HECX    O2 1166   9.496   7.480   3.362
  195HECX    C2 1167   9.391   7.428   3.447
  195HECX    C1 1168   9.413   7.457   3.597
  195HECX    O1 1169   9.536   7.401   3.647
  195HECX    H1 1170   9.552   7.435   3.746
  196HECX    H6 1171   6.137   9.920   7.733
  196HECX    O2 1172   6.037   9.893   7.738
  196HECX    C2 1173   6.032   9.770   7.813
  196HECX    C1 1174   5.895   9.703   7.814
  196HECX    O1 1175   5.902   9.572   7.873
  196HECX    H1 1176   5.810   9.544   7.897
  197HECX    H6 1177   0.289   4.424   6.244
  197HECX    O2 1178   0.366   4.409   6.183
  197HECX    C2 1179   0.339   4.290   6.106
  197HECX    C1 1180   0.440   4.177   6.130
  197HECX    O1 1181   0.434   4.072   6.031
  197HECX    H1 1182   0.462   4.114   5.937
  198HECX    H6 1183   2.141   5.730   8.082
  198HECX    O2 1184   2.169   5.645   8.026
  198HECX    C2 1185   2.048   5.579   7.983
  198HECX    C1 1186   2.048   5.429   8.016
  198HECX    O1 1187   1.937   5.359   7.955
  198HECX    H1 1188   1.849   5.411   7.978
  199HECX    H6 1189   9.104   2.443   4.189
  199HECX    O2 1190   9.077   2.397   4.104
  199HECX    C2 1191   8.965   2.472   4.050
  199HECX    C1 1192   8.909   2.417   3.917
  199HECX    O1 1193   8.825   2.300   3.933
  199HECX    H1 1194   8.873   2.217   3.893
  200HECX    H6 1195   0.086   2.212   3.215
  200HECX    O2 1196   0.076   2.167   3.307
  200HECX    C2 1197   0.135   2.250   3.410
  200HECX    C1 1198   0.159   2.167   3.536
  200HECX    O1 1199   0.216   2.239   3.647
  200HECX    H1 1200   0.223   2.171   3.728
  201HECX    H6 1201   7.224   5.646   8.031
  201HECX    O2 1202   7.214   5.753   8.044
  201HECX    C2 1203   7.255   5.781   8.179
  201HECX    C1 1204   7.138   5.789   8.279
  201HECX    O1 1205   7.183   5.781   8.416
  201HECX    H1 1206   7.117   5.834   8.478
  202HECX    H6 1207   2.571   0.940   5.531
  202HECX    O2 1208   2.550   0.846   5.574
  202HECX    C2 1209   2.650   0.753   5.529
  202HECX    C1 1210   2.610   0.604   5.542
  202HECX    O1 1211   2.707   0.515   5.483
  202HECX    H1 1212   2.678   0.415   5.498
  203HECX    H6 1213   9.512   0.034   1.954
  203HECX    O2 1214   9.486   0.039   1.850
  203HECX    C2 1215   9.348   0.083   1.838
  203HECX    C1 1216   9.336   0.235   1.847
  203HECX    O1 1217   9.205   0.287   1.819
  203HECX    H1 1218   9.209   0.388   1.827
  204HECX    H6 1219   8.130   7.252   4.848
  204HECX    O2 1220   8.139   7.198   4.941
  204HECX    C2 1221   8.090   7.281   5.048
  204HECX    C1 1222   8.096   7.207   5.182
  204HECX    O1 1223   8.054   7.285   5.296
  204HECX    H1 1224   7.948   7.285   5.302
  205HECX    H6 1225   6.380   2.584   1.133
  205HECX    O2 1226   6.291   2.558   1.082
  205HECX    C2 1227   6.218   2.682   1.068
  205HECX    C1 1228   6.248   2.755   0.937
  205HECX    O1 1229   6.232   2.897   0.953
  205HECX    H1 1230   6.189   2.938   0.866
  206HECX    H6 1231   5.773   3.782   5.847
  206HECX    O2 1232   5.692   3.788   5.915
  206HECX    C2 1233   5.710   3.682   6.011
  206HECX    C1 1234   5.767   3.736   6.142
  206HECX    O1 1235   5.776   3.636   6.244
  206HECX    H1 1236   5.819   3.682   6.328
  207HECX    H6 1237   6.274   1.840   9.916
  207HECX    O2 1238   6.349   1.769   9.932
  207HECX    C2 1239   6.470   1.835   9.976
  207HECX    C1 1240   6.528   1.935   9.876
  207HECX    O1 1241   6.634   2.013   9.936
  207HECX    H1 1242   6.671   2.082   9.866
  208HECX    H6 1243   3.434   1.101   4.306
  208HECX    O2 1244   3.335   1.124   4.333
  208HECX    C2 1245   3.294   1.234   4.249
  208HECX    C1 1246   3.310   1.205   4.098
  208HECX    O1 1247   3.302   1.324   4.017
  208HECX    H1 1248   3.209   1.369   4.034
  209HECX    H6 1249   0.042   8.936   0.643
  209HECX    O2 1250   0.123   8.914   0.707
  209HECX    C2 1251   0.236   8.999   0.679
  209HECX    C1 1252   0.356   8.921   0.626
  209HECX    O1 1253   0.480   8.995   0.625
  209HECX    H1 1254   0.479   9.068   0.548
  210HECX    H6 1255   6.910   7.845   7.622
  210HECX    O2 1256   6.848   7.932   7.625
  210HECX    C2 1257   6.805   7.953   7.762
  210HECX    C1 1258   6.886   8.061   7.836
  210HECX    O1 1259   6.840   8.081   7.972
  210HECX    H1 1260   6.920   8.126   8.027
  211HECX    H6 1261   2.544   0.437   2.611
  211HECX    O2 1262   2.487   0.402   2.693
  211HECX    C2 1263   2.347   0.413   2.660
  211HECX    C1 1264   2.272   0.516   2.744
  211HECX    O1 1265   2.128   0.500   2.735
  211HECX    H1 1266   2.083   0.595   2.737
  212HECX    H6 1267   1.153   6.837   8.043
  212HECX    O2 1268   1.229   6.900   8.005
  212HECX    C2 1269   1.175   6.999   7.916
  212HECX    C1 1270   1.051   6.951   7.838
  212HECX    O1 1271   1.025   7.026   7.717
  212HECX    H1 1272   0.979   7.119   7.743
  213HECX    H6 1273   2.512   2.467   5.062
  213HECX    O2 1274   2.495   2.561   5.107
  213HECX    C2 1275   2.623   2.622   5.134
  213HECX    C1 1276   2.610   2.762   5.197
  213HECX    O1 1277   2.735   2.832   5.210
  213HECX    H1 1278   2.753   2.883   5.121
  214HECX    H6 1279   0.891   3.114   1.090
  214HECX    O2 1280   0.960   3.176   1.142
  214HECX    C2 1281   1.091   3.117   1.131
  214HECX    C1 1282   1.202   3.216   1.166
  214HECX    O1 1283   1.334   3.158   1.156
  214HECX    H1 1284   1.350   3.098   1.242
  215HECX    H6 1285   1.081   1.883   5.642
  215HECX    O2 1286   1.117   1.838   5.731
  215HECX    C2 1287   1.011   1.758   5.787
  215HECX    C1 1288   1.063   1.643   5.875
  215HECX    O1 1289   0.959   1.550   5.911
  215HECX    H1 1290   0.914   1.584   6.001
  216HECX    H6 1291   8.558   1.232   0.803
  216HECX    O2 1292   8.559   1.337   0.834
  216HECX    C2 1293   8.669   1.398   0.764
  216HECX    C1 1294   8.688   1.547   0.795
  216HECX    O1 1295   8.801   1.605   0.726
  216HECX    H1 1296   8.772   1.704   0.696
  217HECX    H6 1297   7.081   3.771   8.386
  217HECX    O2 1298   7.043   3.676   8.361
  217HECX    C2 1299   7.155   3.587   8.346
  217HECX    C1 1300   7.159   3.485   8.461
  217HECX    O1 1301   7.282   3.409   8.471
  217HECX    H1 1302   7.260   3.324   8.530
  218HECX    H6 1303   3.559   5.284   1.680
  218HECX    O2 1304   3.468   5.292   1.734
  218HECX    C2 1305   3.360   5.286   1.638
  218HECX    C1 1306   3.326   5.422   1.575
  218HECX    O1 1307   3.431   5.476   1.493
  218HECX    H1 1308   3.406   5.577   1.468
  219HECX    H6 1309   2.190   6.880   6.789
  219HECX    O2 1310   2.188   6.826   6.879
  219HECX    C2 1311   2.151   6.689   6.849
  219HECX    C1 1312   2.000   6.666   6.855
  219HECX    O1 1313   1.958   6.539   6.800
  219HECX    H1 1314   1.857   6.527   6.819
  220HECX    H6 1315   4.487   4.305   6.230
  220HECX    O2 1316   4.413   4.372   6.262
  220HECX    C2 1317   4.436   4.499   6.197
  220HECX    C1 1318   4.307   4.580   6.179
  220HECX    O1 1319   4.323   4.698   6.096
  220HECX    H1 1320   4.286   4.778   6.153
  221HECX    H6 1321   5.069   8.086   6.174
  221HECX    O2 1322   5.105   8.182   6.159
  221HECX    C2 1323   5.136   8.204   6.020
  221HECX    C1 1324   5.041   8.307   5.957
  221HECX    O1 1325   5.079   8.353   5.826
  221HECX    H1 1326   4.995   8.391   5.780
  222HECX    H6 1327   5.717   0.216   9.746
  222HECX    O2 1328   5.664   0.144   9.689
  222HECX    C2 1329   5.759   0.048   9.635
  222HECX    C1 1330   5.690   9.932   9.563
  222HECX    O1 1331   5.779   9.825   9.526
  222HECX    H1 1332   5.756   9.797   9.428
  223HECX    H6 1333   2.851   6.163   2.074
  223HECX    O2 1334   2.858   6.245   2.133
  223HECX    C2 1335   2.728   6.271   2.188
  223HECX    C1 1336   2.733   6.378   2.298
  223HECX    O1 1337   2.600   6.414   2.341
  223HECX    H1 1338   2.607   6.489   2.420
  224HECX    H6 1339   7.692   9.263   5.584
  224HECX    O2 1340   7.661   9.250   5.485
  224HECX    C2 1341   7.518   9.267   5.480
  224HECX    C1 1342   7.470   9.363   5.369
  224HECX    O1 1343   7.505   9.502   5.390
  224HECX    H1 1344   7.416   9.561   5.380
  225HECX    H6 1345   4.264   7.600   4.972
  225HECX    O2 1346   4.361   7.624   4.933
  225HECX    C2 1347   4.449   7.509   4.940
  225HECX    C1 1348   4.566   7.523   5.039
  225HECX    O1 1349   4.669   7.424   5.019
  225HECX    H1 1350   4.726   7.415   5.107
  226HECX    H6 1351   0.094   3.390   5.653
  226HECX    O2 1352   0.118   3.361   5.552
  226HECX    C2 1353   0.153   3.481   5.482
  226HECX    C1 1354   0.296   3.526   5.516
  226HECX    O1 1355   0.336   3.648   5.449
  226HECX    H1 1356   0.324   3.636   5.344
  227HECX    H6 1357   3.394   5.306   2.240
  227HECX    O2 1358   3.329   5.232   2.274
  227HECX    C2 1359   3.408   5.118   2.313
  227HECX    C1 1360   3.475   5.135   2.450
  227HECX    O1 1361   3.540   5.014   2.494
  227HECX    H1 1362   3.483   4.971   2.568
  228HECX    H6 1363   1.976   1.412   1.836
  228HECX    O2 1364   1.884   1.464   1.838
  228HECX    C2 1365   1.790   1.382   1.914
  228HECX    C1 1366   1.833   1.362   2.060
  228HECX    O1 1367   1.759   1.262   2.134
  228HECX    H1 1368   1.768   1.289   2.235
  229HECX    H6 1369   5.132   8.093   4.296
  229HECX    O2 1370   5.219   8.052   4.254
  229HECX    C2 1371   5.290   8.165   4.197
  229HECX    C1 1372   5.378   8.243   4.297
  229HECX    O1 1373   5.306   8.309   4.403
  229HECX    H1 1374   5.377   8.349   4.469
  230HECX    H6 1375   2.888   1.393   0.267
  230HECX    O2 1376   2.873   1.347   0.174
  230HECX    C2 1377   2.732   1.346   0.143
  230HECX    C1 1378   2.681   1.482   0.092
  230HECX    O1 1379   2.538   1.486   0.075
  230HECX    H1 1380   2.515   1.470   9.972
  231HECX    H6 1381   0.064   4.867   9.201
  231HECX    O2 1382   0.089   4.765   9.180
  231HECX    C2 1383   0.032   4.687   9.288
  231HECX    C1 1384   0.109   4.705   9.419
  231HECX    O1 1385   0.046   4.637   9.530
  231HECX    H1 1386   0.105   4.552   9.551
  232HECX    H6 1387   4.997   1.520   7.334
  232HECX    O2 1388   5.022   1.547   7.434
  232HECX    C2 1389   4.910   1.513   7.519
  232HECX    C1 1390   4.923   1.379   7.594
  232HECX    O1 1391   4.938   1.265   7.506
  232HECX    H1 1392   4.890   1.180   7.548
  233HECX    H6 1393   0.497   7.897   4.366
  233HECX    O2 1394   0.485   7.987   4.425
  233HECX    C2 1395   0.429   8.086   4.338
  233HECX    C1 1396   0.378   8.210   4.413
  233HECX    O1 1397   0.302   8.295   4.325
  233HECX    H1 1398   0.211   8.245   4.307
  234HECX    H6 1399   7.570   9.713   1.649
  234HECX    O2 1400   7.672   9.719   1.627
  234HECX    C2 1401   7.744   9.773   1.740
  234HECX    C1 1402   7.836   9.889   1.701
  234HECX    O1 1403   7.939   9.915   1.798
  234HECX    H1 1404   8.033   9.889   1.756
  235HECX    H6 1405   3.949   0.723   2.136
  235HECX    O2 1406   3.949   0.807   2.203
  235HECX    C2 1407   4.040   0.780   2.312
  235HECX    C1 1408   3.990   0.838   2.444
  235HECX    O1 1409   4.092   0.845   2.545
  235HECX    H1 1410   4.131   0.940   2.543
  236HECX    H6 1411   8.388   7.851   8.686
  236HECX    O2 1412   8.444   7.914   8.751
  236HECX    C2 1413   8.356   8.015   8.803
  236HECX    C1 1414   8.400   8.069   8.939
  236HECX    O1 1415   8.310   8.170   8.990
  236HECX    H1 1416   8.366   8.259   9.000
  237HECX    H6 1417   1.297   6.907   0.499
  237HECX    O2 1418   1.360   6.899   0.583
  237HECX    C2 1419   1.488   6.953   0.546
  237HECX    C1 1420   1.541   7.054   0.649
  237HECX    O1 1421   1.678   7.092   0.621
  237HECX    H1 1422   1.676   7.147   0.531
  238HECX    H6 1423   1.764   2.503   5.543
  238HECX    O2 1424   1.825   2.430   5.588
  238HECX    C2 1425   1.792   2.301   5.533
  238HECX    C1 1426   1.781   2.305   5.380
  238HECX    O1 1427   1.743   2.181   5.317
  238HECX    H1 1428   1.665   2.135   5.374
  239HECX    H6 1429   7.386   8.532   7.806
  239HECX    O2 1430   7.307   8.608   7.808
  239HECX    C2 1431   7.241   8.599   7.937
  239HECX    C1 1432   7.096   8.650   7.934
  239HECX    O1 1433   7.025   8.635   8.059
  239HECX    H1 1434   6.933   8.669   8.043
  240HECX    H6 1435   7.814   8.056   1.062
  240HECX    O2 1436   7.792   8.099   1.155
  240HECX    C2 1437   7.668   8.046   1.204
  240HECX    C1 1438   7.618   8.125   1.327
  240HECX    O1 1439   7.491   8.080   1.378
  240HECX    H1 1440   7.440   8.165   1.415
  241HECX    H6 1441   3.257   7.779   3.534
  241HECX    O2 1442   3.163   7.827   3.522
  241HECX    C2 1443   3.099   7.821   3.652
  241HECX    C1 1444   2.970   7.904   3.665
  241HECX    O1 1445   2.912   7.891   3.796
  241HECX    H1 1446   2.982   7.928   3.867
  242HECX    H6 1447   0.595   3.277   8.723
  242HECX    O2 1448   0.609   3.171   8.715
  242HECX    C2 1449   0.510   3.124   8.621
  242HECX    C1 1450   0.405   3.030   8.682
  242HECX    O1 1451   0.315   3.091   8.777
  242HECX    H1 1452   0.235   3.023   8.788
  243HECX    H6 1453   1.053   3.917   4.506
  243HECX    O2 1454   1.053   3.848   4.431
  243HECX    C2 1455   0.918   3.802   4.411
  243HECX    C1 1456   0.889   3.766   4.265
  243HECX    O1 1457   0.782   3.669   4.250
  243HECX    H1 1458   0.691   3.713   4.285
  244HECX    H6 1459   8.220   3.091   0.825
  244HECX    O2 1460   8.301   3.034   0.861
  244HECX    C2 1461   8.425   3.100   0.826
  244HECX    C1 1462   8.547   3.049   0.904
  244HECX    O1 1463   8.661   3.137   0.894
  244HECX    H1 1464   8.746   3.077   0.873
  245HECX    H6 1465   9.249   9.540   8.675
  245HECX    O2 1466   9.233   9.591   8.768
  245HECX    C2 1467   9.159   9.711   8.737
  245HECX    C1 1468   9.151   9.814   8.851
  245HECX    O1 1469   9.069   9.775   8.963
  245HECX    H1 1470   8.969   9.795   8.943
  246HECX    H6 1471   1.356   1.514   1.204
  246HECX    O2 1472   1.293   1.529   1.121
  246HECX    C2 1473   1.229   1.403   1.092
  246HECX    C1 1474   1.106   1.417   1.000
  246HECX    O1 1475   1.029   1.296   0.986
  246HECX    H1 1476   1.078   1.232   0.915
  247HECX    H6 1477   2.857   0.732   1.062
  247HECX    O2 1478   2.826   0.825   1.081
  247HECX    C2 1479   2.804   0.840   1.223
  247HECX    C1 1480   2.768   0.986   1.258
  247HECX    O1 1481   2.724   1.010   1.394
  247HECX    H1 1482   2.685   1.110   1.394
  248HECX    H6 1483   5.744   8.703   4.749
  248HECX    O2 1484   5.806   8.700   4.662
  248HECX    C2 1485   5.907   8.597   4.680
  248HECX    C1 1486   5.952   8.523   4.553
  248HECX    O1 1487   6.037   8.596   4.462
  248HECX    H1 1488   5.980   8.627   4.379
  249HECX    H6 1489   0.353   6.447   5.489
  249HECX    O2 1490   0.250   6.467   5.516
  249HECX    C2 1491   0.256   6.551   5.633
  249HECX    C1 1492   0.121   6.576   5.702
  249HECX    O1 1493   0.135   6.661   5.818
  249HECX    H1 1494   0.189   6.606   5.892
  250HECX    H6 1495   7.169   6.261   1.019
  250HECX    O2 1496   7.089   6.246   0.950
  250HECX    C2 1497   7.067   6.103   0.941
  250HECX    C1 1498   7.166   6.034   0.846
  250HECX    O1 1499   7.155   5.890   0.847
  250HECX    H1 1500   7.053   5.865   0.833
  251HECX    H6 1501   0.873   7.893   7.350
  251HECX    O2 1502   0.888   7.976   7.285
  251HECX    C2 1503   0.909   8.092   7.369
  251HECX    C1 1504   0.861   8.226   7.310
  251HECX    O1 1505   0.958   8.298   7.230
  251HECX    H1 1506   0.987   8.242   7.146
  252HECX    H6 1507   8.064   1.497   0.187
  252HECX    O2 1508   8.150   1.519   0.252
  252HECX    C2 1509   8.179   1.402   0.332
  252HECX    C1 1510   8.107   1.401   0.467
  252HECX    O1 1511   8.195   1.370   0.577
  252HECX    H1 1512   8.210   1.264   0.579
  253HECX    H6 1513   1.836   3.344   8.403
  253HECX    O2 1514   1.917   3.401   8.369
  253HECX    C2 1515   1.970   3.346   8.246
  253HECX    C1 1516   1.954   3.445   8.130
  253HECX    O1 1517   2.020   3.405   8.008
  253HECX    H1 1518   2.060   3.493   7.964
  254HECX    H6 1519   8.846   7.681   6.103
  254HECX    O2 1520   8.831   7.782   6.129
  254HECX    C2 1521   8.873   7.865   6.018
  254HECX    C1 1522   8.820   8.009   6.028
  254HECX    O1 1523   8.888   8.095   5.934
  254HECX    H1 1524   8.827   8.177   5.904
  255HECX    H6 1525   5.531   3.570   1.398
  255HECX    O2 1526   5.544   3.549   1.498
  255HECX    C2 1527   5.681   3.508   1.518
  255HECX    C1 1528   5.771   3.621   1.569
  255HECX    O1 1529   5.908   3.580   1.596
  255HECX    H1 1530   5.907   3.493   1.659
  256HECX    H6 1531   4.453   3.683   6.625
  256HECX    O2 1532   4.489   3.722   6.716
  256HECX    C2 1533   4.397   3.824   6.757
  256HECX    C1 1534   4.390   3.845   6.909
  256HECX    O1 1535   4.303   3.955   6.943
  256HECX    H1 1536   4.305   3.964   7.043
  257HECX    H6 1537   1.826   2.691   7.357
  257HECX    O2 1538   1.788   2.676   7.456
  257HECX    C2 1539   1.664   2.748   7.466
  257HECX    C1 1540   1.623   2.778   7.611
  257HECX    O1 1541   1.495   2.843   7.621
  257HECX    H1 1542   1.433   2.780   7.678
  258HECX    H6 1543   2.426   8.860   6.456
  258HECX    O2 1544   2.356   8.882   6.531
  258HECX    C2 1545   2.401   8.820   6.654
  258HECX    C1 1546   2.430   8.671   6.638
  258HECX    O1 1547   2.466   8.604   6.761
  258HECX    H1 1548   2.450   8.502   6.743
  259HECX    H6 1549   9.443   9.183   5.741
  259HECX    O2 1550   9.408   9.152   5.833
  259HECX    C2 1551   9.349   9.022   5.815
  259HECX    C1 1552   9.283   8.967   5.942
  259HECX    O1 1553   9.236   8.832   5.925
  259HECX    H1 1554   9.205   8.798   6.020
  260HECX    H6 1555   3.114   2.601   3.923
  260HECX    O2 1556   3.110   2.523   3.850
  260HECX    C2 1557   3.203   2.421   3.894
  260HECX    C1 1558   3.153   2.276   3.877
  260HECX    O1 1559   3.152   2.232   3.740
  260HECX    H1 1560   3.082   2.155   3.731
  261HECX    H6 1561   7.921   7.564   4.828
  261HECX    O2 1562   7.980   7.550   4.741
  261HECX    C2 1563   8.026   7.683   4.707
  261HECX    C1 1564   8.105   7.697   4.576
  261HECX    O1 1565   8.135   7.836   4.552
  261HECX    H1 1566   8.205   7.844   4.473
  262HECX    H6 1567   1.963   2.025   0.526
  262HECX    O2 1568   1.987   2.093   0.451
  262HECX    C2 1569   2.013   2.019   0.330
  262HECX    C1 1570   1.893   2.005   0.236
  262HECX    O1 1571   1.918   1.904   0.136
  262HECX    H1 1572   1.900   1.811   0.180
  263HECX    H6 1573   0.169   9.091   7.369
  263HECX    O2 1574   0.243   9.159   7.398
  263HECX    C2 1575   0.302   9.114   7.523
  263HECX    C1 1576   0.367   9.227   7.606
  263HECX    O1 1577   0.423   9.181   7.731
  263HECX    H1 1578   0.461   9.263   7.784
  264HECX    H6 1579   6.670   5.701   1.522
  264HECX    O2 1580   6.733   5.617   1.527
  264HECX    C2 1581   6.830   5.629   1.421
  264HECX    C1 1582   6.806   5.533   1.304
  264HECX    O1 1583   6.884   5.569   1.188
  264HECX    H1 1584   6.914   5.482   1.136
  265HECX    H6 1585   3.973   1.547   2.258
  265HECX    O2 1586   3.984   1.450   2.223
  265HECX    C2 1587   4.026   1.458   2.085
  265HECX    C1 1588   4.154   1.379   2.056
  265HECX    O1 1589   4.224   1.427   1.939
  265HECX    H1 1590   4.184   1.380   1.854
  266HECX    H6 1591   0.408   4.338   3.266
  266HECX    O2 1592   0.397   4.393   3.357
  266HECX    C2 1593   0.527   4.445   3.394
  266HECX    C1 1594   0.636   4.337   3.395
  266HECX    O1 1595   0.769   4.389   3.418
  266HECX    H1 1596   0.831   4.335   3.363
  267HECX    H6 1597   0.998   9.413   0.025
  267HECX    O2 1598   0.922   9.413   0.089
  267HECX    C2 1599   0.974   9.406   0.223
  267HECX    C1 1600   0.952   9.269   0.290
  267HECX    O1 1601   0.981   9.270   0.431
  267HECX    H1 1602   0.902   9.321   0.477
  268HECX    H6 1603   0.338   5.368   2.662
  268HECX    O2 1604   0.254   5.429   2.638
  268HECX    C2 1605   0.135   5.355   2.674
  268HECX    C1 1606   0.004   5.419   2.624
  268HECX    O1 1607   9.885   5.349   2.668
  268HECX    H1 1608   9.881   5.255   2.619
  269HECX    H6 1609   6.612   4.886   2.793
  269HECX    O2 1610   6.565   4.936   2.874
  269HECX    C2 1611   6.626   5.065   2.890
  269HECX    C1 1612   6.714   5.078   3.017
  269HECX    O1 1613   6.842   5.012   3.008
  269HECX    H1 1614   6.876   4.995   3.107
  270HECX    H6 1615   4.323   6.567   0.243
  270HECX    O2 1616   4.226   6.552   0.204
  270HECX    C2 1617   4.136   6.573   0.314
  270HECX    C1 1618   4.109   6.447   0.398
  270HECX    O1 1619   4.037   6.478   0.519
  270HECX    H1 1620   3.966   6.404   0.535
  271HECX    H6 1621   2.482   1.713   1.427
  271HECX    O2 1622   2.506   1.613   1.391
  271HECX    C2 1623   2.623   1.621   1.306
  271HECX    C1 1624   2.596   1.693   1.173
  271HECX    O1 1625   2.705   1.677   1.079
  271HECX    H1 1626   2.695   1.580   1.036
  272HECX    H6 1627   6.508   7.271   5.992
  272HECX    O2 1628   6.555   7.258   6.083
  272HECX    C2 1629   6.602   7.385   6.130
  272HECX    C1 1630   6.509   7.452   6.232
  272HECX    O1 1631   6.547   7.588   6.259
  272HECX    H1 1632   6.538   7.641   6.170
  273HECX    H6 1633   5.494   5.594   2.420
  273HECX    O2 1634   5.589   5.638   2.431
  273HECX    C2 1635   5.576   5.755   2.514
  273HECX    C1 1636   5.601   5.887   2.437
  273HECX    O1 1637   5.601   6.003   2.524
  273HECX    H1 1638   5.501   6.021   2.552
  274HECX    H6 1639   4.395   4.578   3.668
  274HECX    O2 1640   4.292   4.583   3.694
  274HECX    C2 1641   4.226   4.461   3.652
  274HECX    C1 1642   4.192   4.457   3.502
  274HECX    O1 1643   4.092   4.358   3.467
  274HECX    H1 1644   4.114   4.322   3.374
  275HECX    H6 1645   3.869   1.407   1.262
  275HECX    O2 1646   3.930   1.488   1.296
  275HECX    C2 1647   3.979   1.555   1.178
  275HECX    C1 1648   4.015   1.702   1.202
  275HECX    O1 1649   3.992   1.786   1.087
  275HECX    H1 1650   4.030   1.740   0.999
  276HECX    H6 1651   8.152   0.617   6.091
  276HECX    O2 1652   8.222   0.555   6.038
  276HECX    C2 1653   8.142   0.468   5.954
  276HECX    C1 1654   8.211   0.415   5.827
  276HECX    O1 1655   8.308   0.309   5.849
  276HECX    H1 1656   8.356   0.289   5.760
  277HECX    H6 1657   7.315   0.848   1.345
  277HECX    O2 1658   7.376   0.841   1.432
  277HECX    C2 1659   7.311   0.914   1.538
  277HECX    C1 1660   7.186   0.845   1.594
  277HECX    O1 1661   7.131   0.918   1.705
  277HECX    H1 1662   7.092   1.009   1.670
  278HECX    H6 1663   8.197   1.698   3.829
  278HECX    O2 1664   8.200   1.734   3.930
  278HECX    C2 1665   8.240   1.873   3.925
  278HECX    C1 1666   8.275   1.933   4.062
  278HECX    O1 1667   8.269   2.077   4.061
  278HECX    H1 1668   8.307   2.113   4.151
  279HECX    H6 1669   3.188   1.107   9.920
  279HECX    O2 1670   3.130   1.045   9.971
  279HECX    C2 1671   3.131   0.919   9.902
  279HECX    C1 1672   3.061   0.806   9.978
  279HECX    O1 1673   3.042   0.690   9.895
  279HECX    H1 1674   3.022   0.607   9.955
  280HECX    H6 1675   3.122   2.606   4.963
  280HECX    O2 1676   3.081   2.556   4.883
  280HECX    C2 1677   3.134   2.422   4.884
  280HECX    C1 1678   3.077   2.338   4.769
  280HECX    O1 1679   3.171   2.247   4.709
  280HECX    H1 1680   3.192   2.171   4.781
  281HECX    H6 1681   7.715   6.244   6.796
  281HECX    O2 1682   7.683   6.290   6.888
  281HECX    C2 1683   7.802   6.317   6.966
  281HECX    C1 1684   7.838   6.203   7.062
  281HECX    O1 1685   7.886   6.251   7.190
  281HECX    H1 1686   7.985   6.213   7.203
  282HECX    H6 1687   4.962   2.215   8.258
  282HECX    O2 1688   4.952   2.164   8.168
  282HECX    C2 1689   4.942   2.022   8.195
  282HECX    C1 1690   5.077   1.950   8.177
  282HECX    O1 1691   5.071   1.808   8.196
  282HECX    H1 1692   5.047   1.788   8.296
  283HECX    H6 1693   2.084   0.178   7.441
  283HECX    O2 1694   2.085   0.233   7.351
  283HECX    C2 1695   2.053   0.370   7.383
  283HECX    C1 1696   1.903   0.398   7.368
  283HECX    O1 1697   1.869   0.536   7.392
  283HECX    H1 1698   1.897   0.594   7.308
  284HECX    H6 1699   2.664   1.324   7.186
  284HECX    O2 1700   2.718   1.279   7.107
  284HECX    C2 1701   2.732   1.138   7.136
  284HECX    C1 1702   2.851   1.109   7.229
  284HECX    O1 1703   2.850   0.976   7.286
  284HECX    H1 1704   2.878   0.906   7.210
  285HECX    H6 1705   0.309   2.058   8.999
  285HECX    O2 1706   0.264   2.140   8.964
  285HECX    C2 1707   0.352   2.197   8.864
  285HECX    C1 1708   0.292   2.321   8.796
  285HECX    O1 1709   0.382   2.387   8.705
  285HECX    H1 1710   0.352   2.363   8.606
  286HECX    H6 1711   2.294   7.846   9.513
  286HECX    O2 1712   2.268   7.783   9.432
  286HECX    C2 1713   2.220   7.866   9.323
  286HECX    C1 1714   2.320   7.975   9.281
  286HECX    O1 1715   2.281   8.047   9.162
  286HECX    H1 1716   2.301   7.985   9.081
  287HECX    H6 1717   9.687   4.694   5.140
  287HECX    O2 1718   9.660   4.782   5.192
  287HECX    C2 1719   9.558   4.847   5.114
  287HECX    C1 1720   9.552   4.998   5.144
  287HECX    O1 1721   9.437   5.063   5.087
  287HECX    H1 1722   9.466   5.160   5.066
  288HECX    H6 1723   9.555   8.454   4.874
  288HECX    O2 1724   9.635   8.471   4.808
  288HECX    C2 1725   9.749   8.509   4.888
  288HECX    C1 1726   9.884   8.468   4.828
  288HECX    O1 1727   9.990   8.457   4.926
  288HECX    H1 1728   0.073   8.408   4.876
  289HECX    H6 1729   7.080   7.913   4.114
  289HECX    O2 1730   7.037   7.836   4.058
  289HECX    C2 1731   6.987   7.736   4.150
  289HECX    C1 1732   7.099   7.647   4.208
  289HECX    O1 1733   7.053   7.537   4.287
  289HECX    H1 1734   7.136   7.473   4.305
  290HECX    H6 1735   9.850   9.908   9.556
  290HECX    O2 1736   9.759   9.858   9.541
  290HECX    C2 1737   9.652   9.939   9.597
  290HECX    C1 1738   9.512   9.882   9.568
  290HECX    O1 1739   9.412   9.930   9.661
  290HECX    H1 1740   9.316   9.895   9.631
  291HECX    H6 1741   1.899   7.858   2.913
  291HECX    O2 1742   1.886   7.774   2.850
  291HECX    C2 1743   1.809   7.820   2.737
  291HECX    C1 1744   1.801   7.724   2.618
  291HECX    O1 1745   1.714   7.776   2.516
  291HECX    H1 1746   1.707   7.706   2.437
  292HECX    H6 1747   9.071   3.114   8.274
  292HECX    O2 1748   9.169   3.148   8.274
  292HECX    C2 1749   9.224   3.115   8.144
  292HECX    C1 1750   9.244   3.235   8.050
  292HECX    O1 1751   9.348   3.325   8.093
  292HECX    H1 1752   9.316   3.373   8.180
  293HECX    H6 1753   4.055   1.131   9.482
  293HECX    O2 1754   4.043   1.208   9.551
  293HECX    C2 1755   4.170   1.271   9.574
  293HECX    C1 1756   4.197   1.391   9.482
  293HECX    O1 1757   4.320   1.459   9.514
  293HECX    H1 1758   4.400   1.410   9.463
  294HECX    H6 1759   5.673   5.315   5.302
  294HECX    O2 1760   5.654   5.358   5.397
  294HECX    C2 1761   5.743   5.301   5.495
  294HECX    C1 1762   5.781   5.399   5.607
  294HECX    O1 1763   5.857   5.336   5.711
  294HECX    H1 1764   5.916   5.406   5.760
  295HECX    H6 1765   4.870   7.064   1.696
  295HECX    O2 1766   4.897   7.153   1.646
  295HECX    C2 1767   5.008   7.123   1.559
  295HECX    C1 1768   5.144   7.152   1.623
  295HECX    O1 1769   5.250   7.120   1.531
  295HECX    H1 1770   5.347   7.141   1.574
  296HECX    H6 1771   7.213   4.899   9.400
  296HECX    O2 1772   7.221   4.794   9.390
  296HECX    C2 1773   7.131   4.735   9.487
  296HECX    C1 1774   7.167   4.591   9.525
  296HECX    O1 1775   7.090   4.533   9.632
  296HECX    H1 1776   6.987   4.559   9.622
  297HECX    H6 1777   1.998   4.790   7.974
  297HECX    O2 1778   2.034   4.856   8.048
  297HECX    C2 1779   2.164   4.812   8.091
  297HECX    C1 1780   2.207   4.884   8.220
  297HECX    O1 1781   2.346   4.868   8.255
  297HECX    H1 1782   2.358   4.907   8.352
  298HECX    H6 1783   3.060   1.125   4.771
  298HECX    O2 1784   3.150   1.064   4.771
  298HECX    C2 1785   3.124   0.942   4.697
  298HECX    C1 1786   3.252   0.862   4.674
  298HECX    O1 1787   3.236   0.768   4.566
  298HECX    H1 1788   3.274   0.676   4.599
  299HECX    H6 1789   7.598   5.553   7.362
  299HECX    O2 1790   7.568   5.601   7.272
  299HECX    C2 1791   7.429   5.569   7.247
  299HECX    C1 1792   7.337   5.581   7.370
  299HECX    O1 1793   7.326   5.715   7.424
  299HECX    H1 1794   7.400   5.723   7.499
  300HECX    H6 1795   0.400   8.513   3.555
  300HECX    O2 1796   0.356   8.418   3.550
  300HECX    C2 1797   0.458   8.319   3.533
  300HECX    C1 1798   0.474   8.271   3.387
  300HECX    O1 1799   0.355   8.210   3.332
  300HECX    H1 1800   0.383   8.133   3.264
  301HECX    H6 1801   5.988   4.660   4.984
  301HECX    O2 1802   5.969   4.648   4.886
  301HECX    C2 1803   5.857   4.557   4.880
  301HECX    C1 1804   5.721   4.628   4.877
  301HECX    O1 1805   5.607   4.540   4.894
  301HECX    H1 1806   5.626   4.448   4.850
  302HECX    H6 1807   6.559   4.143   0.191
  302HECX    O2 1808   6.461   4.099   0.197
  302HECX    C2 1809   6.442   4.020   0.077
  302HECX    C1 1810   6.381   4.099   9.960
  302HECX    O1 1811   6.381   4.022   9.838
  302HECX    H1 1812   6.295   4.042   9.785
  303HECX    H6 1813   4.516   3.823   3.157
  303HECX    O2 1814   4.448   3.895   3.120
  303HECX    C2 1815   4.334   3.832   3.060
  303HECX    C1 1816   4.364   3.768   2.924
  303HECX    O1 1817   4.243   3.738   2.850
  303HECX    H1 1818   4.206   3.831   2.812
  304HECX    H6 1819   9.969   7.101   9.099
  304HECX    O2 1820   0.033   7.149   9.157
  304HECX    C2 1821   0.092   7.051   9.245
  304HECX    C1 1822   0.164   7.114   9.365
  304HECX    O1 1823   0.208   7.016   9.461
  304HECX    H1 1824   0.124   6.972   9.500
  305HECX    H6 1825   9.181   1.547   5.164
  305HECX    O2 1826   9.235   1.463   5.197
  305HECX    C2 1827   9.376   1.492   5.190
  305HECX    C1 1828   9.434   1.460   5.052
  305HECX    O1 1829   9.578   1.467   5.047
  305HECX    H1 1830   9.610   1.443   4.947
  306HECX    H6 1831   0.311   1.262   1.861
  306HECX    O2 1832   0.414   1.283   1.864
  306HECX    C2 1833   0.429   1.425   1.852
  306HECX    C1 1834   0.397   1.476   1.711
  306HECX    O1 1835   0.501   1.559   1.658
  306HECX    H1 1836   0.592   1.503   1.662
  307HECX    H6 1837   5.353   2.053   4.386
  307HECX    O2 1838   5.381   2.039   4.286
  307HECX    C2 1839   5.523   2.011   4.285
  307HECX    C1 1840   5.605   2.130   4.235
  307HECX    O1 1841   5.746   2.112   4.256
  307HECX    H1 1842   5.798   2.182   4.203
  308HECX    H6 1843   0.421   3.840   2.351
  308HECX    O2 1844   0.499   3.782   2.389
  308HECX    C2 1845   0.590   3.872   2.454
  308HECX    C1 1846   0.700   3.803   2.537
  308HECX    O1 1847   0.802   3.896   2.581
  308HECX    H1 1848   0.758   3.960   2.656
  309HECX    H6 1849   6.586   2.284   0.836
  309HECX    O2 1850   6.670   2.218   0.836
  309HECX    C2 1851   6.666   2.150   0.709
  309HECX    C1 1852   6.799   2.093   0.658
  309HECX    O1 1853   6.791   2.065   0.516
  309HECX    H1 1854   6.877   2.007   0.489
  310HECX    H6 1855   0.967   6.164   7.947
  310HECX    O2 1856   1.022   6.243   7.903
  310HECX    C2 1857   0.953   6.368   7.922
  310HECX    C1 1858   0.918   6.395   8.069
  310HECX    O1 1859   0.884   6.532   8.098
  310HECX    H1 1860   0.865   6.538   8.204
  311HECX    H6 1861   6.455   1.690   6.296
  311HECX    O2 1862   6.445   1.793   6.321
  311HECX    C2 1863   6.490   1.869   6.207
  311HECX    C1 1864   6.377   1.902   6.109
  311HECX    O1 1865   6.427   1.935   5.977
  311HECX    H1 1866   6.484   2.025   5.985
  312HECX    H6 1867   8.533   7.990   7.239
  312HECX    O2 1868   8.578   7.911   7.293
  312HECX    C2 1869   8.514   7.904   7.423
  312HECX    C1 1870   8.558   7.781   7.503
  312HECX    O1 1871   8.474   7.757   7.618
  312HECX    H1 1872   8.534   7.739   7.702
  313HECX    H6 1873   3.575   8.613   9.969
  313HECX    O2 1874   3.604   8.519   9.928
  313HECX    C2 1875   3.535   8.500   9.803
  313HECX    C1 1876   3.386   8.459   9.812
  313HECX    O1 1877   3.360   8.317   9.811
  313HECX    H1 1878   3.283   8.296   9.740
  314HECX    H6 1879   3.323   5.284   4.492
  314HECX    O2 1880   3.368   5.332   4.410
  314HECX    C2 1881   3.511   5.314   4.419
  314HECX    C1 1882   3.558   5.177   4.368
  314HECX    O1 1883   3.698   5.152   4.395
  314HECX    H1 1884   3.717   5.048   4.377
  315HECX    H6 1885   8.294   7.524   8.812
  315HECX    O2 1886   8.190   7.540   8.829
  315HECX    C2 1887   8.170   7.660   8.909
  315HECX    C1 1888   8.233   7.658   9.048
  315HECX    O1 1889   8.163   7.747   9.137
  315HECX    H1 1890   8.082   7.693   9.177
  316HECX    H6 1891   0.889   7.407   5.664
  316HECX    O2 1892   0.926   7.508   5.647
  316HECX    C2 1893   0.885   7.551   5.515
  316HECX    C1 1894   0.947   7.686   5.476
  316HECX    O1 1895   0.902   7.736   5.348
  316HECX    H1 1896   0.979   7.727   5.285
  317HECX    H6 1897   4.081   0.947   6.535
  317HECX    O2 1898   4.089   1.049   6.513
  317HECX    C2 1899   3.994   1.125   6.590
  317HECX    C1 1900   3.956   1.255   6.516
  317HECX    O1 1901   3.868   1.344   6.589
  317HECX    H1 1902   3.812   1.398   6.518
  318HECX    H6 1903   0.560   3.063   0.577
  318HECX    O2 1904   0.551   2.967   0.549
  318HECX    C2 1905   0.681   2.922   0.509
  318HECX    C1 1906   0.694   2.770   0.497
  318HECX    O1 1907   0.811   2.731   0.422
  318HECX    H1 1908   0.812   2.629   0.412
  319HECX    H6 1909   9.701   2.190   5.921
  319HECX    O2 1910   9.734   2.133   6.002
  319HECX    C2 1911   9.645   2.021   6.024
  319HECX    C1 1912   9.676   1.946   6.155
  319HECX    O1 1913   9.603   1.822   6.170
  319HECX    H1 1914   9.644   1.768   6.252
  320HECX    H6 1915   9.689   6.429   4.747
  320HECX    O2 1916   9.695   6.437   4.641
  320HECX    C2 1917   9.814   6.368   4.599
  320HECX    C1 1918   9.796   6.216   4.582
  320HECX    O1 1919   9.917   6.142   4.608
  320HECX    H1 1920   9.981   6.150   4.525
  321HECX    H6 1921   8.934   0.475   6.659
  321HECX    O2 1922   8.906   0.386   6.609
  321HECX    C2 1923   8.880   0.284   6.708
  321HECX    C1 1924   8.760   0.315   6.798
  321HECX    O1 1925   8.747   0.218   6.904
  321HECX    H1 1926   8.645   0.198   6.917
  322HECX    H6 1927   9.017   8.128   5.977
  322HECX    O2 1928   9.116   8.157   6.005
  322HECX    C2 1929   9.106   8.265   6.099
  322HECX    C1 1930   9.203   8.259   6.218
  322HECX    O1 1931   9.186   8.373   6.306
  322HECX    H1 1932   9.258   8.446   6.278
  323HECX    H6 1933   1.651   3.096   1.275
  323HECX    O2 1934   1.687   3.001   1.247
  323HECX    C2 1935   1.717   3.007   1.106
  323HECX    C1 1936   1.734   2.869   1.041
  323HECX    O1 1937   1.752   2.880   0.899
  323HECX    H1 1938   1.662   2.915   0.858
  324HECX    H6 1939   5.656   1.980   0.076
  324HECX    O2 1940   5.638   1.939   0.171
  324HECX    C2 1941   5.550   2.027   0.243
  324HECX    C1 1942   5.603   2.061   0.384
  324HECX    O1 1943   5.498   2.110   0.470
  324HECX    H1 1944   5.437   2.026   0.496
  325HECX    H6 1945   0.580   1.149   8.229
  325HECX    O2 1946   0.657   1.204   8.277
  325HECX    C2 1947   0.652   1.339   8.230
  325HECX    C1 1948   0.780   1.380   8.156
  325HECX    O1 1949   0.774   1.516   8.107
  325HECX    H1 1950   0.707   1.520   8.024
  326HECX    H6 1951   8.978   0.044   0.919
  326HECX    O2 1952   9.022   0.139   0.899
  326HECX    C2 1953   8.964   0.183   0.774
  326HECX    C1 1954   9.017   0.317   0.723
  326HECX    O1 1955   8.973   0.344   0.588
  326HECX    H1 1956   8.998   0.444   0.566
  327HECX    H6 1957   6.514   0.319   9.147
  327HECX    O2 1958   6.417   0.306   9.180
  327HECX    C2 1959   6.382   0.167   9.164
  327HECX    C1 1960   6.251   0.132   9.237
  327HECX    O1 1961   6.208   9.995   9.222
  327HECX    H1 1962   6.120   9.989   9.268
  328HECX    H6 1963   2.032   9.937   3.072
  328HECX    O2 1964   1.926   9.930   3.091
  328HECX    C2 1965   1.860   9.910   2.964
  328HECX    C1 1966   1.786   0.035   2.913
  328HECX    O1 1967   1.722   0.013   2.786
  328HECX    H1 1968   1.664   0.099   2.764
  329HECX    H6 1969   7.761   4.461   9.255
  329HECX    O2 1970   7.675   4.411   9.220
  329HECX    C2 1971   7.659   4.289   9.296
  329HECX    C1 1972   7.563   4.187   9.231
  329HECX    O1 1973   7.550   4.062   9.302
  329HECX    H1 1974   7.509   3.997   9.239
  330HECX    H6 1975   4.207   2.968   9.162
  330HECX    O2 1976   4.204   3.072   9.132
  330HECX    C2 1977   4.153   3.079   8.996
  330HECX    C1 1978   4.086   3.213   8.964
  330HECX    O1 1979   4.066   3.235   8.823
  330HECX    H1 1980   3.989   3.302   8.812
  331HECX    H6 1981   3.105   5.228   2.785
  331HECX    O2 1982   3.103   5.150   2.858
  331HECX    C2 1983   3.096   5.210   2.990
  331HECX    C1 1984   3.042   5.116   3.100
  331HECX    O1 1985   3.057   5.173   3.232
  331HECX    H1 1986   3.002   5.117   3.298
  332HECX    H6 1987   6.480   7.257   8.684
  332HECX    O2 1988   6.482   7.362   8.685
  332HECX    C2 1989   6.355   7.403   8.629
  332HECX    C1 1990   6.352   7.545   8.572
  332HECX    O1 1991   6.246   7.557   8.475
  332HECX    H1 1992   6.263   7.487   8.399
  333HECX    H6 1993   7.801   3.793   9.074
  333HECX    O2 1994   7.827   3.893   9.076
  333HECX    C2 1995   7.873   3.928   9.208
  333HECX    C1 1996   8.024   3.907   9.229
  333HECX    O1 1997   8.072   3.952   9.358
  333HECX    H1 1998   8.174   3.978   9.349
  334HECX    H6 1999   5.250   7.258   3.861
  334HECX    O2 2000   5.282   7.316   3.945
  334HECX    C2 2001   5.404   7.385   3.908
  334HECX    C1 2002   5.386   7.496   3.803
  334HECX    O1 2003   5.506   7.573   3.780
  334HECX    H1 2004   5.484   7.653   3.716
  335HECX    H6 2005   4.983   7.965   8.342
  335HECX    O2 2006   5.011   8.062   8.302
  335HECX    C2 2007   4.959   8.064   8.167
  335HECX    C1 2008   5.012   8.176   8.078
  335HECX    O1 2009   4.966   8.165   7.941
  335HECX    H1 2010   5.011   8.239   7.890
  336HECX    H6 2011   6.210   2.786   3.257
  336HECX    O2 2012   6.126   2.737   3.293
  336HECX    C2 2013   6.019   2.754   3.197
  336HECX    C1 2014   6.048   2.683   3.063
  336HECX    O1 2015   5.937   2.690   2.971
  336HECX    H1 2016   5.908   2.593   2.948
  337HECX    H6 2017   7.293   7.208   8.526
  337HECX    O2 2018   7.253   7.305   8.524
  337HECX    C2 2019   7.356   7.405   8.514
  337HECX    C1 2020   7.362   7.468   8.374
  337HECX    O1 2021   7.447   7.584   8.363
  337HECX    H1 2022   7.415   7.637   8.278
  338HECX    H6 2023   2.597   0.490   3.606
  338HECX    O2 2024   2.515   0.449   3.550
  338HECX    C2 2025   2.473   0.331   3.622
  338HECX    C1 2026   2.532   0.199   3.570
  338HECX    O1 2027   2.477   0.084   3.639
  338HECX    H1 2028   2.531   9.997   3.608
  339HECX    H6 2029   9.366   4.643   9.456
  339HECX    O2 2030   9.273   4.659   9.505
  339HECX    C2 2031   9.172   4.691   9.406
  339HECX    C1 2032   9.042   4.743   9.469
  339HECX    O1 2033   8.941   4.773   9.371
  339HECX    H1 2034   8.883   4.688   9.356
  340HECX    H6 2035   9.132   2.092   9.431
  340HECX    O2 2036   9.237   2.082   9.436
  340HECX    C2 2037   9.288   2.090   9.302
  340HECX    C1 2038   9.441   2.095   9.298
  340HECX    O1 2039   9.495   2.080   9.165
  340HECX    H1 2040   9.464   1.985   9.129
  341HECX    H6 2041   4.977   5.948   8.947
  341HECX    O2 2042   4.991   5.924   9.050
  341HECX    C2 2043   4.962   6.044   9.125
  341HECX    C1 2044   5.002   6.040   9.272
  341HECX    O1 2045   4.972   6.164   9.340
  341HECX    H1 2046   4.938   6.140   9.437
  342HECX    H6 2047   9.193   0.662   9.474
  342HECX    O2 2048   9.289   0.678   9.512
  342HECX    C2 2049   9.297   0.633   9.649
  342HECX    C1 2050   9.439   0.654   9.704
  342HECX    O1 2051   9.465   0.595   9.832
  342HECX    H1 2052   9.570   0.584   9.839
  343HECX    H6 2053   0.758   7.735   5.297
  343HECX    O2 2054   0.665   7.742   5.251
  343HECX    C2 2055   0.658   7.636   5.153
  343HECX    C1 2056   0.543   7.658   5.054
  343HECX    O1 2057   0.553   7.575   4.937
  343HECX    H1 2058   0.482   7.494   4.948
  344HECX    H6 2059   3.010   7.653   0.782
  344HECX    O2 2060   3.059   7.712   0.708
  344HECX    C2 2061   3.034   7.648   0.581
  344HECX    C1 2062   2.926   7.721   0.499
  344HECX    O1 2063   2.867   7.639   0.397
  344HECX    H1 2064   2.822   7.700   0.325
  345HECX    H6 2065   5.304   3.053   1.171
  345HECX    O2 2066   5.304   3.002   1.079
  345HECX    C2 2067   5.245   3.092   0.983
  345HECX    C1 2068   5.213   3.030   0.847
  345HECX    O1 2069   5.184   3.131   0.748
  345HECX    H1 2070   5.149   3.085   0.660
  346HECX    H6 2071   2.032   3.105   6.770
  346HECX    O2 2072   2.132   3.101   6.752
  346HECX    C2 2073   2.195   3.043   6.869
  346HECX    C1 2074   2.327   3.111   6.907
  346HECX    O1 2075   2.375   3.071   7.037
  346HECX    H1 2076   2.473   3.106   7.046
  347HECX    H6 2077   0.749   5.777   8.928
  347HECX    O2 2078   0.690   5.785   8.847
  347HECX    C2 2079   0.761   5.731   8.733
  347HECX    C1 2080   0.743   5.579   8.716
  347HECX    O1 2081   0.817   5.524   8.605
  347HECX    H1 2082   0.844   5.423   8.627
  348HECX    H6 2083   4.133   5.016   2.914
  348HECX    O2 2084   4.202   4.940   2.936
  348HECX    C2 2085   4.269   4.899   2.815
  348HECX    C1 2086   4.295   4.748   2.811
  348HECX    O1 2087   4.384   4.706   2.706
  348HECX    H1 2088   4.336   4.631   2.649
  349HECX    H6 2089   3.086   3.018   5.012
  349HECX    O2 2090   3.131   2.959   5.084
  349HECX    C2 2091   3.243   3.030   5.139
  349HECX    C1 2092   3.231   3.057   5.290
  349HECX    O1 2093   3.346   3.010   5.364
  349HECX    H1 2094   3.333   3.034   5.468
  350HECX    H6 2095   2.181   2.096   6.475
  350HECX    O2 2096   2.230   2.076   6.383
  350HECX    C2 2097   2.329   2.179   6.361
  350HECX    C1 2098   2.462   2.150   6.432
  350HECX    O1 2099   2.554   2.071   6.354
  350HECX    H1 2100   2.603   2.137   6.290
  351HECX    H6 2101   2.865   3.162   6.425
  351HECX    O2 2102   2.763   3.136   6.411
  351HECX    C2 2103   2.695   3.255   6.368
  351HECX    C1 2104   2.744   3.307   6.232
  351HECX    O1 2105   2.719   3.448   6.215
  351HECX    H1 2106   2.733   3.473   6.113
  352HECX    H6 2107   0.536   0.056   2.673
  352HECX    O2 2108   0.575   0.066   2.773
  352HECX    C2 2109   0.623   0.202   2.789
  352HECX    C1 2110   0.769   0.220   2.746
  352HECX    O1 2111   0.822   0.354   2.755
  352HECX    H1 2112   0.813   0.400   2.658
  353HECX    H6 2113   9.849   2.254   1.526
  353HECX    O2 2114   9.822   2.355   1.525
  353HECX    C2 2115   9.723   2.375   1.423
  353HECX    C1 2116   9.780   2.360   1.281
  353HECX    O1 2117   9.681   2.390   1.180
  353HECX    H1 2118   9.626   2.300   1.163
  354HECX    H6 2119   6.246   7.462   7.006
  354HECX    O2 2120   6.153   7.413   6.978
  354HECX    C2 2121   6.177   7.285   6.915
  354HECX    C1 2122   6.044   7.215   6.882
  354HECX    O1 2123   6.057   7.079   6.834
  354HECX    H1 2124   5.991   7.069   6.749
  355HECX    H6 2125   9.657   0.943   6.492
  355HECX    O2 2126   9.684   1.045   6.493
  355HECX    C2 2127   9.818   1.056   6.545
  355HECX    C1 2128   9.826   1.036   6.697
  355HECX    O1 2129   9.963   1.029   6.744
  355HECX    H1 2130   0.014   1.114   6.705
  356HECX    H6 2131   4.845   9.712   1.995
  356HECX    O2 2132   4.852   9.666   1.900
  356HECX    C2 2133   4.903   9.532   1.915
  356HECX    C1 2134   4.800   9.430   1.965
  356HECX    O1 2135   4.695   9.396   1.872
  356HECX    H1 2136   4.640   9.315   1.913
  357HECX    H6 2137   0.152   2.094   3.077
  357HECX    O2 2138   0.112   2.189   3.054
  357HECX    C2 2139   0.030   2.175   2.935
  357HECX    C1 2140   9.882   2.143   2.961
  357HECX    O1 2141   9.803   2.139   2.840
  357HECX    H1 2142   9.807   2.231   2.795
  358HECX    H6 2143   4.573   2.373   0.398
  358HECX    O2 2144   4.668   2.396   0.442
  358HECX    C2 2145   4.658   2.383   0.586
  358HECX    C1 2146   4.642   2.238   0.636
  358HECX    O1 2147   4.640   2.227   0.781
  358HECX    H1 2148   4.542   2.195   0.813
  359HECX    H6 2149   5.351   1.203   4.942
  359HECX    O2 2150   5.389   1.116   4.902
  359HECX    C2 2151   5.521   1.140   4.849
  359HECX    C1 2152   5.609   1.215   4.949
  359HECX    O1 2153   5.749   1.225   4.915
  359HECX    H1 2154   5.791   1.297   4.984
  360HECX    H6 2155   4.541   7.416   1.499
  360HECX    O2 2156   4.485   7.492   1.451
  360HECX    C2 2157   4.575   7.595   1.406
  360HECX    C1 2158   4.627   7.680   1.522
  360HECX    O1 2159   4.729   7.774   1.484
  360HECX    H1 2160   4.774   7.809   1.571
  361HECX    H6 2161   4.312   5.767   1.843
  361HECX    O2 2162   4.354   5.858   1.881
  361HECX    C2 2163   4.336   5.959   1.780
  361HECX    C1 2164   4.193   6.014   1.780
  361HECX    O1 2165   4.158   6.098   1.668
  361HECX    H1 2166   4.181   6.046   1.578
  362HECX    H6 2167   9.573   3.434   4.304
  362HECX    O2 2168   9.646   3.477   4.235
  362HECX    C2 2169   9.616   3.618   4.226
  362HECX    C1 2170   9.690   3.691   4.113
  362HECX    O1 2171   9.651   3.830   4.110
  362HECX    H1 2172   9.707   3.884   4.036
  363HECX    H6 2173   9.876   3.116   8.161
  363HECX    O2 2174   9.932   3.180   8.222
  363HECX    C2 2175   0.065   3.125   8.240
  363HECX    C1 2176   0.158   3.218   8.319
  363HECX    O1 2177   0.292   3.166   8.338
  363HECX    H1 2178   0.354   3.248   8.358
  364HECX    H6 2179   5.171   2.783   6.920
  364HECX    O2 2180   5.085   2.809   6.975
  364HECX    C2 2181   5.039   2.936   6.924
  364HECX    C1 2182   4.989   2.927   6.779
  364HECX    O1 2183   5.004   3.050   6.705
  364HECX    H1 2184   5.011   3.024   6.606
  365HECX    H6 2185   6.715   7.112   9.046
  365HECX    O2 2186   6.798   7.158   9.074
  365HECX    C2 2187   6.864   7.205   8.953
  365HECX    C1 2188   6.926   7.096   8.863
  365HECX    O1 2189   6.970   7.151   8.737
  365HECX    H1 2190   7.003   7.074   8.676
  366HECX    H6 2191   1.256   7.074   2.988
  366HECX    O2 2192   1.276   7.026   2.896
  366HECX    C2 2193   1.151   7.003   2.829
  366HECX    C1 2194   1.164   6.903   2.714
  366HECX    O1 2195   1.038   6.878   2.649
  366HECX    H1 2196   1.046   6.783   2.597
  367HECX    H6 2197   8.764   1.874   6.168
  367HECX    O2 2198   8.727   1.805   6.241
  367HECX    C2 2199   8.695   1.885   6.357
  367HECX    C1 2200   8.557   1.954   6.348
  367HECX    O1 2201   8.526   2.028   6.468
  367HECX    H1 2202   8.505   1.960   6.545
  368HECX    H6 2203   0.024   9.820   8.013
  368HECX    O2 2204   0.047   9.814   8.118
  368HECX    C2 2205   0.131   9.929   8.146
  368HECX    C1 2206   0.060   0.045   8.218
  368HECX    O1 2207   0.151   0.154   8.249
  368HECX    H1 2208   0.239   0.111   8.295
  369HECX    H6 2209   0.128   8.661   4.130
  369HECX    O2 2210   0.157   8.755   4.172
  369HECX    C2 2211   0.217   8.734   4.302
  369HECX    C1 2212   0.260   8.866   4.367
  369HECX    O1 2213   0.325   8.846   4.495
  369HECX    H1 2214   0.358   8.936   4.529
  370HECX    H6 2215   3.726   6.793   1.683
  370HECX    O2 2216   3.804   6.741   1.737
  370HECX    C2 2217   3.738   6.654   1.832
  370HECX    C1 2218   3.668   6.734   1.943
  370HECX    O1 2219   3.563   6.662   2.010
  370HECX    H1 2220   3.602   6.615   2.099
  371HECX    H6 2221   3.305   1.990   3.905
  371HECX    O2 2222   3.398   2.036   3.895
  371HECX    C2 2223   3.434   2.027   3.755
  371HECX    C1 2224   3.586   2.038   3.730
  371HECX    O1 2225   3.619   2.045   3.590
  371HECX    H1 2226   3.712   2.002   3.578
  372HECX    H6 2227   9.367   8.953   0.626
  372HECX    O2 2228   9.278   8.977   0.682
  372HECX    C2 2229   9.227   9.101   0.630
  372HECX    C1 2230   9.087   9.140   0.681
  372HECX    O1 2231   9.040   9.264   0.625
  372HECX    H1 2232   8.938   9.267   0.640
  373HECX    H6 2233   3.821   3.760   6.248
  373HECX    O2 2234   3.729   3.764   6.292
  373HECX    C2 2235   3.627   3.759   6.190
  373HECX    C1 2236   3.497   3.692   6.239
  373HECX    O1 2237   3.393   3.689   6.139
  373HECX    H1 2238   3.422   3.625   6.059
  374HECX    H6 2239   1.069   2.536   6.113
  374HECX    O2 2240   1.016   2.492   6.034
  374HECX    C2 2241   0.925   2.396   6.091
  374HECX    C1 2242   0.804   2.461   6.160
  374HECX    O1 2243   0.735   2.368   6.245
  374HECX    H1 2244   0.641   2.349   6.203
  375HECX    H6 2245   8.355   2.219   4.423
  375HECX    O2 2246   8.359   2.220   4.528
  375HECX    C2 2247   8.356   2.083   4.571
  375HECX    C1 2248   8.304   2.056   4.714
  375HECX    O1 2249   8.393   2.097   4.820
  375HECX    H1 2250   8.389   2.028   4.898
  376HECX    H6 2251   6.380   7.439   3.142
  376HECX    O2 2252   6.294   7.407   3.180
  376HECX    C2 2253   6.305   7.263   3.193
  376HECX    C1 2254   6.183   7.195   3.257
  376HECX    O1 2255   6.188   7.050   3.251
  376HECX    H1 2256   6.096   7.012   3.287
  377HECX    H6 2257   1.547   2.346   7.117
  377HECX    O2 2258   1.627   2.327   7.054
  377HECX    C2 2259   1.680   2.453   7.008
  377HECX    C1 2260   1.791   2.433   6.904
  377HECX    O1 2261   1.869   2.551   6.877
  377HECX    H1 2262   1.970   2.518   6.869
  378HECX    H6 2263   0.824   1.505   9.646
  378HECX    O2 2264   0.916   1.553   9.632
  378HECX    C2 2265   0.890   1.694   9.607
  378HECX    C1 2266   0.924   1.739   9.464
  378HECX    O1 2267   0.891   1.877   9.438
  378HECX    H1 2268   0.949   1.910   9.357
  379HECX    H6 2269   2.034   0.478   6.256
  379HECX    O2 2270   2.017   0.579   6.242
  379HECX    C2 2271   1.879   0.606   6.274
  379HECX    C1 2272   1.845   0.596   6.423
  379HECX    O1 2273   1.703   0.597   6.445
  379HECX    H1 2274   1.686   0.608   6.546
  380HECX    H6 2275   9.814   6.880   3.212
  380HECX    O2 2276   9.901   6.897   3.156
  380HECX    C2 2277   0.014   6.891   3.245
  380HECX    C1 2278   0.148   6.904   3.171
  380HECX    O1 2279   0.264   6.911   3.257
  380HECX    H1 2280   0.348   6.903   3.194
  381HECX    H6 2281   2.815   4.287   8.347
  381HECX    O2 2282   2.835   4.380   8.399
  381HECX    C2 2283   2.969   4.365   8.449
  381HECX    C1 2284   3.006   4.449   8.572
  381HECX    O1 2285   3.127   4.401   8.634
  381HECX    H1 2286   3.159   4.472   8.705
  382HECX    H6 2287   6.677   5.704   9.646
  382HECX    O2 2288   6.749   5.626   9.639
  382HECX    C2 2289   6.679   5.500   9.649
  382HECX    C1 2290   6.566   5.485   9.546
  382HECX    O1 2291   6.486   5.368   9.572
  382HECX    H1 2292   6.403   5.371   9.510
  383HECX    H6 2293   4.697   0.131   5.594
  383HECX    O2 2294   4.628   0.121   5.515
  383HECX    C2 2295   4.589   9.982   5.508
  383HECX    C1 2296   4.532   9.939   5.372
  383HECX    O1 2297   4.402   9.993   5.340
  383HECX    H1 2298   4.385   9.971   5.236
  384HECX    H6 2299   0.543   7.818   9.591
  384HECX    O2 2300   0.529   7.731   9.655
  384HECX    C2 2301   0.649   7.713   9.733
  384HECX    C1 2302   0.624   7.728   9.884
  384HECX    O1 2303   0.710   7.644   9.964
  384HECX    H1 2304   0.761   7.705   0.034
  385HECX    H6 2305   6.639   0.370   1.799
  385HECX    O2 2306   6.637   0.293   1.726
  385HECX    C2 2307   6.763   0.293   1.656
  385HECX    C1 2308   6.877   0.227   1.736
  385HECX    O1 2309   7.008   0.253   1.679
  385HECX    H1 2310   7.075   0.210   1.739
  386HECX    H6 2311   0.824   9.000   7.678
  386HECX    O2 2312   0.883   8.950   7.750
  386HECX    C2 2313   0.830   8.816   7.763
  386HECX    C1 2314   0.866   8.728   7.642
  386HECX    O1 2315   0.787   8.607   7.638
  386HECX    H1 2316   0.840   8.527   7.680
  387HECX    H6 2317   0.112   6.986   4.112
  387HECX    O2 2318   0.039   6.961   4.037
  387HECX    C2 2319   0.087   7.003   3.908
  387HECX    C1 2320   0.149   6.887   3.828
  387HECX    O1 2321   0.195   6.925   3.696
  387HECX    H1 2322   0.106   6.957   3.640
  388HECX    H6 2323   0.962   6.055   9.454
  388HECX    O2 2324   0.890   6.045   9.531
  388HECX    C2 2325   0.764   6.084   9.472
  388HECX    C1 2326   0.641   6.022   9.539
  388HECX    O1 2327   0.517   6.078   9.491
  388HECX    H1 2328   0.521   6.184   9.506
  389HECX    H6 2329   2.372   5.803   9.765
  389HECX    O2 2330   2.341   5.796   9.870
  389HECX    C2 2331   2.200   5.763   9.874
  389HECX    C1 2332   2.109   5.882   9.837
  389HECX    O1 2333   1.968   5.851   9.846
  389HECX    H1 2334   1.945   5.790   9.763
  390HECX    H6 2335   8.902   9.828   5.975
  390HECX    O2 2336   8.830   9.784   5.909
  390HECX    C2 2337   8.711   9.753   5.984
  390HECX    C1 2338   8.738   9.681   6.117
  390HECX    O1 2339   8.619   9.663   6.197
  390HECX    H1 2340   8.650   9.655   6.297
  391HECX    H6 2341   3.522   9.324   6.822
  391HECX    O2 2342   3.473   9.407   6.863
  391HECX    C2 2343   3.453   9.386   7.004
  391HECX    C1 2344   3.380   9.505   7.068
  391HECX    O1 2345   3.357   9.494   7.211
  391HECX    H1 2346   3.280   9.421   7.225
  392HECX    H6 2347   8.573   4.172   3.894
  392HECX    O2 2348   8.523   4.097   3.841
  392HECX    C2 2349   8.596   3.973   3.858
  392HECX    C1 2350   8.736   3.972   3.794
  392HECX    O1 2351   8.738   3.941   3.653
  392HECX    H1 2352   8.833   3.907   3.630
  393HECX    H6 2353   9.574   0.920   8.163
  393HECX    O2 2354   9.555   0.851   8.088
  393HECX    C2 2355   9.631   0.731   8.114
  393HECX    C1 2356   9.782   0.746   8.087
  393HECX    O1 2357   9.857   0.631   8.131
  393HECX    H1 2358   9.844   0.551   8.063
  394HECX    H6 2359   5.219   0.676   6.120
  394HECX    O2 2360   5.212   0.607   6.042
  394HECX    C2 2361   5.106   0.657   5.956
  394HECX    C1 2362   5.096   0.593   5.817
  394HECX    O1 2363   4.992   0.650   5.735
  394HECX    H1 2364   5.025   0.741   5.694
  395HECX    H6 2365   6.954   2.746   4.356
  395HECX    O2 2366   6.873   2.813   4.340
  395HECX    C2 2367   6.907   2.940   4.400
  395HECX    C1 2368   6.940   3.050   4.298
  395HECX    O1 2369   6.971   3.177   4.359
  395HECX    H1 2370   6.980   3.248   4.284
  396HECX    H6 2371   5.895   8.501   2.757
  396HECX    O2 2372   5.887   8.609   2.752
  396HECX    C2 2373   5.760   8.644   2.694
  396HECX    C1 2374   5.671   8.722   2.792
  396HECX    O1 2375   5.560   8.788   2.728
  396HECX    H1 2376   5.499   8.828   2.804
  397HECX    H6 2377   0.045   4.685   7.590
  397HECX    O2 2378   0.046   4.614   7.514
  397HECX    C2 2379   0.067   4.485   7.575
  397HECX    C1 2380   0.100   4.374   7.475
  397HECX    O1 2381   0.157   4.258   7.539
  397HECX    H1 2382   0.261   4.273   7.548
  398HECX    H6 2383   5.947   4.275   5.908
  398HECX    O2 2384   5.953   4.225   5.815
  398HECX    C2 2385   5.898   4.312   5.714
  398HECX    C1 2386   5.745   4.310   5.715
  398HECX    O1 2387   5.688   4.394   5.613
  398HECX    H1 2388   5.590   4.360   5.594
  399HECX    H6 2389   8.709   8.156   7.835
  399HECX    O2 2390   8.665   8.075   7.889
  399HECX    C2 2391   8.771   8.007   7.959
  399HECX    C1 2392   8.727   7.944   8.092
  399HECX    O1 2393   8.835   7.880   8.162
  399HECX    H1 2394   8.802   7.859   8.260
  400HECX    H6 2395   0.704   8.727   6.973
  400HECX    O2 2396   0.779   8.720   7.050
  400HECX    C2 2397   0.739   8.810   7.156
  400HECX    C1 2398   0.856   8.871   7.235
  400HECX    O1 2399   0.813   8.965   7.336
  400HECX    H1 2400   0.771   9.051   7.287
  401HECX    H6 2401   4.123   0.580   1.560
  401HECX    O2 2402   4.063   0.498   1.528
  401HECX    C2 2403   4.134   0.434   1.419
  401HECX    C1 2404   4.240   0.337   1.470
  401HECX    O1 2405   4.318   0.278   1.364
  401HECX    H1 2406   4.393   0.217   1.410
  402HECX    H6 2407   4.299   9.340   9.276
  402HECX    O2 2408   4.388   9.373   9.326
  402HECX    C2 2409   4.488   9.269   9.312
  402HECX    C1 2410   4.502   9.218   9.168
  402HECX    O1 2411   4.619   9.135   9.147
  402HECX    H1 2412   4.696   9.198   9.109
  403HECX    H6 2413   7.321   0.447   9.207
  403HECX    O2 2414   7.322   0.340   9.212
  403HECX    C2 2415   7.219   0.298   9.305
  403HECX    C1 2416   7.132   0.182   9.256
  403HECX    O1 2417   7.030   0.216   9.159
  403HECX    H1 2418   6.951   0.147   9.171
  404HECX    H6 2419   7.815   1.900   4.591
  404HECX    O2 2420   7.739   1.831   4.573
  404HECX    C2 2421   7.754   1.780   4.439
  404HECX    C1 2422   7.725   1.629   4.428
  404HECX    O1 2423   7.706   1.587   4.291
  404HECX    H1 2424   7.797   1.548   4.253
  405HECX    H6 2425   1.910   9.117   9.941
  405HECX    O2 2426   1.960   9.113   9.846
  405HECX    C2 2427   1.994   8.976   9.821
  405HECX    C1 2428   2.088   8.913   9.925
  405HECX    O1 2429   2.112   8.773   9.896
  405HECX    H1 2430   2.193   8.741   9.952
  406HECX    H6 2431   2.477   7.329   2.301
  406HECX    O2 2432   2.570   7.319   2.352
  406HECX    C2 2433   2.616   7.448   2.397
  406HECX    C1 2434   2.556   7.491   2.531
  406HECX    O1 2435   2.636   7.593   2.595
  406HECX    H1 2436   2.579   7.637   2.674
  407HECX    H6 2437   8.619   3.070   5.040
  407HECX    O2 2438   8.570   3.133   5.109
  407HECX    C2 2439   8.431   3.094   5.112
  407HECX    C1 2440   8.340   3.209   5.158
  407HECX    O1 2441   8.200   3.173   5.164
  407HECX    H1 2442   8.158   3.230   5.247
  408HECX    H6 2443   0.488   8.294   4.826
  408HECX    O2 2444   0.427   8.349   4.758
  408HECX    C2 2445   0.500   8.464   4.712
  408HECX    C1 2446   0.411   8.553   4.624
  408HECX    O1 2447   0.478   8.672   4.578
  408HECX    H1 2448   0.402   8.738   4.541
  409HECX    H6 2449   7.795   3.517   8.239
  409HECX    O2 2450   7.738   3.588   8.187
  409HECX    C2 2451   7.675   3.676   8.282
  409HECX    C1 2452   7.597   3.787   8.210
  409HECX    O1 2453   7.529   3.880   8.297
  409HECX    H1 2454   7.470   3.945   8.232
  410HECX    H6 2455   9.924   2.378   4.284
  410HECX    O2 2456   9.927   2.453   4.208
  410HECX    C2 2457   9.791   2.494   4.177
  410HECX    C1 2458   9.788   2.600   4.066
  410HECX    O1 2459   9.655   2.633   4.022
  410HECX    H1 2460   9.616   2.553   3.965
  411HECX    H6 2461   2.217   1.734   5.697
  411HECX    O2 2462   2.163   1.709   5.611
  411HECX    C2 2463   2.121   1.571   5.620
  411HECX    C1 2464   1.977   1.558   5.672
  411HECX    O1 2465   1.934   1.420   5.682
  411HECX    H1 2466   1.828   1.419   5.675
  412HECX    H6 2467   3.715   1.981   4.452
  412HECX    O2 2468   3.724   2.075   4.504
  412HECX    C2 2469   3.851   2.078   4.574
  412HECX    C1 2470   3.845   2.178   4.691
  412HECX    O1 2471   3.969   2.197   4.761
  412HECX    H1 2472   3.987   2.114   4.825
  413HECX    H6 2473   6.014   1.336   3.185
  413HECX    O2 2474   5.937   1.365   3.249
  413HECX    C2 2475   5.821   1.289   3.209
  413HECX    C1 2476   5.693   1.372   3.185
  413HECX    O1 2477   5.602   1.303   3.096
  413HECX    H1 2478   5.503   1.312   3.132
  414HECX    H6 2479   7.376   0.346   7.860
  414HECX    O2 2480   7.387   0.379   7.760
  414HECX    C2 2481   7.339   0.279   7.669
  414HECX    C1 2482   7.186   0.269   7.665
  414HECX    O1 2483   7.137   0.178   7.564
  414HECX    H1 2484   7.175   0.078   7.584
  415HECX    H6 2485   0.439   2.513   2.265
  415HECX    O2 2486   0.509   2.541   2.189
  415HECX    C2 2487   0.445   2.630   2.095
  415HECX    C1 2488   0.369   2.750   2.153
  415HECX    O1 2489   0.292   2.819   2.051
  415HECX    H1 2490   0.354   2.832   1.966
  416HECX    H6 2491   9.473   1.817   8.562
  416HECX    O2 2492   9.393   1.820   8.491
  416HECX    C2 2493   9.454   1.791   8.363
  416HECX    C1 2494   9.382   1.847   8.240
  416HECX    O1 2495   9.473   1.871   8.130
  416HECX    H1 2496   9.512   1.967   8.143
  417HECX    H6 2497   8.653   4.272   9.932
  417HECX    O2 2498   8.740   4.244   9.877
  417HECX    C2 2499   8.857   4.267   9.959
  417HECX    C1 2500   8.871   4.414   0.001
  417HECX    O1 2501   8.991   4.440   0.078
  417HECX    H1 2502   9.045   4.515   0.026
  418HECX    H6 2503   0.992   5.430   5.295
  418HECX    O2 2504   0.942   5.338   5.280
  418HECX    C2 2505   0.810   5.341   5.340
  418HECX    C1 2506   0.705   5.248   5.277
  418HECX    O1 2507   0.735   5.107   5.275
  418HECX    H1 2508   0.649   5.055   5.246
  419HECX    H6 2509   0.404   7.882   6.491
  419HECX    O2 2510   0.354   7.788   6.505
  419HECX    C2 2511   0.237   7.811   6.588
  419HECX    C1 2512   0.149   7.686   6.603
  419HECX    O1 2513   0.025   7.715   6.670
  419HECX    H1 2514   9.948   7.677   6.611
  420HECX    H6 2515   0.896   8.150   5.001
  420HECX    O2 2516   0.953   8.212   4.937
  420HECX    C2 2517   1.085   8.219   4.996
  420HECX    C1 2518   1.184   8.123   4.930
  420HECX    O1 2519   1.303   8.100   5.008
  420HECX    H1 2520   1.348   8.193   5.031
  421HECX    H6 2521   9.852   0.384   2.952
  421HECX    O2 2522   9.745   0.379   2.931
  421HECX    C2 2523   9.719   0.249   2.872
  421HECX    C1 2524   9.574   0.204   2.893
  421HECX    O1 2525   9.533   0.093   2.809
  421HECX    H1 2526   9.585   0.005   2.838
  422HECX    H6 2527   5.499   1.120   1.022
  422HECX    O2 2528   5.573   1.044   1.023
  422HECX    C2 2529   5.531   0.946   1.121
  422HECX    C1 2530   5.402   0.874   1.079
  422HECX    O1 2531   5.349   0.780   1.176
  422HECX    H1 2532   5.416   0.696   1.178
  423HECX    H6 2533   2.302   2.330   7.861
  423HECX    O2 2534   2.348   2.353   7.765
  423HECX    C2 2535   2.250   2.349   7.659
  423HECX    C1 2536   2.307   2.408   7.529
  423HECX    O1 2537   2.217   2.396   7.417
  423HECX    H1 2538   2.255   2.455   7.338
  424HECX    H6 2539   0.909   7.209   5.620
  424HECX    O2 2540   0.858   7.279   5.684
  424HECX    C2 2541   0.740   7.216   5.738
  424HECX    C1 2542   0.763   7.151   5.876
  424HECX    O1 2543   0.643   7.091   5.930
  424HECX    H1 2544   0.617   7.007   5.867
  425HECX    H6 2545   5.035   4.444   3.804
  425HECX    O2 2546   5.014   4.528   3.868
  425HECX    C2 2547   5.004   4.481   4.005
  425HECX    C1 2548   4.898   4.372   4.034
  425HECX    O1 2549   4.762   4.416   4.014
  425HECX    H1 2550   4.696   4.359   4.074
  426HECX    H6 2551   7.452   1.386   8.091
  426HECX    O2 2552   7.435   1.488   8.122
  426HECX    C2 2553   7.318   1.543   8.056
  426HECX    C1 2554   7.279   1.682   8.112
  426HECX    O1 2555   7.177   1.749   8.035
  426HECX    H1 2556   7.107   1.679   8.004
  427HECX    H6 2557   5.817   6.959   4.730
  427HECX    O2 2558   5.890   7.035   4.742
  427HECX    C2 2559   6.019   6.974   4.719
  427HECX    C1 2560   6.065   6.978   4.573
  427HECX    O1 2561   6.176   6.890   4.549
  427HECX    H1 2562   6.144   6.819   4.477
  428HECX    H6 2563   2.396   8.965   9.730
  428HECX    O2 2564   2.420   8.974   9.835
  428HECX    C2 2565   2.451   9.111   9.865
  428HECX    C1 2566   2.339   9.210   9.831
  428HECX    O1 2567   2.370   9.345   9.872
  428HECX    H1 2568   2.279   9.398   9.880
  429HECX    H6 2569   1.084   9.703   9.247
  429HECX    O2 2570   1.046   9.680   9.344
  429HECX    C2 2571   1.058   9.801   9.422
  429HECX    C1 2572   1.199   9.832   9.472
  429HECX    O1 2573   1.202   9.959   9.540
  429HECX    H1 2574   1.171   9.944   9.642
  430HECX    H6 2575   4.594   9.722   1.733
  430HECX    O2 2576   4.502   9.716   1.788
  430HECX    C2 2577   4.415   9.825   1.750
  430HECX    C1 2578   4.269   9.796   1.791
  430HECX    O1 2579   4.181   9.908   1.766
  430HECX    H1 2580   4.082   9.874   1.757
  431HECX    H6 2581   4.979   5.843   1.808
  431HECX    O2 2582   5.052   5.808   1.873
  431HECX    C2 2583   4.982   5.740   1.979
  431HECX    C1 2584   5.074   5.685   2.089
  431HECX    O1 2585   4.998   5.642   2.204
  431HECX    H1 2586   4.938   5.557   2.173
  432HECX    H6 2587   0.637   6.940   2.064
  432HECX    O2 2588   0.702   6.990   2.129
  432HECX    C2 2589   0.833   6.999   2.067
  432HECX    C1 2590   0.926   6.882   2.105
  432HECX    O1 2591   1.054   6.886   2.038
  432HECX    H1 2592   1.083   6.787   2.021
  433HECX    H6 2593   3.097   7.216   0.888
  433HECX    O2 2594   3.033   7.162   0.822
  433HECX    C2 2595   3.061   7.197   0.684
  433HECX    C1 2596   3.200   7.157   0.632
  433HECX    O1 2597   3.197   7.135   0.489
  433HECX    H1 2598   3.285   7.170   0.441
  434HECX    H6 2599   5.464   2.711   4.376
  434HECX    O2 2600   5.468   2.609   4.408
  434HECX    C2 2601   5.354   2.540   4.355
  434HECX    C1 2602   5.331   2.409   4.430
  434HECX    O1 2603   5.240   2.317   4.365
  434HECX    H1 2604   5.139   2.351   4.376
  435HECX    H6 2605   7.307   7.302   2.215
  435HECX    O2 2606   7.208   7.267   2.217
  435HECX    C2 2607   7.195   7.161   2.120
  435HECX    C1 2608   7.195   7.208   1.974
  435HECX    O1 2609   7.188   7.095   1.885
  435HECX    H1 2610   7.202   7.125   1.787
  436HECX    H6 2611   1.734   3.460   4.835
  436HECX    O2 2612   1.722   3.560   4.869
  436HECX    C2 2613   1.849   3.627   4.850
  436HECX    C1 2614   1.879   3.660   4.703
  436HECX    O1 2615   2.016   3.700   4.680
  436HECX    H1 2616   2.053   3.637   4.611
  437HECX    H6 2617   0.604   9.343   8.900
  437HECX    O2 2618   0.531   9.268   8.916
  437HECX    C2 2619   0.562   9.155   8.833
  437HECX    C1 2620   0.486   9.029   8.877
  437HECX    O1 2621   0.512   8.913   8.793
  437HECX    H1 2622   0.457   8.926   8.703
  438HECX    H6 2623   0.100   7.294   7.661
  438HECX    O2 2624   0.027   7.285   7.582
  438HECX    C2 2625   9.903   7.344   7.627
  438HECX    C1 2626   9.901   7.497   7.613
  438HECX    O1 2627   9.791   7.557   7.684
  438HECX    H1 2628   9.780   7.658   7.652
  439HECX    H6 2629   0.883   4.095   1.553
  439HECX    O2 2630   0.933   4.008   1.586
  439HECX    C2 2631   0.910   3.995   1.728
  439HECX    C1 2632   0.996   3.885   1.792
  439HECX    O1 2633   0.964   3.863   1.931
  439HECX    H1 2634   1.025   3.782   1.963
  440HECX    H6 2635   6.778   2.082   1.812
  440HECX    O2 2636   6.787   1.999   1.875
  440HECX    C2 2637   6.682   1.909   1.837
  440HECX    C1 2638   6.622   1.828   1.952
  440HECX    O1 2639   6.499   1.768   1.909
  440HECX    H1 2640   6.521   1.700   1.830
  441HECX    H6 2641   7.092   3.244   0.469
  441HECX    O2 2642   7.136   3.152   0.459
  441HECX    C2 2643   7.031   3.055   0.440
  441HECX    C1 2644   7.070   2.944   0.342
  441HECX    O1 2645   6.974   2.837   0.335
  441HECX    H1 2646   6.984   2.793   0.240
  442HECX    H6 2647   5.971   3.510   2.828
  442HECX    O2 2648   5.892   3.576   2.853
  442HECX    C2 2649   5.854   3.650   2.735
  442HECX    C1 2650   5.968   3.734   2.675
  442HECX    O1 2651   5.928   3.809   2.558
  442HECX    H1 2652   5.892   3.897   2.591
  443HECX    H6 2653   0.924   7.937   4.152
  443HECX    O2 2654   0.912   8.041   4.161
  443HECX    C2 2655   0.936   8.077   4.299
  443HECX    C1 2656   0.829   8.026   4.397
  443HECX    O1 2657   0.868   8.039   4.536
  443HECX    H1 2658   0.932   7.965   4.555
  444HECX    H6 2659   6.386   4.519   8.498
  444HECX    O2 2660   6.324   4.503   8.415
  444HECX    C2 2661   6.318   4.627   8.341
  444HECX    C1 2662   6.334   4.610   8.189
  444HECX    O1 2663   6.334   4.738   8.121
  444HECX    H1 2664   6.236   4.780   8.130
  445HECX    H6 2665   4.817   1.670   8.952
  445HECX    O2 2666   4.920   1.667   8.941
  445HECX    C2 2667   4.976   1.788   8.996
  445HECX    C1 2668   4.972   1.792   9.150
  445HECX    O1 2669   5.040   1.905   9.207
  445HECX    H1 2670   5.049   1.888   9.310
  446HECX    H6 2671   1.405   5.919   0.948
  446HECX    O2 2672   1.412   5.973   0.856
  446HECX    C2 2673   1.469   5.885   0.756
  446HECX    C1 2674   1.374   5.772   0.716
  446HECX    O1 2675   1.401   5.714   0.586
  446HECX    H1 2676   1.496   5.671   0.582
  447HECX    H6 2677   9.109   1.322   7.759
  447HECX    O2 2678   9.098   1.415   7.712
  447HECX    C2 2679   9.220   1.441   7.641
  447HECX    C1 2680   9.199   1.468   7.491
  447HECX    O1 2681   9.323   1.499   7.423
  447HECX    H1 2682   9.389   1.417   7.432
  448HECX    H6 2683   9.339   8.894   7.784
  448HECX    O2 2684   9.361   8.989   7.826
  448HECX    C2 2685   9.443   8.973   7.944
  448HECX    C1 2686   9.502   9.106   7.990
  448HECX    O1 2687   9.588   9.095   8.105
  448HECX    H1 2688   9.536   9.049   8.185
  449HECX    H6 2689   7.555   6.124   3.169
  449HECX    O2 2690   7.454   6.096   3.171
  449HECX    C2 2691   7.421   6.061   3.307
  449HECX    C1 2692   7.274   6.022   3.325
  449HECX    O1 2693   7.238   5.983   3.460
  449HECX    H1 2694   7.271   5.889   3.474
  450HECX    H6 2695   2.542   9.068   9.011
  450HECX    O2 2696   2.582   8.980   9.054
  450HECX    C2 2697   2.473   8.908   9.118
  450HECX    C1 2698   2.408   8.975   9.240
  450HECX    O1 2699   2.488   8.981   9.362
  450HECX    H1 2700   2.558   8.902   9.363
  451HECX    H6 2701   7.448   8.162   2.528
  451HECX    O2 2702   7.379   8.240   2.554
  451HECX    C2 2703   7.433   8.313   2.666
  451HECX    C1 2704   7.347   8.434   2.702
  451HECX    O1 2705   7.385   8.497   2.826
  451HECX    H1 2706   7.298   8.512   2.883
  452HECX    H6 2707   0.977   4.433   2.837
  452HECX    O2 2708   0.939   4.519   2.886
  452HECX    C2 2709   1.037   4.571   2.980
  452HECX    C1 2710   1.041   4.493   3.113
  452HECX    O1 2711   1.090   4.576   3.221
  452HECX    H1 2712   1.194   4.572   3.222
  453HECX    H6 2713   3.424   1.198   3.273
  453HECX    O2 2714   3.426   1.241   3.175
  453HECX    C2 2715   3.514   1.165   3.090
  453HECX    C1 2716   3.500   1.202   2.941
  453HECX    O1 2717   3.601   1.147   2.854
  453HECX    H1 2718   3.575   1.170   2.756
  454HECX    H6 2719   2.107   5.340   2.086
  454HECX    O2 2720   2.184   5.387   2.138
  454HECX    C2 2721   2.265   5.460   2.044
  454HECX    C1 2722   2.356   5.565   2.109
  454HECX    O1 2723   2.414   5.654   2.012
  454HECX    H1 2724   2.486   5.705   2.059
  455HECX    H6 2725   7.429   0.955   5.912
  455HECX    O2 2726   7.328   0.969   5.935
  455HECX    C2 2727   7.303   0.930   6.072
  455HECX    C1 2728   7.187   0.829   6.082
  455HECX    O1 2729   7.137   0.809   6.216
  455HECX    H1 2730   7.154   0.712   6.243
  456HECX    H6 2731   1.343   5.285   4.840
  456HECX    O2 2732   1.349   5.383   4.801
  456HECX    C2 2733   1.387   5.470   4.911
  456HECX    C1 2734   1.515   5.549   4.883
  456HECX    O1 2735   1.567   5.613   5.002
  456HECX    H1 2736   1.646   5.675   4.975
  457HECX    H6 2737   9.229   0.659   5.652
  457HECX    O2 2738   9.266   0.732   5.723
  457HECX    C2 2739   9.308   0.845   5.642
  457HECX    C1 2740   9.347   0.974   5.716
  457HECX    O1 2741   9.401   1.072   5.624
  457HECX    H1 2742   9.413   1.163   5.676
  458HECX    H6 2743   6.037   4.078   3.833
  458HECX    O2 2744   6.052   3.988   3.780
  458HECX    C2 2745   5.991   4.007   3.650
  458HECX    C1 2746   6.003   3.885   3.558
  458HECX    O1 2747   5.933   3.906   3.435
  458HECX    H1 2748   5.839   3.859   3.445
  459HECX    H6 2749   6.603   3.108   7.418
  459HECX    O2 2750   6.641   3.191   7.472
  459HECX    C2 2751   6.540   3.225   7.570
  459HECX    C1 2752   6.512   3.110   7.668
  459HECX    O1 2753   6.377   3.111   7.719
  459HECX    H1 2754   6.344   3.013   7.718
  460HECX    H6 2755   5.012   4.144   2.836
  460HECX    O2 2756   4.991   4.230   2.777
  460HECX    C2 2757   4.850   4.262   2.790
  460HECX    C1 2758   4.763   4.173   2.700
  460HECX    O1 2759   4.625   4.214   2.695
  460HECX    H1 2760   4.588   4.188   2.597
  461HECX    H6 2761   1.449   9.543   8.255
  461HECX    O2 2762   1.537   9.520   8.205
  461HECX    C2 2763   1.643   9.498   8.301
  461HECX    C1 2764   1.673   9.626   8.380
  461HECX    O1 2765   1.784   9.625   8.472
  461HECX    H1 2766   1.802   9.729   8.495
  462HECX    H6 2767   2.625   7.535   6.170
  462HECX    O2 2768   2.581   7.440   6.160
  462HECX    C2 2769   2.438   7.461   6.173
  462HECX    C1 2770   2.355   7.333   6.161
  462HECX    O1 2771   2.218   7.347   6.206
  462HECX    H1 2772   2.217   7.357   6.309
  463HECX    H6 2773   9.342   0.867   7.555
  463HECX    O2 2774   9.419   0.830   7.619
  463HECX    C2 2775   9.439   0.691   7.586
  463HECX    C1 2776   9.502   0.605   7.698
  463HECX    O1 2777   9.538   0.472   7.654
  463HECX    H1 2778   9.461   0.434   7.597
  464HECX    H6 2779   7.399   3.971   8.048
  464HECX    O2 2780   7.401   4.021   8.145
  464HECX    C2 2781   7.290   4.113   8.146
  464HECX    C1 2782   7.287   4.204   8.270
  464HECX    O1 2783   7.248   4.138   8.392
  464HECX    H1 2784   7.250   4.207   8.468
  465HECX    H6 2785   1.320   8.470   9.882
  465HECX    O2 2786   1.286   8.387   9.941
  465HECX    C2 2787   1.402   8.311   9.983
  465HECX    C1 2788   1.383   8.246   0.121
  465HECX    O1 2789   1.509   8.216   0.185
  465HECX    H1 2790   1.492   8.153   0.265
  466HECX    H6 2791   3.583   2.848   1.814
  466HECX    O2 2792   3.617   2.880   1.725
  466HECX    C2 2793   3.555   3.007   1.700
  466HECX    C1 2794   3.580   3.054   1.556
  466HECX    O1 2795   3.522   3.183   1.524
  466HECX    H1 2796   3.575   3.256   1.577
  467HECX    H6 2797   4.839   9.735   5.516
  467HECX    O2 2798   4.822   9.722   5.621
  467HECX    C2 2799   4.902   9.822   5.689
  467HECX    C1 2800   4.862   9.846   5.835
  467HECX    O1 2801   4.907   9.973   5.887
  467HECX    H1 2802   4.894   9.971   5.992
  468HECX    H6 2803   8.125   2.209   3.546
  468HECX    O2 2804   8.077   2.297   3.511
  468HECX    C2 2805   8.019   2.359   3.627
  468HECX    C1 2806   8.013   2.513   3.627
  468HECX    O1 2807   7.921   2.570   3.531
  468HECX    H1 2808   7.980   2.605   3.451
  469HECX    H6 2809   0.620   0.717   6.841
  469HECX    O2 2810   0.637   0.820   6.851
  469HECX    C2 2811   0.564   0.868   6.967
  469HECX    C1 2812   0.572   1.021   6.986
  469HECX    O1 2813   0.491   1.072   7.094
  469HECX    H1 2814   0.392   1.081   7.060
  470HECX    H6 2815   5.736   9.748   2.863
  470HECX    O2 2816   5.703   9.832   2.806
  470HECX    C2 2817   5.815   9.878   2.727
  470HECX    C1 2818   5.862   9.779   2.619
  470HECX    O1 2819   5.981   9.828   2.552
  470HECX    H1 2820   6.018   9.761   2.477
  471HECX    H6 2821   0.476   7.261   8.076
  471HECX    O2 2822   0.562   7.197   8.083
  471HECX    C2 2823   0.543   7.086   7.993
  471HECX    C1 2824   0.669   7.001   7.970
  471HECX    O1 2825   0.643   6.883   7.890
  471HECX    H1 2826   0.606   6.914   7.796
  472HECX    H6 2827   5.012   8.712   9.874
  472HECX    O2 2828   5.044   8.657   9.959
  472HECX    C2 2829   5.186   8.635   9.950
  472HECX    C1 2830   5.270   8.751   0.006
  472HECX    O1 2831   5.413   8.729   9.995
  472HECX    H1 2832   5.461   8.819   0.028
  473HECX    H6 2833   3.960   1.511   0.514
  473HECX    O2 2834   3.917   1.414   0.514
  473HECX    C2 2835   4.017   1.320   0.559
  473HECX    C1 2836   3.959   1.181   0.588
  473HECX    O1 2837   4.060   1.079   0.595
  473HECX    H1 2838   4.061   1.028   0.505
  474HECX    H6 2839   4.017   0.254   5.109
  474HECX    O2 2840   4.017   0.221   5.007
  474HECX    C2 2841   4.152   0.210   4.957
  474HECX    C1 2842   4.221   0.344   4.930
  474HECX    O1 2843   4.336   0.332   4.843
  474HECX    H1 2844   4.374   0.428   4.823
  475HECX    H6 2845   2.355   9.405   7.857
  475HECX    O2 2846   2.331   9.427   7.756
  475HECX    C2 2847   2.311   9.301   7.689
  475HECX    C1 2848   2.365   9.301   7.545
  475HECX    O1 2849   2.332   9.180   7.473
  475HECX    H1 2850   2.231   9.186   7.443
  476HECX    H6 2851   1.849   2.310   4.967
  476HECX    O2 2852   1.877   2.382   4.892
  476HECX    C2 2853   1.894   2.308   4.769
  476HECX    C1 2854   1.989   2.371   4.666
  476HECX    O1 2855   2.019   2.276   4.561
  476HECX    H1 2856   2.067   2.193   4.605
  477HECX    H6 2857   9.265   9.382   3.958
  477HECX    O2 2858   9.176   9.346   4.009
  477HECX    C2 2859   9.117   9.236   3.936
  477HECX    C1 2860   9.123   9.249   3.784
  477HECX    O1 2861   9.069   9.133   3.717
  477HECX    H1 2862   9.099   9.137   3.615
  478HECX    H6 2863   3.265   4.419   4.850
  478HECX    O2 2864   3.188   4.487   4.820
  478HECX    C2 2865   3.086   4.414   4.748
  478HECX    C1 2866   2.970   4.367   4.837
  478HECX    O1 2867   2.842   4.368   4.769
  478HECX    H1 2868   2.842   4.288   4.696
  479HECX    H6 2869   0.102   4.021   8.651
  479HECX    O2 2870   0.193   4.074   8.644
  479HECX    C2 2871   0.294   3.984   8.592
  479HECX    C1 2872   0.409   3.958   8.690
  479HECX    O1 2873   0.518   3.883   8.633
  479HECX    H1 2874   0.594   3.873   8.706
  480HECX    H6 2875   8.550   5.190   7.209
  480HECX    O2 2876   8.542   5.289   7.248
  480HECX    C2 2877   8.403   5.309   7.281
  480HECX    C1 2878   8.314   5.338   7.159
  480HECX    O1 2879   8.175   5.316   7.189
  480HECX    H1 2880   8.116   5.380   7.130
  481HECX    H6 2881   1.363   4.462   4.739
  481HECX    O2 2882   1.295   4.535   4.768
  481HECX    C2 2883   1.162   4.482   4.757
  481HECX    C1 2884   1.111   4.474   4.612
  481HECX    O1 2885   0.968   4.462   4.605
  481HECX    H1 2886   0.927   4.555   4.632
  482HECX    H6 2887   7.261   4.348   9.850
  482HECX    O2 2888   7.343   4.390   9.902
  482HECX    C2 2889   7.328   4.533   9.886
  482HECX    C1 2890   7.245   4.601   9.997
  482HECX    O1 2891   7.318   4.627   0.118
  482HECX    H1 2892   7.252   4.680   0.180
  483HECX    H6 2893   4.367   9.619   8.684
  483HECX    O2 2894   4.426   9.706   8.683
  483HECX    C2 2895   4.338   9.821   8.692
  483HECX    C1 2896   4.297   9.854   8.836
  483HECX    O1 2897   4.211   9.970   8.846
  483HECX    H1 2898   4.264   0.042   8.903
  484HECX    H6 2899   3.158   9.547   9.574
  484HECX    O2 2900   3.165   9.524   9.472
  484HECX    C2 2901   3.078   9.413   9.439
  484HECX    C1 2902   3.104   9.290   9.526
  484HECX    O1 2903   3.041   9.171   9.475
  484HECX    H1 2904   3.047   9.096   9.549
  485HECX    H6 2905   4.057   3.317   1.812
  485HECX    O2 2906   4.104   3.409   1.798
  485HECX    C2 2907   4.160   3.450   1.925
  485HECX    C1 2908   4.286   3.373   1.968
  485HECX    O1 2909   4.332   3.411   2.099
  485HECX    H1 2910   4.384   3.328   2.139
  486HECX    H6 2911   9.103   8.820   8.619
  486HECX    O2 2912   9.153   8.885   8.553
  486HECX    C2 2913   9.272   8.819   8.504
  486HECX    C1 2914   9.247   8.733   8.380
  486HECX    O1 2915   9.352   8.744   8.281
  486HECX    H1 2916   9.419   8.662   8.290
  487HECX    H6 2917   0.029   8.117   8.022
  487HECX    O2 2918   0.009   8.161   8.116
  487HECX    C2 2919   0.012   8.304   8.101
  487HECX    C1 2920   0.000   8.379   8.235
  487HECX    O1 2921   0.001   8.523   8.221
  487HECX    H1 2922   9.902   8.553   8.199
  488HECX    H6 2923   3.417   4.426   5.038
  488HECX    O2 2924   3.454   4.489   5.109
  488HECX    C2 2925   3.380   4.612   5.104
  488HECX    C1 2926   3.471   4.734   5.125
  488HECX    O1 2927   3.403   4.846   5.188
  488HECX    H1 2928   3.479   4.914   5.222
  489HECX    H6 2929   5.562   5.948   7.542
  489HECX    O2 2930   5.515   5.897   7.620
  489HECX    C2 2931   5.446   5.989   7.707
  489HECX    C1 2932   5.541   6.090   7.773
  489HECX    O1 2933   5.480   6.156   7.887
  489HECX    H1 2934   5.494   6.092   7.970
  490HECX    H6 2935   3.502   0.229   7.869
  490HECX    O2 2936   3.402   0.196   7.867
  490HECX    C2 2937   3.402   0.077   7.949
  490HECX    C1 2938   3.285   9.980   7.925
  490HECX    O1 2939   3.317   9.851   7.981
  490HECX    H1 2940   3.228   9.790   7.989
  491HECX    H6 2941   8.665   8.917   1.762
  491HECX    O2 2942   8.727   8.872   1.689
  491HECX    C2 2943   8.655   8.759   1.633
  491HECX    C1 2944   8.718   8.699   1.507
  491HECX    O1 2945   8.625   8.614   1.438
  491HECX    H1 2946   8.672   8.564   1.358
  492HECX    H6 2947   7.332   1.802   5.236
  492HECX    O2 2948   7.400   1.720   5.239
  492HECX    C2 2949   7.343   1.622   5.328
  492HECX    C1 2950   7.438   1.505   5.358
  492HECX    O1 2951   7.383   1.415   5.457
  492HECX    H1 2952   7.405   1.455   5.549
  493HECX    H6 2953   0.678   7.965   1.198
  493HECX    O2 2954   0.654   7.928   1.295
  493HECX    C2 2955   0.706   7.793   1.307
  493HECX    C1 2956   0.679   7.735   1.447
  493HECX    O1 2957   0.739   7.606   1.465
  493HECX    H1 2958   0.825   7.618   1.524
  494HECX    H6 2959   8.695   6.683   8.473
  494HECX    O2 2960   8.779   6.615   8.481
  494HECX    C2 2961   8.745   6.486   8.425
  494HECX    C1 2962   8.716   6.482   8.274
  494HECX    O1 2963   8.646   6.361   8.238
  494HECX    H1 2964   8.556   6.360   8.290
  495HECX    H6 2965   6.459   9.232   9.771
  495HECX    O2 2966   6.512   9.320   9.799
  495HECX    C2 2967   6.466   9.426   9.712
  495HECX    C1 2968   6.455   9.564   9.778
  495HECX    O1 2969   6.383   9.657   9.694
  495HECX    H1 2970   6.379   9.751   9.743
  496HECX    H6 2971   4.424   9.960   5.018
  496HECX    O2 2972   4.364   9.937   5.102
  496HECX    C2 2973   4.245   9.867   5.061
  496HECX    C1 2974   4.179   9.792   5.178
  496HECX    O1 2975   4.035   9.805   5.184
  496HECX    H1 2976   3.993   9.708   5.195
  497HECX    H6 2977   0.323   2.053   2.778
  497HECX    O2 2978   0.271   1.984   2.714
  497HECX    C2 2979   0.234   1.868   2.790
  497HECX    C1 2980   0.102   1.805   2.743
  497HECX    O1 2981   0.062   1.692   2.823
  497HECX    H1 2982   0.080   1.604   2.767
  498HECX    H6 2983   0.993   4.674   3.275
  498HECX    O2 2984   0.927   4.751   3.307
  498HECX    C2 2985   0.793   4.715   3.268
  498HECX    C1 2986   0.690   4.826   3.289
  498HECX    O1 2987   0.559   4.789   3.242
  498HECX    H1 2988   0.493   4.868   3.263
  499HECX    H6 2989   2.637   7.868   0.549
  499HECX    O2 2990   2.637   7.817   0.640
  499HECX    C2 2991   2.649   7.912   0.747
  499HECX    C1 2992   2.735   7.857   0.862
  499HECX    O1 2993   2.747   7.950   0.972
  499HECX    H1 2994   2.660   7.941   1.034
  500HECX    H6 2995   5.421   8.287   9.071
  500HECX    O2 2996   5.435   8.228   9.158
  500HECX    C2 2997   5.388   8.094   9.132
  500HECX    C1 2998   5.379   8.010   9.260
  500HECX    O1 2999   5.355   7.870   9.233
  500HECX    H1 3000   5.300   7.829   9.312
  501HECX    H6 3001   3.468   2.105   5.360
  501HECX    O2 3002   3.475   2.143   5.459
  501HECX    C2 3003   3.528   2.036   5.540
  501HECX    C1 3004   3.529   2.069   5.690
  501HECX    O1 3005   3.589   1.967   5.773
  501HECX    H1 3006   3.582   2.001   5.872
  502HECX    H6 3007   5.320   7.098   7.182
  502HECX    O2 3008   5.383   7.082   7.264
  502HECX    C2 3009   5.508   7.150   7.238
  502HECX    C1 3010   5.599   7.072   7.141
  502HECX    O1 3011   5.712   7.148   7.093
  502HECX    H1 3012   5.793   7.137   7.160
  503HECX    H6 3013   2.980   7.956   9.749
  503HECX    O2 3014   2.984   7.851   9.743
  503HECX    C2 3015   3.072   7.802   9.846
  503HECX    C1 3016   3.008   7.802   9.986
  503HECX    O1 3017   3.101   7.766   0.092
  503HECX    H1 3018   3.094   7.661   0.111
  504HECX    H6 3019   0.220   6.417   6.584
  504HECX    O2 3020   0.128   6.407   6.638
  504HECX    C2 3021   0.029   6.496   6.582
  504HECX    C1 3022   9.895   6.484   6.656
  504HECX    O1 3023   9.795   6.574   6.605
  504HECX    H1 3024   9.818   6.673   6.640
  505HECX    H6 3025   2.493   8.458   1.638
  505HECX    O2 3026   2.466   8.362   1.633
  505HECX    C2 3027   2.585   8.282   1.648
  505HECX    C1 3028   2.624   8.262   1.795
  505HECX    O1 3029   2.757   8.210   1.814
  505HECX    H1 3030   2.819   8.290   1.842
  506HECX    H6 3031   0.207   4.573   5.876
  506HECX    O2 3032   0.233   4.553   5.781
  506HECX    C2 3033   0.362   4.612   5.755
  506HECX    C1 3034   0.362   4.765   5.737
  506HECX    O1 3035   0.487   4.817   5.686
  506HECX    H1 3036   0.470   4.845   5.585
  507HECX    H6 3037   6.868   4.821   9.092
  507HECX    O2 3038   6.856   4.728   9.127
  507HECX    C2 3039   6.858   4.638   9.015
  507HECX    C1 3040   7.000   4.603   8.971
  507HECX    O1 3041   7.005   4.514   8.857
  507HECX    H1 3042   7.094   4.534   8.806
  508HECX    H6 3043   8.084   7.582   2.265
  508HECX    O2 3044   8.129   7.491   2.302
  508HECX    C2 3045   8.128   7.492   2.446
  508HECX    C1 3046   8.226   7.591   2.512
  508HECX    O1 3047   8.247   7.564   2.652
  508HECX    H1 3048   8.300   7.471   2.660
  509HECX    H6 3049   3.017   8.935   8.096
  509HECX    O2 3050   2.975   8.905   8.003
  509HECX    C2 3051   2.915   9.018   7.935
  509HECX    C1 3052   2.836   8.975   7.811
  509HECX    O1 3053   2.781   9.083   7.733
  509HECX    H1 3054   2.703   9.043   7.674
  510HECX    H6 3055   7.429   6.300   5.032
  510HECX    O2 3056   7.395   6.316   4.934
  510HECX    C2 3057   7.317   6.204   4.889
  510HECX    C1 3058   7.303   6.200   4.736
  510HECX    O1 3059   7.198   6.110   4.696
  510HECX    H1 3060   7.204   6.090   4.593
  511HECX    H6 3061   9.595   9.638   8.178
  511HECX    O2 3062   9.510   9.608   8.134
  511HECX    C2 3063   9.458   9.499   8.213
  511HECX    C1 3064   9.347   9.423   8.141
  511HECX    O1 3065   9.295   9.312   8.217
  511HECX    H1 3066   9.231   9.255   8.151
  512HECX    H6 3067   2.870   5.581   2.852
  512HECX    O2 3068   2.781   5.577   2.897
  512HECX    C2 3069   2.768   5.450   2.963
  512HECX    C1 3070   2.737   5.334   2.868
  512HECX    O1 3071   2.678   5.223   2.937
  512HECX    H1 3072   2.676   5.143   2.870
  513HECX    H6 3073   8.324   6.837   9.598
  513HECX    O2 3074   8.366   6.921   9.551
  513HECX    C2 3075   8.265   6.979   9.466
  513HECX    C1 3076   8.213   7.115   9.516
  513HECX    O1 3077   8.101   7.165   9.438
  513HECX    H1 3078   8.133   7.180   9.338
  514HECX    H6 3079   7.547   0.354   5.774
  514HECX    O2 3080   7.510   0.261   5.808
  514HECX    C2 3081   7.483   0.180   5.691
  514HECX    C1 3082   7.355   0.227   5.620
  514HECX    O1 3083   7.335   0.171   5.488
  514HECX    H1 3084   7.229   0.160   5.475
  515HECX    H6 3085   9.917   3.261   7.518
  515HECX    O2 3086   9.895   3.281   7.618
  515HECX    C2 3087   9.835   3.412   7.624
  515HECX    C1 3088   9.881   3.497   7.743
  515HECX    O1 3089   9.819   3.627   7.742
  515HECX    H1 3090   9.856   3.682   7.824
  516HECX    H6 3091   6.615   6.288   6.111
  516HECX    O2 3092   6.571   6.297   6.016
  516HECX    C2 3093   6.498   6.176   5.986
  516HECX    C1 3094   6.386   6.197   5.883
  516HECX    O1 3095   6.318   6.075   5.848
  516HECX    H1 3096   6.222   6.098   5.814
  517HECX    H6 3097   3.358   3.645   8.755
  517HECX    O2 3098   3.276   3.683   8.703
  517HECX    C2 3099   3.304   3.821   8.672
  517HECX    C1 3100   3.219   3.873   8.555
  517HECX    O1 3101   3.247   4.011   8.526
  517HECX    H1 3102   3.189   4.067   8.594
  518HECX    H6 3103   8.773   4.124   8.553
  518HECX    O2 3104   8.833   4.137   8.466
  518HECX    C2 3105   8.947   4.049   8.474
  518HECX    C1 3106   8.914   3.900   8.462
  518HECX    O1 3107   9.032   3.817   8.470
  518HECX    H1 3108   9.004   3.728   8.502
  519HECX    H6 3109   0.461   5.967   1.823
  519HECX    O2 3110   0.426   5.918   1.737
  519HECX    C2 3111   0.466   5.779   1.746
  519HECX    C1 3112   0.396   5.685   1.646
  519HECX    O1 3113   0.461   5.556   1.637
  519HECX    H1 3114   0.392   5.478   1.665
  520HECX    H6 3115   8.543   9.798   0.627
  520HECX    O2 3116   8.557   9.780   0.526
  520HECX    C2 3117   8.691   9.818   0.488
  520HECX    C1 3118   8.714   9.812   0.336
  520HECX    O1 3119   8.649   9.916   0.260
  520HECX    H1 3120   8.546   9.915   0.285
  521HECX    H6 3121   9.880   9.141   2.617
  521HECX    O2 3122   9.845   9.233   2.627
  521HECX    C2 3123   9.952   9.316   2.678
  521HECX    C1 3124   9.963   9.313   2.831
  521HECX    O1 3125   0.068   9.398   2.880
  521HECX    H1 3126   0.036   9.497   2.872
  522HECX    H6 3127   5.921   6.681   2.568
  522HECX    O2 3128   5.859   6.736   2.505
  522HECX    C2 3129   5.910   6.739   2.370
  522HECX    C1 3130   5.909   6.602   2.302
  522HECX    O1 3131   5.897   6.613   2.158
  522HECX    H1 3132   5.991   6.624   2.116
  523HECX    H6 3133   2.167   3.042   4.276
  523HECX    O2 3134   2.174   3.095   4.369
  523HECX    C2 3135   2.235   3.004   4.462
  523HECX    C1 3136   2.349   3.068   4.543
  523HECX    O1 3137   2.432   2.969   4.609
  523HECX    H1 3138   2.487   3.019   4.686
  524HECX    H6 3139   2.760   7.675   6.101
  524HECX    O2 3140   2.701   7.666   6.194
  524HECX    C2 3141   2.691   7.800   6.247
  524HECX    C1 3142   2.598   7.814   6.368
  524HECX    O1 3143   2.602   7.943   6.434
  524HECX    H1 3144   2.548   8.016   6.373
  525HECX    H6 3145   7.059   2.465   6.876
  525HECX    O2 3146   7.137   2.469   6.805
  525HECX    C2 3147   7.220   2.353   6.828
  525HECX    C1 3148   7.317   2.367   6.946
  525HECX    O1 3149   7.358   2.242   7.005
  525HECX    H1 3150   7.395   2.176   6.932
  526HECX    H6 3151   9.328   9.874   3.516
  526HECX    O2 3152   9.393   9.934   3.464
  526HECX    C2 3153   9.523   9.923   3.525
  526HECX    C1 3154   9.625   9.849   3.438
  526HECX    O1 3155   9.739   9.804   3.514
  526HECX    H1 3156   9.796   9.739   3.451
  527HECX    H6 3157   0.964   3.958   6.885
  527HECX    O2 3158   0.912   3.895   6.949
  527HECX    C2 3159   0.928   3.759   6.903
  527HECX    C1 3160   0.821   3.726   6.799
  527HECX    O1 3161   0.824   3.591   6.748
  527HECX    H1 3162   0.763   3.591   6.663
  528HECX    H6 3163   4.090   2.918   0.141
  528HECX    O2 3164   4.098   2.821   0.179
  528HECX    C2 3165   4.210   2.818   0.270
  528HECX    C1 3166   4.345   2.813   0.197
  528HECX    O1 3167   4.446   2.900   0.253
  528HECX    H1 3168   4.542   2.858   0.229
  529HECX    H6 3169   0.305   9.448   9.794
  529HECX    O2 3170   0.303   9.386   9.883
  529HECX    C2 3171   0.245   9.467   9.988
  529HECX    C1 3172   0.340   9.494   0.106
  529HECX    O1 3173   0.445   9.589   0.079
  529HECX    H1 3174   0.536   9.536   0.083
  530HECX    H6 3175   3.450   8.877   7.095
  530HECX    O2 3176   3.386   8.959   7.103
  530HECX    C2 3177   3.295   8.960   6.992
  530HECX    C1 3178   3.188   9.068   7.007
  530HECX    O1 3179   3.091   9.070   6.900
  530HECX    H1 3180   2.996   9.081   6.944
  531HECX    H6 3181   9.556   3.539   6.126
  531HECX    O2 3182   9.589   3.628   6.172
  531HECX    C2 3183   9.603   3.596   6.312
  531HECX    C1 3184   9.670   3.706   6.396
  531HECX    O1 3185   9.650   3.687   6.537
  531HECX    H1 3186   9.725   3.744   6.587
  532HECX    H6 3187   7.540   4.883   6.441
  532HECX    O2 3188   7.436   4.897   6.457
  532HECX    C2 3189   7.404   4.857   6.592
  532HECX    C1 3190   7.417   4.706   6.613
  532HECX    O1 3191   7.435   4.665   6.751
  532HECX    H1 3192   7.453   4.559   6.749
  533HECX    H6 3193   6.959   6.338   2.173
  533HECX    O2 3194   6.998   6.240   2.173
  533HECX    C2 3195   6.967   6.181   2.301
  533HECX    C1 3196   6.817   6.156   2.322
  533HECX    O1 3197   6.789   6.085   2.445
  533HECX    H1 3198   6.684   6.079   2.455
  534HECX    H6 3199   8.580   6.659   1.051
  534HECX    O2 3200   8.665   6.599   1.044
  534HECX    C2 3201   8.782   6.683   1.047
  534HECX    C1 3202   8.866   6.672   0.919
  534HECX    O1 3203   8.986   6.751   0.924
  534HECX    H1 3204   8.959   6.851   0.933
  535HECX    H6 3205   6.779   4.320   6.214
  535HECX    O2 3206   6.823   4.226   6.197
  535HECX    C2 3207   6.795   4.144   6.312
  535HECX    C1 3208   6.860   4.005   6.305
  535HECX    O1 3209   6.824   3.922   6.417
  535HECX    H1 3210   6.735   3.871   6.391
  536HECX    H6 3211   8.206   0.062   7.924
  536HECX    O2 3212   8.309   0.048   7.943
  536HECX    C2 3213   8.376   0.012   7.820
  536HECX    C1 3214   8.482   9.904   7.842
  536HECX    O1 3215   8.547   9.861   7.720
  536HECX    H1 3216   8.498   9.773   7.685
  537HECX    H6 3217   5.274   7.468   6.993
  537HECX    O2 3218   5.318   7.372   6.983
  537HECX    C2 3219   5.457   7.396   6.954
  537HECX    C1 3220   5.498   7.359   6.812
  537HECX    O1 3221   5.613   7.435   6.768
  537HECX    H1 3222   5.641   7.400   6.670
  538HECX    H6 3223   6.912   0.882   7.574
  538HECX    O2 3224   6.979   0.901   7.652
  538HECX    C2 3225   6.905   0.907   7.776
  538HECX    C1 3226   6.998   0.888   7.896
  538HECX    O1 3227   6.931   0.906   8.023
  538HECX    H1 3228   7.002   0.879   8.099
  539HECX    H6 3229   5.438   9.369   4.161
  539HECX    O2 3230   5.357   9.419   4.212
  539HECX    C2 3231   5.358   9.371   4.349
  539HECX    C1 3232   5.489   9.404   4.422
  539HECX    O1 3233   5.489   9.346   4.553
  539HECX    H1 3234   5.521   9.246   4.548
  540HECX    H6 3235   9.613   2.748   7.973
  540HECX    O2 3236   9.588   2.679   8.050
  540HECX    C2 3237   9.707   2.661   8.131
  540HECX    C1 3238   9.678   2.671   8.282
  540HECX    O1 3239   9.797   2.674   8.364
  540HECX    H1 3240   9.766   2.684   8.463
  541HECX    H6 3241   6.936   2.339   3.588
  541HECX    O2 3242   6.919   2.278   3.501
  541HECX    C2 3243   6.941   2.360   3.384
  541HECX    C1 3244   6.834   2.348   3.273
  541HECX    O1 3245   6.833   2.225   3.198
  541HECX    H1 3246   6.746   2.227   3.133
  542HECX    H6 3247   8.498   2.741   7.444
  542HECX    O2 3248   8.410   2.786   7.478
  542HECX    C2 3249   8.367   2.886   7.383
  542HECX    C1 3250   8.228   2.942   7.419
  542HECX    O1 3251   8.175   3.036   7.323
  542HECX    H1 3252   8.077   3.061   7.352
  543HECX    H6 3253   4.546   0.999   0.759
  543HECX    O2 3254   4.506   1.056   0.680
  543HECX    C2 3255   4.500   0.976   0.560
  543HECX    C1 3256   4.458   1.060   0.439
  543HECX    O1 3257   4.464   0.991   0.312
  543HECX    H1 3258   4.565   0.967   0.288
  544HECX    H6 3259   8.202   8.083   0.334
  544HECX    O2 3260   8.286   8.020   0.359
  544HECX    C2 3261   8.257   7.890   0.302
  544HECX    C1 3262   8.364   7.785   0.333
  544HECX    O1 3263   8.317   7.651   0.304
  544HECX    H1 3264   8.398   7.596   0.261
  545HECX    H6 3265   6.041   4.570   5.186
  545HECX    O2 3266   5.938   4.600   5.190
  545HECX    C2 3267   5.927   4.732   5.247
  545HECX    C1 3268   5.785   4.787   5.224
  545HECX    O1 3269   5.763   4.921   5.271
  545HECX    H1 3270   5.769   4.921   5.377
  546HECX    H6 3271   9.904   0.364   6.693
  546HECX    O2 3272   9.847   0.278   6.678
  546HECX    C2 3273   9.851   0.242   6.539
  546HECX    C1 3274   9.715   0.193   6.486
  546HECX    O1 3275   9.711   0.182   6.342
  546HECX    H1 3276   9.632   0.127   6.318
  547HECX    H6 3277   8.036   0.560   5.165
  547HECX    O2 3278   8.011   0.595   5.260
  547HECX    C2 3279   8.135   0.606   5.334
  547HECX    C1 3280   8.116   0.606   5.486
  547HECX    O1 3281   8.240   0.636   5.554
  547HECX    H1 3282   8.238   0.741   5.580
  548HECX    H6 3283   5.256   3.336   4.546
  548HECX    O2 3284   5.334   3.365   4.483
  548HECX    C2 3285   5.295   3.480   4.404
  548HECX    C1 3286   5.406   3.521   4.307
  548HECX    O1 3287   5.376   3.638   4.228
  548HECX    H1 3288   5.454   3.648   4.157
  549HECX    H6 3289   0.456   3.104   5.415
  549HECX    O2 3290   0.536   3.060   5.358
  549HECX    C2 3291   0.474   2.974   5.260
  549HECX    C1 3292   0.572   2.874   5.197
  549HECX    O1 3293   0.505   2.772   5.118
  549HECX    H1 3294   0.533   2.787   5.016
  550HECX    H6 3295   2.703   6.541   7.339
  550HECX    O2 3296   2.775   6.468   7.311
  550HECX    C2 3297   2.806   6.484   7.171
  550HECX    C1 3298   2.915   6.386   7.123
  550HECX    O1 3299   2.951   6.403   6.984
  550HECX    H1 3300   3.054   6.413   6.977
  551HECX    H6 3301   6.917   4.129   4.280
  551HECX    O2 3302   6.910   4.088   4.183
  551HECX    C2 3303   6.773   4.099   4.142
  551HECX    C1 3304   6.758   4.142   3.996
  551HECX    O1 3305   6.644   4.229   3.980
  551HECX    H1 3306   6.641   4.260   3.878
  552HECX    H6 3307   8.112   0.416   7.157
  552HECX    O2 3308   8.069   0.366   7.076
  552HECX    C2 3309   8.009   0.246   7.129
  552HECX    C1 3310   8.104   0.125   7.127
  552HECX    O1 3311   8.045   0.009   7.189
  552HECX    H1 3312   8.109   9.933   7.180
  553HECX    H6 3313   8.422   0.756   1.612
  553HECX    O2 3314   8.427   0.767   1.716
  553HECX    C2 3315   8.450   0.906   1.742
  553HECX    C1 3316   8.585   0.951   1.686
  553HECX    O1 3317   8.601   1.094   1.680
  553HECX    H1 3318   8.701   1.113   1.654
  554HECX    H6 3319   2.381   5.118   5.098
  554HECX    O2 3320   2.338   5.135   5.192
  554HECX    C2 3321   2.195   5.122   5.185
  554HECX    C1 3322   2.126   5.236   5.107
  554HECX    O1 3323   1.983   5.218   5.104
  554HECX    H1 3324   1.940   5.282   5.030
  555HECX    H6 3325   8.354   6.574   0.337
  555HECX    O2 3326   8.265   6.633   0.348
  555HECX    C2 3327   8.187   6.615   0.227
  555HECX    C1 3328   8.040   6.653   0.245
  555HECX    O1 3329   7.965   6.652   0.122
  555HECX    H1 3330   7.867   6.655   0.146
  556HECX    H6 3331   3.648   1.663   0.011
  556HECX    O2 3332   3.572   1.731   9.983
  556HECX    C2 3333   3.607   1.862   0.030
  556HECX    C1 3334   3.580   1.972   9.926
  556HECX    O1 3335   3.595   2.105   9.982
  556HECX    H1 3336   3.503   2.131   0.026
  557HECX    H6 3337   3.965   6.629   2.201
  557HECX    O2 3338   3.885   6.632   2.271
  557HECX    C2 3339   3.940   6.628   2.404
  557HECX    C1 3340   3.842   6.671   2.513
  557HECX    O1 3341   3.810   6.812   2.524
  557HECX    H1 3342   3.838   6.841   2.616
  558HECX    H6 3343   6.866   3.690   4.276
  558HECX    O2 3344   6.775   3.700   4.327
  558HECX    C2 3345   6.741   3.572   4.384
  558HECX    C1 3346   6.817   3.540   4.513
  558HECX    O1 3347   6.785   3.410   4.566
  558HECX    H1 3348   6.825   3.402   4.662
  559HECX    H6 3349   9.199   2.143   2.484
  559HECX    O2 3350   9.300   2.133   2.461
  559HECX    C2 3351   9.344   1.999   2.495
  559HECX    C1 3352   9.487   1.970   2.448
  559HECX    O1 3353   9.549   1.852   2.503
  559HECX    H1 3354   9.585   1.875   2.601
  560HECX    H6 3355   6.588   7.535   9.822
  560HECX    O2 3356   6.596   7.437   9.862
  560HECX    C2 3357   6.708   7.435   9.954
  560HECX    C1 3358   6.735   7.295   0.011
  560HECX    O1 3359   6.850   7.289   0.097
  560HECX    H1 3360   6.876   7.192   0.104
  561HECX    H6 3361   1.432   2.941   4.971
  561HECX    O2 3362   1.505   2.910   4.913
  561HECX    C2 3363   1.558   3.027   4.848
  561HECX    C1 3364   1.614   3.001   4.707
  561HECX    O1 3365   1.674   3.119   4.653
  561HECX    H1 3366   1.670   3.115   4.550
  562HECX    H6 3367   0.984   3.322   9.380
  562HECX    O2 3368   1.069   3.383   9.399
  562HECX    C2 3369   1.079   3.402   9.542
  562HECX    C1 3370   0.994   3.519   9.596
  562HECX    O1 3371   1.010   3.540   9.738
  562HECX    H1 3372   0.949   3.623   9.768
  563HECX    H6 3373   9.238   0.135   8.647
  563HECX    O2 3374   9.223   0.125   8.752
  563HECX    C2 3375   9.130   0.226   8.796
  563HECX    C1 3376   9.083   0.200   8.940
  563HECX    O1 3377   9.002   0.306   8.996
  563HECX    H1 3378   8.910   0.296   8.961
  564HECX    H6 3379   4.802   8.830   5.407
  564HECX    O2 3380   4.851   8.916   5.424
  564HECX    C2 3381   4.751   9.021   5.433
  564HECX    C1 3382   4.698   9.067   5.297
  564HECX    O1 3383   4.611   9.182   5.309
  564HECX    H1 3384   4.632   9.245   5.229
  565HECX    H6 3385   0.722   4.969   9.611
  565HECX    O2 3386   0.709   5.057   9.556
  565HECX    C2 3387   0.567   5.082   9.544
  565HECX    C1 3388   0.489   4.978   9.462
  565HECX    O1 3389   0.525   4.968   9.322
  565HECX    H1 3390   0.500   4.870   9.291
  566HECX    H6 3391   8.798   4.991   0.672
  566HECX    O2 3392   8.772   5.066   0.731
  566HECX    C2 3393   8.849   5.181   0.693
  566HECX    C1 3394   8.824   5.301   0.786
  566HECX    O1 3395   8.888   5.421   0.739
  566HECX    H1 3396   8.812   5.482   0.694
  567HECX    H6 3397   8.114   2.704   5.386
  567HECX    O2 3398   8.024   2.661   5.414
  567HECX    C2 3399   8.057   2.538   5.483
  567HECX    C1 3400   7.967   2.421   5.438
  567HECX    O1 3401   7.983   2.302   5.518
  567HECX    H1 3402   7.964   2.330   5.619
  568HECX    H6 3403   2.655   7.295   9.058
  568HECX    O2 3404   2.555   7.275   9.083
  568HECX    C2 3405   2.470   7.371   9.016
  568HECX    C1 3406   2.322   7.336   9.030
  568HECX    O1 3407   2.236   7.407   8.938
  568HECX    H1 3408   2.145   7.423   8.986
  569HECX    H6 3409   1.416   9.114   0.994
  569HECX    O2 3410   1.333   9.048   0.970
  569HECX    C2 3411   1.253   9.029   1.089
  569HECX    C1 3412   1.178   9.156   1.131
  569HECX    O1 3413   1.084   9.135   1.239
  569HECX    H1 3414   1.010   9.064   1.208
  570HECX    H6 3415   7.034   5.071   9.970
  570HECX    O2 3416   7.024   5.164   9.921
  570HECX    C2 3417   7.072   5.153   9.785
  570HECX    C1 3418   7.214   5.209   9.769
  570HECX    O1 3419   7.257   5.224   9.632
  570HECX    H1 3420   7.325   5.304   9.632
  571HECX    H6 3421   2.375   2.128   4.173
  571HECX    O2 3422   2.428   2.050   4.124
  571HECX    C2 3423   2.502   2.109   4.015
  571HECX    C1 3424   2.569   2.002   3.927
  571HECX    O1 3425   2.688   2.047   3.859
  571HECX    H1 3426   2.761   1.968   3.865
  572HECX    H6 3427   7.400   2.002   4.043
  572HECX    O2 3428   7.329   1.960   4.111
  572HECX    C2 3429   7.346   1.816   4.107
  572HECX    C1 3430   7.483   1.774   4.160
  572HECX    O1 3431   7.511   1.632   4.151
  572HECX    H1 3432   7.598   1.616   4.213
  573HECX    H6 3433   2.898   8.785   3.598
  573HECX    O2 3434   2.928   8.885   3.598
  573HECX    C2 3435   2.818   8.959   3.656
  573HECX    C1 3436   2.751   9.061   3.562
  573HECX    O1 3437   2.614   9.084   3.601
  573HECX    H1 3438   2.564   9.135   3.521
  574HECX    H6 3439   2.438   0.539   4.331
  574HECX    O2 3440   2.497   0.580   4.410
  574HECX    C2 3441   2.491   0.724   4.400
  574HECX    C1 3442   2.590   0.782   4.298
  574HECX    O1 3443   2.596   0.926   4.299
  574HECX    H1 3444   2.647   0.958   4.385
  575HECX    H6 3445   4.623   5.233   7.948
  575HECX    O2 3446   4.630   5.157   7.885
  575HECX    C2 3447   4.758   5.164   7.818
  575HECX    C1 3448   4.789   5.035   7.742
  575HECX    O1 3449   4.903   5.046   7.654
  575HECX    H1 3450   4.914   4.954   7.605
  576HECX    H6 3451   7.965   6.121   8.255
  576HECX    O2 3452   7.945   6.031   8.301
  576HECX    C2 3453   7.885   6.058   8.429
  576HECX    C1 3454   7.745   5.997   8.443
  576HECX    O1 3455   7.695   6.003   8.579
  576HECX    H1 3456   7.709   5.907   8.624
  577HECX    H6 3457   4.807   6.416   6.447
  577HECX    O2 3458   4.892   6.420   6.384
  577HECX    C2 3459   4.960   6.545   6.403
  577HECX    C1 3460   4.889   6.661   6.331
  577HECX    O1 3461   4.970   6.781   6.329
  577HECX    H1 3462   5.023   6.782   6.234
  578HECX    H6 3463   8.100   5.741   3.200
  578HECX    O2 3464   8.015   5.763   3.139
  578HECX    C2 3465   7.899   5.731   3.219
  578HECX    C1 3466   7.808   5.850   3.250
  578HECX    O1 3467   7.713   5.878   3.144
  578HECX    H1 3468   7.636   5.804   3.152
  579HECX    H6 3469   0.343   7.106   9.819
  579HECX    O2 3470   0.422   7.173   9.802
  579HECX    C2 3471   0.372   7.277   9.716
  579HECX    C1 3472   0.472   7.391   9.692
  579HECX    O1 3473   0.413   7.503   9.621
  579HECX    H1 3474   0.478   7.586   9.627
  580HECX    H6 3475   3.916   9.257   2.779
  580HECX    O2 3476   3.824   9.291   2.818
  580HECX    C2 3477   3.724   9.295   2.714
  580HECX    C1 3478   3.641   9.424   2.722
  580HECX    O1 3479   3.512   9.415   2.659
  580HECX    H1 3480   3.479   9.514   2.638
  581HECX    H6 3481   6.327   0.611   1.200
  581HECX    O2 3482   6.368   0.632   1.296
  581HECX    C2 3483   6.458   0.525   1.332
  581HECX    C1 3484   6.543   0.554   1.458
  581HECX    O1 3485   6.627   0.671   1.448
  581HECX    H1 3486   6.729   0.643   1.457
  582HECX    H6 3487   3.645   3.604   8.131
  582HECX    O2 3488   3.701   3.549   8.200
  582HECX    C2 3489   3.713   3.415   8.150
  582HECX    C1 3490   3.783   3.316   8.244
  582HECX    O1 3491   3.805   3.188   8.180
  582HECX    H1 3492   3.845   3.120   8.253
  583HECX    H6 3493   5.167   9.348   0.544
  583HECX    O2 3494   5.063   9.358   0.539
  583HECX    C2 3495   5.002   9.228   0.554
  583HECX    C1 3496   4.973   9.189   0.700
  583HECX    O1 3497   4.914   9.057   0.716
  583HECX    H1 3498   4.859   9.032   0.630
  584HECX    H6 3499   5.332   8.450   0.932
  584HECX    O2 3500   5.353   8.364   0.877
  584HECX    C2 3501   5.475   8.385   0.802
  584HECX    C1 3502   5.577   8.273   0.825
  584HECX    O1 3503   5.695   8.289   0.744
  584HECX    H1 3504   5.759   8.358   0.789
  585HECX    H6 3505   9.482   3.771   6.176
  585HECX    O2 3506   9.410   3.843   6.186
  585HECX    C2 3507   9.311   3.818   6.084
  585HECX    C1 3508   9.168   3.838   6.136
  585HECX    O1 3509   9.068   3.823   6.032
  585HECX    H1 3510   8.978   3.834   6.073
  586HECX    H6 3511   5.299   5.883   9.989
  586HECX    O2 3512   5.316   5.911   9.888
  586HECX    C2 3513   5.420   6.012   9.888
  586HECX    C1 3514   5.562   5.960   9.914
  586HECX    O1 3515   5.658   6.068   9.914
  586HECX    H1 3516   5.695   6.080   0.011
  587HECX    H6 3517   0.734   5.974   4.460
  587HECX    O2 3518   0.739   6.009   4.559
  587HECX    C2 3519   0.833   6.118   4.557
  587HECX    C1 3520   0.791   6.231   4.462
  587HECX    O1 3521   0.898   6.323   4.432
  587HECX    H1 3522   0.895   6.401   4.500
  588HECX    H6 3523   5.460   1.183   6.717
  588HECX    O2 3524   5.516   1.099   6.715
  588HECX    C2 3525   5.633   1.129   6.795
  588HECX    C1 3526   5.726   1.008   6.815
  588HECX    O1 3527   5.847   1.043   6.886
  588HECX    H1 3528   5.915   0.962   6.881
  589HECX    H6 3529   3.534   6.492   9.090
  589HECX    O2 3530   3.518   6.467   9.191
  589HECX    C2 3531   3.498   6.590   9.264
  589HECX    C1 3532   3.350   6.632   9.276
  589HECX    O1 3533   3.334   6.774   9.294
  589HECX    H1 3534   3.247   6.790   9.354
  590HECX    H6 3535   0.524   8.345   7.732
  590HECX    O2 3536   0.470   8.357   7.819
  590HECX    C2 3537   0.374   8.249   7.833
  590HECX    C1 3538   0.430   8.105   7.818
  590HECX    O1 3539   0.509   8.057   7.928
  590HECX    H1 3540   0.455   7.980   7.976
  591HECX    H6 3541   4.018   3.622   4.842
  591HECX    O2 3542   3.981   3.627   4.940
  591HECX    C2 3543   4.075   3.564   5.029
  591HECX    C1 3544   4.046   3.606   5.174
  591HECX    O1 3545   4.123   3.533   5.272
  591HECX    H1 3546   4.058   3.462   5.316
  592HECX    H6 3547   1.876   8.586   8.578
  592HECX    O2 3548   1.870   8.514   8.497
  592HECX    C2 3549   1.744   8.531   8.428
  592HECX    C1 3550   1.718   8.418   8.326
  592HECX    O1 3551   1.601   8.440   8.244
  592HECX    H1 3552   1.618   8.390   8.153
  593HECX    H6 3553   8.589   5.555   2.917
  593HECX    O2 3554   8.502   5.608   2.944
  593HECX    C2 3555   8.518   5.748   2.912
  593HECX    C1 3556   8.564   5.780   2.769
  593HECX    O1 3557   8.625   5.911   2.763
  593HECX    H1 3558   8.709   5.907   2.826
  594HECX    H6 3559   6.714   7.324   3.441
  594HECX    O2 3560   6.618   7.322   3.466
  594HECX    C2 3561   6.586   7.444   3.536
  594HECX    C1 3562   6.526   7.554   3.447
  594HECX    O1 3563   6.502   7.676   3.521
  594HECX    H1 3564   6.590   7.736   3.520
  595HECX    H6 3565   4.476   9.188   1.883
  595HECX    O2 3566   4.550   9.214   1.956
  595HECX    C2 3567   4.620   9.091   1.988
  595HECX    C1 3568   4.562   9.018   2.109
  595HECX    O1 3569   4.594   8.878   2.109
  595HECX    H1 3570   4.520   8.828   2.165
  596HECX    H6 3571   7.770   6.717   1.911
  596HECX    O2 3572   7.758   6.799   1.844
  596HECX    C2 3573   7.634   6.779   1.772
  596HECX    C1 3574   7.641   6.670   1.664
  596HECX    O1 3575   7.721   6.705   1.548
  596HECX    H1 3576   7.724   6.621   1.485
  597HECX    H6 3577   6.287   1.579   3.003
  597HECX    O2 3578   6.277   1.512   3.085
  597HECX    C2 3579   6.276   1.589   3.208
  597HECX    C1 3580   6.415   1.632   3.256
  597HECX    O1 3581   6.411   1.697   3.385
  597HECX    H1 3582   6.510   1.728   3.407
  598HECX    H6 3583   5.932   6.305   9.924
  598HECX    O2 3584   5.907   6.321   0.024
  598HECX    C2 3585   5.926   6.459   0.056
  598HECX    C1 3586   5.889   6.486   0.202
  598HECX    O1 3587   5.907   6.624   0.241
  598HECX    H1 3588   6.003   6.632   0.274
  599HECX    H6 3589   5.624   5.388   0.025
  599HECX    O2 3590   5.642   5.475   9.966
  599HECX    C2 3591   5.517   5.526   9.915
  599HECX    C1 3592   5.421   5.574   0.024
  599HECX    O1 3593   5.466   5.687   0.101
  599HECX    H1 3594   5.383   5.748   0.118
  600HECX    H6 3595   8.051   4.262   1.088
  600HECX    O2 3596   7.970   4.193   1.103
  600HECX    C2 3597   8.028   4.061   1.118
  600HECX    C1 3598   7.960   3.950   1.037
  600HECX    O1 3599   7.824   3.924   1.076
  600HECX    H1 3600   7.817   3.826   1.116
  601HECX    H6 3601   8.344   7.718   5.056
  601HECX    O2 3602   8.315   7.819   5.059
  601HECX    C2 3603   8.353   7.869   5.189
  601HECX    C1 3604   8.375   8.021   5.201
  601HECX    O1 3605   8.476   8.076   5.114
  601HECX    H1 3606   8.572   8.055   5.151
  602HECX    H6 3607   8.381   8.017   8.088
  602HECX    O2 3608   8.334   7.926   8.121
  602HECX    C2 3609   8.192   7.951   8.129
  602HECX    C1 3610   8.101   7.843   8.068
  602HECX    O1 3611   8.096   7.717   8.138
  602HECX    H1 3612   8.049   7.650   8.074
  603HECX    H6 3613   6.871   8.229   4.346
  603HECX    O2 3614   6.775   8.262   4.317
  603HECX    C2 3615   6.773   8.407   4.319
  603HECX    C1 3616   6.811   8.468   4.454
  603HECX    O1 3617   6.840   8.609   4.447
  603HECX    H1 3618   6.901   8.628   4.360
  604HECX    H6 3619   6.411   7.726   3.608
  604HECX    O2 3620   6.350   7.777   3.682
  604HECX    C2 3621   6.242   7.691   3.723
  604HECX    C1 3622   6.284   7.586   3.826
  604HECX    O1 3623   6.172   7.511   3.878
  604HECX    H1 3624   6.202   7.408   3.880
  605HECX    H6 3625   3.999   3.078   0.015
  605HECX    O2 3626   4.069   3.058   0.094
  605HECX    C2 3627   4.188   3.135   0.065
  605HECX    C1 3628   4.202   3.260   0.153
  605HECX    O1 3629   4.338   3.307   0.161
  605HECX    H1 3630   4.393   3.242   0.223
  606HECX    H6 3631   3.405   6.929   1.817
  606HECX    O2 3632   3.390   6.885   1.722
  606HECX    C2 3633   3.321   6.760   1.740
  606HECX    C1 3634   3.286   6.692   1.607
  606HECX    O1 3635   3.251   6.553   1.625
  606HECX    H1 3636   3.236   6.511   1.529
  607HECX    H6 3637   5.155   4.101   9.332
  607HECX    O2 3638   5.106   4.166   9.264
  607HECX    C2 3639   5.157   4.299   9.285
  607HECX    C1 3640   5.131   4.352   9.427
  607HECX    O1 3641   5.202   4.475   9.455
  607HECX    H1 3642   5.303   4.446   9.473
  608HECX    H6 3643   4.975   4.182   3.326
  608HECX    O2 3644   4.914   4.178   3.411
  608HECX    C2 3645   4.995   4.189   3.531
  608HECX    C1 3646   4.995   4.331   3.591
  608HECX    O1 3647   5.069   4.343   3.714
  608HECX    H1 3648   5.171   4.318   3.697
  609HECX    H6 3649   6.763   7.001   2.886
  609HECX    O2 3650   6.746   6.925   2.818
  609HECX    C2 3651   6.683   6.976   2.698
  609HECX    C1 3652   6.767   7.079   2.622
  609HECX    O1 3653   6.702   7.134   2.505
  609HECX    H1 3654   6.747   7.227   2.483
  610HECX    H6 3655   3.569   8.805   3.628
  610HECX    O2 3656   3.593   8.799   3.526
  610HECX    C2 3657   3.669   8.918   3.496
  610HECX    C1 3658   3.805   8.918   3.567
  610HECX    O1 3659   3.845   9.050   3.609
  610HECX    H1 3660   3.864   9.045   3.713
  611HECX    H6 3661   5.478   1.731   0.786
  611HECX    O2 3662   5.420   1.816   0.762
  611HECX    C2 3663   5.463   1.926   0.845
  611HECX    C1 3664   5.351   2.029   0.862
  611HECX    O1 3665   5.398   2.151   0.923
  611HECX    H1 3666   5.364   2.230   0.863
  612HECX    H6 3667   6.816   0.328   3.587
  612HECX    O2 3668   6.861   0.356   3.495
  612HECX    C2 3669   6.892   0.497   3.503
  612HECX    C1 3670   6.965   0.558   3.383
  612HECX    O1 3671   6.879   0.604   3.276
  612HECX    H1 3672   6.909   0.704   3.251
  613HECX    H6 3673   1.772   3.209   5.985
  613HECX    O2 3674   1.828   3.200   5.897
  613HECX    C2 3675   1.782   3.081   5.831
  613HECX    C1 3676   1.840   2.953   5.892
  613HECX    O1 3677   1.783   2.833   5.835
  613HECX    H1 3678   1.790   2.838   5.730
  614HECX    H6 3679   0.482   6.179   0.186
  614HECX    O2 3680   0.475   6.099   0.259
  614HECX    C2 3681   0.463   6.163   0.389
  614HECX    C1 3682   0.317   6.186   0.432
  614HECX    O1 3683   0.306   6.268   0.550
  614HECX    H1 3684   0.204   6.299   0.560
  615HECX    H6 3685   2.933   9.562   8.386
  615HECX    O2 3686   2.955   9.653   8.337
  615HECX    C2 3687   2.979   9.624   8.197
  615HECX    C1 3688   3.118   9.672   8.152
  615HECX    O1 3689   3.137   9.685   8.010
  615HECX    H1 3690   3.158   9.589   7.967
  616HECX    H6 3691   9.218   9.898   7.451
  616HECX    O2 3692   9.266   9.882   7.358
  616HECX    C2 3693   9.403   9.844   7.383
  616HECX    C1 3694   9.483   9.835   7.252
  616HECX    O1 3695   9.621   9.795   7.268
  616HECX    H1 3696   9.656   9.767   7.171
  617HECX    H6 3697   6.100   5.191   6.201
  617HECX    O2 3698   6.202   5.199   6.238
  617HECX    C2 3699   6.284   5.107   6.162
  617HECX    C1 3700   6.434   5.119   6.198
  617HECX    O1 3701   6.524   5.034   6.124
  617HECX    H1 3702   6.565   4.962   6.189
  618HECX    H6 3703   6.037   4.991   0.107
  618HECX    O2 3704   6.045   5.085   0.152
  618HECX    C2 3705   5.928   5.100   0.234
  618HECX    C1 3706   5.950   5.034   0.370
  618HECX    O1 3707   5.830   4.982   0.432
  618HECX    H1 3708   5.795   5.056   0.500
  619HECX    H6 3709   4.060   8.112   4.055
  619HECX    O2 3710   4.054   8.088   3.953
  619HECX    C2 3711   3.985   8.193   3.884
  619HECX    C1 3712   3.981   8.171   3.732
  619HECX    O1 3713   3.919   8.279   3.660
  619HECX    H1 3714   3.902   8.249   3.561
  620HECX    H6 3715   7.559   3.846   3.908
  620HECX    O2 3716   7.466   3.894   3.901
  620HECX    C2 3717   7.363   3.805   3.949
  620HECX    C1 3718   7.375   3.775   4.100
  620HECX    O1 3719   7.280   3.678   4.148
  620HECX    H1 3720   7.328   3.627   4.221
  621HECX    H6 3721   5.377   0.593   2.389
  621HECX    O2 3722   5.438   0.515   2.431
  621HECX    C2 3723   5.356   0.401   2.460
  621HECX    C1 3724   5.254   0.432   2.571
  621HECX    O1 3725   5.194   0.313   2.626
  621HECX    H1 3726   5.119   0.345   2.695
  622HECX    H6 3727   0.525   6.691   3.906
  622HECX    O2 3728   0.441   6.748   3.935
  622HECX    C2 3729   0.373   6.676   4.040
  622HECX    C1 3730   0.408   6.735   4.176
  622HECX    O1 3731   0.353   6.662   4.288
  622HECX    H1 3732   0.400   6.563   4.290
  623HECX    H6 3733   2.147   0.874   1.907
  623HECX    O2 3734   2.061   0.861   1.969
  623HECX    C2 3735   2.042   0.720   1.995
  623HECX    C1 3736   2.013   0.637   1.868
  623HECX    O1 3737   2.124   0.556   1.825
  623HECX    H1 3738   2.181   0.611   1.762
  624HECX    H6 3739   0.868   7.717   0.482
  624HECX    O2 3740   0.955   7.669   0.494
  624HECX    C2 3741   1.055   7.763   0.450
  624HECX    C1 3742   1.197   7.707   0.432
  624HECX    O1 3743   1.292   7.815   0.419
  624HECX    H1 3744   1.310   7.854   0.515
  625HECX    H6 3745   3.063   2.507   7.433
  625HECX    O2 3746   3.138   2.577   7.410
  625HECX    C2 3747   3.098   2.706   7.461
  625HECX    C1 3748   3.138   2.727   7.608
  625HECX    O1 3749   3.069   2.839   7.667
  625HECX    H1 3750   3.131   2.883   7.740
  626HECX    H6 3751   7.792   9.894   6.700
  626HECX    O2 3752   7.874   9.954   6.729
  626HECX    C2 3753   7.990   9.869   6.741
  626HECX    C1 3754   8.120   9.944   6.706
  626HECX    O1 3755   8.238   9.860   6.707
  626HECX    H1 3756   8.235   9.795   6.621
  627HECX    H6 3757   3.085   4.298   3.331
  627HECX    O2 3758   3.183   4.262   3.302
  627HECX    C2 3759   3.262   4.373   3.255
  627HECX    C1 3760   3.395   4.391   3.330
  627HECX    O1 3761   3.444   4.526   3.321
  627HECX    H1 3762   3.464   4.551   3.220
  628HECX    H6 3763   6.195   6.205   7.384
  628HECX    O2 3764   6.238   6.211   7.295
  628HECX    C2 3765   6.344   6.114   7.291
  628HECX    C1 3766   6.384   6.070   7.149
  628HECX    O1 3767   6.290   5.984   7.081
  628HECX    H1 3768   6.304   5.998   6.977
  629HECX    H6 3769   2.663   8.423   0.044
  629HECX    O2 3770   2.732   8.387   9.972
  629HECX    C2 3771   2.701   8.451   9.847
  629HECX    C1 3772   2.804   8.419   9.738
  629HECX    O1 3773   2.768   8.475   9.609
  629HECX    H1 3774   2.840   8.439   9.537
  630HECX    H6 3775   8.597   6.650   0.321
  630HECX    O2 3776   8.660   6.685   0.250
  630HECX    C2 3777   8.644   6.827   0.238
  630HECX    C1 3778   8.736   6.886   0.130
  630HECX    O1 3779   8.716   7.027   0.107
  630HECX    H1 3780   8.632   7.039   0.046
  631HECX    H6 3781   5.651   6.166   6.182
  631HECX    O2 3782   5.694   6.262   6.171
  631HECX    C2 3783   5.683   6.329   6.299
  631HECX    C1 3784   5.754   6.466   6.309
  631HECX    O1 3785   5.689   6.577   6.243
  631HECX    H1 3786   5.762   6.625   6.183
  632HECX    H6 3787   2.724   2.394   0.759
  632HECX    O2 3788   2.744   2.423   0.863
  632HECX    C2 3789   2.848   2.337   0.913
  632HECX    C1 3790   2.813   2.189   0.933
  632HECX    O1 3791   2.930   2.118   0.979
  632HECX    H1 3792   2.902   2.025   1.019
  633HECX    H6 3793   7.942   3.629   2.040
  633HECX    O2 3794   7.851   3.674   2.023
  633HECX    C2 3795   7.806   3.742   2.142
  633HECX    C1 3796   7.727   3.869   2.108
  633HECX    O1 3797   7.674   3.940   2.222
  633HECX    H1 3798   7.744   4.011   2.254
  634HECX    H6 3799   5.459   4.105   7.746
  634HECX    O2 3800   5.554   4.133   7.709
  634HECX    C2 3801   5.631   4.014   7.683
  634HECX    C1 3802   5.605   3.957   7.543
  634HECX    O1 3803   5.668   3.828   7.525
  634HECX    H1 3804   5.767   3.830   7.569
  635HECX    H6 3805   2.881   5.099   8.111
  635HECX    O2 3806   2.888   5.046   8.202
  635HECX    C2 3807   3.007   4.967   8.194
  635HECX    C1 3808   3.013   4.855   8.300
  635HECX    O1 3809   3.134   4.778   8.288
  635HECX    H1 3810   3.129   4.724   8.195
  636HECX    H6 3811   4.797   7.377   8.533
  636HECX    O2 3812   4.703   7.429   8.542
  636HECX    C2 3813   4.596   7.342   8.497
  636HECX    C1 3814   4.461   7.415   8.486
  636HECX    O1 3815   4.347   7.328   8.471
  636HECX    H1 3816   4.335   7.274   8.560
  637HECX    H6 3817   5.287   1.242   1.900
  637HECX    O2 3818   5.381   1.277   1.863
  637HECX    C2 3819   5.418   1.200   1.747
  637HECX    C1 3820   5.308   1.193   1.641
  637HECX    O1 3821   5.339   1.103   1.533
  637HECX    H1 3822   5.340   1.157   1.445
  638HECX    H6 3823   1.461   9.020   2.185
  638HECX    O2 3824   1.373   8.976   2.218
  638HECX    C2 3825   1.267   9.011   2.126
  638HECX    C1 3826   1.231   8.901   2.025
  638HECX    O1 3827   1.143   8.947   1.920
  638HECX    H1 3828   1.044   8.917   1.943
  639HECX    H6 3829   4.967   5.074   0.315
  639HECX    O2 3830   4.958   5.075   0.211
  639HECX    C2 3831   4.924   5.209   0.171
  639HECX    C1 3832   4.874   5.224   0.026
  639HECX    O1 3833   4.852   5.362   9.988
  639HECX    H1 3834   4.778   5.364   9.911
  640HECX    H6 3835   7.277   8.021   2.035
  640HECX    O2 3836   7.299   8.008   2.137
  640HECX    C2 3837   7.441   7.993   2.152
  640HECX    C1 3838   7.516   8.125   2.132
  640HECX    O1 3839   7.659   8.109   2.110
  640HECX    H1 3840   7.673   8.078   2.009
  641HECX    H6 3841   4.325   2.992   5.496
  641HECX    O2 3842   4.396   2.922   5.532
  641HECX    C2 3843   4.340   2.855   5.647
  641HECX    C1 3844   4.217   2.770   5.612
  641HECX    O1 3845   4.156   2.706   5.727
  641HECX    H1 3846   4.083   2.637   5.691
  642HECX    H6 3847   3.984   4.736   7.513
  642HECX    O2 3848   3.955   4.736   7.614
  642HECX    C2 3849   4.072   4.696   7.689
  642HECX    C1 3850   4.043   4.581   7.786
  642HECX    O1 3851   4.163   4.530   7.847
  642HECX    H1 3852   4.137   4.463   7.926
  643HECX    H6 3853   7.927   3.951   3.017
  643HECX    O2 3854   8.006   3.972   2.950
  643HECX    C2 3855   8.125   4.005   3.025
  643HECX    C1 3856   8.156   4.156   3.023
  643HECX    O1 3857   8.277   4.191   3.094
  643HECX    H1 3858   8.295   4.293   3.079
  644HECX    H6 3859   7.569   1.303   4.591
  644HECX    O2 3860   7.594   1.357   4.679
  644HECX    C2 3861   7.499   1.464   4.697
  644HECX    C1 3862   7.358   1.414   4.729
  644HECX    O1 3863   7.261   1.520   4.737
  644HECX    H1 3864   7.176   1.488   4.690
  645HECX    H6 3865   8.562   5.852   6.861
  645HECX    O2 3866   8.654   5.809   6.890
  645HECX    C2 3867   8.648   5.775   7.030
  645HECX    C1 3868   8.747   5.663   7.066
  645HECX    O1 3869   8.759   5.639   7.208
  645HECX    H1 3870   8.744   5.541   7.224
  646SOL     OW 3871   0.229   0.640   0.163
  646SOL    HW1 3872   0.165   0.597   0.227
  646SOL    HW2 3873   0.184   0.654   0.075
  647SOL     OW 3874   0.187   0.318   1.067
  647SOL    HW1 3875   0.248   0.262   1.123
  647SOL    HW2 3876   0.111   0.262   1.034
  648SOL     OW 3877   0.040   0.378   0.633
  648SOL    HW1 3878   9.995   0.465   0.656
  648SOL    HW2 3879   9.996   0.339   0.552
  649SOL     OW 3880   0.593   1.311   1.138
  649SOL    HW1 3881   0.506   1.280   1.175
  649SOL    HW2 3882   0.579   1.395   1.085
  650SOL     OW 3883   1.539   1.466   0.702
  650SOL    HW1 3884   1.469   1.409   0.746
  650SOL    HW2 3885   1.497   1.518   0.627
  651SOL     OW 3886   1.156   0.740   0.674
  651SOL    HW1 3887   1.207   0.827   0.676
  651SOL    HW2 3888   1.090   0.739   0.749
  652SOL     OW 3889   1.703   0.578   0.215
  652SOL    HW1 3890   1.628   0.600   0.153
  652SOL    HW2 3891   1.673   0.508   0.280
  653SOL     OW 3892   0.804   1.163   1.029
  653SOL    HW1 3893   0.731   1.225   1.058
  653SOL    HW2 3894   0.889   1.215   1.021
  654SOL     OW 3895   0.862   0.734   1.815
  654SOL    HW1 3896   0.844   0.794   1.892
  654SOL    HW2 3897   0.879   0.789   1.733
  655SOL     OW 3898   0.696   1.007   0.618
  655SOL    HW1 3899   0.769   1.001   0.686
  655SOL    HW2 3900   0.622   1.064   0.654
  656SOL     OW 3901   0.658   1.168   1.874
  656SOL    HW1 3902   0.719   1.246   1.891
  656SOL    HW2 3903   0.564   1.202   1.861
  657SOL     OW 3904   0.311   1.455   1.033
  657SOL    HW1 3905   0.245   1.432   0.962
  657SOL    HW2 3906   0.393   1.494   0.991
  658SOL     OW 3907   1.442   1.520   1.333
  658SOL    HW1 3908   1.497   1.601   1.352
  658SOL    HW2 3909   1.365   1.517   1.397
  659SOL     OW 3910   0.495   0.396   1.408
  659SOL    HW1 3911   0.554   0.338   1.464
  659SOL    HW2 3912   0.399   0.370   1.422
  660SOL     OW 3913   1.584   0.470   0.759
  660SOL    HW1 3914   1.504   0.479   0.700
  660SOL    HW2 3915   1.577   0.534   0.836
  661SOL     OW 3916   0.290   1.699   0.423
  661SOL    HW1 3917   0.234   1.778   0.445
  661SOL    HW2 3918   0.386   1.720   0.441
  662SOL     OW 3919   1.104   1.291   1.758
  662SOL    HW1 3920   1.153   1.288   1.846
  662SOL    HW2 3921   1.040   1.214   1.754
  663SOL     OW 3922   0.213   1.439   0.456
  663SOL    HW1 3923   0.253   1.530   0.451
  663SOL    HW2 3924   0.114   1.447   0.470
  664SOL     OW 3925   0.390   1.008   0.966
  664SOL    HW1 3926   0.355   0.919   0.937
  664SOL    HW2 3927   0.318   1.056   1.016
  665SOL     OW 3928   0.572   1.895   1.361
  665SOL    HW1 3929   0.525   1.857   1.441
  665SOL    HW2 3930   0.650   1.950   1.391
  666SOL     OW 3931   0.566   0.980   0.186
  666SOL    HW1 3932   0.521   1.057   0.139
  666SOL    HW2 3933   0.641   1.015   0.242
  667SOL     OW 3934   1.552   0.107   1.466
  667SOL    HW1 3935   1.599   0.137   1.383
  667SOL    HW2 3936   1.539   0.185   1.527
  668SOL     OW 3937   0.163   0.661   0.520
  668SOL    HW1 3938   0.121   0.610   0.445
  668SOL    HW2 3939   0.100   0.664   0.597
  669SOL     OW 3940   0.004   1.625   0.169
  669SOL    HW1 3941  10.000   1.525   0.166
  669SOL    HW2 3942   0.099   1.654   0.153
  670SOL     OW 3943   1.743   0.907   0.682
  670SOL    HW1 3944   1.807   0.834   0.657
  670SOL    HW2 3945   1.727   0.965   0.602
  671SOL     OW 3946   1.720   1.073   0.467
  671SOL    HW1 3947   1.801   1.075   0.408
  671SOL    HW2 3948   1.720   1.152   0.527
  672SOL     OW 3949   0.230   0.736   1.611
  672SOL    HW1 3950   0.329   0.723   1.620
  672SOL    HW2 3951   0.209   0.833   1.625
  673SOL     OW 3952   0.613   1.375   0.756
  673SOL    HW1 3953   0.570   1.285   0.753
  673SOL    HW2 3954   0.621   1.410   0.662
  674SOL     OW 3955   1.217   1.187   1.379
  674SOL    HW1 3956   1.213   1.103   1.326
  674SOL    HW2 3957   1.299   1.186   1.437
  675SOL     OW 3958   0.785   0.030   0.586
  675SOL    HW1 3959   0.858   0.063   0.525
  675SOL    HW2 3960   0.698   0.031   0.537
  676SOL     OW 3961   0.148   0.951   1.309
  676SOL    HW1 3962   0.227   0.890   1.316
  676SOL    HW2 3963   0.154   1.004   1.224
  677SOL     OW 3964   1.500   1.035   0.312
  677SOL    HW1 3965   1.460   0.945   0.323
  677SOL    HW2 3966   1.586   1.040   0.364
  678SOL     OW 3967   1.366   1.894   1.618
  678SOL    HW1 3968   1.295   1.943   1.567
  678SOL    HW2 3969   1.335   1.801   1.637
  679SOL     OW 3970   0.335   0.320   1.693
  679SOL    HW1 3971   0.431   0.302   1.715
  679SOL    HW2 3972   0.277   0.253   1.739
  680SOL     OW 3973   1.637   1.859   0.463
  680SOL    HW1 3974   1.628   1.789   0.392
  680SOL    HW2 3975   1.682   1.821   0.543
  681SOL     OW 3976   0.601   0.716   0.272
  681SOL    HW1 3977   0.594   0.810   0.240
  681SOL    HW2 3978   0.540   0.703   0.351
  682SOL     OW 3979   1.282   0.399   0.940
  682SOL    HW1 3980   1.194   0.352   0.944
  682SOL    HW2 3981   1.345   0.358   1.005
  683SOL     OW 3982   1.609   1.653   0.290
  683SOL    HW1 3983   1.707   1.650   0.273
  683SOL    HW2 3984   1.560   1.617   0.210
  684SOL     OW 3985   0.794   0.584   1.457
  684SOL    HW1 3986   0.755   0.542   1.540
  684SOL    HW2 3987   0.775   0.525   1.379
  685SOL     OW 3988   1.378   0.470   1.692
  685SOL    HW1 3989   1.381   0.528   1.774
  685SOL    HW2 3990   1.442   0.394   1.703
  686SOL     OW 3991   0.919   0.892   1.588
  686SOL    HW1 3992   0.980   0.826   1.544
  686SOL    HW2 3993   0.869   0.943   1.518
  687SOL     OW 3994   1.027   0.410   1.160
  687SOL    HW1 3995   0.933   0.435   1.182
  687SOL    HW2 3996   1.027   0.343   1.085
  688SOL     OW 3997   1.100   0.744   0.396
  688SOL    HW1 3998   1.111   0.739   0.495
  688SOL    HW2 3999   1.010   0.709   0.370
  689SOL     OW 4000   0.042   0.856   0.820
  689SOL    HW1 4001   0.135   0.830   0.846
  689SOL    HW2 4002   9.992   0.886   0.902
  690SOL     OW 4003   0.181   1.831   1.589
  690SOL    HW1 4004   0.177   1.836   1.688
  690SOL    HW2 4005   0.138   1.746   1.558
  691SOL     OW 4006   0.861   0.403   0.174
  691SOL    HW1 4007   0.853   0.416   0.075
  691SOL    HW2 4008   0.887   0.309   0.193
  692SOL     OW 4009   1.375   1.161   0.521
  692SOL    HW1 4010   1.420   1.127   0.439
  692SOL    HW2 4011   1.328   1.247   0.500
  693SOL     OW 4012   0.581   0.140   0.920
  693SOL    HW1 4013   0.595   0.183   1.009
  693SOL    HW2 4014   0.636   0.187   0.851
  694SOL     OW 4015   0.998   1.477   0.498
  694SOL    HW1 4016   0.971   1.560   0.449
  694SOL    HW2 4017   0.965   1.483   0.593
  695SOL     OW 4018   0.384   1.794   0.871
  695SOL    HW1 4019   0.434   1.709   0.888
  695SOL    HW2 4020   0.441   1.872   0.898
  696SOL     OW 4021   1.822   1.022   0.923
  696SOL    HW1 4022   1.787   0.996   0.833
  696SOL    HW2 4023   1.745   1.041   0.984
  697SOL     OW 4024   1.215   1.500   1.478
  697SOL    HW1 4025   1.175   1.413   1.449
  697SOL    HW2 4026   1.142   1.569   1.487
  698SOL     OW 4027   0.288   0.911   0.232
  698SOL    HW1 4028   0.386   0.931   0.231
  698SOL    HW2 4029   0.274   0.812   0.224
  699SOL     OW 4030   1.502   0.791   0.729
  699SOL    HW1 4031   1.492   0.742   0.815
  699SOL    HW2 4032   1.592   0.834   0.725
  700SOL     OW 4033   1.109   1.755   0.204
  700SOL    HW1 4034   1.042   1.731   0.274
  700SOL    HW2 4035   1.146   1.672   0.164
  701SOL     OW 4036   0.225   0.312   1.448
  701SOL    HW1 4037   0.190   0.402   1.423
  701SOL    HW2 4038   0.259   0.315   1.542
  702SOL     OW 4039   1.636   1.304   0.051
  702SOL    HW1 4040   1.604   1.398   0.057
  702SOL    HW2 4041   1.559   1.241   0.061
  703SOL     OW 4042   0.565   1.734   0.420
  703SOL    HW1 4043   0.580   1.828   0.451
  703SOL    HW2 4044   0.606   1.721   0.330
  704SOL     OW 4045   1.423   0.135   0.423
  704SOL    HW1 4046   1.413   0.104   0.329
  704SOL    HW2 4047   1.489   0.076   0.471
  705SOL     OW 4048   0.165   1.746   1.167
  705SOL    HW1 4049   0.236   1.685   1.204
  705SOL    HW2 4050   0.147   1.722   1.072
  706SOL     OW 4051   0.969   1.719   0.876
  706SOL    HW1 4052   1.068   1.704   0.867
  706SOL    HW2 4053   0.919   1.650   0.824
  707SOL     OW 4054   0.429   0.662   0.477
  707SOL    HW1 4055   0.457   0.569   0.503
  707SOL    HW2 4056   0.330   0.671   0.487
  708SOL     OW 4057   1.526   0.227   1.732
  708SOL    HW1 4058   1.505   0.255   1.825
  708SOL    HW2 4059   1.510   0.129   1.721
  709SOL     OW 4060   0.673   0.121   0.118
  709SOL    HW1 4061   0.771   0.120   0.134
  709SOL    HW2 4062   0.656   0.122   0.019
  710SOL     OW 4063   0.757   0.254   1.804
  710SOL    HW1 4064   0.812   0.170   1.800
  710SOL    HW2 4065   0.744   0.279   1.900
  711SOL     OW 4066   0.865   1.561   1.262
  711SOL    HW1 4067   0.887   1.592   1.170
  711SOL    HW2 4068   0.917   1.478   1.282
  712SOL     OW 4069   1.285   0.590   1.466
  712SOL    HW1 4070   1.322   0.552   1.550
  712SOL    HW2 4071   1.320   0.683   1.454
  713SOL     OW 4072   0.570   0.034   0.430
  713SOL    HW1 4073   0.477   0.002   0.443
  713SOL    HW2 4074   0.569   0.126   0.391
  714SOL     OW 4075   1.404   1.163   0.092
  714SOL    HW1 4076   1.446   1.107   0.164
  714SOL    HW2 4077   1.320   1.205   0.127
  715SOL     OW 4078   0.407   0.050   0.142
  715SOL    HW1 4079   0.505   0.066   0.148
  715SOL    HW2 4080   0.386   9.959   0.179
  716SOL     OW 4081   0.988   0.119   0.430
  716SOL    HW1 4082   0.992   0.212   0.467
  716SOL    HW2 4083   1.057   0.062   0.476
  717SOL     OW 4084   1.034   0.702   1.423
  717SOL    HW1 4085   0.954   0.645   1.441
  717SOL    HW2 4086   1.117   0.649   1.437
  718SOL     OW 4087   1.231   1.706   0.836
  718SOL    HW1 4088   1.265   1.745   0.750
  718SOL    HW2 4089   1.290   1.736   0.911
  719SOL     OW 4090   0.484   1.136   0.741
  719SOL    HW1 4091   0.459   1.089   0.825
  719SOL    HW2 4092   0.401   1.172   0.697
  720SOL     OW 4093   1.276   1.839   0.600
  720SOL    HW1 4094   1.321   1.901   0.536
  720SOL    HW2 4095   1.191   1.881   0.633
  721SOL     OW 4096   1.143   0.409   0.014
  721SOL    HW1 4097   1.047   0.424   9.993
  721SOL    HW2 4098   1.166   0.454   0.101
  722SOL     OW 4099   0.176   0.573   1.385
  722SOL    HW1 4100   0.251   0.585   1.320
  722SOL    HW2 4101   0.183   0.640   1.458
  723SOL     OW 4102   0.611   0.242   1.170
  723SOL    HW1 4103   0.677   0.216   1.241
  723SOL    HW2 4104   0.518   0.227   1.204
  724SOL     OW 4105   0.975   0.021   0.783
  724SOL    HW1 4106   0.900   0.036   0.720
  724SOL    HW2 4107   0.959   9.937   0.835
  725SOL     OW 4108   1.526   1.151   0.820
  725SOL    HW1 4109   1.447   1.119   0.767
  725SOL    HW2 4110   1.597   1.182   0.758
  726SOL     OW 4111   1.454   0.631   0.954
  726SOL    HW1 4112   1.386   0.557   0.954
  726SOL    HW2 4113   1.509   0.627   1.037
  727SOL     OW 4114   1.827   0.771   0.372
  727SOL    HW1 4115   1.854   0.731   0.459
  727SOL    HW2 4116   1.773   0.704   0.320
  728SOL     OW 4117   0.466   1.503   0.114
  728SOL    HW1 4118   0.397   1.440   0.151
  728SOL    HW2 4119   0.523   1.455   0.047
  729SOL     OW 4120   1.724   1.265   0.657
  729SOL    HW1 4121   1.820   1.282   0.679
  729SOL    HW2 4122   1.672   1.350   0.666
  730SOL     OW 4123   1.438   0.548   0.101
  730SOL    HW1 4124   1.357   0.545   0.158
  730SOL    HW2 4125   1.475   0.455   0.091
  731SOL     OW 4126   0.571   0.284   0.314
  731SOL    HW1 4127   0.623   0.231   0.247
  731SOL    HW2 4128   0.537   0.368   0.272
  732SOL     OW 4129   1.745   1.248   1.477
  732SOL    HW1 4130   1.838   1.212   1.466
  732SOL    HW2 4131   1.750   1.338   1.520
  733SOL     OW 4132   0.999   1.339   1.339
  733SOL    HW1 4133   0.912   1.289   1.342
  733SOL    HW2 4134   1.074   1.274   1.346
  734SOL     OW 4135   1.571   1.647   1.659
  734SOL    HW1 4136   1.549   1.705   1.581
  734SOL    HW2 4137   1.648   1.588   1.636
  735SOL     OW 4138   1.598   1.084   1.074
  735SOL    HW1 4139   1.583   1.158   1.139
  735SOL    HW2 4140   1.559   1.108   0.986
  736SOL     OW 4141   0.824   0.190   1.353
  736SOL    HW1 4142   0.858   0.127   1.283
  736SOL    HW2 4143   0.900   0.240   1.394
  737SOL     OW 4144   0.919   1.081   1.783
  737SOL    HW1 4145   0.823   1.099   1.807
  737SOL    HW2 4146   0.923   1.014   1.709
  738SOL     OW 4147   0.777   1.068   0.349
  738SOL    HW1 4148   0.757   1.038   0.443
  738SOL    HW2 4149   0.869   1.036   0.323
  739SOL     OW 4150   0.380   0.812   1.321
  739SOL    HW1 4151   0.468   0.829   1.365
  739SOL    HW2 4152   0.386   0.728   1.267
  740SOL     OW 4153   1.256   0.383   1.295
  740SOL    HW1 4154   1.270   0.461   1.355
  740SOL    HW2 4155   1.174   0.397   1.240
  741SOL     OW 4156   0.060   1.543   1.343
  741SOL    HW1 4157   0.041   1.616   1.278
  741SOL    HW2 4158   0.158   1.537   1.360
  742SOL     OW 4159   0.250   1.239   0.642
  742SOL    HW1 4160   0.246   1.304   0.566
  742SOL    HW2 4161   0.174   1.174   0.634
  743SOL     OW 4162   0.595   0.598   0.864
  743SOL    HW1 4163   0.575   0.672   0.800
  743SOL    HW2 4164   0.512   0.548   0.885
  744SOL     OW 4165   1.250   1.393   0.451
  744SOL    HW1 4166   1.313   1.469   0.464
  744SOL    HW2 4167   1.157   1.421   0.474
  745SOL     OW 4168   1.515   0.644   0.493
  745SOL    HW1 4169   1.510   0.692   0.580
  745SOL    HW2 4170   1.466   0.695   0.423
  746SOL     OW 4171   0.336   1.546   1.279
  746SOL    HW1 4172   0.325   1.511   1.186
  746SOL    HW2 4173   0.430   1.579   1.292
  747SOL     OW 4174   0.503   0.704   1.659
  747SOL    HW1 4175   0.542   0.750   1.580
  747SOL    HW2 4176   0.559   0.626   1.684
  748SOL     OW 4177   1.657   0.939   1.733
  748SOL    HW1 4178   1.557   0.940   1.735
  748SOL    HW2 4179   1.688   0.939   1.638
  749SOL     OW 4180   0.923   0.022   1.815
  749SOL    HW1 4181   0.987   0.074   1.871
  749SOL    HW2 4182   0.955   0.021   1.720
  750SOL     OW 4183   0.513   9.990   1.681
  750SOL    HW1 4184   0.580   9.916   1.680
  750SOL    HW2 4185   0.546   0.066   1.623
  751SOL     OW 4186   0.632   0.959   1.089
  751SOL    HW1 4187   0.695   1.034   1.068
  751SOL    HW2 4188   0.541   0.980   1.052
  752SOL     OW 4189   1.259   0.827   1.009
  752SOL    HW1 4190   1.176   0.802   0.960
  752SOL    HW2 4191   1.333   0.764   0.983
  753SOL     OW 4192   1.213   0.521   0.256
  753SOL    HW1 4193   1.233   0.454   0.328
  753SOL    HW2 4194   1.164   0.599   0.295
  754SOL     OW 4195   0.346   0.173   1.241
  754SOL    HW1 4196   0.297   0.211   1.320
  754SOL    HW2 4197   0.356   0.074   1.252
  755SOL     OW 4198   0.005   1.273   1.370
  755SOL    HW1 4199   0.082   1.234   1.422
  755SOL    HW2 4200   0.019   1.371   1.359
  756SOL     OW 4201   0.702   0.703   1.091
  756SOL    HW1 4202   0.667   0.664   1.007
  756SOL    HW2 4203   0.669   0.797   1.101
  757SOL     OW 4204   1.885   1.027   1.848
  757SOL    HW1 4205   1.797   0.993   1.816
  757SOL    HW2 4206   1.929   0.958   1.906
  758SOL     OW 4207   0.334   9.896   0.605
  758SOL    HW1 4208   0.338   9.990   0.571
  758SOL    HW2 4209   0.239   9.868   0.617
  759SOL     OW 4210   1.592   0.404   0.390
  759SOL    HW1 4211   1.641   0.343   0.452
  759SOL    HW2 4212   1.561   0.485   0.441
  760SOL     OW 4213   0.998   0.747   0.910
  760SOL    HW1 4214   0.984   0.759   1.009
  760SOL    HW2 4215   0.942   0.670   0.878
  761SOL     OW 4216   1.017   1.544   1.746
  761SOL    HW1 4217   0.998   1.592   1.660
  761SOL    HW2 4218   1.051   1.452   1.726
  762SOL     OW 4219   1.795   1.493   1.587
  762SOL    HW1 4220   1.866   1.528   1.526
  762SOL    HW2 4221   1.830   1.488   1.680
  763SOL     OW 4222   0.413   0.876   1.853
  763SOL    HW1 4223   0.481   0.901   1.921
  763SOL    HW2 4224   0.452   0.809   1.789
  764SOL     OW 4225   1.519   0.293   0.151
  764SOL    HW1 4226   1.477   0.202   0.150
  764SOL    HW2 4227   1.530   0.324   0.245
  765SOL     OW 4228   1.401   0.809   0.049
  765SOL    HW1 4229   1.411   0.709   0.051
  765SOL    HW2 4230   1.486   0.850   0.017
  766SOL     OW 4231   0.304   0.768   0.861
  766SOL    HW1 4232   0.375   0.782   0.793
  766SOL    HW2 4233   0.305   0.672   0.891
  767SOL     OW 4234   0.346   0.485   0.917
  767SOL    HW1 4235   0.286   0.438   0.982
  767SOL    HW2 4236   0.340   0.440   0.828
  768SOL     OW 4237   1.137   0.346   1.728
  768SOL    HW1 4238   1.080   0.409   1.782
  768SOL    HW2 4239   1.226   0.389   1.712
  769SOL     OW 4240   1.063   0.270   1.473
  769SOL    HW1 4241   1.086   0.299   1.566
  769SOL    HW2 4242   1.134   0.299   1.410
  770SOL     OW 4243   9.970   1.306   0.246
  770SOL    HW1 4244   9.886   1.280   0.197
  770SOL    HW2 4245   0.006   1.227   0.295
  771SOL     OW 4246   0.132   1.687   0.901
  771SOL    HW1 4247   0.141   1.593   0.868
  771SOL    HW2 4248   0.215   1.738   0.880
  772SOL     OW 4249   0.536   1.560   0.934
  772SOL    HW1 4250   0.604   1.632   0.946
  772SOL    HW2 4251   0.567   1.496   0.864
  773SOL     OW 4252   0.940   0.805   1.186
  773SOL    HW1 4253   0.976   0.761   1.268
  773SOL    HW2 4254   0.852   0.763   1.161
  774SOL     OW 4255   0.035   0.534   1.136
  774SOL    HW1 4256   0.094   0.456   1.116
  774SOL    HW2 4257   0.053   0.568   1.229
  775SOL     OW 4258   0.171   0.523   1.773
  775SOL    HW1 4259   0.237   0.456   1.740
  775SOL    HW2 4260   0.176   0.606   1.716
  776SOL     OW 4261   1.387   0.971   1.662
  776SOL    HW1 4262   1.397   1.067   1.636
  776SOL    HW2 4263   1.374   0.915   1.580
  777SOL     OW 4264   0.866   0.637   0.315
  777SOL    HW1 4265   0.871   0.547   0.272
  777SOL    HW2 4266   0.773   0.673   0.305
  778SOL     OW 4267   1.604   0.606   1.178
  778SOL    HW1 4268   1.549   0.558   1.247
  778SOL    HW2 4269   1.694   0.564   1.172
  779SOL     OW 4270   0.069   1.583   1.658
  779SOL    HW1 4271   0.100   1.640   1.734
  779SOL    HW2 4272   0.030   1.498   1.693
  780SOL     OW 4273   0.765   0.470   1.211
  780SOL    HW1 4274   0.701   0.397   1.188
  780SOL    HW2 4275   0.736   0.555   1.167
  781SOL     OW 4276   0.986   1.662   1.493
  781SOL    HW1 4277   0.932   1.613   1.424
  781SOL    HW2 4278   0.989   1.759   1.471
  782SOL     OW 4279   0.460   0.497   0.167
  782SOL    HW1 4280   0.533   0.559   0.194
  782SOL    HW2 4281   0.373   0.547   0.164
  783SOL     OW 4282   0.217   1.139   1.487
  783SOL    HW1 4283   0.223   1.103   1.580
  783SOL    HW2 4284   0.195   1.065   1.423
  784SOL     OW 4285   1.184   0.951   1.238
  784SOL    HW1 4286   1.228   0.922   1.153
  784SOL    HW2 4287   1.088   0.922   1.238
  785SOL     OW 4288   1.364   0.799   0.322
  785SOL    HW1 4289   1.269   0.785   0.348
  785SOL    HW2 4290   1.371   0.802   0.222
  786SOL     OW 4291   1.319   1.788   1.094
  786SOL    HW1 4292   1.417   1.807   1.101
  786SOL    HW2 4293   1.303   1.690   1.106
  787SOL     OW 4294   0.192   1.134   1.105
  787SOL    HW1 4295   0.248   1.199   1.156
  787SOL    HW2 4296   0.101   1.172   1.090
  788SOL     OW 4297   0.705   1.696   1.848
  788SOL    HW1 4298   0.666   1.782   1.817
  788SOL    HW2 4299   0.723   1.637   1.769
  789SOL     OW 4300   0.937   0.132   0.168
  789SOL    HW1 4301   1.022   0.123   0.116
  789SOL    HW2 4302   0.956   0.119   0.265
  790SOL     OW 4303   1.790   0.220   0.489
  790SOL    HW1 4304   1.788   0.208   0.390
  790SOL    HW2 4305   1.821   0.136   0.532
  791SOL     OW 4306   1.416   1.607   0.500
  791SOL    HW1 4307   1.477   1.629   0.423
  791SOL    HW2 4308   1.367   1.690   0.527
  792SOL     OW 4309   0.164   1.756   1.853
  792SOL    HW1 4310   0.103   1.702   1.911
  792SOL    HW2 4311   0.239   1.792   1.907
  793SOL     OW 4312   1.304   0.970   0.691
  793SOL    HW1 4313   1.381   0.908   0.703
  793SOL    HW2 4314   1.325   1.037   0.620
  794SOL     OW 4315   0.694   1.635   0.197
  794SOL    HW1 4316   0.765   1.588   0.144
  794SOL    HW2 4317   0.605   1.596   0.174
  795SOL     OW 4318   1.584   1.758   1.368
  795SOL    HW1 4319   1.580   1.785   1.271
  795SOL    HW2 4320   1.632   1.828   1.420
  796SOL     OW 4321   1.827   0.153   0.980
  796SOL    HW1 4322   1.874   0.084   0.925
  796SOL    HW2 4323   1.742   0.180   0.935
  797SOL     OW 4324   0.286   0.300   0.712
  797SOL    HW1 4325   0.193   0.330   0.691
  797SOL    HW2 4326   0.282   0.225   0.778
  798SOL     OW 4327   1.200   1.510   0.097
  798SOL    HW1 4328   1.187   1.421   0.142
  798SOL    HW2 4329   1.151   1.509   0.010
  799SOL     OW 4330   0.802   1.005   1.368
  799SOL    HW1 4331   0.834   0.972   1.279
  799SOL    HW2 4332   0.773   1.101   1.360
  800SOL     OW 4333   1.042   0.997   0.262
  800SOL    HW1 4334   1.075   0.984   0.168
  800SOL    HW2 4335   1.063   0.917   0.317
  801SOL     OW 4336   1.478   1.543   0.070
  801SOL    HW1 4337   1.383   1.529   0.097
  801SOL    HW2 4338   1.482   1.568   9.973
  802SOL     OW 4339   0.357   1.270   1.288
  802SOL    HW1 4340   0.349   1.368   1.302
  802SOL    HW2 4341   0.322   1.221   1.368
  803SOL     OW 4342   1.580   1.292   1.259
  803SOL    HW1 4343   1.640   1.271   1.337
  803SOL    HW2 4344   1.520   1.368   1.283
  804SOL     OW 4345   1.116   1.127   0.818
  804SOL    HW1 4346   1.029   1.079   0.803
  804SOL    HW2 4347   1.191   1.073   0.780
  805SOL     OW 4348   1.052   0.205   0.979
  805SOL    HW1 4349   1.036   0.157   0.893
  805SOL    HW2 4350   1.020   0.148   1.055
  806SOL     OW 4351   0.667   1.498   0.516
  806SOL    HW1 4352   0.703   1.449   0.436
  806SOL    HW2 4353   0.621   1.581   0.485
  807SOL     OW 4354   1.887   0.312   1.455
  807SOL    HW1 4355   1.923   0.405   1.448
  807SOL    HW2 4356   1.839   0.289   1.370
  808SOL     OW 4357   0.265   1.336   0.205
  808SOL    HW1 4358   0.171   1.321   0.172
  808SOL    HW2 4359   0.262   1.364   0.301
  809SOL     OW 4360   0.213   1.008   1.733
  809SOL    HW1 4361   0.190   1.093   1.781
  809SOL    HW2 4362   0.291   0.965   1.777
  810SOL     OW 4363   0.638   0.209   1.557
  810SOL    HW1 4364   0.706   0.192   1.485
  810SOL    HW2 4365   0.685   0.232   1.642
  811SOL     OW 4366   0.012   0.276   9.992
  811SOL    HW1 4367   9.927   0.259   9.943
  811SOL    HW2 4368   0.088   0.284   9.927
  812SOL     OW 4369   1.366   0.847   1.415
  812SOL    HW1 4370   1.290   0.882   1.360
  812SOL    HW2 4371   1.451   0.857   1.363
  813SOL     OW 4372   0.016   0.253   0.343
  813SOL    HW1 4373   0.105   0.262   0.299
  813SOL    HW2 4374   0.005   0.159   0.375
  814SOL     OW 4375   1.181   1.259   0.222
  814SOL    HW1 4376   1.124   1.179   0.239
  814SOL    HW2 4377   1.206   1.301   0.309
  815SOL     OW 4378   0.630   0.807   1.442
  815SOL    HW1 4379   0.681   0.888   1.414
  815SOL    HW2 4380   0.691   0.727   1.439
  816SOL     OW 4381   1.583   1.855   1.104
  816SOL    HW1 4382   1.571   1.949   1.071
  816SOL    HW2 4383   1.662   1.814   1.058
  817SOL     OW 4384   0.709   0.519   1.712
  817SOL    HW1 4385   0.764   0.588   1.757
  817SOL    HW2 4386   0.732   0.428   1.748
  818SOL     OW 4387   1.435   1.223   1.561
  818SOL    HW1 4388   1.393   1.307   1.594
  818SOL    HW2 4389   1.533   1.237   1.548
  819SOL     OW 4390   0.453   1.803   1.584
  819SOL    HW1 4391   0.354   1.817   1.580
  819SOL    HW2 4392   0.473   1.708   1.608
  820SOL     OW 4393   1.586   0.875   1.253
  820SOL    HW1 4394   1.600   0.784   1.213
  820SOL    HW2 4395   1.587   0.943   1.180
  821SOL     OW 4396   1.265   0.355   0.470
  821SOL    HW1 4397   1.324   0.275   0.455
  821SOL    HW2 4398   1.303   0.411   0.544
  822SOL     OW 4399   0.525   0.793   0.691
  822SOL    HW1 4400   0.587   0.868   0.668
  822SOL    HW2 4401   0.491   0.750   0.607
  823SOL     OW 4402   1.799   0.210   1.693
  823SOL    HW1 4403   1.825   0.246   1.604
  823SOL    HW2 4404   1.703   0.230   1.711
  824SOL     OW 4405   1.718   0.970   1.470
  824SOL    HW1 4406   1.712   1.070   1.470
  824SOL    HW2 4407   1.669   0.933   1.391
  825SOL     OW 4408   0.851   1.442   0.068
  825SOL    HW1 4409   0.771   1.405   0.020
  825SOL    HW2 4410   0.854   1.403   0.160
  826SOL     OW 4411   0.702   1.770   0.948
  826SOL    HW1 4412   0.661   1.861   0.940
  826SOL    HW2 4413   0.798   1.774   0.920
  827SOL     OW 4414   0.878   0.989   0.824
  827SOL    HW1 4415   0.913   0.901   0.858
  827SOL    HW2 4416   0.846   1.043   0.901
  828SOL     OW 4417   1.168   0.953   0.020
  828SOL    HW1 4418   1.184   1.021   9.949
  828SOL    HW2 4419   1.251   0.897   0.032
  829SOL     OW 4420   1.705   1.580   0.887
  829SOL    HW1 4421   1.644   1.542   0.818
  829SOL    HW2 4422   1.724   1.511   0.957
  830SOL     OW 4423   0.156   1.244   1.858
  830SOL    HW1 4424   0.084   1.277   1.798
  830SOL    HW2 4425   0.140   1.278   1.951
  831SOL     OW 4426   0.032   1.067   0.636
  831SOL    HW1 4427   9.944   1.108   0.659
  831SOL    HW2 4428   0.046   0.986   0.693
  832SOL     OW 4429   1.672   0.145   1.216
  832SOL    HW1 4430   1.639   0.050   1.210
  832SOL    HW2 4431   1.739   0.161   1.143
  833SOL     OW 4432   0.490   0.412   0.554
  833SOL    HW1 4433   0.527   0.352   0.483
  833SOL    HW2 4434   0.424   0.362   0.610
  834SOL     OW 4435   1.754   1.402   1.081
  834SOL    HW1 4436   1.678   1.364   1.133
  834SOL    HW2 4437   1.839   1.387   1.132
  835SOL     OW 4438   0.395   0.563   1.213
  835SOL    HW1 4439   0.449   0.506   1.274
  835SOL    HW2 4440   0.408   0.534   1.119
  836SOL     OW 4441   0.847   1.530   0.726
  836SOL    HW1 4442   0.786   1.546   0.649
  836SOL    HW2 4443   0.812   1.455   0.782
  837SOL     OW 4444   1.452   0.292   1.125
  837SOL    HW1 4445   1.528   0.243   1.170
  837SOL    HW2 4446   1.383   0.315   1.194
  838SOL     OW 4447   0.931   0.027   1.159
  838SOL    HW1 4448   0.847   9.995   1.114
  838SOL    HW2 4449   0.981   9.949   1.196
  839SOL     OW 4450   0.820   1.344   0.327
  839SOL    HW1 4451   0.802   1.246   0.335
  839SOL    HW2 4452   0.894   1.370   0.389
  840SOL     OW 4453   0.594   1.630   1.285
  840SOL    HW1 4454   0.591   1.729   1.299
  840SOL    HW2 4455   0.690   1.601   1.279
  841SOL     OW 4456   1.413   0.031   0.168
  841SOL    HW1 4457   1.501   9.993   0.140
  841SOL    HW2 4458   1.355   9.959   0.206
  842SOL     OW 4459   1.319   0.507   0.689
  842SOL    HW1 4460   1.269   0.593   0.679
  842SOL    HW2 4461   1.298   0.467   0.778
  843SOL     OW 4462   1.579   0.226   0.884
  843SOL    HW1 4463   1.526   0.245   0.967
  843SOL    HW2 4464   1.584   0.309   0.828
  844SOL     OW 4465   0.084   1.080   0.366
  844SOL    HW1 4466   0.164   1.023   0.345
  844SOL    HW2 4467   0.061   1.070   0.463
  845SOL     OW 4468   0.903   1.700   0.373
  845SOL    HW1 4469   0.823   1.682   0.315
  845SOL    HW2 4470   0.888   1.783   0.426
  846SOL     OW 4471   0.230   0.498   2.039
  846SOL    HW1 4472   0.200   0.578   2.091
  846SOL    HW2 4473   0.207   0.509   1.943
  847SOL     OW 4474   0.208   0.278   2.871
  847SOL    HW1 4475   0.262   0.244   2.948
  847SOL    HW2 4476   0.162   0.202   2.826
  848SOL     OW 4477   9.962   0.336   2.578
  848SOL    HW1 4478   9.933   0.431   2.588
  848SOL    HW2 4479   9.898   0.287   2.519
  849SOL     OW 4480   0.585   1.298   3.142
  849SOL    HW1 4481   0.508   1.283   3.203
  849SOL    HW2 4482   0.584   1.393   3.110
  850SOL     OW 4483   1.605   1.484   2.531
  850SOL    HW1 4484   1.559   1.451   2.613
  850SOL    HW2 4485   1.538   1.519   2.466
  851SOL     OW 4486   1.097   0.723   2.527
  851SOL    HW1 4487   1.154   0.806   2.528
  851SOL    HW2 4488   1.040   0.721   2.609
  852SOL     OW 4489   0.714   1.130   2.969
  852SOL    HW1 4490   0.656   1.179   3.033
  852SOL    HW2 4491   0.757   1.194   2.906
  853SOL     OW 4492   0.916   0.749   3.643
  853SOL    HW1 4493   0.939   0.815   3.714
  853SOL    HW2 4494   0.915   0.795   3.554
  854SOL     OW 4495   0.721   0.980   2.513
  854SOL    HW1 4496   0.782   0.983   2.593
  854SOL    HW2 4497   0.632   1.018   2.538
  855SOL     OW 4498   0.690   1.159   3.700
  855SOL    HW1 4499   0.742   1.236   3.736
  855SOL    HW2 4500   0.616   1.193   3.642
  856SOL     OW 4501   0.256   1.404   2.896
  856SOL    HW1 4502   0.183   1.428   2.831
  856SOL    HW2 4503   0.345   1.424   2.854
  857SOL     OW 4504   1.443   1.495   3.236
  857SOL    HW1 4505   1.497   1.578   3.253
  857SOL    HW2 4506   1.363   1.494   3.295
  858SOL     OW 4507   0.475   0.439   3.375
  858SOL    HW1 4508   0.551   0.387   3.335
  858SOL    HW2 4509   0.424   0.381   3.437
  859SOL     OW 4510   1.550   0.460   2.599
  859SOL    HW1 4511   1.468   0.465   2.542
  859SOL    HW2 4512   1.543   0.527   2.673
  860SOL     OW 4513   0.294   1.674   2.375
  860SOL    HW1 4514   0.220   1.742   2.380
  860SOL    HW2 4515   0.367   1.709   2.317
  861SOL     OW 4516   1.152   1.320   3.571
  861SOL    HW1 4517   1.237   1.284   3.610
  861SOL    HW2 4518   1.082   1.249   3.573
  862SOL     OW 4519   0.265   1.405   2.340
  862SOL    HW1 4520   0.266   1.504   2.354
  862SOL    HW2 4521   0.207   1.362   2.408
  863SOL     OW 4522   0.264   1.047   2.721
  863SOL    HW1 4523   0.277   0.950   2.741
  863SOL    HW2 4524   0.220   1.091   2.799
  864SOL     OW 4525   0.564   1.815   3.234
  864SOL    HW1 4526   0.486   1.803   3.296
  864SOL    HW2 4527   0.636   1.867   3.280
  865SOL     OW 4528   0.575   0.981   2.058
  865SOL    HW1 4529   0.603   1.042   1.984
  865SOL    HW2 4530   0.615   1.013   2.144
  866SOL     OW 4531   1.558   0.157   3.339
  866SOL    HW1 4532   1.629   0.220   3.306
  866SOL    HW2 4533   1.525   0.188   3.428
  867SOL     OW 4534   0.147   0.751   2.437
  867SOL    HW1 4535   0.049   0.770   2.428
  867SOL    HW2 4536   0.172   0.746   2.534
  868SOL     OW 4537   1.857   1.756   2.168
  868SOL    HW1 4538   1.943   1.737   2.215
  868SOL    HW2 4539   1.862   1.847   2.127
  869SOL     OW 4540   0.017   1.597   2.004
  869SOL    HW1 4541   0.057   1.511   2.036
  869SOL    HW2 4542   9.945   1.625   2.069
  870SOL     OW 4543   1.720   0.939   2.542
  870SOL    HW1 4544   1.806   0.932   2.492
  870SOL    HW2 4545   1.662   1.009   2.501
  871SOL     OW 4546   1.599   1.120   2.379
  871SOL    HW1 4547   1.624   1.068   2.297
  871SOL    HW2 4548   1.659   1.199   2.389
  872SOL     OW 4549   0.187   0.750   3.469
  872SOL    HW1 4550   0.283   0.728   3.455
  872SOL    HW2 4551   0.178   0.841   3.509
  873SOL     OW 4552   0.632   1.334   2.596
  873SOL    HW1 4553   0.594   1.242   2.606
  873SOL    HW2 4554   0.603   1.373   2.509
  874SOL     OW 4555   1.253   1.201   3.279
  874SOL    HW1 4556   1.273   1.132   3.209
  874SOL    HW2 4557   1.325   1.200   3.348
  875SOL     OW 4558   0.910   0.105   2.472
  875SOL    HW1 4559   0.937   0.195   2.437
  875SOL    HW2 4560   0.824   0.077   2.429
  876SOL     OW 4561   0.175   0.963   3.139
  876SOL    HW1 4562   0.265   0.920   3.138
  876SOL    HW2 4563   0.167   1.026   3.062
  877SOL     OW 4564   1.175   1.778   3.491
  877SOL    HW1 4565   1.196   1.851   3.427
  877SOL    HW2 4566   1.196   1.690   3.450
  878SOL     OW 4567   0.326   0.276   3.537
  878SOL    HW1 4568   0.384   0.196   3.549
  878SOL    HW2 4569   0.243   0.267   3.592
  879SOL     OW 4570   1.491   1.398   2.766
  879SOL    HW1 4571   1.428   1.436   2.835
  879SOL    HW2 4572   1.472   1.301   2.753
  880SOL     OW 4573   1.637   1.877   2.372
  880SOL    HW1 4574   1.628   1.808   2.299
  880SOL    HW2 4575   1.661   1.832   2.458
  881SOL     OW 4576   0.581   0.711   2.144
  881SOL    HW1 4577   0.586   0.804   2.110
  881SOL    HW2 4578   0.522   0.708   2.225
  882SOL     OW 4579   1.252   0.461   2.816
  882SOL    HW1 4580   1.159   0.468   2.852
  882SOL    HW2 4581   1.291   0.372   2.840
  883SOL     OW 4582   1.594   1.687   2.173
  883SOL    HW1 4583   1.693   1.696   2.164
  883SOL    HW2 4584   1.553   1.678   2.082
  884SOL     OW 4585   0.820   0.632   3.290
  884SOL    HW1 4586   0.812   0.574   3.371
  884SOL    HW2 4587   0.791   0.580   3.210
  885SOL     OW 4588   1.363   0.476   3.505
  885SOL    HW1 4589   1.364   0.532   3.588
  885SOL    HW2 4590   1.411   0.390   3.523
  886SOL     OW 4591   0.950   0.919   3.417
  886SOL    HW1 4592   1.013   0.859   3.368
  886SOL    HW2 4593   0.890   0.965   3.352
  887SOL     OW 4594   0.994   0.458   2.922
  887SOL    HW1 4595   0.930   0.493   2.991
  887SOL    HW2 4596   0.945   0.403   2.855
  888SOL     OW 4597   1.043   0.719   2.257
  888SOL    HW1 4598   1.054   0.716   2.356
  888SOL    HW2 4599   0.960   0.670   2.231
  889SOL     OW 4600   0.041   0.782   2.759
  889SOL    HW1 4601   0.135   0.790   2.793
  889SOL    HW2 4602   9.981   0.842   2.812
  890SOL     OW 4603   0.087   1.848   3.401
  890SOL    HW1 4604   0.058   1.777   3.465
  890SOL    HW2 4605   0.007   1.895   3.365
  891SOL     OW 4606   0.908   0.325   2.061
  891SOL    HW1 4607   0.932   0.402   2.002
  891SOL    HW2 4608   0.968   0.248   2.042
  892SOL     OW 4609   1.641   0.576   3.706
  892SOL    HW1 4610   1.644   0.659   3.651
  892SOL    HW2 4611   1.675   0.499   3.653
  893SOL     OW 4612   1.353   1.178   2.471
  893SOL    HW1 4613   1.441   1.161   2.427
  893SOL    HW2 4614   1.303   1.247   2.418
  894SOL     OW 4615   0.976   1.496   2.331
  894SOL    HW1 4616   0.983   1.579   2.275
  894SOL    HW2 4617   0.920   1.515   2.411
  895SOL     OW 4618   0.546   1.712   2.552
  895SOL    HW1 4619   0.470   1.654   2.524
  895SOL    HW2 4620   0.566   1.696   2.649
  896SOL     OW 4621   1.794   0.898   2.801
  896SOL    HW1 4622   1.766   0.913   2.706
  896SOL    HW2 4623   1.753   0.967   2.860
  897SOL     OW 4624   1.205   1.514   3.377
  897SOL    HW1 4625   1.199   1.447   3.452
  897SOL    HW2 4626   1.141   1.487   3.304
  898SOL     OW 4627   0.296   0.962   2.152
  898SOL    HW1 4628   0.383   0.964   2.103
  898SOL    HW2 4629   0.257   0.870   2.147
  899SOL     OW 4630   1.494   0.781   2.563
  899SOL    HW1 4631   1.488   0.732   2.650
  899SOL    HW2 4632   1.581   0.829   2.558
  900SOL     OW 4633   0.482   1.290   3.566
  900SOL    HW1 4634   0.456   1.288   3.469
  900SOL    HW2 4635   0.401   1.304   3.622
  901SOL     OW 4636   1.119   1.811   2.000
  901SOL    HW1 4637   1.054   1.790   2.073
  901SOL    HW2 4638   1.160   1.726   1.966
  902SOL     OW 4639   0.163   0.265   3.312
  902SOL    HW1 4640   0.134   0.355   3.279
  902SOL    HW2 4641   0.227   0.276   3.388
  903SOL     OW 4642   0.509   1.764   2.220
  903SOL    HW1 4643   0.559   1.831   2.275
  903SOL    HW2 4644   0.573   1.700   2.178
  904SOL     OW 4645   1.453   0.194   2.287
  904SOL    HW1 4646   1.418   0.119   2.231
  904SOL    HW2 4647   1.553   0.190   2.289
  905SOL     OW 4648   0.147   1.711   3.083
  905SOL    HW1 4649   0.219   1.643   3.097
  905SOL    HW2 4650   0.110   1.702   2.990
  906SOL     OW 4651   0.926   1.689   2.724
  906SOL    HW1 4652   1.020   1.654   2.723
  906SOL    HW2 4653   0.873   1.645   2.651
  907SOL     OW 4654   0.423   0.686   2.365
  907SOL    HW1 4655   0.427   0.589   2.391
  907SOL    HW2 4656   0.332   0.722   2.387
  908SOL     OW 4657   1.461   0.229   3.593
  908SOL    HW1 4658   1.468   0.248   3.691
  908SOL    HW2 4659   1.397   0.153   3.579
  909SOL     OW 4660   0.548   0.036   1.950
  909SOL    HW1 4661   0.585   9.956   1.998
  909SOL    HW2 4662   0.542   0.016   1.852
  910SOL     OW 4663   0.789   0.249   3.640
  910SOL    HW1 4664   0.833   0.159   3.642
  910SOL    HW2 4665   0.750   0.270   3.730
  911SOL     OW 4666   0.841   1.490   3.041
  911SOL    HW1 4667   0.831   1.436   2.957
  911SOL    HW2 4668   0.919   1.455   3.093
  912SOL     OW 4669   1.298   0.582   3.259
  912SOL    HW1 4670   1.327   0.546   3.347
  912SOL    HW2 4671   1.339   0.673   3.245
  913SOL     OW 4672   0.813   1.332   2.812
  913SOL    HW1 4673   0.907   1.348   2.781
  913SOL    HW2 4674   0.751   1.333   2.733
  914SOL     OW 4675   0.679   0.024   2.343
  914SOL    HW1 4676   0.610   0.025   2.416
  914SOL    HW2 4677   0.659   0.095   2.276
  915SOL     OW 4678   0.287   0.052   2.016
  915SOL    HW1 4679   0.384   0.055   1.993
  915SOL    HW2 4680   0.262   9.958   2.040
  916SOL     OW 4681   0.970   0.336   2.333
  916SOL    HW1 4682   0.936   0.331   2.239
  916SOL    HW2 4683   1.069   0.345   2.333
  917SOL     OW 4684   1.068   0.734   3.256
  917SOL    HW1 4685   0.983   0.684   3.275
  917SOL    HW2 4686   1.145   0.671   3.259
  918SOL     OW 4687   1.188   1.620   2.678
  918SOL    HW1 4688   1.225   1.666   2.597
  918SOL    HW2 4689   1.230   1.659   2.760
  919SOL     OW 4690   0.490   1.104   2.580
  919SOL    HW1 4691   0.415   1.082   2.643
  919SOL    HW2 4692   0.452   1.117   2.488
  920SOL     OW 4693   1.265   1.803   2.474
  920SOL    HW1 4694   1.307   1.870   2.412
  920SOL    HW2 4695   1.188   1.846   2.520
  921SOL     OW 4696   1.007   0.516   1.895
  921SOL    HW1 4697   0.962   0.601   1.869
  921SOL    HW2 4698   1.075   0.534   1.966
  922SOL     OW 4699   0.101   0.518   3.212
  922SOL    HW1 4700   0.195   0.546   3.192
  922SOL    HW2 4701   0.048   0.598   3.240
  923SOL     OW 4702   0.593   0.326   3.119
  923SOL    HW1 4703   0.666   0.259   3.134
  923SOL    HW2 4704   0.506   0.278   3.109
  924SOL     OW 4705   0.817   0.473   2.530
  924SOL    HW1 4706   0.771   0.557   2.502
  924SOL    HW2 4707   0.869   0.435   2.453
  925SOL     OW 4708   1.009   9.977   2.711
  925SOL    HW1 4709   0.981   0.032   2.632
  925SOL    HW2 4710   0.972   9.884   2.701
  926SOL     OW 4711   1.446   1.135   2.734
  926SOL    HW1 4712   1.403   1.052   2.771
  926SOL    HW2 4713   1.412   1.151   2.642
  927SOL     OW 4714   1.455   0.646   2.800
  927SOL    HW1 4715   1.379   0.582   2.810
  927SOL    HW2 4716   1.518   0.635   2.877
  928SOL     OW 4717   1.914   0.927   2.342
  928SOL    HW1 4718   1.924   0.829   2.360
  928SOL    HW2 4719   1.840   0.941   2.276
  929SOL     OW 4720   1.780   1.320   2.388
  929SOL    HW1 4721   1.868   1.304   2.433
  929SOL    HW2 4722   1.728   1.389   2.440
  930SOL     OW 4723   1.369   0.619   1.920
  930SOL    HW1 4724   1.310   0.581   1.991
  930SOL    HW2 4725   1.457   0.645   1.960
  931SOL     OW 4726   0.578   0.206   2.157
  931SOL    HW1 4727   0.574   0.148   2.075
  931SOL    HW2 4728   0.560   0.301   2.131
  932SOL     OW 4729   1.731   1.240   3.405
  932SOL    HW1 4730   1.822   1.202   3.397
  932SOL    HW2 4731   1.735   1.327   3.455
  933SOL     OW 4732   1.039   1.353   3.207
  933SOL    HW1 4733   0.954   1.332   3.256
  933SOL    HW2 4734   1.112   1.296   3.243
  934SOL     OW 4735   1.590   1.646   3.538
  934SOL    HW1 4736   1.579   1.683   3.446
  934SOL    HW2 4737   1.665   1.581   3.539
  935SOL     OW 4738   1.161   1.271   2.975
  935SOL    HW1 4739   1.103   1.300   3.052
  935SOL    HW2 4740   1.120   1.302   2.889
  936SOL     OW 4741   1.631   1.085   2.948
  936SOL    HW1 4742   1.626   1.157   3.017
  936SOL    HW2 4743   1.571   1.108   2.871
  937SOL     OW 4744   0.827   0.179   3.179
  937SOL    HW1 4745   0.858   0.121   3.103
  937SOL    HW2 4746   0.906   0.215   3.228
  938SOL     OW 4747   0.958   1.126   3.592
  938SOL    HW1 4748   0.864   1.141   3.621
  938SOL    HW2 4749   0.960   1.053   3.524
  939SOL     OW 4750   0.744   1.089   2.257
  939SOL    HW1 4751   0.735   1.056   2.351
  939SOL    HW2 4752   0.813   1.034   2.209
  940SOL     OW 4753   0.421   0.840   3.152
  940SOL    HW1 4754   0.496   0.849   3.218
  940SOL    HW2 4755   0.390   0.745   3.150
  941SOL     OW 4756   1.194   0.368   3.115
  941SOL    HW1 4757   1.237   0.448   3.158
  941SOL    HW2 4758   1.125   0.399   3.050
  942SOL     OW 4759   0.062   1.557   3.299
  942SOL    HW1 4760   0.079   1.624   3.227
  942SOL    HW2 4761   0.142   1.551   3.358
  943SOL     OW 4762   0.372   1.143   2.344
  943SOL    HW1 4763   0.330   1.232   2.325
  943SOL    HW2 4764   0.339   1.076   2.277
  944SOL     OW 4765   0.518   0.519   2.702
  944SOL    HW1 4766   0.524   0.497   2.605
  944SOL    HW2 4767   0.598   0.573   2.729
  945SOL     OW 4768   1.233   1.382   2.316
  945SOL    HW1 4769   1.299   1.456   2.331
  945SOL    HW2 4770   1.141   1.417   2.329
  946SOL     OW 4771   1.345   1.471   2.986
  946SOL    HW1 4772   1.384   1.480   3.077
  946SOL    HW2 4773   1.282   1.393   2.984
  947SOL     OW 4774   1.449   0.640   2.328
  947SOL    HW1 4775   1.466   0.684   2.417
  947SOL    HW2 4776   1.396   0.703   2.270
  948SOL     OW 4777   0.331   1.514   3.130
  948SOL    HW1 4778   0.301   1.464   3.049
  948SOL    HW2 4779   0.426   1.542   3.119
  949SOL     OW 4780   0.455   0.698   3.470
  949SOL    HW1 4781   0.522   0.756   3.424
  949SOL    HW2 4782   0.467   0.603   3.441
  950SOL     OW 4783   1.628   0.805   3.561
  950SOL    HW1 4784   1.534   0.836   3.546
  950SOL    HW2 4785   1.686   0.836   3.486
  951SOL     OW 4786   0.930   0.000   3.662
  951SOL    HW1 4787   0.991   0.060   3.715
  951SOL    HW2 4788   0.961   9.998   3.567
  952SOL     OW 4789   0.499   0.053   3.546
  952SOL    HW1 4790   0.485   9.962   3.508
  952SOL    HW2 4791   0.558   0.106   3.485
  953SOL     OW 4792   0.555   0.901   2.922
  953SOL    HW1 4793   0.605   0.987   2.929
  953SOL    HW2 4794   0.506   0.884   3.007
  954SOL     OW 4795   1.330   0.897   2.818
  954SOL    HW1 4796   1.281   0.903   2.731
  954SOL    HW2 4797   1.376   0.809   2.825
  955SOL     OW 4798   1.183   0.534   2.106
  955SOL    HW1 4799   1.213   0.462   2.168
  955SOL    HW2 4800   1.138   0.607   2.159
  956SOL     OW 4801   0.345   0.198   3.098
  956SOL    HW1 4802   0.279   0.198   3.172
  956SOL    HW2 4803   0.355   0.105   3.062
  957SOL     OW 4804   9.996   1.308   3.203
  957SOL    HW1 4805   0.045   1.243   3.261
  957SOL    HW2 4806   0.012   1.401   3.236
  958SOL     OW 4807   0.696   0.684   2.832
  958SOL    HW1 4808   0.777   0.710   2.780
  958SOL    HW2 4809   0.643   0.766   2.855
  959SOL     OW 4810   1.748   1.003   3.720
  959SOL    HW1 4811   1.710   0.923   3.673
  959SOL    HW2 4812   1.688   1.028   3.796
  960SOL     OW 4813   0.481   0.029   2.536
  960SOL    HW1 4814   0.427   0.091   2.479
  960SOL    HW2 4815   0.459   9.934   2.513
  961SOL     OW 4816   1.575   0.459   2.171
  961SOL    HW1 4817   1.622   0.384   2.219
  961SOL    HW2 4818   1.523   0.513   2.237
  962SOL     OW 4819   0.976   0.720   2.784
  962SOL    HW1 4820   0.972   0.758   2.877
  962SOL    HW2 4821   0.983   0.620   2.789
  963SOL     OW 4822   1.005   1.534   3.651
  963SOL    HW1 4823   0.979   1.595   3.576
  963SOL    HW2 4824   1.054   1.455   3.615
  964SOL     OW 4825   1.808   1.479   3.529
  964SOL    HW1 4826   1.873   1.517   3.464
  964SOL    HW2 4827   1.841   1.495   3.622
  965SOL     OW 4828   0.394   0.847   3.703
  965SOL    HW1 4829   0.474   0.865   3.760
  965SOL    HW2 4830   0.420   0.785   3.628
  966SOL     OW 4831   1.454   0.291   1.980
  966SOL    HW1 4832   1.407   0.218   2.029
  966SOL    HW2 4833   1.493   0.356   2.046
  967SOL     OW 4834   1.292   0.879   1.901
  967SOL    HW1 4835   1.314   0.781   1.901
  967SOL    HW2 4836   1.324   0.920   1.816
  968SOL     OW 4837   1.070   1.374   2.739
  968SOL    HW1 4838   1.083   1.292   2.683
  968SOL    HW2 4839   1.122   1.450   2.700
  969SOL     OW 4840   0.313   0.793   2.822
  969SOL    HW1 4841   0.402   0.831   2.846
  969SOL    HW2 4842   0.312   0.695   2.844
  970SOL     OW 4843   0.333   0.524   2.889
  970SOL    HW1 4844   0.277   0.441   2.883
  970SOL    HW2 4845   0.405   0.520   2.820
  971SOL     OW 4846   1.126   0.357   3.570
  971SOL    HW1 4847   1.077   0.420   3.630
  971SOL    HW2 4848   1.210   0.400   3.538
  972SOL     OW 4849   1.049   0.253   3.319
  972SOL    HW1 4850   1.070   0.295   3.408
  972SOL    HW2 4851   1.112   0.289   3.250
  973SOL     OW 4852   9.901   1.253   2.209
  973SOL    HW1 4853   9.804   1.234   2.224
  973SOL    HW2 4854   9.946   1.171   2.175
  974SOL     OW 4855   0.489   1.474   2.785
  974SOL    HW1 4856   0.549   1.550   2.810
  974SOL    HW2 4857   0.535   1.416   2.717
  975SOL     OW 4858   0.925   0.809   3.032
  975SOL    HW1 4859   0.992   0.805   3.106
  975SOL    HW2 4860   0.839   0.767   3.062
  976SOL     OW 4861   9.988   0.401   2.989
  976SOL    HW1 4862   0.065   0.359   2.940
  976SOL    HW2 4863   0.022   0.442   3.074
  977SOL     OW 4864   0.184   0.532   3.638
  977SOL    HW1 4865   0.267   0.487   3.604
  977SOL    HW2 4866   0.164   0.612   3.582
  978SOL     OW 4867   1.391   0.917   3.480
  978SOL    HW1 4868   1.411   1.015   3.477
  978SOL    HW2 4869   1.378   0.883   3.386
  979SOL     OW 4870   0.826   0.589   2.170
  979SOL    HW1 4871   0.815   0.492   2.149
  979SOL    HW2 4872   0.738   0.635   2.166
  980SOL     OW 4873   1.616   0.603   3.014
  980SOL    HW1 4874   1.569   0.550   3.085
  980SOL    HW2 4875   1.706   0.563   2.997
  981SOL     OW 4876   0.261   1.586   3.553
  981SOL    HW1 4877   0.229   1.648   3.625
  981SOL    HW2 4878   0.273   1.494   3.592
  982SOL     OW 4879   0.755   0.531   3.049
  982SOL    HW1 4880   0.693   0.454   3.069
  982SOL    HW2 4881   0.725   0.576   2.965
  983SOL     OW 4882   0.890   1.676   3.434
  983SOL    HW1 4883   0.833   1.609   3.386
  983SOL    HW2 4884   0.929   1.740   3.367
  984SOL     OW 4885   0.500   0.454   2.078
  984SOL    HW1 4886   0.539   0.545   2.094
  984SOL    HW2 4887   0.402   0.462   2.062
  985SOL     OW 4888   0.162   1.141   3.345
  985SOL    HW1 4889   0.165   1.097   3.435
  985SOL    HW2 4890   0.164   1.070   3.274
  986SOL     OW 4891   1.277   1.034   3.050
  986SOL    HW1 4892   1.295   0.978   2.970
  986SOL    HW2 4893   1.234   1.120   3.022
  987SOL     OW 4894   1.297   0.819   2.185
  987SOL    HW1 4895   1.202   0.799   2.210
  987SOL    HW2 4896   1.300   0.855   2.092
  988SOL     OW 4897   1.716   1.700   3.024
  988SOL    HW1 4898   1.809   1.734   3.011
  988SOL    HW2 4899   1.710   1.605   2.994
  989SOL     OW 4900   1.280   1.725   2.913
  989SOL    HW1 4901   1.363   1.781   2.917
  989SOL    HW2 4902   1.301   1.633   2.948
  990SOL     OW 4903   0.148   1.156   2.942
  990SOL    HW1 4904   0.194   1.244   2.940
  990SOL    HW2 4905   0.049   1.169   2.950
  991SOL     OW 4906   0.729   1.714   3.652
  991SOL    HW1 4907   0.660   1.780   3.624
  991SOL    HW2 4908   0.803   1.711   3.585
  992SOL     OW 4909   1.735   0.224   2.292
  992SOL    HW1 4910   1.793   0.233   2.211
  992SOL    HW2 4911   1.759   0.141   2.342
  993SOL     OW 4912   1.413   1.592   2.363
  993SOL    HW1 4913   1.472   1.624   2.288
  993SOL    HW2 4914   1.359   1.668   2.398
  994SOL     OW 4915   0.192   1.743   3.769
  994SOL    HW1 4916   0.143   1.693   3.840
  994SOL    HW2 4917   0.271   1.789   3.809
  995SOL     OW 4918   1.269   0.933   2.545
  995SOL    HW1 4919   1.348   0.872   2.537
  995SOL    HW2 4920   1.291   1.022   2.503
  996SOL     OW 4921   0.794   1.310   3.315
  996SOL    HW1 4922   0.767   1.362   3.396
  996SOL    HW2 4923   0.720   1.312   3.248
  997SOL     OW 4924   0.706   1.617   2.106
  997SOL    HW1 4925   0.705   1.641   2.009
  997SOL    HW2 4926   0.727   1.519   2.116
  998SOL     OW 4927   1.584   1.727   3.268
  998SOL    HW1 4928   1.640   1.715   3.186
  998SOL    HW2 4929   1.566   1.825   3.282
  999SOL     OW 4930   0.236   0.363   2.602
  999SOL    HW1 4931   0.139   0.357   2.576
  999SOL    HW2 4932   0.246   0.334   2.697
 1000SOL     OW 4933   1.222   1.567   1.924
 1000SOL    HW1 4934   1.221   1.480   1.973
 1000SOL    HW2 4935   1.151   1.566   1.853
 1001SOL     OW 4936   0.792   1.047   3.238
 1001SOL    HW1 4937   0.789   1.053   3.138
 1001SOL    HW2 4938   0.797   1.140   3.276
 1002SOL     OW 4939   0.926   0.937   2.132
 1002SOL    HW1 4940   0.997   0.987   2.082
 1002SOL    HW2 4941   0.967   0.859   2.178
 1003SOL     OW 4942   1.474   1.679   1.921
 1003SOL    HW1 4943   1.387   1.631   1.920
 1003SOL    HW2 4944   1.517   1.670   1.831
 1004SOL     OW 4945   0.373   1.307   3.313
 1004SOL    HW1 4946   0.344   1.389   3.262
 1004SOL    HW2 4947   0.294   1.247   3.326
 1005SOL     OW 4948   1.618   1.296   3.147
 1005SOL    HW1 4949   1.675   1.272   3.226
 1005SOL    HW2 4950   1.546   1.358   3.176
 1006SOL     OW 4951   1.071   1.126   2.633
 1006SOL    HW1 4952   0.992   1.077   2.671
 1006SOL    HW2 4953   1.133   1.061   2.589
 1007SOL     OW 4954   0.550   1.429   2.362
 1007SOL    HW1 4955   0.604   1.411   2.280
 1007SOL    HW2 4956   0.453   1.421   2.340
 1008SOL     OW 4957   1.780   0.346   3.311
 1008SOL    HW1 4958   1.823   0.436   3.296
 1008SOL    HW2 4959   1.836   0.275   3.268
 1009SOL     OW 4960   0.123   1.366   2.103
 1009SOL    HW1 4961   0.040   1.323   2.140
 1009SOL    HW2 4962   0.187   1.384   2.178
 1010SOL     OW 4963   0.191   1.000   3.578
 1010SOL    HW1 4964   0.124   0.991   3.652
 1010SOL    HW2 4965   0.282   0.980   3.614
 1011SOL     OW 4966   0.664   0.203   3.398
 1011SOL    HW1 4967   0.724   0.191   3.319
 1011SOL    HW2 4968   0.717   0.236   3.476
 1012SOL     OW 4969   9.966   0.353   1.854
 1012SOL    HW1 4970   9.902   0.400   1.914
 1012SOL    HW2 4971   0.029   0.421   1.815
 1013SOL     OW 4972   1.390   0.840   3.217
 1013SOL    HW1 4973   1.332   0.903   3.164
 1013SOL    HW2 4974   1.484   0.847   3.185
 1014SOL     OW 4975   0.025   0.041   2.224
 1014SOL    HW1 4976   0.075   0.125   2.203
 1014SOL    HW2 4977   0.022   0.029   2.323
 1015SOL     OW 4978   1.192   1.317   2.043
 1015SOL    HW1 4979   1.165   1.222   2.033
 1015SOL    HW2 4980   1.214   1.335   2.139
 1016SOL     OW 4981   0.639   0.835   3.317
 1016SOL    HW1 4982   0.686   0.921   3.299
 1016SOL    HW2 4983   0.704   0.760   3.314
 1017SOL     OW 4984   1.516   1.862   2.920
 1017SOL    HW1 4985   1.554   1.915   2.845
 1017SOL    HW2 4986   1.587   1.806   2.962
 1018SOL     OW 4987   0.811   0.503   3.523
 1018SOL    HW1 4988   0.837   0.576   3.587
 1018SOL    HW2 4989   0.810   0.416   3.571
 1019SOL     OW 4990   1.461   1.180   3.474
 1019SOL    HW1 4991   1.447   1.203   3.570
 1019SOL    HW2 4992   1.554   1.204   3.447
 1020SOL     OW 4993   0.359   1.800   3.418
 1020SOL    HW1 4994   0.269   1.839   3.401
 1020SOL    HW2 4995   0.349   1.711   3.463
 1021SOL     OW 4996   1.641   0.864   3.112
 1021SOL    HW1 4997   1.646   0.777   3.064
 1021SOL    HW2 4998   1.639   0.939   3.046
 1022SOL     OW 4999   1.243   0.364   2.315
 1022SOL    HW1 5000   1.317   0.298   2.304
 1022SOL    HW2 5001   1.257   0.418   2.398
 1023SOL     OW 5002   0.682   0.707   2.474
 1023SOL    HW1 5003   0.706   0.804   2.482
 1023SOL    HW2 5004   0.589   0.699   2.439
 1024SOL     OW 5005   1.712   0.345   3.574
 1024SOL    HW1 5006   1.739   0.346   3.477
 1024SOL    HW2 5007   1.626   0.296   3.584
 1025SOL     OW 5008   1.754   0.928   3.353
 1025SOL    HW1 5009   1.736   1.025   3.371
 1025SOL    HW2 5010   1.715   0.903   3.264
 1026SOL     OW 5011   0.829   1.391   1.906
 1026SOL    HW1 5012   0.829   1.375   2.004
 1026SOL    HW2 5013   0.907   1.448   1.881
 1027SOL     OW 5014   0.654   1.690   2.811
 1027SOL    HW1 5015   0.636   1.731   2.901
 1027SOL    HW2 5016   0.752   1.692   2.793
 1028SOL     OW 5017   0.871   0.976   2.746
 1028SOL    HW1 5018   0.914   0.887   2.758
 1028SOL    HW2 5019   0.832   1.006   2.833
 1029SOL     OW 5020   1.109   1.063   1.976
 1029SOL    HW1 5021   1.040   1.069   1.904
 1029SOL    HW2 5022   1.180   0.998   1.949
 1030SOL     OW 5023   1.791   1.587   2.710
 1030SOL    HW1 5024   1.734   1.560   2.632
 1030SOL    HW2 5025   1.767   1.531   2.789
 1031SOL     OW 5026   0.255   1.351   3.701
 1031SOL    HW1 5027   0.156   1.353   3.683
 1031SOL    HW2 5028   0.272   1.356   3.799
 1032SOL     OW 5029   0.121   1.254   2.529
 1032SOL    HW1 5030   0.025   1.230   2.516
 1032SOL    HW2 5031   0.171   1.175   2.563
 1033SOL     OW 5032   0.687   1.466   3.509
 1033SOL    HW1 5033   0.610   1.409   3.537
 1033SOL    HW2 5034   0.701   1.538   3.577
 1034SOL     OW 5035   1.957   0.183   3.188
 1034SOL    HW1 5036   1.936   0.087   3.170
 1034SOL    HW2 5037   1.986   0.227   3.104
 1035SOL     OW 5038   0.442   0.431   2.446
 1035SOL    HW1 5039   0.458   0.351   2.389
 1035SOL    HW2 5040   0.366   0.413   2.509
 1036SOL     OW 5041   1.703   1.438   2.927
 1036SOL    HW1 5042   1.625   1.423   2.865
 1036SOL    HW2 5043   1.688   1.389   3.012
 1037SOL     OW 5044   0.359   0.578   3.154
 1037SOL    HW1 5045   0.414   0.516   3.210
 1037SOL    HW2 5046   0.363   0.549   3.059
 1038SOL     OW 5047   0.788   1.563   2.528
 1038SOL    HW1 5048   0.715   1.626   2.502
 1038SOL    HW2 5049   0.749   1.474   2.551
 1039SOL     OW 5050   1.346   0.221   2.905
 1039SOL    HW1 5051   1.330   0.125   2.883
 1039SOL    HW2 5052   1.308   0.242   2.994
 1040SOL     OW 5053   0.923   0.020   2.979
 1040SOL    HW1 5054   0.851   9.953   2.962
 1040SOL    HW2 5055   0.982   0.027   2.899
 1041SOL     OW 5056   0.787   1.355   2.178
 1041SOL    HW1 5057   0.768   1.260   2.204
 1041SOL    HW2 5058   0.861   1.391   2.236
 1042SOL     OW 5059   0.594   1.577   3.104
 1042SOL    HW1 5060   0.590   1.664   3.154
 1042SOL    HW2 5061   0.690   1.556   3.082
 1043SOL     OW 5062   1.328   0.051   2.074
 1043SOL    HW1 5063   1.412   0.007   2.041
 1043SOL    HW2 5064   1.263   9.980   2.103
 1044SOL     OW 5065   1.266   0.504   2.547
 1044SOL    HW1 5066   1.207   0.582   2.527
 1044SOL    HW2 5067   1.257   0.478   2.643
 1045SOL     OW 5068   1.564   0.213   2.727
 1045SOL    HW1 5069   1.491   0.220   2.796
 1045SOL    HW2 5070   1.570   0.300   2.677
 1046SOL     OW 5071   0.035   1.045   2.110
 1046SOL    HW1 5072   0.131   1.030   2.137
 1046SOL    HW2 5073   0.015   0.992   2.029
 1047SOL     OW 5074   0.943   1.730   2.192
 1047SOL    HW1 5075   0.851   1.704   2.161
 1047SOL    HW2 5076   0.935   1.807   2.256
 1048SOL     OW 5077   0.209   0.534   3.911
 1048SOL    HW1 5078   0.154   0.602   3.961
 1048SOL    HW2 5079   0.191   0.542   3.813
 1049SOL     OW 5080   0.160   0.326   4.805
 1049SOL    HW1 5081   0.223   0.265   4.852
 1049SOL    HW2 5082   0.086   0.273   4.764
 1050SOL     OW 5083   0.043   0.454   4.375
 1050SOL    HW1 5084   9.973   0.516   4.409
 1050SOL    HW2 5085   9.999   0.376   4.330
 1051SOL     OW 5086   0.565   1.320   4.930
 1051SOL    HW1 5087   0.477   1.310   4.884
 1051SOL    HW2 5088   0.585   1.417   4.944
 1052SOL     OW 5089   1.602   1.514   4.409
 1052SOL    HW1 5090   1.542   1.485   4.484
 1052SOL    HW2 5091   1.546   1.543   4.332
 1053SOL     OW 5092   1.106   0.743   4.407
 1053SOL    HW1 5093   1.160   0.824   4.382
 1053SOL    HW2 5094   1.061   0.759   4.494
 1054SOL     OW 5095   1.778   0.546   3.935
 1054SOL    HW1 5096   1.730   0.565   3.849
 1054SOL    HW2 5097   1.732   0.471   3.983
 1055SOL     OW 5098   0.722   1.131   4.787
 1055SOL    HW1 5099   0.654   1.166   4.852
 1055SOL    HW2 5100   0.766   1.207   4.740
 1056SOL     OW 5101   0.879   0.755   5.565
 1056SOL    HW1 5102   0.885   0.809   5.649
 1056SOL    HW2 5103   0.894   0.816   5.486
 1057SOL     OW 5104   0.731   1.005   4.391
 1057SOL    HW1 5105   0.799   1.003   4.464
 1057SOL    HW2 5106   0.648   1.050   4.423
 1058SOL     OW 5107   0.720   1.214   5.588
 1058SOL    HW1 5108   0.767   1.294   5.626
 1058SOL    HW2 5109   0.650   1.244   5.524
 1059SOL     OW 5110   0.322   1.403   4.785
 1059SOL    HW1 5111   0.238   1.388   4.734
 1059SOL    HW2 5112   0.390   1.448   4.726
 1060SOL     OW 5113   1.438   1.496   5.100
 1060SOL    HW1 5114   1.494   1.577   5.117
 1060SOL    HW2 5115   1.355   1.500   5.155
 1061SOL     OW 5116   0.483   0.399   5.157
 1061SOL    HW1 5117   0.541   0.344   5.217
 1061SOL    HW2 5118   0.389   0.366   5.162
 1062SOL     OW 5119   1.619   0.494   4.470
 1062SOL    HW1 5120   1.601   0.523   4.376
 1062SOL    HW2 5121   1.564   0.549   4.532
 1063SOL     OW 5122   0.244   1.683   4.176
 1063SOL    HW1 5123   0.203   1.771   4.199
 1063SOL    HW2 5124   0.341   1.695   4.157
 1064SOL     OW 5125   1.126   1.343   5.418
 1064SOL    HW1 5126   1.209   1.336   5.473
 1064SOL    HW2 5127   1.069   1.263   5.433
 1065SOL     OW 5128   0.249   1.414   4.245
 1065SOL    HW1 5129   0.241   1.514   4.239
 1065SOL    HW2 5130   0.182   1.380   4.311
 1066SOL     OW 5131   0.350   1.060   4.674
 1066SOL    HW1 5132   0.333   0.962   4.670
 1066SOL    HW2 5133   0.274   1.105   4.721
 1067SOL     OW 5134   0.565   1.834   5.107
 1067SOL    HW1 5135   0.488   1.812   5.167
 1067SOL    HW2 5136   0.623   1.901   5.153
 1068SOL     OW 5137   0.609   1.003   3.921
 1068SOL    HW1 5138   0.638   1.049   3.837
 1068SOL    HW2 5139   0.665   1.035   3.998
 1069SOL     OW 5140   1.564   0.132   5.175
 1069SOL    HW1 5141   1.642   0.186   5.144
 1069SOL    HW2 5142   1.526   0.171   5.259
 1070SOL     OW 5143   0.159   0.704   4.308
 1070SOL    HW1 5144   0.133   0.609   4.326
 1070SOL    HW2 5145   0.134   0.760   4.387
 1071SOL     OW 5146   1.872   1.741   4.003
 1071SOL    HW1 5147   1.942   1.730   4.073
 1071SOL    HW2 5148   1.870   1.836   3.972
 1072SOL     OW 5149   0.063   1.628   3.978
 1072SOL    HW1 5150   0.042   1.530   3.971
 1072SOL    HW2 5151   0.127   1.643   4.053
 1073SOL     OW 5152   1.703   0.943   4.389
 1073SOL    HW1 5153   1.787   0.892   4.373
 1073SOL    HW2 5154   1.684   1.003   4.312
 1074SOL     OW 5155   1.670   1.120   4.170
 1074SOL    HW1 5156   1.744   1.078   4.118
 1074SOL    HW2 5157   1.705   1.196   4.224
 1075SOL     OW 5158   0.230   0.753   5.347
 1075SOL    HW1 5159   0.328   0.747   5.361
 1075SOL    HW2 5160   0.199   0.847   5.367
 1076SOL     OW 5161   0.646   1.369   4.454
 1076SOL    HW1 5162   0.601   1.280   4.464
 1076SOL    HW2 5163   0.628   1.405   4.362
 1077SOL     OW 5164   1.233   1.211   5.144
 1077SOL    HW1 5165   1.253   1.144   5.073
 1077SOL    HW2 5166   1.304   1.207   5.215
 1078SOL     OW 5167   0.895   0.108   4.281
 1078SOL    HW1 5168   0.914   0.203   4.255
 1078SOL    HW2 5169   0.806   0.080   4.242
 1079SOL     OW 5170   0.193   0.961   4.995
 1079SOL    HW1 5171   0.284   0.921   4.988
 1079SOL    HW2 5172   0.174   1.015   4.913
 1080SOL     OW 5173   1.554   1.068   3.915
 1080SOL    HW1 5174   1.477   1.007   3.934
 1080SOL    HW2 5175   1.595   1.099   4.002
 1081SOL     OW 5176   1.177   1.777   5.329
 1081SOL    HW1 5177   1.185   1.849   5.260
 1081SOL    HW2 5178   1.185   1.688   5.285
 1082SOL     OW 5179   0.312   0.308   5.431
 1082SOL    HW1 5180   0.408   0.294   5.453
 1082SOL    HW2 5181   0.255   0.245   5.484
 1083SOL     OW 5182   1.439   1.439   4.617
 1083SOL    HW1 5183   1.393   1.465   4.702
 1083SOL    HW2 5184   1.421   1.343   4.598
 1084SOL     OW 5185   1.654   1.885   4.238
 1084SOL    HW1 5186   1.637   1.821   4.163
 1084SOL    HW2 5187   1.676   1.833   4.321
 1085SOL     OW 5188   0.580   0.734   4.004
 1085SOL    HW1 5189   0.599   0.829   3.978
 1085SOL    HW2 5190   0.528   0.732   4.089
 1086SOL     OW 5191   1.269   0.416   4.662
 1086SOL    HW1 5192   1.177   0.378   4.669
 1086SOL    HW2 5193   1.331   0.363   4.720
 1087SOL     OW 5194   1.604   1.703   4.037
 1087SOL    HW1 5195   1.703   1.702   4.024
 1087SOL    HW2 5196   1.559   1.688   3.949
 1088SOL     OW 5197   0.782   0.601   5.178
 1088SOL    HW1 5198   0.750   0.565   5.266
 1088SOL    HW2 5199   0.749   0.542   5.104
 1089SOL     OW 5200   1.372   0.498   5.388
 1089SOL    HW1 5201   1.384   0.546   5.474
 1089SOL    HW2 5202   1.425   0.413   5.389
 1090SOL     OW 5203   0.930   0.908   5.335
 1090SOL    HW1 5204   0.985   0.839   5.287
 1090SOL    HW2 5205   0.881   0.963   5.267
 1091SOL     OW 5206   0.991   0.430   4.925
 1091SOL    HW1 5207   0.895   0.452   4.943
 1091SOL    HW2 5208   0.998   0.381   4.838
 1092SOL     OW 5209   1.045   0.714   4.135
 1092SOL    HW1 5210   1.055   0.711   4.234
 1092SOL    HW2 5211   0.959   0.670   4.108
 1093SOL     OW 5212   0.068   0.828   4.556
 1093SOL    HW1 5213   0.157   0.815   4.599
 1093SOL    HW2 5214   0.006   0.873   4.621
 1094SOL     OW 5215   0.085   1.867   5.343
 1094SOL    HW1 5216   0.102   1.833   5.435
 1094SOL    HW2 5217   9.990   1.849   5.317
 1095SOL     OW 5218   0.903   0.347   3.907
 1095SOL    HW1 5219   0.940   0.423   3.853
 1095SOL    HW2 5220   0.950   0.262   3.881
 1096SOL     OW 5221   1.661   0.581   5.538
 1096SOL    HW1 5222   1.640   0.666   5.491
 1096SOL    HW2 5223   1.679   0.509   5.470
 1097SOL     OW 5224   1.418   1.175   4.287
 1097SOL    HW1 5225   1.503   1.159   4.237
 1097SOL    HW2 5226   1.366   1.248   4.241
 1098SOL     OW 5227   0.590   0.167   4.669
 1098SOL    HW1 5228   0.593   0.186   4.767
 1098SOL    HW2 5229   0.588   0.253   4.618
 1099SOL     OW 5230   1.017   1.481   4.208
 1099SOL    HW1 5231   0.999   1.559   4.148
 1099SOL    HW2 5232   0.973   1.497   4.296
 1100SOL     OW 5233   0.366   1.763   4.594
 1100SOL    HW1 5234   0.403   1.670   4.594
 1100SOL    HW2 5235   0.435   1.826   4.630
 1101SOL     OW 5236   1.783   1.033   4.637
 1101SOL    HW1 5237   1.748   1.015   4.545
 1101SOL    HW2 5238   1.706   1.052   4.698
 1102SOL     OW 5239   1.188   1.521   5.216
 1102SOL    HW1 5240   1.177   1.457   5.292
 1102SOL    HW2 5241   1.126   1.495   5.142
 1103SOL     OW 5242   0.358   1.014   4.037
 1103SOL    HW1 5243   0.445   1.019   3.989
 1103SOL    HW2 5244   0.333   0.918   4.053
 1104SOL     OW 5245   1.476   0.788   4.414
 1104SOL    HW1 5246   1.465   0.739   4.501
 1104SOL    HW2 5247   1.559   0.843   4.417
 1105SOL     OW 5248   0.510   1.306   5.433
 1105SOL    HW1 5249   0.462   1.304   5.346
 1105SOL    HW2 5250   0.444   1.320   5.508
 1106SOL     OW 5251   1.168   1.777   3.962
 1106SOL    HW1 5252   1.079   1.759   4.005
 1106SOL    HW2 5253   1.193   1.698   3.905
 1107SOL     OW 5254   0.207   0.330   5.184
 1107SOL    HW1 5255   0.183   0.425   5.164
 1107SOL    HW2 5256   0.238   0.323   5.279
 1108SOL     OW 5257   1.610   1.398   3.835
 1108SOL    HW1 5258   1.583   1.493   3.823
 1108SOL    HW2 5259   1.540   1.338   3.794
 1109SOL     OW 5260   0.512   1.717   4.098
 1109SOL    HW1 5261   0.539   1.800   4.148
 1109SOL    HW2 5262   0.583   1.696   4.030
 1110SOL     OW 5263   1.353   0.133   4.211
 1110SOL    HW1 5264   1.385   0.093   4.125
 1110SOL    HW2 5265   1.415   0.107   4.285
 1111SOL     OW 5266   0.175   1.730   4.961
 1111SOL    HW1 5267   0.244   1.664   4.991
 1111SOL    HW2 5268   0.150   1.712   4.866
 1112SOL     OW 5269   0.980   1.692   4.601
 1112SOL    HW1 5270   1.072   1.655   4.595
 1112SOL    HW2 5271   0.920   1.643   4.539
 1113SOL     OW 5272   0.428   0.697   4.231
 1113SOL    HW1 5273   0.451   0.604   4.258
 1113SOL    HW2 5274   0.333   0.717   4.257
 1114SOL     OW 5275   1.462   0.232   5.413
 1114SOL    HW1 5276   1.466   0.250   5.511
 1114SOL    HW2 5277   1.383   0.175   5.393
 1115SOL     OW 5278   0.581   0.067   3.808
 1115SOL    HW1 5279   0.615   9.979   3.842
 1115SOL    HW2 5280   0.560   0.059   3.711
 1116SOL     OW 5281   0.775   0.267   5.542
 1116SOL    HW1 5282   0.817   0.177   5.532
 1116SOL    HW2 5283   0.793   0.302   5.634
 1117SOL     OW 5284   0.853   1.515   4.892
 1117SOL    HW1 5285   0.836   1.462   4.809
 1117SOL    HW2 5286   0.918   1.466   4.949
 1118SOL     OW 5287   1.283   0.610   5.158
 1118SOL    HW1 5288   1.322   0.580   5.245
 1118SOL    HW2 5289   1.316   0.702   5.137
 1119SOL     OW 5290   0.822   1.353   4.667
 1119SOL    HW1 5291   0.914   1.363   4.629
 1119SOL    HW2 5292   0.754   1.361   4.594
 1120SOL     OW 5293   0.936   0.513   4.614
 1120SOL    HW1 5294   0.905   0.514   4.519
 1120SOL    HW2 5295   0.953   0.418   4.642
 1121SOL     OW 5296   0.666   0.028   4.165
 1121SOL    HW1 5297   0.603   0.009   4.240
 1121SOL    HW2 5298   0.635   0.110   4.117
 1122SOL     OW 5299   1.408   1.224   3.743
 1122SOL    HW1 5300   1.465   1.158   3.792
 1122SOL    HW2 5301   1.335   1.257   3.802
 1123SOL     OW 5302   0.321   0.069   3.892
 1123SOL    HW1 5303   0.418   0.070   3.866
 1123SOL    HW2 5304   0.310   0.020   3.978
 1124SOL     OW 5305   0.961   0.348   4.175
 1124SOL    HW1 5306   0.931   0.352   4.080
 1124SOL    HW2 5307   1.060   0.362   4.180
 1125SOL     OW 5308   1.028   0.719   5.162
 1125SOL    HW1 5309   0.951   0.657   5.171
 1125SOL    HW2 5310   1.113   0.667   5.158
 1126SOL     OW 5311   1.224   1.591   4.505
 1126SOL    HW1 5312   1.240   1.663   4.438
 1126SOL    HW2 5313   1.311   1.552   4.535
 1127SOL     OW 5314   0.510   1.137   4.474
 1127SOL    HW1 5315   0.460   1.112   4.556
 1127SOL    HW2 5316   0.448   1.139   4.395
 1128SOL     OW 5317   1.258   1.805   4.328
 1128SOL    HW1 5318   1.306   1.872   4.272
 1128SOL    HW2 5319   1.174   1.847   4.365
 1129SOL     OW 5320   1.032   0.531   3.757
 1129SOL    HW1 5321   0.997   0.617   3.720
 1129SOL    HW2 5322   1.099   0.551   3.830
 1130SOL     OW 5323   0.167   0.595   5.130
 1130SOL    HW1 5324   0.247   0.603   5.071
 1130SOL    HW2 5325   0.176   0.658   5.207
 1131SOL     OW 5326   0.598   0.227   4.931
 1131SOL    HW1 5327   0.657   0.207   5.010
 1131SOL    HW2 5328   0.502   0.221   4.959
 1132SOL     OW 5329   0.841   0.517   4.368
 1132SOL    HW1 5330   0.785   0.595   4.339
 1132SOL    HW2 5331   0.872   0.467   4.287
 1133SOL     OW 5332   1.005   0.062   4.527
 1133SOL    HW1 5333   0.963   0.079   4.438
 1133SOL    HW2 5334   0.991   9.967   4.553
 1134SOL     OW 5335   1.396   1.177   4.568
 1134SOL    HW1 5336   1.301   1.146   4.577
 1134SOL    HW2 5337   1.424   1.171   4.472
 1135SOL     OW 5338   1.443   0.636   4.644
 1135SOL    HW1 5339   1.374   0.564   4.648
 1135SOL    HW2 5340   1.501   0.630   4.725
 1136SOL     OW 5341   1.790   0.750   4.111
 1136SOL    HW1 5342   1.865   0.732   4.174
 1136SOL    HW2 5343   1.790   0.682   4.038
 1137SOL     OW 5344   0.527   1.438   3.886
 1137SOL    HW1 5345   0.436   1.417   3.921
 1137SOL    HW2 5346   0.554   1.367   3.821
 1138SOL     OW 5347   1.775   1.308   4.322
 1138SOL    HW1 5348   1.871   1.309   4.350
 1138SOL    HW2 5349   1.729   1.390   4.356
 1139SOL     OW 5350   1.370   0.591   3.753
 1139SOL    HW1 5351   1.326   0.570   3.840
 1139SOL    HW2 5352   1.469   0.581   3.762
 1140SOL     OW 5353   0.572   0.242   4.014
 1140SOL    HW1 5354   0.586   0.188   3.932
 1140SOL    HW2 5355   0.546   0.335   3.989
 1141SOL     OW 5356   1.714   1.204   5.236
 1141SOL    HW1 5357   1.807   1.166   5.233
 1141SOL    HW2 5358   1.717   1.296   5.276
 1142SOL     OW 5359   1.017   1.353   5.056
 1142SOL    HW1 5360   0.928   1.329   5.094
 1142SOL    HW2 5361   1.088   1.299   5.100
 1143SOL     OW 5362   1.611   1.660   5.382
 1143SOL    HW1 5363   1.597   1.695   5.289
 1143SOL    HW2 5364   1.668   1.578   5.378
 1144SOL     OW 5365   1.151   1.285   4.827
 1144SOL    HW1 5366   1.088   1.308   4.901
 1144SOL    HW2 5367   1.111   1.311   4.739
 1145SOL     OW 5368   1.561   1.090   4.787
 1145SOL    HW1 5369   1.554   1.155   4.863
 1145SOL    HW2 5370   1.495   1.113   4.716
 1146SOL     OW 5371   0.819   0.195   5.109
 1146SOL    HW1 5372   0.850   0.143   5.029
 1146SOL    HW2 5373   0.898   0.239   5.152
 1147SOL     OW 5374   0.966   1.129   5.489
 1147SOL    HW1 5375   0.875   1.154   5.522
 1147SOL    HW2 5376   0.959   1.048   5.431
 1148SOL     OW 5377   0.770   1.083   4.130
 1148SOL    HW1 5378   0.751   1.057   4.225
 1148SOL    HW2 5379   0.857   1.042   4.101
 1149SOL     OW 5380   0.443   0.848   4.988
 1149SOL    HW1 5381   0.510   0.858   5.062
 1149SOL    HW2 5382   0.418   0.752   4.979
 1150SOL     OW 5383   1.236   0.384   5.021
 1150SOL    HW1 5384   1.265   0.466   5.069
 1150SOL    HW2 5385   1.147   0.399   4.978
 1151SOL     OW 5386   9.980   1.573   5.082
 1151SOL    HW1 5387   0.047   1.636   5.044
 1151SOL    HW2 5388   0.004   1.552   5.177
 1152SOL     OW 5389   0.341   1.155   4.267
 1152SOL    HW1 5390   0.322   1.252   4.248
 1152SOL    HW2 5391   0.349   1.106   4.181
 1153SOL     OW 5392   0.570   0.423   4.579
 1153SOL    HW1 5393   0.558   0.442   4.481
 1153SOL    HW2 5394   0.620   0.498   4.622
 1154SOL     OW 5395   1.272   1.383   4.172
 1154SOL    HW1 5396   1.333   1.461   4.187
 1154SOL    HW2 5397   1.178   1.410   4.192
 1155SOL     OW 5398   1.326   1.489   4.854
 1155SOL    HW1 5399   1.370   1.491   4.944
 1155SOL    HW2 5400   1.262   1.413   4.850
 1156SOL     OW 5401   1.578   0.607   4.224
 1156SOL    HW1 5402   1.512   0.666   4.270
 1156SOL    HW2 5403   1.647   0.663   4.179
 1157SOL     OW 5404   0.346   1.527   5.023
 1157SOL    HW1 5405   0.326   1.477   4.939
 1157SOL    HW2 5406   0.442   1.556   5.023
 1158SOL     OW 5407   0.502   0.740   5.389
 1158SOL    HW1 5408   0.545   0.783   5.310
 1158SOL    HW2 5409   0.561   0.665   5.422
 1159SOL     OW 5410   1.595   0.813   5.418
 1159SOL    HW1 5411   1.500   0.845   5.416
 1159SOL    HW2 5412   1.642   0.845   5.336
 1160SOL     OW 5413   0.932   0.022   5.533
 1160SOL    HW1 5414   0.994   0.078   5.587
 1160SOL    HW2 5415   0.968   0.014   5.440
 1161SOL     OW 5416   0.518   9.998   5.414
 1161SOL    HW1 5417   0.587   9.926   5.405
 1161SOL    HW2 5418   0.549   0.079   5.364
 1162SOL     OW 5419   0.593   0.875   4.760
 1162SOL    HW1 5420   0.632   0.966   4.751
 1162SOL    HW2 5421   0.535   0.871   4.841
 1163SOL     OW 5422   1.273   0.850   4.732
 1163SOL    HW1 5423   1.180   0.818   4.712
 1163SOL    HW2 5424   1.339   0.783   4.697
 1164SOL     OW 5425   1.204   0.560   3.973
 1164SOL    HW1 5426   1.228   0.484   4.033
 1164SOL    HW2 5427   1.153   0.629   4.026
 1165SOL     OW 5428   0.325   0.181   4.983
 1165SOL    HW1 5429   0.271   0.221   5.057
 1165SOL    HW2 5430   0.342   0.084   5.003
 1166SOL     OW 5431   0.021   1.308   4.999
 1166SOL    HW1 5432   0.057   1.262   5.081
 1166SOL    HW2 5433   0.001   1.403   5.021
 1167SOL     OW 5434   0.696   0.623   4.717
 1167SOL    HW1 5435   0.783   0.616   4.669
 1167SOL    HW2 5436   0.667   0.719   4.718
 1168SOL     OW 5437   1.766   0.960   5.581
 1168SOL    HW1 5438   1.701   0.901   5.533
 1168SOL    HW2 5439   1.721   1.000   5.661
 1169SOL     OW 5440   0.476   9.990   4.362
 1169SOL    HW1 5441   0.435   0.075   4.326
 1169SOL    HW2 5442   0.424   9.912   4.330
 1170SOL     OW 5443   1.613   0.374   4.072
 1170SOL    HW1 5444   1.672   0.313   4.125
 1170SOL    HW2 5445   1.583   0.450   4.130
 1171SOL     OW 5446   1.015   0.760   4.686
 1171SOL    HW1 5447   0.983   0.778   4.780
 1171SOL    HW2 5448   0.997   0.665   4.663
 1172SOL     OW 5449   0.984   1.561   5.495
 1172SOL    HW1 5450   0.958   1.626   5.423
 1172SOL    HW2 5451   1.029   1.482   5.454
 1173SOL     OW 5452   1.786   1.451   5.331
 1173SOL    HW1 5453   1.839   1.485   5.253
 1173SOL    HW2 5454   1.848   1.436   5.408
 1174SOL     OW 5455   0.403   0.949   5.541
 1174SOL    HW1 5456   0.462   0.983   5.614
 1174SOL    HW2 5457   0.448   0.872   5.495
 1175SOL     OW 5458   1.469   0.262   3.860
 1175SOL    HW1 5459   1.437   0.176   3.899
 1175SOL    HW2 5460   1.522   0.312   3.929
 1176SOL     OW 5461   1.272   0.838   3.710
 1176SOL    HW1 5462   1.303   0.744   3.724
 1176SOL    HW2 5463   1.309   0.873   3.624
 1177SOL     OW 5464   1.074   1.370   4.577
 1177SOL    HW1 5465   1.100   1.283   4.535
 1177SOL    HW2 5466   1.126   1.444   4.536
 1178SOL     OW 5467   0.334   0.783   4.663
 1178SOL    HW1 5468   0.430   0.808   4.672
 1178SOL    HW2 5469   0.323   0.686   4.681
 1179SOL     OW 5470   0.347   0.512   4.721
 1179SOL    HW1 5471   0.272   0.447   4.735
 1179SOL    HW2 5472   0.415   0.472   4.660
 1180SOL     OW 5473   1.142   0.373   5.460
 1180SOL    HW1 5474   1.090   0.435   5.520
 1180SOL    HW2 5475   1.224   0.419   5.428
 1181SOL     OW 5476   1.066   0.266   5.216
 1181SOL    HW1 5477   1.086   0.307   5.305
 1181SOL    HW2 5478   1.129   0.302   5.148
 1182SOL     OW 5479   9.997   1.362   3.947
 1182SOL    HW1 5480   9.976   1.378   3.850
 1182SOL    HW2 5481   0.016   1.265   3.962
 1183SOL     OW 5482   0.126   1.667   4.701
 1183SOL    HW1 5483   0.123   1.573   4.667
 1183SOL    HW2 5484   0.200   1.716   4.655
 1184SOL     OW 5485   0.503   1.527   4.627
 1184SOL    HW1 5486   0.575   1.589   4.659
 1184SOL    HW2 5487   0.542   1.463   4.560
 1185SOL     OW 5488   0.909   0.809   4.930
 1185SOL    HW1 5489   0.964   0.787   5.011
 1185SOL    HW2 5490   0.818   0.768   4.940
 1186SOL     OW 5491   0.020   0.543   4.894
 1186SOL    HW1 5492   0.075   0.465   4.864
 1186SOL    HW2 5493   0.055   0.576   4.982
 1187SOL     OW 5494   0.170   0.533   5.504
 1187SOL    HW1 5495   0.232   0.463   5.467
 1187SOL    HW2 5496   0.180   0.617   5.450
 1188SOL     OW 5497   1.353   0.932   5.360
 1188SOL    HW1 5498   1.380   1.029   5.360
 1188SOL    HW2 5499   1.343   0.901   5.266
 1189SOL     OW 5500   0.821   0.598   4.037
 1189SOL    HW1 5501   0.812   0.507   3.996
 1189SOL    HW2 5502   0.735   0.648   4.028
 1190SOL     OW 5503   1.596   0.605   4.865
 1190SOL    HW1 5504   1.546   0.545   4.928
 1190SOL    HW2 5505   1.690   0.573   4.856
 1191SOL     OW 5506   0.286   1.587   5.451
 1191SOL    HW1 5507   0.241   1.653   5.513
 1191SOL    HW2 5508   0.315   1.507   5.504
 1192SOL     OW 5509   0.720   0.476   4.942
 1192SOL    HW1 5510   0.669   0.390   4.936
 1192SOL    HW2 5511   0.703   0.530   4.860
 1193SOL     OW 5512   0.866   1.715   5.275
 1193SOL    HW1 5513   0.822   1.638   5.228
 1193SOL    HW2 5514   0.897   1.782   5.207
 1194SOL     OW 5515   0.479   0.486   3.945
 1194SOL    HW1 5516   0.523   0.574   3.957
 1194SOL    HW2 5517   0.380   0.499   3.934
 1195SOL     OW 5518   0.143   1.143   5.188
 1195SOL    HW1 5519   0.154   1.101   5.278
 1195SOL    HW2 5520   0.170   1.078   5.117
 1196SOL     OW 5521   1.253   1.046   4.919
 1196SOL    HW1 5522   1.264   0.976   4.848
 1196SOL    HW2 5523   1.217   1.130   4.878
 1197SOL     OW 5524   1.334   0.924   3.965
 1197SOL    HW1 5525   1.264   0.901   4.032
 1197SOL    HW2 5526   1.307   0.889   3.875
 1198SOL     OW 5527   1.750   1.668   4.888
 1198SOL    HW1 5528   1.826   1.695   4.829
 1198SOL    HW2 5529   1.712   1.581   4.856
 1199SOL     OW 5530   1.291   1.764   4.847
 1199SOL    HW1 5531   1.383   1.802   4.830
 1199SOL    HW2 5532   1.296   1.664   4.847
 1200SOL     OW 5533   0.127   1.147   4.801
 1200SOL    HW1 5534   0.113   1.218   4.870
 1200SOL    HW2 5535   0.049   1.145   4.738
 1201SOL     OW 5536   0.678   1.731   5.471
 1201SOL    HW1 5537   0.614   1.808   5.462
 1201SOL    HW2 5538   0.754   1.743   5.407
 1202SOL     OW 5539   1.807   0.225   4.205
 1202SOL    HW1 5540   1.854   0.217   4.117
 1202SOL    HW2 5541   1.827   0.144   4.261
 1203SOL     OW 5542   1.424   1.606   4.220
 1203SOL    HW1 5543   1.484   1.640   4.148
 1203SOL    HW2 5544   1.360   1.678   4.247
 1204SOL     OW 5545   0.130   1.758   5.589
 1204SOL    HW1 5546   0.082   1.696   5.652
 1204SOL    HW2 5547   0.178   1.828   5.643
 1205SOL     OW 5548   1.273   0.951   4.348
 1205SOL    HW1 5549   1.345   0.884   4.369
 1205SOL    HW2 5550   1.315   1.033   4.309
 1206SOL     OW 5551   0.759   1.302   5.132
 1206SOL    HW1 5552   0.738   1.367   5.206
 1206SOL    HW2 5553   0.685   1.305   5.065
 1207SOL     OW 5554   0.698   1.643   3.913
 1207SOL    HW1 5555   0.721   1.674   3.820
 1207SOL    HW2 5556   0.643   1.560   3.908
 1208SOL     OW 5557   1.590   1.730   5.111
 1208SOL    HW1 5558   1.656   1.711   5.038
 1208SOL    HW2 5559   1.540   1.814   5.090
 1209SOL     OW 5560   1.858   0.156   4.644
 1209SOL    HW1 5561   1.889   0.099   4.569
 1209SOL    HW2 5562   1.768   0.194   4.623
 1210SOL     OW 5563   0.277   0.342   4.466
 1210SOL    HW1 5564   0.187   0.377   4.440
 1210SOL    HW2 5565   0.266   0.259   4.521
 1211SOL     OW 5566   1.232   1.562   3.807
 1211SOL    HW1 5567   1.230   1.470   3.847
 1211SOL    HW2 5568   1.154   1.572   3.745
 1212SOL     OW 5569   0.813   1.036   5.123
 1212SOL    HW1 5570   0.853   1.017   5.033
 1212SOL    HW2 5571   0.792   1.133   5.131
 1213SOL     OW 5572   0.996   0.967   4.048
 1213SOL    HW1 5573   1.010   0.965   3.949
 1213SOL    HW2 5574   1.015   0.877   4.087
 1214SOL     OW 5575   1.488   1.662   3.791
 1214SOL    HW1 5576   1.393   1.628   3.790
 1214SOL    HW2 5577   1.523   1.664   3.697
 1215SOL     OW 5578   0.348   1.329   5.219
 1215SOL    HW1 5579   0.345   1.405   5.154
 1215SOL    HW2 5580   0.272   1.267   5.201
 1216SOL     OW 5581   1.574   1.277   4.998
 1216SOL    HW1 5582   1.635   1.241   5.069
 1216SOL    HW2 5583   1.515   1.348   5.038
 1217SOL     OW 5584   1.129   1.112   4.515
 1217SOL    HW1 5585   1.043   1.073   4.548
 1217SOL    HW2 5586   1.170   1.050   4.448
 1218SOL     OW 5587   1.017   0.259   4.712
 1218SOL    HW1 5588   1.023   0.201   4.630
 1218SOL    HW2 5589   0.991   0.202   4.790
 1219SOL     OW 5590   0.620   1.482   4.213
 1219SOL    HW1 5591   0.676   1.437   4.143
 1219SOL    HW2 5592   0.564   1.552   4.170
 1220SOL     OW 5593   1.781   0.299   5.117
 1220SOL    HW1 5594   1.845   0.376   5.111
 1220SOL    HW2 5595   1.788   0.243   5.035
 1221SOL     OW 5596   0.274   1.378   3.976
 1221SOL    HW1 5597   0.178   1.358   3.961
 1221SOL    HW2 5598   0.290   1.395   4.074
 1222SOL     OW 5599   0.172   1.031   5.438
 1222SOL    HW1 5600   0.142   1.120   5.472
 1222SOL    HW2 5601   0.262   1.009   5.477
 1223SOL     OW 5602   0.636   0.226   5.310
 1223SOL    HW1 5603   0.702   0.209   5.237
 1223SOL    HW2 5604   0.683   0.251   5.394
 1224SOL     OW 5605   0.082   0.276   3.666
 1224SOL    HW1 5606   0.025   0.251   3.744
 1224SOL    HW2 5607   0.089   0.375   3.659
 1225SOL     OW 5608   1.362   0.864   5.095
 1225SOL    HW1 5609   1.302   0.923   5.041
 1225SOL    HW2 5610   1.452   0.860   5.053
 1226SOL     OW 5611   0.073   0.053   4.080
 1226SOL    HW1 5612   0.113   0.145   4.072
 1226SOL    HW2 5613   0.053   0.034   4.176
 1227SOL     OW 5614   1.214   1.308   3.915
 1227SOL    HW1 5615   1.133   1.250   3.916
 1227SOL    HW2 5616   1.243   1.328   4.009
 1228SOL     OW 5617   0.640   0.834   5.174
 1228SOL    HW1 5618   0.698   0.915   5.162
 1228SOL    HW2 5619   0.697   0.752   5.174
 1229SOL     OW 5620   1.547   1.862   4.809
 1229SOL    HW1 5621   1.571   1.911   4.725
 1229SOL    HW2 5622   1.622   1.801   4.835
 1230SOL     OW 5623   0.717   0.555   5.447
 1230SOL    HW1 5624   0.772   0.623   5.494
 1230SOL    HW2 5625   0.735   0.465   5.486
 1231SOL     OW 5626   1.450   1.186   5.343
 1231SOL    HW1 5627   1.458   1.209   5.440
 1231SOL    HW2 5628   1.539   1.193   5.299
 1232SOL     OW 5629   0.359   1.789   5.283
 1232SOL    HW1 5630   0.266   1.820   5.262
 1232SOL    HW2 5631   0.355   1.702   5.332
 1233SOL     OW 5632   1.595   0.869   4.954
 1233SOL    HW1 5633   1.602   0.779   4.910
 1233SOL    HW2 5634   1.584   0.940   4.884
 1234SOL     OW 5635   1.234   0.373   4.172
 1234SOL    HW1 5636   1.283   0.287   4.182
 1234SOL    HW2 5637   1.247   0.429   4.254
 1235SOL     OW 5638   0.686   0.740   4.327
 1235SOL    HW1 5639   0.708   0.835   4.348
 1235SOL    HW2 5640   0.590   0.732   4.302
 1236SOL     OW 5641   1.707   0.360   5.375
 1236SOL    HW1 5642   1.736   0.341   5.282
 1236SOL    HW2 5643   1.625   0.306   5.396
 1237SOL     OW 5644   1.703   0.923   5.196
 1237SOL    HW1 5645   1.694   1.021   5.213
 1237SOL    HW2 5646   1.669   0.901   5.105
 1238SOL     OW 5647   0.827   1.367   3.793
 1238SOL    HW1 5648   0.825   1.374   3.893
 1238SOL    HW2 5649   0.887   1.437   3.756
 1239SOL     OW 5650   0.696   1.704   4.676
 1239SOL    HW1 5651   0.661   1.798   4.672
 1239SOL    HW2 5652   0.796   1.706   4.686
 1240SOL     OW 5653   0.898   0.999   4.611
 1240SOL    HW1 5654   0.935   0.911   4.641
 1240SOL    HW2 5655   0.839   1.036   4.683
 1241SOL     OW 5656   1.041   0.953   3.784
 1241SOL    HW1 5657   1.016   1.026   3.721
 1241SOL    HW2 5658   1.127   0.912   3.755
 1242SOL     OW 5659   1.809   1.536   4.582
 1242SOL    HW1 5660   1.743   1.537   4.507
 1242SOL    HW2 5661   1.774   1.478   4.656
 1243SOL     OW 5662   0.310   1.359   5.607
 1243SOL    HW1 5663   0.222   1.321   5.578
 1243SOL    HW2 5664   0.317   1.353   5.707
 1244SOL     OW 5665   0.109   1.220   4.412
 1244SOL    HW1 5666   0.018   1.185   4.394
 1244SOL    HW2 5667   0.177   1.161   4.369
 1245SOL     OW 5668   0.692   1.480   5.334
 1245SOL    HW1 5669   0.624   1.415   5.369
 1245SOL    HW2 5670   0.688   1.564   5.387
 1246SOL     OW 5671   1.777   0.118   4.907
 1246SOL    HW1 5672   1.700   0.055   4.898
 1246SOL    HW2 5673   1.815   0.137   4.816
 1247SOL     OW 5674   0.476   0.446   4.319
 1247SOL    HW1 5675   0.506   0.377   4.254
 1247SOL    HW2 5676   0.400   0.410   4.373
 1248SOL     OW 5677   1.658   1.434   4.790
 1248SOL    HW1 5678   1.581   1.432   4.726
 1248SOL    HW2 5679   1.643   1.368   4.864
 1249SOL     OW 5680   0.391   0.586   4.978
 1249SOL    HW1 5681   0.444   0.520   5.031
 1249SOL    HW2 5682   0.382   0.555   4.884
 1250SOL     OW 5683   0.839   1.567   4.406
 1250SOL    HW1 5684   0.792   1.626   4.340
 1250SOL    HW2 5685   0.777   1.493   4.434
 1251SOL     OW 5686   1.422   0.277   4.843
 1251SOL    HW1 5687   1.460   0.189   4.873
 1251SOL    HW2 5688   1.359   0.312   4.911
 1252SOL     OW 5689   0.924   0.062   4.892
 1252SOL    HW1 5690   0.849   0.024   4.839
 1252SOL    HW2 5691   0.988   9.989   4.917
 1253SOL     OW 5692   0.817   1.347   4.067
 1253SOL    HW1 5693   0.797   1.252   4.091
 1253SOL    HW2 5694   0.895   1.379   4.121
 1254SOL     OW 5695   0.611   1.589   4.990
 1254SOL    HW1 5696   0.602   1.682   5.027
 1254SOL    HW2 5697   0.701   1.578   4.949
 1255SOL     OW 5698   1.387   0.022   3.959
 1255SOL    HW1 5699   1.476   9.978   3.945
 1255SOL    HW2 5700   1.315   9.953   3.957
 1256SOL     OW 5701   1.251   0.510   4.401
 1256SOL    HW1 5702   1.197   0.594   4.403
 1256SOL    HW2 5703   1.257   0.472   4.493
 1257SOL     OW 5704   1.606   0.254   4.597
 1257SOL    HW1 5705   1.544   0.265   4.675
 1257SOL    HW2 5706   1.612   0.340   4.547
 1258SOL     OW 5707   0.108   1.116   3.956
 1258SOL    HW1 5708   0.199   1.104   3.996
 1258SOL    HW2 5709   0.085   1.036   3.901
 1259SOL     OW 5710   0.921   1.699   4.069
 1259SOL    HW1 5711   0.845   1.674   4.009
 1259SOL    HW2 5712   0.893   1.775   4.128
 1260SOL     OW 5713   0.239   0.511   5.768
 1260SOL    HW1 5714   0.213   0.590   5.824
 1260SOL    HW2 5715   0.210   0.526   5.674
 1261SOL     OW 5716   0.220   0.327   6.683
 1261SOL    HW1 5717   0.250   0.307   6.776
 1261SOL    HW2 5718   0.228   0.244   6.627
 1262SOL     OW 5719   0.020   0.464   6.283
 1262SOL    HW1 5720   9.980   0.494   6.370
 1262SOL    HW2 5721   9.949   0.425   6.225
 1263SOL     OW 5722   0.571   1.352   6.780
 1263SOL    HW1 5723   0.482   1.352   6.734
 1263SOL    HW2 5724   0.600   1.447   6.797
 1264SOL     OW 5725   1.590   1.507   6.280
 1264SOL    HW1 5726   1.540   1.461   6.353
 1264SOL    HW2 5727   1.527   1.532   6.207
 1265SOL     OW 5728   1.128   0.737   6.259
 1265SOL    HW1 5729   1.185   0.818   6.242
 1265SOL    HW2 5730   1.077   0.749   6.344
 1266SOL     OW 5731   1.801   0.550   5.765
 1266SOL    HW1 5732   1.758   0.571   5.677
 1266SOL    HW2 5733   1.746   0.481   5.813
 1267SOL     OW 5734   0.729   1.172   6.633
 1267SOL    HW1 5735   0.664   1.214   6.698
 1267SOL    HW2 5736   0.782   1.244   6.589
 1268SOL     OW 5737   0.924   0.750   7.350
 1268SOL    HW1 5738   0.957   0.808   7.424
 1268SOL    HW2 5739   0.926   0.800   7.263
 1269SOL     OW 5740   0.729   0.983   6.223
 1269SOL    HW1 5741   0.802   0.996   6.290
 1269SOL    HW2 5742   0.651   1.041   6.245
 1270SOL     OW 5743   0.741   1.151   7.432
 1270SOL    HW1 5744   0.793   1.224   7.476
 1270SOL    HW2 5745   0.666   1.190   7.379
 1271SOL     OW 5746   0.344   1.462   6.647
 1271SOL    HW1 5747   0.263   1.514   6.621
 1271SOL    HW2 5748   0.419   1.484   6.584
 1272SOL     OW 5749   1.429   1.539   6.957
 1272SOL    HW1 5750   1.486   1.619   6.977
 1272SOL    HW2 5751   1.350   1.538   7.017
 1273SOL     OW 5752   0.446   0.422   7.126
 1273SOL    HW1 5753   0.527   0.365   7.110
 1273SOL    HW2 5754   0.399   0.391   7.209
 1274SOL     OW 5755   1.566   0.443   6.280
 1274SOL    HW1 5756   1.475   0.478   6.258
 1274SOL    HW2 5757   1.615   0.512   6.334
 1275SOL     OW 5758   0.200   1.676   5.992
 1275SOL    HW1 5759   0.135   1.741   6.032
 1275SOL    HW2 5760   0.283   1.725   5.965
 1276SOL     OW 5761   1.141   1.337   7.284
 1276SOL    HW1 5762   1.234   1.309   7.306
 1276SOL    HW2 5763   1.081   1.258   7.287
 1277SOL     OW 5764   0.330   1.478   6.122
 1277SOL    HW1 5765   0.272   1.554   6.093
 1277SOL    HW2 5766   0.286   1.429   6.197
 1278SOL     OW 5767   0.289   1.096   6.488
 1278SOL    HW1 5768   0.320   1.009   6.525
 1278SOL    HW2 5769   0.231   1.142   6.555
 1279SOL     OW 5770   0.585   1.844   6.960
 1279SOL    HW1 5771   0.507   1.812   7.015
 1279SOL    HW2 5772   0.635   1.913   7.012
 1280SOL     OW 5773   0.567   1.035   5.740
 1280SOL    HW1 5774   0.625   1.096   5.686
 1280SOL    HW2 5775   0.618   1.002   5.819
 1281SOL     OW 5776   1.513   0.057   7.000
 1281SOL    HW1 5777   1.550   0.099   6.916
 1281SOL    HW2 5778   1.576   0.072   7.076
 1282SOL     OW 5779   0.181   0.665   6.190
 1282SOL    HW1 5780   0.123   0.588   6.217
 1282SOL    HW2 5781   0.168   0.741   6.254
 1283SOL     OW 5782   1.846   1.769   5.922
 1283SOL    HW1 5783   1.935   1.740   5.959
 1283SOL    HW2 5784   1.851   1.864   5.893
 1284SOL     OW 5785   0.053   1.584   5.783
 1284SOL    HW1 5786   0.046   1.484   5.783
 1284SOL    HW2 5787   0.112   1.614   5.857
 1285SOL     OW 5788   1.711   0.950   6.278
 1285SOL    HW1 5789   1.806   0.924   6.296
 1285SOL    HW2 5790   1.707   1.003   6.193
 1286SOL     OW 5791   1.703   1.112   6.048
 1286SOL    HW1 5792   1.780   1.066   6.003
 1286SOL    HW2 5793   1.735   1.196   6.090
 1287SOL     OW 5794   0.225   0.723   7.199
 1287SOL    HW1 5795   0.323   0.707   7.210
 1287SOL    HW2 5796   0.205   0.818   7.223
 1288SOL     OW 5797   0.660   1.369   6.323
 1288SOL    HW1 5798   0.616   1.279   6.318
 1288SOL    HW2 5799   0.653   1.414   6.234
 1289SOL     OW 5800   1.237   1.233   7.004
 1289SOL    HW1 5801   1.252   1.155   6.943
 1289SOL    HW2 5802   1.299   1.226   7.082
 1290SOL     OW 5803   0.938   0.074   6.149
 1290SOL    HW1 5804   0.974   0.157   6.107
 1290SOL    HW2 5805   0.845   0.057   6.116
 1291SOL     OW 5806   0.192   0.920   6.816
 1291SOL    HW1 5807   0.241   0.877   6.741
 1291SOL    HW2 5808   0.104   0.954   6.782
 1292SOL     OW 5809   1.604   1.063   5.785
 1292SOL    HW1 5810   1.538   0.992   5.805
 1292SOL    HW2 5811   1.646   1.095   5.870
 1293SOL     OW 5812   1.158   1.799   7.210
 1293SOL    HW1 5813   1.182   1.870   7.144
 1293SOL    HW2 5814   1.175   1.709   7.170
 1294SOL     OW 5815   0.371   0.339   7.375
 1294SOL    HW1 5816   0.412   0.408   7.434
 1294SOL    HW2 5817   0.278   0.318   7.408
 1295SOL     OW 5818   1.467   1.387   6.494
 1295SOL    HW1 5819   1.406   1.429   6.561
 1295SOL    HW2 5820   1.442   1.291   6.482
 1296SOL     OW 5821   1.615   1.861   6.124
 1296SOL    HW1 5822   1.625   1.799   6.046
 1296SOL    HW2 5823   1.635   1.811   6.209
 1297SOL     OW 5824   0.594   0.693   5.933
 1297SOL    HW1 5825   0.631   0.786   5.930
 1297SOL    HW2 5826   0.536   0.683   6.014
 1298SOL     OW 5827   1.278   0.417   6.521
 1298SOL    HW1 5828   1.190   0.371   6.536
 1298SOL    HW2 5829   1.347   0.377   6.581
 1299SOL     OW 5830   1.591   1.685   5.904
 1299SOL    HW1 5831   1.690   1.700   5.903
 1299SOL    HW2 5832   1.559   1.672   5.810
 1300SOL     OW 5833   0.830   0.535   6.978
 1300SOL    HW1 5834   0.804   0.534   7.074
 1300SOL    HW2 5835   0.749   0.550   6.922
 1301SOL     OW 5836   1.398   0.505   7.255
 1301SOL    HW1 5837   1.391   0.545   7.347
 1301SOL    HW2 5838   1.463   0.428   7.257
 1302SOL     OW 5839   0.955   0.907   7.125
 1302SOL    HW1 5840   0.999   0.832   7.074
 1302SOL    HW2 5841   0.929   0.979   7.061
 1303SOL     OW 5842   1.024   0.438   6.807
 1303SOL    HW1 5843   0.946   0.457   6.867
 1303SOL    HW2 5844   0.992   0.386   6.728
 1304SOL     OW 5845   1.041   0.704   5.998
 1304SOL    HW1 5846   1.068   0.716   6.093
 1304SOL    HW2 5847   0.960   0.645   5.993
 1305SOL     OW 5848   0.138   0.863   6.373
 1305SOL    HW1 5849   0.194   0.834   6.451
 1305SOL    HW2 5850   0.156   0.960   6.354
 1306SOL     OW 5851   0.124   1.865   7.156
 1306SOL    HW1 5852   0.112   1.848   7.254
 1306SOL    HW2 5853   0.098   1.784   7.105
 1307SOL     OW 5854   0.923   0.345   5.777
 1307SOL    HW1 5855   0.956   0.427   5.731
 1307SOL    HW2 5856   0.978   0.266   5.749
 1308SOL     OW 5857   1.446   1.159   6.158
 1308SOL    HW1 5858   1.535   1.143   6.116
 1308SOL    HW2 5859   1.397   1.229   6.106
 1309SOL     OW 5860   0.554   0.179   6.600
 1309SOL    HW1 5861   0.559   0.219   6.692
 1309SOL    HW2 5862   0.550   0.253   6.533
 1310SOL     OW 5863   0.375   1.781   6.427
 1310SOL    HW1 5864   0.423   1.694   6.430
 1310SOL    HW2 5865   0.434   1.854   6.462
 1311SOL     OW 5866   1.789   1.091   6.514
 1311SOL    HW1 5867   1.745   1.062   6.430
 1311SOL    HW2 5868   1.721   1.099   6.587
 1312SOL     OW 5869   1.191   1.541   7.099
 1312SOL    HW1 5870   1.185   1.472   7.170
 1312SOL    HW2 5871   1.129   1.518   7.023
 1313SOL     OW 5872   0.331   0.939   5.910
 1313SOL    HW1 5873   0.402   0.944   5.840
 1313SOL    HW2 5874   0.285   0.850   5.904
 1314SOL     OW 5875   1.499   0.774   6.278
 1314SOL    HW1 5876   1.480   0.731   6.367
 1314SOL    HW2 5877   1.580   0.833   6.287
 1315SOL     OW 5878   0.505   1.238   7.303
 1315SOL    HW1 5879   0.512   1.171   7.229
 1315SOL    HW2 5880   0.409   1.258   7.322
 1316SOL     OW 5881   0.104   0.355   7.076
 1316SOL    HW1 5882   0.074   0.433   7.022
 1316SOL    HW2 5883   0.027   0.293   7.092
 1317SOL     OW 5884   1.678   1.427   5.646
 1317SOL    HW1 5885   1.623   1.511   5.653
 1317SOL    HW2 5886   1.617   1.349   5.630
 1318SOL     OW 5887   0.433   1.797   5.906
 1318SOL    HW1 5888   0.481   1.848   5.978
 1318SOL    HW2 5889   0.500   1.758   5.843
 1319SOL     OW 5890   1.488   0.201   5.980
 1319SOL    HW1 5891   1.430   0.137   5.930
 1319SOL    HW2 5892   1.580   0.163   5.989
 1320SOL     OW 5893   0.232   1.790   6.787
 1320SOL    HW1 5894   0.274   1.716   6.839
 1320SOL    HW2 5895   0.192   1.753   6.702
 1321SOL     OW 5896   0.926   1.675   6.377
 1321SOL    HW1 5897   1.017   1.638   6.392
 1321SOL    HW2 5898   0.892   1.646   6.287
 1322SOL     OW 5899   0.449   0.636   6.154
 1322SOL    HW1 5900   0.469   0.538   6.157
 1322SOL    HW2 5901   0.351   0.650   6.166
 1323SOL     OW 5902   1.513   0.259   7.329
 1323SOL    HW1 5903   1.519   0.284   7.425
 1323SOL    HW2 5904   1.437   0.196   7.315
 1324SOL     OW 5905   0.526   0.038   5.686
 1324SOL    HW1 5906   0.594   9.978   5.727
 1324SOL    HW2 5907   0.526   0.025   5.586
 1325SOL     OW 5908   0.787   0.253   7.353
 1325SOL    HW1 5909   0.826   0.164   7.333
 1325SOL    HW2 5910   0.810   0.279   7.447
 1326SOL     OW 5911   0.902   1.575   6.734
 1326SOL    HW1 5912   0.876   1.520   6.655
 1326SOL    HW2 5913   0.955   1.519   6.798
 1327SOL     OW 5914   1.312   0.627   7.024
 1327SOL    HW1 5915   1.347   0.595   7.112
 1327SOL    HW2 5916   1.346   0.719   7.006
 1328SOL     OW 5917   0.846   1.393   6.526
 1328SOL    HW1 5918   0.940   1.387   6.492
 1328SOL    HW2 5919   0.782   1.395   6.449
 1329SOL     OW 5920   0.948   0.508   6.473
 1329SOL    HW1 5921   0.933   0.494   6.376
 1329SOL    HW2 5922   0.984   0.424   6.514
 1330SOL     OW 5923   0.692   0.035   6.053
 1330SOL    HW1 5924   0.629   9.998   6.121
 1330SOL    HW2 5925   0.645   0.106   6.000
 1331SOL     OW 5926   1.482   1.232   5.612
 1331SOL    HW1 5927   1.532   1.165   5.667
 1331SOL    HW2 5928   1.400   1.261   5.661
 1332SOL     OW 5929   0.277   0.047   5.789
 1332SOL    HW1 5930   0.367   0.038   5.746
 1332SOL    HW2 5931   0.277   9.997   5.875
 1333SOL     OW 5932   1.030   0.294   6.030
 1333SOL    HW1 5933   0.986   0.316   5.943
 1333SOL    HW2 5934   1.126   0.322   6.027
 1334SOL     OW 5935   1.047   0.707   6.971
 1334SOL    HW1 5936   0.982   0.632   6.971
 1334SOL    HW2 5937   1.140   0.671   6.983
 1335SOL     OW 5938   1.194   1.619   6.388
 1335SOL    HW1 5939   1.220   1.675   6.309
 1335SOL    HW2 5940   1.224   1.664   6.472
 1336SOL     OW 5941   0.515   1.136   6.296
 1336SOL    HW1 5942   0.456   1.115   6.374
 1336SOL    HW2 5943   0.459   1.141   6.213
 1337SOL     OW 5944   1.232   1.802   6.185
 1337SOL    HW1 5945   1.283   1.862   6.124
 1337SOL    HW2 5946   1.154   1.851   6.223
 1338SOL     OW 5947   1.036   0.546   5.641
 1338SOL    HW1 5948   0.987   0.628   5.613
 1338SOL    HW2 5949   1.109   0.571   5.705
 1339SOL     OW 5950   0.103   0.625   6.968
 1339SOL    HW1 5951   0.188   0.598   6.923
 1339SOL    HW2 5952   0.123   0.668   7.056
 1340SOL     OW 5953   0.548   0.298   6.851
 1340SOL    HW1 5954   0.608   0.273   6.927
 1340SOL    HW2 5955   0.453   0.276   6.874
 1341SOL     OW 5956   0.904   0.455   6.215
 1341SOL    HW1 5957   0.850   0.507   6.149
 1341SOL    HW2 5958   0.958   0.386   6.167
 1342SOL     OW 5959   0.960   0.062   6.424
 1342SOL    HW1 5960   0.944   0.070   6.326
 1342SOL    HW2 5961   0.973   9.966   6.449
 1343SOL     OW 5962   1.418   1.117   6.466
 1343SOL    HW1 5963   1.353   1.045   6.489
 1343SOL    HW2 5964   1.432   1.120   6.367
 1344SOL     OW 5965   1.412   0.665   6.523
 1344SOL    HW1 5966   1.355   0.583   6.521
 1344SOL    HW2 5967   1.493   0.647   6.580
 1345SOL     OW 5968   1.808   0.719   5.972
 1345SOL    HW1 5969   1.884   0.692   6.031
 1345SOL    HW2 5970   1.808   0.662   5.890
 1346SOL     OW 5971   0.609   1.453   5.825
 1346SOL    HW1 5972   0.542   1.381   5.804
 1346SOL    HW2 5973   0.695   1.433   5.778
 1347SOL     OW 5974   1.788   1.325   6.179
 1347SOL    HW1 5975   1.880   1.327   6.218
 1347SOL    HW2 5976   1.733   1.398   6.220
 1348SOL     OW 5977   1.394   0.608   5.634
 1348SOL    HW1 5978   1.348   0.582   5.719
 1348SOL    HW2 5979   1.492   0.594   5.644
 1349SOL     OW 5980   0.544   0.214   5.899
 1349SOL    HW1 5981   0.546   0.154   5.819
 1349SOL    HW2 5982   0.536   0.309   5.869
 1350SOL     OW 5983   1.688   1.252   7.131
 1350SOL    HW1 5984   1.760   1.184   7.133
 1350SOL    HW2 5985   1.723   1.340   7.163
 1351SOL     OW 5986   1.031   1.394   6.916
 1351SOL    HW1 5987   0.939   1.368   6.946
 1351SOL    HW2 5988   1.098   1.333   6.957
 1352SOL     OW 5989   1.614   1.659   7.259
 1352SOL    HW1 5990   1.594   1.700   7.170
 1352SOL    HW2 5991   1.687   1.591   7.249
 1353SOL     OW 5992   1.154   1.277   6.698
 1353SOL    HW1 5993   1.092   1.317   6.765
 1353SOL    HW2 5994   1.127   1.304   6.606
 1354SOL     OW 5995   1.585   1.104   6.696
 1354SOL    HW1 5996   1.571   1.176   6.765
 1354SOL    HW2 5997   1.515   1.112   6.625
 1355SOL     OW 5998   0.874   0.194   6.959
 1355SOL    HW1 5999   0.895   0.147   6.873
 1355SOL    HW2 6000   0.958   0.218   7.005
 1356SOL     OW 6001   0.986   1.109   7.308
 1356SOL    HW1 6002   0.895   1.122   7.346
 1356SOL    HW2 6003   0.982   1.040   7.236
 1357SOL     OW 6004   0.713   0.937   5.948
 1357SOL    HW1 6005   0.727   0.958   6.045
 1357SOL    HW2 6006   0.802   0.925   5.903
 1358SOL     OW 6007   1.279   0.406   6.875
 1358SOL    HW1 6008   1.302   0.487   6.931
 1358SOL    HW2 6009   1.187   0.416   6.838
 1359SOL     OW 6010   0.088   1.629   7.027
 1359SOL    HW1 6011   0.021   1.598   6.959
 1359SOL    HW2 6012   0.179   1.601   6.999
 1360SOL     OW 6013   0.351   1.151   6.076
 1360SOL    HW1 6014   0.354   1.223   6.007
 1360SOL    HW2 6015   0.346   1.062   6.031
 1361SOL     OW 6016   0.527   0.402   6.438
 1361SOL    HW1 6017   0.533   0.391   6.339
 1361SOL    HW2 6018   0.597   0.466   6.469
 1362SOL     OW 6019   1.292   1.350   6.025
 1362SOL    HW1 6020   1.336   1.438   6.045
 1362SOL    HW2 6021   1.201   1.349   6.067
 1363SOL     OW 6022   1.329   1.485   6.711
 1363SOL    HW1 6023   1.368   1.505   6.801
 1363SOL    HW2 6024   1.270   1.405   6.717
 1364SOL     OW 6025   1.539   0.680   6.020
 1364SOL    HW1 6026   1.512   0.707   6.112
 1364SOL    HW2 6027   1.634   0.706   6.004
 1365SOL     OW 6028   0.329   1.549   6.902
 1365SOL    HW1 6029   0.345   1.517   6.809
 1365SOL    HW2 6030   0.417   1.568   6.946
 1366SOL     OW 6031   0.505   0.661   7.239
 1366SOL    HW1 6032   0.602   0.652   7.259
 1366SOL    HW2 6033   0.472   0.579   7.192
 1367SOL     OW 6034   1.645   0.850   7.293
 1367SOL    HW1 6035   1.550   0.872   7.272
 1367SOL    HW2 6036   1.698   0.843   7.208
 1368SOL     OW 6037   0.933   0.007   7.335
 1368SOL    HW1 6038   1.001   0.057   7.388
 1368SOL    HW2 6039   0.971   9.982   7.247
 1369SOL     OW 6040   0.489   0.107   7.311
 1369SOL    HW1 6041   0.549   0.112   7.231
 1369SOL    HW2 6042   0.457   0.198   7.334
 1370SOL     OW 6043   0.558   0.949   6.630
 1370SOL    HW1 6044   0.618   1.028   6.612
 1370SOL    HW2 6045   0.591   0.900   6.711
 1371SOL     OW 6046   1.263   0.891   6.559
 1371SOL    HW1 6047   1.168   0.860   6.548
 1371SOL    HW2 6048   1.325   0.814   6.545
 1372SOL     OW 6049   1.224   0.571   5.846
 1372SOL    HW1 6050   1.256   0.496   5.905
 1372SOL    HW2 6051   1.166   0.632   5.900
 1373SOL     OW 6052   0.293   0.223   6.926
 1373SOL    HW1 6053   0.237   0.274   6.991
 1373SOL    HW2 6054   0.269   0.126   6.931
 1374SOL     OW 6055   0.168   1.320   6.896
 1374SOL    HW1 6056   0.189   1.239   6.952
 1374SOL    HW2 6057   0.233   1.393   6.918
 1375SOL     OW 6058   0.697   0.590   6.538
 1375SOL    HW1 6059   0.792   0.563   6.523
 1375SOL    HW2 6060   0.671   0.659   6.470
 1376SOL     OW 6061   1.749   1.016   7.479
 1376SOL    HW1 6062   1.712   0.948   7.417
 1376SOL    HW2 6063   1.683   1.036   7.551
 1377SOL     OW 6064   0.497   9.948   6.221
 1377SOL    HW1 6065   0.432   0.019   6.195
 1377SOL    HW2 6066   0.472   9.862   6.177
 1378SOL     OW 6067   1.558   0.447   5.873
 1378SOL    HW1 6068   1.539   0.366   5.929
 1378SOL    HW2 6069   1.543   0.529   5.928
 1379SOL     OW 6070   1.008   0.772   6.528
 1379SOL    HW1 6071   0.971   0.795   6.618
 1379SOL    HW2 6072   0.992   0.674   6.510
 1380SOL     OW 6073   0.989   1.549   7.367
 1380SOL    HW1 6074   0.956   1.607   7.292
 1380SOL    HW2 6075   1.034   1.468   7.328
 1381SOL     OW 6076   1.820   1.488   7.182
 1381SOL    HW1 6077   1.838   1.513   7.087
 1381SOL    HW2 6078   1.905   1.494   7.235
 1382SOL     OW 6079   0.437   0.895   7.387
 1382SOL    HW1 6080   0.503   0.926   7.455
 1382SOL    HW2 6081   0.473   0.814   7.340
 1383SOL     OW 6082   1.452   0.285   5.672
 1383SOL    HW1 6083   1.412   0.211   5.726
 1383SOL    HW2 6084   1.498   0.350   5.733
 1384SOL     OW 6085   1.266   0.844   5.601
 1384SOL    HW1 6086   1.307   0.752   5.609
 1384SOL    HW2 6087   1.288   0.882   5.511
 1385SOL     OW 6088   1.101   1.368   6.449
 1385SOL    HW1 6089   1.116   1.291   6.387
 1385SOL    HW2 6090   1.149   1.448   6.414
 1386SOL     OW 6091   0.323   0.825   6.583
 1386SOL    HW1 6092   0.416   0.861   6.595
 1386SOL    HW2 6093   0.326   0.725   6.579
 1387SOL     OW 6094   0.335   0.553   6.570
 1387SOL    HW1 6095   0.287   0.482   6.622
 1387SOL    HW2 6096   0.409   0.510   6.517
 1388SOL     OW 6097   1.170   0.358   7.299
 1388SOL    HW1 6098   1.109   0.415   7.354
 1388SOL    HW2 6099   1.252   0.410   7.274
 1389SOL     OW 6100   1.133   0.241   7.047
 1389SOL    HW1 6101   1.139   0.272   7.142
 1389SOL    HW2 6102   1.194   0.296   6.990
 1390SOL     OW 6103   0.042   1.310   5.787
 1390SOL    HW1 6104   0.027   1.309   5.688
 1390SOL    HW2 6105   0.052   1.216   5.819
 1391SOL     OW 6106   0.160   1.646   6.558
 1391SOL    HW1 6107   0.113   1.579   6.500
 1391SOL    HW2 6108   0.219   1.704   6.501
 1392SOL     OW 6109   0.524   1.551   6.472
 1392SOL    HW1 6110   0.593   1.616   6.505
 1392SOL    HW2 6111   0.570   1.481   6.416
 1393SOL     OW 6112   0.900   0.833   6.768
 1393SOL    HW1 6113   0.960   0.798   6.840
 1393SOL    HW2 6114   0.806   0.836   6.803
 1394SOL     OW 6115   0.005   0.484   6.736
 1394SOL    HW1 6116   0.087   0.431   6.716
 1394SOL    HW2 6117   0.022   0.542   6.816
 1395SOL     OW 6118   0.106   0.504   7.301
 1395SOL    HW1 6119   0.107   0.441   7.223
 1395SOL    HW2 6120   0.144   0.592   7.274
 1396SOL     OW 6121   1.393   0.931   7.225
 1396SOL    HW1 6122   1.397   1.030   7.233
 1396SOL    HW2 6123   1.385   0.905   7.129
 1397SOL     OW 6124   0.821   0.546   5.964
 1397SOL    HW1 6125   0.826   0.471   5.898
 1397SOL    HW2 6126   0.737   0.598   5.948
 1398SOL     OW 6127   1.624   0.609   6.700
 1398SOL    HW1 6128   1.553   0.590   6.768
 1398SOL    HW2 6129   1.703   0.550   6.716
 1399SOL     OW 6130   0.312   1.566   7.288
 1399SOL    HW1 6131   0.259   1.622   7.352
 1399SOL    HW2 6132   0.299   1.469   7.308
 1400SOL     OW 6133   0.614   0.563   6.797
 1400SOL    HW1 6134   0.592   0.466   6.811
 1400SOL    HW2 6135   0.643   0.577   6.702
 1401SOL     OW 6136   0.870   1.692   7.125
 1401SOL    HW1 6137   0.830   1.633   7.055
 1401SOL    HW2 6138   0.905   1.775   7.082
 1402SOL     OW 6139   0.503   0.464   5.817
 1402SOL    HW1 6140   0.542   0.551   5.849
 1402SOL    HW2 6141   0.407   0.478   5.793
 1403SOL     OW 6142   0.241   1.085   7.028
 1403SOL    HW1 6143   0.210   1.052   7.117
 1403SOL    HW2 6144   0.220   1.018   6.957
 1404SOL     OW 6145   1.267   1.046   6.786
 1404SOL    HW1 6146   1.268   0.982   6.709
 1404SOL    HW2 6147   1.227   1.133   6.756
 1405SOL     OW 6148   1.429   0.872   5.843
 1405SOL    HW1 6149   1.449   0.794   5.903
 1405SOL    HW2 6150   1.357   0.847   5.779
 1406SOL     OW 6151   1.725   1.698   6.751
 1406SOL    HW1 6152   1.798   1.732   6.692
 1406SOL    HW2 6153   1.698   1.607   6.721
 1407SOL     OW 6154   1.269   1.736   6.625
 1407SOL    HW1 6155   1.353   1.790   6.631
 1407SOL    HW2 6156   1.285   1.645   6.662
 1408SOL     OW 6157   0.103   1.225   6.650
 1408SOL    HW1 6158   0.138   1.264   6.735
 1408SOL    HW2 6159   0.082   1.299   6.586
 1409SOL     OW 6160   0.677   1.693   7.314
 1409SOL    HW1 6161   0.620   1.775   7.308
 1409SOL    HW2 6162   0.755   1.702   7.252
 1410SOL     OW 6163   1.747   0.102   5.996
 1410SOL    HW1 6164   1.772   0.149   5.911
 1410SOL    HW2 6165   1.823   0.044   6.025
 1411SOL     OW 6166   1.406   1.592   6.087
 1411SOL    HW1 6167   1.469   1.626   6.016
 1411SOL    HW2 6168   1.345   1.666   6.115
 1412SOL     OW 6169   0.140   1.727   7.440
 1412SOL    HW1 6170   0.086   1.683   7.512
 1412SOL    HW2 6171   0.206   1.789   7.482
 1413SOL     OW 6172   1.298   0.946   6.225
 1413SOL    HW1 6173   1.367   0.876   6.243
 1413SOL    HW2 6174   1.341   1.026   6.185
 1414SOL     OW 6175   0.772   1.329   6.971
 1414SOL    HW1 6176   0.738   1.368   7.057
 1414SOL    HW2 6177   0.698   1.330   6.903
 1415SOL     OW 6178   0.630   1.714   5.739
 1415SOL    HW1 6179   0.652   1.711   5.641
 1415SOL    HW2 6180   0.629   1.621   5.775
 1416SOL     OW 6181   1.596   1.761   6.995
 1416SOL    HW1 6182   1.647   1.741   6.911
 1416SOL    HW2 6183   1.592   1.859   7.010
 1417SOL     OW 6184   1.814   0.150   6.538
 1417SOL    HW1 6185   1.838   0.058   6.506
 1417SOL    HW2 6186   1.732   0.181   6.490
 1418SOL     OW 6187   0.249   0.320   6.289
 1418SOL    HW1 6188   0.165   0.374   6.282
 1418SOL    HW2 6189   0.297   0.342   6.374
 1419SOL     OW 6190   1.265   1.527   5.615
 1419SOL    HW1 6191   1.252   1.446   5.673
 1419SOL    HW2 6192   1.175   1.562   5.588
 1420SOL     OW 6193   0.898   1.090   6.939
 1420SOL    HW1 6194   0.900   1.066   6.842
 1420SOL    HW2 6195   0.849   1.176   6.952
 1421SOL     OW 6196   0.946   0.883   5.812
 1421SOL    HW1 6197   1.011   0.953   5.783
 1421SOL    HW2 6198   0.990   0.823   5.879
 1422SOL     OW 6199   1.502   1.652   5.635
 1422SOL    HW1 6200   1.414   1.605   5.626
 1422SOL    HW2 6201   1.541   1.667   5.545
 1423SOL     OW 6202   1.572   1.310   6.888
 1423SOL    HW1 6203   1.618   1.277   6.971
 1423SOL    HW2 6204   1.512   1.386   6.911
 1424SOL     OW 6205   1.109   1.136   6.310
 1424SOL    HW1 6206   1.029   1.093   6.352
 1424SOL    HW2 6207   1.172   1.066   6.278
 1425SOL     OW 6208   1.044   0.267   6.579
 1425SOL    HW1 6209   1.009   0.203   6.511
 1425SOL    HW2 6210   1.073   0.217   6.661
 1426SOL     OW 6211   0.599   1.503   6.091
 1426SOL    HW1 6212   0.611   1.484   5.994
 1426SOL    HW2 6213   0.501   1.503   6.113
 1427SOL     OW 6214   1.838   0.258   6.991
 1427SOL    HW1 6215   1.871   0.352   6.980
 1427SOL    HW2 6216   1.784   0.232   6.911
 1428SOL     OW 6217   0.307   1.349   5.881
 1428SOL    HW1 6218   0.209   1.335   5.868
 1428SOL    HW2 6219   0.322   1.410   5.959
 1429SOL     OW 6220   0.203   0.981   7.280
 1429SOL    HW1 6221   0.139   0.972   7.357
 1429SOL    HW2 6222   0.296   0.969   7.313
 1430SOL     OW 6223   0.664   0.251   7.111
 1430SOL    HW1 6224   0.740   0.225   7.052
 1430SOL    HW2 6225   0.698   0.264   7.205
 1431SOL     OW 6226   9.984   0.363   5.612
 1431SOL    HW1 6227   9.912   0.408   5.664
 1431SOL    HW2 6228   0.041   0.431   5.566
 1432SOL     OW 6229   1.400   0.877   6.958
 1432SOL    HW1 6230   1.342   0.937   6.902
 1432SOL    HW2 6231   1.492   0.875   6.920
 1433SOL     OW 6232   9.954   0.115   5.897
 1433SOL    HW1 6233   0.028   0.183   5.899
 1433SOL    HW2 6234   9.950   0.069   5.985
 1434SOL     OW 6235   1.256   1.292   5.756
 1434SOL    HW1 6236   1.205   1.207   5.746
 1434SOL    HW2 6237   1.272   1.309   5.853
 1435SOL     OW 6238   1.514   1.863   6.646
 1435SOL    HW1 6239   1.558   1.920   6.576
 1435SOL    HW2 6240   1.583   1.807   6.692
 1436SOL     OW 6241   0.768   0.546   7.249
 1436SOL    HW1 6242   0.825   0.616   7.292
 1436SOL    HW2 6243   0.783   0.459   7.295
 1437SOL     OW 6244   1.427   1.205   7.226
 1437SOL    HW1 6245   1.428   1.215   7.326
 1437SOL    HW2 6246   1.517   1.224   7.189
 1438SOL     OW 6247   0.379   1.762   7.117
 1438SOL    HW1 6248   0.291   1.808   7.110
 1438SOL    HW2 6249   0.369   1.679   7.173
 1439SOL     OW 6250   1.643   0.870   6.829
 1439SOL    HW1 6251   1.654   0.794   6.765
 1439SOL    HW2 6252   1.630   0.955   6.778
 1440SOL     OW 6253   1.285   0.376   6.030
 1440SOL    HW1 6254   1.360   0.311   6.022
 1440SOL    HW2 6255   1.292   0.425   6.117
 1441SOL     OW 6256   0.632   0.744   6.327
 1441SOL    HW1 6257   0.671   0.828   6.288
 1441SOL    HW2 6258   0.563   0.708   6.264
 1442SOL     OW 6259   1.701   0.125   7.186
 1442SOL    HW1 6260   1.759   0.180   7.125
 1442SOL    HW2 6261   1.646   0.186   7.243
 1443SOL     OW 6262   1.793   0.862   7.061
 1443SOL    HW1 6263   1.837   0.952   7.071
 1443SOL    HW2 6264   1.741   0.861   6.975
 1444SOL     OW 6265   0.846   1.435   5.696
 1444SOL    HW1 6266   0.893   1.464   5.780
 1444SOL    HW2 6267   0.887   1.482   5.618
 1445SOL     OW 6268   0.705   1.736   6.529
 1445SOL    HW1 6269   0.674   1.830   6.515
 1445SOL    HW2 6270   0.792   1.722   6.481
 1446SOL     OW 6271   0.896   1.013   6.440
 1446SOL    HW1 6272   0.930   0.925   6.473
 1446SOL    HW2 6273   0.842   1.056   6.513
 1447SOL     OW 6274   1.126   1.057   5.696
 1447SOL    HW1 6275   1.068   1.088   5.620
 1447SOL    HW2 6276   1.183   0.980   5.666
 1448SOL     OW 6277   1.787   1.574   6.455
 1448SOL    HW1 6278   1.722   1.560   6.380
 1448SOL    HW2 6279   1.763   1.513   6.531
 1449SOL     OW 6280   0.251   1.310   7.377
 1449SOL    HW1 6281   0.156   1.291   7.354
 1449SOL    HW2 6282   0.261   1.315   7.476
 1450SOL     OW 6283   0.229   1.276   6.291
 1450SOL    HW1 6284   0.256   1.217   6.368
 1450SOL    HW2 6285   0.257   1.232   6.205
 1451SOL     OW 6286   0.661   1.440   7.191
 1451SOL    HW1 6287   0.598   1.375   7.234
 1451SOL    HW2 6288   0.660   1.526   7.243
 1452SOL     OW 6289   1.666   0.141   6.774
 1452SOL    HW1 6290   1.634   0.048   6.760
 1452SOL    HW2 6291   1.730   0.166   6.701
 1453SOL     OW 6292   0.496   0.369   6.166
 1453SOL    HW1 6293   0.536   0.320   6.089
 1453SOL    HW2 6294   0.407   0.328   6.189
 1454SOL     OW 6295   1.669   1.446   6.667
 1454SOL    HW1 6296   1.599   1.422   6.600
 1454SOL    HW2 6297   1.655   1.391   6.750
 1455SOL     OW 6298   0.345   0.541   6.897
 1455SOL    HW1 6299   0.377   0.494   6.980
 1455SOL    HW2 6300   0.423   0.565   6.840
 1456SOL     OW 6301   0.833   1.637   6.120
 1456SOL    HW1 6302   0.823   1.736   6.111
 1456SOL    HW2 6303   0.743   1.594   6.116
 1457SOL     OW 6304   1.459   0.311   6.695
 1457SOL    HW1 6305   1.532   0.255   6.735
 1457SOL    HW2 6306   1.395   0.337   6.767
 1458SOL     OW 6307   1.092   0.105   6.792
 1458SOL    HW1 6308   1.085   0.006   6.781
 1458SOL    HW2 6309   1.122   0.126   6.885
 1459SOL     OW 6310   0.643   1.608   6.836
 1459SOL    HW1 6311   0.623   1.698   6.875
 1459SOL    HW2 6312   0.730   1.611   6.787
 1460SOL     OW 6313   1.329   0.060   5.792
 1460SOL    HW1 6314   1.412   0.013   5.761
 1460SOL    HW2 6315   1.265   9.994   5.831
 1461SOL     OW 6316   1.292   0.509   6.263
 1461SOL    HW1 6317   1.236   0.591   6.256
 1461SOL    HW2 6318   1.281   0.470   6.355
 1462SOL     OW 6319   1.567   0.235   6.450
 1462SOL    HW1 6320   1.520   0.260   6.534
 1462SOL    HW2 6321   1.567   0.313   6.387
 1463SOL     OW 6322   0.090   1.057   5.848
 1463SOL    HW1 6323   0.176   1.021   5.884
 1463SOL    HW2 6324   0.054   0.995   5.778
 1464SOL     OW 6325   0.198   0.602   7.543
 1464SOL    HW1 6326   0.143   0.594   7.626
 1464SOL    HW2 6327   0.149   0.561   7.466
 1465SOL     OW 6328   0.181   0.316   8.467
 1465SOL    HW1 6329   0.222   0.256   8.536
 1465SOL    HW2 6330   0.153   0.262   8.388
 1466SOL     OW 6331   0.087   0.362   8.085
 1466SOL    HW1 6332   9.991   0.373   8.060
 1466SOL    HW2 6333   0.095   0.294   8.158
 1467SOL     OW 6334   0.682   1.346   8.643
 1467SOL    HW1 6335   0.599   1.381   8.599
 1467SOL    HW2 6336   0.761   1.400   8.613
 1468SOL     OW 6337   1.551   1.538   8.160
 1468SOL    HW1 6338   1.515   1.477   8.230
 1468SOL    HW2 6339   1.487   1.541   8.082
 1469SOL     OW 6340   1.117   0.749   8.134
 1469SOL    HW1 6341   1.168   0.833   8.114
 1469SOL    HW2 6342   1.075   0.757   8.224
 1470SOL     OW 6343   1.818   0.581   7.645
 1470SOL    HW1 6344   1.823   0.567   7.546
 1470SOL    HW2 6345   1.760   0.511   7.686
 1471SOL     OW 6346   0.719   1.104   8.505
 1471SOL    HW1 6347   0.709   1.173   8.576
 1471SOL    HW2 6348   0.693   1.142   8.417
 1472SOL     OW 6349   1.002   0.776   9.268
 1472SOL    HW1 6350   1.037   0.840   9.336
 1472SOL    HW2 6351   0.986   0.825   9.182
 1473SOL     OW 6352   0.696   0.917   8.102
 1473SOL    HW1 6353   0.770   0.941   8.166
 1473SOL    HW2 6354   0.612   0.963   8.131
 1474SOL     OW 6355   0.731   1.180   9.243
 1474SOL    HW1 6356   0.753   1.276   9.225
 1474SOL    HW2 6357   0.645   1.156   9.197
 1475SOL     OW 6358   0.453   1.448   8.522
 1475SOL    HW1 6359   0.375   1.389   8.500
 1475SOL    HW2 6360   0.464   1.517   8.450
 1476SOL     OW 6361   1.445   1.516   8.833
 1476SOL    HW1 6362   1.503   1.597   8.839
 1476SOL    HW2 6363   1.370   1.524   8.898
 1477SOL     OW 6364   0.413   0.368   8.930
 1477SOL    HW1 6365   0.494   0.309   8.936
 1477SOL    HW2 6366   0.334   0.313   8.904
 1478SOL     OW 6367   1.618   0.490   8.199
 1478SOL    HW1 6368   1.607   0.526   8.106
 1478SOL    HW2 6369   1.563   0.544   8.262
 1479SOL     OW 6370   0.208   1.626   7.854
 1479SOL    HW1 6371   0.161   1.691   7.913
 1479SOL    HW2 6372   0.297   1.663   7.829
 1480SOL     OW 6373   1.084   1.417   9.208
 1480SOL    HW1 6374   1.111   1.440   9.302
 1480SOL    HW2 6375   1.063   1.319   9.203
 1481SOL     OW 6376   0.241   1.360   7.921
 1481SOL    HW1 6377   0.223   1.458   7.910
 1481SOL    HW2 6378   0.169   1.320   7.978
 1482SOL     OW 6379   0.313   1.073   8.383
 1482SOL    HW1 6380   0.279   0.989   8.426
 1482SOL    HW2 6381   0.276   1.153   8.431
 1483SOL     OW 6382   0.599   0.992   7.608
 1483SOL    HW1 6383   0.651   1.043   7.540
 1483SOL    HW2 6384   0.634   1.014   7.699
 1484SOL     OW 6385   1.633   0.086   8.936
 1484SOL    HW1 6386   1.686   0.162   8.899
 1484SOL    HW2 6387   1.610   0.103   9.031
 1485SOL     OW 6388   0.168   0.616   8.010
 1485SOL    HW1 6389   0.147   0.523   8.042
 1485SOL    HW2 6390   0.158   0.680   8.086
 1486SOL     OW 6391   1.858   1.720   7.784
 1486SOL    HW1 6392   1.935   1.698   7.844
 1486SOL    HW2 6393   1.857   1.818   7.765
 1487SOL     OW 6394   0.022   1.596   7.652
 1487SOL    HW1 6395   9.998   1.499   7.647
 1487SOL    HW2 6396   0.088   1.610   7.726
 1488SOL     OW 6397   1.706   0.941   8.129
 1488SOL    HW1 6398   1.793   0.893   8.124
 1488SOL    HW2 6399   1.697   1.004   8.052
 1489SOL     OW 6400   1.693   1.130   7.920
 1489SOL    HW1 6401   1.768   1.094   7.863
 1489SOL    HW2 6402   1.727   1.204   7.977
 1490SOL     OW 6403   0.238   0.725   9.055
 1490SOL    HW1 6404   0.337   0.729   9.072
 1490SOL    HW2 6405   0.200   0.817   9.064
 1491SOL     OW 6406   1.271   1.191   8.872
 1491SOL    HW1 6407   1.287   1.120   8.803
 1491SOL    HW2 6408   1.350   1.199   8.931
 1492SOL     OW 6409   0.817   0.118   7.978
 1492SOL    HW1 6410   0.853   0.203   7.941
 1492SOL    HW2 6411   0.717   0.121   7.976
 1493SOL     OW 6412   0.173   0.871   8.718
 1493SOL    HW1 6413   0.272   0.857   8.727
 1493SOL    HW2 6414   0.143   0.839   8.628
 1494SOL     OW 6415   1.554   1.073   7.675
 1494SOL    HW1 6416   1.480   1.009   7.695
 1494SOL    HW2 6417   1.599   1.101   7.760
 1495SOL     OW 6418   1.206   1.800   9.124
 1495SOL    HW1 6419   1.245   1.876   9.073
 1495SOL    HW2 6420   1.211   1.716   9.070
 1496SOL     OW 6421   0.421   0.305   9.305
 1496SOL    HW1 6422   0.443   0.364   9.382
 1496SOL    HW2 6423   0.372   0.358   9.235
 1497SOL     OW 6424   1.471   1.375   8.363
 1497SOL    HW1 6425   1.415   1.413   8.436
 1497SOL    HW2 6426   1.448   1.279   8.350
 1498SOL     OW 6427   1.640   1.769   8.035
 1498SOL    HW1 6428   1.616   1.747   7.940
 1498SOL    HW2 6429   1.611   1.694   8.095
 1499SOL     OW 6430   0.593   0.724   7.677
 1499SOL    HW1 6431   0.612   0.816   7.644
 1499SOL    HW2 6432   0.518   0.726   7.743
 1500SOL     OW 6433   1.272   0.410   8.380
 1500SOL    HW1 6434   1.179   0.374   8.382
 1500SOL    HW2 6435   1.331   0.352   8.438
 1501SOL     OW 6436   1.588   1.667   7.777
 1501SOL    HW1 6437   1.687   1.675   7.778
 1501SOL    HW2 6438   1.557   1.657   7.682
 1502SOL     OW 6439   0.797   0.597   8.925
 1502SOL    HW1 6440   0.761   0.558   9.010
 1502SOL    HW2 6441   0.775   0.536   8.849
 1503SOL     OW 6442   1.378   0.501   9.143
 1503SOL    HW1 6443   1.387   0.541   9.234
 1503SOL    HW2 6444   1.468   0.468   9.113
 1504SOL     OW 6445   0.991   0.931   9.037
 1504SOL    HW1 6446   1.031   0.857   8.984
 1504SOL    HW2 6447   0.923   0.979   8.982
 1505SOL     OW 6448   1.013   0.401   8.656
 1505SOL    HW1 6449   0.919   0.421   8.686
 1505SOL    HW2 6450   1.010   0.359   8.565
 1506SOL     OW 6451   1.046   0.730   7.869
 1506SOL    HW1 6452   1.065   0.729   7.967
 1506SOL    HW2 6453   0.958   0.688   7.851
 1507SOL     OW 6454   0.143   0.775   8.227
 1507SOL    HW1 6455   0.208   0.785   8.303
 1507SOL    HW2 6456   0.050   0.779   8.263
 1508SOL     OW 6457   0.118   1.843   9.145
 1508SOL    HW1 6458   0.112   1.776   9.219
 1508SOL    HW2 6459   0.031   1.890   9.136
 1509SOL     OW 6460   0.926   0.300   7.588
 1509SOL    HW1 6461   0.956   0.388   7.549
 1509SOL    HW2 6462   0.994   0.230   7.565
 1510SOL     OW 6463   1.731   0.552   9.233
 1510SOL    HW1 6464   1.696   0.644   9.220
 1510SOL    HW2 6465   1.685   0.489   9.170
 1511SOL     OW 6466   1.430   1.170   8.016
 1511SOL    HW1 6467   1.523   1.160   7.979
 1511SOL    HW2 6468   1.379   1.237   7.961
 1512SOL     OW 6469   0.599   0.185   8.406
 1512SOL    HW1 6470   0.598   0.206   8.504
 1512SOL    HW2 6471   0.603   0.270   8.354
 1513SOL     OW 6472   0.368   1.889   8.334
 1513SOL    HW1 6473   0.400   1.796   8.346
 1513SOL    HW2 6474   0.438   1.953   8.366
 1514SOL     OW 6475   1.797   1.032   8.376
 1514SOL    HW1 6476   1.752   1.020   8.288
 1514SOL    HW2 6477   1.729   1.054   8.446
 1515SOL     OW 6478   1.210   1.557   8.987
 1515SOL    HW1 6479   1.181   1.494   9.059
 1515SOL    HW2 6480   1.136   1.568   8.920
 1516SOL     OW 6481   0.328   0.952   7.720
 1516SOL    HW1 6482   0.411   0.975   7.670
 1516SOL    HW2 6483   0.339   0.864   7.766
 1517SOL     OW 6484   1.476   0.792   8.147
 1517SOL    HW1 6485   1.469   0.738   8.230
 1517SOL    HW2 6486   1.560   0.846   8.149
 1518SOL     OW 6487   0.479   1.200   9.136
 1518SOL    HW1 6488   0.455   1.217   9.040
 1518SOL    HW2 6489   0.398   1.212   9.193
 1519SOL     OW 6490   1.165   1.805   7.639
 1519SOL    HW1 6491   1.067   1.826   7.631
 1519SOL    HW2 6492   1.184   1.717   7.596
 1520SOL     OW 6493   0.155   0.294   8.865
 1520SOL    HW1 6494   0.130   0.390   8.852
 1520SOL    HW2 6495   0.081   0.247   8.914
 1521SOL     OW 6496   1.636   1.389   7.544
 1521SOL    HW1 6497   1.609   1.485   7.534
 1521SOL    HW2 6498   1.558   1.330   7.521
 1522SOL     OW 6499   0.458   1.724   7.770
 1522SOL    HW1 6500   0.505   1.795   7.823
 1522SOL    HW2 6501   0.517   1.694   7.695
 1523SOL     OW 6502   1.287   0.091   7.961
 1523SOL    HW1 6503   1.353   0.035   7.912
 1523SOL    HW2 6504   1.320   0.107   8.054
 1524SOL     OW 6505   0.124   1.667   8.642
 1524SOL    HW1 6506   0.211   1.621   8.662
 1524SOL    HW2 6507   0.111   1.671   8.543
 1525SOL     OW 6508   0.922   1.682   8.246
 1525SOL    HW1 6509   1.016   1.647   8.252
 1525SOL    HW2 6510   0.868   1.620   8.189
 1526SOL     OW 6511   0.377   0.701   7.848
 1526SOL    HW1 6512   0.430   0.617   7.861
 1526SOL    HW2 6513   0.295   0.696   7.905
 1527SOL     OW 6514   1.546   0.150   9.190
 1527SOL    HW1 6515   1.568   0.198   9.276
 1527SOL    HW2 6516   1.447   0.139   9.182
 1528SOL     OW 6517   0.536   0.049   7.579
 1528SOL    HW1 6518   0.609   9.985   7.604
 1528SOL    HW2 6519   0.528   0.054   7.480
 1529SOL     OW 6520   0.716   0.240   9.216
 1529SOL    HW1 6521   0.778   0.165   9.198
 1529SOL    HW2 6522   0.675   0.229   9.306
 1530SOL     OW 6523   0.930   1.459   8.594
 1530SOL    HW1 6524   0.973   1.450   8.504
 1530SOL    HW2 6525   0.971   1.394   8.657
 1531SOL     OW 6526   1.287   0.594   8.903
 1531SOL    HW1 6527   1.319   0.571   8.995
 1531SOL    HW2 6528   1.330   0.679   8.873
 1532SOL     OW 6529   0.939   0.522   8.344
 1532SOL    HW1 6530   0.917   0.516   8.247
 1532SOL    HW2 6531   0.956   0.430   8.380
 1533SOL     OW 6532   0.552   0.174   7.934
 1533SOL    HW1 6533   0.454   0.174   7.955
 1533SOL    HW2 6534   0.566   0.214   7.843
 1534SOL     OW 6535   1.413   1.229   7.497
 1534SOL    HW1 6536   1.462   1.166   7.557
 1534SOL    HW2 6537   1.330   1.261   7.542
 1535SOL     OW 6538   0.320   0.000   7.744
 1535SOL    HW1 6539   0.398   0.018   7.684
 1535SOL    HW2 6540   0.320   0.067   7.818
 1536SOL     OW 6541   0.919   0.341   7.856
 1536SOL    HW1 6542   0.908   0.320   7.759
 1536SOL    HW2 6543   1.017   0.346   7.878
 1537SOL     OW 6544   1.041   0.716   8.877
 1537SOL    HW1 6545   0.962   0.659   8.901
 1537SOL    HW2 6546   1.125   0.662   8.883
 1538SOL     OW 6547   1.186   1.617   8.240
 1538SOL    HW1 6548   1.219   1.668   8.160
 1538SOL    HW2 6549   1.233   1.650   8.322
 1539SOL     OW 6550   0.477   1.061   8.174
 1539SOL    HW1 6551   0.413   1.059   8.251
 1539SOL    HW2 6552   0.425   1.074   8.089
 1540SOL     OW 6553   1.253   1.814   8.039
 1540SOL    HW1 6554   1.308   1.881   7.988
 1540SOL    HW2 6555   1.173   1.860   8.078
 1541SOL     OW 6556   1.028   0.522   7.469
 1541SOL    HW1 6557   0.995   0.607   7.428
 1541SOL    HW2 6558   1.079   0.543   7.552
 1542SOL     OW 6559   0.129   0.565   8.824
 1542SOL    HW1 6560   0.222   0.573   8.787
 1542SOL    HW2 6561   0.118   0.630   8.899
 1543SOL     OW 6562   0.568   0.242   8.675
 1543SOL    HW1 6563   0.598   0.216   8.767
 1543SOL    HW2 6564   0.470   0.226   8.667
 1544SOL     OW 6565   0.869   0.490   8.090
 1544SOL    HW1 6566   0.789   0.549   8.082
 1544SOL    HW2 6567   0.883   0.441   8.004
 1545SOL     OW 6568   0.952   0.083   8.218
 1545SOL    HW1 6569   0.900   0.095   8.134
 1545SOL    HW2 6570   0.962   9.986   8.238
 1546SOL     OW 6571   1.428   1.105   8.330
 1546SOL    HW1 6572   1.371   1.026   8.353
 1546SOL    HW2 6573   1.433   1.114   8.230
 1547SOL     OW 6574   1.447   0.631   8.373
 1547SOL    HW1 6575   1.378   0.559   8.379
 1547SOL    HW2 6576   1.508   0.625   8.452
 1548SOL     OW 6577   1.811   0.763   7.845
 1548SOL    HW1 6578   1.883   0.735   7.909
 1548SOL    HW2 6579   1.814   0.704   7.764
 1549SOL     OW 6580   0.513   1.384   7.553
 1549SOL    HW1 6581   0.424   1.367   7.596
 1549SOL    HW2 6582   0.520   1.329   7.470
 1550SOL     OW 6583   1.806   1.308   8.086
 1550SOL    HW1 6584   1.902   1.284   8.098
 1550SOL    HW2 6585   1.787   1.394   8.134
 1551SOL     OW 6586   1.368   0.555   7.523
 1551SOL    HW1 6587   1.294   0.562   7.590
 1551SOL    HW2 6588   1.427   0.478   7.546
 1552SOL     OW 6589   0.551   0.301   7.690
 1552SOL    HW1 6590   0.550   0.214   7.641
 1552SOL    HW2 6591   0.518   0.373   7.629
 1553SOL     OW 6592   1.747   1.249   8.981
 1553SOL    HW1 6593   1.830   1.193   8.977
 1553SOL    HW2 6594   1.771   1.342   9.009
 1554SOL     OW 6595   1.034   1.292   8.780
 1554SOL    HW1 6596   0.954   1.293   8.840
 1554SOL    HW2 6597   1.114   1.260   8.832
 1555SOL     OW 6598   1.665   1.660   9.094
 1555SOL    HW1 6599   1.636   1.694   9.004
 1555SOL    HW2 6600   1.740   1.595   9.081
 1556SOL     OW 6601   1.187   1.250   8.562
 1556SOL    HW1 6602   1.124   1.259   8.640
 1556SOL    HW2 6603   1.144   1.289   8.481
 1557SOL     OW 6604   1.601   1.092   8.554
 1557SOL    HW1 6605   1.595   1.166   8.621
 1557SOL    HW2 6606   1.529   1.104   8.485
 1558SOL     OW 6607   0.878   0.173   8.833
 1558SOL    HW1 6608   0.894   0.136   8.741
 1558SOL    HW2 6609   0.965   0.204   8.872
 1559SOL     OW 6610   1.006   1.139   9.223
 1559SOL    HW1 6611   0.908   1.149   9.242
 1559SOL    HW2 6612   1.020   1.071   9.152
 1560SOL     OW 6613   0.722   1.043   7.847
 1560SOL    HW1 6614   0.706   1.000   7.936
 1560SOL    HW2 6615   0.811   1.015   7.813
 1561SOL     OW 6616   0.443   0.825   8.753
 1561SOL    HW1 6617   0.513   0.841   8.823
 1561SOL    HW2 6618   0.423   0.728   8.748
 1562SOL     OW 6619   1.260   0.371   8.753
 1562SOL    HW1 6620   1.282   0.452   8.807
 1562SOL    HW2 6621   1.169   0.382   8.712
 1563SOL     OW 6622   0.094   1.536   8.881
 1563SOL    HW1 6623   0.068   1.604   8.814
 1563SOL    HW2 6624   0.191   1.514   8.871
 1564SOL     OW 6625   0.340   1.106   7.950
 1564SOL    HW1 6626   0.315   1.202   7.934
 1564SOL    HW2 6627   0.339   1.057   7.863
 1565SOL     OW 6628   0.588   0.461   8.310
 1565SOL    HW1 6629   0.600   0.513   8.226
 1565SOL    HW2 6630   0.636   0.507   8.385
 1566SOL     OW 6631   1.250   1.353   7.898
 1566SOL    HW1 6632   1.298   1.440   7.908
 1566SOL    HW2 6633   1.186   1.341   7.974
 1567SOL     OW 6634   1.347   1.468   8.586
 1567SOL    HW1 6635   1.382   1.487   8.678
 1567SOL    HW2 6636   1.289   1.386   8.589
 1568SOL     OW 6637   1.600   0.623   7.958
 1568SOL    HW1 6638   1.529   0.680   7.999
 1568SOL    HW2 6639   1.669   0.681   7.915
 1569SOL     OW 6640   0.346   1.507   8.764
 1569SOL    HW1 6641   0.389   1.482   8.677
 1569SOL    HW2 6642   0.406   1.569   8.814
 1570SOL     OW 6643   0.503   0.735   9.132
 1570SOL    HW1 6644   0.554   0.783   9.061
 1570SOL    HW2 6645   0.554   0.654   9.160
 1571SOL     OW 6646   1.632   0.795   9.190
 1571SOL    HW1 6647   1.541   0.827   9.216
 1571SOL    HW2 6648   1.655   0.831   9.100
 1572SOL     OW 6649   0.878   0.019   9.193
 1572SOL    HW1 6650   0.934   0.056   9.267
 1572SOL    HW2 6651   0.937   9.997   9.115
 1573SOL     OW 6652   0.419   0.040   9.326
 1573SOL    HW1 6653   0.467   9.999   9.248
 1573SOL    HW2 6654   0.411   0.138   9.313
 1574SOL     OW 6655   0.587   0.862   8.522
 1574SOL    HW1 6656   0.631   0.951   8.514
 1574SOL    HW2 6657   0.534   0.859   8.607
 1575SOL     OW 6658   1.296   0.865   8.419
 1575SOL    HW1 6659   1.200   0.838   8.411
 1575SOL    HW2 6660   1.355   0.785   8.405
 1576SOL     OW 6661   1.166   0.548   7.705
 1576SOL    HW1 6662   1.183   0.469   7.765
 1576SOL    HW2 6663   1.129   0.623   7.759
 1577SOL     OW 6664   0.303   0.179   8.674
 1577SOL    HW1 6665   0.240   0.218   8.740
 1577SOL    HW2 6666   0.314   0.081   8.692
 1578SOL     OW 6667   0.063   1.309   8.719
 1578SOL    HW1 6668   0.099   1.232   8.772
 1578SOL    HW2 6669   0.059   1.390   8.778
 1579SOL     OW 6670   0.715   0.621   8.491
 1579SOL    HW1 6671   0.797   0.621   8.433
 1579SOL    HW2 6672   0.672   0.711   8.488
 1580SOL     OW 6673   1.783   0.967   9.344
 1580SOL    HW1 6674   1.735   0.896   9.292
 1580SOL    HW2 6675   1.725   0.996   9.420
 1581SOL     OW 6676   1.654   0.405   7.794
 1581SOL    HW1 6677   1.704   0.338   7.849
 1581SOL    HW2 6678   1.622   0.479   7.854
 1582SOL     OW 6679   1.033   0.768   8.404
 1582SOL    HW1 6680   1.005   0.791   8.497
 1582SOL    HW2 6681   1.010   0.672   8.385
 1583SOL     OW 6682   0.917   1.617   9.097
 1583SOL    HW1 6683   0.934   1.617   8.999
 1583SOL    HW2 6684   0.971   1.545   9.140
 1584SOL     OW 6685   1.869   1.493   9.021
 1584SOL    HW1 6686   1.888   1.515   8.925
 1584SOL    HW2 6687   1.952   1.510   9.075
 1585SOL     OW 6688   0.365   0.915   9.297
 1585SOL    HW1 6689   0.425   0.981   9.342
 1585SOL    HW2 6690   0.419   0.851   9.243
 1586SOL     OW 6691   1.490   0.315   7.594
 1586SOL    HW1 6692   1.437   0.236   7.624
 1586SOL    HW2 6693   1.552   0.344   7.667
 1587SOL     OW 6694   1.305   0.820   7.463
 1587SOL    HW1 6695   1.341   0.728   7.476
 1587SOL    HW2 6696   1.339   0.857   7.377
 1588SOL     OW 6697   1.079   1.381   8.352
 1588SOL    HW1 6698   1.076   1.304   8.288
 1588SOL    HW2 6699   1.122   1.460   8.307
 1589SOL     OW 6700   0.319   0.786   8.444
 1589SOL    HW1 6701   0.412   0.823   8.449
 1589SOL    HW2 6702   0.322   0.686   8.455
 1590SOL     OW 6703   0.368   0.512   8.468
 1590SOL    HW1 6704   0.294   0.445   8.459
 1590SOL    HW2 6705   0.440   0.490   8.402
 1591SOL     OW 6706   1.163   0.343   9.196
 1591SOL    HW1 6707   1.102   0.404   9.247
 1591SOL    HW2 6708   1.247   0.391   9.172
 1592SOL     OW 6709   1.127   0.216   8.948
 1592SOL    HW1 6710   1.135   0.262   9.037
 1592SOL    HW2 6711   1.183   0.264   8.881
 1593SOL     OW 6712   9.981   1.321   7.653
 1593SOL    HW1 6713   9.961   1.309   7.556
 1593SOL    HW2 6714   9.996   1.232   7.695
 1594SOL     OW 6715   0.102   1.656   8.366
 1594SOL    HW1 6716   0.116   1.566   8.325
 1594SOL    HW2 6717   0.147   1.725   8.311
 1595SOL     OW 6718   0.498   1.642   8.328
 1595SOL    HW1 6719   0.582   1.693   8.348
 1595SOL    HW2 6720   0.501   1.607   8.234
 1596SOL     OW 6721   0.928   0.814   8.647
 1596SOL    HW1 6722   0.980   0.787   8.728
 1596SOL    HW2 6723   0.833   0.783   8.657
 1597SOL     OW 6724   0.034   0.530   8.557
 1597SOL    HW1 6725   0.084   0.449   8.529
 1597SOL    HW2 6726   0.050   0.548   8.654
 1598SOL     OW 6727   0.266   0.468   9.133
 1598SOL    HW1 6728   0.323   0.430   9.060
 1598SOL    HW2 6729   0.239   0.561   9.110
 1599SOL     OW 6730   0.816   0.613   7.798
 1599SOL    HW1 6731   0.811   0.513   7.800
 1599SOL    HW2 6732   0.736   0.649   7.750
 1600SOL     OW 6733   1.616   0.602   8.583
 1600SOL    HW1 6734   1.573   0.562   8.664
 1600SOL    HW2 6735   1.706   0.561   8.569
 1601SOL     OW 6736   0.334   1.521   9.232
 1601SOL    HW1 6737   0.260   1.564   9.284
 1601SOL    HW2 6738   0.319   1.422   9.229
 1602SOL     OW 6739   0.744   0.454   8.699
 1602SOL    HW1 6740   0.682   0.376   8.690
 1602SOL    HW2 6741   0.728   0.518   8.624
 1603SOL     OW 6742   0.989   1.623   8.823
 1603SOL    HW1 6743   0.962   1.565   8.746
 1603SOL    HW2 6744   0.986   1.719   8.795
 1604SOL     OW 6745   0.457   0.520   7.555
 1604SOL    HW1 6746   0.521   0.591   7.585
 1604SOL    HW2 6747   0.364   0.557   7.555
 1605SOL     OW 6748   0.178   1.104   8.855
 1605SOL    HW1 6749   0.174   1.073   8.950
 1605SOL    HW2 6750   0.175   1.024   8.794
 1606SOL     OW 6751   1.291   1.017   8.647
 1606SOL    HW1 6752   1.298   0.954   8.570
 1606SOL    HW2 6753   1.256   1.105   8.614
 1607SOL     OW 6754   1.342   0.912   7.719
 1607SOL    HW1 6755   1.266   0.886   7.778
 1607SOL    HW2 6756   1.326   0.878   7.627
 1608SOL     OW 6757   1.750   1.692   8.585
 1608SOL    HW1 6758   1.818   1.724   8.519
 1608SOL    HW2 6759   1.719   1.600   8.561
 1609SOL     OW 6760   1.312   1.706   8.459
 1609SOL    HW1 6761   1.390   1.767   8.477
 1609SOL    HW2 6762   1.323   1.623   8.513
 1610SOL     OW 6763   0.215   1.312   8.489
 1610SOL    HW1 6764   0.159   1.312   8.571
 1610SOL    HW2 6765   0.161   1.345   8.411
 1611SOL     OW 6766   0.678   1.680   9.205
 1611SOL    HW1 6767   0.654   1.777   9.196
 1611SOL    HW2 6768   0.769   1.664   9.167
 1612SOL     OW 6769   1.806   0.213   7.940
 1612SOL    HW1 6770   1.818   0.176   7.848
 1612SOL    HW2 6771   1.839   0.148   8.008
 1613SOL     OW 6772   1.383   1.587   7.943
 1613SOL    HW1 6773   1.453   1.611   7.876
 1613SOL    HW2 6774   1.332   1.669   7.970
 1614SOL     OW 6775   0.118   1.651   9.347
 1614SOL    HW1 6776   0.055   1.611   9.413
 1614SOL    HW2 6777   0.175   1.720   9.392
 1615SOL     OW 6778   1.275   0.966   8.094
 1615SOL    HW1 6779   1.343   0.894   8.112
 1615SOL    HW2 6780   1.320   1.044   8.051
 1616SOL     OW 6781   0.784   1.298   8.893
 1616SOL    HW1 6782   0.745   1.345   8.972
 1616SOL    HW2 6783   0.731   1.321   8.811
 1617SOL     OW 6784   0.613   1.634   7.570
 1617SOL    HW1 6785   0.646   1.656   7.478
 1617SOL    HW2 6786   0.581   1.539   7.572
 1618SOL     OW 6787   1.615   1.736   8.831
 1618SOL    HW1 6788   1.664   1.725   8.745
 1618SOL    HW2 6789   1.619   1.832   8.860
 1619SOL     OW 6790   1.835   0.111   8.362
 1619SOL    HW1 6791   1.872   0.078   8.275
 1619SOL    HW2 6792   1.750   0.160   8.346
 1620SOL     OW 6793   1.229   1.573   7.508
 1620SOL    HW1 6794   1.225   1.483   7.553
 1620SOL    HW2 6795   1.152   1.582   7.445
 1621SOL     OW 6796   0.818   1.033   8.852
 1621SOL    HW1 6797   0.856   1.024   8.760
 1621SOL    HW2 6798   0.799   1.129   8.870
 1622SOL     OW 6799   0.956   0.960   7.752
 1622SOL    HW1 6800   0.991   0.959   7.658
 1622SOL    HW2 6801   0.992   0.880   7.801
 1623SOL     OW 6802   1.500   1.648   7.510
 1623SOL    HW1 6803   1.404   1.621   7.502
 1623SOL    HW2 6804   1.540   1.657   7.419
 1624SOL     OW 6805   0.391   1.268   8.893
 1624SOL    HW1 6806   0.380   1.355   8.846
 1624SOL    HW2 6807   0.317   1.206   8.867
 1625SOL     OW 6808   1.606   1.303   8.742
 1625SOL    HW1 6809   1.666   1.275   8.817
 1625SOL    HW2 6810   1.539   1.369   8.775
 1626SOL     OW 6811   1.077   1.152   8.195
 1626SOL    HW1 6812   1.000   1.099   8.228
 1626SOL    HW2 6813   1.147   1.091   8.159
 1627SOL     OW 6814   1.010   0.259   8.420
 1627SOL    HW1 6815   0.997   0.216   8.330
 1627SOL    HW2 6816   0.991   0.192   8.492
 1628SOL     OW 6817   0.617   1.521   7.907
 1628SOL    HW1 6818   0.653   1.452   7.844
 1628SOL    HW2 6819   0.552   1.579   7.858
 1629SOL     OW 6820   1.769   0.319   8.847
 1629SOL    HW1 6821   1.840   0.390   8.843
 1629SOL    HW2 6822   1.766   0.270   8.760
 1630SOL     OW 6823   0.257   1.335   7.650
 1630SOL    HW1 6824   0.158   1.331   7.640
 1630SOL    HW2 6825   0.281   1.343   7.747
 1631SOL     OW 6826   0.151   0.992   9.113
 1631SOL    HW1 6827   0.094   1.071   9.134
 1631SOL    HW2 6828   0.230   0.991   9.174
 1632SOL     OW 6829   0.642   0.221   8.948
 1632SOL    HW1 6830   0.730   0.201   8.905
 1632SOL    HW2 6831   0.654   0.231   9.047
 1633SOL     OW 6832   0.109   0.283   7.457
 1633SOL    HW1 6833   0.023   0.238   7.481
 1633SOL    HW2 6834   0.090   0.363   7.400
 1634SOL     OW 6835   1.397   0.820   8.808
 1634SOL    HW1 6836   1.341   0.891   8.765
 1634SOL    HW2 6837   1.492   0.832   8.781
 1635SOL     OW 6838   0.051   0.056   7.732
 1635SOL    HW1 6839   0.051   0.152   7.758
 1635SOL    HW2 6840   0.145   0.024   7.721
 1636SOL     OW 6841   1.190   1.327   7.625
 1636SOL    HW1 6842   1.093   1.308   7.606
 1636SOL    HW2 6843   1.205   1.326   7.723
 1637SOL     OW 6844   0.654   0.830   8.926
 1637SOL    HW1 6845   0.709   0.911   8.906
 1637SOL    HW2 6846   0.713   0.749   8.924
 1638SOL     OW 6847   1.534   1.865   8.505
 1638SOL    HW1 6848   1.566   1.920   8.428
 1638SOL    HW2 6849   1.610   1.811   8.541
 1639SOL     OW 6850   0.704   0.520   9.175
 1639SOL    HW1 6851   0.773   0.559   9.236
 1639SOL    HW2 6852   0.701   0.421   9.188
 1640SOL     OW 6853   0.372   1.754   9.099
 1640SOL    HW1 6854   0.279   1.791   9.101
 1640SOL    HW2 6855   0.374   1.666   9.146
 1641SOL     OW 6856   1.644   0.861   8.697
 1641SOL    HW1 6857   1.647   0.779   8.639
 1641SOL    HW2 6858   1.632   0.942   8.641
 1642SOL     OW 6859   1.189   0.347   7.897
 1642SOL    HW1 6860   1.229   0.256   7.910
 1642SOL    HW2 6861   1.210   0.405   7.976
 1643SOL     OW 6862   0.642   0.641   8.098
 1643SOL    HW1 6863   0.659   0.739   8.097
 1643SOL    HW2 6864   0.595   0.614   8.014
 1644SOL     OW 6865   1.611   0.385   9.060
 1644SOL    HW1 6866   1.665   0.369   8.977
 1644SOL    HW2 6867   1.594   0.298   9.106
 1645SOL     OW 6868   1.715   0.908   8.955
 1645SOL    HW1 6869   1.701   1.006   8.971
 1645SOL    HW2 6870   1.693   0.886   8.860
 1646SOL     OW 6871   0.899   1.344   7.550
 1646SOL    HW1 6872   0.845   1.358   7.633
 1646SOL    HW2 6873   0.910   1.432   7.503
 1647SOL     OW 6874   0.715   1.802   8.371
 1647SOL    HW1 6875   0.702   1.894   8.334
 1647SOL    HW2 6876   0.795   1.760   8.327
 1648SOL     OW 6877   0.885   0.981   8.305
 1648SOL    HW1 6878   0.939   0.905   8.341
 1648SOL    HW2 6879   0.835   1.025   8.379
 1649SOL     OW 6880   1.061   0.932   7.503
 1649SOL    HW1 6881   1.047   1.008   7.440
 1649SOL    HW2 6882   1.153   0.894   7.490
 1650SOL     OW 6883   1.793   1.543   8.283
 1650SOL    HW1 6884   1.708   1.555   8.232
 1650SOL    HW2 6885   1.775   1.491   8.367
 1651SOL     OW 6886   0.252   1.256   9.272
 1651SOL    HW1 6887   0.159   1.244   9.238
 1651SOL    HW2 6888   0.248   1.273   9.371
 1652SOL     OW 6889   0.084   1.196   8.084
 1652SOL    HW1 6890   9.988   1.172   8.094
 1652SOL    HW2 6891   0.138   1.114   8.066
 1653SOL     OW 6892   0.665   1.417   9.108
 1653SOL    HW1 6893   0.578   1.369   9.120
 1653SOL    HW2 6894   0.654   1.513   9.136
 1654SOL     OW 6895   1.752   0.152   8.635
 1654SOL    HW1 6896   1.669   0.097   8.631
 1654SOL    HW2 6897   1.793   0.157   8.544
 1655SOL     OW 6898   0.524   0.478   7.900
 1655SOL    HW1 6899   0.538   0.422   7.818
 1655SOL    HW2 6900   0.512   0.419   7.980
 1656SOL     OW 6901   1.686   1.439   8.515
 1656SOL    HW1 6902   1.611   1.415   8.454
 1656SOL    HW2 6903   1.678   1.387   8.600
 1657SOL     OW 6904   0.386   0.565   8.735
 1657SOL    HW1 6905   0.415   0.491   8.795
 1657SOL    HW2 6906   0.391   0.535   8.640
 1658SOL     OW 6907   1.421   0.257   8.557
 1658SOL    HW1 6908   1.435   0.160   8.577
 1658SOL    HW2 6909   1.371   0.300   8.632
 1659SOL     OW 6910   0.933   0.052   8.589
 1659SOL    HW1 6911   0.850   0.019   8.546
 1659SOL    HW2 6912   0.992   9.975   8.613
 1660SOL     OW 6913   0.774   1.316   7.799
 1660SOL    HW1 6914   0.741   1.222   7.808
 1660SOL    HW2 6915   0.849   1.330   7.864
 1661SOL     OW 6916   1.351   0.050   7.599
 1661SOL    HW1 6917   1.447   0.020   7.595
 1661SOL    HW2 6918   1.294   9.975   7.632
 1662SOL     OW 6919   1.237   0.498   8.115
 1662SOL    HW1 6920   1.193   0.588   8.119
 1662SOL    HW2 6921   1.255   0.465   8.208
 1663SOL     OW 6922   1.602   0.253   8.338
 1663SOL    HW1 6923   1.547   0.269   8.419
 1663SOL    HW2 6924   1.611   0.338   8.286
 1664SOL     OW 6925   0.058   1.079   7.753
 1664SOL    HW1 6926   0.153   1.050   7.753
 1664SOL    HW2 6927   9.999   0.999   7.763
 1665SOL     OW 6928   0.205   0.538   9.393
 1665SOL    HW1 6929   0.170   0.631   9.387
 1665SOL    HW2 6930   0.225   0.503   9.301
 1666SOL     OW 6931   1.838   0.589   9.477
 1666SOL    HW1 6932   1.804   0.584   9.383
 1666SOL    HW2 6933   1.787   0.527   9.535
 1667SOL     OW 6934   0.238   1.696   9.758
 1667SOL    HW1 6935   0.189   1.777   9.790
 1667SOL    HW2 6936   0.320   1.724   9.708
 1668SOL     OW 6937   0.234   1.431   9.778
 1668SOL    HW1 6938   0.237   1.531   9.773
 1668SOL    HW2 6939   0.167   1.403   9.847
 1669SOL     OW 6940   0.562   1.064   9.434
 1669SOL    HW1 6941   0.638   1.091   9.375
 1669SOL    HW2 6942   0.598   1.018   9.515
 1670SOL     OW 6943   0.090   0.690   9.931
 1670SOL    HW1 6944   0.048   0.631   9.862
 1670SOL    HW2 6945   0.018   0.737   9.982
 1671SOL     OW 6946   1.859   1.776   9.663
 1671SOL    HW1 6947   1.941   1.752   9.715
 1671SOL    HW2 6948   1.858   1.874   9.644
 1672SOL     OW 6949   9.938   1.515   9.507
 1672SOL    HW1 6950   9.912   1.450   9.436
 1672SOL    HW2 6951   9.936   1.469   9.596
 1673SOL     OW 6952   1.648   0.878   9.954
 1673SOL    HW1 6953   1.736   0.853   9.997
 1673SOL    HW2 6954   1.662   0.957   9.895
 1674SOL     OW 6955   1.711   1.093   9.795
 1674SOL    HW1 6956   1.799   1.091   9.747
 1674SOL    HW2 6957   1.702   1.179   9.845
 1675SOL     OW 6958   0.624   1.354   9.947
 1675SOL    HW1 6959   0.570   1.272   9.966
 1675SOL    HW2 6960   0.642   1.361   9.849
 1676SOL     OW 6961   0.854   0.004   9.804
 1676SOL    HW1 6962   0.904   0.087   9.780
 1676SOL    HW2 6963   0.760   0.028   9.829
 1677SOL     OW 6964   1.587   1.023   9.552
 1677SOL    HW1 6965   1.496   0.982   9.562
 1677SOL    HW2 6966   1.629   1.033   9.643
 1678SOL     OW 6967   0.559   0.686   9.646
 1678SOL    HW1 6968   0.600   0.777   9.634
 1678SOL    HW2 6969   0.493   0.690   9.721
 1679SOL     OW 6970   1.600   1.707   9.610
 1679SOL    HW1 6971   1.695   1.725   9.637
 1679SOL    HW2 6972   1.599   1.672   9.516
 1680SOL     OW 6973   1.027   0.679   9.739
 1680SOL    HW1 6974   1.037   0.694   9.837
 1680SOL    HW2 6975   0.942   0.630   9.721
 1681SOL     OW 6976   0.070   1.038   0.101
 1681SOL    HW1 6977   0.160   0.996   0.090
 1681SOL    HW2 6978   0.054   1.061   0.197
 1682SOL     OW 6979   0.892   0.345   9.501
 1682SOL    HW1 6980   0.938   0.416   9.449
 1682SOL    HW2 6981   0.901   0.257   9.453
 1683SOL     OW 6982   1.301   1.138   9.837
 1683SOL    HW1 6983   1.350   1.143   9.923
 1683SOL    HW2 6984   1.285   1.231   9.802
 1684SOL     OW 6985   1.040   1.485   9.868
 1684SOL    HW1 6986   0.995   1.517   9.785
 1684SOL    HW2 6987   0.972   1.467   9.939
 1685SOL     OW 6988   0.277   1.696   0.152
 1685SOL    HW1 6989   0.346   1.630   0.124
 1685SOL    HW2 6990   0.278   1.705   0.252
 1686SOL     OW 6991   0.276   0.912   9.679
 1686SOL    HW1 6992   0.322   0.915   9.590
 1686SOL    HW2 6993   0.309   0.833   9.731
 1687SOL     OW 6994   1.697   1.423   9.443
 1687SOL    HW1 6995   1.653   1.497   9.392
 1687SOL    HW2 6996   1.627   1.364   9.483
 1688SOL     OW 6997   0.461   1.767   9.619
 1688SOL    HW1 6998   0.522   1.820   9.679
 1688SOL    HW2 6999   0.515   1.710   9.558
 1689SOL     OW 7000   1.422   0.118   9.815
 1689SOL    HW1 7001   1.344   0.067   9.852
 1689SOL    HW2 7002   1.424   0.108   9.715
 1690SOL     OW 7003   0.351   0.694   9.840
 1690SOL    HW1 7004   0.383   0.600   9.855
 1690SOL    HW2 7005   0.257   0.702   9.873
 1691SOL     OW 7006   0.644   0.116   9.468
 1691SOL    HW1 7007   0.695   0.037   9.500
 1691SOL    HW2 7008   0.558   0.085   9.426
 1692SOL     OW 7009   0.607   0.112   9.853
 1692SOL    HW1 7010   0.517   0.070   9.860
 1692SOL    HW2 7011   0.605   0.185   9.785
 1693SOL     OW 7012   1.492   1.281   9.544
 1693SOL    HW1 7013   1.521   1.185   9.539
 1693SOL    HW2 7014   1.417   1.290   9.609
 1694SOL     OW 7015   0.263   9.966   9.546
 1694SOL    HW1 7016   0.322   9.997   9.471
 1694SOL    HW2 7017   0.305   9.990   9.633
 1695SOL     OW 7018   0.988   0.227   9.730
 1695SOL    HW1 7019   0.952   0.270   9.647
 1695SOL    HW2 7020   1.084   0.252   9.741
 1696SOL     OW 7021   0.430   1.175   0.051
 1696SOL    HW1 7022   0.372   1.227   0.113
 1696SOL    HW2 7023   0.381   1.157   9.966
 1697SOL     OW 7024   1.310   1.841   9.895
 1697SOL    HW1 7025   1.350   1.919   9.847
 1697SOL    HW2 7026   1.211   1.846   9.890
 1698SOL     OW 7027   1.036   0.525   9.360
 1698SOL    HW1 7028   1.022   0.616   9.320
 1698SOL    HW2 7029   1.102   0.531   9.434
 1699SOL     OW 7030   0.884   0.412   9.904
 1699SOL    HW1 7031   0.838   0.472   9.838
 1699SOL    HW2 7032   0.917   0.330   9.858
 1700SOL     OW 7033   1.837   0.796   9.647
 1700SOL    HW1 7034   1.910   0.775   9.712
 1700SOL    HW2 7035   1.840   0.730   9.571
 1701SOL     OW 7036   0.507   1.328   9.500
 1701SOL    HW1 7037   0.408   1.333   9.512
 1701SOL    HW2 7038   0.532   1.236   9.469
 1702SOL     OW 7039   1.394   0.592   9.398
 1702SOL    HW1 7040   1.325   0.571   9.467
 1702SOL    HW2 7041   1.483   0.604   9.443
 1703SOL     OW 7042   0.576   0.299   9.660
 1703SOL    HW1 7043   0.615   0.236   9.593
 1703SOL    HW2 7044   0.522   0.369   9.612
 1704SOL     OW 7045   0.659   0.939   9.656
 1704SOL    HW1 7046   0.634   0.936   9.753
 1704SOL    HW2 7047   0.758   0.934   9.647
 1705SOL     OW 7048   0.293   1.147   9.817
 1705SOL    HW1 7049   0.307   1.225   9.756
 1705SOL    HW2 7050   0.290   1.063   9.764
 1706SOL     OW 7051   1.272   1.398   9.738
 1706SOL    HW1 7052   1.340   1.469   9.758
 1706SOL    HW2 7053   1.186   1.421   9.784
 1707SOL     OW 7054   1.606   0.691   9.745
 1707SOL    HW1 7055   1.590   0.736   9.833
 1707SOL    HW2 7056   1.683   0.735   9.699
 1708SOL     OW 7057   1.198   0.532   9.583
 1708SOL    HW1 7058   1.226   0.455   9.640
 1708SOL    HW2 7059   1.143   0.596   9.637
 1709SOL     OW 7060   0.343   0.036   9.876
 1709SOL    HW1 7061   0.286   0.112   9.845
 1709SOL    HW2 7062   0.348   0.036   9.976
 1710SOL     OW 7063   1.657   0.448   9.627
 1710SOL    HW1 7064   1.709   0.388   9.688
 1710SOL    HW2 7065   1.625   0.528   9.679
 1711SOL     OW 7066   1.569   0.276   9.424
 1711SOL    HW1 7067   1.514   0.212   9.478
 1711SOL    HW2 7068   1.606   0.346   9.485
 1712SOL     OW 7069   9.995   1.194   9.547
 1712SOL    HW1 7070   9.945   1.253   9.611
 1712SOL    HW2 7071   9.988   1.099   9.577
 1713SOL     OW 7072   0.797   0.543   9.682
 1713SOL    HW1 7073   0.809   0.470   9.614
 1713SOL    HW2 7074   0.711   0.591   9.664
 1714SOL     OW 7075   0.445   0.484   9.511
 1714SOL    HW1 7076   0.491   0.563   9.550
 1714SOL    HW2 7077   0.354   0.510   9.479
 1715SOL     OW 7078   1.319   0.966   9.624
 1715SOL    HW1 7079   1.310   1.029   9.701
 1715SOL    HW2 7080   1.310   0.872   9.656
 1716SOL     OW 7081   1.834   0.271   9.750
 1716SOL    HW1 7082   1.872   0.269   9.658
 1716SOL    HW2 7083   1.788   0.184   9.769
 1717SOL     OW 7084   1.434   1.613   9.806
 1717SOL    HW1 7085   1.499   1.639   9.734
 1717SOL    HW2 7086   1.387   1.694   9.839
 1718SOL     OW 7087   0.581   1.599   9.448
 1718SOL    HW1 7088   0.614   1.626   9.358
 1718SOL    HW2 7089   0.549   1.505   9.445
 1719SOL     OW 7090   1.760   0.170   0.224
 1719SOL    HW1 7091   1.740   0.078   0.191
 1719SOL    HW2 7092   1.699   0.235   0.179
 1720SOL     OW 7093   1.293   1.707   9.368
 1720SOL    HW1 7094   1.239   1.630   9.402
 1720SOL    HW2 7095   1.256   1.738   9.281
 1721SOL     OW 7096   0.923   0.903   9.617
 1721SOL    HW1 7097   0.984   0.937   9.545
 1721SOL    HW2 7098   0.966   0.826   9.663
 1722SOL     OW 7099   1.564   1.640   9.345
 1722SOL    HW1 7100   1.466   1.661   9.345
 1722SOL    HW2 7101   1.601   1.655   9.253
 1723SOL     OW 7102   0.677   1.444   9.685
 1723SOL    HW1 7103   0.630   1.390   9.615
 1723SOL    HW2 7104   0.625   1.528   9.703
 1724SOL     OW 7105   0.235   1.311   9.540
 1724SOL    HW1 7106   0.147   1.264   9.534
 1724SOL    HW2 7107   0.236   1.371   9.619
 1725SOL     OW 7108   0.115   0.233   9.184
 1725SOL    HW1 7109   0.057   0.237   9.265
 1725SOL    HW2 7110   0.152   0.323   9.164
 1726SOL     OW 7111   9.991   9.970   9.589
 1726SOL    HW1 7112   9.985   9.973   9.689
 1726SOL    HW2 7113   0.087   9.961   9.562
 1727SOL     OW 7114   1.144   1.486   9.480
 1727SOL    HW1 7115   1.059   1.505   9.528
 1727SOL    HW2 7116   1.209   1.443   9.543
 1728SOL     OW 7117   1.242   0.333   9.772
 1728SOL    HW1 7118   1.323   0.275   9.785
 1728SOL    HW2 7119   1.216   0.373   9.860
 1729SOL     OW 7120   0.558   0.885   9.909
 1729SOL    HW1 7121   0.576   0.912   0.003
 1729SOL    HW2 7122   0.481   0.820   9.907
 1730SOL     OW 7123   1.113   0.970   9.427
 1730SOL    HW1 7124   1.096   1.050   9.370
 1730SOL    HW2 7125   1.194   0.986   9.484
 1731SOL     OW 7126   0.065   1.252   9.923
 1731SOL    HW1 7127   0.034   1.190   9.995
 1731SOL    HW2 7128   0.146   1.214   9.879
 1732SOL     OW 7129   0.439   0.439   9.882
 1732SOL    HW1 7130   0.509   0.391   9.829
 1732SOL    HW2 7131   0.465   0.439   9.979
 1733SOL     OW 7132   1.433   0.078   9.549
 1733SOL    HW1 7133   1.503   0.006   9.549
 1733SOL    HW2 7134   1.343   0.037   9.537
 1734SOL     OW 7135   9.997   0.950   9.666
 1734SOL    HW1 7136   0.094   0.933   9.685
 1734SOL    HW2 7137   9.943   0.923   9.746
 1735SOL     OW 7138   0.234   2.408   0.117
 1735SOL    HW1 7139   0.179   2.396   0.199
 1735SOL    HW2 7140   0.186   2.469   0.053
 1736SOL     OW 7141   0.142   2.140   0.960
 1736SOL    HW1 7142   0.164   2.086   1.042
 1736SOL    HW2 7143   0.046   2.166   0.962
 1737SOL     OW 7144   0.008   2.310   0.649
 1737SOL    HW1 7145   9.975   2.307   0.743
 1737SOL    HW2 7146   9.935   2.282   0.587
 1738SOL     OW 7147   0.555   3.147   1.136
 1738SOL    HW1 7148   0.472   3.166   1.084
 1738SOL    HW2 7149   0.559   3.209   1.215
 1739SOL     OW 7150   1.580   3.338   0.718
 1739SOL    HW1 7151   1.526   3.298   0.792
 1739SOL    HW2 7152   1.519   3.371   0.646
 1740SOL     OW 7153   1.131   2.594   0.669
 1740SOL    HW1 7154   1.189   2.675   0.661
 1740SOL    HW2 7155   1.074   2.601   0.751
 1741SOL     OW 7156   1.770   2.422   0.182
 1741SOL    HW1 7157   1.702   2.443   0.112
 1741SOL    HW2 7158   1.731   2.356   0.246
 1742SOL     OW 7159   0.775   3.050   1.012
 1742SOL    HW1 7160   0.690   3.074   1.059
 1742SOL    HW2 7161   0.789   3.110   0.934
 1743SOL     OW 7162   0.883   2.608   1.817
 1743SOL    HW1 7163   0.873   2.659   1.903
 1743SOL    HW2 7164   0.901   2.672   1.742
 1744SOL     OW 7165   0.812   3.112   1.828
 1744SOL    HW1 7166   0.868   3.170   1.887
 1744SOL    HW2 7167   0.761   3.170   1.764
 1745SOL     OW 7168   0.339   3.259   0.999
 1745SOL    HW1 7169   0.257   3.243   0.944
 1745SOL    HW2 7170   0.408   3.306   0.944
 1746SOL     OW 7171   1.425   3.449   1.366
 1746SOL    HW1 7172   1.495   3.518   1.386
 1746SOL    HW2 7173   1.354   3.451   1.436
 1747SOL     OW 7174   0.374   2.207   1.453
 1747SOL    HW1 7175   0.454   2.147   1.448
 1747SOL    HW2 7176   0.290   2.152   1.449
 1748SOL     OW 7177   1.532   2.267   0.775
 1748SOL    HW1 7178   1.458   2.274   0.708
 1748SOL    HW2 7179   1.543   2.355   0.822
 1749SOL     OW 7180   0.291   3.523   0.502
 1749SOL    HW1 7181   0.218   3.591   0.505
 1749SOL    HW2 7182   0.374   3.564   0.465
 1750SOL     OW 7183   1.142   3.246   1.712
 1750SOL    HW1 7184   1.186   3.232   1.801
 1750SOL    HW2 7185   1.101   3.161   1.681
 1751SOL     OW 7186   0.366   3.261   0.493
 1751SOL    HW1 7187   0.331   3.355   0.500
 1751SOL    HW2 7188   0.328   3.205   0.566
 1752SOL     OW 7189   0.306   2.903   0.883
 1752SOL    HW1 7190   0.292   2.804   0.879
 1752SOL    HW2 7191   0.249   2.942   0.955
 1753SOL     OW 7192   0.546   3.621   1.430
 1753SOL    HW1 7193   0.486   3.626   1.510
 1753SOL    HW2 7194   0.606   3.701   1.429
 1754SOL     OW 7195   0.632   2.804   0.125
 1754SOL    HW1 7196   0.567   2.880   0.118
 1754SOL    HW2 7197   0.722   2.840   0.152
 1755SOL     OW 7198   1.707   1.970   1.498
 1755SOL    HW1 7199   1.735   2.049   1.444
 1755SOL    HW2 7200   1.642   1.998   1.568
 1756SOL     OW 7201   0.140   2.550   0.596
 1756SOL    HW1 7202   0.098   2.460   0.608
 1756SOL    HW2 7203   0.106   2.612   0.667
 1757SOL     OW 7204   1.895   3.572   0.318
 1757SOL    HW1 7205   1.968   3.544   0.379
 1757SOL    HW2 7206   1.911   3.666   0.288
 1758SOL     OW 7207   9.998   3.421   0.202
 1758SOL    HW1 7208   0.007   3.322   0.212
 1758SOL    HW2 7209   0.084   3.458   0.167
 1759SOL     OW 7210   1.709   2.727   0.632
 1759SOL    HW1 7211   1.792   2.739   0.685
 1759SOL    HW2 7212   1.699   2.802   0.567
 1760SOL     OW 7213   1.701   2.949   0.465
 1760SOL    HW1 7214   1.778   2.947   0.400
 1760SOL    HW2 7215   1.719   3.018   0.535
 1761SOL     OW 7216   0.254   2.605   1.601
 1761SOL    HW1 7217   0.352   2.610   1.619
 1761SOL    HW2 7218   0.210   2.689   1.634
 1762SOL     OW 7219   1.372   3.009   1.364
 1762SOL    HW1 7220   1.365   2.909   1.358
 1762SOL    HW2 7221   1.419   3.034   1.449
 1763SOL     OW 7222   0.863   1.934   0.507
 1763SOL    HW1 7223   0.911   2.015   0.470
 1763SOL    HW2 7224   0.766   1.954   0.514
 1764SOL     OW 7225   0.182   2.806   1.259
 1764SOL    HW1 7226   0.268   2.756   1.250
 1764SOL    HW2 7227   0.167   2.861   1.177
 1765SOL     OW 7228   1.532   2.855   0.269
 1765SOL    HW1 7229   1.472   2.780   0.298
 1765SOL    HW2 7230   1.595   2.877   0.344
 1766SOL     OW 7231   1.305   3.748   1.621
 1766SOL    HW1 7232   1.247   3.803   1.561
 1766SOL    HW2 7233   1.291   3.651   1.602
 1767SOL     OW 7234   0.402   2.090   1.886
 1767SOL    HW1 7235   0.420   2.178   1.931
 1767SOL    HW2 7236   0.311   2.092   1.845
 1768SOL     OW 7237   1.470   3.206   0.935
 1768SOL    HW1 7238   1.411   3.192   1.015
 1768SOL    HW2 7239   1.486   3.118   0.891
 1769SOL     OW 7240   1.655   3.731   0.513
 1769SOL    HW1 7241   1.646   3.658   0.445
 1769SOL    HW2 7242   1.672   3.691   0.603
 1770SOL     OW 7243   0.586   2.564   0.257
 1770SOL    HW1 7244   0.601   2.654   0.217
 1770SOL    HW2 7245   0.515   2.570   0.327
 1771SOL     OW 7246   1.249   2.307   0.950
 1771SOL    HW1 7247   1.151   2.324   0.964
 1771SOL    HW2 7248   1.274   2.221   0.995
 1772SOL     OW 7249   1.614   3.532   0.332
 1772SOL    HW1 7250   1.714   3.527   0.319
 1772SOL    HW2 7251   1.569   3.508   0.246
 1773SOL     OW 7252   0.770   2.457   1.405
 1773SOL    HW1 7253   0.747   2.433   1.499
 1773SOL    HW2 7254   0.735   2.387   1.343
 1774SOL     OW 7255   1.379   2.317   1.651
 1774SOL    HW1 7256   1.386   2.368   1.737
 1774SOL    HW2 7257   1.440   2.238   1.654
 1775SOL     OW 7258   0.936   2.766   1.588
 1775SOL    HW1 7259   0.982   2.693   1.538
 1775SOL    HW2 7260   0.883   2.822   1.524
 1776SOL     OW 7261   0.958   2.245   1.176
 1776SOL    HW1 7262   0.861   2.257   1.199
 1776SOL    HW2 7263   0.965   2.193   1.091
 1777SOL     OW 7264   1.093   2.562   0.395
 1777SOL    HW1 7265   1.103   2.572   0.494
 1777SOL    HW2 7266   0.997   2.540   0.374
 1778SOL     OW 7267   0.019   2.668   0.843
 1778SOL    HW1 7268   0.111   2.656   0.881
 1778SOL    HW2 7269   9.965   2.727   0.904
 1779SOL     OW 7270   0.115   3.699   1.588
 1779SOL    HW1 7271   0.096   3.701   1.686
 1779SOL    HW2 7272   0.096   3.608   1.552
 1780SOL     OW 7273   0.869   2.219   0.193
 1780SOL    HW1 7274   0.859   2.259   0.101
 1780SOL    HW2 7275   0.863   2.119   0.186
 1781SOL     OW 7276   1.673   2.450   1.815
 1781SOL    HW1 7277   1.661   2.535   1.764
 1781SOL    HW2 7278   1.705   2.378   1.752
 1782SOL     OW 7279   1.440   3.012   0.550
 1782SOL    HW1 7280   1.523   3.005   0.496
 1782SOL    HW2 7281   1.382   3.085   0.513
 1783SOL     OW 7282   0.553   2.005   0.935
 1783SOL    HW1 7283   0.534   2.031   1.030
 1783SOL    HW2 7284   0.550   2.087   0.877
 1784SOL     OW 7285   1.022   3.295   0.482
 1784SOL    HW1 7286   0.987   3.386   0.460
 1784SOL    HW2 7287   1.039   3.288   0.580
 1785SOL     OW 7288   0.360   3.611   0.880
 1785SOL    HW1 7289   0.409   3.526   0.859
 1785SOL    HW2 7290   0.414   3.666   0.943
 1786SOL     OW 7291   1.222   3.464   1.556
 1786SOL    HW1 7292   1.204   3.375   1.598
 1786SOL    HW2 7293   1.142   3.491   1.503
 1787SOL     OW 7294   0.318   2.727   0.255
 1787SOL    HW1 7295   0.371   2.710   0.172
 1787SOL    HW2 7296   0.323   2.647   0.315
 1788SOL     OW 7297   1.485   2.600   0.705
 1788SOL    HW1 7298   1.484   2.566   0.799
 1788SOL    HW2 7299   1.573   2.643   0.686
 1789SOL     OW 7300   0.421   3.171   1.706
 1789SOL    HW1 7301   0.389   3.175   1.612
 1789SOL    HW2 7302   0.353   3.124   1.763
 1790SOL     OW 7303   1.099   3.617   0.213
 1790SOL    HW1 7304   1.040   3.593   0.289
 1790SOL    HW2 7305   1.142   3.535   0.175
 1791SOL     OW 7306   0.142   2.060   1.450
 1791SOL    HW1 7307   0.048   2.088   1.465
 1791SOL    HW2 7308   0.160   1.976   1.500
 1792SOL     OW 7309   1.624   3.231   0.092
 1792SOL    HW1 7310   1.569   3.314   0.093
 1792SOL    HW2 7311   1.565   3.152   0.073
 1793SOL     OW 7312   0.513   3.633   0.388
 1793SOL    HW1 7313   0.547   3.716   0.433
 1793SOL    HW2 7314   0.588   3.587   0.340
 1794SOL     OW 7315   1.407   1.989   0.413
 1794SOL    HW1 7316   1.381   1.960   0.321
 1794SOL    HW2 7317   1.498   1.953   0.434
 1795SOL     OW 7318   0.204   3.609   1.168
 1795SOL    HW1 7319   0.256   3.531   1.203
 1795SOL    HW2 7320   0.161   3.584   1.081
 1796SOL     OW 7321   0.951   3.550   0.858
 1796SOL    HW1 7322   1.044   3.512   0.860
 1796SOL    HW2 7323   0.895   3.498   0.794
 1797SOL     OW 7324   0.371   2.531   0.444
 1797SOL    HW1 7325   0.412   2.449   0.484
 1797SOL    HW2 7326   0.287   2.554   0.494
 1798SOL     OW 7327   1.535   2.086   1.696
 1798SOL    HW1 7328   1.533   2.100   1.795
 1798SOL    HW2 7329   1.472   2.013   1.671
 1799SOL     OW 7330   0.601   1.951   0.180
 1799SOL    HW1 7331   0.700   1.938   0.174
 1799SOL    HW2 7332   0.557   1.908   0.101
 1800SOL     OW 7333   0.788   2.147   1.708
 1800SOL    HW1 7334   0.869   2.114   1.756
 1800SOL    HW2 7335   0.712   2.083   1.724
 1801SOL     OW 7336   0.834   3.382   1.232
 1801SOL    HW1 7337   0.799   3.439   1.157
 1801SOL    HW2 7338   0.886   3.306   1.194
 1802SOL     OW 7339   1.280   2.456   1.434
 1802SOL    HW1 7340   1.321   2.411   1.513
 1802SOL    HW2 7341   1.329   2.540   1.414
 1803SOL     OW 7342   0.839   3.228   0.821
 1803SOL    HW1 7343   0.937   3.227   0.800
 1803SOL    HW2 7344   0.795   3.300   0.768
 1804SOL     OW 7345   0.915   2.352   0.858
 1804SOL    HW1 7346   0.899   2.350   0.759
 1804SOL    HW2 7347   0.934   2.259   0.890
 1805SOL     OW 7348   0.600   1.992   0.504
 1805SOL    HW1 7349   0.522   1.976   0.564
 1805SOL    HW2 7350   0.577   2.060   0.436
 1806SOL     OW 7351   1.463   3.015   0.064
 1806SOL    HW1 7352   1.498   2.947   0.128
 1806SOL    HW2 7353   1.381   3.058   0.102
 1807SOL     OW 7354   0.992   2.156   0.426
 1807SOL    HW1 7355   0.957   2.183   0.336
 1807SOL    HW2 7356   1.091   2.172   0.429
 1808SOL     OW 7357   1.028   2.568   1.429
 1808SOL    HW1 7358   0.952   2.503   1.426
 1808SOL    HW2 7359   1.114   2.517   1.433
 1809SOL     OW 7360   1.219   3.492   0.859
 1809SOL    HW1 7361   1.261   3.548   0.787
 1809SOL    HW2 7362   1.263   3.512   0.946
 1810SOL     OW 7363   1.276   3.666   0.638
 1810SOL    HW1 7364   1.320   3.725   0.570
 1810SOL    HW2 7365   1.192   3.710   0.670
 1811SOL     OW 7366   1.117   2.391   9.962
 1811SOL    HW1 7367   1.023   2.356   9.962
 1811SOL    HW2 7368   1.153   2.390   0.055
 1812SOL     OW 7369   0.147   2.488   1.375
 1812SOL    HW1 7370   0.227   2.451   1.329
 1812SOL    HW2 7371   0.174   2.533   1.460
 1813SOL     OW 7372   0.484   2.080   1.188
 1813SOL    HW1 7373   0.522   2.008   1.246
 1813SOL    HW2 7374   0.385   2.068   1.180
 1814SOL     OW 7375   0.874   2.336   0.593
 1814SOL    HW1 7376   0.836   2.397   0.523
 1814SOL    HW2 7377   0.920   2.259   0.550
 1815SOL     OW 7378   1.034   1.935   0.717
 1815SOL    HW1 7379   0.971   1.940   0.639
 1815SOL    HW2 7380   1.009   1.857   0.775
 1816SOL     OW 7381   1.515   2.963   0.811
 1816SOL    HW1 7382   1.437   2.908   0.839
 1816SOL    HW2 7383   1.505   2.991   0.716
 1817SOL     OW 7384   1.462   2.484   0.954
 1817SOL    HW1 7385   1.386   2.420   0.957
 1817SOL    HW2 7386   1.530   2.459   1.023
 1818SOL     OW 7387   1.874   2.653   0.285
 1818SOL    HW1 7388   1.911   2.639   0.377
 1818SOL    HW2 7389   1.831   2.568   0.254
 1819SOL     OW 7390   0.458   3.359   0.143
 1819SOL    HW1 7391   0.391   3.294   0.180
 1819SOL    HW2 7392   0.511   3.313   0.071
 1820SOL     OW 7393   1.751   3.133   0.647
 1820SOL    HW1 7394   1.838   3.133   0.696
 1820SOL    HW2 7395   1.697   3.212   0.676
 1821SOL     OW 7396   1.435   2.389   0.081
 1821SOL    HW1 7397   1.352   2.387   0.136
 1821SOL    HW2 7398   1.476   2.298   0.077
 1822SOL     OW 7399   0.493   2.162   0.306
 1822SOL    HW1 7400   0.525   2.078   0.263
 1822SOL    HW2 7401   0.498   2.237   0.241
 1823SOL     OW 7402   1.755   3.156   1.550
 1823SOL    HW1 7403   1.829   3.095   1.523
 1823SOL    HW2 7404   1.792   3.240   1.588
 1824SOL     OW 7405   1.654   3.536   1.684
 1824SOL    HW1 7406   1.630   3.575   1.595
 1824SOL    HW2 7407   1.736   3.479   1.674
 1825SOL     OW 7408   0.989   1.911   1.372
 1825SOL    HW1 7409   1.008   1.900   1.274
 1825SOL    HW2 7410   1.065   1.961   1.415
 1826SOL     OW 7411   1.024   2.997   1.706
 1826SOL    HW1 7412   0.938   3.034   1.742
 1826SOL    HW2 7413   1.005   2.913   1.656
 1827SOL     OW 7414   0.425   2.668   1.247
 1827SOL    HW1 7415   0.495   2.690   1.315
 1827SOL    HW2 7416   0.404   2.571   1.250
 1828SOL     OW 7417   1.198   2.231   1.298
 1828SOL    HW1 7418   1.229   2.318   1.337
 1828SOL    HW2 7419   1.107   2.244   1.258
 1829SOL     OW 7420   0.042   3.406   1.310
 1829SOL    HW1 7421   0.022   3.494   1.267
 1829SOL    HW2 7422   0.140   3.386   1.301
 1830SOL     OW 7423   0.305   2.911   0.453
 1830SOL    HW1 7424   0.397   2.926   0.490
 1830SOL    HW2 7425   0.311   2.849   0.375
 1831SOL     OW 7426   0.534   2.262   0.829
 1831SOL    HW1 7427   0.524   2.279   0.731
 1831SOL    HW2 7428   0.595   2.330   0.869
 1832SOL     OW 7429   1.284   3.215   0.449
 1832SOL    HW1 7430   1.339   3.296   0.472
 1832SOL    HW2 7431   1.187   3.236   0.459
 1833SOL     OW 7432   1.498   2.465   0.461
 1833SOL    HW1 7433   1.491   2.500   0.554
 1833SOL    HW2 7434   1.450   2.527   0.398
 1834SOL     OW 7435   0.309   3.363   1.246
 1834SOL    HW1 7436   0.308   3.320   1.156
 1834SOL    HW2 7437   0.404   3.376   1.275
 1835SOL     OW 7438   0.526   2.630   1.658
 1835SOL    HW1 7439   0.559   2.668   1.572
 1835SOL    HW2 7440   0.579   2.549   1.682
 1836SOL     OW 7441   1.631   2.680   1.675
 1836SOL    HW1 7442   1.534   2.703   1.681
 1836SOL    HW2 7443   1.668   2.711   1.587
 1837SOL     OW 7444   0.997   2.019   1.864
 1837SOL    HW1 7445   1.063   2.078   1.817
 1837SOL    HW2 7446   1.044   1.942   1.906
 1838SOL     OW 7447   0.593   1.948   1.767
 1838SOL    HW1 7448   0.553   1.895   1.692
 1838SOL    HW2 7449   0.522   2.004   1.809
 1839SOL     OW 7450   0.543   2.697   1.002
 1839SOL    HW1 7451   0.556   2.792   0.974
 1839SOL    HW2 7452   0.505   2.694   1.094
 1840SOL     OW 7453   1.340   2.682   1.108
 1840SOL    HW1 7454   1.253   2.707   1.065
 1840SOL    HW2 7455   1.389   2.618   1.050
 1841SOL     OW 7456   1.205   2.378   0.227
 1841SOL    HW1 7457   1.230   2.306   0.291
 1841SOL    HW2 7458   1.164   2.454   0.277
 1842SOL     OW 7459   0.214   2.012   1.191
 1842SOL    HW1 7460   0.183   2.039   1.282
 1842SOL    HW2 7461   0.198   1.914   1.177
 1843SOL     OW 7462   0.022   3.134   1.281
 1843SOL    HW1 7463   0.049   3.084   1.363
 1843SOL    HW2 7464   0.017   3.232   1.301
 1844SOL     OW 7465   0.672   2.447   0.977
 1844SOL    HW1 7466   0.763   2.444   0.934
 1844SOL    HW2 7467   0.639   2.542   0.976
 1845SOL     OW 7468   1.773   2.838   1.854
 1845SOL    HW1 7469   1.720   2.776   1.796
 1845SOL    HW2 7470   1.716   2.868   1.931
 1846SOL     OW 7471   0.377   1.946   0.640
 1846SOL    HW1 7472   0.321   2.027   0.659
 1846SOL    HW2 7473   0.369   1.881   0.716
 1847SOL     OW 7474   1.634   2.256   0.356
 1847SOL    HW1 7475   1.665   2.197   0.431
 1847SOL    HW2 7476   1.579   2.331   0.393
 1848SOL     OW 7477   0.989   2.603   0.921
 1848SOL    HW1 7478   0.970   2.616   1.018
 1848SOL    HW2 7479   0.966   2.509   0.895
 1849SOL     OW 7480   0.944   3.456   1.691
 1849SOL    HW1 7481   0.950   3.482   1.595
 1849SOL    HW2 7482   1.002   3.376   1.708
 1850SOL     OW 7483   1.878   3.390   1.613
 1850SOL    HW1 7484   1.888   3.413   1.516
 1850SOL    HW2 7485   1.967   3.395   1.657
 1851SOL     OW 7486   0.446   2.831   1.836
 1851SOL    HW1 7487   0.516   2.893   1.870
 1851SOL    HW2 7488   0.487   2.762   1.776
 1852SOL     OW 7489   1.527   2.136   0.127
 1852SOL    HW1 7490   1.465   2.059   0.144
 1852SOL    HW2 7491   1.566   2.167   0.213
 1853SOL     OW 7492   1.377   2.656   0.049
 1853SOL    HW1 7493   1.392   2.557   0.044
 1853SOL    HW2 7494   1.446   2.703   9.994
 1854SOL     OW 7495   1.100   3.265   0.745
 1854SOL    HW1 7496   1.138   3.173   0.757
 1854SOL    HW2 7497   1.159   3.332   0.790
 1855SOL     OW 7498   0.291   2.620   0.917
 1855SOL    HW1 7499   0.384   2.648   0.940
 1855SOL    HW2 7500   0.285   2.520   0.920
 1856SOL     OW 7501   0.319   2.341   0.981
 1856SOL    HW1 7502   0.252   2.267   0.973
 1856SOL    HW2 7503   0.400   2.319   0.927
 1857SOL     OW 7504   1.138   2.209   1.723
 1857SOL    HW1 7505   1.089   2.274   1.781
 1857SOL    HW2 7506   1.226   2.248   1.695
 1858SOL     OW 7507   1.178   2.054   1.501
 1858SOL    HW1 7508   1.152   2.104   1.583
 1858SOL    HW2 7509   1.194   2.119   1.426
 1859SOL     OW 7510   9.994   3.140   0.262
 1859SOL    HW1 7511   9.909   3.138   0.209
 1859SOL    HW2 7512   0.010   3.050   0.302
 1860SOL     OW 7513   0.110   3.506   0.929
 1860SOL    HW1 7514   0.114   3.412   0.894
 1860SOL    HW2 7515   0.188   3.557   0.894
 1861SOL     OW 7516   0.535   3.399   0.868
 1861SOL    HW1 7517   0.601   3.430   0.937
 1861SOL    HW2 7518   0.581   3.386   0.781
 1862SOL     OW 7519   0.917   2.625   1.181
 1862SOL    HW1 7520   0.975   2.625   1.263
 1862SOL    HW2 7521   0.833   2.575   1.200
 1863SOL     OW 7522   0.073   2.416   1.107
 1863SOL    HW1 7523   0.165   2.412   1.070
 1863SOL    HW2 7524   0.076   2.448   1.201
 1864SOL     OW 7525   0.246   2.338   1.661
 1864SOL    HW1 7526   0.300   2.295   1.589
 1864SOL    HW2 7527   0.235   2.436   1.640
 1865SOL     OW 7528   1.380   2.787   1.636
 1865SOL    HW1 7529   1.413   2.881   1.634
 1865SOL    HW2 7530   1.364   2.756   1.542
 1866SOL     OW 7531   0.823   2.466   0.344
 1866SOL    HW1 7532   0.850   2.381   0.299
 1866SOL    HW2 7533   0.735   2.496   0.308
 1867SOL     OW 7534   1.647   2.415   1.136
 1867SOL    HW1 7535   1.638   2.346   1.208
 1867SOL    HW2 7536   1.741   2.449   1.134
 1868SOL     OW 7537   0.383   3.416   1.806
 1868SOL    HW1 7538   0.405   3.419   1.904
 1868SOL    HW2 7539   0.404   3.326   1.770
 1869SOL     OW 7540   0.683   2.289   1.202
 1869SOL    HW1 7541   0.617   2.214   1.202
 1869SOL    HW2 7542   0.670   2.344   1.120
 1870SOL     OW 7543   0.980   3.519   1.426
 1870SOL    HW1 7544   0.932   3.460   1.362
 1870SOL    HW2 7545   0.970   3.615   1.398
 1871SOL     OW 7546   0.494   2.356   0.111
 1871SOL    HW1 7547   0.545   2.429   0.156
 1871SOL    HW2 7548   0.396   2.377   0.114
 1872SOL     OW 7549   0.149   2.974   1.466
 1872SOL    HW1 7550   0.158   2.930   1.555
 1872SOL    HW2 7551   0.165   2.907   1.393
 1873SOL     OW 7552   1.351   2.651   0.319
 1873SOL    HW1 7553   1.257   2.634   0.347
 1873SOL    HW2 7554   1.357   2.650   0.219
 1874SOL     OW 7555   1.756   3.579   1.166
 1874SOL    HW1 7556   1.825   3.603   1.098
 1874SOL    HW2 7557   1.709   3.494   1.139
 1875SOL     OW 7558   1.312   3.576   1.114
 1875SOL    HW1 7559   1.388   3.639   1.100
 1875SOL    HW2 7560   1.332   3.514   1.190
 1876SOL     OW 7561   0.122   2.991   1.065
 1876SOL    HW1 7562   0.107   3.053   1.142
 1876SOL    HW2 7563   0.043   2.995   1.003
 1877SOL     OW 7564   0.702   3.532   1.780
 1877SOL    HW1 7565   0.678   3.628   1.760
 1877SOL    HW2 7566   0.795   3.514   1.750
 1878SOL     OW 7567   0.882   1.943   0.146
 1878SOL    HW1 7568   0.865   1.932   0.048
 1878SOL    HW2 7569   0.962   1.889   0.172
 1879SOL     OW 7570   1.421   3.446   0.521
 1879SOL    HW1 7571   1.484   3.479   0.451
 1879SOL    HW2 7572   1.365   3.522   0.554
 1880SOL     OW 7573   0.101   3.654   1.860
 1880SOL    HW1 7574   0.053   3.603   1.932
 1880SOL    HW2 7575   0.184   3.696   1.898
 1881SOL     OW 7576   1.310   2.799   0.657
 1881SOL    HW1 7577   1.374   2.723   0.668
 1881SOL    HW2 7578   1.353   2.870   0.601
 1882SOL     OW 7579   0.797   3.171   1.447
 1882SOL    HW1 7580   0.748   3.210   1.525
 1882SOL    HW2 7581   0.813   3.242   1.378
 1883SOL     OW 7582   0.689   3.477   0.243
 1883SOL    HW1 7583   0.757   3.437   0.182
 1883SOL    HW2 7584   0.599   3.440   0.221
 1884SOL     OW 7585   1.624   3.631   1.416
 1884SOL    HW1 7586   1.682   3.620   1.336
 1884SOL    HW2 7587   1.601   3.728   1.427
 1885SOL     OW 7588   0.240   2.171   0.707
 1885SOL    HW1 7589   0.166   2.218   0.660
 1885SOL    HW2 7590   0.213   2.151   0.801
 1886SOL     OW 7591   1.213   3.376   0.127
 1886SOL    HW1 7592   1.224   3.282   0.160
 1886SOL    HW2 7593   1.156   3.375   0.045
 1887SOL     OW 7594   0.811   2.907   1.389
 1887SOL    HW1 7595   0.843   2.902   1.294
 1887SOL    HW2 7596   0.802   3.003   1.416
 1888SOL     OW 7597   0.892   2.895   0.225
 1888SOL    HW1 7598   0.978   2.872   0.179
 1888SOL    HW2 7599   0.877   2.832   0.301
 1889SOL     OW 7600   1.466   3.469   0.098
 1889SOL    HW1 7601   1.375   3.436   0.122
 1889SOL    HW2 7602   1.477   3.467   9.999
 1890SOL     OW 7603   0.314   3.189   1.465
 1890SOL    HW1 7604   0.305   3.246   1.384
 1890SOL    HW2 7605   0.251   3.112   1.459
 1891SOL     OW 7606   1.607   3.235   1.333
 1891SOL    HW1 7607   1.659   3.223   1.417
 1891SOL    HW2 7608   1.532   3.299   1.348
 1892SOL     OW 7609   1.176   3.006   0.783
 1892SOL    HW1 7610   1.097   2.967   0.830
 1892SOL    HW2 7611   1.221   2.936   0.729
 1893SOL     OW 7612   1.003   2.097   0.945
 1893SOL    HW1 7613   1.017   2.062   0.853
 1893SOL    HW2 7614   1.022   2.025   1.012
 1894SOL     OW 7615   0.643   3.265   0.504
 1894SOL    HW1 7616   0.694   3.232   0.425
 1894SOL    HW2 7617   0.545   3.268   0.483
 1895SOL     OW 7618   1.807   2.203   1.370
 1895SOL    HW1 7619   1.873   2.277   1.375
 1895SOL    HW2 7620   1.811   2.160   1.280
 1896SOL     OW 7621   0.286   3.171   0.244
 1896SOL    HW1 7622   0.187   3.156   0.241
 1896SOL    HW2 7623   0.314   3.192   0.338
 1897SOL     OW 7624   0.203   2.858   1.712
 1897SOL    HW1 7625   0.167   2.939   1.759
 1897SOL    HW2 7626   0.296   2.840   1.744
 1898SOL     OW 7627   0.768   2.051   1.450
 1898SOL    HW1 7628   0.851   2.003   1.420
 1898SOL    HW2 7629   0.786   2.099   1.535
 1899SOL     OW 7630   1.400   2.713   1.370
 1899SOL    HW1 7631   1.378   2.701   1.273
 1899SOL    HW2 7632   1.497   2.738   1.379
 1900SOL     OW 7633   0.010   2.027   0.210
 1900SOL    HW1 7634   0.089   2.063   0.160
 1900SOL    HW2 7635   0.041   1.976   0.290
 1901SOL     OW 7636   1.245   3.111   0.196
 1901SOL    HW1 7637   1.201   3.022   0.183
 1901SOL    HW2 7638   1.259   3.127   0.293
 1902SOL     OW 7639   0.636   2.698   1.419
 1902SOL    HW1 7640   0.693   2.780   1.409
 1902SOL    HW2 7641   0.693   2.616   1.410
 1903SOL     OW 7642   1.532   3.734   1.084
 1903SOL    HW1 7643   1.559   3.790   1.005
 1903SOL    HW2 7644   1.612   3.690   1.122
 1904SOL     OW 7645   0.725   2.422   1.676
 1904SOL    HW1 7646   0.784   2.480   1.733
 1904SOL    HW2 7647   0.745   2.326   1.696
 1905SOL     OW 7648   1.522   3.030   1.617
 1905SOL    HW1 7649   1.493   3.055   1.709
 1905SOL    HW2 7650   1.606   3.080   1.594
 1906SOL     OW 7651   0.387   3.638   1.649
 1906SOL    HW1 7652   0.292   3.660   1.626
 1906SOL    HW2 7653   0.389   3.556   1.707
 1907SOL     OW 7654   1.256   2.212   0.436
 1907SOL    HW1 7655   1.319   2.135   0.432
 1907SOL    HW2 7656   1.270   2.262   0.522
 1908SOL     OW 7657   1.751   2.243   1.649
 1908SOL    HW1 7658   1.770   2.240   1.550
 1908SOL    HW2 7659   1.672   2.185   1.669
 1909SOL     OW 7660   1.639   2.837   1.443
 1909SOL    HW1 7661   1.610   2.900   1.515
 1909SOL    HW2 7662   1.668   2.888   1.363
 1910SOL     OW 7663   0.831   3.303   0.083
 1910SOL    HW1 7664   0.843   3.250   0.166
 1910SOL    HW2 7665   0.751   3.269   0.033
 1911SOL     OW 7666   0.729   3.536   1.022
 1911SOL    HW1 7667   0.674   3.619   1.015
 1911SOL    HW2 7668   0.811   3.545   0.965
 1912SOL     OW 7669   0.971   2.880   0.901
 1912SOL    HW1 7670   0.964   2.781   0.905
 1912SOL    HW2 7671   0.889   2.921   0.942
 1913SOL     OW 7672   1.165   2.858   0.082
 1913SOL    HW1 7673   1.176   2.901   9.992
 1913SOL    HW2 7674   1.225   2.778   0.088
 1914SOL     OW 7675   1.782   3.438   0.871
 1914SOL    HW1 7676   1.721   3.413   0.795
 1914SOL    HW2 7677   1.749   3.396   0.955
 1915SOL     OW 7678   0.208   3.091   1.860
 1915SOL    HW1 7679   0.124   3.137   1.835
 1915SOL    HW2 7680   0.232   3.113   1.955
 1916SOL     OW 7681   0.270   3.073   0.673
 1916SOL    HW1 7682   0.293   3.016   0.752
 1916SOL    HW2 7683   0.263   3.016   0.591
 1917SOL     OW 7684   0.668   3.274   1.668
 1917SOL    HW1 7685   0.577   3.234   1.676
 1917SOL    HW2 7686   0.666   3.369   1.698
 1918SOL     OW 7687   1.808   2.081   1.117
 1918SOL    HW1 7688   1.825   1.984   1.104
 1918SOL    HW2 7689   1.723   2.106   1.072
 1919SOL     OW 7690   0.450   2.290   0.559
 1919SOL    HW1 7691   0.471   2.241   0.475
 1919SOL    HW2 7692   0.372   2.248   0.604
 1920SOL     OW 7693   1.647   3.345   1.089
 1920SOL    HW1 7694   1.579   3.303   1.028
 1920SOL    HW2 7695   1.640   3.305   1.180
 1921SOL     OW 7696   0.370   2.400   1.252
 1921SOL    HW1 7697   0.388   2.326   1.316
 1921SOL    HW2 7698   0.371   2.365   1.158
 1922SOL     OW 7699   0.754   3.444   0.671
 1922SOL    HW1 7700   0.748   3.536   0.632
 1922SOL    HW2 7701   0.720   3.377   0.605
 1923SOL     OW 7702   1.318   2.085   1.102
 1923SOL    HW1 7703   1.300   1.987   1.108
 1923SOL    HW2 7704   1.279   2.131   1.182
 1924SOL     OW 7705   1.057   1.870   1.100
 1924SOL    HW1 7706   1.007   1.814   1.033
 1924SOL    HW2 7707   1.152   1.838   1.105
 1925SOL     OW 7708   0.843   3.161   0.315
 1925SOL    HW1 7709   0.864   3.068   0.288
 1925SOL    HW2 7710   0.915   3.195   0.376
 1926SOL     OW 7711   0.571   3.386   1.305
 1926SOL    HW1 7712   0.558   3.472   1.355
 1926SOL    HW2 7713   0.667   3.378   1.278
 1927SOL     OW 7714   1.335   1.910   0.164
 1927SOL    HW1 7715   1.354   1.886   0.069
 1927SOL    HW2 7716   1.250   1.865   0.194
 1928SOL     OW 7717   1.271   2.345   0.677
 1928SOL    HW1 7718   1.228   2.433   0.660
 1928SOL    HW2 7719   1.262   2.321   0.774
 1929SOL     OW 7720   1.565   2.110   0.997
 1929SOL    HW1 7721   1.473   2.111   1.036
 1929SOL    HW2 7722   1.565   2.157   0.909
 1930SOL     OW 7723   0.042   2.882   0.348
 1930SOL    HW1 7724   0.127   2.889   0.400
 1930SOL    HW2 7725  10.000   2.793   0.367
 1931SOL     OW 7726   0.909   3.544   0.404
 1931SOL    HW1 7727   0.828   3.519   0.350
 1931SOL    HW2 7728   0.896   3.634   0.444
 1932SOL     OW 7729   0.202   2.393   1.926
 1932SOL    HW1 7730   0.164   2.486   1.932
 1932SOL    HW2 7731   0.214   2.369   1.830
 1933SOL     OW 7732   0.040   2.254   2.592
 1933SOL    HW1 7733   9.941   2.247   2.580
 1933SOL    HW2 7734   0.086   2.194   2.526
 1934SOL     OW 7735   0.567   3.173   3.026
 1934SOL    HW1 7736   0.483   3.187   2.973
 1934SOL    HW2 7737   0.603   3.261   3.055
 1935SOL     OW 7738   1.602   3.378   2.564
 1935SOL    HW1 7739   1.552   3.337   2.641
 1935SOL    HW2 7740   1.536   3.408   2.495
 1936SOL     OW 7741   1.125   2.587   2.503
 1936SOL    HW1 7742   1.179   2.669   2.485
 1936SOL    HW2 7743   1.087   2.592   2.596
 1937SOL     OW 7744   1.777   2.437   2.063
 1937SOL    HW1 7745   1.747   2.450   1.968
 1937SOL    HW2 7746   1.721   2.367   2.107
 1938SOL     OW 7747   0.740   2.978   2.945
 1938SOL    HW1 7748   0.661   3.028   2.981
 1938SOL    HW2 7749   0.800   3.042   2.897
 1939SOL     OW 7750   0.922   2.590   3.625
 1939SOL    HW1 7751   0.955   2.649   3.698
 1939SOL    HW2 7752   0.919   2.641   3.539
 1940SOL     OW 7753   0.692   2.801   2.500
 1940SOL    HW1 7754   0.776   2.793   2.554
 1940SOL    HW2 7755   0.634   2.873   2.539
 1941SOL     OW 7756   0.722   3.016   3.713
 1941SOL    HW1 7757   0.782   3.086   3.753
 1941SOL    HW2 7758   0.648   3.061   3.662
 1942SOL     OW 7759   0.348   3.286   2.887
 1942SOL    HW1 7760   0.259   3.262   2.847
 1942SOL    HW2 7761   0.397   3.347   2.825
 1943SOL     OW 7762   1.444   3.361   3.245
 1943SOL    HW1 7763   1.503   3.440   3.261
 1943SOL    HW2 7764   1.366   3.365   3.306
 1944SOL     OW 7765   0.454   2.280   3.269
 1944SOL    HW1 7766   0.477   2.191   3.230
 1944SOL    HW2 7767   0.493   2.289   3.360
 1945SOL     OW 7768   1.619   2.323   2.606
 1945SOL    HW1 7769   1.596   2.358   2.515
 1945SOL    HW2 7770   1.576   2.380   2.676
 1946SOL     OW 7771   0.229   3.538   2.255
 1946SOL    HW1 7772   0.191   3.609   2.314
 1946SOL    HW2 7773   0.317   3.568   2.219
 1947SOL     OW 7774   1.125   3.183   3.574
 1947SOL    HW1 7775   1.179   3.172   3.658
 1947SOL    HW2 7776   1.069   3.101   3.560
 1948SOL     OW 7777   0.303   3.295   2.357
 1948SOL    HW1 7778   0.271   3.387   2.333
 1948SOL    HW2 7779   0.261   3.268   2.444
 1949SOL     OW 7780   0.318   2.935   2.764
 1949SOL    HW1 7781   0.297   2.838   2.750
 1949SOL    HW2 7782   0.262   2.970   2.840
 1950SOL     OW 7783   0.624   3.643   3.271
 1950SOL    HW1 7784   0.533   3.636   3.311
 1950SOL    HW2 7785   0.665   3.731   3.295
 1951SOL     OW 7786   0.625   2.986   1.981
 1951SOL    HW1 7787   0.698   3.022   1.923
 1951SOL    HW2 7788   0.664   2.947   2.065
 1952SOL     OW 7789   1.569   1.999   3.283
 1952SOL    HW1 7790   1.656   2.012   3.236
 1952SOL    HW2 7791   1.513   2.082   3.274
 1953SOL     OW 7792   0.093   2.475   2.446
 1953SOL    HW1 7793   0.082   2.390   2.497
 1953SOL    HW2 7794   0.030   2.544   2.482
 1954SOL     OW 7795   1.862   3.600   2.204
 1954SOL    HW1 7796   1.943   3.590   2.262
 1954SOL    HW2 7797   1.860   3.693   2.167
 1955SOL     OW 7798   0.028   3.487   2.069
 1955SOL    HW1 7799   0.007   3.389   2.065
 1955SOL    HW2 7800   0.101   3.503   2.136
 1956SOL     OW 7801   1.697   2.810   2.537
 1956SOL    HW1 7802   1.788   2.769   2.534
 1956SOL    HW2 7803   1.685   2.869   2.457
 1957SOL     OW 7804   1.676   2.987   2.313
 1957SOL    HW1 7805   1.753   2.944   2.265
 1957SOL    HW2 7806   1.710   3.065   2.366
 1958SOL     OW 7807   0.247   2.612   3.439
 1958SOL    HW1 7808   0.339   2.582   3.463
 1958SOL    HW2 7809   0.235   2.708   3.466
 1959SOL     OW 7810   0.644   3.245   2.591
 1959SOL    HW1 7811   0.612   3.154   2.613
 1959SOL    HW2 7812   0.624   3.265   2.495
 1960SOL     OW 7813   1.235   3.058   3.289
 1960SOL    HW1 7814   1.254   2.986   3.222
 1960SOL    HW2 7815   1.306   3.057   3.359
 1961SOL     OW 7816   0.916   1.940   2.361
 1961SOL    HW1 7817   0.952   2.029   2.332
 1961SOL    HW2 7818   0.816   1.943   2.362
 1962SOL     OW 7819   0.246   2.839   3.139
 1962SOL    HW1 7820   0.310   2.768   3.109
 1962SOL    HW2 7821   0.207   2.884   3.059
 1963SOL     OW 7822   1.576   2.923   2.055
 1963SOL    HW1 7823   1.508   2.852   2.072
 1963SOL    HW2 7824   1.612   2.957   2.142
 1964SOL     OW 7825   1.218   3.655   3.474
 1964SOL    HW1 7826   1.219   3.718   3.396
 1964SOL    HW2 7827   1.216   3.560   3.440
 1965SOL     OW 7828   1.484   3.260   2.780
 1965SOL    HW1 7829   1.423   3.287   2.854
 1965SOL    HW2 7830   1.452   3.173   2.742
 1966SOL     OW 7831   1.625   3.752   2.406
 1966SOL    HW1 7832   1.604   3.691   2.329
 1966SOL    HW2 7833   1.583   3.716   2.489
 1967SOL     OW 7834   1.277   2.271   2.788
 1967SOL    HW1 7835   1.186   2.231   2.785
 1967SOL    HW2 7836   1.335   2.218   2.850
 1968SOL     OW 7837   1.592   3.569   2.195
 1968SOL    HW1 7838   1.691   3.569   2.207
 1968SOL    HW2 7839   1.570   3.550   2.099
 1969SOL     OW 7840   0.792   2.442   3.268
 1969SOL    HW1 7841   0.769   2.421   3.363
 1969SOL    HW2 7842   0.766   2.364   3.210
 1970SOL     OW 7843   1.395   2.330   3.525
 1970SOL    HW1 7844   1.386   2.375   3.614
 1970SOL    HW2 7845   1.472   2.266   3.527
 1971SOL     OW 7846   0.929   2.756   3.398
 1971SOL    HW1 7847   0.984   2.692   3.345
 1971SOL    HW2 7848   0.872   2.810   3.337
 1972SOL     OW 7849   0.999   2.208   3.059
 1972SOL    HW1 7850   0.902   2.219   3.082
 1972SOL    HW2 7851   1.007   2.180   2.963
 1973SOL     OW 7852   1.014   2.551   2.254
 1973SOL    HW1 7853   1.051   2.561   2.346
 1973SOL    HW2 7854   0.921   2.515   2.259
 1974SOL     OW 7855   9.984   2.796   2.722
 1974SOL    HW1 7856   0.076   2.758   2.733
 1974SOL    HW2 7857   9.935   2.787   2.809
 1975SOL     OW 7858   0.116   3.736   3.431
 1975SOL    HW1 7859   0.156   3.725   3.522
 1975SOL    HW2 7860   0.061   3.655   3.409
 1976SOL     OW 7861   0.857   2.269   2.069
 1976SOL    HW1 7862   0.915   2.308   1.998
 1976SOL    HW2 7863   0.813   2.186   2.035
 1977SOL     OW 7864   1.731   2.431   3.656
 1977SOL    HW1 7865   1.695   2.520   3.627
 1977SOL    HW2 7866   1.763   2.380   3.576
 1978SOL     OW 7867   1.414   3.034   2.397
 1978SOL    HW1 7868   1.506   3.021   2.360
 1978SOL    HW2 7869   1.369   3.109   2.348
 1979SOL     OW 7870   0.402   2.147   2.855
 1979SOL    HW1 7871   0.446   2.131   2.944
 1979SOL    HW2 7872   0.429   2.236   2.820
 1980SOL     OW 7873   1.019   3.323   2.322
 1980SOL    HW1 7874   0.991   3.385   2.248
 1980SOL    HW2 7875   0.977   3.351   2.408
 1981SOL     OW 7876   0.239   3.657   2.653
 1981SOL    HW1 7877   0.328   3.611   2.645
 1981SOL    HW2 7878   0.210   3.689   2.563
 1982SOL     OW 7879   1.779   2.900   2.786
 1982SOL    HW1 7880   1.735   2.886   2.697
 1982SOL    HW2 7881   1.709   2.914   2.856
 1983SOL     OW 7882   1.202   3.376   3.382
 1983SOL    HW1 7883   1.194   3.308   3.455
 1983SOL    HW2 7884   1.137   3.356   3.310
 1984SOL     OW 7885   1.480   2.646   2.568
 1984SOL    HW1 7886   1.477   2.594   2.654
 1984SOL    HW2 7887   1.560   2.705   2.568
 1985SOL     OW 7888   0.508   3.155   3.588
 1985SOL    HW1 7889   0.500   3.154   3.488
 1985SOL    HW2 7890   0.417   3.149   3.629
 1986SOL     OW 7891   1.104   3.654   2.001
 1986SOL    HW1 7892   1.038   3.601   2.055
 1986SOL    HW2 7893   1.158   3.592   1.945
 1987SOL     OW 7894   1.665   3.273   1.958
 1987SOL    HW1 7895   1.620   3.362   1.955
 1987SOL    HW2 7896   1.604   3.203   1.920
 1988SOL     OW 7897   0.474   3.625   2.171
 1988SOL    HW1 7898   0.503   3.675   2.252
 1988SOL    HW2 7899   0.553   3.577   2.132
 1989SOL     OW 7900   1.392   1.976   2.299
 1989SOL    HW1 7901   1.384   1.952   2.202
 1989SOL    HW2 7902   1.484   1.956   2.331
 1990SOL     OW 7903   0.271   3.634   3.025
 1990SOL    HW1 7904   0.320   3.557   3.066
 1990SOL    HW2 7905   0.207   3.599   2.956
 1991SOL     OW 7906   0.943   3.516   2.727
 1991SOL    HW1 7907   1.037   3.483   2.731
 1991SOL    HW2 7908   0.900   3.484   2.643
 1992SOL     OW 7909   0.356   2.459   2.374
 1992SOL    HW1 7910   0.379   2.363   2.383
 1992SOL    HW2 7911   0.260   2.473   2.396
 1993SOL     OW 7912   1.585   2.132   3.582
 1993SOL    HW1 7913   1.566   2.143   3.679
 1993SOL    HW2 7914   1.558   2.040   3.553
 1994SOL     OW 7915   0.753   2.024   1.984
 1994SOL    HW1 7916   0.848   2.010   1.954
 1994SOL    HW2 7917   0.691   1.981   1.918
 1995SOL     OW 7918   0.809   2.144   3.563
 1995SOL    HW1 7919   0.894   2.091   3.570
 1995SOL    HW2 7920   0.749   2.122   3.639
 1996SOL     OW 7921   0.905   3.386   3.029
 1996SOL    HW1 7922   0.880   3.332   2.949
 1996SOL    HW2 7923   0.950   3.326   3.096
 1997SOL     OW 7924   1.283   2.445   3.300
 1997SOL    HW1 7925   1.325   2.410   3.384
 1997SOL    HW2 7926   1.320   2.535   3.278
 1998SOL     OW 7927   0.840   3.212   2.819
 1998SOL    HW1 7928   0.930   3.214   2.776
 1998SOL    HW2 7929   0.770   3.232   2.750
 1999SOL     OW 7930   0.916   2.338   2.736
 1999SOL    HW1 7931   0.890   2.338   2.640
 1999SOL    HW2 7932   0.950   2.247   2.762
 2000SOL     OW 7933   0.652   1.960   2.350
 2000SOL    HW1 7934   0.589   1.970   2.427
 2000SOL    HW2 7935   0.629   2.028   2.280
 2001SOL     OW 7936   1.460   3.095   1.878
 2001SOL    HW1 7937   1.499   3.026   1.940
 2001SOL    HW2 7938   1.375   3.130   1.917
 2002SOL     OW 7939   0.348   1.860   2.021
 2002SOL    HW1 7940   0.387   1.943   1.980
 2002SOL    HW2 7941   0.411   1.825   2.091
 2003SOL     OW 7942   0.999   2.184   2.288
 2003SOL    HW1 7943   0.955   2.218   2.205
 2003SOL    HW2 7944   1.098   2.198   2.281
 2004SOL     OW 7945   1.035   2.562   3.242
 2004SOL    HW1 7946   0.956   2.502   3.251
 2004SOL    HW2 7947   1.119   2.510   3.260
 2005SOL     OW 7948   1.207   3.459   2.680
 2005SOL    HW1 7949   1.226   3.517   2.600
 2005SOL    HW2 7950   1.247   3.501   2.762
 2006SOL     OW 7951   0.536   2.995   2.607
 2006SOL    HW1 7952   0.466   2.974   2.676
 2006SOL    HW2 7953   0.491   3.013   2.519
 2007SOL     OW 7954   1.227   3.664   2.488
 2007SOL    HW1 7955   1.238   3.727   2.411
 2007SOL    HW2 7956   1.159   3.701   2.552
 2008SOL     OW 7957   1.028   2.388   1.893
 2008SOL    HW1 7958   0.985   2.473   1.863
 2008SOL    HW2 7959   1.098   2.408   1.961
 2009SOL     OW 7960   0.118   2.549   3.208
 2009SOL    HW1 7961   0.181   2.493   3.154
 2009SOL    HW2 7962   0.162   2.574   3.295
 2010SOL     OW 7963   0.479   2.051   3.114
 2010SOL    HW1 7964   0.529   1.969   3.141
 2010SOL    HW2 7965   0.381   2.033   3.116
 2011SOL     OW 7966   0.860   2.329   2.474
 2011SOL    HW1 7967   0.804   2.384   2.413
 2011SOL    HW2 7968   0.918   2.267   2.421
 2012SOL     OW 7969   1.039   1.910   2.597
 2012SOL    HW1 7970   0.994   1.925   2.509
 2012SOL    HW2 7971   0.991   1.837   2.646
 2013SOL     OW 7972   1.391   3.030   2.678
 2013SOL    HW1 7973   1.299   2.993   2.689
 2013SOL    HW2 7974   1.416   3.031   2.581
 2014SOL     OW 7975   1.462   2.482   2.793
 2014SOL    HW1 7976   1.391   2.412   2.798
 2014SOL    HW2 7977   1.520   2.476   2.874
 2015SOL     OW 7978   1.781   2.619   2.261
 2015SOL    HW1 7979   1.854   2.590   2.322
 2015SOL    HW2 7980   1.779   2.559   2.181
 2016SOL     OW 7981   0.506   3.232   2.037
 2016SOL    HW1 7982   0.409   3.220   2.057
 2016SOL    HW2 7983   0.545   3.144   2.009
 2017SOL     OW 7984   1.776   3.181   2.461
 2017SOL    HW1 7985   1.872   3.183   2.491
 2017SOL    HW2 7986   1.728   3.260   2.501
 2018SOL     OW 7987   1.391   2.439   1.893
 2018SOL    HW1 7988   1.342   2.419   1.978
 2018SOL    HW2 7989   1.489   2.430   1.907
 2019SOL     OW 7990   0.575   2.129   2.159
 2019SOL    HW1 7991   0.642   2.087   2.098
 2019SOL    HW2 7992   0.523   2.198   2.109
 2020SOL     OW 7993   1.729   3.103   3.402
 2020SOL    HW1 7994   1.820   3.062   3.396
 2020SOL    HW2 7995   1.737   3.196   3.439
 2021SOL     OW 7996   1.018   3.207   3.208
 2021SOL    HW1 7997   0.929   3.181   3.247
 2021SOL    HW2 7998   1.090   3.151   3.249
 2022SOL     OW 7999   1.610   3.489   3.547
 2022SOL    HW1 8000   1.587   3.528   3.458
 2022SOL    HW2 8001   1.694   3.435   3.539
 2023SOL     OW 8002   1.152   3.115   2.979
 2023SOL    HW1 8003   1.088   3.145   3.050
 2023SOL    HW2 8004   1.120   3.146   2.890
 2024SOL     OW 8005   1.578   2.944   2.967
 2024SOL    HW1 8006   1.581   3.016   3.037
 2024SOL    HW2 8007   1.494   2.954   2.913
 2025SOL     OW 8008   0.968   1.871   3.236
 2025SOL    HW1 8009   0.984   1.861   3.138
 2025SOL    HW2 8010   1.042   1.925   3.276
 2026SOL     OW 8011   0.966   2.953   3.586
 2026SOL    HW1 8012   0.875   2.970   3.624
 2026SOL    HW2 8013   0.959   2.885   3.513
 2027SOL     OW 8014   0.731   2.885   2.227
 2027SOL    HW1 8015   0.713   2.847   2.318
 2027SOL    HW2 8016   0.790   2.823   2.176
 2028SOL     OW 8017   0.433   2.641   3.075
 2028SOL    HW1 8018   0.490   2.641   3.157
 2028SOL    HW2 8019   0.387   2.552   3.066
 2029SOL     OW 8020   1.249   2.212   3.161
 2029SOL    HW1 8021   1.267   2.299   3.207
 2029SOL    HW2 8022   1.156   2.213   3.123
 2030SOL     OW 8023   0.108   3.410   3.180
 2030SOL    HW1 8024   0.074   3.485   3.123
 2030SOL    HW2 8025   0.208   3.410   3.179
 2031SOL     OW 8026   0.433   3.050   2.361
 2031SOL    HW1 8027   0.406   3.146   2.351
 2031SOL    HW2 8028   0.476   3.019   2.276
 2032SOL     OW 8029   0.467   2.399   2.761
 2032SOL    HW1 8030   0.469   2.469   2.689
 2032SOL    HW2 8031   0.550   2.406   2.817
 2033SOL     OW 8032   1.283   3.254   2.270
 2033SOL    HW1 8033   1.338   3.328   2.309
 2033SOL    HW2 8034   1.187   3.267   2.293
 2034SOL     OW 8035   1.337   3.315   3.001
 2034SOL    HW1 8036   1.377   3.328   3.092
 2034SOL    HW2 8037   1.275   3.236   3.003
 2035SOL     OW 8038   1.574   2.470   2.374
 2035SOL    HW1 8039   1.513   2.525   2.431
 2035SOL    HW2 8040   1.642   2.530   2.332
 2036SOL     OW 8041   0.378   3.396   3.130
 2036SOL    HW1 8042   0.359   3.348   3.045
 2036SOL    HW2 8043   0.476   3.413   3.138
 2037SOL     OW 8044   0.517   2.580   3.507
 2037SOL    HW1 8045   0.548   2.623   3.422
 2037SOL    HW2 8046   0.582   2.510   3.535
 2038SOL     OW 8047   1.644   2.672   3.567
 2038SOL    HW1 8048   1.549   2.699   3.555
 2038SOL    HW2 8049   1.697   2.700   3.487
 2039SOL     OW 8050   1.010   1.967   3.617
 2039SOL    HW1 8051   1.078   2.041   3.619
 2039SOL    HW2 8052   1.053   1.882   3.588
 2040SOL     OW 8053   0.569   1.915   3.562
 2040SOL    HW1 8054   0.482   1.883   3.526
 2040SOL    HW2 8055   0.629   1.941   3.486
 2041SOL     OW 8056   0.675   2.706   2.954
 2041SOL    HW1 8057   0.686   2.804   2.941
 2041SOL    HW2 8058   0.582   2.687   2.986
 2042SOL     OW 8059   1.279   2.690   2.867
 2042SOL    HW1 8060   1.193   2.657   2.828
 2042SOL    HW2 8061   1.353   2.627   2.844
 2043SOL     OW 8062   1.205   2.418   2.105
 2043SOL    HW1 8063   1.239   2.344   2.163
 2043SOL    HW2 8064   1.141   2.474   2.156
 2044SOL     OW 8065   0.212   1.971   3.147
 2044SOL    HW1 8066   0.176   1.991   3.238
 2044SOL    HW2 8067   0.191   1.876   3.123
 2045SOL     OW 8068   0.056   3.145   3.173
 2045SOL    HW1 8069   0.107   3.102   3.247
 2045SOL    HW2 8070   0.065   3.244   3.180
 2046SOL     OW 8071   0.704   2.430   2.894
 2046SOL    HW1 8072   0.782   2.406   2.836
 2046SOL    HW2 8073   0.704   2.529   2.910
 2047SOL     OW 8074   1.764   2.853   3.739
 2047SOL    HW1 8075   1.723   2.780   3.685
 2047SOL    HW2 8076   1.702   2.879   3.813
 2048SOL     OW 8077   0.453   1.966   2.530
 2048SOL    HW1 8078   0.378   1.979   2.595
 2048SOL    HW2 8079   0.487   1.872   2.536
 2049SOL     OW 8080   1.607   2.266   2.187
 2049SOL    HW1 8081   1.668   2.202   2.233
 2049SOL    HW2 8082   1.572   2.332   2.254
 2050SOL     OW 8083   1.032   2.584   2.766
 2050SOL    HW1 8084   1.007   2.614   2.858
 2050SOL    HW2 8085   0.998   2.491   2.751
 2051SOL     OW 8086   0.992   3.412   3.643
 2051SOL    HW1 8087   0.961   3.471   3.568
 2051SOL    HW2 8088   1.027   3.326   3.605
 2052SOL     OW 8089   1.835   3.352   3.464
 2052SOL    HW1 8090   1.854   3.373   3.368
 2052SOL    HW2 8091   1.919   3.364   3.518
 2053SOL     OW 8092   0.426   2.767   3.697
 2053SOL    HW1 8093   0.493   2.790   3.767
 2053SOL    HW2 8094   0.464   2.697   3.636
 2054SOL     OW 8095   1.517   2.130   1.961
 2054SOL    HW1 8096   1.460   2.054   1.992
 2054SOL    HW2 8097   1.548   2.183   2.040
 2055SOL     OW 8098   1.280   2.684   1.864
 2055SOL    HW1 8099   1.313   2.590   1.869
 2055SOL    HW2 8100   1.310   2.725   1.777
 2056SOL     OW 8101   1.092   3.210   2.728
 2056SOL    HW1 8102   1.114   3.129   2.674
 2056SOL    HW2 8103   1.147   3.288   2.696
 2057SOL     OW 8104   0.252   2.679   2.710
 2057SOL    HW1 8105   0.336   2.665   2.658
 2057SOL    HW2 8106   0.215   2.590   2.738
 2058SOL     OW 8107   0.186   2.420   2.767
 2058SOL    HW1 8108   0.138   2.354   2.710
 2058SOL    HW2 8109   0.283   2.395   2.772
 2059SOL     OW 8110   1.159   2.191   3.568
 2059SOL    HW1 8111   1.105   2.249   3.628
 2059SOL    HW2 8112   1.246   2.237   3.547
 2060SOL     OW 8113   1.171   2.022   3.344
 2060SOL    HW1 8114   1.160   2.076   3.427
 2060SOL    HW2 8115   1.207   2.080   3.271
 2061SOL     OW 8116   9.979   3.200   2.076
 2061SOL    HW1 8117   9.958   3.208   1.979
 2061SOL    HW2 8118   9.988   3.104   2.101
 2062SOL     OW 8119   0.099   3.519   2.839
 2062SOL    HW1 8120   0.110   3.424   2.811
 2062SOL    HW2 8121   0.141   3.579   2.771
 2063SOL     OW 8122   0.491   3.444   2.718
 2063SOL    HW1 8123   0.558   3.505   2.761
 2063SOL    HW2 8124   0.539   3.374   2.665
 2064SOL     OW 8125   0.946   2.664   3.001
 2064SOL    HW1 8126   0.983   2.637   3.090
 2064SOL    HW2 8127   0.847   2.678   3.009
 2065SOL     OW 8128   0.000   2.522   2.942
 2065SOL    HW1 8129   0.078   2.488   2.890
 2065SOL    HW2 8130   0.029   2.543   3.036
 2066SOL     OW 8131   1.397   2.769   3.505
 2066SOL    HW1 8132   1.412   2.868   3.502
 2066SOL    HW2 8133   1.377   2.736   3.413
 2067SOL     OW 8134   0.757   2.453   2.248
 2067SOL    HW1 8135   0.780   2.384   2.179
 2067SOL    HW2 8136   0.669   2.494   2.226
 2068SOL     OW 8137   1.635   2.468   3.004
 2068SOL    HW1 8138   1.643   2.400   3.078
 2068SOL    HW2 8139   1.726   2.488   2.967
 2069SOL     OW 8140   0.290   3.424   3.537
 2069SOL    HW1 8141   0.283   3.496   3.606
 2069SOL    HW2 8142   0.291   3.335   3.581
 2070SOL     OW 8143   0.724   2.242   3.090
 2070SOL    HW1 8144   0.648   2.177   3.092
 2070SOL    HW2 8145   0.708   2.309   3.018
 2071SOL     OW 8146   0.893   3.559   3.424
 2071SOL    HW1 8147   0.829   3.504   3.372
 2071SOL    HW2 8148   0.925   3.635   3.368
 2072SOL     OW 8149   0.438   2.319   2.032
 2072SOL    HW1 8150   0.481   2.397   2.079
 2072SOL    HW2 8151   0.349   2.347   1.996
 2073SOL     OW 8152   0.220   3.007   3.345
 2073SOL    HW1 8153   0.211   2.960   3.433
 2073SOL    HW2 8154   0.236   2.939   3.273
 2074SOL     OW 8155   1.261   2.879   3.066
 2074SOL    HW1 8156   1.265   2.809   2.994
 2074SOL    HW2 8157   1.219   2.962   3.029
 2075SOL     OW 8158   1.383   2.747   2.110
 2075SOL    HW1 8159   1.326   2.714   2.185
 2075SOL    HW2 8160   1.339   2.723   2.023
 2076SOL     OW 8161   1.752   3.547   3.024
 2076SOL    HW1 8162   1.824   3.580   2.963
 2076SOL    HW2 8163   1.725   3.454   2.996
 2077SOL     OW 8164   1.291   3.567   2.918
 2077SOL    HW1 8165   1.375   3.621   2.921
 2077SOL    HW2 8166   1.309   3.475   2.954
 2078SOL     OW 8167   0.129   3.004   2.948
 2078SOL    HW1 8168   0.112   3.062   3.027
 2078SOL    HW2 8169   0.047   3.003   2.890
 2079SOL     OW 8170   0.707   3.586   3.621
 2079SOL    HW1 8171   0.638   3.656   3.602
 2079SOL    HW2 8172   0.784   3.598   3.559
 2080SOL     OW 8173   1.787   2.095   2.299
 2080SOL    HW1 8174   1.840   2.069   2.218
 2080SOL    HW2 8175   1.736   2.016   2.332
 2081SOL     OW 8176   1.413   3.473   2.380
 2081SOL    HW1 8177   1.472   3.511   2.309
 2081SOL    HW2 8178   1.348   3.544   2.410
 2082SOL     OW 8179   0.215   3.651   3.678
 2082SOL    HW1 8180   0.143   3.596   3.721
 2082SOL    HW2 8181   0.264   3.703   3.747
 2083SOL     OW 8182   1.286   2.803   2.465
 2083SOL    HW1 8183   1.358   2.744   2.503
 2083SOL    HW2 8184   1.327   2.885   2.425
 2084SOL     OW 8185   0.752   3.162   3.292
 2084SOL    HW1 8186   0.745   3.223   3.370
 2084SOL    HW2 8187   0.666   3.164   3.240
 2085SOL     OW 8188   0.654   3.455   2.034
 2085SOL    HW1 8189   0.668   3.485   1.940
 2085SOL    HW2 8190   0.604   3.369   2.035
 2086SOL     OW 8191   1.615   3.578   3.272
 2086SOL    HW1 8192   1.662   3.571   3.184
 2086SOL    HW2 8193   1.645   3.662   3.319
 2087SOL     OW 8194   1.833   2.007   2.879
 2087SOL    HW1 8195   1.868   1.920   2.846
 2087SOL    HW2 8196   1.752   2.033   2.826
 2088SOL     OW 8197   1.267   3.480   1.871
 2088SOL    HW1 8198   1.256   3.389   1.911
 2088SOL    HW2 8199   1.248   3.475   1.773
 2089SOL     OW 8200   0.775   2.896   3.219
 2089SOL    HW1 8201   0.780   2.907   3.120
 2089SOL    HW2 8202   0.766   2.986   3.262
 2090SOL     OW 8203   0.903   2.734   2.077
 2090SOL    HW1 8204   0.972   2.790   2.031
 2090SOL    HW2 8205   0.948   2.669   2.139
 2091SOL     OW 8206   1.531   3.523   1.929
 2091SOL    HW1 8207   1.434   3.511   1.907
 2091SOL    HW2 8208   1.583   3.540   1.846
 2092SOL     OW 8209   0.435   3.179   3.327
 2092SOL    HW1 8210   0.411   3.256   3.268
 2092SOL    HW2 8211   0.358   3.115   3.331
 2093SOL     OW 8212   1.594   3.144   3.161
 2093SOL    HW1 8213   1.652   3.117   3.238
 2093SOL    HW2 8214   1.531   3.216   3.189
 2094SOL     OW 8215   1.124   2.958   2.624
 2094SOL    HW1 8216   1.037   2.914   2.649
 2094SOL    HW2 8217   1.173   2.900   2.559
 2095SOL     OW 8218   1.042   2.090   2.808
 2095SOL    HW1 8219   1.047   2.048   2.717
 2095SOL    HW2 8220   1.043   2.018   2.878
 2096SOL     OW 8221   0.621   3.305   2.329
 2096SOL    HW1 8222   0.686   3.252   2.274
 2096SOL    HW2 8223   0.547   3.338   2.270
 2097SOL     OW 8224   1.758   2.289   3.199
 2097SOL    HW1 8225   1.839   2.347   3.192
 2097SOL    HW2 8226   1.781   2.196   3.171
 2098SOL     OW 8227   0.248   3.206   2.110
 2098SOL    HW1 8228   0.149   3.205   2.099
 2098SOL    HW2 8229   0.271   3.236   2.203
 2099SOL     OW 8230   0.202   2.850   3.569
 2099SOL    HW1 8231   0.123   2.814   3.619
 2099SOL    HW2 8232   0.285   2.834   3.623
 2100SOL     OW 8233   0.744   1.976   3.356
 2100SOL    HW1 8234   0.825   1.940   3.309
 2100SOL    HW2 8235   0.771   2.052   3.414
 2101SOL     OW 8236   0.155   2.108   1.779
 2101SOL    HW1 8237   0.062   2.076   1.761
 2101SOL    HW2 8238   0.172   2.191   1.727
 2102SOL     OW 8239   1.375   2.698   3.243
 2102SOL    HW1 8240   1.316   2.757   3.187
 2102SOL    HW2 8241   1.468   2.701   3.208
 2103SOL     OW 8242   0.115   1.956   2.116
 2103SOL    HW1 8243   0.107   1.920   2.209
 2103SOL    HW2 8244   0.198   1.920   2.074
 2104SOL     OW 8245   1.229   3.232   1.990
 2104SOL    HW1 8246   1.130   3.222   1.994
 2104SOL    HW2 8247   1.266   3.232   2.083
 2105SOL     OW 8248   0.627   2.663   3.271
 2105SOL    HW1 8249   0.672   2.751   3.255
 2105SOL    HW2 8250   0.693   2.589   3.261
 2106SOL     OW 8251   1.532   3.698   2.924
 2106SOL    HW1 8252   1.567   3.751   2.847
 2106SOL    HW2 8253   1.608   3.647   2.966
 2107SOL     OW 8254   0.737   2.406   3.533
 2107SOL    HW1 8255   0.800   2.470   3.577
 2107SOL    HW2 8256   0.767   2.312   3.548
 2108SOL     OW 8257   1.456   3.036   3.484
 2108SOL    HW1 8258   1.444   3.061   3.580
 2108SOL    HW2 8259   1.549   3.060   3.455
 2109SOL     OW 8260   0.384   3.634   3.393
 2109SOL    HW1 8261   0.300   3.680   3.365
 2109SOL    HW2 8262   0.362   3.544   3.431
 2110SOL     OW 8263   1.620   2.720   3.124
 2110SOL    HW1 8264   1.626   2.634   3.073
 2110SOL    HW2 8265   1.609   2.796   3.060
 2111SOL     OW 8266   1.269   2.223   2.286
 2111SOL    HW1 8267   1.317   2.136   2.290
 2111SOL    HW2 8268   1.279   2.272   2.373
 2112SOL     OW 8269   0.482   2.607   2.571
 2112SOL    HW1 8270   0.559   2.664   2.543
 2112SOL    HW2 8271   0.445   2.559   2.492
 2113SOL     OW 8272   1.810   2.221   3.460
 2113SOL    HW1 8273   1.785   2.256   3.370
 2113SOL    HW2 8274   1.729   2.183   3.505
 2114SOL     OW 8275   1.769   2.770   3.348
 2114SOL    HW1 8276   1.769   2.869   3.358
 2114SOL    HW2 8277   1.720   2.745   3.264
 2115SOL     OW 8278   0.956   3.254   2.009
 2115SOL    HW1 8279   0.905   3.203   2.079
 2115SOL    HW2 8280   0.949   3.352   2.028
 2116SOL     OW 8281   0.696   3.582   2.830
 2116SOL    HW1 8282   0.698   3.632   2.916
 2116SOL    HW2 8283   0.790   3.560   2.803
 2117SOL     OW 8284   0.896   2.817   2.697
 2117SOL    HW1 8285   0.941   2.731   2.720
 2117SOL    HW2 8286   0.843   2.849   2.776
 2118SOL     OW 8287   1.089   2.861   1.935
 2118SOL    HW1 8288   1.073   2.921   1.857
 2118SOL    HW2 8289   1.161   2.795   1.912
 2119SOL     OW 8290   1.816   3.421   2.730
 2119SOL    HW1 8291   1.746   3.418   2.658
 2119SOL    HW2 8292   1.791   3.357   2.803
 2120SOL     OW 8293   0.255   3.187   3.675
 2120SOL    HW1 8294   0.163   3.165   3.643
 2120SOL    HW2 8295   0.254   3.197   3.775
 2121SOL     OW 8296   0.245   3.102   2.564
 2121SOL    HW1 8297   0.263   3.038   2.639
 2121SOL    HW2 8298   0.277   3.062   2.478
 2122SOL     OW 8299   0.702   3.332   3.501
 2122SOL    HW1 8300   0.628   3.275   3.538
 2122SOL    HW2 8301   0.704   3.419   3.549
 2123SOL     OW 8302   1.808   2.021   3.150
 2123SOL    HW1 8303   1.870   1.954   3.190
 2123SOL    HW2 8304   1.816   2.019   3.050
 2124SOL     OW 8305   0.420   2.193   2.379
 2124SOL    HW1 8306   0.477   2.176   2.299
 2124SOL    HW2 8307   0.435   2.121   2.447
 2125SOL     OW 8308   1.694   3.295   2.946
 2125SOL    HW1 8309   1.619   3.278   2.881
 2125SOL    HW2 8310   1.685   3.232   3.023
 2126SOL     OW 8311   0.298   2.393   3.082
 2126SOL    HW1 8312   0.357   2.354   3.151
 2126SOL    HW2 8313   0.237   2.322   3.046
 2127SOL     OW 8314   0.834   3.424   2.503
 2127SOL    HW1 8315   0.788   3.476   2.430
 2127SOL    HW2 8316   0.770   3.356   2.540
 2128SOL     OW 8317   1.417   2.121   2.966
 2128SOL    HW1 8318   1.438   2.024   2.978
 2128SOL    HW2 8319   1.362   2.153   3.043
 2129SOL     OW 8320   1.035   1.845   2.955
 2129SOL    HW1 8321   0.975   1.791   2.895
 2129SOL    HW2 8322   1.128   1.808   2.951
 2130SOL     OW 8323   0.818   3.146   2.217
 2130SOL    HW1 8324   0.792   3.050   2.229
 2130SOL    HW2 8325   0.894   3.168   2.279
 2131SOL     OW 8326   0.650   3.423   3.121
 2131SOL    HW1 8327   0.644   3.506   3.177
 2131SOL    HW2 8328   0.743   3.415   3.085
 2132SOL     OW 8329   1.373   1.909   2.036
 2132SOL    HW1 8330   1.424   1.834   1.993
 2132SOL    HW2 8331   1.275   1.891   2.026
 2133SOL     OW 8332   1.275   2.354   2.520
 2133SOL    HW1 8333   1.221   2.438   2.514
 2133SOL    HW2 8334   1.280   2.326   2.616
 2134SOL     OW 8335   1.603   2.087   2.762
 2134SOL    HW1 8336   1.537   2.116   2.832
 2134SOL    HW2 8337   1.610   2.158   2.692
 2135SOL     OW 8338   0.055   2.941   2.130
 2135SOL    HW1 8339   0.006   2.870   2.181
 2135SOL    HW2 8340   0.145   2.906   2.103
 2136SOL     OW 8341   0.903   3.497   2.133
 2136SOL    HW1 8342   0.813   3.471   2.097
 2136SOL    HW2 8343   0.897   3.585   2.179
 2137SOL     OW 8344   0.186   2.435   3.816
 2137SOL    HW1 8345   0.124   2.397   3.884
 2137SOL    HW2 8346   0.199   2.368   3.742
 2138SOL     OW 8347   0.149   2.144   4.749
 2138SOL    HW1 8348   0.192   2.083   4.816
 2138SOL    HW2 8349   0.054   2.162   4.776
 2139SOL     OW 8350   9.939   2.256   4.377
 2139SOL    HW1 8351   9.902   2.269   4.469
 2139SOL    HW2 8352   9.910   2.167   4.342
 2140SOL     OW 8353   0.570   3.153   4.975
 2140SOL    HW1 8354   0.492   3.174   4.916
 2140SOL    HW2 8355   0.589   3.233   5.033
 2141SOL     OW 8356   1.577   3.425   4.404
 2141SOL    HW1 8357   1.524   3.406   4.487
 2141SOL    HW2 8358   1.514   3.434   4.326
 2142SOL     OW 8359   1.115   2.574   4.402
 2142SOL    HW1 8360   1.169   2.656   4.385
 2142SOL    HW2 8361   1.065   2.584   4.488
 2143SOL     OW 8362   1.784   2.441   3.921
 2143SOL    HW1 8363   1.763   2.439   3.823
 2143SOL    HW2 8364   1.730   2.371   3.968
 2144SOL     OW 8365   0.758   3.010   4.844
 2144SOL    HW1 8366   0.692   3.052   4.907
 2144SOL    HW2 8367   0.792   3.079   4.780
 2145SOL     OW 8368   0.888   2.539   5.509
 2145SOL    HW1 8369   0.865   2.550   5.606
 2145SOL    HW2 8370   0.912   2.628   5.470
 2146SOL     OW 8371   0.692   2.842   4.400
 2146SOL    HW1 8372   0.769   2.841   4.465
 2146SOL    HW2 8373   0.624   2.908   4.431
 2147SOL     OW 8374   0.680   2.987   5.565
 2147SOL    HW1 8375   0.701   3.075   5.608
 2147SOL    HW2 8376   0.622   3.002   5.485
 2148SOL     OW 8377   0.362   3.245   4.817
 2148SOL    HW1 8378   0.290   3.185   4.780
 2148SOL    HW2 8379   0.403   3.297   4.743
 2149SOL     OW 8380   1.405   3.426   5.103
 2149SOL    HW1 8381   1.490   3.479   5.114
 2149SOL    HW2 8382   1.336   3.460   5.167
 2150SOL     OW 8383   0.459   2.222   5.192
 2150SOL    HW1 8384   0.555   2.196   5.200
 2150SOL    HW2 8385   0.403   2.139   5.186
 2151SOL     OW 8386   1.531   2.246   4.419
 2151SOL    HW1 8387   1.433   2.264   4.410
 2151SOL    HW2 8388   1.582   2.315   4.368
 2152SOL     OW 8389   0.276   3.535   4.185
 2152SOL    HW1 8390   0.206   3.602   4.209
 2152SOL    HW2 8391   0.350   3.580   4.135
 2153SOL     OW 8392   1.090   3.195   5.433
 2153SOL    HW1 8393   1.185   3.168   5.448
 2153SOL    HW2 8394   1.031   3.114   5.438
 2154SOL     OW 8395   0.290   3.270   4.216
 2154SOL    HW1 8396   0.284   3.370   4.213
 2154SOL    HW2 8397   0.214   3.234   4.270
 2155SOL     OW 8398   0.360   2.900   4.699
 2155SOL    HW1 8399   0.324   2.808   4.680
 2155SOL    HW2 8400   0.285   2.960   4.727
 2156SOL     OW 8401   0.599   3.629   5.252
 2156SOL    HW1 8402   0.501   3.637   5.238
 2156SOL    HW2 8403   0.645   3.710   5.214
 2157SOL     OW 8404   0.595   2.859   3.909
 2157SOL    HW1 8405   0.640   2.907   3.834
 2157SOL    HW2 8406   0.642   2.880   3.995
 2158SOL     OW 8407   0.108   2.638   4.283
 2158SOL    HW1 8408   0.039   2.572   4.256
 2158SOL    HW2 8409   0.083   2.678   4.371
 2159SOL     OW 8410   1.862   3.605   4.059
 2159SOL    HW1 8411   1.938   3.593   4.123
 2159SOL    HW2 8412   1.866   3.697   4.019
 2160SOL     OW 8413   0.021   3.495   3.792
 2160SOL    HW1 8414   0.008   3.403   3.828
 2160SOL    HW2 8415   0.016   3.561   3.866
 2161SOL     OW 8416   1.695   2.770   4.400
 2161SOL    HW1 8417   1.781   2.725   4.376
 2161SOL    HW2 8418   1.672   2.838   4.331
 2162SOL     OW 8419   1.659   2.978   4.202
 2162SOL    HW1 8420   1.743   2.953   4.155
 2162SOL    HW2 8421   1.677   3.050   4.269
 2163SOL     OW 8422   0.185   2.594   5.373
 2163SOL    HW1 8423   0.284   2.601   5.359
 2163SOL    HW2 8424   0.149   2.683   5.402
 2164SOL     OW 8425   0.627   3.241   4.467
 2164SOL    HW1 8426   0.586   3.152   4.483
 2164SOL    HW2 8427   0.609   3.269   4.373
 2165SOL     OW 8428   0.839   1.906   4.228
 2165SOL    HW1 8429   0.886   1.986   4.192
 2165SOL    HW2 8430   0.740   1.925   4.231
 2166SOL     OW 8431   0.241   2.779   5.083
 2166SOL    HW1 8432   0.340   2.774   5.088
 2166SOL    HW2 8433   0.203   2.688   5.068
 2167SOL     OW 8434   1.563   2.919   3.934
 2167SOL    HW1 8435   1.484   2.861   3.951
 2167SOL    HW2 8436   1.605   2.945   4.021
 2168SOL     OW 8437   1.335   3.766   5.319
 2168SOL    HW1 8438   1.268   3.824   5.272
 2168SOL    HW2 8439   1.307   3.670   5.311
 2169SOL     OW 8440   0.353   2.135   5.594
 2169SOL    HW1 8441   0.396   2.218   5.631
 2169SOL    HW2 8442   0.257   2.155   5.572
 2170SOL     OW 8443   1.419   3.350   4.606
 2170SOL    HW1 8444   1.394   3.363   4.702
 2170SOL    HW2 8445   1.399   3.256   4.578
 2171SOL     OW 8446   1.622   3.709   4.263
 2171SOL    HW1 8447   1.617   3.651   4.182
 2171SOL    HW2 8448   1.623   3.651   4.345
 2172SOL     OW 8449   0.561   2.583   4.025
 2172SOL    HW1 8450   0.576   2.674   3.985
 2172SOL    HW2 8451   0.490   2.589   4.096
 2173SOL     OW 8452   1.279   2.257   4.666
 2173SOL    HW1 8453   1.196   2.202   4.662
 2173SOL    HW2 8454   1.347   2.211   4.724
 2174SOL     OW 8455   1.593   3.551   4.042
 2174SOL    HW1 8456   1.693   3.556   4.041
 2174SOL    HW2 8457   1.560   3.536   3.949
 2175SOL     OW 8458   0.844   2.403   5.106
 2175SOL    HW1 8459   0.810   2.387   5.199
 2175SOL    HW2 8460   0.804   2.336   5.044
 2176SOL     OW 8461   1.404   2.301   5.444
 2176SOL    HW1 8462   1.401   2.343   5.534
 2176SOL    HW2 8463   1.464   2.221   5.446
 2177SOL     OW 8464   0.950   2.759   5.287
 2177SOL    HW1 8465   1.000   2.673   5.273
 2177SOL    HW2 8466   0.921   2.796   5.199
 2178SOL     OW 8467   1.015   2.211   4.902
 2178SOL    HW1 8468   0.918   2.209   4.929
 2178SOL    HW2 8469   1.025   2.173   4.811
 2179SOL     OW 8470   1.027   2.546   4.142
 2179SOL    HW1 8471   1.053   2.548   4.238
 2179SOL    HW2 8472   0.936   2.504   4.133
 2180SOL     OW 8473   0.042   2.723   4.546
 2180SOL    HW1 8474   0.132   2.699   4.581
 2180SOL    HW2 8475   9.987   2.762   4.620
 2181SOL     OW 8476   0.849   2.228   3.910
 2181SOL    HW1 8477   0.910   2.271   3.844
 2181SOL    HW2 8478   0.796   2.156   3.865
 2182SOL     OW 8479   1.383   3.020   4.251
 2182SOL    HW1 8480   1.475   3.006   4.215
 2182SOL    HW2 8481   1.335   3.088   4.195
 2183SOL     OW 8482   0.567   1.944   4.660
 2183SOL    HW1 8483   0.556   1.989   4.749
 2183SOL    HW2 8484   0.538   2.006   4.587
 2184SOL     OW 8485   0.987   3.322   4.202
 2184SOL    HW1 8486   0.964   3.394   4.137
 2184SOL    HW2 8487   0.959   3.349   4.294
 2185SOL     OW 8488   0.427   3.647   4.547
 2185SOL    HW1 8489   0.446   3.554   4.579
 2185SOL    HW2 8490   0.479   3.712   4.603
 2186SOL     OW 8491   1.211   3.512   5.274
 2186SOL    HW1 8492   1.198   3.442   5.344
 2186SOL    HW2 8493   1.125   3.525   5.224
 2187SOL     OW 8494   0.327   2.865   4.017
 2187SOL    HW1 8495   0.413   2.880   3.969
 2187SOL    HW2 8496   0.299   2.770   4.007
 2188SOL     OW 8497   1.468   2.629   4.455
 2188SOL    HW1 8498   1.453   2.593   4.547
 2188SOL    HW2 8499   1.553   2.681   4.453
 2189SOL     OW 8500   1.144   3.613   3.968
 2189SOL    HW1 8501   1.052   3.591   4.000
 2189SOL    HW2 8502   1.174   3.543   3.903
 2190SOL     OW 8503   0.210   2.074   5.220
 2190SOL    HW1 8504   0.215   2.157   5.276
 2190SOL    HW2 8505   0.171   2.000   5.275
 2191SOL     OW 8506   1.622   3.253   3.842
 2191SOL    HW1 8507   1.595   3.347   3.824
 2191SOL    HW2 8508   1.554   3.191   3.803
 2192SOL     OW 8509   0.492   3.660   4.062
 2192SOL    HW1 8510   0.531   3.685   4.151
 2192SOL    HW2 8511   0.558   3.605   4.011
 2193SOL     OW 8512   1.401   1.980   4.170
 2193SOL    HW1 8513   1.400   1.958   4.073
 2193SOL    HW2 8514   1.493   1.971   4.206
 2194SOL     OW 8515   0.213   3.620   4.877
 2194SOL    HW1 8516   0.273   3.546   4.906
 2194SOL    HW2 8517   0.189   3.608   4.780
 2195SOL     OW 8518   0.950   3.547   4.626
 2195SOL    HW1 8519   1.047   3.524   4.615
 2195SOL    HW2 8520   0.899   3.509   4.549
 2196SOL     OW 8521   0.360   2.565   4.214
 2196SOL    HW1 8522   0.363   2.468   4.238
 2196SOL    HW2 8523   0.269   2.602   4.231
 2197SOL     OW 8524   1.553   2.066   5.451
 2197SOL    HW1 8525   1.556   2.073   5.551
 2197SOL    HW2 8526   1.520   1.976   5.424
 2198SOL     OW 8527   0.705   2.016   3.784
 2198SOL    HW1 8528   0.781   1.952   3.792
 2198SOL    HW2 8529   0.637   1.979   3.720
 2199SOL     OW 8530   0.811   2.079   5.468
 2199SOL    HW1 8531   0.897   2.029   5.476
 2199SOL    HW2 8532   0.750   2.052   5.543
 2200SOL     OW 8533   0.843   3.368   4.952
 2200SOL    HW1 8534   0.823   3.351   4.855
 2200SOL    HW2 8535   0.892   3.290   4.990
 2201SOL     OW 8536   1.313   2.403   5.206
 2201SOL    HW1 8537   1.350   2.371   5.293
 2201SOL    HW2 8538   1.348   2.494   5.187
 2202SOL     OW 8539   0.809   3.229   4.686
 2202SOL    HW1 8540   0.902   3.238   4.651
 2202SOL    HW2 8541   0.744   3.238   4.611
 2203SOL     OW 8542   0.922   2.323   4.581
 2203SOL    HW1 8543   0.897   2.319   4.484
 2203SOL    HW2 8544   0.968   2.238   4.608
 2204SOL     OW 8545   0.569   1.958   4.211
 2204SOL    HW1 8546   0.508   1.974   4.288
 2204SOL    HW2 8547   0.551   2.026   4.139
 2205SOL     OW 8548   1.425   3.078   3.757
 2205SOL    HW1 8549   1.475   3.013   3.814
 2205SOL    HW2 8550   1.337   3.100   3.800
 2206SOL     OW 8551   0.388   1.878   3.910
 2206SOL    HW1 8552   0.440   1.960   3.934
 2206SOL    HW2 8553   0.416   1.803   3.969
 2207SOL     OW 8554   0.967   2.125   4.138
 2207SOL    HW1 8555   0.931   2.163   4.053
 2207SOL    HW2 8556   1.065   2.144   4.144
 2208SOL     OW 8557   1.065   2.524   5.218
 2208SOL    HW1 8558   0.990   2.469   5.181
 2208SOL    HW2 8559   1.149   2.471   5.219
 2209SOL     OW 8560   1.190   3.463   4.505
 2209SOL    HW1 8561   1.204   3.536   4.439
 2209SOL    HW2 8562   1.278   3.432   4.541
 2210SOL     OW 8563   0.494   3.005   4.485
 2210SOL    HW1 8564   0.448   2.970   4.567
 2210SOL    HW2 8565   0.432   2.998   4.407
 2211SOL     OW 8566   1.235   3.677   4.330
 2211SOL    HW1 8567   1.290   3.734   4.270
 2211SOL    HW2 8568   1.164   3.733   4.373
 2212SOL     OW 8569   1.024   2.356   3.743
 2212SOL    HW1 8570   0.996   2.442   3.701
 2212SOL    HW2 8571   1.083   2.376   3.821
 2213SOL     OW 8572   0.108   2.534   5.112
 2213SOL    HW1 8573   0.179   2.474   5.076
 2213SOL    HW2 8574   0.121   2.544   5.211
 2214SOL     OW 8575   0.522   2.030   4.916
 2214SOL    HW1 8576   0.555   1.956   4.975
 2214SOL    HW2 8577   0.422   2.035   4.920
 2215SOL     OW 8578   0.859   2.298   4.322
 2215SOL    HW1 8579   0.813   2.360   4.258
 2215SOL    HW2 8580   0.902   2.223   4.272
 2216SOL     OW 8581   1.022   1.908   4.437
 2216SOL    HW1 8582   0.954   1.910   4.364
 2216SOL    HW2 8583   1.000   1.834   4.501
 2217SOL     OW 8584   1.350   3.107   4.509
 2217SOL    HW1 8585   1.267   3.058   4.537
 2217SOL    HW2 8586   1.374   3.081   4.415
 2218SOL     OW 8587   1.406   2.511   4.711
 2218SOL    HW1 8588   1.359   2.425   4.690
 2218SOL    HW2 8589   1.487   2.493   4.767
 2219SOL     OW 8590   1.795   2.619   4.126
 2219SOL    HW1 8591   1.881   2.590   4.168
 2219SOL    HW2 8592   1.781   2.566   4.042
 2220SOL     OW 8593   0.517   3.306   3.841
 2220SOL    HW1 8594   0.427   3.292   3.881
 2220SOL    HW2 8595   0.525   3.253   3.757
 2221SOL     OW 8596   1.700   3.169   4.391
 2221SOL    HW1 8597   1.790   3.205   4.414
 2221SOL    HW2 8598   1.636   3.246   4.378
 2222SOL     OW 8599   1.371   2.402   3.788
 2222SOL    HW1 8600   1.301   2.403   3.859
 2222SOL    HW2 8601   1.436   2.327   3.807
 2223SOL     OW 8602   0.524   2.104   3.976
 2223SOL    HW1 8603   0.597   2.084   3.911
 2223SOL    HW2 8604   0.492   2.198   3.963
 2224SOL     OW 8605   1.765   3.082   5.298
 2224SOL    HW1 8606   1.853   3.056   5.259
 2224SOL    HW2 8607   1.769   3.178   5.328
 2225SOL     OW 8608   0.973   3.165   5.072
 2225SOL    HW1 8609   0.896   3.153   5.134
 2225SOL    HW2 8610   1.058   3.138   5.117
 2226SOL     OW 8611   1.585   3.498   5.396
 2226SOL    HW1 8612   1.584   3.535   5.303
 2226SOL    HW2 8613   1.655   3.428   5.404
 2227SOL     OW 8614   1.142   3.174   4.849
 2227SOL    HW1 8615   1.067   3.165   4.914
 2227SOL    HW2 8616   1.106   3.189   4.758
 2228SOL     OW 8617   0.942   1.910   5.088
 2228SOL    HW1 8618   0.958   1.892   4.991
 2228SOL    HW2 8619   1.023   1.953   5.128
 2229SOL     OW 8620   0.928   2.973   5.444
 2229SOL    HW1 8621   0.845   2.963   5.499
 2229SOL    HW2 8622   0.937   2.894   5.383
 2230SOL     OW 8623   0.743   2.914   4.134
 2230SOL    HW1 8624   0.725   2.885   4.228
 2230SOL    HW2 8625   0.827   2.870   4.102
 2231SOL     OW 8626   1.261   2.212   5.017
 2231SOL    HW1 8627   1.277   2.285   5.083
 2231SOL    HW2 8628   1.170   2.222   4.978
 2232SOL     OW 8629   0.075   3.395   5.033
 2232SOL    HW1 8630   0.057   3.476   4.978
 2232SOL    HW2 8631   0.173   3.389   5.054
 2233SOL     OW 8632   0.338   2.999   4.261
 2233SOL    HW1 8633   0.335   3.095   4.234
 2233SOL    HW2 8634   0.335   2.941   4.179
 2234SOL     OW 8635   0.502   2.402   4.559
 2234SOL    HW1 8636   0.508   2.491   4.514
 2234SOL    HW2 8637   0.580   2.392   4.622
 2235SOL     OW 8638   1.240   3.233   4.129
 2235SOL    HW1 8639   1.301   3.309   4.153
 2235SOL    HW2 8640   1.148   3.253   4.162
 2236SOL     OW 8641   1.318   3.379   4.855
 2236SOL    HW1 8642   1.356   3.393   4.946
 2236SOL    HW2 8643   1.254   3.302   4.856
 2237SOL     OW 8644   1.600   2.468   4.261
 2237SOL    HW1 8645   1.537   2.521   4.319
 2237SOL    HW2 8646   1.665   2.530   4.217
 2238SOL     OW 8647   0.355   3.424   5.013
 2238SOL    HW1 8648   0.348   3.354   4.942
 2238SOL    HW2 8649   0.448   3.424   5.051
 2239SOL     OW 8650   0.455   2.598   5.328
 2239SOL    HW1 8651   0.476   2.654   5.247
 2239SOL    HW2 8652   0.521   2.523   5.334
 2240SOL     OW 8653   1.686   2.612   5.464
 2240SOL    HW1 8654   1.587   2.630   5.462
 2240SOL    HW2 8655   1.728   2.647   5.381
 2241SOL     OW 8656   1.051   1.942   5.504
 2241SOL    HW1 8657   1.099   2.027   5.482
 2241SOL    HW2 8658   1.085   1.868   5.446
 2242SOL     OW 8659   0.493   1.938   5.473
 2242SOL    HW1 8660   0.443   1.890   5.401
 2242SOL    HW2 8661   0.437   2.015   5.506
 2243SOL     OW 8662   0.558   2.820   4.873
 2243SOL    HW1 8663   0.637   2.880   4.856
 2243SOL    HW2 8664   0.483   2.845   4.812
 2244SOL     OW 8665   1.252   2.660   4.892
 2244SOL    HW1 8666   1.229   2.748   4.850
 2244SOL    HW2 8667   1.302   2.604   4.826
 2245SOL     OW 8668   1.173   2.387   3.975
 2245SOL    HW1 8669   1.202   2.312   4.034
 2245SOL    HW2 8670   1.125   2.456   4.029
 2246SOL     OW 8671   0.251   1.996   4.959
 2246SOL    HW1 8672   0.232   2.032   5.050
 2246SOL    HW2 8673   0.223   1.900   4.954
 2247SOL     OW 8674   0.030   3.122   5.002
 2247SOL    HW1 8675   0.036   3.067   5.085
 2247SOL    HW2 8676   0.039   3.219   5.026
 2248SOL     OW 8677   0.713   2.405   4.731
 2248SOL    HW1 8678   0.790   2.374   4.675
 2248SOL    HW2 8679   0.734   2.496   4.768
 2249SOL     OW 8680   1.782   2.842   5.577
 2249SOL    HW1 8681   1.769   2.746   5.553
 2249SOL    HW2 8682   1.707   2.896   5.538
 2250SOL     OW 8683   0.394   1.984   4.421
 2250SOL    HW1 8684   0.317   2.048   4.427
 2250SOL    HW2 8685   0.368   1.897   4.462
 2251SOL     OW 8686   1.637   2.266   4.072
 2251SOL    HW1 8687   1.703   2.205   4.116
 2251SOL    HW2 8688   1.605   2.334   4.137
 2252SOL     OW 8689   0.971   2.583   4.650
 2252SOL    HW1 8690   0.977   2.587   4.750
 2252SOL    HW2 8691   0.959   2.488   4.621
 2253SOL     OW 8692   0.943   3.426   5.421
 2253SOL    HW1 8693   0.937   3.465   5.329
 2253SOL    HW2 8694   0.980   3.333   5.416
 2254SOL     OW 8695   1.824   3.339   5.375
 2254SOL    HW1 8696   1.888   3.379   5.309
 2254SOL    HW2 8697   1.854   3.362   5.468
 2255SOL     OW 8698   0.387   2.778   5.539
 2255SOL    HW1 8699   0.451   2.791   5.614
 2255SOL    HW2 8700   0.425   2.712   5.474
 2256SOL     OW 8701   1.512   2.164   3.847
 2256SOL    HW1 8702   1.462   2.080   3.868
 2256SOL    HW2 8703   1.558   2.197   3.928
 2257SOL     OW 8704   1.296   2.664   3.735
 2257SOL    HW1 8705   1.332   2.571   3.748
 2257SOL    HW2 8706   1.332   2.702   3.650
 2258SOL     OW 8707   1.060   3.230   4.592
 2258SOL    HW1 8708   1.082   3.146   4.543
 2258SOL    HW2 8709   1.106   3.307   4.548
 2259SOL     OW 8710   0.291   2.646   4.629
 2259SOL    HW1 8711   0.364   2.646   4.560
 2259SOL    HW2 8712   0.289   2.557   4.675
 2260SOL     OW 8713   0.293   2.377   4.735
 2260SOL    HW1 8714   0.246   2.289   4.733
 2260SOL    HW2 8715   0.369   2.375   4.670
 2261SOL     OW 8716   1.165   2.172   5.421
 2261SOL    HW1 8717   1.103   2.226   5.479
 2261SOL    HW2 8718   1.255   2.215   5.420
 2262SOL     OW 8719   1.169   2.021   5.192
 2262SOL    HW1 8720   1.162   2.074   5.276
 2262SOL    HW2 8721   1.210   2.077   5.120
 2263SOL     OW 8722   0.009   3.230   3.872
 2263SOL    HW1 8723   9.986   3.209   3.777
 2263SOL    HW2 8724   0.017   3.145   3.923
 2264SOL     OW 8725   0.165   3.592   4.614
 2264SOL    HW1 8726   0.129   3.510   4.569
 2264SOL    HW2 8727   0.252   3.618   4.572
 2265SOL     OW 8728   0.502   3.403   4.645
 2265SOL    HW1 8729   0.574   3.459   4.687
 2265SOL    HW2 8730   0.543   3.342   4.577
 2266SOL     OW 8731   0.966   2.590   4.924
 2266SOL    HW1 8732   1.064   2.597   4.944
 2266SOL    HW2 8733   0.923   2.527   4.988
 2267SOL     OW 8734   0.026   2.417   4.838
 2267SOL    HW1 8735   0.121   2.419   4.807
 2267SOL    HW2 8736   0.021   2.454   4.931
 2268SOL     OW 8737   0.233   2.315   5.349
 2268SOL    HW1 8738   0.324   2.310   5.308
 2268SOL    HW2 8739   0.210   2.410   5.368
 2269SOL     OW 8740   1.437   2.718   5.400
 2269SOL    HW1 8741   1.480   2.808   5.406
 2269SOL    HW2 8742   1.410   2.701   5.306
 2270SOL     OW 8743   0.782   2.432   4.092
 2270SOL    HW1 8744   0.795   2.360   4.024
 2270SOL    HW2 8745   0.703   2.488   4.068
 2271SOL     OW 8746   1.617   2.462   4.889
 2271SOL    HW1 8747   1.576   2.387   4.942
 2271SOL    HW2 8748   1.715   2.444   4.878
 2272SOL     OW 8749   0.735   2.221   4.931
 2272SOL    HW1 8750   0.663   2.152   4.936
 2272SOL    HW2 8751   0.714   2.284   4.856
 2273SOL     OW 8752   0.957   3.527   5.158
 2273SOL    HW1 8753   0.921   3.469   5.085
 2273SOL    HW2 8754   0.955   3.623   5.128
 2274SOL     OW 8755   0.431   2.355   3.932
 2274SOL    HW1 8756   0.486   2.434   3.960
 2274SOL    HW2 8757   0.349   2.388   3.886
 2275SOL     OW 8758   0.072   2.940   5.212
 2275SOL    HW1 8759   0.090   2.926   5.309
 2275SOL    HW2 8760   0.140   2.891   5.158
 2276SOL     OW 8761   1.339   2.781   3.979
 2276SOL    HW1 8762   1.261   2.768   4.040
 2276SOL    HW2 8763   1.321   2.734   3.892
 2277SOL     OW 8764   1.273   3.653   4.819
 2277SOL    HW1 8765   1.367   3.688   4.812
 2277SOL    HW2 8766   1.275   3.554   4.830
 2278SOL     OW 8767   0.156   3.071   4.761
 2278SOL    HW1 8768   0.125   3.080   4.855
 2278SOL    HW2 8769   0.078   3.077   4.699
 2279SOL     OW 8770   0.720   3.580   5.495
 2279SOL    HW1 8771   0.672   3.589   5.408
 2279SOL    HW2 8772   0.806   3.531   5.480
 2280SOL     OW 8773   1.824   2.096   4.180
 2280SOL    HW1 8774   1.865   2.067   4.093
 2280SOL    HW2 8775   1.765   2.023   4.214
 2281SOL     OW 8776   1.388   3.458   4.204
 2281SOL    HW1 8777   1.452   3.494   4.135
 2281SOL    HW2 8778   1.324   3.530   4.231
 2282SOL     OW 8779   1.271   2.797   4.368
 2282SOL    HW1 8780   1.346   2.737   4.396
 2282SOL    HW2 8781   1.308   2.874   4.315
 2283SOL     OW 8782   0.789   3.138   5.268
 2283SOL    HW1 8783   0.838   3.082   5.333
 2283SOL    HW2 8784   0.691   3.131   5.285
 2284SOL     OW 8785   0.668   3.526   3.880
 2284SOL    HW1 8786   0.693   3.547   3.785
 2284SOL    HW2 8787   0.614   3.442   3.882
 2285SOL     OW 8788   1.630   3.579   5.127
 2285SOL    HW1 8789   1.664   3.562   5.034
 2285SOL    HW2 8790   1.662   3.669   5.158
 2286SOL     OW 8791   1.848   1.970   4.694
 2286SOL    HW1 8792   1.867   1.879   4.657
 2286SOL    HW2 8793   1.766   2.008   4.650
 2287SOL     OW 8794   0.187   2.165   4.472
 2287SOL    HW1 8795   0.101   2.196   4.429
 2287SOL    HW2 8796   0.171   2.148   4.569
 2288SOL     OW 8797   1.228   3.428   3.786
 2288SOL    HW1 8798   1.223   3.334   3.819
 2288SOL    HW2 8799   1.150   3.446   3.724
 2289SOL     OW 8800   0.889   2.839   5.034
 2289SOL    HW1 8801   0.907   2.754   4.984
 2289SOL    HW2 8802   0.852   2.907   4.971
 2290SOL     OW 8803   0.960   2.788   4.037
 2290SOL    HW1 8804   0.990   2.791   3.941
 2290SOL    HW2 8805   0.988   2.702   4.078
 2291SOL     OW 8806   1.489   3.513   3.790
 2291SOL    HW1 8807   1.395   3.482   3.781
 2291SOL    HW2 8808   1.534   3.512   3.700
 2292SOL     OW 8809   1.109   2.968   4.513
 2292SOL    HW1 8810   1.023   2.927   4.543
 2292SOL    HW2 8811   1.159   2.903   4.456
 2293SOL     OW 8812   1.055   2.083   4.655
 2293SOL    HW1 8813   1.050   2.042   4.563
 2293SOL    HW2 8814   1.051   2.010   4.723
 2294SOL     OW 8815   0.583   3.316   4.215
 2294SOL    HW1 8816   0.641   3.274   4.145
 2294SOL    HW2 8817   0.487   3.303   4.190
 2295SOL     OW 8818   1.810   2.205   5.065
 2295SOL    HW1 8819   1.775   2.202   5.159
 2295SOL    HW2 8820   1.814   2.112   5.028
 2296SOL     OW 8821   0.268   3.259   3.944
 2296SOL    HW1 8822   0.170   3.261   3.925
 2296SOL    HW2 8823   0.283   3.260   4.043
 2297SOL     OW 8824   0.133   2.860   5.481
 2297SOL    HW1 8825   0.106   2.952   5.509
 2297SOL    HW2 8826   0.227   2.843   5.508
 2298SOL     OW 8827   0.719   2.028   5.212
 2298SOL    HW1 8828   0.800   2.000   5.160
 2298SOL    HW2 8829   0.747   2.052   5.305
 2299SOL     OW 8830   1.393   2.655   5.133
 2299SOL    HW1 8831   1.329   2.659   5.056
 2299SOL    HW2 8832   1.485   2.673   5.100
 2300SOL     OW 8833   0.215   2.077   3.844
 2300SOL    HW1 8834   0.123   2.039   3.834
 2300SOL    HW2 8835   0.279   2.003   3.865
 2301SOL     OW 8836   1.182   3.168   3.865
 2301SOL    HW1 8837   1.083   3.157   3.854
 2301SOL    HW2 8838   1.204   3.179   3.961
 2302SOL     OW 8839   1.530   3.743   4.815
 2302SOL    HW1 8840   1.585   3.817   4.774
 2302SOL    HW2 8841   1.590   3.666   4.838
 2303SOL     OW 8842   0.768   2.343   5.360
 2303SOL    HW1 8843   0.810   2.415   5.416
 2303SOL    HW2 8844   0.785   2.254   5.402
 2304SOL     OW 8845   1.569   2.955   5.433
 2304SOL    HW1 8846   1.517   3.013   5.495
 2304SOL    HW2 8847   1.630   3.012   5.378
 2305SOL     OW 8848   0.327   3.639   5.194
 2305SOL    HW1 8849   0.281   3.724   5.166
 2305SOL    HW2 8850   0.320   3.571   5.121
 2306SOL     OW 8851   1.636   2.705   5.020
 2306SOL    HW1 8852   1.635   2.624   4.962
 2306SOL    HW2 8853   1.599   2.783   4.968
 2307SOL     OW 8854   1.230   2.197   4.168
 2307SOL    HW1 8855   1.294   2.119   4.168
 2307SOL    HW2 8856   1.241   2.248   4.253
 2308SOL     OW 8857   0.496   2.645   4.438
 2308SOL    HW1 8858   0.571   2.709   4.424
 2308SOL    HW2 8859   0.450   2.628   4.351
 2309SOL     OW 8860   1.783   2.753   5.247
 2309SOL    HW1 8861   1.768   2.849   5.268
 2309SOL    HW2 8862   1.737   2.730   5.161
 2310SOL     OW 8863   0.898   3.203   3.823
 2310SOL    HW1 8864   0.850   3.212   3.910
 2310SOL    HW2 8865   0.907   3.293   3.780
 2311SOL     OW 8866   0.691   3.580   4.716
 2311SOL    HW1 8867   0.668   3.677   4.708
 2311SOL    HW2 8868   0.789   3.567   4.701
 2312SOL     OW 8869   0.880   2.841   4.606
 2312SOL    HW1 8870   0.910   2.747   4.622
 2312SOL    HW2 8871   0.842   2.878   4.691
 2313SOL     OW 8872   1.051   2.776   3.780
 2313SOL    HW1 8873   1.034   2.852   3.718
 2313SOL    HW2 8874   1.143   2.739   3.763
 2314SOL     OW 8875   1.832   3.384   4.523
 2314SOL    HW1 8876   1.748   3.413   4.478
 2314SOL    HW2 8877   1.812   3.363   4.619
 2315SOL     OW 8878   0.351   3.156   5.507
 2315SOL    HW1 8879   0.270   3.201   5.471
 2315SOL    HW2 8880   0.346   3.151   5.607
 2316SOL     OW 8881   0.097   3.126   4.364
 2316SOL    HW1 8882  10.000   3.102   4.359
 2316SOL    HW2 8883   0.152   3.044   4.348
 2317SOL     OW 8884   1.855   1.959   4.966
 2317SOL    HW1 8885   1.925   1.891   4.985
 2317SOL    HW2 8886   1.845   1.969   4.867
 2318SOL     OW 8887   0.366   2.311   4.326
 2318SOL    HW1 8888   0.439   2.332   4.392
 2318SOL    HW2 8889   0.294   2.260   4.372
 2319SOL     OW 8890   1.769   3.319   4.791
 2319SOL    HW1 8891   1.725   3.243   4.743
 2319SOL    HW2 8892   1.820   3.283   4.870
 2320SOL     OW 8893   0.313   2.389   5.019
 2320SOL    HW1 8894   0.378   2.333   5.070
 2320SOL    HW2 8895   0.330   2.382   4.921
 2321SOL     OW 8896   0.826   3.445   4.405
 2321SOL    HW1 8897   0.798   3.519   4.343
 2321SOL    HW2 8898   0.750   3.380   4.415
 2322SOL     OW 8899   1.446   2.126   4.840
 2322SOL    HW1 8900   1.469   2.030   4.856
 2322SOL    HW2 8901   1.382   2.156   4.911
 2323SOL     OW 8902   1.040   1.863   4.820
 2323SOL    HW1 8903   1.000   1.797   4.757
 2323SOL    HW2 8904   1.134   1.835   4.842
 2324SOL     OW 8905   0.784   3.182   4.074
 2324SOL    HW1 8906   0.768   3.085   4.095
 2324SOL    HW2 8907   0.860   3.216   4.129
 2325SOL     OW 8908   0.613   3.406   5.092
 2325SOL    HW1 8909   0.622   3.479   5.160
 2325SOL    HW2 8910   0.697   3.400   5.038
 2326SOL     OW 8911   1.392   1.917   3.902
 2326SOL    HW1 8912   1.444   1.847   3.853
 2326SOL    HW2 8913   1.300   1.884   3.921
 2327SOL     OW 8914   1.262   2.334   4.404
 2327SOL    HW1 8915   1.214   2.421   4.394
 2327SOL    HW2 8916   1.265   2.308   4.501
 2328SOL     OW 8917   1.605   2.069   4.618
 2328SOL    HW1 8918   1.553   2.109   4.694
 2328SOL    HW2 8919   1.588   2.122   4.535
 2329SOL     OW 8920   0.076   2.997   3.998
 2329SOL    HW1 8921   0.169   2.959   3.999
 2329SOL    HW2 8922   0.016   2.936   4.049
 2330SOL     OW 8923   0.887   3.525   4.047
 2330SOL    HW1 8924   0.815   3.514   3.978
 2330SOL    HW2 8925   0.852   3.581   4.122
 2331SOL     OW 8926   0.220   2.483   5.647
 2331SOL    HW1 8927   0.173   2.502   5.733
 2331SOL    HW2 8928   0.180   2.540   5.575
 2332SOL     OW 8929   0.223   2.145   6.558
 2332SOL    HW1 8930   0.252   2.104   6.645
 2332SOL    HW2 8931   0.124   2.140   6.551
 2333SOL     OW 8932   0.057   2.320   6.207
 2333SOL    HW1 8933   9.958   2.328   6.223
 2333SOL    HW2 8934   0.075   2.239   6.151
 2334SOL     OW 8935   0.505   3.092   6.787
 2334SOL    HW1 8936   0.438   3.133   6.726
 2334SOL    HW2 8937   0.481   3.113   6.882
 2335SOL     OW 8938   1.586   3.401   6.282
 2335SOL    HW1 8939   1.553   3.356   6.366
 2335SOL    HW2 8940   1.508   3.422   6.223
 2336SOL     OW 8941   1.143   2.590   6.239
 2336SOL    HW1 8942   1.194   2.674   6.220
 2336SOL    HW2 8943   1.101   2.596   6.330
 2337SOL     OW 8944   0.721   2.977   6.672
 2337SOL    HW1 8945   0.637   3.008   6.715
 2337SOL    HW2 8946   0.765   3.053   6.624
 2338SOL     OW 8947   0.909   2.591   7.349
 2338SOL    HW1 8948   0.940   2.652   7.423
 2338SOL    HW2 8949   0.908   2.641   7.263
 2339SOL     OW 8950   0.718   2.844   6.254
 2339SOL    HW1 8951   0.795   2.841   6.318
 2339SOL    HW2 8952   0.651   2.910   6.287
 2340SOL     OW 8953   0.721   3.022   7.445
 2340SOL    HW1 8954   0.784   3.086   7.490
 2340SOL    HW2 8955   0.656   3.074   7.389
 2341SOL     OW 8956   0.306   3.264   6.623
 2341SOL    HW1 8957   0.234   3.258   6.555
 2341SOL    HW2 8958   0.383   3.316   6.586
 2342SOL     OW 8959   1.451   3.344   6.977
 2342SOL    HW1 8960   1.513   3.422   6.992
 2342SOL    HW2 8961   1.375   3.349   7.042
 2343SOL     OW 8962   0.480   2.212   7.021
 2343SOL    HW1 8963   0.561   2.159   7.045
 2343SOL    HW2 8964   0.399   2.167   7.058
 2344SOL     OW 8965   1.554   2.310   6.334
 2344SOL    HW1 8966   1.490   2.304   6.257
 2344SOL    HW2 8967   1.516   2.371   6.404
 2345SOL     OW 8968   0.246   3.506   5.984
 2345SOL    HW1 8969   0.186   3.572   6.030
 2345SOL    HW2 8970   0.330   3.552   5.954
 2346SOL     OW 8971   1.119   3.187   7.316
 2346SOL    HW1 8972   1.170   3.172   7.400
 2346SOL    HW2 8973   1.064   3.106   7.294
 2347SOL     OW 8974   0.243   3.237   6.045
 2347SOL    HW1 8975   0.253   3.336   6.031
 2347SOL    HW2 8976   0.168   3.220   6.108
 2348SOL     OW 8977   0.367   2.901   6.536
 2348SOL    HW1 8978   0.339   2.807   6.517
 2348SOL    HW2 8979   0.299   2.945   6.594
 2349SOL     OW 8980   0.631   3.674   7.090
 2349SOL    HW1 8981   0.535   3.661   7.113
 2349SOL    HW2 8982   0.650   3.772   7.078
 2350SOL     OW 8983   0.590   2.848   5.783
 2350SOL    HW1 8984   0.622   2.894   5.701
 2350SOL    HW2 8985   0.651   2.870   5.860
 2351SOL     OW 8986   1.635   2.034   7.016
 2351SOL    HW1 8987   1.717   2.018   6.961
 2351SOL    HW2 8988   1.620   2.132   7.025
 2352SOL     OW 8989   0.158   2.565   6.159
 2352SOL    HW1 8990   0.119   2.476   6.182
 2352SOL    HW2 8991   0.130   2.633   6.227
 2353SOL     OW 8992   1.862   3.554   5.894
 2353SOL    HW1 8993   1.940   3.538   5.955
 2353SOL    HW2 8994   1.857   3.652   5.871
 2354SOL     OW 8995   0.066   3.406   5.796
 2354SOL    HW1 8996   0.034   3.319   5.834
 2354SOL    HW2 8997   0.130   3.449   5.861
 2355SOL     OW 8998   1.723   2.696   6.287
 2355SOL    HW1 8999   1.811   2.673   6.329
 2355SOL    HW2 9000   1.729   2.683   6.188
 2356SOL     OW 9001   0.250   2.632   7.213
 2356SOL    HW1 9002   0.348   2.622   7.227
 2356SOL    HW2 9003   0.220   2.719   7.252
 2357SOL     OW 9004   0.620   3.251   6.314
 2357SOL    HW1 9005   0.586   3.160   6.335
 2357SOL    HW2 9006   0.603   3.271   6.218
 2358SOL     OW 9007   1.282   3.035   7.026
 2358SOL    HW1 9008   1.301   2.975   6.949
 2358SOL    HW2 9009   1.357   3.028   7.092
 2359SOL     OW 9010   0.816   1.905   6.098
 2359SOL    HW1 9011   0.869   1.969   6.042
 2359SOL    HW2 9012   0.719   1.931   6.095
 2360SOL     OW 9013   0.205   2.840   6.887
 2360SOL    HW1 9014   0.283   2.779   6.877
 2360SOL    HW2 9015   0.199   2.901   6.808
 2361SOL     OW 9016   1.508   2.878   5.786
 2361SOL    HW1 9017   1.428   2.835   5.828
 2361SOL    HW2 9018   1.591   2.839   5.825
 2362SOL     OW 9019   1.111   3.638   7.175
 2362SOL    HW1 9020   1.182   3.706   7.155
 2362SOL    HW2 9021   1.148   3.546   7.159
 2363SOL     OW 9022   0.357   2.121   7.366
 2363SOL    HW1 9023   0.401   2.207   7.391
 2363SOL    HW2 9024   0.260   2.124   7.390
 2364SOL     OW 9025   1.521   3.262   6.510
 2364SOL    HW1 9026   1.465   3.296   6.586
 2364SOL    HW2 9027   1.487   3.172   6.482
 2365SOL     OW 9028   1.614   3.712   6.113
 2365SOL    HW1 9029   1.610   3.651   6.034
 2365SOL    HW2 9030   1.623   3.658   6.197
 2366SOL     OW 9031   0.574   2.580   5.837
 2366SOL    HW1 9032   0.583   2.676   5.811
 2366SOL    HW2 9033   0.516   2.572   5.918
 2367SOL     OW 9034   1.242   2.241   6.499
 2367SOL    HW1 9035   1.152   2.196   6.505
 2367SOL    HW2 9036   1.306   2.193   6.559
 2368SOL     OW 9037   1.583   3.541   5.899
 2368SOL    HW1 9038   1.681   3.523   5.895
 2368SOL    HW2 9039   1.543   3.533   5.808
 2369SOL     OW 9040   0.784   2.438   7.021
 2369SOL    HW1 9041   0.753   2.411   7.113
 2369SOL    HW2 9042   0.761   2.366   6.956
 2370SOL     OW 9043   1.436   2.334   7.237
 2370SOL    HW1 9044   1.414   2.383   7.321
 2370SOL    HW2 9045   1.486   2.250   7.258
 2371SOL     OW 9046   0.935   2.763   7.124
 2371SOL    HW1 9047   0.987   2.694   7.073
 2371SOL    HW2 9048   0.885   2.821   7.060
 2372SOL     OW 9049   1.002   2.217   6.769
 2372SOL    HW1 9050   0.908   2.230   6.802
 2372SOL    HW2 9051   1.000   2.169   6.682
 2373SOL     OW 9052   0.048   2.781   6.402
 2373SOL    HW1 9053   0.129   2.734   6.438
 2373SOL    HW2 9054   9.982   2.794   6.476
 2374SOL     OW 9055   0.096   3.692   7.118
 2374SOL    HW1 9056   0.098   3.660   7.213
 2374SOL    HW2 9057   0.081   3.615   7.057
 2375SOL     OW 9058   0.836   2.219   5.762
 2375SOL    HW1 9059   0.902   2.238   5.690
 2375SOL    HW2 9060   0.773   2.148   5.732
 2376SOL     OW 9061   1.438   3.065   6.159
 2376SOL    HW1 9062   1.529   3.098   6.134
 2376SOL    HW2 9063   1.369   3.120   6.112
 2377SOL     OW 9064   0.564   1.976   6.500
 2377SOL    HW1 9065   0.566   1.999   6.597
 2377SOL    HW2 9066   0.573   2.060   6.446
 2378SOL     OW 9067   1.000   3.345   6.039
 2378SOL    HW1 9068   0.985   3.425   5.980
 2378SOL    HW2 9069   0.954   3.359   6.127
 2379SOL     OW 9070   0.283   3.602   6.503
 2379SOL    HW1 9071   0.357   3.534   6.500
 2379SOL    HW2 9072   0.288   3.661   6.422
 2380SOL     OW 9073   1.794   2.919   6.434
 2380SOL    HW1 9074   1.744   2.854   6.376
 2380SOL    HW2 9075   1.739   2.941   6.515
 2381SOL     OW 9076   1.201   3.375   7.125
 2381SOL    HW1 9077   1.188   3.312   7.201
 2381SOL    HW2 9078   1.160   3.335   7.042
 2382SOL     OW 9079   0.350   2.814   5.927
 2382SOL    HW1 9080   0.426   2.835   5.865
 2382SOL    HW2 9081   0.362   2.721   5.963
 2383SOL     OW 9082   1.463   2.624   6.300
 2383SOL    HW1 9083   1.442   2.569   6.381
 2383SOL    HW2 9084   1.559   2.652   6.304
 2384SOL     OW 9085   0.491   3.191   7.294
 2384SOL    HW1 9086   0.481   3.180   7.195
 2384SOL    HW2 9087   0.402   3.175   7.338
 2385SOL     OW 9088   1.098   3.664   5.732
 2385SOL    HW1 9089   1.030   3.645   5.803
 2385SOL    HW2 9090   1.132   3.577   5.695
 2386SOL     OW 9091   0.216   2.119   7.067
 2386SOL    HW1 9092   0.128   2.163   7.051
 2386SOL    HW2 9093   0.201   2.033   7.116
 2387SOL     OW 9094   1.608   3.297   5.633
 2387SOL    HW1 9095   1.549   3.377   5.634
 2387SOL    HW2 9096   1.552   3.214   5.633
 2388SOL     OW 9097   0.466   3.663   5.915
 2388SOL    HW1 9098   0.496   3.721   5.990
 2388SOL    HW2 9099   0.546   3.628   5.866
 2389SOL     OW 9100   1.381   1.952   6.016
 2389SOL    HW1 9101   1.381   1.923   5.921
 2389SOL    HW2 9102   1.470   1.933   6.057
 2390SOL     OW 9103   0.252   3.663   6.772
 2390SOL    HW1 9104   0.276   3.576   6.815
 2390SOL    HW2 9105   0.262   3.654   6.673
 2391SOL     OW 9106   0.930   3.574   6.411
 2391SOL    HW1 9107   1.020   3.536   6.430
 2391SOL    HW2 9108   0.886   3.520   6.339
 2392SOL     OW 9109   0.408   2.560   6.056
 2392SOL    HW1 9110   0.446   2.471   6.079
 2392SOL    HW2 9111   0.314   2.566   6.090
 2393SOL     OW 9112   1.576   2.119   7.326
 2393SOL    HW1 9113   1.554   2.126   7.423
 2393SOL    HW2 9114   1.562   2.025   7.295
 2394SOL     OW 9115   0.654   1.999   5.692
 2394SOL    HW1 9116   0.675   1.911   5.735
 2394SOL    HW2 9117   0.587   1.985   5.619
 2395SOL     OW 9118   0.770   2.122   7.357
 2395SOL    HW1 9119   0.861   2.080   7.349
 2395SOL    HW2 9120   0.718   2.076   7.429
 2396SOL     OW 9121   0.779   3.335   6.792
 2396SOL    HW1 9122   0.784   3.286   6.705
 2396SOL    HW2 9123   0.814   3.428   6.780
 2397SOL     OW 9124   1.286   2.456   7.021
 2397SOL    HW1 9125   1.333   2.424   7.103
 2397SOL    HW2 9126   1.324   2.544   6.993
 2398SOL     OW 9127   0.807   3.207   6.543
 2398SOL    HW1 9128   0.901   3.219   6.513
 2398SOL    HW2 9129   0.745   3.226   6.467
 2399SOL     OW 9130   0.897   2.339   6.457
 2399SOL    HW1 9131   0.835   2.342   6.379
 2399SOL    HW2 9132   0.921   2.244   6.477
 2400SOL     OW 9133   0.555   1.972   6.075
 2400SOL    HW1 9134   0.477   1.968   6.137
 2400SOL    HW2 9135   0.544   2.049   6.012
 2401SOL     OW 9136   1.436   3.085   5.635
 2401SOL    HW1 9137   1.467   3.006   5.688
 2401SOL    HW2 9138   1.354   3.124   5.678
 2402SOL     OW 9139   0.260   1.930   5.749
 2402SOL    HW1 9140   0.302   2.009   5.704
 2402SOL    HW2 9141   0.328   1.885   5.807
 2403SOL     OW 9142   0.963   2.082   5.966
 2403SOL    HW1 9143   0.923   2.140   5.894
 2403SOL    HW2 9144   1.057   2.111   5.984
 2404SOL     OW 9145   1.027   2.557   6.972
 2404SOL    HW1 9146   0.949   2.497   6.992
 2404SOL    HW2 9147   1.112   2.508   6.991
 2405SOL     OW 9148   1.185   3.473   6.378
 2405SOL    HW1 9149   1.205   3.528   6.297
 2405SOL    HW2 9150   1.243   3.503   6.454
 2406SOL     OW 9151   0.521   3.004   6.342
 2406SOL    HW1 9152   0.471   2.970   6.421
 2406SOL    HW2 9153   0.461   3.002   6.262
 2407SOL     OW 9154   1.228   3.675   6.178
 2407SOL    HW1 9155   1.281   3.740   6.124
 2407SOL    HW2 9156   1.150   3.721   6.220
 2408SOL     OW 9157   1.030   2.321   5.598
 2408SOL    HW1 9158   0.991   2.405   5.560
 2408SOL    HW2 9159   1.080   2.343   5.682
 2409SOL     OW 9160   0.142   2.517   6.990
 2409SOL    HW1 9161   0.218   2.470   6.946
 2409SOL    HW2 9162   0.175   2.566   7.070
 2410SOL     OW 9163   0.561   2.038   6.764
 2410SOL    HW1 9164   0.586   1.961   6.824
 2410SOL    HW2 9165   0.464   2.060   6.777
 2411SOL     OW 9166   1.003   1.923   6.301
 2411SOL    HW1 9167   0.942   1.940   6.223
 2411SOL    HW2 9168   0.977   1.837   6.345
 2412SOL     OW 9169   1.419   3.023   6.435
 2412SOL    HW1 9170   1.323   3.000   6.453
 2412SOL    HW2 9171   1.433   3.030   6.336
 2413SOL     OW 9172   1.409   2.462   6.525
 2413SOL    HW1 9173   1.336   2.393   6.516
 2413SOL    HW2 9174   1.450   2.455   6.616
 2414SOL     OW 9175   1.763   2.643   6.023
 2414SOL    HW1 9176   1.851   2.600   6.043
 2414SOL    HW2 9177   1.774   2.710   5.949
 2415SOL     OW 9178   0.512   3.328   5.781
 2415SOL    HW1 9179   0.424   3.280   5.773
 2415SOL    HW2 9180   0.582   3.278   5.731
 2416SOL     OW 9181   1.701   3.205   6.127
 2416SOL    HW1 9182   1.777   3.162   6.177
 2416SOL    HW2 9183   1.665   3.281   6.181
 2417SOL     OW 9184   1.385   2.404   5.701
 2417SOL    HW1 9185   1.300   2.389   5.752
 2417SOL    HW2 9186   1.463   2.381   5.759
 2418SOL     OW 9187   0.522   2.164   5.888
 2418SOL    HW1 9188   0.575   2.106   5.826
 2418SOL    HW2 9189   0.483   2.240   5.837
 2419SOL     OW 9190   1.720   3.136   7.169
 2419SOL    HW1 9191   1.793   3.075   7.138
 2419SOL    HW2 9192   1.760   3.224   7.195
 2420SOL     OW 9193   1.092   3.202   6.940
 2420SOL    HW1 9194   0.999   3.181   6.969
 2420SOL    HW2 9195   1.155   3.137   6.981
 2421SOL     OW 9196   1.622   3.487   7.273
 2421SOL    HW1 9197   1.599   3.517   7.180
 2421SOL    HW2 9198   1.711   3.441   7.272
 2422SOL     OW 9199   1.180   3.134   6.694
 2422SOL    HW1 9200   1.135   3.163   6.779
 2422SOL    HW2 9201   1.127   3.167   6.616
 2423SOL     OW 9202   1.605   2.953   6.639
 2423SOL    HW1 9203   1.593   3.016   6.716
 2423SOL    HW2 9204   1.531   2.967   6.573
 2424SOL     OW 9205   0.943   1.920   6.973
 2424SOL    HW1 9206   0.956   1.900   6.876
 2424SOL    HW2 9207   1.024   1.965   7.009
 2425SOL     OW 9208   0.964   2.956   7.315
 2425SOL    HW1 9209   0.872   2.974   7.350
 2425SOL    HW2 9210   0.959   2.890   7.241
 2426SOL     OW 9211   0.774   2.896   5.987
 2426SOL    HW1 9212   0.754   2.875   6.082
 2426SOL    HW2 9213   0.851   2.841   5.955
 2427SOL     OW 9214   0.430   2.673   6.863
 2427SOL    HW1 9215   0.501   2.687   6.932
 2427SOL    HW2 9216   0.400   2.578   6.863
 2428SOL     OW 9217   1.248   2.229   6.873
 2428SOL    HW1 9218   1.263   2.313   6.925
 2428SOL    HW2 9219   1.155   2.230   6.835
 2429SOL     OW 9220   0.056   3.465   6.949
 2429SOL    HW1 9221   0.019   3.490   6.860
 2429SOL    HW2 9222   0.153   3.441   6.939
 2430SOL     OW 9223   0.363   3.002   6.123
 2430SOL    HW1 9224   0.334   3.091   6.089
 2430SOL    HW2 9225   0.362   2.935   6.049
 2431SOL     OW 9226   0.509   2.434   6.455
 2431SOL    HW1 9227   0.526   2.507   6.390
 2431SOL    HW2 9228   0.586   2.429   6.520
 2432SOL     OW 9229   1.258   3.245   6.031
 2432SOL    HW1 9230   1.316   3.322   6.056
 2432SOL    HW2 9231   1.162   3.270   6.044
 2433SOL     OW 9232   1.367   3.331   6.721
 2433SOL    HW1 9233   1.398   3.337   6.816
 2433SOL    HW2 9234   1.301   3.256   6.713
 2434SOL     OW 9235   1.532   2.497   6.054
 2434SOL    HW1 9236   1.486   2.539   6.132
 2434SOL    HW2 9237   1.617   2.547   6.035
 2435SOL     OW 9238   0.309   3.403   6.866
 2435SOL    HW1 9239   0.304   3.350   6.782
 2435SOL    HW2 9240   0.404   3.425   6.886
 2436SOL     OW 9241   0.522   2.594   7.255
 2436SOL    HW1 9242   0.562   2.637   7.174
 2436SOL    HW2 9243   0.576   2.512   7.279
 2437SOL     OW 9244   1.008   1.995   7.337
 2437SOL    HW1 9245   1.074   2.069   7.328
 2437SOL    HW2 9246   1.049   1.909   7.305
 2438SOL     OW 9247   0.501   1.903   7.312
 2438SOL    HW1 9248   0.458   1.852   7.238
 2438SOL    HW2 9249   0.449   1.987   7.330
 2439SOL     OW 9250   0.661   2.709   6.702
 2439SOL    HW1 9251   0.672   2.804   6.675
 2439SOL    HW2 9252   0.572   2.696   6.746
 2440SOL     OW 9253   1.262   2.699   6.584
 2440SOL    HW1 9254   1.171   2.669   6.555
 2440SOL    HW2 9255   1.329   2.628   6.561
 2441SOL     OW 9256   1.154   2.365   5.840
 2441SOL    HW1 9257   1.185   2.287   5.894
 2441SOL    HW2 9258   1.101   2.426   5.898
 2442SOL     OW 9259   0.291   2.051   6.805
 2442SOL    HW1 9260   0.267   2.086   6.895
 2442SOL    HW2 9261   0.266   1.954   6.798
 2443SOL     OW 9262   9.998   3.181   6.953
 2443SOL    HW1 9263   0.054   3.122   7.011
 2443SOL    HW2 9264   0.023   3.277   6.969
 2444SOL     OW 9265   0.709   2.444   6.634
 2444SOL    HW1 9266   0.792   2.426   6.581
 2444SOL    HW2 9267   0.705   2.541   6.656
 2445SOL     OW 9268   0.329   1.963   6.218
 2445SOL    HW1 9269   0.313   2.052   6.261
 2445SOL    HW2 9270   0.332   1.892   6.289
 2446SOL     OW 9271   1.560   2.265   5.920
 2446SOL    HW1 9272   1.621   2.209   5.977
 2446SOL    HW2 9273   1.541   2.352   5.967
 2447SOL     OW 9274   1.020   2.582   6.494
 2447SOL    HW1 9275   0.994   2.606   6.587
 2447SOL    HW2 9276   0.988   2.490   6.472
 2448SOL     OW 9277   0.979   3.404   7.410
 2448SOL    HW1 9278   0.927   3.463   7.349
 2448SOL    HW2 9279   1.014   3.326   7.358
 2449SOL     OW 9280   1.868   3.371   7.208
 2449SOL    HW1 9281   1.884   3.391   7.112
 2449SOL    HW2 9282   1.951   3.390   7.261
 2450SOL     OW 9283   0.436   2.783   7.437
 2450SOL    HW1 9284   0.499   2.808   7.510
 2450SOL    HW2 9285   0.477   2.712   7.380
 2451SOL     OW 9286   1.545   2.087   5.716
 2451SOL    HW1 9287   1.480   2.014   5.738
 2451SOL    HW2 9288   1.546   2.154   5.789
 2452SOL     OW 9289   1.283   2.649   5.614
 2452SOL    HW1 9290   1.317   2.560   5.645
 2452SOL    HW2 9291   1.336   2.679   5.534
 2453SOL     OW 9292   1.065   3.231   6.459
 2453SOL    HW1 9293   1.098   3.149   6.413
 2453SOL    HW2 9294   1.114   3.311   6.423
 2454SOL     OW 9295   0.285   2.652   6.458
 2454SOL    HW1 9296   0.366   2.648   6.400
 2454SOL    HW2 9297   0.278   2.569   6.512
 2455SOL     OW 9298   0.293   2.400   6.602
 2455SOL    HW1 9299   0.256   2.309   6.587
 2455SOL    HW2 9300   0.377   2.411   6.548
 2456SOL     OW 9301   1.177   2.205   7.278
 2456SOL    HW1 9302   1.121   2.263   7.337
 2456SOL    HW2 9303   1.267   2.247   7.265
 2457SOL     OW 9304   1.176   2.037   7.059
 2457SOL    HW1 9305   1.170   2.093   7.142
 2457SOL    HW2 9306   1.212   2.092   6.984
 2458SOL     OW 9307   9.991   3.135   5.814
 2458SOL    HW1 9308   9.979   3.121   5.716
 2458SOL    HW2 9309   0.018   3.048   5.857
 2459SOL     OW 9310   0.045   3.469   6.574
 2459SOL    HW1 9311   0.066   3.380   6.533
 2459SOL    HW2 9312   0.117   3.534   6.553
 2460SOL     OW 9313   0.494   3.419   6.498
 2460SOL    HW1 9314   0.562   3.489   6.521
 2460SOL    HW2 9315   0.531   3.358   6.427
 2461SOL     OW 9316   0.933   2.654   6.732
 2461SOL    HW1 9317   0.974   2.627   6.819
 2461SOL    HW2 9318   0.837   2.678   6.746
 2462SOL     OW 9319   0.060   2.502   6.709
 2462SOL    HW1 9320   0.148   2.470   6.672
 2462SOL    HW2 9321   0.069   2.517   6.807
 2463SOL     OW 9322   0.201   2.376   7.295
 2463SOL    HW1 9323   0.238   2.323   7.219
 2463SOL    HW2 9324   0.201   2.473   7.271
 2464SOL     OW 9325   1.371   2.752   7.224
 2464SOL    HW1 9326   1.408   2.845   7.234
 2464SOL    HW2 9327   1.372   2.726   7.127
 2465SOL     OW 9328   0.825   2.503   5.772
 2465SOL    HW1 9329   0.834   2.404   5.785
 2465SOL    HW2 9330   0.734   2.532   5.800
 2466SOL     OW 9331   0.252   3.418   7.234
 2466SOL    HW1 9332   0.194   3.478   7.289
 2466SOL    HW2 9333   0.252   3.326   7.272
 2467SOL     OW 9334   0.735   2.252   6.822
 2467SOL    HW1 9335   0.671   2.176   6.812
 2467SOL    HW2 9336   0.714   2.322   6.753
 2468SOL     OW 9337   0.842   3.565   7.228
 2468SOL    HW1 9338   0.771   3.603   7.168
 2468SOL    HW2 9339   0.932   3.594   7.195
 2469SOL     OW 9340   0.447   2.364   5.719
 2469SOL    HW1 9341   0.509   2.436   5.749
 2469SOL    HW2 9342   0.361   2.406   5.689
 2470SOL     OW 9343   0.178   3.017   7.087
 2470SOL    HW1 9344   0.183   2.974   7.177
 2470SOL    HW2 9345   0.189   2.947   7.016
 2471SOL     OW 9346   1.278   2.888   6.781
 2471SOL    HW1 9347   1.273   2.821   6.707
 2471SOL    HW2 9348   1.245   2.976   6.747
 2472SOL     OW 9349   1.271   2.770   5.863
 2472SOL    HW1 9350   1.181   2.761   5.906
 2472SOL    HW2 9351   1.271   2.722   5.775
 2473SOL     OW 9352   1.756   3.561   6.746
 2473SOL    HW1 9353   1.828   3.606   6.693
 2473SOL    HW2 9354   1.745   3.467   6.715
 2474SOL     OW 9355   1.338   3.560   6.580
 2474SOL    HW1 9356   1.407   3.627   6.606
 2474SOL    HW2 9357   1.344   3.480   6.639
 2475SOL     OW 9358   0.177   3.025   6.688
 2475SOL    HW1 9359   0.218   3.115   6.676
 2475SOL    HW2 9360   0.077   3.034   6.689
 2476SOL     OW 9361   0.718   3.696   7.444
 2476SOL    HW1 9362   0.629   3.721   7.408
 2476SOL    HW2 9363   0.775   3.659   7.371
 2477SOL     OW 9364   1.734   2.106   6.068
 2477SOL    HW1 9365   1.796   2.081   5.993
 2477SOL    HW2 9366   1.691   2.023   6.104
 2478SOL     OW 9367   1.398   3.469   6.094
 2478SOL    HW1 9368   1.457   3.497   6.019
 2478SOL    HW2 9369   1.336   3.544   6.117
 2479SOL     OW 9370   0.120   3.604   7.385
 2479SOL    HW1 9371   0.034   3.626   7.431
 2479SOL    HW2 9372   0.196   3.611   7.449
 2480SOL     OW 9373   1.297   2.821   6.218
 2480SOL    HW1 9374   1.363   2.753   6.248
 2480SOL    HW2 9375   1.344   2.895   6.171
 2481SOL     OW 9376   0.829   3.167   7.002
 2481SOL    HW1 9377   0.799   3.209   7.087
 2481SOL    HW2 9378   0.804   3.225   6.925
 2482SOL     OW 9379   0.670   3.548   5.764
 2482SOL    HW1 9380   0.689   3.565   5.667
 2482SOL    HW2 9381   0.608   3.469   5.772
 2483SOL     OW 9382   1.622   3.561   6.996
 2483SOL    HW1 9383   1.661   3.556   6.904
 2483SOL    HW2 9384   1.647   3.649   7.037
 2484SOL     OW 9385   1.857   2.025   6.594
 2484SOL    HW1 9386   1.878   1.932   6.566
 2484SOL    HW2 9387   1.772   2.055   6.552
 2485SOL     OW 9388   0.297   2.218   6.307
 2485SOL    HW1 9389   0.215   2.264   6.274
 2485SOL    HW2 9390   0.285   2.194   6.404
 2486SOL     OW 9391   1.188   3.416   5.633
 2486SOL    HW1 9392   1.198   3.332   5.685
 2486SOL    HW2 9393   1.113   3.406   5.567
 2487SOL     OW 9394   0.789   2.905   6.942
 2487SOL    HW1 9395   0.774   2.910   6.843
 2487SOL    HW2 9396   0.801   2.998   6.978
 2488SOL     OW 9397   0.973   2.743   5.884
 2488SOL    HW1 9398   0.997   2.767   5.790
 2488SOL    HW2 9399   0.954   2.645   5.891
 2489SOL     OW 9400   1.450   3.525   5.635
 2489SOL    HW1 9401   1.357   3.490   5.625
 2489SOL    HW2 9402   1.493   3.532   5.545
 2490SOL     OW 9403   0.394   3.175   7.033
 2490SOL    HW1 9404   0.363   3.266   7.004
 2490SOL    HW2 9405   0.315   3.117   7.053
 2491SOL     OW 9406   1.593   3.126   6.852
 2491SOL    HW1 9407   1.688   3.135   6.881
 2491SOL    HW2 9408   1.535   3.188   6.904
 2492SOL     OW 9409   1.135   2.981   6.372
 2492SOL    HW1 9410   1.052   2.934   6.402
 2492SOL    HW2 9411   1.187   2.921   6.311
 2493SOL     OW 9412   1.010   2.069   6.532
 2493SOL    HW1 9413   1.011   2.030   6.440
 2493SOL    HW2 9414   1.006   1.996   6.600
 2494SOL     OW 9415   0.612   3.301   6.044
 2494SOL    HW1 9416   0.687   3.247   6.005
 2494SOL    HW2 9417   0.550   3.328   5.971
 2495SOL     OW 9418   0.283   3.175   5.779
 2495SOL    HW1 9419   0.190   3.160   5.745
 2495SOL    HW2 9420   0.280   3.190   5.878
 2496SOL     OW 9421   0.216   2.901   7.339
 2496SOL    HW1 9422   0.205   2.994   7.375
 2496SOL    HW2 9423   0.299   2.861   7.378
 2497SOL     OW 9424   0.712   2.045   7.091
 2497SOL    HW1 9425   0.799   2.018   7.049
 2497SOL    HW2 9426   0.728   2.074   7.185
 2498SOL     OW 9427   0.084   2.180   5.543
 2498SOL    HW1 9428   9.997   2.139   5.515
 2498SOL    HW2 9429   0.116   2.242   5.471
 2499SOL     OW 9430   1.393   2.699   6.947
 2499SOL    HW1 9431   1.332   2.760   6.896
 2499SOL    HW2 9432   1.486   2.707   6.911
 2500SOL     OW 9433   0.007   1.968   5.836
 2500SOL    HW1 9434   9.997   2.066   5.855
 2500SOL    HW2 9435   0.099   1.951   5.801
 2501SOL     OW 9436   1.214   3.172   5.770
 2501SOL    HW1 9437   1.162   3.087   5.771
 2501SOL    HW2 9438   1.238   3.197   5.864
 2502SOL     OW 9439   0.644   2.682   7.029
 2502SOL    HW1 9440   0.695   2.765   7.003
 2502SOL    HW2 9441   0.703   2.602   7.018
 2503SOL     OW 9442   1.545   3.730   6.647
 2503SOL    HW1 9443   1.584   3.781   6.571
 2503SOL    HW2 9444   1.615   3.673   6.690
 2504SOL     OW 9445   0.719   2.392   7.286
 2504SOL    HW1 9446   0.789   2.453   7.322
 2504SOL    HW2 9447   0.738   2.298   7.315
 2505SOL     OW 9448   1.488   3.009   7.224
 2505SOL    HW1 9449   1.458   3.030   7.317
 2505SOL    HW2 9450   1.567   3.065   7.201
 2506SOL     OW 9451   0.370   3.654   7.158
 2506SOL    HW1 9452   0.288   3.698   7.123
 2506SOL    HW2 9453   0.350   3.558   7.181
 2507SOL     OW 9454   1.640   2.751   6.832
 2507SOL    HW1 9455   1.722   2.696   6.816
 2507SOL    HW2 9456   1.630   2.817   6.757
 2508SOL     OW 9457   1.219   2.172   6.020
 2508SOL    HW1 9458   1.282   2.094   6.017
 2508SOL    HW2 9459   1.242   2.230   6.098
 2509SOL     OW 9460   0.515   2.654   6.293
 2509SOL    HW1 9461   0.591   2.718   6.285
 2509SOL    HW2 9462   0.481   2.631   6.201
 2510SOL     OW 9463   1.810   2.228   7.223
 2510SOL    HW1 9464   1.760   2.276   7.152
 2510SOL    HW2 9465   1.747   2.174   7.278
 2511SOL     OW 9466   1.667   2.824   7.097
 2511SOL    HW1 9467   1.601   2.890   7.133
 2511SOL    HW2 9468   1.651   2.811   6.999
 2512SOL     OW 9469   0.743   3.224   5.674
 2512SOL    HW1 9470   0.779   3.205   5.765
 2512SOL    HW2 9471   0.800   3.293   5.629
 2513SOL     OW 9472   0.686   3.609   6.530
 2513SOL    HW1 9473   0.653   3.704   6.531
 2513SOL    HW2 9474   0.772   3.606   6.478
 2514SOL     OW 9475   0.908   2.839   6.454
 2514SOL    HW1 9476   0.943   2.747   6.469
 2514SOL    HW2 9477   0.863   2.872   6.538
 2515SOL     OW 9478   1.053   2.802   5.634
 2515SOL    HW1 9479   1.034   2.864   5.558
 2515SOL    HW2 9480   1.135   2.748   5.613
 2516SOL     OW 9481   1.809   3.465   6.431
 2516SOL    HW1 9482   1.735   3.449   6.365
 2516SOL    HW2 9483   1.803   3.397   6.504
 2517SOL     OW 9484   0.220   3.186   7.390
 2517SOL    HW1 9485   0.121   3.197   7.381
 2517SOL    HW2 9486   0.248   3.203   7.484
 2518SOL     OW 9487   0.159   3.013   6.305
 2518SOL    HW1 9488   0.113   2.929   6.335
 2518SOL    HW2 9489   0.236   2.990   6.246
 2519SOL     OW 9490   0.740   3.298   7.219
 2519SOL    HW1 9491   0.647   3.280   7.250
 2519SOL    HW2 9492   0.761   3.395   7.229
 2520SOL     OW 9493   1.850   1.976   6.864
 2520SOL    HW1 9494   1.925   1.910   6.873
 2520SOL    HW2 9495   1.847   2.011   6.770
 2521SOL     OW 9496   0.500   2.314   6.135
 2521SOL    HW1 9497   0.503   2.253   6.056
 2521SOL    HW2 9498   0.434   2.280   6.202
 2522SOL     OW 9499   1.755   3.308   6.649
 2522SOL    HW1 9500   1.671   3.274   6.607
 2522SOL    HW2 9501   1.789   3.239   6.713
 2523SOL     OW 9502   0.360   2.410   6.874
 2523SOL    HW1 9503   0.413   2.339   6.921
 2523SOL    HW2 9504   0.351   2.386   6.777
 2524SOL     OW 9505   0.811   3.426   6.225
 2524SOL    HW1 9506   0.762   3.464   6.146
 2524SOL    HW2 9507   0.752   3.359   6.271
 2525SOL     OW 9508   1.406   2.122   6.682
 2525SOL    HW1 9509   1.426   2.026   6.700
 2525SOL    HW2 9510   1.357   2.160   6.760
 2526SOL     OW 9511   1.016   1.836   6.699
 2526SOL    HW1 9512   0.958   1.754   6.705
 2526SOL    HW2 9513   1.110   1.810   6.677
 2527SOL     OW 9514   0.820   3.163   5.925
 2527SOL    HW1 9515   0.813   3.067   5.953
 2527SOL    HW2 9516   0.898   3.205   5.971
 2528SOL     OW 9517   0.564   3.458   6.916
 2528SOL    HW1 9518   0.603   3.533   6.970
 2528SOL    HW2 9519   0.638   3.406   6.874
 2529SOL     OW 9520   1.375   1.875   5.755
 2529SOL    HW1 9521   1.421   1.798   5.710
 2529SOL    HW2 9522   1.276   1.864   5.747
 2530SOL     OW 9523   1.273   2.331   6.238
 2530SOL    HW1 9524   1.237   2.424   6.232
 2530SOL    HW2 9525   1.257   2.295   6.330
 2531SOL     OW 9526   1.610   2.091   6.501
 2531SOL    HW1 9527   1.540   2.116   6.568
 2531SOL    HW2 9528   1.606   2.155   6.424
 2532SOL     OW 9529   0.084   2.896   5.914
 2532SOL    HW1 9530   0.180   2.867   5.914
 2532SOL    HW2 9531   0.046   2.885   6.005
 2533SOL     OW 9532   0.898   3.582   5.915
 2533SOL    HW1 9533   0.817   3.566   5.859
 2533SOL    HW2 9534   0.878   3.652   5.984
 2534SOL     OW 9535   0.301   2.406   7.555
 2534SOL    HW1 9536   0.240   2.458   7.615
 2534SOL    HW2 9537   0.264   2.407   7.461
 2535SOL     OW 9538   0.201   2.112   8.365
 2535SOL    HW1 9539   0.248   2.024   8.366
 2535SOL    HW2 9540   0.103   2.099   8.382
 2536SOL     OW 9541   0.042   2.268   8.000
 2536SOL    HW1 9542   9.946   2.255   8.021
 2536SOL    HW2 9543   0.078   2.186   7.955
 2537SOL     OW 9544   1.595   3.428   8.118
 2537SOL    HW1 9545   1.551   3.399   8.203
 2537SOL    HW2 9546   1.529   3.424   8.043
 2538SOL     OW 9547   1.148   2.598   8.129
 2538SOL    HW1 9548   1.200   2.683   8.118
 2538SOL    HW2 9549   1.100   2.599   8.217
 2539SOL     OW 9550   0.782   2.968   8.538
 2539SOL    HW1 9551   0.748   2.997   8.628
 2539SOL    HW2 9552   0.796   3.048   8.480
 2540SOL     OW 9553   0.880   2.601   9.297
 2540SOL    HW1 9554   0.890   2.643   9.387
 2540SOL    HW2 9555   0.902   2.668   9.226
 2541SOL     OW 9556   0.663   2.823   8.147
 2541SOL    HW1 9557   0.744   2.825   8.205
 2541SOL    HW2 9558   0.598   2.892   8.179
 2542SOL     OW 9559   0.524   3.061   9.312
 2542SOL    HW1 9560   0.590   3.102   9.249
 2542SOL    HW2 9561   0.432   3.067   9.272
 2543SOL     OW 9562   1.460   3.370   8.809
 2543SOL    HW1 9563   1.518   3.451   8.818
 2543SOL    HW2 9564   1.379   3.380   8.866
 2544SOL     OW 9565   1.575   2.314   8.172
 2544SOL    HW1 9566   1.512   2.321   8.094
 2544SOL    HW2 9567   1.554   2.386   8.238
 2545SOL     OW 9568   0.241   3.520   7.926
 2545SOL    HW1 9569   0.201   3.599   7.971
 2545SOL    HW2 9570   0.326   3.546   7.881
 2546SOL     OW 9571   1.143   3.274   9.161
 2546SOL    HW1 9572   1.140   3.313   9.253
 2546SOL    HW2 9573   1.133   3.174   9.167
 2547SOL     OW 9574   0.222   3.252   7.896
 2547SOL    HW1 9575   0.221   3.350   7.918
 2547SOL    HW2 9576   0.129   3.220   7.882
 2548SOL     OW 9577   0.599   3.618   8.919
 2548SOL    HW1 9578   0.508   3.637   8.956
 2548SOL    HW2 9579   0.636   3.702   8.878
 2549SOL     OW 9580   0.602   2.871   7.649
 2549SOL    HW1 9581   0.645   2.920   7.573
 2549SOL    HW2 9582   0.643   2.901   7.735
 2550SOL     OW 9583   1.645   1.988   8.922
 2550SOL    HW1 9584   1.697   2.060   8.877
 2550SOL    HW2 9585   1.598   2.026   9.002
 2551SOL     OW 9586   0.112   2.531   7.986
 2551SOL    HW1 9587   0.086   2.434   7.982
 2551SOL    HW2 9588   0.079   2.570   8.072
 2552SOL     OW 9589   1.873   3.615   7.760
 2552SOL    HW1 9590   1.954   3.609   7.819
 2552SOL    HW2 9591   1.862   3.710   7.730
 2553SOL     OW 9592   1.716   2.792   8.113
 2553SOL    HW1 9593   1.775   2.716   8.088
 2553SOL    HW2 9594   1.702   2.851   8.034
 2554SOL     OW 9595   1.674   2.981   7.911
 2554SOL    HW1 9596   1.749   2.983   7.845
 2554SOL    HW2 9597   1.688   3.052   7.980
 2555SOL     OW 9598   0.224   2.569   9.025
 2555SOL    HW1 9599   0.323   2.560   9.040
 2555SOL    HW2 9600   0.197   2.664   9.040
 2556SOL     OW 9601   0.637   3.233   8.183
 2556SOL    HW1 9602   0.587   3.146   8.190
 2556SOL    HW2 9603   0.622   3.273   8.093
 2557SOL     OW 9604   1.254   3.053   8.878
 2557SOL    HW1 9605   1.274   2.992   8.801
 2557SOL    HW2 9606   1.333   3.055   8.940
 2558SOL     OW 9607   0.817   1.980   8.004
 2558SOL    HW1 9608   0.857   2.046   7.941
 2558SOL    HW2 9609   0.728   1.951   7.971
 2559SOL     OW 9610   0.235   2.717   8.618
 2559SOL    HW1 9611   0.322   2.691   8.660
 2559SOL    HW2 9612   0.239   2.701   8.519
 2560SOL     OW 9613   1.185   3.670   9.073
 2560SOL    HW1 9614   1.188   3.748   9.010
 2560SOL    HW2 9615   1.208   3.586   9.022
 2561SOL     OW 9616   0.314   2.106   9.356
 2561SOL    HW1 9617   0.353   2.185   9.404
 2561SOL    HW2 9618   0.217   2.123   9.339
 2562SOL     OW 9619   1.462   3.324   8.335
 2562SOL    HW1 9620   1.413   3.337   8.421
 2562SOL    HW2 9621   1.462   3.227   8.311
 2563SOL     OW 9622   1.627   3.691   7.987
 2563SOL    HW1 9623   1.623   3.641   7.900
 2563SOL    HW2 9624   1.629   3.626   8.063
 2564SOL     OW 9625   0.607   2.614   7.756
 2564SOL    HW1 9626   0.614   2.703   7.713
 2564SOL    HW2 9627   0.531   2.613   7.821
 2565SOL     OW 9628   1.302   2.277   8.380
 2565SOL    HW1 9629   1.212   2.235   8.364
 2565SOL    HW2 9630   1.350   2.226   8.451
 2566SOL     OW 9631   1.608   3.544   7.759
 2566SOL    HW1 9632   1.707   3.553   7.754
 2566SOL    HW2 9633   1.572   3.526   7.667
 2567SOL     OW 9634   0.808   2.455   8.908
 2567SOL    HW1 9635   0.769   2.419   8.993
 2567SOL    HW2 9636   0.792   2.389   8.834
 2568SOL     OW 9637   1.374   2.355   9.125
 2568SOL    HW1 9638   1.385   2.403   9.212
 2568SOL    HW2 9639   1.443   2.283   9.118
 2569SOL     OW 9640   0.952   2.788   9.095
 2569SOL    HW1 9641   1.016   2.723   9.053
 2569SOL    HW2 9642   0.893   2.827   9.025
 2570SOL     OW 9643   1.032   2.187   8.636
 2570SOL    HW1 9644   0.945   2.230   8.661
 2570SOL    HW2 9645   1.029   2.161   8.539
 2571SOL     OW 9646   1.090   2.596   7.863
 2571SOL    HW1 9647   1.113   2.592   7.961
 2571SOL    HW2 9648   0.997   2.560   7.850
 2572SOL     OW 9649   0.023   2.590   8.242
 2572SOL    HW1 9650   0.107   2.602   8.294
 2572SOL    HW2 9651   9.947   2.632   8.291
 2573SOL     OW 9652   0.095   3.694   9.036
 2573SOL    HW1 9653   0.101   3.711   9.135
 2573SOL    HW2 9654   0.057   3.603   9.021
 2574SOL     OW 9655   0.835   2.300   7.632
 2574SOL    HW1 9656   0.895   2.301   7.552
 2574SOL    HW2 9657   0.741   2.319   7.604
 2575SOL     OW 9658   1.690   2.451   9.265
 2575SOL    HW1 9659   1.670   2.534   9.212
 2575SOL    HW2 9660   1.719   2.378   9.202
 2576SOL     OW 9661   1.402   3.025   7.970
 2576SOL    HW1 9662   1.490   3.010   7.926
 2576SOL    HW2 9663   1.351   3.095   7.920
 2577SOL     OW 9664   0.553   2.076   8.404
 2577SOL    HW1 9665   0.575   2.084   8.501
 2577SOL    HW2 9666   0.556   2.166   8.361
 2578SOL     OW 9667   1.003   3.328   7.940
 2578SOL    HW1 9668   0.982   3.409   7.886
 2578SOL    HW2 9669   0.976   3.344   8.035
 2579SOL     OW 9670   0.300   3.570   8.374
 2579SOL    HW1 9671   0.346   3.482   8.361
 2579SOL    HW2 9672   0.369   3.641   8.390
 2580SOL     OW 9673   1.817   2.895   8.347
 2580SOL    HW1 9674   1.776   2.864   8.261
 2580SOL    HW2 9675   1.744   2.916   8.413
 2581SOL     OW 9676   1.227   3.425   8.945
 2581SOL    HW1 9677   1.207   3.360   9.018
 2581SOL    HW2 9678   1.145   3.440   8.890
 2582SOL     OW 9679   0.352   2.833   7.785
 2582SOL    HW1 9680   0.433   2.845   7.728
 2582SOL    HW2 9681   0.356   2.743   7.829
 2583SOL     OW 9682   1.492   2.641   8.140
 2583SOL    HW1 9683   1.486   2.593   8.228
 2583SOL    HW2 9684   1.575   2.697   8.139
 2584SOL     OW 9685   0.444   3.157   9.012
 2584SOL    HW1 9686   0.409   3.136   8.920
 2584SOL    HW2 9687   0.369   3.156   9.077
 2585SOL     OW 9688   1.167   3.617   7.706
 2585SOL    HW1 9689   1.077   3.601   7.748
 2585SOL    HW2 9690   1.188   3.543   7.643
 2586SOL     OW 9691   1.631   3.245   7.537
 2586SOL    HW1 9692   1.590   3.336   7.525
 2586SOL    HW2 9693   1.564   3.175   7.517
 2587SOL     OW 9694   0.484   3.587   7.808
 2587SOL    HW1 9695   0.512   3.650   7.880
 2587SOL    HW2 9696   0.564   3.562   7.753
 2588SOL     OW 9697   1.392   2.005   7.876
 2588SOL    HW1 9698   1.403   1.954   7.791
 2588SOL    HW2 9699   1.462   2.076   7.882
 2589SOL     OW 9700   0.083   3.523   8.688
 2589SOL    HW1 9701   0.165   3.469   8.708
 2589SOL    HW2 9702   0.071   3.530   8.589
 2590SOL     OW 9703   0.982   3.564   8.322
 2590SOL    HW1 9704   1.070   3.516   8.319
 2590SOL    HW2 9705   0.916   3.516   8.264
 2591SOL     OW 9706   0.375   2.582   7.918
 2591SOL    HW1 9707   0.407   2.488   7.910
 2591SOL    HW2 9708   0.278   2.582   7.943
 2592SOL     OW 9709   1.518   2.113   9.137
 2592SOL    HW1 9710   1.519   2.111   9.237
 2592SOL    HW2 9711   1.433   2.073   9.104
 2593SOL     OW 9712   0.634   1.953   7.543
 2593SOL    HW1 9713   0.676   1.869   7.578
 2593SOL    HW2 9714   0.579   1.931   7.463
 2594SOL     OW 9715   0.783   2.133   9.198
 2594SOL    HW1 9716   0.869   2.081   9.199
 2594SOL    HW2 9717   0.723   2.100   9.271
 2595SOL     OW 9718   0.894   3.340   8.623
 2595SOL    HW1 9719   0.851   3.298   8.543
 2595SOL    HW2 9720   0.939   3.270   8.678
 2596SOL     OW 9721   1.276   2.452   8.888
 2596SOL    HW1 9722   1.316   2.426   8.976
 2596SOL    HW2 9723   1.319   2.535   8.855
 2597SOL     OW 9724   0.815   3.197   8.395
 2597SOL    HW1 9725   0.907   3.210   8.359
 2597SOL    HW2 9726   0.748   3.206   8.321
 2598SOL     OW 9727   0.963   2.355   8.314
 2598SOL    HW1 9728   0.934   2.359   8.219
 2598SOL    HW2 9729   0.998   2.264   8.335
 2599SOL     OW 9730   0.563   1.934   7.905
 2599SOL    HW1 9731   0.498   1.954   7.978
 2599SOL    HW2 9732   0.567   2.013   7.843
 2600SOL     OW 9733   1.426   3.059   7.491
 2600SOL    HW1 9734   1.456   2.977   7.540
 2600SOL    HW2 9735   1.339   3.091   7.529
 2601SOL     OW 9736   0.296   1.880   7.601
 2601SOL    HW1 9737   0.315   1.977   7.613
 2601SOL    HW2 9738   0.359   1.826   7.657
 2602SOL     OW 9739   0.936   2.165   7.851
 2602SOL    HW1 9740   0.900   2.205   7.766
 2602SOL    HW2 9741   1.035   2.175   7.853
 2603SOL     OW 9742   1.040   2.595   8.904
 2603SOL    HW1 9743   0.959   2.536   8.912
 2603SOL    HW2 9744   1.121   2.537   8.900
 2604SOL     OW 9745   1.221   3.441   8.228
 2604SOL    HW1 9746   1.234   3.511   8.159
 2604SOL    HW2 9747   1.311   3.411   8.261
 2605SOL     OW 9748   0.475   3.017   8.213
 2605SOL    HW1 9749   0.406   3.054   8.274
 2605SOL    HW2 9750   0.440   3.015   8.119
 2606SOL     OW 9751   1.249   3.653   8.047
 2606SOL    HW1 9752   1.301   3.720   7.993
 2606SOL    HW2 9753   1.169   3.698   8.087
 2607SOL     OW 9754   1.033   2.364   7.445
 2607SOL    HW1 9755   0.998   2.450   7.408
 2607SOL    HW2 9756   1.082   2.383   7.531
 2608SOL     OW 9757   9.994   2.531   8.868
 2608SOL    HW1 9758   9.937   2.453   8.896
 2608SOL    HW2 9759   0.077   2.533   8.924
 2609SOL     OW 9760   0.630   2.070   8.673
 2609SOL    HW1 9761   0.663   1.978   8.652
 2609SOL    HW2 9762   0.631   2.084   8.772
 2610SOL     OW 9763   0.890   2.350   8.056
 2610SOL    HW1 9764   0.862   2.423   7.993
 2610SOL    HW2 9765   0.904   2.265   8.005
 2611SOL     OW 9766   1.020   1.924   8.168
 2611SOL    HW1 9767   0.952   1.955   8.103
 2611SOL    HW2 9768   0.993   1.835   8.206
 2612SOL     OW 9769   1.502   3.064   8.263
 2612SOL    HW1 9770   1.435   3.020   8.203
 2612SOL    HW2 9771   1.583   3.090   8.209
 2613SOL     OW 9772   1.471   2.493   8.370
 2613SOL    HW1 9773   1.403   2.420   8.381
 2613SOL    HW2 9774   1.536   2.490   8.446
 2614SOL     OW 9775   1.893   2.713   7.847
 2614SOL    HW1 9776   1.896   2.659   7.931
 2614SOL    HW2 9777   1.897   2.652   7.767
 2615SOL     OW 9778   0.544   3.313   7.542
 2615SOL    HW1 9779   0.468   3.274   7.593
 2615SOL    HW2 9780   0.540   3.280   7.447
 2616SOL     OW 9781   1.710   3.159   8.112
 2616SOL    HW1 9782   1.807   3.132   8.111
 2616SOL    HW2 9783   1.704   3.258   8.102
 2617SOL     OW 9784   1.366   2.386   7.500
 2617SOL    HW1 9785   1.293   2.395   7.567
 2617SOL    HW2 9786   1.422   2.306   7.522
 2618SOL     OW 9787   0.560   2.138   7.730
 2618SOL    HW1 9788   0.589   2.073   7.660
 2618SOL    HW2 9789   0.564   2.231   7.693
 2619SOL     OW 9790   1.750   3.086   8.958
 2619SOL    HW1 9791   1.840   3.042   8.960
 2619SOL    HW2 9792   1.758   3.180   8.992
 2620SOL     OW 9793   1.021   3.152   8.777
 2620SOL    HW1 9794   0.943   3.151   8.839
 2620SOL    HW2 9795   1.103   3.122   8.825
 2621SOL     OW 9796   1.663   3.528   9.084
 2621SOL    HW1 9797   1.634   3.553   8.992
 2621SOL    HW2 9798   1.729   3.453   9.078
 2622SOL     OW 9799   1.170   3.138   8.548
 2622SOL    HW1 9800   1.105   3.142   8.624
 2622SOL    HW2 9801   1.124   3.164   8.463
 2623SOL     OW 9802   1.606   2.963   8.508
 2623SOL    HW1 9803   1.601   3.033   8.579
 2623SOL    HW2 9804   1.551   2.993   8.429
 2624SOL     OW 9805   1.045   3.019   9.238
 2624SOL    HW1 9806   0.969   3.079   9.265
 2624SOL    HW2 9807   1.010   2.942   9.185
 2625SOL     OW 9808   0.734   2.925   7.884
 2625SOL    HW1 9809   0.711   2.884   7.972
 2625SOL    HW2 9810   0.817   2.882   7.848
 2626SOL     OW 9811   0.479   2.632   8.706
 2626SOL    HW1 9812   0.536   2.650   8.786
 2626SOL    HW2 9813   0.448   2.537   8.708
 2627SOL     OW 9814   1.261   2.198   8.779
 2627SOL    HW1 9815   1.270   2.291   8.815
 2627SOL    HW2 9816   1.175   2.190   8.729
 2628SOL     OW 9817   9.882   3.424   8.834
 2628SOL    HW1 9818   9.951   3.465   8.774
 2628SOL    HW2 9819   9.918   3.419   8.927
 2629SOL     OW 9820   0.372   3.036   7.970
 2629SOL    HW1 9821   0.319   3.117   7.945
 2629SOL    HW2 9822   0.359   2.965   7.901
 2630SOL     OW 9823   0.546   2.352   8.321
 2630SOL    HW1 9824   0.526   2.421   8.251
 2630SOL    HW2 9825   0.623   2.383   8.377
 2631SOL     OW 9826   1.250   3.231   7.854
 2631SOL    HW1 9827   1.312   3.306   7.876
 2631SOL    HW2 9828   1.159   3.252   7.891
 2632SOL     OW 9829   1.337   3.351   8.569
 2632SOL    HW1 9830   1.380   3.357   8.659
 2632SOL    HW2 9831   1.274   3.273   8.567
 2633SOL     OW 9832   1.484   2.490   7.904
 2633SOL    HW1 9833   1.488   2.541   7.990
 2633SOL    HW2 9834   1.438   2.545   7.834
 2634SOL     OW 9835   0.298   3.365   8.745
 2634SOL    HW1 9836   0.293   3.266   8.756
 2634SOL    HW2 9837   0.393   3.394   8.743
 2635SOL     OW 9838   0.496   2.573   9.097
 2635SOL    HW1 9839   0.546   2.624   9.027
 2635SOL    HW2 9840   0.554   2.501   9.134
 2636SOL     OW 9841   1.638   2.679   9.129
 2636SOL    HW1 9842   1.541   2.700   9.125
 2636SOL    HW2 9843   1.684   2.715   9.047
 2637SOL     OW 9844   1.019   1.975   9.235
 2637SOL    HW1 9845   1.070   2.060   9.226
 2637SOL    HW2 9846   1.071   1.900   9.193
 2638SOL     OW 9847   0.506   1.942   9.246
 2638SOL    HW1 9848   0.461   1.869   9.194
 2638SOL    HW2 9849   0.437   2.008   9.276
 2639SOL     OW 9850   0.712   2.698   8.569
 2639SOL    HW1 9851   0.723   2.796   8.551
 2639SOL    HW2 9852   0.621   2.680   8.606
 2640SOL     OW 9853   1.299   2.704   8.456
 2640SOL    HW1 9854   1.208   2.674   8.427
 2640SOL    HW2 9855   1.367   2.637   8.426
 2641SOL     OW 9856   1.168   2.398   7.685
 2641SOL    HW1 9857   1.185   2.320   7.745
 2641SOL    HW2 9858   1.143   2.477   7.740
 2642SOL     OW 9859   0.752   2.444   8.468
 2642SOL    HW1 9860   0.831   2.427   8.410
 2642SOL    HW2 9861   0.748   2.541   8.491
 2643SOL     OW 9862   1.787   2.824   9.312
 2643SOL    HW1 9863   1.738   2.765   9.247
 2643SOL    HW2 9864   1.729   2.841   9.391
 2644SOL     OW 9865   0.374   2.002   8.084
 2644SOL    HW1 9866   0.353   2.097   8.108
 2644SOL    HW2 9867   0.369   1.945   8.166
 2645SOL     OW 9868   1.557   2.233   7.835
 2645SOL    HW1 9869   1.657   2.232   7.831
 2645SOL    HW2 9870   1.526   2.325   7.859
 2646SOL     OW 9871   1.044   2.605   8.388
 2646SOL    HW1 9872   1.026   2.623   8.484
 2646SOL    HW2 9873   1.021   2.509   8.367
 2647SOL     OW 9874   0.929   3.426   9.079
 2647SOL    HW1 9875   0.946   3.456   8.985
 2647SOL    HW2 9876   1.005   3.369   9.110
 2648SOL     OW 9877   1.850   3.339   9.018
 2648SOL    HW1 9878   1.873   3.360   8.923
 2648SOL    HW2 9879   1.931   3.354   9.075
 2649SOL     OW 9880   0.379   2.764   9.259
 2649SOL    HW1 9881   0.438   2.789   9.336
 2649SOL    HW2 9882   0.424   2.693   9.204
 2650SOL     OW 9883   1.492   2.154   7.582
 2650SOL    HW1 9884   1.456   2.061   7.590
 2650SOL    HW2 9885   1.519   2.187   7.672
 2651SOL     OW 9886   1.278   2.645   7.456
 2651SOL    HW1 9887   1.316   2.552   7.461
 2651SOL    HW2 9888   1.310   2.689   7.372
 2652SOL     OW 9889   1.067   3.224   8.306
 2652SOL    HW1 9890   1.081   3.140   8.254
 2652SOL    HW2 9891   1.123   3.297   8.267
 2653SOL     OW 9892   0.269   2.594   8.370
 2653SOL    HW1 9893   0.343   2.611   8.305
 2653SOL    HW2 9894   0.278   2.502   8.408
 2654SOL     OW 9895   0.321   2.337   8.463
 2654SOL    HW1 9896   0.266   2.256   8.439
 2654SOL    HW2 9897   0.405   2.338   8.409
 2655SOL     OW 9898   1.145   2.215   9.182
 2655SOL    HW1 9899   1.085   2.266   9.243
 2655SOL    HW2 9900   1.225   2.270   9.158
 2656SOL     OW 9901   1.278   2.045   9.013
 2656SOL    HW1 9902   1.218   2.101   9.070
 2656SOL    HW2 9903   1.282   2.082   8.921
 2657SOL     OW 9904   0.035   3.559   8.418
 2657SOL    HW1 9905   9.995   3.651   8.412
 2657SOL    HW2 9906   0.132   3.563   8.393
 2658SOL     OW 9907   0.472   3.353   8.364
 2658SOL    HW1 9908   0.529   3.410   8.423
 2658SOL    HW2 9909   0.527   3.315   8.291
 2659SOL     OW 9910   0.975   2.656   8.640
 2659SOL    HW1 9911   1.003   2.640   8.735
 2659SOL    HW2 9912   0.876   2.668   8.636
 2660SOL     OW 9913   0.024   2.502   8.594
 2660SOL    HW1 9914   0.096   2.567   8.575
 2660SOL    HW2 9915   0.004   2.501   8.693
 2661SOL     OW 9916   0.171   2.328   9.132
 2661SOL    HW1 9917   0.209   2.259   9.071
 2661SOL    HW2 9918   0.182   2.419   9.091
 2662SOL     OW 9919   1.391   2.773   9.061
 2662SOL    HW1 9920   1.416   2.869   9.057
 2662SOL    HW2 9921   1.376   2.739   8.968
 2663SOL     OW 9922   0.844   2.496   7.824
 2663SOL    HW1 9923   0.847   2.420   7.759
 2663SOL    HW2 9924   0.761   2.550   7.808
 2664SOL     OW 9925   1.649   2.478   8.574
 2664SOL    HW1 9926   1.629   2.413   8.647
 2664SOL    HW2 9927   1.746   2.475   8.552
 2665SOL     OW 9928   0.274   3.425   9.171
 2665SOL    HW1 9929   0.223   3.473   9.243
 2665SOL    HW2 9930   0.291   3.331   9.200
 2666SOL     OW 9931   0.783   2.292   8.689
 2666SOL    HW1 9932   0.721   2.214   8.678
 2666SOL    HW2 9933   0.770   2.356   8.613
 2667SOL     OW 9934   0.988   3.501   8.823
 2667SOL    HW1 9935   0.950   3.449   8.747
 2667SOL    HW2 9936   0.973   3.599   8.807
 2668SOL     OW 9937   0.567   2.384   7.613
 2668SOL    HW1 9938   0.592   2.467   7.664
 2668SOL    HW2 9939   0.472   2.392   7.582
 2669SOL     OW 9940   0.138   2.897   8.807
 2669SOL    HW1 9941   0.164   2.861   8.897
 2669SOL    HW2 9942   0.164   2.831   8.736
 2670SOL     OW 9943   1.275   2.901   8.642
 2670SOL    HW1 9944   1.288   2.831   8.571
 2670SOL    HW2 9945   1.243   2.986   8.600
 2671SOL     OW 9946   1.325   2.674   7.727
 2671SOL    HW1 9947   1.244   2.664   7.784
 2671SOL    HW2 9948   1.300   2.664   7.631
 2672SOL     OW 9949   1.764   3.559   8.587
 2672SOL    HW1 9950   1.842   3.598   8.537
 2672SOL    HW2 9951   1.741   3.470   8.547
 2673SOL     OW 9952   1.296   3.625   8.540
 2673SOL    HW1 9953   1.388   3.660   8.524
 2673SOL    HW2 9954   1.299   3.526   8.551
 2674SOL     OW 9955   0.687   3.506   9.155
 2674SOL    HW1 9956   0.650   3.551   9.074
 2674SOL    HW2 9957   0.784   3.487   9.141
 2675SOL     OW 9958   1.823   1.967   8.029
 2675SOL    HW1 9959   1.861   1.961   7.937
 2675SOL    HW2 9960   1.755   1.894   8.041
 2676SOL     OW 9961   1.403   3.449   7.921
 2676SOL    HW1 9962   1.468   3.484   7.853
 2676SOL    HW2 9963   1.340   3.521   7.949
 2677SOL     OW 9964   0.103   3.560   9.336
 2677SOL    HW1 9965   0.056   3.490   9.390
 2677SOL    HW2 9966   0.153   3.621   9.397
 2678SOL     OW 9967   1.294   2.822   8.103
 2678SOL    HW1 9968   1.369   2.758   8.119
 2678SOL    HW2 9969   1.326   2.896   8.045
 2679SOL     OW 9970   0.784   3.140   8.910
 2679SOL    HW1 9971   0.756   3.181   8.997
 2679SOL    HW2 9972   0.713   3.156   8.841
 2680SOL     OW 9973   0.692   3.514   7.648
 2680SOL    HW1 9974   0.711   3.578   7.573
 2680SOL    HW2 9975   0.647   3.433   7.611
 2681SOL     OW 9976   1.620   3.593   8.820
 2681SOL    HW1 9977   1.674   3.580   8.737
 2681SOL    HW2 9978   1.603   3.690   8.834
 2682SOL     OW 9979   1.848   2.017   8.402
 2682SOL    HW1 9980   1.867   1.926   8.364
 2682SOL    HW2 9981   1.758   2.047   8.371
 2683SOL     OW 9982   0.278   2.247   8.139
 2683SOL    HW1 9983   0.194   2.274   8.091
 2683SOL    HW2 9984   0.255   2.213   8.230
 2684SOL     OW 9985   1.230   3.424   7.523
 2684SOL    HW1 9986   1.232   3.329   7.556
 2684SOL    HW2 9987   1.145   3.440   7.472
 2685SOL     OW 9988   0.833   2.881   8.861
 2685SOL    HW1 9989   0.909   2.877   8.796
 2685SOL    HW2 9990   0.813   2.977   8.882
 2686SOL     OW 9991   0.948   2.815   7.764
 2686SOL    HW1 9992   0.972   2.812   7.667
 2686SOL    HW2 9993   1.005   2.749   7.814
 2687SOL     OW 9994   1.495   3.506   7.512
 2687SOL    HW1 9995   1.400   3.477   7.504
 2687SOL    HW2 9996   1.537   3.507   7.421
 2688SOL     OW 9997   1.619   3.168   8.703
 2688SOL    HW1 9998   1.678   3.130   8.775
 2688SOL    HW2 9999   1.554   3.232   8.743
 2689SOL     OW10000   1.086   2.982   8.194
 2689SOL    HW110001   1.010   2.925   8.228
 2689SOL    HW210002   1.159   2.923   8.161
 2690SOL     OW10003   1.084   2.100   8.369
 2690SOL    HW110004   1.054   2.050   8.288
 2690SOL    HW210005   1.141   2.041   8.426
 2691SOL     OW10006   0.617   3.358   7.945
 2691SOL    HW110007   0.670   3.301   7.883
 2691SOL    HW210008   0.547   3.407   7.894
 2692SOL     OW10009   1.810   2.208   8.837
 2692SOL    HW110010   1.875   2.283   8.826
 2692SOL    HW210011   1.833   2.134   8.774
 2693SOL     OW10012   0.315   3.199   7.645
 2693SOL    HW110013   0.269   3.111   7.641
 2693SOL    HW210014   0.297   3.242   7.734
 2694SOL     OW10015   0.195   2.837   9.067
 2694SOL    HW110016   0.137   2.915   9.089
 2694SOL    HW210017   0.265   2.826   9.138
 2695SOL     OW10018   0.706   2.120   8.932
 2695SOL    HW110019   0.790   2.155   8.889
 2695SOL    HW210020   0.717   2.119   9.031
 2696SOL     OW10021   0.087   2.167   7.431
 2696SOL    HW110022   9.988   2.151   7.427
 2696SOL    HW210023   0.109   2.252   7.384
 2697SOL     OW10024   1.376   2.694   8.802
 2697SOL    HW110025   1.315   2.757   8.754
 2697SOL    HW210026   1.468   2.701   8.762
 2698SOL     OW10027   0.039   1.917   7.687
 2698SOL    HW110028   0.054   1.959   7.776
 2698SOL    HW210029   0.127   1.891   7.647
 2699SOL     OW10030   1.186   3.160   7.596
 2699SOL    HW110031   1.088   3.146   7.590
 2699SOL    HW210032   1.213   3.172   7.692
 2700SOL     OW10033   0.657   2.679   8.905
 2700SOL    HW110034   0.712   2.761   8.890
 2700SOL    HW210035   0.717   2.599   8.903
 2701SOL     OW10036   1.547   3.721   8.499
 2701SOL    HW110037   1.577   3.775   8.420
 2701SOL    HW210038   1.624   3.667   8.534
 2702SOL     OW10039   0.717   2.406   9.164
 2702SOL    HW110040   0.772   2.470   9.219
 2702SOL    HW210041   0.742   2.312   9.187
 2703SOL     OW10042   1.484   3.030   9.049
 2703SOL    HW110043   1.480   3.040   9.148
 2703SOL    HW210044   1.575   3.056   9.016
 2704SOL     OW10045   0.367   3.653   9.050
 2704SOL    HW110046   0.278   3.685   9.017
 2704SOL    HW210047   0.357   3.564   9.093
 2705SOL     OW10048   1.615   2.737   8.673
 2705SOL    HW110049   1.632   2.651   8.625
 2705SOL    HW210050   1.608   2.811   8.606
 2706SOL     OW10051   1.205   2.208   7.879
 2706SOL    HW110052   1.264   2.128   7.874
 2706SOL    HW210053   1.226   2.260   7.962
 2707SOL     OW10054   0.481   2.604   8.180
 2707SOL    HW110055   0.552   2.675   8.178
 2707SOL    HW210056   0.441   2.594   8.089
 2708SOL     OW10057   1.760   2.242   9.102
 2708SOL    HW110058   1.778   2.234   9.004
 2708SOL    HW210059   1.678   2.190   9.125
 2709SOL     OW10060   1.735   2.801   8.908
 2709SOL    HW110061   1.723   2.899   8.924
 2709SOL    HW210062   1.694   2.776   8.821
 2710SOL     OW10063   0.902   3.189   7.570
 2710SOL    HW110064   0.856   3.198   7.659
 2710SOL    HW210065   0.913   3.279   7.529
 2711SOL     OW10066   0.648   3.524   8.489
 2711SOL    HW110067   0.607   3.609   8.456
 2711SOL    HW210068   0.747   3.528   8.477
 2712SOL     OW10069   0.887   2.829   8.316
 2712SOL    HW110070   0.940   2.747   8.339
 2712SOL    HW210071   0.857   2.873   8.401
 2713SOL     OW10072   1.041   2.776   7.507
 2713SOL    HW110073   1.026   2.852   7.444
 2713SOL    HW210074   1.130   2.735   7.489
 2714SOL     OW10075   0.268   3.149   9.229
 2714SOL    HW110076   0.184   3.119   9.183
 2714SOL    HW210077   0.250   3.161   9.326
 2715SOL     OW10078   0.662   3.235   9.146
 2715SOL    HW110079   0.583   3.209   9.090
 2715SOL    HW210080   0.669   3.334   9.150
 2716SOL     OW10081   1.860   2.002   8.674
 2716SOL    HW110082   1.925   1.927   8.686
 2716SOL    HW210083   1.844   2.018   8.577
 2717SOL     OW10084   0.440   2.323   7.922
 2717SOL    HW110085   0.485   2.247   7.876
 2717SOL    HW210086   0.396   2.290   8.006
 2718SOL     OW10087   1.701   3.312   8.481
 2718SOL    HW110088   1.619   3.316   8.423
 2718SOL    HW210089   1.684   3.253   8.559
 2719SOL     OW10090   0.824   3.435   8.144
 2719SOL    HW110091   0.783   3.478   8.064
 2719SOL    HW210092   0.767   3.359   8.175
 2720SOL     OW10093   1.418   2.116   8.566
 2720SOL    HW110094   1.448   2.021   8.573
 2720SOL    HW210095   1.373   2.143   8.651
 2721SOL     OW10096   0.794   3.188   7.821
 2721SOL    HW110097   0.770   3.094   7.847
 2721SOL    HW210098   0.875   3.218   7.871
 2722SOL     OW10099   0.574   3.423   8.732
 2722SOL    HW110100   0.589   3.489   8.805
 2722SOL    HW210101   0.604   3.463   8.645
 2723SOL     OW10102   1.413   1.899   7.618
 2723SOL    HW110103   1.463   1.821   7.581
 2723SOL    HW210104   1.316   1.875   7.626
 2724SOL     OW10105   1.266   2.346   8.109
 2724SOL    HW110106   1.223   2.436   8.109
 2724SOL    HW210107   1.286   2.318   8.203
 2725SOL     OW10108   1.595   2.097   8.349
 2725SOL    HW110109   1.534   2.120   8.425
 2725SOL    HW210110   1.583   2.163   8.275
 2726SOL     OW10111   0.157   2.984   7.665
 2726SOL    HW110112   0.213   2.917   7.714
 2726SOL    HW210113   0.087   3.019   7.727
 2727SOL     OW10114   0.913   3.554   7.812
 2727SOL    HW110115   0.838   3.532   7.751
 2727SOL    HW210116   0.890   3.634   7.867
 2728SOL     OW10117   0.224   2.440   9.375
 2728SOL    HW110118   0.187   2.533   9.377
 2728SOL    HW210119   0.207   2.399   9.286
 2729SOL     OW10120   1.811   2.459   9.501
 2729SOL    HW110121   1.771   2.465   9.410
 2729SOL    HW210122   1.747   2.412   9.562
 2730SOL     OW10123   0.236   3.510   9.780
 2730SOL    HW110124   0.182   3.587   9.815
 2730SOL    HW210125   0.311   3.543   9.724
 2731SOL     OW10126   0.214   3.242   9.757
 2731SOL    HW110127   0.224   3.341   9.772
 2731SOL    HW210128   0.148   3.206   9.822
 2732SOL     OW10129   0.530   2.848   9.480
 2732SOL    HW110130   0.529   2.928   9.421
 2732SOL    HW210131   0.606   2.855   9.545
 2733SOL     OW10132   0.091   2.574   9.958
 2733SOL    HW110133   0.069   2.545   9.865
 2733SOL    HW210134   0.006   2.583   0.011
 2734SOL     OW10135   1.781   3.603   9.716
 2734SOL    HW110136   1.794   3.562   9.806
 2734SOL    HW210137   1.786   3.703   9.724
 2735SOL     OW10138   9.954   3.371   9.457
 2735SOL    HW110139   9.953   3.272   9.443
 2735SOL    HW210140   9.914   3.393   9.546
 2736SOL     OW10141   1.603   2.729   9.892
 2736SOL    HW110142   1.686   2.713   9.945
 2736SOL    HW210143   1.616   2.809   9.833
 2737SOL     OW10144   1.688   2.954   9.750
 2737SOL    HW110145   1.782   2.957   9.717
 2737SOL    HW210146   1.673   3.029   9.815
 2738SOL     OW10147   0.604   3.207   9.972
 2738SOL    HW110148   0.561   3.123   0.004
 2738SOL    HW210149   0.598   3.211   9.872
 2739SOL     OW10150   0.829   1.922   9.885
 2739SOL    HW110151   0.882   1.984   9.827
 2739SOL    HW210152   0.733   1.922   9.854
 2740SOL     OW10153   1.584   2.867   9.511
 2740SOL    HW110154   1.502   2.817   9.536
 2740SOL    HW210155   1.628   2.904   9.593
 2741SOL     OW10156   0.582   2.582   9.604
 2741SOL    HW110157   0.575   2.654   9.535
 2741SOL    HW210158   0.584   2.623   9.695
 2742SOL     OW10159   1.550   3.523   9.592
 2742SOL    HW110160   1.640   3.549   9.627
 2742SOL    HW210161   1.559   3.494   9.496
 2743SOL     OW10162   1.031   2.538   9.733
 2743SOL    HW110163   1.077   2.510   9.817
 2743SOL    HW210164   0.941   2.494   9.728
 2744SOL     OW10165   0.017   2.840   0.078
 2744SOL    HW110166   0.091   2.779   0.050
 2744SOL    HW210167   0.026   2.861   0.175
 2745SOL     OW10168   0.849   2.222   9.527
 2745SOL    HW110169   0.905   2.265   9.456
 2745SOL    HW210170   0.788   2.155   9.484
 2746SOL     OW10171   1.307   2.954   9.843
 2746SOL    HW110172   1.378   2.957   9.914
 2746SOL    HW210173   1.283   3.047   9.816
 2747SOL     OW10174   1.042   3.348   9.917
 2747SOL    HW110175   1.022   3.419   9.851
 2747SOL    HW210176   0.962   3.331   9.974
 2748SOL     OW10177   0.356   3.610   0.162
 2748SOL    HW110178   0.381   3.517   0.136
 2748SOL    HW210179   0.403   3.634   0.248
 2749SOL     OW10180   0.313   2.810   9.655
 2749SOL    HW110181   0.387   2.819   9.589
 2749SOL    HW210182   0.323   2.724   9.704
 2750SOL     OW10183   1.652   3.236   9.372
 2750SOL    HW110184   1.610   3.324   9.352
 2750SOL    HW210185   1.588   3.162   9.352
 2751SOL     OW10186   0.439   3.621   9.626
 2751SOL    HW110187   0.505   3.659   9.690
 2751SOL    HW210188   0.487   3.584   9.546
 2752SOL     OW10189   1.419   2.043   9.754
 2752SOL    HW110190   1.415   1.996   9.666
 2752SOL    HW210191   1.513   2.072   9.772
 2753SOL     OW10192   0.347   2.592   9.834
 2753SOL    HW110193   0.378   2.497   9.824
 2753SOL    HW210194   0.257   2.593   9.877
 2754SOL     OW10195   0.679   2.022   9.438
 2754SOL    HW110196   0.755   1.959   9.448
 2754SOL    HW210197   0.610   1.981   9.378
 2755SOL     OW10198   0.566   1.939   9.809
 2755SOL    HW110199   0.489   1.926   9.872
 2755SOL    HW210200   0.553   2.024   9.758
 2756SOL     OW10201   1.471   3.032   9.324
 2756SOL    HW110202   1.521   2.969   9.384
 2756SOL    HW210203   1.374   3.033   9.350
 2757SOL     OW10204   0.272   1.850   9.446
 2757SOL    HW110205   0.294   1.941   9.411
 2757SOL    HW210206   0.346   1.820   9.507
 2758SOL     OW10207   0.966   2.111   9.747
 2758SOL    HW110208   0.923   2.142   9.662
 2758SOL    HW210209   1.061   2.142   9.749
 2759SOL     OW10210   0.451   3.005   0.086
 2759SOL    HW110211   0.393   3.053   0.152
 2759SOL    HW210212   0.402   2.997   9.999
 2760SOL     OW10213   1.239   3.618   9.857
 2760SOL    HW110214   1.267   3.709   9.828
 2760SOL    HW210215   1.153   3.594   9.813
 2761SOL     OW10216   1.010   2.367   9.360
 2761SOL    HW110217   0.970   2.454   9.332
 2761SOL    HW210218   1.083   2.383   9.426
 2762SOL     OW10219   0.865   2.291   9.929
 2762SOL    HW110220   0.815   2.352   9.867
 2762SOL    HW210221   0.896   2.210   9.879
 2763SOL     OW10222   1.952   2.683   9.595
 2763SOL    HW110223   1.978   2.649   9.686
 2763SOL    HW210224   1.897   2.614   9.548
 2764SOL     OW10225   0.475   3.284   9.465
 2764SOL    HW110226   0.377   3.273   9.483
 2764SOL    HW210227   0.509   3.205   9.415
 2765SOL     OW10228   1.399   2.459   9.373
 2765SOL    HW110229   1.337   2.435   9.448
 2765SOL    HW210230   1.494   2.443   9.402
 2766SOL     OW10231   0.548   2.155   9.643
 2766SOL    HW110232   0.601   2.101   9.578
 2766SOL    HW210233   0.503   2.231   9.595
 2767SOL     OW10234   0.736   2.852   9.655
 2767SOL    HW110235   0.698   2.810   9.737
 2767SOL    HW210236   0.812   2.796   9.621
 2768SOL     OW10237   0.330   3.005   9.845
 2768SOL    HW110238   0.322   3.094   9.802
 2768SOL    HW210239   0.329   2.933   9.775
 2769SOL     OW10240   1.258   3.219   9.809
 2769SOL    HW110241   1.332   3.286   9.811
 2769SOL    HW210242   1.176   3.259   9.850
 2770SOL     OW10243   1.494   2.557   9.702
 2770SOL    HW110244   1.540   2.602   9.778
 2770SOL    HW210245   1.427   2.619   9.662
 2771SOL     OW10246   1.197   2.404   9.556
 2771SOL    HW110247   1.216   2.325   9.615
 2771SOL    HW210248   1.152   2.476   9.609
 2772SOL     OW10249   0.352   1.901   9.980
 2772SOL    HW110250   0.272   1.915   9.923
 2772SOL    HW210251   0.332   1.830   0.048
 2773SOL     OW10252   1.590   2.317   9.611
 2773SOL    HW110253   1.614   2.256   9.686
 2773SOL    HW210254   1.548   2.400   9.648
 2774SOL     OW10255   1.523   2.126   9.407
 2774SOL    HW110256   1.485   2.046   9.452
 2774SOL    HW210257   1.542   2.197   9.475
 2775SOL     OW10258   1.284   2.691   9.294
 2775SOL    HW110259   1.330   2.607   9.323
 2775SOL    HW210260   1.319   2.719   9.205
 2776SOL     OW10261   9.974   3.095   9.420
 2776SOL    HW110262   9.906   3.076   9.349
 2776SOL    HW210263   9.994   3.011   9.470
 2777SOL     OW10264   0.785   2.421   9.699
 2777SOL    HW110265   0.804   2.344   9.638
 2777SOL    HW210266   0.711   2.477   9.662
 2778SOL     OW10267   0.446   2.360   9.503
 2778SOL    HW110268   0.498   2.437   9.540
 2778SOL    HW210269   0.366   2.396   9.455
 2779SOL     OW10270   1.342   2.784   9.626
 2779SOL    HW110271   1.333   2.837   9.710
 2779SOL    HW210272   1.269   2.810   9.563
 2780SOL     OW10273   1.680   2.119   9.786
 2780SOL    HW110274   1.759   2.086   9.735
 2780SOL    HW210275   1.700   2.115   9.884
 2781SOL     OW10276   1.434   3.439   9.826
 2781SOL    HW110277   1.480   3.458   9.739
 2781SOL    HW210278   1.359   3.504   9.839
 2782SOL     OW10279   0.583   3.530   9.409
 2782SOL    HW110280   0.622   3.529   9.317
 2782SOL    HW210281   0.546   3.439   9.430
 2783SOL     OW10282   1.261   3.568   9.314
 2783SOL    HW110283   1.189   3.505   9.344
 2783SOL    HW210284   1.233   3.611   9.228
 2784SOL     OW10285   0.946   2.716   9.546
 2784SOL    HW110286   1.019   2.774   9.511
 2784SOL    HW210287   0.982   2.655   9.616
 2785SOL     OW10288   1.528   3.476   9.319
 2785SOL    HW110289   1.433   3.505   9.311
 2785SOL    HW210290   1.578   3.503   9.236
 2786SOL     OW10291   0.600   3.215   9.703
 2786SOL    HW110292   0.685   3.179   9.665
 2786SOL    HW210293   0.545   3.255   9.630
 2787SOL     OW10294   0.216   3.194   9.493
 2787SOL    HW110295   0.125   3.162   9.468
 2787SOL    HW210296   0.220   3.213   9.591
 2788SOL     OW10297   0.041   2.170   9.308
 2788SOL    HW110298   9.943   2.160   9.293
 2788SOL    HW210299   0.079   2.232   9.239
 2789SOL     OW10300   0.038   1.894   9.566
 2789SOL    HW110301   0.055   1.904   9.665
 2789SOL    HW210302   0.125   1.878   9.519
 2790SOL     OW10303   1.213   2.221   9.760
 2790SOL    HW110304   1.295   2.163   9.768
 2790SOL    HW210305   1.208   2.282   9.838
 2791SOL     OW10306   0.590   2.715   9.853
 2791SOL    HW110307   0.620   2.742   9.945
 2791SOL    HW210308   0.498   2.677   9.857
 2792SOL     OW10309   0.871   3.218   9.346
 2792SOL    HW110310   0.837   3.176   9.431
 2792SOL    HW210311   0.796   3.229   9.282
 2793SOL     OW10312   1.148   2.863   9.438
 2793SOL    HW110313   1.112   2.933   9.376
 2793SOL    HW210314   1.198   2.794   9.385
 2794SOL     OW10315   0.079   3.073   9.933
 2794SOL    HW110316   0.029   3.006   9.987
 2794SOL    HW210317   0.171   3.038   9.912
 2795SOL     OW10318   0.440   2.327   9.842
 2795SOL    HW110319   0.497   2.269   9.784
 2795SOL    HW210320   0.478   2.329   9.935
 2796SOL     OW10321   0.825   3.102   9.594
 2796SOL    HW110322   0.790   3.010   9.614
 2796SOL    HW210323   0.911   3.115   9.643
 2797SOL     OW10324   1.425   1.896   9.526
 2797SOL    HW110325   1.494   1.834   9.563
 2797SOL    HW210326   1.362   1.845   9.467
 2798SOL     OW10327   0.058   2.872   9.562
 2798SOL    HW110328   0.149   2.860   9.600
 2798SOL    HW210329   9.990   2.831   9.624
 2799SOL     OW10330   0.225   4.391   0.223
 2799SOL    HW110331   0.166   4.334   0.279
 2799SOL    HW210332   0.180   4.410   0.135
 2800SOL     OW10333   0.194   3.974   0.989
 2800SOL    HW110334   0.231   3.925   1.067
 2800SOL    HW210335   0.094   3.965   0.988
 2801SOL     OW10336   0.009   4.185   0.680
 2801SOL    HW110337   9.977   4.195   0.774
 2801SOL    HW210338   9.934   4.156   0.622
 2802SOL     OW10339   0.578   5.050   1.194
 2802SOL    HW110340   0.492   5.042   1.143
 2802SOL    HW210341   0.599   5.147   1.208
 2803SOL     OW10342   1.591   5.239   0.705
 2803SOL    HW110343   1.543   5.193   0.779
 2803SOL    HW210344   1.528   5.258   0.630
 2804SOL     OW10345   1.159   4.416   0.631
 2804SOL    HW110346   1.204   4.506   0.632
 2804SOL    HW210347   1.087   4.414   0.700
 2805SOL     OW10348   1.736   4.303   0.180
 2805SOL    HW110349   1.667   4.329   0.112
 2805SOL    HW210350   1.700   4.228   0.236
 2806SOL     OW10351   0.739   4.853   1.083
 2806SOL    HW110352   0.665   4.900   1.130
 2806SOL    HW210353   0.790   4.918   1.028
 2807SOL     OW10354   0.878   4.486   1.773
 2807SOL    HW110355   0.912   4.545   1.847
 2807SOL    HW210356   0.892   4.532   1.685
 2808SOL     OW10357   0.720   4.702   0.644
 2808SOL    HW110358   0.789   4.700   0.717
 2808SOL    HW210359   0.644   4.761   0.671
 2809SOL     OW10360   0.705   4.886   1.837
 2809SOL    HW110361   0.761   4.956   1.881
 2809SOL    HW210362   0.628   4.930   1.790
 2810SOL     OW10363   0.344   5.130   1.043
 2810SOL    HW110364   0.267   5.098   0.987
 2810SOL    HW210365   0.405   5.185   0.987
 2811SOL     OW10366   1.445   5.244   1.381
 2811SOL    HW110367   1.498   5.328   1.390
 2811SOL    HW210368   1.364   5.249   1.439
 2812SOL     OW10369   0.435   4.073   1.467
 2812SOL    HW110370   0.517   4.015   1.463
 2812SOL    HW210371   0.354   4.016   1.470
 2813SOL     OW10372   1.590   4.164   0.734
 2813SOL    HW110373   1.505   4.163   0.680
 2813SOL    HW210374   1.592   4.246   0.791
 2814SOL     OW10375   0.274   5.353   0.530
 2814SOL    HW110376   0.204   5.425   0.525
 2814SOL    HW210377   0.360   5.388   0.493
 2815SOL     OW10378   1.121   5.060   1.694
 2815SOL    HW110379   1.209   5.028   1.728
 2815SOL    HW210380   1.055   4.984   1.695
 2816SOL     OW10381   0.203   5.099   0.486
 2816SOL    HW110382   0.236   5.191   0.505
 2816SOL    HW210383   0.103   5.099   0.479
 2817SOL     OW10384   0.361   4.793   0.953
 2817SOL    HW110385   0.346   4.696   0.937
 2817SOL    HW210386   0.288   4.830   1.010
 2818SOL     OW10387   0.600   5.550   1.402
 2818SOL    HW110388   0.531   5.535   1.474
 2818SOL    HW210389   0.657   5.628   1.426
 2819SOL     OW10390   0.580   4.683   0.226
 2819SOL    HW110391   0.542   4.751   0.164
 2819SOL    HW210392   0.656   4.724   0.277
 2820SOL     OW10393   1.577   3.895   1.447
 2820SOL    HW110394   1.646   3.964   1.426
 2820SOL    HW210395   1.534   3.916   1.535
 2821SOL     OW10396   0.148   4.420   0.601
 2821SOL    HW110397   0.102   4.333   0.619
 2821SOL    HW210398   0.116   4.489   0.666
 2822SOL     OW10399   1.884   5.466   0.326
 2822SOL    HW110400   1.959   5.441   0.388
 2822SOL    HW210401   1.899   5.558   0.291
 2823SOL     OW10402   9.895   5.265   0.126
 2823SOL    HW110403   9.909   5.170   0.156
 2823SOL    HW210404   9.881   5.267   0.027
 2824SOL     OW10405   1.704   4.652   0.687
 2824SOL    HW110406   1.798   4.618   0.684
 2824SOL    HW210407   1.689   4.713   0.610
 2825SOL     OW10408   1.663   4.831   0.481
 2825SOL    HW110409   1.736   4.809   0.415
 2825SOL    HW210410   1.692   4.907   0.539
 2826SOL     OW10411   0.213   4.493   1.606
 2826SOL    HW110412   0.313   4.494   1.612
 2826SOL    HW210413   0.177   4.582   1.636
 2827SOL     OW10414   0.634   5.082   0.728
 2827SOL    HW110415   0.591   4.993   0.741
 2827SOL    HW210416   0.619   5.114   0.635
 2828SOL     OW10417   1.245   4.945   1.416
 2828SOL    HW110418   1.261   4.873   1.348
 2828SOL    HW210419   1.318   4.943   1.484
 2829SOL     OW10420   0.865   3.790   0.512
 2829SOL    HW110421   0.916   3.865   0.470
 2829SOL    HW210422   0.769   3.815   0.518
 2830SOL     OW10423   0.211   4.677   1.304
 2830SOL    HW110424   0.291   4.621   1.287
 2830SOL    HW210425   0.191   4.733   1.223
 2831SOL     OW10426   1.498   4.744   0.273
 2831SOL    HW110427   1.452   4.657   0.292
 2831SOL    HW210428   1.550   4.773   0.353
 2832SOL     OW10429   1.202   5.528   1.611
 2832SOL    HW110430   1.199   5.596   1.538
 2832SOL    HW210431   1.200   5.436   1.572
 2833SOL     OW10432   0.418   3.995   1.863
 2833SOL    HW110433   0.468   4.076   1.895
 2833SOL    HW210434   0.320   4.014   1.863
 2834SOL     OW10435   1.486   5.114   0.924
 2834SOL    HW110436   1.422   5.149   0.993
 2834SOL    HW210437   1.464   5.018   0.904
 2835SOL     OW10438   1.624   5.581   0.557
 2835SOL    HW110439   1.612   5.535   0.469
 2835SOL    HW210440   1.659   5.517   0.625
 2836SOL     OW10441   0.607   4.424   0.316
 2836SOL    HW110442   0.608   4.517   0.278
 2836SOL    HW210443   0.540   4.419   0.389
 2837SOL     OW10444   1.284   4.130   0.933
 2837SOL    HW110445   1.194   4.087   0.930
 2837SOL    HW210446   1.341   4.086   1.002
 2838SOL     OW10447   1.607   5.424   0.330
 2838SOL    HW110448   1.706   5.428   0.322
 2838SOL    HW210449   1.567   5.393   0.244
 2839SOL     OW10450   0.802   4.211   1.500
 2839SOL    HW110451   0.735   4.244   1.567
 2839SOL    HW210452   0.758   4.194   1.413
 2840SOL     OW10453   1.371   4.200   1.646
 2840SOL    HW110454   1.364   4.242   1.736
 2840SOL    HW210455   1.406   4.106   1.655
 2841SOL     OW10456   0.931   4.630   1.540
 2841SOL    HW110457   0.973   4.549   1.500
 2841SOL    HW210458   0.892   4.687   1.467
 2842SOL     OW10459   0.987   4.095   1.186
 2842SOL    HW110460   0.893   4.112   1.214
 2842SOL    HW210461   0.988   4.054   1.095
 2843SOL     OW10462   1.101   4.407   0.364
 2843SOL    HW110463   1.122   4.403   0.461
 2843SOL    HW210464   1.010   4.369   0.348
 2844SOL     OW10465   0.057   4.591   0.816
 2844SOL    HW110466   0.150   4.574   0.847
 2844SOL    HW210467   0.007   4.640   0.888
 2845SOL     OW10468   0.062   5.522   1.548
 2845SOL    HW110469   0.078   5.507   1.645
 2845SOL    HW210470   0.074   5.437   1.498
 2846SOL     OW10471   0.891   4.063   0.168
 2846SOL    HW110472   0.883   4.109   0.080
 2846SOL    HW210473   0.886   3.964   0.154
 2847SOL     OW10474   1.646   4.315   1.823
 2847SOL    HW110475   1.643   4.401   1.771
 2847SOL    HW210476   1.677   4.241   1.764
 2848SOL     OW10477   1.414   4.888   0.606
 2848SOL    HW110478   1.500   4.879   0.555
 2848SOL    HW210479   1.357   4.958   0.562
 2849SOL     OW10480   0.580   3.766   0.976
 2849SOL    HW110481   0.581   3.832   1.051
 2849SOL    HW210482   0.551   3.811   0.891
 2850SOL     OW10483   1.013   5.181   0.473
 2850SOL    HW110484   0.999   5.264   0.419
 2850SOL    HW210485   0.963   5.189   0.560
 2851SOL     OW10486   0.386   5.517   0.846
 2851SOL    HW110487   0.419   5.422   0.849
 2851SOL    HW210488   0.456   5.577   0.885
 2852SOL     OW10489   1.790   4.755   0.929
 2852SOL    HW110490   1.743   4.736   0.843
 2852SOL    HW210491   1.723   4.778   1.000
 2853SOL     OW10492   1.194   5.260   1.505
 2853SOL    HW110493   1.180   5.195   1.580
 2853SOL    HW210494   1.134   5.237   1.429
 2854SOL     OW10495   0.314   4.647   0.300
 2854SOL    HW110496   0.411   4.656   0.279
 2854SOL    HW210497   0.285   4.552   0.291
 2855SOL     OW10498   1.500   4.475   0.691
 2855SOL    HW110499   1.479   4.440   0.782
 2855SOL    HW210500   1.578   4.537   0.696
 2856SOL     OW10501   0.490   5.034   1.725
 2856SOL    HW110502   0.474   5.022   1.627
 2856SOL    HW210503   0.404   5.052   1.772
 2857SOL     OW10504   1.109   5.500   0.190
 2857SOL    HW110505   1.045   5.477   0.264
 2857SOL    HW210506   1.142   5.416   0.148
 2858SOL     OW10507   0.206   3.929   1.464
 2858SOL    HW110508   0.122   3.984   1.463
 2858SOL    HW210509   0.188   3.843   1.512
 2859SOL     OW10510   1.604   5.089   0.121
 2859SOL    HW110511   1.564   5.181   0.114
 2859SOL    HW210512   1.535   5.021   0.097
 2860SOL     OW10513   0.506   5.440   0.408
 2860SOL    HW110514   0.529   5.522   0.462
 2860SOL    HW210515   0.579   5.423   0.342
 2861SOL     OW10516   1.403   3.811   0.441
 2861SOL    HW110517   1.390   3.780   0.347
 2861SOL    HW210518   1.498   3.798   0.468
 2862SOL     OW10519   0.213   5.478   1.173
 2862SOL    HW110520   0.279   5.410   1.204
 2862SOL    HW210521   0.179   5.453   1.082
 2863SOL     OW10522   0.954   5.378   0.864
 2863SOL    HW110523   1.047   5.342   0.867
 2863SOL    HW210524   0.902   5.330   0.792
 2864SOL     OW10525   0.405   4.402   0.503
 2864SOL    HW110526   0.424   4.306   0.526
 2864SOL    HW210527   0.310   4.423   0.523
 2865SOL     OW10528   1.479   3.947   1.704
 2865SOL    HW110529   1.488   3.958   1.803
 2865SOL    HW210530   1.418   3.870   1.684
 2866SOL     OW10531   0.623   3.854   0.176
 2866SOL    HW110532   0.715   3.822   0.155
 2866SOL    HW210533   0.562   3.833   0.100
 2867SOL     OW10534   0.883   5.254   1.158
 2867SOL    HW110535   0.859   5.198   1.078
 2867SOL    HW210536   0.932   5.197   1.224
 2868SOL     OW10537   1.268   4.328   1.433
 2868SOL    HW110538   1.311   4.286   1.513
 2868SOL    HW210539   1.311   4.417   1.415
 2869SOL     OW10540   0.831   5.072   0.945
 2869SOL    HW110541   0.922   5.076   0.903
 2869SOL    HW210542   0.761   5.076   0.873
 2870SOL     OW10543   0.940   4.236   0.852
 2870SOL    HW110544   0.921   4.226   0.755
 2870SOL    HW210545   0.968   4.148   0.890
 2871SOL     OW10546   0.602   3.853   0.523
 2871SOL    HW110547   0.548   3.851   0.607
 2871SOL    HW210548   0.572   3.930   0.466
 2872SOL     OW10549   1.399   4.908   0.081
 2872SOL    HW110550   1.440   4.839   0.142
 2872SOL    HW210551   1.322   4.951   0.127
 2873SOL     OW10552   1.005   4.000   0.412
 2873SOL    HW110553   0.969   4.028   0.324
 2873SOL    HW210554   1.104   4.015   0.414
 2874SOL     OW10555   1.004   4.392   1.437
 2874SOL    HW110556   0.945   4.316   1.465
 2874SOL    HW210557   1.100   4.362   1.439
 2875SOL     OW10558   1.218   5.317   0.813
 2875SOL    HW110559   1.239   5.369   0.730
 2875SOL    HW210560   1.249   5.367   0.893
 2876SOL     OW10561   0.506   4.847   0.731
 2876SOL    HW110562   0.457   4.830   0.817
 2876SOL    HW210563   0.442   4.838   0.654
 2877SOL     OW10564   1.244   5.498   0.599
 2877SOL    HW110565   1.302   5.578   0.582
 2877SOL    HW210566   1.156   5.527   0.635
 2878SOL     OW10567   1.143   4.248   9.954
 2878SOL    HW110568   1.048   4.217   9.951
 2878SOL    HW210569   1.178   4.239   0.047
 2879SOL     OW10570   0.122   4.365   1.380
 2879SOL    HW110571   0.211   4.330   1.349
 2879SOL    HW210572   0.135   4.422   1.461
 2880SOL     OW10573   0.565   3.927   1.202
 2880SOL    HW110574   0.612   3.885   1.280
 2880SOL    HW210575   0.468   3.905   1.205
 2881SOL     OW10576   0.912   4.195   0.587
 2881SOL    HW110577   0.871   4.253   0.517
 2881SOL    HW210578   0.949   4.112   0.545
 2882SOL     OW10579   1.033   3.779   0.727
 2882SOL    HW110580   0.975   3.791   0.647
 2882SOL    HW210581   1.000   3.702   0.782
 2883SOL     OW10582   1.423   4.847   0.884
 2883SOL    HW110583   1.367   4.767   0.907
 2883SOL    HW210584   1.420   4.861   0.785
 2884SOL     OW10585   1.445   4.367   0.935
 2884SOL    HW110586   1.381   4.291   0.939
 2884SOL    HW210587   1.511   4.359   1.009
 2885SOL     OW10588   1.857   4.504   0.324
 2885SOL    HW110589   1.896   4.472   0.410
 2885SOL    HW210590   1.802   4.432   0.283
 2886SOL     OW10591   0.489   5.236   0.129
 2886SOL    HW110592   0.434   5.174   0.185
 2886SOL    HW210593   0.518   5.189   0.046
 2887SOL     OW10594   1.753   5.020   0.639
 2887SOL    HW110595   1.850   5.021   0.665
 2887SOL    HW210596   1.711   5.106   0.664
 2888SOL     OW10597   1.468   4.219   0.038
 2888SOL    HW110598   1.391   4.233   0.100
 2888SOL    HW210599   1.498   4.123   0.043
 2889SOL     OW10600   0.463   4.019   0.319
 2889SOL    HW110601   0.520   3.952   0.272
 2889SOL    HW210602   0.463   4.105   0.267
 2890SOL     OW10603   1.740   4.961   1.533
 2890SOL    HW110604   1.830   4.917   1.534
 2890SOL    HW210605   1.749   5.056   1.564
 2891SOL     OW10606   1.021   5.090   1.339
 2891SOL    HW110607   0.933   5.064   1.379
 2891SOL    HW210608   1.093   5.034   1.379
 2892SOL     OW10609   1.606   5.367   1.679
 2892SOL    HW110610   1.579   5.417   1.597
 2892SOL    HW210611   1.684   5.308   1.659
 2893SOL     OW10612   1.150   4.997   1.111
 2893SOL    HW110613   1.084   5.029   1.179
 2893SOL    HW210614   1.118   5.021   1.019
 2894SOL     OW10615   1.594   4.826   1.104
 2894SOL    HW110616   1.592   4.902   1.169
 2894SOL    HW210617   1.525   4.841   1.034
 2895SOL     OW10618   0.953   3.771   1.323
 2895SOL    HW110619   0.984   3.757   1.229
 2895SOL    HW210620   1.022   3.823   1.374
 2896SOL     OW10621   0.954   4.840   1.716
 2896SOL    HW110622   0.861   4.856   1.750
 2896SOL    HW210623   0.952   4.767   1.648
 2897SOL     OW10624   0.791   4.776   0.378
 2897SOL    HW110625   0.772   4.745   0.471
 2897SOL    HW210626   0.874   4.733   0.344
 2898SOL     OW10627   0.442   4.532   1.257
 2898SOL    HW110628   0.514   4.552   1.323
 2898SOL    HW210629   0.411   4.438   1.267
 2899SOL     OW10630   1.234   4.100   1.291
 2899SOL    HW110631   1.251   4.185   1.340
 2899SOL    HW210632   1.143   4.103   1.250
 2900SOL     OW10633   0.103   5.309   1.368
 2900SOL    HW110634   0.093   5.382   1.300
 2900SOL    HW210635   0.198   5.278   1.370
 2901SOL     OW10636   0.332   4.831   0.524
 2901SOL    HW110637   0.286   4.916   0.498
 2901SOL    HW210638   0.325   4.764   0.449
 2902SOL     OW10639   0.509   4.299   0.908
 2902SOL    HW110640   0.519   4.360   0.829
 2902SOL    HW210641   0.595   4.296   0.959
 2903SOL     OW10642   1.268   5.084   0.480
 2903SOL    HW110643   1.328   5.163   0.486
 2903SOL    HW210644   1.173   5.114   0.487
 2904SOL     OW10645   1.337   5.193   1.137
 2904SOL    HW110646   1.377   5.202   1.228
 2904SOL    HW210647   1.273   5.116   1.137
 2905SOL     OW10648   1.519   4.331   0.451
 2905SOL    HW110649   1.516   4.372   0.542
 2905SOL    HW210650   1.468   4.387   0.386
 2906SOL     OW10651   0.361   5.252   1.283
 2906SOL    HW110652   0.344   5.202   1.198
 2906SOL    HW210653   0.456   5.283   1.285
 2907SOL     OW10654   0.484   4.501   1.645
 2907SOL    HW110655   0.530   4.543   1.567
 2907SOL    HW210656   0.539   4.425   1.679
 2908SOL     OW10657   1.624   4.555   1.699
 2908SOL    HW110658   1.528   4.582   1.692
 2908SOL    HW210659   1.673   4.588   1.619
 2909SOL     OW10660   0.575   3.795   1.762
 2909SOL    HW110661   0.510   3.734   1.718
 2909SOL    HW210662   0.528   3.879   1.790
 2910SOL     OW10663   0.646   4.587   1.068
 2910SOL    HW110664   0.667   4.684   1.066
 2910SOL    HW210665   0.560   4.571   1.117
 2911SOL     OW10666   1.295   4.604   0.970
 2911SOL    HW110667   1.203   4.573   0.945
 2911SOL    HW210668   1.358   4.527   0.962
 2912SOL     OW10669   1.246   4.226   0.209
 2912SOL    HW110670   1.266   4.153   0.275
 2912SOL    HW210671   1.195   4.298   0.255
 2913SOL     OW10672   0.300   3.857   1.215
 2913SOL    HW110673   0.263   3.888   1.303
 2913SOL    HW210674   0.268   3.763   1.197
 2914SOL     OW10675   0.046   5.041   1.300
 2914SOL    HW110676   0.087   4.987   1.374
 2914SOL    HW210677   0.051   5.138   1.324
 2915SOL     OW10678   0.748   4.337   1.042
 2915SOL    HW110679   0.810   4.319   0.965
 2915SOL    HW210680   0.716   4.431   1.038
 2916SOL     OW10681   1.772   4.722   1.864
 2916SOL    HW110682   1.724   4.653   1.810
 2916SOL    HW210683   1.714   4.752   1.940
 2917SOL     OW10684   0.437   3.840   0.739
 2917SOL    HW110685   0.371   3.914   0.733
 2917SOL    HW210686   0.390   3.755   0.764
 2918SOL     OW10687   1.618   4.105   0.325
 2918SOL    HW110688   1.685   4.053   0.379
 2918SOL    HW210689   1.577   4.176   0.383
 2919SOL     OW10690   1.045   4.477   0.928
 2919SOL    HW110691   1.027   4.485   1.026
 2919SOL    HW210692   1.017   4.386   0.896
 2920SOL     OW10693   0.988   5.282   1.782
 2920SOL    HW110694   0.953   5.341   1.709
 2920SOL    HW210695   1.023   5.197   1.743
 2921SOL     OW10696   1.823   5.221   1.581
 2921SOL    HW110697   1.848   5.243   1.487
 2921SOL    HW210698   1.903   5.233   1.641
 2922SOL     OW10699   0.391   4.646   1.861
 2922SOL    HW110700   0.465   4.671   1.924
 2922SOL    HW210701   0.429   4.591   1.786
 2923SOL     OW10702   1.528   3.957   0.110
 2923SOL    HW110703   1.466   3.882   0.135
 2923SOL    HW210704   1.561   4.002   0.193
 2924SOL     OW10705   1.400   4.498   0.021
 2924SOL    HW110706   1.406   4.400   0.001
 2924SOL    HW210707   1.475   4.546   9.976
 2925SOL     OW10708   1.086   5.075   0.857
 2925SOL    HW110709   1.104   4.992   0.805
 2925SOL    HW210710   1.146   5.148   0.824
 2926SOL     OW10711   0.315   4.532   0.893
 2926SOL    HW110712   0.390   4.527   0.826
 2926SOL    HW210713   0.317   4.451   0.951
 2927SOL     OW10714   0.294   4.219   1.042
 2927SOL    HW110715   0.259   4.129   1.017
 2927SOL    HW210716   0.373   4.242   0.985
 2928SOL     OW10717   1.143   3.905   1.464
 2928SOL    HW110718   1.070   3.951   1.516
 2928SOL    HW210719   1.190   3.973   1.407
 2929SOL     OW10720   9.927   4.997   0.205
 2929SOL    HW110721   9.848   4.970   0.150
 2929SOL    HW210722   9.973   4.916   0.241
 2930SOL     OW10723   0.139   5.388   0.921
 2930SOL    HW110724   0.152   5.295   0.886
 2930SOL    HW210725   0.205   5.450   0.878
 2931SOL     OW10726   0.511   5.272   0.888
 2931SOL    HW110727   0.584   5.330   0.923
 2931SOL    HW210728   0.550   5.204   0.826
 2932SOL     OW10729   0.958   4.470   1.180
 2932SOL    HW110730   0.985   4.448   1.274
 2932SOL    HW210731   0.875   4.419   1.156
 2933SOL     OW10732   0.049   4.318   1.118
 2933SOL    HW110733   0.139   4.288   1.088
 2933SOL    HW210734   0.053   4.342   1.215
 2934SOL     OW10735   0.221   4.232   1.687
 2934SOL    HW110736   0.290   4.192   1.627
 2934SOL    HW210737   0.200   4.325   1.655
 2935SOL     OW10738   1.381   4.662   1.625
 2935SOL    HW110739   1.403   4.760   1.623
 2935SOL    HW210740   1.368   4.628   1.532
 2936SOL     OW10741   0.853   4.297   0.331
 2936SOL    HW110742   0.852   4.216   0.273
 2936SOL    HW210743   0.765   4.344   0.323
 2937SOL     OW10744   1.630   4.341   1.133
 2937SOL    HW110745   1.605   4.269   1.198
 2937SOL    HW210746   1.729   4.340   1.118
 2938SOL     OW10747   0.311   5.365   1.710
 2938SOL    HW110748   0.231   5.401   1.757
 2938SOL    HW210749   0.317   5.266   1.725
 2939SOL     OW10750   0.719   4.154   1.244
 2939SOL    HW110751   0.658   4.078   1.220
 2939SOL    HW210752   0.717   4.222   1.171
 2940SOL     OW10753   0.880   5.428   1.561
 2940SOL    HW110754   0.831   5.358   1.509
 2940SOL    HW210755   0.912   5.500   1.500
 2941SOL     OW10756   0.452   4.252   0.173
 2941SOL    HW110757   0.526   4.304   0.215
 2941SOL    HW210758   0.365   4.299   0.189
 2942SOL     OW10759   0.174   4.877   1.481
 2942SOL    HW110760   0.168   4.843   1.574
 2942SOL    HW210761   0.196   4.801   1.419
 2943SOL     OW10762   1.263   4.765   1.193
 2943SOL    HW110763   1.276   4.702   1.116
 2943SOL    HW210764   1.220   4.849   1.160
 2944SOL     OW10765   1.367   4.502   0.294
 2944SOL    HW110766   1.271   4.488   0.320
 2944SOL    HW210767   1.376   4.502   0.195
 2945SOL     OW10768   1.785   5.450   1.165
 2945SOL    HW110769   1.849   5.482   1.095
 2945SOL    HW210770   1.745   5.363   1.136
 2946SOL     OW10771   1.276   5.440   1.052
 2946SOL    HW110772   1.346   5.505   1.080
 2946SOL    HW210773   1.299   5.349   1.086
 2947SOL     OW10774   0.141   4.851   1.107
 2947SOL    HW110775   0.112   4.932   1.158
 2947SOL    HW210776   0.061   4.805   1.069
 2948SOL     OW10777   0.681   5.456   1.745
 2948SOL    HW110778   0.600   5.498   1.705
 2948SOL    HW210779   0.758   5.468   1.682
 2949SOL     OW10780   0.895   3.789   0.101
 2949SOL    HW110781   0.891   3.768   0.003
 2949SOL    HW210782   0.968   3.736   0.144
 2950SOL     OW10783   1.813   3.943   0.438
 2950SOL    HW110784   1.883   3.909   0.375
 2950SOL    HW210785   1.756   3.867   0.470
 2951SOL     OW10786   1.420   5.310   0.503
 2951SOL    HW110787   1.482   5.348   0.434
 2951SOL    HW210788   1.351   5.379   0.527
 2952SOL     OW10789   0.097   5.468   1.838
 2952SOL    HW110790   0.066   5.412   1.916
 2952SOL    HW210791   0.157   5.541   1.871
 2953SOL     OW10792   1.296   4.649   0.641
 2953SOL    HW110793   1.370   4.584   0.654
 2953SOL    HW210794   1.333   4.738   0.616
 2954SOL     OW10795   0.760   5.042   1.415
 2954SOL    HW110796   0.736   5.099   1.494
 2954SOL    HW210797   0.685   5.044   1.348
 2955SOL     OW10798   0.692   5.392   0.212
 2955SOL    HW110799   0.680   5.487   0.184
 2955SOL    HW210800   0.619   5.336   0.172
 2956SOL     OW10801   1.602   5.478   1.384
 2956SOL    HW110802   1.674   5.458   1.318
 2956SOL    HW210803   1.629   5.557   1.440
 2957SOL     OW10804   1.838   3.876   0.999
 2957SOL    HW110805   1.867   3.787   0.964
 2957SOL    HW210806   1.751   3.902   0.957
 2958SOL     OW10807   0.250   4.041   0.734
 2958SOL    HW110808   0.170   4.085   0.693
 2958SOL    HW210809   0.230   4.016   0.828
 2959SOL     OW10810   1.201   5.258   0.100
 2959SOL    HW110811   1.191   5.169   0.144
 2959SOL    HW210812   1.153   5.258   0.013
 2960SOL     OW10813   0.800   4.780   1.352
 2960SOL    HW110814   0.800   4.783   1.252
 2960SOL    HW210815   0.787   4.872   1.388
 2961SOL     OW10816   1.017   4.660   0.274
 2961SOL    HW110817   1.065   4.670   0.186
 2961SOL    HW210818   1.042   4.573   0.316
 2962SOL     OW10819   1.462   5.341   0.101
 2962SOL    HW110820   1.369   5.308   0.119
 2962SOL    HW210821   1.479   5.341   0.003
 2963SOL     OW10822   0.398   5.040   1.473
 2963SOL    HW110823   0.388   5.113   1.406
 2963SOL    HW210824   0.316   4.983   1.472
 2964SOL     OW10825   1.606   5.034   1.295
 2964SOL    HW110826   1.663   5.000   1.370
 2964SOL    HW210827   1.542   5.102   1.330
 2965SOL     OW10828   1.105   4.829   0.748
 2965SOL    HW110829   1.022   4.784   0.783
 2965SOL    HW210830   1.165   4.761   0.706
 2966SOL     OW10831   1.049   3.967   0.938
 2966SOL    HW110832   1.042   3.927   0.847
 2966SOL    HW210833   1.064   3.894   1.005
 2967SOL     OW10834   0.619   5.178   0.478
 2967SOL    HW110835   0.671   5.133   0.405
 2967SOL    HW210836   0.556   5.244   0.437
 2968SOL     OW10837   1.793   4.069   1.417
 2968SOL    HW110838   1.856   4.146   1.405
 2968SOL    HW210839   1.828   3.990   1.366
 2969SOL     OW10840   0.325   5.052   0.245
 2969SOL    HW110841   0.252   5.050   0.177
 2969SOL    HW210842   0.286   5.067   0.336
 2970SOL     OW10843   0.170   4.744   1.721
 2970SOL    HW110844   0.098   4.723   1.788
 2970SOL    HW210845   0.260   4.735   1.764
 2971SOL     OW10846   0.708   3.845   1.428
 2971SOL    HW110847   0.792   3.818   1.381
 2971SOL    HW210848   0.730   3.879   1.519
 2972SOL     OW10849   1.368   4.580   1.368
 2972SOL    HW110850   1.312   4.640   1.312
 2972SOL    HW210851   1.461   4.577   1.332
 2973SOL     OW10852   0.136   3.761   0.209
 2973SOL    HW110853   0.127   3.752   0.308
 2973SOL    HW210854   0.210   3.702   0.177
 2974SOL     OW10855   1.192   5.011   0.225
 2974SOL    HW110856   1.120   4.942   0.228
 2974SOL    HW210857   1.225   5.029   0.318
 2975SOL     OW10858   0.646   4.569   1.432
 2975SOL    HW110859   0.690   4.654   1.406
 2975SOL    HW210860   0.715   4.498   1.446
 2976SOL     OW10861   1.489   5.593   1.147
 2976SOL    HW110862   1.577   5.589   1.100
 2976SOL    HW210863   1.500   5.563   1.242
 2977SOL     OW10864   0.668   4.314   1.728
 2977SOL    HW110865   0.746   4.372   1.752
 2977SOL    HW210866   0.630   4.273   1.811
 2978SOL     OW10867   1.459   4.925   1.618
 2978SOL    HW110868   1.450   4.943   1.716
 2978SOL    HW210869   1.553   4.941   1.590
 2979SOL     OW10870   1.612   4.595   1.251
 2979SOL    HW110871   1.625   4.511   1.198
 2979SOL    HW210872   1.608   4.673   1.189
 2980SOL     OW10873   1.273   4.052   0.426
 2980SOL    HW110874   1.323   3.965   0.430
 2980SOL    HW210875   1.293   4.105   0.509
 2981SOL     OW10876   0.530   4.501   0.720
 2981SOL    HW110877   0.603   4.566   0.696
 2981SOL    HW210878   0.486   4.469   0.636
 2982SOL     OW10879   1.730   4.095   1.680
 2982SOL    HW110880   1.752   4.088   1.582
 2982SOL    HW210881   1.651   4.037   1.701
 2983SOL     OW10882   1.732   4.671   1.482
 2983SOL    HW110883   1.720   4.769   1.493
 2983SOL    HW210884   1.692   4.641   1.395
 2984SOL     OW10885   0.864   5.204   0.092
 2984SOL    HW110886   0.851   5.128   0.155
 2984SOL    HW210887   0.808   5.282   0.121
 2985SOL     OW10888   0.704   5.440   0.962
 2985SOL    HW110889   0.677   5.536   0.947
 2985SOL    HW210890   0.801   5.429   0.942
 2986SOL     OW10891   0.891   4.696   0.862
 2986SOL    HW110892   0.944   4.614   0.885
 2986SOL    HW210893   0.837   4.724   0.941
 2987SOL     OW10894   1.173   4.660   0.048
 2987SOL    HW110895   1.178   4.734   9.982
 2987SOL    HW210896   1.250   4.598   0.035
 2988SOL     OW10897   1.797   5.315   0.860
 2988SOL    HW110898   1.728   5.293   0.791
 2988SOL    HW210899   1.781   5.260   0.943
 2989SOL     OW10900   0.251   5.111   1.824
 2989SOL    HW110901   0.154   5.100   1.803
 2989SOL    HW210902   0.265   5.105   1.923
 2990SOL     OW10903   0.033   4.817   0.548
 2990SOL    HW110904   9.952   4.827   0.606
 2990SOL    HW210905   0.113   4.796   0.605
 2991SOL     OW10906   0.686   5.201   1.625
 2991SOL    HW110907   0.614   5.142   1.661
 2991SOL    HW210908   0.687   5.287   1.676
 2992SOL     OW10909   1.871   3.856   1.271
 2992SOL    HW110910   1.940   3.784   1.276
 2992SOL    HW210911   1.848   3.874   1.176
 2993SOL     OW10912   0.440   4.147   0.564
 2993SOL    HW110913   0.442   4.090   0.482
 2993SOL    HW210914   0.375   4.108   0.629
 2994SOL     OW10915   1.687   5.203   1.088
 2994SOL    HW110916   1.617   5.175   1.022
 2994SOL    HW210917   1.685   5.142   1.167
 2995SOL     OW10918   0.365   4.276   1.298
 2995SOL    HW110919   0.400   4.202   1.355
 2995SOL    HW210920   0.346   4.242   1.206
 2996SOL     OW10921   0.829   5.260   0.662
 2996SOL    HW110922   0.788   5.308   0.585
 2996SOL    HW210923   0.766   5.189   0.694
 2997SOL     OW10924   1.426   3.999   1.126
 2997SOL    HW110925   1.455   3.907   1.153
 2997SOL    HW210926   1.363   4.035   1.195
 2998SOL     OW10927   1.069   3.718   1.076
 2998SOL    HW110928   1.018   3.661   1.012
 2998SOL    HW210929   1.156   3.674   1.098
 2999SOL     OW10930   0.815   5.046   0.323
 2999SOL    HW110931   0.802   4.949   0.339
 2999SOL    HW210932   0.893   5.079   0.376
 3000SOL     OW10933   0.627   5.317   1.260
 3000SOL    HW110934   0.620   5.404   1.309
 3000SOL    HW210935   0.714   5.315   1.209
 3001SOL     OW10936   1.364   3.730   0.183
 3001SOL    HW110937   1.411   3.653   0.139
 3001SOL    HW210938   1.266   3.714   0.183
 3002SOL     OW10939   1.315   4.187   0.663
 3002SOL    HW110940   1.264   4.271   0.644
 3002SOL    HW210941   1.301   4.161   0.759
 3003SOL     OW10942   1.594   3.949   0.911
 3003SOL    HW110943   1.533   3.982   0.984
 3003SOL    HW210944   1.594   4.015   0.836
 3004SOL     OW10945   0.077   4.781   0.288
 3004SOL    HW110946   0.165   4.735   0.284
 3004SOL    HW210947   0.050   4.793   0.384
 3005SOL     OW10948   0.916   5.417   0.369
 3005SOL    HW110949   0.838   5.400   0.309
 3005SOL    HW210950   0.895   5.494   0.430
 3006SOL     OW10951   0.281   4.317   1.956
 3006SOL    HW110952   0.211   4.339   2.023
 3006SOL    HW210953   0.239   4.300   1.867
 3007SOL     OW10954   0.269   3.990   2.796
 3007SOL    HW110955   0.303   3.956   2.883
 3007SOL    HW210956   0.212   3.920   2.753
 3008SOL     OW10957   0.020   4.187   2.534
 3008SOL    HW110958   9.997   4.182   2.631
 3008SOL    HW210959   9.942   4.157   2.479
 3009SOL     OW10960   0.556   5.055   3.041
 3009SOL    HW110961   0.475   5.084   2.990
 3009SOL    HW210962   0.592   5.133   3.092
 3010SOL     OW10963   1.604   5.249   2.551
 3010SOL    HW110964   1.557   5.223   2.635
 3010SOL    HW210965   1.537   5.264   2.478
 3011SOL     OW10966   1.155   4.405   2.549
 3011SOL    HW110967   1.183   4.501   2.553
 3011SOL    HW210968   1.104   4.381   2.632
 3012SOL     OW10969   1.792   4.297   2.047
 3012SOL    HW110970   1.744   4.313   1.961
 3012SOL    HW210971   1.744   4.226   2.099
 3013SOL     OW10972   0.718   4.879   2.918
 3013SOL    HW110973   0.643   4.922   2.970
 3013SOL    HW210974   0.787   4.948   2.897
 3014SOL     OW10975   0.885   4.385   3.660
 3014SOL    HW110976   0.921   4.472   3.694
 3014SOL    HW210977   0.840   4.400   3.572
 3015SOL     OW10978   0.692   4.719   2.524
 3015SOL    HW110979   0.768   4.716   2.590
 3015SOL    HW210980   0.618   4.775   2.561
 3016SOL     OW10981   0.711   4.859   3.700
 3016SOL    HW110982   0.765   4.927   3.749
 3016SOL    HW210983   0.639   4.905   3.648
 3017SOL     OW10984   0.339   5.174   2.927
 3017SOL    HW110985   0.265   5.113   2.898
 3017SOL    HW210986   0.375   5.223   2.847
 3018SOL     OW10987   1.448   5.228   3.231
 3018SOL    HW110988   1.499   5.308   3.262
 3018SOL    HW210989   1.367   5.215   3.288
 3019SOL     OW10990   0.505   4.037   3.284
 3019SOL    HW110991   0.582   3.981   3.317
 3019SOL    HW210992   0.419   3.993   3.309
 3020SOL     OW10993   1.603   4.165   2.622
 3020SOL    HW110994   1.522   4.165   2.564
 3020SOL    HW210995   1.593   4.234   2.693
 3021SOL     OW10996   0.233   5.409   2.245
 3021SOL    HW110997   0.186   5.479   2.300
 3021SOL    HW210998   0.317   5.448   2.206
 3022SOL     OW10999   1.104   5.062   3.585
 3022SOL    HW111000   1.133   5.063   3.681
 3022SOL    HW211001   1.051   4.979   3.567
 3023SOL     OW11002   0.308   5.167   2.339
 3023SOL    HW111003   0.282   5.260   2.311
 3023SOL    HW211004   0.245   5.136   2.411
 3024SOL     OW11005   0.321   4.812   2.830
 3024SOL    HW111006   0.304   4.722   2.869
 3024SOL    HW211007   0.252   4.876   2.863
 3025SOL     OW11008   0.582   5.560   3.238
 3025SOL    HW111009   0.506   5.535   3.298
 3025SOL    HW211010   0.635   5.634   3.280
 3026SOL     OW11011   0.609   4.720   2.041
 3026SOL    HW111012   0.644   4.770   1.962
 3026SOL    HW211013   0.661   4.745   2.122
 3027SOL     OW11014   1.695   3.804   3.406
 3027SOL    HW111015   1.730   3.880   3.350
 3027SOL    HW211016   1.624   3.838   3.468
 3028SOL     OW11017   0.137   4.427   2.437
 3028SOL    HW111018   0.102   4.338   2.468
 3028SOL    HW211019   0.118   4.496   2.507
 3029SOL     OW11020   1.842   5.504   2.172
 3029SOL    HW111021   1.905   5.486   2.248
 3029SOL    HW211022   1.853   5.599   2.141
 3030SOL     OW11023   0.039   5.324   2.064
 3030SOL    HW111024   0.026   5.225   2.068
 3030SOL    HW211025   0.108   5.352   2.131
 3031SOL     OW11026   1.705   4.654   2.537
 3031SOL    HW111027   1.797   4.616   2.538
 3031SOL    HW211028   1.690   4.705   2.452
 3032SOL     OW11029   1.665   4.836   2.318
 3032SOL    HW111030   1.748   4.810   2.268
 3032SOL    HW211031   1.688   4.904   2.388
 3033SOL     OW11032   0.156   4.481   3.400
 3033SOL    HW111033   0.248   4.454   3.374
 3033SOL    HW211034   0.160   4.565   3.454
 3034SOL     OW11035   0.636   5.104   2.630
 3034SOL    HW111036   0.599   5.014   2.652
 3034SOL    HW211037   0.618   5.124   2.534
 3035SOL     OW11038   1.299   4.898   3.274
 3035SOL    HW111039   1.346   4.870   3.190
 3035SOL    HW211040   1.367   4.916   3.345
 3036SOL     OW11041   0.851   3.737   2.224
 3036SOL    HW111042   0.896   3.807   2.279
 3036SOL    HW211043   0.790   3.780   2.158
 3037SOL     OW11044   0.134   4.667   3.096
 3037SOL    HW111045   0.203   4.613   3.048
 3037SOL    HW211046   0.050   4.670   3.042
 3038SOL     OW11047   1.572   4.793   2.056
 3038SOL    HW111048   1.505   4.718   2.059
 3038SOL    HW211049   1.603   4.815   2.148
 3039SOL     OW11050   1.314   5.631   3.510
 3039SOL    HW111051   1.252   5.678   3.448
 3039SOL    HW211052   1.280   5.539   3.528
 3040SOL     OW11053   0.386   4.007   3.647
 3040SOL    HW111054   0.430   4.071   3.709
 3040SOL    HW211055   0.287   4.007   3.663
 3041SOL     OW11056   1.496   5.159   2.782
 3041SOL    HW111057   1.423   5.176   2.848
 3041SOL    HW211058   1.487   5.066   2.746
 3042SOL     OW11059   1.628   5.575   2.402
 3042SOL    HW111060   1.617   5.511   2.325
 3042SOL    HW211061   1.649   5.524   2.485
 3043SOL     OW11062   0.618   4.441   2.135
 3043SOL    HW111063   0.634   4.531   2.096
 3043SOL    HW211064   0.548   4.446   2.206
 3044SOL     OW11065   1.297   4.123   2.802
 3044SOL    HW111066   1.201   4.105   2.825
 3044SOL    HW211067   1.356   4.060   2.852
 3045SOL     OW11068   1.587   5.413   2.182
 3045SOL    HW111069   1.683   5.438   2.171
 3045SOL    HW211070   1.546   5.396   2.092
 3046SOL     OW11071   1.395   4.186   3.492
 3046SOL    HW111072   1.391   4.238   3.577
 3046SOL    HW211073   1.441   4.099   3.508
 3047SOL     OW11074   1.039   4.133   2.974
 3047SOL    HW111075   0.950   4.154   3.014
 3047SOL    HW211076   1.043   4.036   2.952
 3048SOL     OW11077   1.082   4.400   2.285
 3048SOL    HW111078   1.102   4.398   2.383
 3048SOL    HW211079   0.993   4.358   2.269
 3049SOL     OW11080   0.064   4.566   2.726
 3049SOL    HW111081   0.156   4.555   2.763
 3049SOL    HW211082   0.005   4.610   2.794
 3050SOL     OW11083   0.109   5.540   3.429
 3050SOL    HW111084   0.101   5.515   3.526
 3050SOL    HW211085   0.100   5.458   3.372
 3051SOL     OW11086   0.899   4.104   2.054
 3051SOL    HW111087   0.946   4.172   1.998
 3051SOL    HW211088   0.928   4.013   2.026
 3052SOL     OW11089   1.658   4.314   3.692
 3052SOL    HW111090   1.655   4.396   3.635
 3052SOL    HW211091   1.685   4.236   3.637
 3053SOL     OW11092   1.384   4.874   2.411
 3053SOL    HW111093   1.467   4.859   2.357
 3053SOL    HW211094   1.329   4.946   2.368
 3054SOL     OW11095   0.702   4.049   2.759
 3054SOL    HW111096   0.677   4.011   2.848
 3054SOL    HW211097   0.658   4.137   2.747
 3055SOL     OW11098   0.989   5.196   2.342
 3055SOL    HW111099   0.970   5.270   2.278
 3055SOL    HW211100   0.949   5.218   2.431
 3056SOL     OW11101   0.334   5.579   2.844
 3056SOL    HW111102   0.295   5.533   2.764
 3056SOL    HW211103   0.405   5.642   2.814
 3057SOL     OW11104   1.796   4.773   2.777
 3057SOL    HW111105   1.745   4.751   2.694
 3057SOL    HW211106   1.732   4.788   2.852
 3058SOL     OW11107   1.213   5.178   3.355
 3058SOL    HW111108   1.197   5.140   3.446
 3058SOL    HW211109   1.148   5.139   3.290
 3059SOL     OW11110   0.387   4.709   2.213
 3059SOL    HW111111   0.463   4.717   2.148
 3059SOL    HW211112   0.389   4.618   2.254
 3060SOL     OW11113   1.492   4.486   2.556
 3060SOL    HW111114   1.487   4.433   2.640
 3060SOL    HW211115   1.573   4.545   2.559
 3061SOL     OW11116   0.510   4.990   3.559
 3061SOL    HW111117   0.484   4.982   3.463
 3061SOL    HW211118   0.428   4.997   3.615
 3062SOL     OW11119   1.145   5.486   2.088
 3062SOL    HW111120   1.056   5.464   2.128
 3062SOL    HW211121   1.174   5.412   2.028
 3063SOL     OW11122   0.238   3.955   3.287
 3063SOL    HW111123   0.181   4.036   3.279
 3063SOL    HW211124   0.189   3.883   3.337
 3064SOL     OW11125   1.640   5.133   1.958
 3064SOL    HW111126   1.602   5.225   1.950
 3064SOL    HW211127   1.571   5.067   1.928
 3065SOL     OW11128   0.468   5.510   2.135
 3065SOL    HW111129   0.509   5.559   2.212
 3065SOL    HW211130   0.539   5.461   2.085
 3066SOL     OW11131   0.255   5.496   3.087
 3066SOL    HW111132   0.316   5.423   3.120
 3066SOL    HW211133   0.280   5.521   2.994
 3067SOL     OW11134   0.937   5.429   2.744
 3067SOL    HW111135   1.030   5.392   2.744
 3067SOL    HW211136   0.881   5.379   2.678
 3068SOL     OW11137   0.393   4.454   2.329
 3068SOL    HW111138   0.420   4.358   2.325
 3068SOL    HW211139   0.302   4.462   2.371
 3069SOL     OW11140   1.495   3.930   3.567
 3069SOL    HW111141   1.500   3.947   3.666
 3069SOL    HW211142   1.420   3.867   3.548
 3070SOL     OW11143   0.711   3.834   2.004
 3070SOL    HW111144   0.806   3.850   1.977
 3070SOL    HW211145   0.657   3.809   1.924
 3071SOL     OW11146   0.790   3.937   3.610
 3071SOL    HW111147   0.880   3.895   3.604
 3071SOL    HW211148   0.738   3.894   3.685
 3072SOL     OW11149   0.879   5.193   3.145
 3072SOL    HW111150   0.865   5.179   3.047
 3072SOL    HW211151   0.934   5.118   3.182
 3073SOL     OW11152   1.401   4.297   3.240
 3073SOL    HW111153   1.404   4.261   3.333
 3073SOL    HW211154   1.375   4.393   3.242
 3074SOL     OW11155   0.841   5.123   2.873
 3074SOL    HW111156   0.926   5.123   2.819
 3074SOL    HW211157   0.764   5.140   2.812
 3075SOL     OW11158   1.002   4.304   2.766
 3075SOL    HW111159   0.934   4.263   2.705
 3075SOL    HW211160   1.024   4.241   2.840
 3076SOL     OW11161   1.431   4.959   1.891
 3076SOL    HW111162   1.482   4.892   1.945
 3076SOL    HW211163   1.348   4.984   1.940
 3077SOL     OW11164   0.319   3.760   1.987
 3077SOL    HW111165   0.368   3.838   1.948
 3077SOL    HW211166   0.378   3.712   2.051
 3078SOL     OW11167   1.193   5.349   2.688
 3078SOL    HW111168   1.223   5.397   2.605
 3078SOL    HW211169   1.238   5.391   2.767
 3079SOL     OW11170   0.499   4.870   2.639
 3079SOL    HW111171   0.439   4.847   2.715
 3079SOL    HW211172   0.445   4.879   2.555
 3080SOL     OW11173   1.245   5.519   2.472
 3080SOL    HW111174   1.295   5.583   2.414
 3080SOL    HW211175   1.162   5.562   2.506
 3081SOL     OW11176   1.025   4.283   1.897
 3081SOL    HW111177   0.976   4.353   1.846
 3081SOL    HW211178   1.122   4.308   1.903
 3082SOL     OW11179   0.142   4.223   3.241
 3082SOL    HW111180   0.237   4.234   3.211
 3082SOL    HW211181   0.114   4.305   3.292
 3083SOL     OW11182   0.619   3.973   3.014
 3083SOL    HW111183   0.659   3.940   3.100
 3083SOL    HW211184   0.523   3.947   3.010
 3084SOL     OW11185   1.025   3.764   2.657
 3084SOL    HW111186   0.947   3.815   2.621
 3084SOL    HW211187   0.993   3.675   2.690
 3085SOL     OW11188   1.509   4.921   2.655
 3085SOL    HW111189   1.447   4.897   2.581
 3085SOL    HW211190   1.601   4.936   2.619
 3086SOL     OW11191   1.456   4.354   2.795
 3086SOL    HW111192   1.392   4.277   2.796
 3086SOL    HW211193   1.509   4.354   2.880
 3087SOL     OW11194   1.780   4.491   2.238
 3087SOL    HW111195   1.842   4.462   2.310
 3087SOL    HW211196   1.788   4.428   2.160
 3088SOL     OW11197   0.546   5.159   1.981
 3088SOL    HW111198   0.465   5.126   2.030
 3088SOL    HW211199   0.549   5.117   1.891
 3089SOL     OW11200   1.739   4.999   2.520
 3089SOL    HW111201   1.838   4.988   2.527
 3089SOL    HW211202   1.716   5.096   2.523
 3090SOL     OW11203   1.378   4.318   1.893
 3090SOL    HW111204   1.357   4.316   1.991
 3090SOL    HW211205   1.477   4.311   1.881
 3091SOL     OW11206   0.552   4.018   2.141
 3091SOL    HW111207   0.616   3.951   2.106
 3091SOL    HW211208   0.556   4.101   2.085
 3092SOL     OW11209   1.745   4.991   3.395
 3092SOL    HW111210   1.827   4.934   3.386
 3092SOL    HW211211   1.770   5.081   3.432
 3093SOL     OW11212   1.046   4.977   3.224
 3093SOL    HW111213   0.985   4.903   3.253
 3093SOL    HW211214   1.140   4.953   3.246
 3094SOL     OW11215   1.627   5.359   3.563
 3094SOL    HW111216   1.595   5.392   3.474
 3094SOL    HW211217   1.713   5.309   3.550
 3095SOL     OW11218   1.163   4.992   2.973
 3095SOL    HW111219   1.097   4.989   3.048
 3095SOL    HW211220   1.118   5.025   2.890
 3096SOL     OW11221   1.616   4.819   2.977
 3096SOL    HW111222   1.624   4.895   3.041
 3096SOL    HW211223   1.522   4.815   2.943
 3097SOL     OW11224   0.962   3.763   3.249
 3097SOL    HW111225   0.984   3.715   3.165
 3097SOL    HW211226   1.042   3.816   3.279
 3098SOL     OW11227   0.950   4.831   3.561
 3098SOL    HW111228   0.859   4.833   3.602
 3098SOL    HW211229   0.943   4.799   3.466
 3099SOL     OW11230   0.755   4.780   2.263
 3099SOL    HW111231   0.730   4.758   2.357
 3099SOL    HW211232   0.837   4.728   2.238
 3100SOL     OW11233   1.264   4.085   3.135
 3100SOL    HW111234   1.313   4.165   3.170
 3100SOL    HW211235   1.184   4.114   3.083
 3101SOL     OW11236   0.110   5.314   3.264
 3101SOL    HW111237   0.098   5.379   3.189
 3101SOL    HW211238   0.203   5.277   3.261
 3102SOL     OW11239   0.364   4.894   2.411
 3102SOL    HW111240   0.351   4.985   2.371
 3102SOL    HW211241   0.374   4.827   2.337
 3103SOL     OW11242   0.586   4.300   2.758
 3103SOL    HW111243   0.578   4.357   2.676
 3103SOL    HW211244   0.631   4.352   2.831
 3104SOL     OW11245   1.244   5.092   2.298
 3104SOL    HW111246   1.307   5.166   2.322
 3104SOL    HW211247   1.151   5.119   2.321
 3105SOL     OW11248   1.329   5.205   2.991
 3105SOL    HW111249   1.373   5.212   3.080
 3105SOL    HW211250   1.268   5.125   2.990
 3106SOL     OW11251   1.541   4.363   2.313
 3106SOL    HW111252   1.513   4.394   2.404
 3106SOL    HW211253   1.619   4.419   2.282
 3107SOL     OW11254   0.360   5.235   3.189
 3107SOL    HW111255   0.345   5.210   3.093
 3107SOL    HW211256   0.456   5.258   3.203
 3108SOL     OW11257   1.639   4.540   3.544
 3108SOL    HW111258   1.547   4.575   3.525
 3108SOL    HW211259   1.701   4.567   3.470
 3109SOL     OW11260   1.031   3.822   3.595
 3109SOL    HW111261   1.083   3.906   3.586
 3109SOL    HW211262   1.088   3.744   3.570
 3110SOL     OW11263   0.510   3.774   3.597
 3110SOL    HW111264   0.461   3.722   3.527
 3110SOL    HW211265   0.465   3.863   3.610
 3111SOL     OW11266   0.549   4.660   3.010
 3111SOL    HW111267   0.590   4.726   2.948
 3111SOL    HW211268   0.542   4.698   3.102
 3112SOL     OW11269   1.337   4.606   2.814
 3112SOL    HW111270   1.318   4.638   2.722
 3112SOL    HW211271   1.380   4.516   2.810
 3113SOL     OW11272   1.317   4.353   2.155
 3113SOL    HW111273   1.390   4.343   2.223
 3113SOL    HW211274   1.229   4.363   2.201
 3114SOL     OW11275   0.351   3.892   3.038
 3114SOL    HW111276   0.314   3.924   3.125
 3114SOL    HW211277   0.328   3.795   3.025
 3115SOL     OW11278   0.036   5.049   3.159
 3115SOL    HW111279   0.070   4.977   3.219
 3115SOL    HW211280   0.046   5.138   3.204
 3116SOL     OW11281   0.700   4.439   2.962
 3116SOL    HW111282   0.789   4.475   2.934
 3116SOL    HW211283   0.640   4.515   2.987
 3117SOL     OW11284   1.762   4.712   3.722
 3117SOL    HW111285   1.718   4.643   3.664
 3117SOL    HW211286   1.702   4.735   3.799
 3118SOL     OW11287   1.619   4.130   2.181
 3118SOL    HW111288   1.668   4.068   2.242
 3118SOL    HW211289   1.578   4.204   2.235
 3119SOL     OW11290   1.063   5.337   3.567
 3119SOL    HW111291   1.009   5.374   3.491
 3119SOL    HW211292   1.061   5.237   3.563
 3120SOL     OW11293   1.855   5.232   3.462
 3120SOL    HW111294   1.873   5.256   3.366
 3120SOL    HW211295   1.940   5.241   3.515
 3121SOL     OW11296   0.374   4.624   3.737
 3121SOL    HW111297   0.460   4.655   3.777
 3121SOL    HW211298   0.357   4.529   3.763
 3122SOL     OW11299   1.506   3.980   1.972
 3122SOL    HW111300   1.444   3.914   2.016
 3122SOL    HW211301   1.544   4.041   2.042
 3123SOL     OW11302   1.252   4.549   1.831
 3123SOL    HW111303   1.296   4.460   1.845
 3123SOL    HW211304   1.291   4.593   1.750
 3124SOL     OW11305   1.073   5.101   2.740
 3124SOL    HW111306   1.087   5.019   2.685
 3124SOL    HW211307   1.126   5.177   2.702
 3125SOL     OW11308   0.314   4.542   2.924
 3125SOL    HW111309   0.403   4.578   2.954
 3125SOL    HW211310   0.322   4.444   2.905
 3126SOL     OW11311   0.347   4.244   2.875
 3126SOL    HW111312   0.312   4.156   2.842
 3126SOL    HW211313   0.431   4.266   2.826
 3127SOL     OW11314   1.157   4.058   3.542
 3127SOL    HW111315   1.109   4.100   3.618
 3127SOL    HW211316   1.237   4.113   3.518
 3128SOL     OW11317   1.186   3.898   3.320
 3128SOL    HW111318   1.169   3.953   3.402
 3128SOL    HW211319   1.221   3.957   3.247
 3129SOL     OW11320   9.993   5.054   2.068
 3129SOL    HW111321   9.977   5.058   1.969
 3129SOL    HW211322   0.044   4.971   2.090
 3130SOL     OW11323   0.464   5.301   2.714
 3130SOL    HW111324   0.525   5.379   2.732
 3130SOL    HW211325   0.518   5.224   2.681
 3131SOL     OW11326   0.080   4.252   2.967
 3131SOL    HW111327   0.174   4.258   2.935
 3131SOL    HW211328   0.080   4.232   3.066
 3132SOL     OW11329   0.195   4.276   3.581
 3132SOL    HW111330   0.277   4.236   3.538
 3132SOL    HW211331   0.161   4.350   3.523
 3133SOL     OW11332   1.401   4.654   3.474
 3133SOL    HW111333   1.430   4.750   3.481
 3133SOL    HW211334   1.366   4.637   3.382
 3134SOL     OW11335   0.839   4.296   2.238
 3134SOL    HW111336   0.853   4.216   2.180
 3134SOL    HW211337   0.759   4.347   2.206
 3135SOL     OW11338   1.598   4.346   3.023
 3135SOL    HW111339   1.556   4.298   3.101
 3135SOL    HW211340   1.694   4.320   3.016
 3136SOL     OW11341   0.323   5.286   3.571
 3136SOL    HW111342   0.255   5.337   3.624
 3136SOL    HW211343   0.319   5.189   3.597
 3137SOL     OW11344   0.788   4.197   3.056
 3137SOL    HW111345   0.721   4.124   3.042
 3137SOL    HW211346   0.747   4.284   3.029
 3138SOL     OW11347   0.898   5.407   3.350
 3138SOL    HW111348   0.900   5.336   3.280
 3138SOL    HW211349   0.911   5.497   3.306
 3139SOL     OW11350   0.535   4.239   1.968
 3139SOL    HW111351   0.586   4.302   2.026
 3139SOL    HW211352   0.440   4.268   1.962
 3140SOL     OW11353   0.149   4.843   3.302
 3140SOL    HW111354   0.162   4.798   3.390
 3140SOL    HW211355   0.150   4.775   3.229
 3141SOL     OW11356   1.328   4.782   3.013
 3141SOL    HW111357   1.328   4.718   2.936
 3141SOL    HW211358   1.267   4.859   2.992
 3142SOL     OW11359   1.382   4.607   2.065
 3142SOL    HW111360   1.367   4.521   2.115
 3142SOL    HW211361   1.329   4.606   1.980
 3143SOL     OW11362   1.759   5.453   3.033
 3143SOL    HW111363   1.830   5.484   2.970
 3143SOL    HW211364   1.734   5.359   3.012
 3144SOL     OW11365   1.280   5.463   2.923
 3144SOL    HW111366   1.367   5.512   2.930
 3144SOL    HW211367   1.292   5.369   2.957
 3145SOL     OW11368   0.131   4.997   2.905
 3145SOL    HW111369   0.107   5.015   3.000
 3145SOL    HW211370   0.049   4.976   2.853
 3146SOL     OW11371   0.736   5.423   3.576
 3146SOL    HW111372   0.677   5.504   3.573
 3146SOL    HW211373   0.795   5.421   3.496
 3147SOL     OW11374   1.776   3.959   2.324
 3147SOL    HW111375   1.825   3.923   2.245
 3147SOL    HW211376   1.720   3.887   2.365
 3148SOL     OW11377   1.406   5.309   2.365
 3148SOL    HW111378   1.463   5.345   2.292
 3148SOL    HW211379   1.343   5.380   2.397
 3149SOL     OW11380   0.118   5.435   3.690
 3149SOL    HW111381   0.062   5.400   3.766
 3149SOL    HW211382   0.188   5.496   3.726
 3150SOL     OW11383   1.284   4.658   2.545
 3150SOL    HW111384   1.357   4.590   2.536
 3150SOL    HW211385   1.306   4.738   2.489
 3151SOL     OW11386   0.686   5.389   2.005
 3151SOL    HW111387   0.687   5.416   1.908
 3151SOL    HW211388   0.642   5.299   2.013
 3152SOL     OW11389   1.614   5.443   3.285
 3152SOL    HW111390   1.661   5.437   3.197
 3152SOL    HW211391   1.641   5.527   3.332
 3153SOL     OW11392   1.853   3.859   2.865
 3153SOL    HW111393   1.887   3.771   2.833
 3153SOL    HW211394   1.769   3.882   2.816
 3154SOL     OW11395   0.286   4.104   2.537
 3154SOL    HW111396   0.191   4.130   2.526
 3154SOL    HW211397   0.299   4.062   2.627
 3155SOL     OW11398   1.227   5.286   1.921
 3155SOL    HW111399   1.224   5.194   1.961
 3155SOL    HW211400   1.146   5.300   1.863
 3156SOL     OW11401   0.967   4.636   2.184
 3156SOL    HW111402   0.991   4.649   2.088
 3156SOL    HW211403   1.014   4.556   2.220
 3157SOL     OW11404   1.487   5.378   1.925
 3157SOL    HW111405   1.393   5.344   1.917
 3157SOL    HW211406   1.529   5.382   1.835
 3158SOL     OW11407   0.390   4.976   3.307
 3158SOL    HW111408   0.383   5.067   3.266
 3158SOL    HW211409   0.300   4.932   3.306
 3159SOL     OW11410   1.613   5.025   3.157
 3159SOL    HW111411   1.668   5.004   3.238
 3159SOL    HW211412   1.545   5.095   3.180
 3160SOL     OW11413   1.088   4.849   2.639
 3160SOL    HW111414   1.002   4.805   2.667
 3160SOL    HW211415   1.149   4.780   2.601
 3161SOL     OW11416   1.069   3.880   2.899
 3161SOL    HW111417   1.064   3.850   2.804
 3161SOL    HW211418   1.059   3.800   2.959
 3162SOL     OW11419   0.589   5.171   2.376
 3162SOL    HW111420   0.643   5.134   2.301
 3162SOL    HW211421   0.493   5.176   2.349
 3163SOL     OW11422   1.824   4.053   3.303
 3163SOL    HW111423   1.864   4.140   3.275
 3163SOL    HW211424   1.836   3.985   3.231
 3164SOL     OW11425   0.311   5.066   2.087
 3164SOL    HW111426   0.259   4.981   2.088
 3164SOL    HW211427   0.305   5.110   2.177
 3165SOL     OW11428   0.184   4.711   3.541
 3165SOL    HW111429   0.116   4.714   3.615
 3165SOL    HW211430   0.275   4.699   3.580
 3166SOL     OW11431   0.733   3.885   3.343
 3166SOL    HW111432   0.820   3.851   3.306
 3166SOL    HW211433   0.746   3.910   3.438
 3167SOL     OW11434   0.146   4.047   1.868
 3167SOL    HW111435   0.067   3.989   1.847
 3167SOL    HW211436   0.158   4.114   1.795
 3168SOL     OW11437   1.357   4.589   3.204
 3168SOL    HW111438   1.331   4.662   3.140
 3168SOL    HW211439   1.456   4.576   3.200
 3169SOL     OW11440   0.076   3.834   2.103
 3169SOL    HW111441   0.084   3.929   2.133
 3169SOL    HW211442   0.166   3.800   2.074
 3170SOL     OW11443   1.204   5.036   2.029
 3170SOL    HW111444   1.111   5.000   2.016
 3170SOL    HW211445   1.222   5.046   2.127
 3171SOL     OW11446   1.524   5.584   2.937
 3171SOL    HW111447   1.551   5.637   2.856
 3171SOL    HW211448   1.604   5.538   2.976
 3172SOL     OW11449   0.703   4.182   3.712
 3172SOL    HW111450   0.767   4.258   3.703
 3172SOL    HW211451   0.739   4.102   3.664
 3173SOL     OW11452   1.493   4.911   3.478
 3173SOL    HW111453   1.481   4.936   3.574
 3173SOL    HW211454   1.584   4.939   3.448
 3174SOL     OW11455   0.386   5.499   3.417
 3174SOL    HW111456   0.295   5.537   3.404
 3174SOL    HW211457   0.380   5.412   3.465
 3175SOL     OW11458   1.623   4.594   3.135
 3175SOL    HW111459   1.623   4.509   3.082
 3175SOL    HW211460   1.627   4.672   3.073
 3176SOL     OW11461   0.566   4.476   2.554
 3176SOL    HW111462   0.618   4.560   2.541
 3176SOL    HW211463   0.505   4.461   2.475
 3177SOL     OW11464   1.723   4.086   3.555
 3177SOL    HW111465   1.760   4.080   3.462
 3177SOL    HW211466   1.642   4.028   3.563
 3178SOL     OW11467   1.796   4.628   3.342
 3178SOL    HW111468   1.845   4.715   3.329
 3178SOL    HW211469   1.735   4.612   3.264
 3179SOL     OW11470   0.866   5.073   1.950
 3179SOL    HW111471   0.830   5.082   2.043
 3179SOL    HW211472   0.892   5.163   1.915
 3180SOL     OW11473   0.646   5.498   2.747
 3180SOL    HW111474   0.613   5.593   2.748
 3180SOL    HW211475   0.744   5.497   2.768
 3181SOL     OW11476   0.860   4.727   2.740
 3181SOL    HW111477   0.892   4.646   2.789
 3181SOL    HW211478   0.800   4.780   2.799
 3182SOL     OW11479   1.027   4.668   1.919
 3182SOL    HW111480   1.007   4.745   1.858
 3182SOL    HW211481   1.112   4.624   1.891
 3183SOL     OW11482   1.814   5.302   2.720
 3183SOL    HW111483   1.746   5.288   2.648
 3183SOL    HW211484   1.789   5.248   2.801
 3184SOL     OW11485   0.280   5.037   3.691
 3184SOL    HW111486   0.184   5.009   3.677
 3184SOL    HW211487   0.294   5.058   3.788
 3185SOL     OW11488   0.138   5.058   2.517
 3185SOL    HW111489   0.040   5.071   2.530
 3185SOL    HW211490   0.161   4.961   2.524
 3186SOL     OW11491   0.670   5.180   3.677
 3186SOL    HW111492   0.614   5.121   3.620
 3186SOL    HW211493   0.692   5.264   3.628
 3187SOL     OW11494   1.869   3.851   3.135
 3187SOL    HW111495   1.932   3.775   3.148
 3187SOL    HW211496   1.851   3.864   3.038
 3188SOL     OW11497   0.452   4.198   2.338
 3188SOL    HW111498   0.498   4.127   2.285
 3188SOL    HW211499   0.398   4.156   2.411
 3189SOL     OW11500   1.698   5.202   2.955
 3189SOL    HW111501   1.622   5.187   2.892
 3189SOL    HW211502   1.697   5.132   3.027
 3190SOL     OW11503   0.400   4.245   3.149
 3190SOL    HW111504   0.448   4.165   3.185
 3190SOL    HW211505   0.394   4.238   3.049
 3191SOL     OW11506   0.818   5.292   2.545
 3191SOL    HW111507   0.762   5.345   2.481
 3191SOL    HW211508   0.763   5.216   2.582
 3192SOL     OW11509   1.438   3.959   2.967
 3192SOL    HW111510   1.453   3.861   2.982
 3192SOL    HW211511   1.381   3.996   3.040
 3193SOL     OW11512   1.044   3.630   3.024
 3193SOL    HW111513   0.988   3.547   3.018
 3193SOL    HW211514   1.135   3.611   2.987
 3194SOL     OW11515   0.787   5.051   2.216
 3194SOL    HW111516   0.776   4.953   2.233
 3194SOL    HW211517   0.865   5.086   2.268
 3195SOL     OW11518   0.625   5.291   3.181
 3195SOL    HW111519   0.622   5.390   3.195
 3195SOL    HW211520   0.721   5.261   3.177
 3196SOL     OW11521   1.349   3.769   2.067
 3196SOL    HW111522   1.420   3.703   2.041
 3196SOL    HW211523   1.260   3.735   2.038
 3197SOL     OW11524   1.341   4.196   2.540
 3197SOL    HW111525   1.280   4.273   2.523
 3197SOL    HW211526   1.319   4.154   2.628
 3198SOL     OW11527   1.612   3.920   2.761
 3198SOL    HW111528   1.551   3.948   2.834
 3198SOL    HW211529   1.616   3.992   2.691
 3199SOL     OW11530   0.168   4.835   2.105
 3199SOL    HW111531   0.242   4.797   2.160
 3199SOL    HW211532   0.129   4.764   2.047
 3200SOL     OW11533   0.899   5.405   2.187
 3200SOL    HW111534   0.822   5.393   2.125
 3200SOL    HW211535   0.878   5.478   2.252
 3201SOL     OW11536   0.275   4.381   3.823
 3201SOL    HW111537   0.201   4.400   3.886
 3201SOL    HW211538   0.238   4.339   3.740
 3202SOL     OW11539   0.272   3.972   4.662
 3202SOL    HW111540   0.298   3.937   4.752
 3202SOL    HW211541   0.192   3.922   4.629
 3203SOL     OW11542   0.023   4.106   4.344
 3203SOL    HW111543  10.000   4.145   4.434
 3203SOL    HW211544   9.987   4.013   4.339
 3204SOL     OW11545   0.533   5.068   4.921
 3204SOL    HW111546   0.449   5.074   4.866
 3204SOL    HW211547   0.573   5.159   4.932
 3205SOL     OW11548   1.594   5.186   4.412
 3205SOL    HW111549   1.539   5.165   4.493
 3205SOL    HW211550   1.534   5.219   4.339
 3206SOL     OW11551   1.794   4.294   3.922
 3206SOL    HW111552   1.748   4.312   3.835
 3206SOL    HW211553   1.745   4.222   3.971
 3207SOL     OW11554   0.671   4.867   4.775
 3207SOL    HW111555   0.610   4.912   4.840
 3207SOL    HW211556   0.729   4.935   4.730
 3208SOL     OW11557   0.839   4.463   5.524
 3208SOL    HW111558   0.782   4.512   5.589
 3208SOL    HW211559   0.874   4.527   5.455
 3209SOL     OW11560   0.705   4.706   4.389
 3209SOL    HW111561   0.779   4.696   4.456
 3209SOL    HW211562   0.633   4.764   4.427
 3210SOL     OW11563   0.317   5.154   4.768
 3210SOL    HW111564   0.239   5.132   4.710
 3210SOL    HW211565   0.383   5.207   4.715
 3211SOL     OW11566   1.487   5.119   5.123
 3211SOL    HW111567   1.549   5.096   5.197
 3211SOL    HW211568   1.419   5.185   5.156
 3212SOL     OW11569   0.490   4.182   5.226
 3212SOL    HW111570   0.580   4.196   5.268
 3212SOL    HW211571   0.447   4.100   5.264
 3213SOL     OW11572   1.642   4.155   4.523
 3213SOL    HW111573   1.564   4.144   4.461
 3213SOL    HW211574   1.635   4.242   4.572
 3214SOL     OW11575   0.194   5.400   4.108
 3214SOL    HW111576   0.140   5.456   4.170
 3214SOL    HW211577   0.276   5.450   4.080
 3215SOL     OW11578   1.234   5.032   5.348
 3215SOL    HW111579   1.327   5.002   5.368
 3215SOL    HW211580   1.168   4.969   5.388
 3216SOL     OW11581   0.349   5.200   4.206
 3216SOL    HW111582   0.293   5.278   4.182
 3216SOL    HW211583   0.298   5.139   4.267
 3217SOL     OW11584   0.313   4.809   4.665
 3217SOL    HW111585   0.292   4.711   4.669
 3217SOL    HW211586   0.263   4.856   4.737
 3218SOL     OW11587   0.561   5.584   5.069
 3218SOL    HW111588   0.481   5.554   5.122
 3218SOL    HW211589   0.606   5.660   5.117
 3219SOL     OW11590   0.590   4.711   3.904
 3219SOL    HW111591   0.634   4.753   3.825
 3219SOL    HW211592   0.640   4.735   3.987
 3220SOL     OW11593   1.730   3.821   5.206
 3220SOL    HW111594   1.749   3.878   5.125
 3220SOL    HW211595   1.661   3.867   5.263
 3221SOL     OW11596   0.136   4.343   4.243
 3221SOL    HW111597   0.120   4.246   4.258
 3221SOL    HW211598   0.081   4.396   4.307
 3222SOL     OW11599   1.865   5.472   4.058
 3222SOL    HW111600   1.948   5.458   4.112
 3222SOL    HW211601   1.865   5.564   4.019
 3223SOL     OW11602   0.009   5.331   3.921
 3223SOL    HW111603   0.004   5.232   3.918
 3223SOL    HW211604   0.076   5.359   3.990
 3224SOL     OW11605   1.680   4.602   4.377
 3224SOL    HW111606   1.772   4.583   4.412
 3224SOL    HW211607   1.687   4.657   4.294
 3225SOL     OW11608   1.681   4.813   4.174
 3225SOL    HW111609   1.768   4.797   4.127
 3225SOL    HW211610   1.698   4.868   4.256
 3226SOL     OW11611   0.619   5.101   4.488
 3226SOL    HW111612   0.574   5.011   4.487
 3226SOL    HW211613   0.620   5.138   4.395
 3227SOL     OW11614   1.131   4.901   5.127
 3227SOL    HW111615   1.186   4.837   5.072
 3227SOL    HW211616   1.188   4.939   5.200
 3228SOL     OW11617   0.325   4.809   5.077
 3228SOL    HW111618   0.364   4.718   5.060
 3228SOL    HW211619   0.278   4.841   4.995
 3229SOL     OW11620   1.571   4.770   3.921
 3229SOL    HW111621   1.486   4.718   3.928
 3229SOL    HW211622   1.611   4.780   4.012
 3230SOL     OW11623   1.109   5.535   5.286
 3230SOL    HW111624   1.121   5.622   5.237
 3230SOL    HW211625   1.187   5.475   5.267
 3231SOL     OW11626   0.383   3.970   5.359
 3231SOL    HW111627   0.438   3.912   5.418
 3231SOL    HW211628   0.302   4.001   5.409
 3232SOL     OW11629   1.461   5.110   4.636
 3232SOL    HW111630   1.404   5.121   4.718
 3232SOL    HW211631   1.462   5.014   4.609
 3233SOL     OW11632   1.628   5.608   4.264
 3233SOL    HW111633   1.621   5.535   4.196
 3233SOL    HW211634   1.637   5.567   4.355
 3234SOL     OW11635   0.583   4.437   3.960
 3234SOL    HW111636   0.595   4.534   3.938
 3234SOL    HW211637   0.518   4.428   4.036
 3235SOL     OW11638   1.287   4.127   4.647
 3235SOL    HW111639   1.194   4.093   4.635
 3235SOL    HW211640   1.334   4.073   4.718
 3236SOL     OW11641   1.601   5.415   4.067
 3236SOL    HW111642   1.700   5.424   4.064
 3236SOL    HW211643   1.565   5.403   3.975
 3237SOL     OW11644   0.815   4.327   5.153
 3237SOL    HW111645   0.787   4.285   5.239
 3237SOL    HW211646   0.798   4.263   5.078
 3238SOL     OW11647   1.366   4.169   5.378
 3238SOL    HW111648   1.374   4.215   5.466
 3238SOL    HW211649   1.428   4.090   5.376
 3239SOL     OW11650   0.933   4.651   5.333
 3239SOL    HW111651   0.994   4.590   5.281
 3239SOL    HW211652   0.874   4.700   5.269
 3240SOL     OW11653   1.022   4.151   4.891
 3240SOL    HW111654   0.925   4.155   4.917
 3240SOL    HW211655   1.030   4.115   4.798
 3241SOL     OW11656   1.044   4.405   4.096
 3241SOL    HW111657   1.054   4.366   4.188
 3241SOL    HW211658   0.961   4.369   4.054
 3242SOL     OW11659   0.003   4.570   4.650
 3242SOL    HW111660   0.099   4.568   4.680
 3242SOL    HW211661   9.947   4.617   4.719
 3243SOL     OW11662   0.147   5.554   5.298
 3243SOL    HW111663   0.139   5.528   5.394
 3243SOL    HW211664   0.139   5.473   5.240
 3244SOL     OW11665   0.883   4.037   3.933
 3244SOL    HW111666   0.941   4.074   3.861
 3244SOL    HW211667   0.826   3.964   3.895
 3245SOL     OW11668   1.657   4.312   5.562
 3245SOL    HW111669   1.644   4.400   5.516
 3245SOL    HW211670   1.686   4.243   5.495
 3246SOL     OW11671   1.388   4.864   4.220
 3246SOL    HW111672   1.479   4.858   4.179
 3246SOL    HW211673   1.338   4.940   4.179
 3247SOL     OW11674   0.591   3.838   4.674
 3247SOL    HW111675   0.595   3.877   4.767
 3247SOL    HW211676   0.575   3.911   4.608
 3248SOL     OW11677   0.996   5.202   4.185
 3248SOL    HW111678   0.994   5.279   4.121
 3248SOL    HW211679   0.959   5.230   4.273
 3249SOL     OW11680   0.384   5.536   4.575
 3249SOL    HW111681   0.416   5.442   4.590
 3249SOL    HW211682   0.455   5.600   4.604
 3250SOL     OW11683   1.829   4.796   4.624
 3250SOL    HW111684   1.795   4.847   4.546
 3250SOL    HW211685   1.752   4.773   4.685
 3251SOL     OW11686   1.260   5.269   5.189
 3251SOL    HW111687   1.234   5.189   5.243
 3251SOL    HW211688   1.188   5.288   5.122
 3252SOL     OW11689   0.345   4.665   4.058
 3252SOL    HW111690   0.416   4.679   3.988
 3252SOL    HW211691   0.350   4.571   4.092
 3253SOL     OW11692   1.462   4.460   4.436
 3253SOL    HW111693   1.461   4.433   4.533
 3253SOL    HW211694   1.542   4.517   4.418
 3254SOL     OW11695   0.433   4.897   5.441
 3254SOL    HW111696   0.487   4.927   5.362
 3254SOL    HW211697   0.361   4.964   5.460
 3255SOL     OW11698   1.128   5.547   3.864
 3255SOL    HW111699   1.067   5.520   3.938
 3255SOL    HW211700   1.166   5.465   3.821
 3256SOL     OW11701   0.215   3.891   5.159
 3256SOL    HW111702   0.119   3.909   5.180
 3256SOL    HW211703   0.272   3.925   5.234
 3257SOL     OW11704   1.660   5.136   3.835
 3257SOL    HW111705   1.608   5.222   3.834
 3257SOL    HW211706   1.604   5.063   3.796
 3258SOL     OW11707   0.437   5.491   4.021
 3258SOL    HW111708   0.494   5.538   4.088
 3258SOL    HW211709   0.485   5.410   3.987
 3259SOL     OW11710   1.393   3.830   4.168
 3259SOL    HW111711   1.390   3.802   4.073
 3259SOL    HW211712   1.481   3.803   4.208
 3260SOL     OW11713   0.180   5.525   4.892
 3260SOL    HW111714   0.250   5.460   4.921
 3260SOL    HW211715   0.143   5.497   4.804
 3261SOL     OW11716   0.954   5.415   4.603
 3261SOL    HW111717   1.045   5.374   4.607
 3261SOL    HW211718   0.903   5.375   4.526
 3262SOL     OW11719   0.401   4.398   4.173
 3262SOL    HW111720   0.455   4.316   4.193
 3262SOL    HW211721   0.306   4.382   4.199
 3263SOL     OW11722   1.533   3.937   5.406
 3263SOL    HW111723   1.541   3.935   5.505
 3263SOL    HW211724   1.464   3.869   5.377
 3264SOL     OW11725   0.660   3.818   3.831
 3264SOL    HW111726   0.691   3.729   3.865
 3264SOL    HW211727   0.590   3.805   3.761
 3265SOL     OW11728   0.746   3.951   5.425
 3265SOL    HW111729   0.827   3.918   5.473
 3265SOL    HW211730   0.664   3.908   5.464
 3266SOL     OW11731   0.848   5.199   4.898
 3266SOL    HW111732   0.833   5.158   4.808
 3266SOL    HW211733   0.857   5.127   4.967
 3267SOL     OW11734   1.284   4.343   5.178
 3267SOL    HW111735   1.323   4.293   5.255
 3267SOL    HW211736   1.334   4.429   5.165
 3268SOL     OW11737   0.817   5.066   4.665
 3268SOL    HW111738   0.909   5.083   4.629
 3268SOL    HW211739   0.750   5.087   4.594
 3269SOL     OW11740   0.821   4.245   4.599
 3269SOL    HW111741   0.812   4.207   4.507
 3269SOL    HW211742   0.885   4.322   4.597
 3270SOL     OW11743   1.464   4.955   3.751
 3270SOL    HW111744   1.503   4.883   3.808
 3270SOL    HW211745   1.370   4.972   3.779
 3271SOL     OW11746   0.309   3.780   3.898
 3271SOL    HW111747   0.305   3.878   3.916
 3271SOL    HW211748   0.380   3.738   3.955
 3272SOL     OW11749   0.997   4.102   4.178
 3272SOL    HW111750   0.959   4.075   4.089
 3272SOL    HW211751   1.095   4.085   4.179
 3273SOL     OW11752   1.042   4.472   5.149
 3273SOL    HW111753   0.966   4.408   5.155
 3273SOL    HW211754   1.128   4.421   5.157
 3274SOL     OW11755   1.217   5.343   4.575
 3274SOL    HW111756   1.254   5.393   4.497
 3274SOL    HW211757   1.271   5.363   4.656
 3275SOL     OW11758   0.499   4.860   4.475
 3275SOL    HW111759   0.434   4.842   4.549
 3275SOL    HW211760   0.451   4.858   4.387
 3276SOL     OW11761   1.268   5.512   4.351
 3276SOL    HW111762   1.309   5.576   4.285
 3276SOL    HW211763   1.188   5.555   4.393
 3277SOL     OW11764   1.041   4.179   3.755
 3277SOL    HW111765   0.988   4.259   3.727
 3277SOL    HW211766   1.109   4.206   3.824
 3278SOL     OW11767   0.106   4.335   5.142
 3278SOL    HW111768   0.191   4.324   5.090
 3278SOL    HW211769   0.118   4.299   5.235
 3279SOL     OW11770   0.582   3.944   4.930
 3279SOL    HW111771   0.626   3.910   5.013
 3279SOL    HW211772   0.485   3.920   4.931
 3280SOL     OW11773   0.795   4.147   4.353
 3280SOL    HW111774   0.713   4.171   4.301
 3280SOL    HW211775   0.871   4.131   4.290
 3281SOL     OW11776   1.495   4.855   4.550
 3281SOL    HW111777   1.419   4.801   4.511
 3281SOL    HW211778   1.566   4.866   4.481
 3282SOL     OW11779   1.457   4.344   4.689
 3282SOL    HW111780   1.397   4.264   4.682
 3282SOL    HW211781   1.527   4.327   4.759
 3283SOL     OW11782   1.818   4.493   4.104
 3283SOL    HW111783   1.881   4.456   4.172
 3283SOL    HW211784   1.809   4.428   4.029
 3284SOL     OW11785   0.534   5.262   3.897
 3284SOL    HW111786   0.448   5.213   3.913
 3284SOL    HW211787   0.579   5.226   3.816
 3285SOL     OW11788   1.740   4.949   4.406
 3285SOL    HW111789   1.839   4.958   4.393
 3285SOL    HW211790   1.698   5.040   4.403
 3286SOL     OW11791   1.383   4.305   3.736
 3286SOL    HW111792   1.337   4.276   3.821
 3286SOL    HW211793   1.482   4.304   3.750
 3287SOL     OW11794   0.547   3.986   4.028
 3287SOL    HW111795   0.596   3.916   3.976
 3287SOL    HW211796   0.524   4.062   3.967
 3288SOL     OW11797   1.707   5.006   5.286
 3288SOL    HW111798   1.770   4.930   5.269
 3288SOL    HW211799   1.759   5.085   5.319
 3289SOL     OW11800   0.893   5.012   5.086
 3289SOL    HW111801   0.849   5.051   5.167
 3289SOL    HW211802   0.981   4.973   5.113
 3290SOL     OW11803   1.660   5.384   5.418
 3290SOL    HW111804   1.661   5.438   5.333
 3290SOL    HW211805   1.731   5.314   5.414
 3291SOL     OW11806   1.127   4.977   4.840
 3291SOL    HW111807   1.051   4.976   4.905
 3291SOL    HW211808   1.097   5.018   4.753
 3292SOL     OW11809   1.608   4.765   4.781
 3292SOL    HW111810   1.611   4.841   4.846
 3292SOL    HW211811   1.550   4.789   4.704
 3293SOL     OW11812   0.963   3.784   5.058
 3293SOL    HW111813   0.984   3.783   4.960
 3293SOL    HW211814   1.033   3.835   5.107
 3294SOL     OW11815   1.052   4.871   5.456
 3294SOL    HW111816   0.995   4.920   5.522
 3294SOL    HW211817   1.001   4.795   5.417
 3295SOL     OW11818   0.746   4.774   4.122
 3295SOL    HW111819   0.734   4.744   4.216
 3295SOL    HW211820   0.826   4.728   4.082
 3296SOL     OW11821   0.431   4.564   5.024
 3296SOL    HW111822   0.510   4.557   5.085
 3296SOL    HW211823   0.386   4.475   5.017
 3297SOL     OW11824   1.244   4.119   5.031
 3297SOL    HW111825   1.265   4.202   5.083
 3297SOL    HW211826   1.161   4.133   4.978
 3298SOL     OW11827   0.113   5.350   5.114
 3298SOL    HW111828   0.070   5.412   5.048
 3298SOL    HW211829   0.205   5.327   5.083
 3299SOL     OW11830   0.398   4.871   4.223
 3299SOL    HW111831   0.455   4.932   4.167
 3299SOL    HW211832   0.373   4.790   4.170
 3300SOL     OW11833   0.541   4.290   4.595
 3300SOL    HW111834   0.533   4.362   4.526
 3300SOL    HW211835   0.635   4.256   4.597
 3301SOL     OW11836   1.248   5.097   4.125
 3301SOL    HW111837   1.314   5.163   4.159
 3301SOL    HW211838   1.156   5.122   4.156
 3302SOL     OW11839   1.341   5.139   4.882
 3302SOL    HW111840   1.391   5.121   4.967
 3302SOL    HW211841   1.262   5.078   4.877
 3303SOL     OW11842   1.589   4.349   4.191
 3303SOL    HW111843   1.534   4.388   4.264
 3303SOL    HW211844   1.661   4.413   4.165
 3304SOL     OW11845   0.345   5.323   4.976
 3304SOL    HW111846   0.321   5.256   4.906
 3304SOL    HW211847   0.445   5.330   4.982
 3305SOL     OW11848   0.432   4.431   5.317
 3305SOL    HW111849   0.511   4.484   5.287
 3305SOL    HW211850   0.442   4.336   5.289
 3306SOL     OW11851   1.623   4.546   5.432
 3306SOL    HW111852   1.531   4.585   5.428
 3306SOL    HW211853   1.668   4.556   5.344
 3307SOL     OW11854   0.969   3.874   5.570
 3307SOL    HW111855   1.035   3.930   5.520
 3307SOL    HW211856   1.017   3.798   5.614
 3308SOL     OW11857   0.545   4.610   4.781
 3308SOL    HW111858   0.582   4.702   4.767
 3308SOL    HW211859   0.504   4.604   4.872
 3309SOL     OW11860   1.222   4.246   3.955
 3309SOL    HW111861   1.253   4.179   4.023
 3309SOL    HW211862   1.166   4.316   4.001
 3310SOL     OW11863   0.316   3.868   4.911
 3310SOL    HW111864   0.279   3.896   5.000
 3310SOL    HW211865   0.284   3.776   4.889
 3311SOL     OW11866   0.036   5.084   5.052
 3311SOL    HW111867   0.059   5.018   5.124
 3311SOL    HW211868   0.052   5.177   5.087
 3312SOL     OW11869   0.725   4.402   4.814
 3312SOL    HW111870   0.756   4.356   4.731
 3312SOL    HW211871   0.655   4.469   4.791
 3313SOL     OW11872   1.781   4.688   5.606
 3313SOL    HW111873   1.725   4.632   5.545
 3313SOL    HW211874   1.730   4.709   5.689
 3314SOL     OW11875   0.553   3.755   4.327
 3314SOL    HW111876   0.530   3.850   4.350
 3314SOL    HW211877   0.505   3.693   4.389
 3315SOL     OW11878   1.619   4.119   4.045
 3315SOL    HW111879   1.664   4.051   4.105
 3315SOL    HW211880   1.591   4.198   4.100
 3316SOL     OW11881   1.084   5.220   5.479
 3316SOL    HW111882   1.022   5.260   5.412
 3316SOL    HW211883   1.141   5.150   5.435
 3317SOL     OW11884   1.870   5.217   5.346
 3317SOL    HW111885   1.906   5.223   5.253
 3317SOL    HW211886   1.944   5.230   5.412
 3318SOL     OW11887   0.297   4.651   5.414
 3318SOL    HW111888   0.349   4.737   5.414
 3318SOL    HW211889   0.354   4.578   5.376
 3319SOL     OW11890   1.507   3.977   3.830
 3319SOL    HW111891   1.454   3.901   3.869
 3319SOL    HW211892   1.544   4.033   3.904
 3320SOL     OW11893   1.269   4.547   3.689
 3320SOL    HW111894   1.307   4.455   3.702
 3320SOL    HW211895   1.314   4.590   3.610
 3321SOL     OW11896   1.074   5.102   4.598
 3321SOL    HW111897   1.099   5.016   4.554
 3321SOL    HW211898   1.141   5.172   4.573
 3322SOL     OW11899   0.287   4.532   4.703
 3322SOL    HW111900   0.384   4.555   4.716
 3322SOL    HW211901   0.277   4.432   4.699
 3323SOL     OW11902   0.321   4.233   4.738
 3323SOL    HW111903   0.296   4.140   4.710
 3323SOL    HW211904   0.404   4.261   4.690
 3324SOL     OW11905   1.115   4.073   5.435
 3324SOL    HW111906   1.069   4.142   5.491
 3324SOL    HW211907   1.206   4.105   5.411
 3325SOL     OW11908   1.146   3.930   5.201
 3325SOL    HW111909   1.118   3.977   5.284
 3325SOL    HW211910   1.187   3.995   5.137
 3326SOL     OW11911   0.030   5.053   3.938
 3326SOL    HW111912   0.007   5.031   3.843
 3326SOL    HW211913   0.049   4.969   3.989
 3327SOL     OW11914   0.122   5.411   4.646
 3327SOL    HW111915   0.133   5.316   4.617
 3327SOL    HW211916   0.192   5.468   4.603
 3328SOL     OW11917   0.503   5.295   4.636
 3328SOL    HW111918   0.575   5.355   4.670
 3328SOL    HW211919   0.543   5.222   4.580
 3329SOL     OW11920   0.898   4.578   4.939
 3329SOL    HW111921   0.962   4.543   5.007
 3329SOL    HW211922   0.839   4.504   4.907
 3330SOL     OW11923   0.048   4.243   4.813
 3330SOL    HW111924   0.146   4.246   4.791
 3330SOL    HW211925   0.035   4.270   4.908
 3331SOL     OW11926   0.190   4.335   5.418
 3331SOL    HW111927   0.275   4.374   5.381
 3331SOL    HW211928   0.134   4.408   5.456
 3332SOL     OW11929   1.388   4.669   5.376
 3332SOL    HW111930   1.412   4.766   5.383
 3332SOL    HW211931   1.381   4.644   5.280
 3333SOL     OW11932   0.822   4.307   3.990
 3333SOL    HW111933   0.819   4.210   3.966
 3333SOL    HW211934   0.733   4.349   3.972
 3334SOL     OW11935   1.657   4.306   4.869
 3334SOL    HW111936   1.654   4.260   4.957
 3334SOL    HW211937   1.752   4.309   4.837
 3335SOL     OW11938   0.352   5.333   5.505
 3335SOL    HW111939   0.267   5.384   5.523
 3335SOL    HW211940   0.331   5.236   5.495
 3336SOL     OW11941   0.755   4.163   4.945
 3336SOL    HW111942   0.687   4.090   4.934
 3336SOL    HW211943   0.725   4.244   4.894
 3337SOL     OW11944   1.036   5.341   5.033
 3337SOL    HW111945   0.977   5.292   4.969
 3337SOL    HW211946   0.994   5.341   5.124
 3338SOL     OW11947   0.473   4.181   3.847
 3338SOL    HW111948   0.562   4.189   3.803
 3338SOL    HW211949   0.430   4.271   3.853
 3339SOL     OW11950   1.263   4.751   4.929
 3339SOL    HW111951   1.278   4.676   4.865
 3339SOL    HW211952   1.221   4.828   4.881
 3340SOL     OW11953   1.330   4.653   3.934
 3340SOL    HW111954   1.255   4.640   3.999
 3340SOL    HW211955   1.304   4.614   3.845
 3341SOL     OW11956   1.851   5.349   4.929
 3341SOL    HW111957   1.896   5.404   4.858
 3341SOL    HW211958   1.778   5.294   4.887
 3342SOL     OW11959   0.152   4.899   4.875
 3342SOL    HW111960   0.136   4.983   4.927
 3342SOL    HW211961   0.067   4.869   4.833
 3343SOL     OW11962   1.765   3.935   4.188
 3343SOL    HW111963   1.820   3.909   4.109
 3343SOL    HW211964   1.718   3.855   4.224
 3344SOL     OW11965   1.413   5.298   4.231
 3344SOL    HW111966   1.477   5.340   4.167
 3344SOL    HW211967   1.356   5.368   4.272
 3345SOL     OW11968   0.111   5.470   5.564
 3345SOL    HW111969   0.059   5.418   5.632
 3345SOL    HW211970   0.173   5.533   5.610
 3346SOL     OW11971   1.307   4.702   4.419
 3346SOL    HW111972   1.347   4.610   4.410
 3346SOL    HW211973   1.328   4.755   4.337
 3347SOL     OW11974   0.759   5.425   3.858
 3347SOL    HW111975   0.774   5.419   3.759
 3347SOL    HW211976   0.681   5.368   3.883
 3348SOL     OW11977   1.742   5.487   5.157
 3348SOL    HW111978   1.784   5.428   5.088
 3348SOL    HW211979   1.664   5.534   5.116
 3349SOL     OW11980   0.427   3.986   4.426
 3349SOL    HW111981   0.363   3.971   4.351
 3349SOL    HW211982   0.376   3.992   4.512
 3350SOL     OW11983   1.242   5.318   3.764
 3350SOL    HW111984   1.219   5.232   3.808
 3350SOL    HW211985   1.184   5.332   3.684
 3351SOL     OW11986   0.796   4.755   5.118
 3351SOL    HW111987   0.833   4.701   5.043
 3351SOL    HW211988   0.813   4.852   5.101
 3352SOL     OW11989   0.951   4.647   4.000
 3352SOL    HW111990   0.966   4.644   3.901
 3352SOL    HW211991   0.987   4.563   4.042
 3353SOL     OW11992   1.506   5.378   3.807
 3353SOL    HW111993   1.411   5.351   3.791
 3353SOL    HW211994   1.555   5.382   3.719
 3354SOL     OW11995   0.526   4.974   5.178
 3354SOL    HW111996   0.544   5.017   5.089
 3354SOL    HW211997   0.455   4.904   5.167
 3355SOL     OW11998   1.642   4.975   4.948
 3355SOL    HW111999   1.736   4.973   4.982
 3355SOL    HW212000   1.583   5.017   5.017
 3356SOL     OW12001   1.099   4.841   4.533
 3356SOL    HW112002   1.035   4.782   4.584
 3356SOL    HW212003   1.170   4.784   4.492
 3357SOL     OW12004   1.029   4.012   4.648
 3357SOL    HW112005   0.939   4.051   4.633
 3357SOL    HW212006   1.021   3.927   4.701
 3358SOL     OW12007   0.623   5.211   4.242
 3358SOL    HW112008   0.668   5.159   4.170
 3358SOL    HW212009   0.525   5.218   4.222
 3359SOL     OW12010   1.752   4.188   5.112
 3359SOL    HW112011   1.834   4.245   5.111
 3359SOL    HW212012   1.771   4.103   5.063
 3360SOL     OW12013   0.299   5.117   3.953
 3360SOL    HW112014   0.201   5.099   3.950
 3360SOL    HW212015   0.326   5.141   4.047
 3361SOL     OW12016   0.718   3.857   5.158
 3361SOL    HW112017   0.807   3.833   5.118
 3361SOL    HW212018   0.732   3.905   5.244
 3362SOL     OW12019   0.123   4.037   3.710
 3362SOL    HW112020   0.042   3.979   3.709
 3362SOL    HW212021   0.106   4.119   3.655
 3363SOL     OW12022   1.392   4.593   5.114
 3363SOL    HW112023   1.332   4.648   5.057
 3363SOL    HW212024   1.478   4.576   5.066
 3364SOL     OW12025   0.052   3.711   3.955
 3364SOL    HW112026   0.046   3.714   4.055
 3364SOL    HW212027   0.146   3.735   3.927
 3365SOL     OW12028   1.153   5.074   3.859
 3365SOL    HW112029   1.054   5.059   3.859
 3365SOL    HW212030   1.187   5.068   3.952
 3366SOL     OW12031   0.645   4.542   5.187
 3366SOL    HW112032   0.692   4.629   5.172
 3366SOL    HW212033   0.709   4.467   5.174
 3367SOL     OW12034   0.720   4.222   5.379
 3367SOL    HW112035   0.754   4.285   5.449
 3367SOL    HW212036   0.737   4.128   5.408
 3368SOL     OW12037   1.476   4.928   5.407
 3368SOL    HW112038   1.485   4.937   5.506
 3368SOL    HW212039   1.563   4.952   5.363
 3369SOL     OW12040   1.616   4.561   4.961
 3369SOL    HW112041   1.629   4.471   4.919
 3369SOL    HW212042   1.611   4.631   4.889
 3370SOL     OW12043   1.275   4.079   4.174
 3370SOL    HW112044   1.311   3.986   4.166
 3370SOL    HW212045   1.317   4.125   4.252
 3371SOL     OW12046   0.542   4.480   4.403
 3371SOL    HW112047   0.603   4.558   4.392
 3371SOL    HW212048   0.491   4.465   4.318
 3372SOL     OW12049   1.731   4.125   5.377
 3372SOL    HW112050   1.732   4.154   5.282
 3372SOL    HW212051   1.661   4.054   5.389
 3373SOL     OW12052   1.740   4.598   5.196
 3373SOL    HW112053   1.786   4.687   5.194
 3373SOL    HW212054   1.695   4.580   5.109
 3374SOL     OW12055   0.865   5.058   3.831
 3374SOL    HW112056   0.829   5.058   3.925
 3374SOL    HW212057   0.809   5.118   3.774
 3375SOL     OW12058   0.697   5.470   4.693
 3375SOL    HW112059   0.673   5.563   4.669
 3375SOL    HW212060   0.793   5.453   4.670
 3376SOL     OW12061   0.876   4.693   4.692
 3376SOL    HW112062   0.899   4.658   4.783
 3376SOL    HW212063   0.798   4.756   4.699
 3377SOL     OW12064   1.012   4.622   3.730
 3377SOL    HW112065   0.995   4.702   3.674
 3377SOL    HW212066   1.107   4.591   3.717
 3378SOL     OW12067   1.795   5.298   4.569
 3378SOL    HW112068   1.737   5.270   4.493
 3378SOL    HW212069   1.763   5.255   4.654
 3379SOL     OW12070   0.240   5.076   5.515
 3379SOL    HW112071   0.147   5.074   5.477
 3379SOL    HW212072   0.234   5.071   5.615
 3380SOL     OW12073   0.197   5.014   4.336
 3380SOL    HW112074   0.104   4.989   4.309
 3380SOL    HW212075   0.261   4.947   4.299
 3381SOL     OW12076   1.812   3.962   4.978
 3381SOL    HW112077   1.911   3.956   4.964
 3381SOL    HW212078   1.766   3.966   4.889
 3382SOL     OW12079   0.537   4.166   4.237
 3382SOL    HW112080   0.549   4.100   4.163
 3382SOL    HW212081   0.504   4.119   4.319
 3383SOL     OW12082   1.673   5.193   4.790
 3383SOL    HW112083   1.592   5.192   4.731
 3383SOL    HW212084   1.672   5.112   4.848
 3384SOL     OW12085   0.344   4.300   5.013
 3384SOL    HW112086   0.404   4.247   5.073
 3384SOL    HW212087   0.350   4.266   4.920
 3385SOL     OW12088   0.830   5.349   4.366
 3385SOL    HW112089   0.833   5.441   4.325
 3385SOL    HW212090   0.750   5.300   4.332
 3386SOL     OW12091   1.411   4.001   4.853
 3386SOL    HW112092   1.417   3.902   4.866
 3386SOL    HW212093   1.356   4.041   4.927
 3387SOL     OW12094   1.031   3.767   4.780
 3387SOL    HW112095   0.983   3.696   4.728
 3387SOL    HW212096   1.124   3.738   4.799
 3388SOL     OW12097   0.782   5.046   4.090
 3388SOL    HW112098   0.774   4.948   4.107
 3388SOL    HW212099   0.866   5.080   4.131
 3389SOL     OW12100   0.616   5.331   4.965
 3389SOL    HW112101   0.617   5.429   4.985
 3389SOL    HW212102   0.707   5.304   4.932
 3390SOL     OW12103   1.374   3.748   3.910
 3390SOL    HW112104   1.424   3.677   3.860
 3390SOL    HW212105   1.281   3.715   3.930
 3391SOL     OW12106   1.387   4.192   4.400
 3391SOL    HW112107   1.398   4.291   4.400
 3391SOL    HW212108   1.342   4.163   4.485
 3392SOL     OW12109   1.662   3.982   4.747
 3392SOL    HW112110   1.574   4.007   4.787
 3392SOL    HW212111   1.675   4.031   4.661
 3393SOL     OW12112   0.101   4.827   4.073
 3393SOL    HW112113   0.182   4.772   4.055
 3393SOL    HW212114   0.024   4.766   4.094
 3394SOL     OW12115   0.951   5.438   4.046
 3394SOL    HW112116   0.882   5.428   3.975
 3394SOL    HW212117   0.914   5.495   4.120
 3395SOL     OW12118   0.274   4.297   5.682
 3395SOL    HW112119   0.255   4.385   5.725
 3395SOL    HW212120   0.252   4.302   5.585
 3396SOL     OW12121   0.206   4.040   6.621
 3396SOL    HW112122   0.241   3.991   6.701
 3396SOL    HW212123   0.106   4.047   6.627
 3397SOL     OW12124   0.053   4.171   6.258
 3397SOL    HW112125   0.039   4.268   6.273
 3397SOL    HW212126   9.973   4.131   6.214
 3398SOL     OW12127   0.562   5.046   6.786
 3398SOL    HW112128   0.475   5.041   6.738
 3398SOL    HW212129   0.583   5.142   6.807
 3399SOL     OW12130   1.608   5.249   6.287
 3399SOL    HW112131   1.550   5.221   6.364
 3399SOL    HW212132   1.551   5.275   6.210
 3400SOL     OW12133   1.130   4.468   6.247
 3400SOL    HW112134   1.187   4.547   6.228
 3400SOL    HW212135   1.086   4.479   6.336
 3401SOL     OW12136   1.801   4.283   5.786
 3401SOL    HW112137   1.754   4.303   5.700
 3401SOL    HW212138   1.751   4.211   5.835
 3402SOL     OW12139   0.727   4.861   6.653
 3402SOL    HW112140   0.659   4.899   6.716
 3402SOL    HW212141   0.771   4.934   6.601
 3403SOL     OW12142   0.935   4.456   7.380
 3403SOL    HW112143   0.957   4.521   7.453
 3403SOL    HW212144   0.934   4.504   7.292
 3404SOL     OW12145   0.715   4.714   6.264
 3404SOL    HW112146   0.789   4.719   6.331
 3404SOL    HW212147   0.637   4.767   6.297
 3405SOL     OW12148   0.711   4.890   7.430
 3405SOL    HW112149   0.769   4.964   7.464
 3405SOL    HW212150   0.633   4.929   7.381
 3406SOL     OW12151   0.332   5.134   6.635
 3406SOL    HW112152   0.248   5.117   6.583
 3406SOL    HW212153   0.397   5.184   6.578
 3407SOL     OW12154   1.436   5.213   6.966
 3407SOL    HW112155   1.489   5.294   6.992
 3407SOL    HW212156   1.352   5.209   7.021
 3408SOL     OW12157   0.431   4.146   7.071
 3408SOL    HW112158   0.503   4.081   7.094
 3408SOL    HW212159   0.341   4.103   7.080
 3409SOL     OW12160   1.618   4.192   6.322
 3409SOL    HW112161   1.603   4.226   6.230
 3409SOL    HW212162   1.571   4.250   6.388
 3410SOL     OW12163   0.200   5.348   5.986
 3410SOL    HW112164   0.148   5.407   6.047
 3410SOL    HW212165   0.286   5.393   5.961
 3411SOL     OW12166   1.122   5.050   7.303
 3411SOL    HW112167   1.182   5.041   7.382
 3411SOL    HW212168   1.062   4.970   7.297
 3412SOL     OW12169   0.259   5.077   6.049
 3412SOL    HW112170   0.237   5.174   6.049
 3412SOL    HW212171   0.214   5.031   6.125
 3413SOL     OW12172   0.268   4.797   6.454
 3413SOL    HW112173   0.290   4.699   6.460
 3413SOL    HW212174   0.217   4.825   6.536
 3414SOL     OW12175   0.547   5.557   6.971
 3414SOL    HW112176   0.463   5.534   7.019
 3414SOL    HW212177   0.596   5.630   7.020
 3415SOL     OW12178   0.701   4.625   5.711
 3415SOL    HW112179   0.641   4.704   5.700
 3415SOL    HW212180   0.783   4.651   5.762
 3416SOL     OW12181   1.705   3.802   7.089
 3416SOL    HW112182   1.738   3.853   7.009
 3416SOL    HW212183   1.648   3.862   7.145
 3417SOL     OW12184   1.888   5.469   5.918
 3417SOL    HW112185   1.965   5.454   5.980
 3417SOL    HW212186   1.888   5.564   5.886
 3418SOL     OW12187   0.003   5.341   5.780
 3418SOL    HW112188   9.976   5.246   5.767
 3418SOL    HW212189   0.074   5.346   5.851
 3419SOL     OW12190   1.717   4.654   6.264
 3419SOL    HW112191   1.808   4.612   6.262
 3419SOL    HW212192   1.707   4.715   6.185
 3420SOL     OW12193   1.699   4.837   6.054
 3420SOL    HW112194   1.779   4.806   6.001
 3420SOL    HW212195   1.725   4.913   6.112
 3421SOL     OW12196   0.171   4.496   7.138
 3421SOL    HW112197   0.263   4.459   7.142
 3421SOL    HW212198   0.164   4.576   7.197
 3422SOL     OW12199   0.639   5.098   6.308
 3422SOL    HW112200   0.593   5.012   6.332
 3422SOL    HW212201   0.629   5.116   6.210
 3423SOL     OW12202   1.210   4.898   7.015
 3423SOL    HW112203   1.236   4.837   6.940
 3423SOL    HW212204   1.286   4.906   7.080
 3424SOL     OW12205   0.812   3.785   6.085
 3424SOL    HW112206   0.858   3.866   6.049
 3424SOL    HW212207   0.716   3.806   6.101
 3425SOL     OW12208   0.239   4.717   6.876
 3425SOL    HW112209   0.318   4.659   6.856
 3425SOL    HW212210   0.203   4.756   6.791
 3426SOL     OW12211   1.593   4.744   5.814
 3426SOL    HW112212   1.516   4.682   5.826
 3426SOL    HW212213   1.626   4.774   5.904
 3427SOL     OW12214   1.275   5.716   7.161
 3427SOL    HW112215   1.215   5.776   7.108
 3427SOL    HW212216   1.264   5.621   7.130
 3428SOL     OW12217   0.357   4.028   7.446
 3428SOL    HW112218   0.396   4.112   7.485
 3428SOL    HW212219   0.258   4.029   7.457
 3429SOL     OW12220   1.447   5.176   6.496
 3429SOL    HW112221   1.395   5.199   6.579
 3429SOL    HW212222   1.433   5.079   6.475
 3430SOL     OW12223   1.640   5.609   6.124
 3430SOL    HW112224   1.634   5.541   6.051
 3430SOL    HW212225   1.653   5.564   6.212
 3431SOL     OW12226   0.620   4.427   5.880
 3431SOL    HW112227   0.645   4.497   5.813
 3431SOL    HW212228   0.597   4.470   5.967
 3432SOL     OW12229   1.282   4.136   6.512
 3432SOL    HW112230   1.195   4.091   6.490
 3432SOL    HW212231   1.335   4.078   6.574
 3433SOL     OW12232   1.619   5.422   5.924
 3433SOL    HW112233   1.719   5.424   5.923
 3433SOL    HW212234   1.585   5.410   5.831
 3434SOL     OW12235   0.812   4.323   6.998
 3434SOL    HW112236   0.795   4.292   7.092
 3434SOL    HW212237   0.789   4.250   6.934
 3435SOL     OW12238   1.386   4.198   7.239
 3435SOL    HW112239   1.387   4.246   7.327
 3435SOL    HW212240   1.452   4.122   7.242
 3436SOL     OW12241   0.948   4.616   7.149
 3436SOL    HW112242   1.008   4.556   7.096
 3436SOL    HW212243   0.889   4.667   7.086
 3437SOL     OW12244   1.017   4.067   6.783
 3437SOL    HW112245   0.925   4.105   6.787
 3437SOL    HW212246   1.065   4.104   6.703
 3438SOL     OW12247   1.051   4.442   5.984
 3438SOL    HW112248   1.074   4.445   6.081
 3438SOL    HW212249   0.974   4.380   5.969
 3439SOL     OW12250   9.994   4.599   6.507
 3439SOL    HW112251   0.044   4.535   6.565
 3439SOL    HW212252   9.918   4.638   6.559
 3440SOL     OW12253   0.083   5.608   7.233
 3440SOL    HW112254   0.102   5.561   7.319
 3440SOL    HW212255   9.984   5.617   7.221
 3441SOL     OW12256   0.898   4.070   5.754
 3441SOL    HW112257   0.939   4.145   5.701
 3441SOL    HW212258   0.901   3.986   5.701
 3442SOL     OW12259   1.658   4.320   7.419
 3442SOL    HW112260   1.649   4.407   7.370
 3442SOL    HW212261   1.692   4.250   7.357
 3443SOL     OW12262   1.435   4.906   6.160
 3443SOL    HW112263   1.521   4.893   6.111
 3443SOL    HW212264   1.381   4.977   6.114
 3444SOL     OW12265   0.606   3.869   6.559
 3444SOL    HW112266   0.589   3.904   6.651
 3444SOL    HW212267   0.560   3.927   6.492
 3445SOL     OW12268   1.019   5.204   6.066
 3445SOL    HW112269   0.995   5.276   6.001
 3445SOL    HW212270   0.973   5.221   6.153
 3446SOL     OW12271   0.381   5.509   6.431
 3446SOL    HW112272   0.413   5.415   6.440
 3446SOL    HW212273   0.452   5.572   6.464
 3447SOL     OW12274   1.789   4.752   6.511
 3447SOL    HW112275   1.753   4.732   6.420
 3447SOL    HW212276   1.713   4.777   6.571
 3448SOL     OW12277   1.193   5.201   7.085
 3448SOL    HW112278   1.181   5.146   7.167
 3448SOL    HW212279   1.126   5.174   7.016
 3449SOL     OW12280   1.490   4.504   6.279
 3449SOL    HW112281   1.481   4.453   6.364
 3449SOL    HW212282   1.575   4.558   6.282
 3450SOL     OW12283   0.489   5.015   7.311
 3450SOL    HW112284   0.470   5.017   7.213
 3450SOL    HW212285   0.403   5.016   7.362
 3451SOL     OW12286   1.165   5.473   5.822
 3451SOL    HW112287   1.070   5.456   5.850
 3451SOL    HW212288   1.198   5.396   5.766
 3452SOL     OW12289   0.162   4.056   7.045
 3452SOL    HW112290   0.135   4.145   7.007
 3452SOL    HW212291   0.086   4.017   7.095
 3453SOL     OW12292   1.683   5.147   5.699
 3453SOL    HW112293   1.633   5.233   5.693
 3453SOL    HW212294   1.620   5.070   5.686
 3454SOL     OW12295   0.448   5.476   5.908
 3454SOL    HW112296   0.489   5.544   5.968
 3454SOL    HW212297   0.518   5.413   5.875
 3455SOL     OW12298   1.384   3.838   6.022
 3455SOL    HW112299   1.380   3.812   5.926
 3455SOL    HW212300   1.472   3.809   6.060
 3456SOL     OW12301   0.218   5.513   6.779
 3456SOL    HW112302   0.274   5.441   6.819
 3456SOL    HW212303   0.180   5.482   6.692
 3457SOL     OW12304   0.968   5.409   6.456
 3457SOL    HW112305   1.062   5.377   6.460
 3457SOL    HW212306   0.918   5.358   6.385
 3458SOL     OW12307   1.527   3.952   7.270
 3458SOL    HW112308   1.525   3.950   7.370
 3458SOL    HW212309   1.447   3.904   7.235
 3459SOL     OW12310   0.535   3.792   5.522
 3459SOL    HW112311   0.613   3.732   5.534
 3459SOL    HW212312   0.454   3.738   5.497
 3460SOL     OW12313   0.751   4.003   7.327
 3460SOL    HW112314   0.833   3.948   7.310
 3460SOL    HW212315   0.717   3.984   7.419
 3461SOL     OW12316   0.853   5.234   6.766
 3461SOL    HW112317   0.835   5.189   6.678
 3461SOL    HW212318   0.913   5.175   6.820
 3462SOL     OW12319   1.299   4.302   7.005
 3462SOL    HW112320   1.335   4.272   7.093
 3462SOL    HW212321   1.333   4.394   6.984
 3463SOL     OW12322   0.820   5.084   6.526
 3463SOL    HW112323   0.914   5.091   6.492
 3463SOL    HW212324   0.756   5.094   6.451
 3464SOL     OW12325   0.924   4.247   6.442
 3464SOL    HW112326   0.897   4.242   6.346
 3464SOL    HW212327   0.963   4.160   6.470
 3465SOL     OW12328   0.532   3.834   6.117
 3465SOL    HW112329   0.466   3.799   6.183
 3465SOL    HW212330   0.504   3.925   6.087
 3466SOL     OW12331   1.493   4.953   5.675
 3466SOL    HW112332   1.529   4.872   5.722
 3466SOL    HW212333   1.404   4.977   5.712
 3467SOL     OW12334   0.360   3.844   5.737
 3467SOL    HW112335   0.426   3.842   5.661
 3467SOL    HW212336   0.392   3.784   5.810
 3468SOL     OW12337   0.970   3.990   6.004
 3468SOL    HW112338   0.939   4.017   5.913
 3468SOL    HW212339   1.067   4.012   6.014
 3469SOL     OW12340   1.058   4.435   6.977
 3469SOL    HW112341   0.976   4.380   6.991
 3469SOL    HW212342   1.139   4.377   6.988
 3470SOL     OW12343   1.223   5.315   6.378
 3470SOL    HW112344   1.234   5.390   6.313
 3470SOL    HW212345   1.312   5.284   6.409
 3471SOL     OW12346   0.500   4.867   6.331
 3471SOL    HW112347   0.420   4.845   6.386
 3471SOL    HW212348   0.475   4.863   6.234
 3472SOL     OW12349   1.244   5.534   6.207
 3472SOL    HW112350   1.293   5.599   6.149
 3472SOL    HW212351   1.160   5.577   6.241
 3473SOL     OW12352   1.015   4.264   5.606
 3473SOL    HW112353   0.962   4.345   5.580
 3473SOL    HW212354   1.086   4.290   5.672
 3474SOL     OW12355   0.128   4.313   6.939
 3474SOL    HW112356   0.221   4.309   6.902
 3474SOL    HW212357   0.124   4.380   7.013
 3475SOL     OW12358   0.560   3.975   6.818
 3475SOL    HW112359   0.601   3.960   6.908
 3475SOL    HW212360   0.462   3.955   6.822
 3476SOL     OW12361   0.878   4.187   6.184
 3476SOL    HW112362   0.844   4.244   6.110
 3476SOL    HW212363   0.916   4.102   6.146
 3477SOL     OW12364   1.004   3.803   6.291
 3477SOL    HW112365   0.941   3.811   6.214
 3477SOL    HW212366   0.978   3.725   6.347
 3478SOL     OW12367   1.407   4.914   6.440
 3478SOL    HW112368   1.313   4.880   6.447
 3478SOL    HW212369   1.437   4.907   6.345
 3479SOL     OW12370   1.461   4.350   6.506
 3479SOL    HW112371   1.393   4.278   6.516
 3479SOL    HW212372   1.523   4.349   6.584
 3480SOL     OW12373   1.808   4.477   5.975
 3480SOL    HW112374   1.875   4.447   6.044
 3480SOL    HW212375   1.809   4.414   5.898
 3481SOL     OW12376   0.491   5.081   5.800
 3481SOL    HW112377   0.393   5.098   5.787
 3481SOL    HW212378   0.515   4.991   5.763
 3482SOL     OW12379   1.776   5.029   6.216
 3482SOL    HW112380   1.872   5.026   6.245
 3482SOL    HW212381   1.735   5.115   6.246
 3483SOL     OW12382   1.380   4.289   5.617
 3483SOL    HW112383   1.331   4.273   5.703
 3483SOL    HW212384   1.479   4.289   5.636
 3484SOL     OW12385   1.729   4.951   7.113
 3484SOL    HW112386   1.819   4.908   7.116
 3484SOL    HW212387   1.735   5.044   7.149
 3485SOL     OW12388   1.005   5.052   6.924
 3485SOL    HW112389   0.914   5.031   6.959
 3485SOL    HW212390   1.072   4.991   6.967
 3486SOL     OW12391   1.613   5.318   7.277
 3486SOL    HW112392   1.573   5.363   7.198
 3486SOL    HW212393   1.702   5.279   7.251
 3487SOL     OW12394   1.153   5.001   6.697
 3487SOL    HW112395   1.088   5.017   6.771
 3487SOL    HW212396   1.112   5.029   6.610
 3488SOL     OW12397   1.572   4.826   6.658
 3488SOL    HW112398   1.572   4.894   6.732
 3488SOL    HW212399   1.506   4.852   6.589
 3489SOL     OW12400   0.962   4.828   7.320
 3489SOL    HW112401   0.868   4.846   7.349
 3489SOL    HW212402   0.962   4.754   7.253
 3490SOL     OW12403   0.757   4.815   6.011
 3490SOL    HW112404   0.741   4.777   6.102
 3490SOL    HW212405   0.819   4.756   5.961
 3491SOL     OW12406   0.457   4.554   6.836
 3491SOL    HW112407   0.520   4.560   6.913
 3491SOL    HW212408   0.418   4.462   6.831
 3492SOL     OW12409   1.266   4.047   6.909
 3492SOL    HW112410   1.287   4.138   6.944
 3492SOL    HW212411   1.172   4.044   6.876
 3493SOL     OW12412   0.076   5.294   6.935
 3493SOL    HW112413   0.047   5.381   6.894
 3493SOL    HW212414   0.175   5.284   6.924
 3494SOL     OW12415   0.456   4.874   6.067
 3494SOL    HW112416   0.394   4.949   6.045
 3494SOL    HW212417   0.541   4.885   6.016
 3495SOL     OW12418   0.552   4.265   6.441
 3495SOL    HW112419   0.577   4.320   6.361
 3495SOL    HW212420   0.618   4.281   6.514
 3496SOL     OW12421   1.277   5.108   6.047
 3496SOL    HW112422   1.336   5.187   6.064
 3496SOL    HW212423   1.182   5.134   6.061
 3497SOL     OW12424   1.316   5.219   6.725
 3497SOL    HW112425   1.362   5.220   6.814
 3497SOL    HW212426   1.255   5.139   6.719
 3498SOL     OW12427   1.592   4.332   6.082
 3498SOL    HW112428   1.527   4.389   6.132
 3498SOL    HW212429   1.662   4.389   6.040
 3499SOL     OW12430   0.339   5.262   6.871
 3499SOL    HW112431   0.325   5.211   6.786
 3499SOL    HW212432   0.435   5.286   6.880
 3500SOL     OW12433   0.431   4.413   7.169
 3500SOL    HW112434   0.508   4.459   7.125
 3500SOL    HW212435   0.434   4.315   7.148
 3501SOL     OW12436   1.624   4.552   7.284
 3501SOL    HW112437   1.526   4.573   7.278
 3501SOL    HW212438   1.670   4.584   7.201
 3502SOL     OW12439   0.973   3.860   7.285
 3502SOL    HW112440   1.040   3.934   7.287
 3502SOL    HW212441   1.018   3.776   7.253
 3503SOL     OW12442   0.469   3.783   7.380
 3503SOL    HW112443   0.428   3.746   7.296
 3503SOL    HW212444   0.432   3.875   7.397
 3504SOL     OW12445   0.609   4.606   6.617
 3504SOL    HW112446   0.647   4.698   6.618
 3504SOL    HW212447   0.550   4.592   6.696
 3505SOL     OW12448   1.288   4.568   6.585
 3505SOL    HW112449   1.198   4.539   6.552
 3505SOL    HW212450   1.357   4.501   6.556
 3506SOL     OW12451   1.202   4.270   5.827
 3506SOL    HW112452   1.216   4.191   5.886
 3506SOL    HW212453   1.158   4.343   5.880
 3507SOL     OW12454   0.297   3.918   6.846
 3507SOL    HW112455   0.242   3.952   6.923
 3507SOL    HW212456   0.276   3.822   6.830
 3508SOL     OW12457   0.048   5.026   6.886
 3508SOL    HW112458   0.084   4.977   6.965
 3508SOL    HW212459   0.049   5.124   6.904
 3509SOL     OW12460   0.737   4.362   6.617
 3509SOL    HW112461   0.802   4.341   6.543
 3509SOL    HW212462   0.697   4.452   6.601
 3510SOL     OW12463   1.777   4.710   7.453
 3510SOL    HW112464   1.726   4.645   7.396
 3510SOL    HW212465   1.716   4.749   7.522
 3511SOL     OW12466   0.304   3.752   6.267
 3511SOL    HW112467   0.283   3.844   6.300
 3511SOL    HW212468   0.232   3.722   6.204
 3512SOL     OW12469   1.626   4.111   5.910
 3512SOL    HW112470   1.673   4.044   5.968
 3512SOL    HW212471   1.590   4.184   5.967
 3513SOL     OW12472   1.031   4.485   6.512
 3513SOL    HW112473   1.004   4.504   6.606
 3513SOL    HW212474   0.999   4.394   6.486
 3514SOL     OW12475   0.987   5.287   7.347
 3514SOL    HW112476   0.953   5.344   7.272
 3514SOL    HW212477   1.021   5.201   7.311
 3515SOL     OW12478   1.838   5.206   7.175
 3515SOL    HW112479   1.861   5.229   7.081
 3515SOL    HW212480   1.918   5.220   7.234
 3516SOL     OW12481   0.416   4.605   7.373
 3516SOL    HW112482   0.507   4.648   7.374
 3516SOL    HW212483   0.417   4.527   7.311
 3517SOL     OW12484   1.551   3.949   5.684
 3517SOL    HW112485   1.478   3.888   5.714
 3517SOL    HW212486   1.572   4.015   5.756
 3518SOL     OW12487   1.289   4.544   5.595
 3518SOL    HW112488   1.317   4.448   5.592
 3518SOL    HW212489   1.318   4.590   5.511
 3519SOL     OW12490   1.077   5.092   6.446
 3519SOL    HW112491   1.107   5.006   6.404
 3519SOL    HW212492   1.130   5.168   6.410
 3520SOL     OW12493   0.362   4.544   6.488
 3520SOL    HW112494   0.456   4.563   6.517
 3520SOL    HW212495   0.337   4.451   6.517
 3521SOL     OW12496   0.316   4.277   6.564
 3521SOL    HW112497   0.271   4.188   6.574
 3521SOL    HW212498   0.399   4.267   6.509
 3522SOL     OW12499   1.154   4.065   7.290
 3522SOL    HW112500   1.106   4.114   7.364
 3522SOL    HW212501   1.234   4.118   7.262
 3523SOL     OW12502   1.282   3.875   7.139
 3523SOL    HW112503   1.228   3.934   7.199
 3523SOL    HW212504   1.287   3.916   7.048
 3524SOL     OW12505   9.926   5.080   5.752
 3524SOL    HW112506   9.937   5.081   5.653
 3524SOL    HW212507   9.841   5.034   5.776
 3525SOL     OW12508   0.136   5.407   6.536
 3525SOL    HW112509   0.139   5.312   6.506
 3525SOL    HW212510   0.206   5.459   6.488
 3526SOL     OW12511   0.507   5.269   6.479
 3526SOL    HW112512   0.580   5.326   6.516
 3526SOL    HW212513   0.545   5.205   6.412
 3527SOL     OW12514   0.931   4.534   6.756
 3527SOL    HW112515   0.988   4.515   6.836
 3527SOL    HW212516   0.848   4.480   6.760
 3528SOL     OW12517   0.085   4.391   6.671
 3528SOL    HW112518   0.169   4.355   6.632
 3528SOL    HW212519   0.082   4.370   6.769
 3529SOL     OW12520   1.372   4.638   7.216
 3529SOL    HW112521   1.391   4.736   7.211
 3529SOL    HW212522   1.361   4.602   7.123
 3530SOL     OW12523   0.841   4.282   5.927
 3530SOL    HW112524   0.848   4.202   5.868
 3530SOL    HW212525   0.757   4.332   5.906
 3531SOL     OW12526   1.636   4.345   6.715
 3531SOL    HW112527   1.620   4.281   6.790
 3531SOL    HW212528   1.733   4.345   6.692
 3532SOL     OW12529   0.269   5.308   7.308
 3532SOL    HW112530   0.231   5.370   7.377
 3532SOL    HW212531   0.278   5.216   7.346
 3533SOL     OW12532   0.763   4.155   6.788
 3533SOL    HW112533   0.686   4.092   6.789
 3533SOL    HW212534   0.744   4.230   6.724
 3534SOL     OW12535   0.881   5.443   7.125
 3534SOL    HW112536   0.858   5.372   7.059
 3534SOL    HW212537   0.905   5.527   7.077
 3535SOL     OW12538   0.492   4.194   5.811
 3535SOL    HW112539   0.549   4.274   5.830
 3535SOL    HW212540   0.416   4.221   5.751
 3536SOL     OW12541   0.167   4.873   7.080
 3536SOL    HW112542   0.163   4.826   7.168
 3536SOL    HW212543   0.196   4.809   7.009
 3537SOL     OW12544   1.255   4.755   6.781
 3537SOL    HW112545   1.271   4.689   6.708
 3537SOL    HW212546   1.223   4.841   6.742
 3538SOL     OW12547   1.371   4.597   5.851
 3538SOL    HW112548   1.296   4.585   5.916
 3538SOL    HW212549   1.339   4.577   5.759
 3539SOL     OW12550   1.755   5.440   6.760
 3539SOL    HW112551   1.827   5.469   6.697
 3539SOL    HW212552   1.718   5.352   6.730
 3540SOL     OW12553   1.274   5.494   6.701
 3540SOL    HW112554   1.364   5.533   6.681
 3540SOL    HW212555   1.281   5.395   6.709
 3541SOL     OW12556   0.116   4.861   6.672
 3541SOL    HW112557   0.101   4.931   6.741
 3541SOL    HW212558   0.028   4.829   6.638
 3542SOL     OW12559   0.685   5.432   7.314
 3542SOL    HW112560   0.610   5.498   7.303
 3542SOL    HW212561   0.758   5.453   7.250
 3543SOL     OW12562   1.772   3.929   6.053
 3543SOL    HW112563   1.819   3.894   5.972
 3543SOL    HW212564   1.716   3.857   6.093
 3544SOL     OW12565   1.425   5.334   6.099
 3544SOL    HW112566   1.486   5.368   6.028
 3544SOL    HW212567   1.358   5.406   6.121
 3545SOL     OW12568   0.135   5.481   7.472
 3545SOL    HW112569   0.084   5.421   7.534
 3545SOL    HW212570   0.192   5.543   7.526
 3546SOL     OW12571   1.296   4.678   6.214
 3546SOL    HW112572   1.367   4.611   6.236
 3546SOL    HW212573   1.340   4.762   6.181
 3547SOL     OW12574   0.745   5.010   6.998
 3547SOL    HW112575   0.728   5.070   7.076
 3547SOL    HW212576   0.670   5.019   6.932
 3548SOL     OW12577   0.651   5.317   5.794
 3548SOL    HW112578   0.634   5.359   5.705
 3548SOL    HW212579   0.611   5.225   5.795
 3549SOL     OW12580   1.598   5.431   7.011
 3549SOL    HW112581   1.646   5.425   6.924
 3549SOL    HW212582   1.625   5.514   7.060
 3550SOL     OW12583   1.844   3.893   6.593
 3550SOL    HW112584   1.876   3.803   6.561
 3550SOL    HW212585   1.762   3.918   6.543
 3551SOL     OW12586   0.236   3.994   6.355
 3551SOL    HW112587   0.172   4.056   6.309
 3551SOL    HW212588   0.228   4.005   6.454
 3552SOL     OW12589   1.276   5.276   5.663
 3552SOL    HW112590   1.280   5.188   5.709
 3552SOL    HW212591   1.208   5.273   5.590
 3553SOL     OW12592   0.796   4.745   6.963
 3553SOL    HW112593   0.828   4.736   6.869
 3553SOL    HW212594   0.775   4.841   6.982
 3554SOL     OW12595   0.926   4.659   5.866
 3554SOL    HW112596   0.991   4.695   5.799
 3554SOL    HW212597   0.968   4.582   5.915
 3555SOL     OW12598   1.529   5.385   5.664
 3555SOL    HW112599   1.437   5.346   5.654
 3555SOL    HW212600   1.571   5.393   5.573
 3556SOL     OW12601   0.383   5.046   7.066
 3556SOL    HW112602   0.366   5.120   7.001
 3556SOL    HW212603   0.303   4.986   7.069
 3557SOL     OW12604   1.594   5.015   6.863
 3557SOL    HW112605   1.657   4.983   6.934
 3557SOL    HW212606   1.528   5.078   6.903
 3558SOL     OW12607   1.143   4.838   6.378
 3558SOL    HW112608   1.055   4.800   6.406
 3558SOL    HW212609   1.188   4.775   6.315
 3559SOL     OW12610   1.042   3.998   6.489
 3559SOL    HW112611   1.036   3.945   6.405
 3559SOL    HW212612   1.009   3.943   6.566
 3560SOL     OW12613   0.624   5.143   6.045
 3560SOL    HW112614   0.708   5.123   5.994
 3560SOL    HW212615   0.546   5.140   5.983
 3561SOL     OW12616   1.799   4.119   6.988
 3561SOL    HW112617   1.868   4.189   6.972
 3561SOL    HW212618   1.824   4.035   6.939
 3562SOL     OW12619   0.203   5.066   5.785
 3562SOL    HW112620   0.103   5.062   5.775
 3562SOL    HW212621   0.226   5.065   5.883
 3563SOL     OW12622   0.171   4.710   7.303
 3563SOL    HW112623   0.109   4.684   7.377
 3563SOL    HW212624   0.266   4.691   7.330
 3564SOL     OW12625   0.683   3.948   7.067
 3564SOL    HW112626   0.772   3.934   7.025
 3564SOL    HW212627   0.695   3.975   7.163
 3565SOL     OW12628   0.161   4.064   5.472
 3565SOL    HW112629   0.132   4.047   5.566
 3565SOL    HW212630   0.152   4.161   5.451
 3566SOL     OW12631   1.371   4.563   6.951
 3566SOL    HW112632   1.306   4.620   6.900
 3566SOL    HW212633   1.462   4.572   6.912
 3567SOL     OW12634   0.108   3.729   5.786
 3567SOL    HW112635   0.110   3.723   5.886
 3567SOL    HW212636   0.193   3.771   5.753
 3568SOL     OW12637   1.255   5.032   5.780
 3568SOL    HW112638   1.164   4.998   5.755
 3568SOL    HW212639   1.258   5.045   5.880
 3569SOL     OW12640   0.640   4.534   7.035
 3569SOL    HW112641   0.689   4.619   7.021
 3569SOL    HW212642   0.703   4.457   7.027
 3570SOL     OW12643   1.528   5.598   6.654
 3570SOL    HW112644   1.562   5.648   6.574
 3570SOL    HW212645   1.604   5.550   6.698
 3571SOL     OW12646   0.771   4.264   7.253
 3571SOL    HW112647   0.823   4.322   7.316
 3571SOL    HW212648   0.765   4.172   7.290
 3572SOL     OW12649   1.444   4.901   7.197
 3572SOL    HW112650   1.431   4.925   7.294
 3572SOL    HW212651   1.536   4.924   7.169
 3573SOL     OW12652   0.322   5.497   7.120
 3573SOL    HW112653   0.235   5.546   7.127
 3573SOL    HW212654   0.317   5.412   7.172
 3574SOL     OW12655   1.606   4.603   6.820
 3574SOL    HW112656   1.622   4.517   6.771
 3574SOL    HW212657   1.593   4.677   6.755
 3575SOL     OW12658   1.232   4.069   6.018
 3575SOL    HW112659   1.293   3.989   6.022
 3575SOL    HW212660   1.246   4.125   6.100
 3576SOL     OW12661   0.618   4.454   6.251
 3576SOL    HW112662   0.651   4.548   6.252
 3576SOL    HW212663   0.522   4.453   6.224
 3577SOL     OW12664   1.742   4.122   7.251
 3577SOL    HW112665   1.760   4.127   7.153
 3577SOL    HW212666   1.670   4.054   7.268
 3578SOL     OW12667   1.720   4.668   7.059
 3578SOL    HW112668   1.705   4.766   7.075
 3578SOL    HW212669   1.682   4.642   6.970
 3579SOL     OW12670   0.982   5.031   5.671
 3579SOL    HW112671   0.921   5.045   5.749
 3579SOL    HW212672   0.994   5.117   5.622
 3580SOL     OW12673   0.705   5.437   6.542
 3580SOL    HW112674   0.674   5.531   6.525
 3580SOL    HW212675   0.803   5.431   6.523
 3581SOL     OW12676   0.905   4.728   6.465
 3581SOL    HW112677   0.945   4.639   6.485
 3581SOL    HW212678   0.852   4.760   6.544
 3582SOL     OW12679   1.109   4.724   5.682
 3582SOL    HW112680   1.097   4.788   5.606
 3582SOL    HW212681   1.172   4.651   5.655
 3583SOL     OW12682   1.809   5.307   6.461
 3583SOL    HW112683   1.748   5.296   6.384
 3583SOL    HW212684   1.777   5.251   6.538
 3584SOL     OW12685   0.249   5.056   7.422
 3584SOL    HW112686   0.154   5.038   7.396
 3584SOL    HW212687   0.256   5.060   7.522
 3585SOL     OW12688   0.139   4.937   6.256
 3585SOL    HW112689   0.041   4.917   6.255
 3585SOL    HW212690   0.185   4.873   6.317
 3586SOL     OW12691   0.691   5.174   7.209
 3586SOL    HW112692   0.617   5.120   7.251
 3586SOL    HW212693   0.691   5.266   7.249
 3587SOL     OW12694   1.854   3.881   6.865
 3587SOL    HW112695   1.925   3.812   6.876
 3587SOL    HW212696   1.838   3.897   6.767
 3588SOL     OW12697   1.664   5.200   6.670
 3588SOL    HW112698   1.588   5.192   6.606
 3588SOL    HW212699   1.657   5.128   6.740
 3589SOL     OW12700   0.379   4.296   6.843
 3589SOL    HW112701   0.415   4.230   6.908
 3589SOL    HW212702   0.380   4.256   6.751
 3590SOL     OW12703   0.831   5.295   6.253
 3590SOL    HW112704   0.792   5.362   6.189
 3590SOL    HW212705   0.763   5.225   6.275
 3591SOL     OW12706   1.414   3.974   6.686
 3591SOL    HW112707   1.446   3.879   6.690
 3591SOL    HW212708   1.371   3.998   6.773
 3592SOL     OW12709   0.848   5.051   5.913
 3592SOL    HW112710   0.818   4.963   5.948
 3592SOL    HW212711   0.919   5.089   5.973
 3593SOL     OW12712   0.607   5.313   6.857
 3593SOL    HW112713   0.598   5.405   6.895
 3593SOL    HW212714   0.699   5.301   6.819
 3594SOL     OW12715   1.361   3.759   5.761
 3594SOL    HW112716   1.406   3.682   5.714
 3594SOL    HW212717   1.262   3.748   5.754
 3595SOL     OW12718   1.258   4.220   6.241
 3595SOL    HW112719   1.211   4.309   6.240
 3595SOL    HW212720   1.276   4.193   6.335
 3596SOL     OW12721   1.608   3.960   6.482
 3596SOL    HW112722   1.537   3.982   6.549
 3596SOL    HW212723   1.611   4.032   6.412
 3597SOL     OW12724   0.900   5.402   5.914
 3597SOL    HW112725   0.818   5.368   5.868
 3597SOL    HW212726   0.876   5.480   5.971
 3598SOL     OW12727   0.010   4.168   8.153
 3598SOL    HW112728   9.976   4.204   8.240
 3598SOL    HW212729   9.934   4.136   8.097
 3599SOL     OW12730   0.659   5.019   8.565
 3599SOL    HW112731   0.576   5.075   8.570
 3599SOL    HW212732   0.726   5.065   8.508
 3600SOL     OW12733   1.598   5.250   8.141
 3600SOL    HW112734   1.553   5.226   8.227
 3600SOL    HW212735   1.529   5.266   8.070
 3601SOL     OW12736   1.136   4.460   8.128
 3601SOL    HW112737   1.191   4.541   8.110
 3601SOL    HW212738   1.092   4.468   8.217
 3602SOL     OW12739   1.788   4.290   7.651
 3602SOL    HW112740   1.744   4.311   7.564
 3602SOL    HW212741   1.737   4.219   7.699
 3603SOL     OW12742   0.683   4.748   8.502
 3603SOL    HW112743   0.714   4.725   8.594
 3603SOL    HW212744   0.656   4.845   8.499
 3604SOL     OW12745   0.737   4.845   8.141
 3604SOL    HW112746   0.809   4.807   8.199
 3604SOL    HW212747   0.653   4.794   8.155
 3605SOL     OW12748   0.794   4.898   9.280
 3605SOL    HW112749   0.854   4.957   9.334
 3605SOL    HW212750   0.700   4.934   9.283
 3606SOL     OW12751   0.432   5.177   8.554
 3606SOL    HW112752   0.362   5.109   8.532
 3606SOL    HW212753   0.457   5.228   8.471
 3607SOL     OW12754   1.448   5.231   8.834
 3607SOL    HW112755   1.504   5.313   8.846
 3607SOL    HW212756   1.371   5.233   8.897
 3608SOL     OW12757   0.444   4.229   9.044
 3608SOL    HW112758   0.543   4.219   9.030
 3608SOL    HW212759   0.412   4.157   9.106
 3609SOL     OW12760   1.620   4.192   8.196
 3609SOL    HW112761   1.600   4.227   8.105
 3609SOL    HW212762   1.571   4.247   8.264
 3610SOL     OW12763   0.235   5.366   7.844
 3610SOL    HW112764   0.180   5.434   7.892
 3610SOL    HW212765   0.317   5.410   7.807
 3611SOL     OW12766   1.147   5.033   9.161
 3611SOL    HW112767   1.207   5.012   9.238
 3611SOL    HW212768   1.094   4.952   9.136
 3612SOL     OW12769   0.365   5.147   7.938
 3612SOL    HW112770   0.310   5.230   7.929
 3612SOL    HW212771   0.337   5.097   8.020
 3613SOL     OW12772   0.331   4.789   8.346
 3613SOL    HW112773   0.292   4.702   8.377
 3613SOL    HW212774   0.306   4.861   8.410
 3614SOL     OW12775   0.627   4.752   7.658
 3614SOL    HW112776   0.664   4.794   7.575
 3614SOL    HW212777   0.677   4.786   7.738
 3615SOL     OW12778   1.610   3.861   8.852
 3615SOL    HW112779   1.695   3.888   8.807
 3615SOL    HW212780   1.552   3.941   8.864
 3616SOL     OW12781   0.127   4.376   7.991
 3616SOL    HW112782   0.084   4.303   8.043
 3616SOL    HW212783   0.120   4.462   8.041
 3617SOL     OW12784   0.025   5.325   7.666
 3617SOL    HW112785   0.003   5.227   7.659
 3617SOL    HW212786   0.095   5.338   7.736
 3618SOL     OW12787   1.754   4.621   8.161
 3618SOL    HW112788   1.826   4.569   8.208
 3618SOL    HW212789   1.778   4.632   8.064
 3619SOL     OW12790   1.743   4.895   7.832
 3619SOL    HW112791   1.816   4.827   7.842
 3619SOL    HW212792   1.720   4.932   7.922
 3620SOL     OW12793   0.193   4.562   9.040
 3620SOL    HW112794   0.291   4.555   9.057
 3620SOL    HW212795   0.156   4.638   9.093
 3621SOL     OW12796   0.667   5.106   8.198
 3621SOL    HW112797   0.689   5.009   8.183
 3621SOL    HW212798   0.654   5.150   8.109
 3622SOL     OW12799   1.251   4.931   8.875
 3622SOL    HW112800   1.267   4.859   8.808
 3622SOL    HW212801   1.320   4.926   8.947
 3623SOL     OW12802   0.832   3.770   7.962
 3623SOL    HW112803   0.866   3.860   7.936
 3623SOL    HW212804   0.734   3.775   7.982
 3624SOL     OW12805   0.231   4.702   8.738
 3624SOL    HW112806   0.303   4.634   8.747
 3624SOL    HW212807   0.185   4.691   8.650
 3625SOL     OW12808   1.578   4.798   7.634
 3625SOL    HW112809   1.508   4.735   7.668
 3625SOL    HW212810   1.631   4.833   7.711
 3626SOL     OW12811   1.220   5.492   9.100
 3626SOL    HW112812   1.240   5.563   9.033
 3626SOL    HW212813   1.222   5.402   9.056
 3627SOL     OW12814   0.310   4.043   9.224
 3627SOL    HW112815   0.312   4.116   9.292
 3627SOL    HW212816   0.229   3.986   9.238
 3628SOL     OW12817   1.492   5.153   8.369
 3628SOL    HW112818   1.432   5.186   8.443
 3628SOL    HW212819   1.463   5.061   8.342
 3629SOL     OW12820   1.708   5.481   7.980
 3629SOL    HW112821   1.660   5.459   7.895
 3629SOL    HW212822   1.664   5.433   8.057
 3630SOL     OW12823   0.611   4.477   7.725
 3630SOL    HW112824   0.619   4.574   7.701
 3630SOL    HW212825   0.525   4.461   7.774
 3631SOL     OW12826   1.291   4.134   8.374
 3631SOL    HW112827   1.201   4.093   8.361
 3631SOL    HW212828   1.346   4.075   8.434
 3632SOL     OW12829   1.596   5.395   7.743
 3632SOL    HW112830   1.690   5.368   7.723
 3632SOL    HW212831   1.545   5.403   7.657
 3633SOL     OW12832   0.829   4.220   8.755
 3633SOL    HW112833   0.768   4.216   8.834
 3633SOL    HW212834   0.782   4.262   8.678
 3634SOL     OW12835   1.374   4.172   9.096
 3634SOL    HW112836   1.379   4.223   9.182
 3634SOL    HW212837   1.438   4.095   9.100
 3635SOL     OW12838   1.015   4.050   8.655
 3635SOL    HW112839   0.945   4.113   8.687
 3635SOL    HW212840   0.979   3.957   8.654
 3636SOL     OW12841   1.084   4.436   7.859
 3636SOL    HW112842   1.101   4.436   7.958
 3636SOL    HW212843   0.993   4.402   7.840
 3637SOL     OW12844   0.099   4.594   8.165
 3637SOL    HW112845   0.148   4.577   8.250
 3637SOL    HW212846   0.065   4.688   8.164
 3638SOL     OW12847   0.105   5.503   9.034
 3638SOL    HW112848   0.085   5.499   9.132
 3638SOL    HW212849   0.061   5.427   8.988
 3639SOL     OW12850   0.880   4.112   7.659
 3639SOL    HW112851   0.944   4.144   7.588
 3639SOL    HW212852   0.824   4.038   7.622
 3640SOL     OW12853   1.655   4.306   9.280
 3640SOL    HW112854   1.652   4.398   9.240
 3640SOL    HW212855   1.696   4.242   9.215
 3641SOL     OW12856   1.403   4.915   8.013
 3641SOL    HW112857   1.500   4.939   8.006
 3641SOL    HW212858   1.349   4.975   7.955
 3642SOL     OW12859   0.512   3.746   8.406
 3642SOL    HW112860   0.516   3.805   8.488
 3642SOL    HW212861   0.469   3.796   8.331
 3643SOL     OW12862   1.012   5.240   7.906
 3643SOL    HW112863   0.993   5.310   7.838
 3643SOL    HW212864   0.971   5.267   7.994
 3644SOL     OW12865   0.343   5.523   8.284
 3644SOL    HW112866   0.398   5.440   8.289
 3644SOL    HW212867   0.389   5.597   8.332
 3645SOL     OW12868   1.755   4.847   8.319
 3645SOL    HW112869   1.754   4.764   8.263
 3645SOL    HW212870   1.692   4.836   8.396
 3646SOL     OW12871   1.215   5.235   8.981
 3646SOL    HW112872   1.207   5.160   9.046
 3646SOL    HW212873   1.150   5.222   8.906
 3647SOL     OW12874   0.360   4.716   7.633
 3647SOL    HW112875   0.457   4.736   7.647
 3647SOL    HW212876   0.349   4.663   7.548
 3648SOL     OW12877   1.500   4.514   8.164
 3648SOL    HW112878   1.485   4.459   8.246
 3648SOL    HW212879   1.590   4.558   8.169
 3649SOL     OW12880   1.134   5.525   7.633
 3649SOL    HW112881   1.047   5.506   7.677
 3649SOL    HW212882   1.166   5.444   7.584
 3650SOL     OW12883   0.137   4.104   9.003
 3650SOL    HW112884   0.066   4.038   8.978
 3650SOL    HW212885   0.201   4.063   9.067
 3651SOL     OW12886   1.646   5.112   7.460
 3651SOL    HW112887   1.630   5.189   7.399
 3651SOL    HW212888   1.564   5.054   7.463
 3652SOL     OW12889   0.471   5.480   7.750
 3652SOL    HW112890   0.511   5.538   7.821
 3652SOL    HW212891   0.544   5.435   7.698
 3653SOL     OW12892   1.400   3.830   7.900
 3653SOL    HW112893   1.401   3.807   7.803
 3653SOL    HW212894   1.486   3.799   7.942
 3654SOL     OW12895   0.168   5.468   8.607
 3654SOL    HW112896   0.229   5.401   8.649
 3654SOL    HW212897   0.140   5.436   8.517
 3655SOL     OW12898   0.970   5.439   8.303
 3655SOL    HW112899   1.052   5.383   8.291
 3655SOL    HW212900   0.897   5.404   8.245
 3656SOL     OW12901   0.374   4.374   7.843
 3656SOL    HW112902   0.411   4.304   7.903
 3656SOL    HW212903   0.283   4.402   7.876
 3657SOL     OW12904   1.544   3.959   9.128
 3657SOL    HW112905   1.532   3.945   9.227
 3657SOL    HW212906   1.555   3.871   9.083
 3658SOL     OW12907   0.740   3.951   9.069
 3658SOL    HW112908   0.822   3.907   9.107
 3658SOL    HW212909   0.658   3.913   9.113
 3659SOL     OW12910   0.891   5.283   8.641
 3659SOL    HW112911   0.872   5.238   8.554
 3659SOL    HW212912   0.953   5.227   8.695
 3660SOL     OW12913   1.287   4.309   8.876
 3660SOL    HW112914   1.326   4.269   8.958
 3660SOL    HW212915   1.326   4.400   8.861
 3661SOL     OW12916   0.840   5.143   8.407
 3661SOL    HW112917   0.935   5.130   8.376
 3661SOL    HW212918   0.779   5.142   8.328
 3662SOL     OW12919   0.911   4.233   8.323
 3662SOL    HW112920   0.887   4.234   8.226
 3662SOL    HW212921   0.959   4.148   8.345
 3663SOL     OW12922   0.554   3.775   8.001
 3663SOL    HW112923   0.502   3.774   8.086
 3663SOL    HW212924   0.531   3.858   7.948
 3664SOL     OW12925   1.423   4.951   7.469
 3664SOL    HW112926   1.478   4.888   7.524
 3664SOL    HW212927   1.343   4.979   7.522
 3665SOL     OW12928   0.328   3.637   7.566
 3665SOL    HW112929   0.392   3.684   7.505
 3665SOL    HW212930   0.377   3.604   7.647
 3666SOL     OW12931   0.951   4.012   7.903
 3666SOL    HW112932   0.924   4.047   7.814
 3666SOL    HW212933   1.051   4.014   7.911
 3667SOL     OW12934   1.024   4.377   8.867
 3667SOL    HW112935   0.969   4.303   8.827
 3667SOL    HW212936   1.120   4.349   8.870
 3668SOL     OW12937   1.220   5.336   8.241
 3668SOL    HW112938   1.249   5.392   8.163
 3668SOL    HW212939   1.252   5.379   8.326
 3669SOL     OW12940   1.283   5.533   8.043
 3669SOL    HW112941   1.338   5.600   7.993
 3669SOL    HW212942   1.202   5.578   8.080
 3670SOL     OW12943   1.052   4.226   7.484
 3670SOL    HW112944   1.019   4.313   7.447
 3670SOL    HW212945   1.120   4.244   7.555
 3671SOL     OW12946   0.107   4.429   8.824
 3671SOL    HW112947   0.173   4.354   8.816
 3671SOL    HW212948   0.135   4.490   8.899
 3672SOL     OW12949   0.845   4.227   8.052
 3672SOL    HW112950   0.843   4.282   7.968
 3672SOL    HW212951   0.881   4.136   8.031
 3673SOL     OW12952   1.026   3.775   8.157
 3673SOL    HW112953   0.957   3.773   8.085
 3673SOL    HW212954   1.007   3.703   8.224
 3674SOL     OW12955   1.403   4.907   8.299
 3674SOL    HW112956   1.308   4.880   8.314
 3674SOL    HW212957   1.423   4.904   8.201
 3675SOL     OW12958   1.466   4.349   8.385
 3675SOL    HW112959   1.398   4.275   8.390
 3675SOL    HW212960   1.527   4.344   8.464
 3676SOL     OW12961   1.809   4.464   7.861
 3676SOL    HW112962   1.875   4.423   7.924
 3676SOL    HW212963   1.807   4.412   7.776
 3677SOL     OW12964   0.521   5.159   7.569
 3677SOL    HW112965   0.436   5.136   7.616
 3677SOL    HW212966   0.524   5.113   7.481
 3678SOL     OW12967   1.671   4.986   8.081
 3678SOL    HW112968   1.709   4.942   8.162
 3678SOL    HW212969   1.658   5.084   8.099
 3679SOL     OW12970   1.387   4.309   7.488
 3679SOL    HW112971   1.346   4.277   7.574
 3679SOL    HW212972   1.487   4.306   7.495
 3680SOL     OW12973   1.741   4.958   8.971
 3680SOL    HW112974   1.832   4.921   8.956
 3680SOL    HW212975   1.748   5.050   9.008
 3681SOL     OW12976   1.047   5.091   8.791
 3681SOL    HW112977   0.957   5.048   8.806
 3681SOL    HW212978   1.118   5.034   8.833
 3682SOL     OW12979   1.624   5.362   9.118
 3682SOL    HW112980   1.604   5.404   9.029
 3682SOL    HW212981   1.703   5.302   9.109
 3683SOL     OW12982   1.166   4.993   8.564
 3683SOL    HW112983   1.111   5.029   8.639
 3683SOL    HW212984   1.131   5.028   8.477
 3684SOL     OW12985   1.573   4.827   8.525
 3684SOL    HW112986   1.572   4.893   8.601
 3684SOL    HW212987   1.498   4.848   8.462
 3685SOL     OW12988   0.967   3.775   8.762
 3685SOL    HW112989   1.005   3.759   8.671
 3685SOL    HW212990   1.036   3.815   8.822
 3686SOL     OW12991   0.780   4.842   7.868
 3686SOL    HW112992   0.765   4.842   7.967
 3686SOL    HW212993   0.858   4.783   7.846
 3687SOL     OW12994   0.429   4.508   8.752
 3687SOL    HW112995   0.507   4.520   8.813
 3687SOL    HW212996   0.388   4.418   8.768
 3688SOL     OW12997   1.270   4.075   8.736
 3688SOL    HW112998   1.283   4.163   8.781
 3688SOL    HW212999   1.179   4.071   8.695
 3689SOL     OW13000   0.049   5.309   8.812
 3689SOL    HW113001   0.032   5.383   8.747
 3689SOL    HW213002   0.147   5.292   8.819
 3690SOL     OW13003   0.333   4.844   7.881
 3690SOL    HW113004   0.368   4.933   7.852
 3690SOL    HW213005   0.347   4.778   7.808
 3691SOL     OW13006   1.254   5.111   7.865
 3691SOL    HW113007   1.322   5.181   7.890
 3691SOL    HW213008   1.162   5.145   7.887
 3692SOL     OW13009   1.338   5.206   8.587
 3692SOL    HW113010   1.380   5.217   8.677
 3692SOL    HW213011   1.282   5.124   8.586
 3693SOL     OW13012   1.583   4.335   7.961
 3693SOL    HW113013   1.524   4.396   8.013
 3693SOL    HW213014   1.658   4.387   7.920
 3694SOL     OW13015   0.322   5.292   8.774
 3694SOL    HW113016   0.379   5.258   8.700
 3694SOL    HW213017   0.375   5.352   8.833
 3695SOL     OW13018   0.452   4.505   9.091
 3695SOL    HW113019   0.525   4.530   9.028
 3695SOL    HW213020   0.440   4.406   9.089
 3696SOL     OW13021   1.630   4.549   9.156
 3696SOL    HW113022   1.532   4.570   9.157
 3696SOL    HW213023   1.671   4.583   9.072
 3697SOL     OW13024   0.970   3.844   9.165
 3697SOL    HW113025   1.030   3.924   9.168
 3697SOL    HW213026   1.024   3.762   9.150
 3698SOL     OW13027   0.505   3.858   9.173
 3698SOL    HW113028   0.461   3.778   9.132
 3698SOL    HW213029   0.435   3.927   9.194
 3699SOL     OW13030   0.518   4.524   8.498
 3699SOL    HW113031   0.571   4.608   8.483
 3699SOL    HW213032   0.486   4.520   8.593
 3700SOL     OW13033   1.283   4.556   8.466
 3700SOL    HW113034   1.195   4.527   8.429
 3700SOL    HW213035   1.354   4.492   8.438
 3701SOL     OW13036   1.220   4.251   7.704
 3701SOL    HW113037   1.229   4.170   7.762
 3701SOL    HW213038   1.182   4.327   7.758
 3702SOL     OW13039   0.072   5.038   8.731
 3702SOL    HW113040   0.108   4.984   8.807
 3702SOL    HW213041   0.049   5.130   8.763
 3703SOL     OW13042   0.745   4.354   8.530
 3703SOL    HW113043   0.783   4.306   8.451
 3703SOL    HW213044   0.660   4.400   8.503
 3704SOL     OW13045   1.786   4.700   9.327
 3704SOL    HW113046   1.745   4.634   9.264
 3704SOL    HW213047   1.715   4.739   9.386
 3705SOL     OW13048   0.359   3.845   8.196
 3705SOL    HW113049   0.332   3.941   8.199
 3705SOL    HW213050   0.284   3.791   8.157
 3706SOL     OW13051   1.613   4.120   7.779
 3706SOL    HW113052   1.655   4.048   7.835
 3706SOL    HW213053   1.577   4.192   7.839
 3707SOL     OW13054   1.025   4.474   8.384
 3707SOL    HW113055   1.006   4.496   8.480
 3707SOL    HW213056   0.988   4.384   8.363
 3708SOL     OW13057   1.006   5.258   9.229
 3708SOL    HW113058   0.973   5.314   9.154
 3708SOL    HW213059   1.052   5.177   9.193
 3709SOL     OW13060   1.844   5.212   9.037
 3709SOL    HW113061   1.863   5.239   8.943
 3709SOL    HW213062   1.926   5.226   9.093
 3710SOL     OW13063   0.491   4.717   9.266
 3710SOL    HW113064   0.561   4.687   9.331
 3710SOL    HW213065   0.469   4.643   9.203
 3711SOL     OW13066   1.526   3.971   7.545
 3711SOL    HW113067   1.472   3.895   7.580
 3711SOL    HW213068   1.552   4.031   7.621
 3712SOL     OW13069   1.279   4.555   7.456
 3712SOL    HW113070   1.313   4.461   7.466
 3712SOL    HW213071   1.306   4.591   7.367
 3713SOL     OW13072   1.095   5.102   8.322
 3713SOL    HW113073   1.114   5.016   8.275
 3713SOL    HW213074   1.148   5.176   8.282
 3714SOL     OW13075   0.250   4.533   8.413
 3714SOL    HW113076   0.346   4.517   8.434
 3714SOL    HW213077   0.194   4.464   8.458
 3715SOL     OW13078   1.125   4.070   9.141
 3715SOL    HW113079   1.087   4.127   9.213
 3715SOL    HW213080   1.218   4.101   9.119
 3716SOL     OW13081   1.161   3.898   8.918
 3716SOL    HW113082   1.136   3.957   8.995
 3716SOL    HW213083   1.214   3.951   8.852
 3717SOL     OW13084   0.000   5.045   7.643
 3717SOL    HW113085   9.977   5.053   7.546
 3717SOL    HW213086   0.018   4.949   7.665
 3718SOL     OW13087   0.110   5.371   8.358
 3718SOL    HW113088   0.126   5.278   8.324
 3718SOL    HW213089   0.175   5.434   8.316
 3719SOL     OW13090   0.513   5.301   8.326
 3719SOL    HW113091   0.576   5.377   8.345
 3719SOL    HW213092   0.563   5.229   8.277
 3720SOL     OW13093   0.942   4.515   8.639
 3720SOL    HW113094   0.984   4.475   8.721
 3720SOL    HW213095   0.864   4.459   8.612
 3721SOL     OW13096   0.116   4.329   8.559
 3721SOL    HW113097   0.149   4.238   8.582
 3721SOL    HW213098   0.095   4.379   8.643
 3722SOL     OW13099   0.153   4.321   9.173
 3722SOL    HW113100   0.136   4.249   9.106
 3722SOL    HW213101   0.158   4.409   9.126
 3723SOL     OW13102   1.376   4.642   9.093
 3723SOL    HW113103   1.398   4.739   9.093
 3723SOL    HW213104   1.368   4.610   8.998
 3724SOL     OW13105   0.835   4.340   7.806
 3724SOL    HW113106   0.846   4.261   7.746
 3724SOL    HW213107   0.757   4.394   7.774
 3725SOL     OW13108   1.653   4.344   8.588
 3725SOL    HW113109   1.652   4.285   8.669
 3725SOL    HW213110   1.746   4.345   8.550
 3726SOL     OW13111   0.415   5.192   9.176
 3726SOL    HW113112   0.464   5.135   9.241
 3726SOL    HW213113   0.404   5.143   9.090
 3727SOL     OW13114   0.896   5.390   9.009
 3727SOL    HW113115   0.852   5.331   8.941
 3727SOL    HW213116   0.954   5.456   8.962
 3728SOL     OW13117   0.409   4.287   7.583
 3728SOL    HW113118   0.490   4.335   7.549
 3728SOL    HW213119   0.395   4.311   7.679
 3729SOL     OW13120   0.186   4.883   8.932
 3729SOL    HW113121   0.157   4.840   9.018
 3729SOL    HW213122   0.207   4.812   8.865
 3730SOL     OW13123   1.256   4.750   8.657
 3730SOL    HW113124   1.268   4.681   8.585
 3730SOL    HW213125   1.223   4.835   8.616
 3731SOL     OW13126   1.367   4.641   7.703
 3731SOL    HW113127   1.304   4.611   7.774
 3731SOL    HW213128   1.334   4.611   7.614
 3732SOL     OW13129   1.773   5.453   8.614
 3732SOL    HW113130   1.837   5.475   8.540
 3732SOL    HW213131   1.735   5.361   8.599
 3733SOL     OW13132   1.292   5.450   8.478
 3733SOL    HW113133   1.376   5.504   8.488
 3733SOL    HW213134   1.302   5.363   8.527
 3734SOL     OW13135   0.228   5.001   8.499
 3734SOL    HW113136   0.171   5.006   8.581
 3734SOL    HW213137   0.179   5.043   8.422
 3735SOL     OW13138   0.711   5.408   9.229
 3735SOL    HW113139   0.641   5.475   9.206
 3735SOL    HW213140   0.784   5.410   9.160
 3736SOL     OW13141   1.754   3.929   7.922
 3736SOL    HW113142   1.804   3.909   7.837
 3736SOL    HW213143   1.713   3.845   7.957
 3737SOL     OW13144   1.422   5.316   7.940
 3737SOL    HW113145   1.478   5.343   7.862
 3737SOL    HW213146   1.366   5.393   7.970
 3738SOL     OW13147   0.094   5.466   9.316
 3738SOL    HW113148   0.038   5.436   9.393
 3738SOL    HW213149   0.174   5.516   9.350
 3739SOL     OW13150   1.295   4.676   8.089
 3739SOL    HW113151   1.372   4.618   8.116
 3739SOL    HW213152   1.329   4.759   8.046
 3740SOL     OW13153   0.796   4.987   8.800
 3740SOL    HW113154   0.751   5.038   8.873
 3740SOL    HW213155   0.744   4.999   8.715
 3741SOL     OW13156   0.679   5.379   7.583
 3741SOL    HW113157   0.696   5.396   7.486
 3741SOL    HW213158   0.629   5.293   7.594
 3742SOL     OW13159   1.608   5.457   8.855
 3742SOL    HW113160   1.663   5.450   8.771
 3742SOL    HW213161   1.610   5.552   8.888
 3743SOL     OW13162   1.847   3.878   8.458
 3743SOL    HW113163   1.884   3.790   8.427
 3743SOL    HW213164   1.766   3.901   8.404
 3744SOL     OW13165   0.270   4.108   8.211
 3744SOL    HW113166   0.176   4.119   8.177
 3744SOL    HW213167   0.280   4.157   8.298
 3745SOL     OW13168   1.216   5.303   7.497
 3745SOL    HW113169   1.218   5.213   7.540
 3745SOL    HW213170   1.136   5.309   7.437
 3746SOL     OW13171   0.783   4.717   8.750
 3746SOL    HW113172   0.868   4.674   8.718
 3746SOL    HW213173   0.803   4.811   8.777
 3747SOL     OW13174   0.983   4.684   7.789
 3747SOL    HW113175   0.999   4.688   7.690
 3747SOL    HW213176   1.025   4.601   7.826
 3748SOL     OW13177   1.469   5.411   7.499
 3748SOL    HW113178   1.378   5.369   7.492
 3748SOL    HW213179   1.525   5.384   7.421
 3749SOL     OW13180   0.385   5.075   8.938
 3749SOL    HW113181   0.354   5.142   8.870
 3749SOL    HW213182   0.322   4.997   8.938
 3750SOL     OW13183   1.585   5.010   8.740
 3750SOL    HW113184   1.649   4.982   8.811
 3750SOL    HW213185   1.524   5.081   8.776
 3751SOL     OW13186   1.135   4.841   8.248
 3751SOL    HW113187   1.048   4.801   8.278
 3751SOL    HW213188   1.180   4.778   8.185
 3752SOL     OW13189   1.057   3.989   8.338
 3752SOL    HW113190   1.052   3.929   8.258
 3752SOL    HW213191   1.056   3.933   8.421
 3753SOL     OW13192   0.630   5.219   7.954
 3753SOL    HW113193   0.683   5.179   7.878
 3753SOL    HW213194   0.533   5.199   7.940
 3754SOL     OW13195   1.748   4.182   8.806
 3754SOL    HW113196   1.827   4.242   8.808
 3754SOL    HW213197   1.776   4.092   8.771
 3755SOL     OW13198   0.275   5.087   7.689
 3755SOL    HW113199   0.175   5.078   7.692
 3755SOL    HW213200   0.308   5.120   7.777
 3756SOL     OW13201   0.708   3.851   8.814
 3756SOL    HW113202   0.798   3.818   8.786
 3756SOL    HW213203   0.715   3.900   8.901
 3757SOL     OW13204   1.374   4.569   8.829
 3757SOL    HW113205   1.313   4.628   8.776
 3757SOL    HW213206   1.466   4.573   8.790
 3758SOL     OW13207   0.127   3.801   7.642
 3758SOL    HW113208   0.156   3.853   7.722
 3758SOL    HW213209   0.199   3.736   7.616
 3759SOL     OW13210   1.194   5.047   7.599
 3759SOL    HW113211   1.098   5.018   7.594
 3759SOL    HW213212   1.220   5.058   7.695
 3760SOL     OW13213   0.650   4.546   8.911
 3760SOL    HW113214   0.687   4.616   8.850
 3760SOL    HW213215   0.724   4.508   8.966
 3761SOL     OW13216   1.534   5.580   8.503
 3761SOL    HW113217   1.563   5.637   8.426
 3761SOL    HW213218   1.614   5.536   8.544
 3762SOL     OW13219   0.715   4.216   9.008
 3762SOL    HW113220   0.776   4.281   9.053
 3762SOL    HW213221   0.738   4.123   9.037
 3763SOL     OW13222   1.461   4.904   9.076
 3763SOL    HW113223   1.452   4.935   9.171
 3763SOL    HW213224   1.552   4.929   9.042
 3764SOL     OW13225   0.374   5.433   9.021
 3764SOL    HW113226   0.279   5.461   9.024
 3764SOL    HW213227   0.389   5.357   9.083
 3765SOL     OW13228   1.611   4.603   8.694
 3765SOL    HW113229   1.628   4.517   8.646
 3765SOL    HW213230   1.600   4.676   8.627
 3766SOL     OW13231   1.227   4.049   7.900
 3766SOL    HW113232   1.290   3.972   7.902
 3766SOL    HW213233   1.246   4.109   7.978
 3767SOL     OW13234   1.746   4.135   9.081
 3767SOL    HW113235   1.740   4.160   8.985
 3767SOL    HW213236   1.677   4.066   9.102
 3768SOL     OW13237   1.725   4.670   8.934
 3768SOL    HW113238   1.717   4.768   8.947
 3768SOL    HW213239   1.689   4.644   8.845
 3769SOL     OW13240   0.875   5.087   7.522
 3769SOL    HW113241   0.844   5.105   7.615
 3769SOL    HW213242   0.898   5.173   7.476
 3770SOL     OW13243   0.658   5.518   8.386
 3770SOL    HW113244   0.604   5.602   8.392
 3770SOL    HW213245   0.730   5.520   8.455
 3771SOL     OW13246   0.898   4.717   8.326
 3771SOL    HW113247   0.941   4.628   8.342
 3771SOL    HW213248   0.822   4.730   8.390
 3772SOL     OW13249   1.043   4.668   7.525
 3772SOL    HW113250   1.019   4.738   7.457
 3772SOL    HW213251   1.133   4.629   7.503
 3773SOL     OW13252   1.842   5.275   8.278
 3773SOL    HW113253   1.758   5.261   8.225
 3773SOL    HW213254   1.863   5.192   8.330
 3774SOL     OW13255   0.292   4.952   8.126
 3774SOL    HW113256   0.315   4.893   8.204
 3774SOL    HW213257   0.302   4.900   8.041
 3775SOL     OW13258   0.657   5.140   8.977
 3775SOL    HW113259   0.563   5.109   8.960
 3775SOL    HW213260   0.659   5.194   9.061
 3776SOL     OW13261   1.839   3.938   8.724
 3776SOL    HW113262   1.932   3.922   8.759
 3776SOL    HW213263   1.837   3.917   8.626
 3777SOL     OW13264   0.453   4.186   8.024
 3777SOL    HW113265   0.383   4.158   8.090
 3777SOL    HW213266   0.519   4.247   8.069
 3778SOL     OW13267   1.672   5.212   8.570
 3778SOL    HW113268   1.621   5.194   8.486
 3778SOL    HW213269   1.661   5.136   8.633
 3779SOL     OW13270   0.318   4.264   8.803
 3779SOL    HW113271   0.355   4.241   8.893
 3779SOL    HW213272   0.277   4.182   8.762
 3780SOL     OW13273   0.826   5.371   8.074
 3780SOL    HW113274   0.825   5.464   8.040
 3780SOL    HW213275   0.747   5.321   8.039
 3781SOL     OW13276   1.434   3.976   8.544
 3781SOL    HW113277   1.456   3.880   8.559
 3781SOL    HW213278   1.381   4.010   8.622
 3782SOL     OW13279   1.061   3.751   8.511
 3782SOL    HW113280   1.012   3.691   8.448
 3782SOL    HW213281   1.153   3.716   8.526
 3783SOL     OW13282   0.811   5.098   7.786
 3783SOL    HW113283   0.798   5.002   7.813
 3783SOL    HW213284   0.889   5.136   7.834
 3784SOL     OW13285   1.393   3.748   7.637
 3784SOL    HW113286   1.442   3.676   7.589
 3784SOL    HW213287   1.301   3.716   7.661
 3785SOL     OW13288   1.264   4.215   8.110
 3785SOL    HW113289   1.220   4.305   8.113
 3785SOL    HW213290   1.283   4.184   8.203
 3786SOL     OW13291   1.616   3.950   8.340
 3786SOL    HW113292   1.549   3.973   8.411
 3786SOL    HW213293   1.618   4.023   8.272
 3787SOL     OW13294   0.097   4.793   7.699
 3787SOL    HW113295   0.193   4.779   7.672
 3787SOL    HW213296   0.090   4.789   7.798
 3788SOL     OW13297   0.900   5.437   7.747
 3788SOL    HW113298   0.822   5.411   7.690
 3788SOL    HW213299   0.870   5.501   7.817
 3789SOL     OW13300   0.253   4.249   9.414
 3789SOL    HW113301   0.224   4.311   9.486
 3789SOL    HW213302   0.215   4.279   9.327
 3790SOL     OW13303   0.243   5.400   9.707
 3790SOL    HW113304   0.199   5.470   9.764
 3790SOL    HW213305   0.331   5.435   9.674
 3791SOL     OW13306   0.274   5.159   9.832
 3791SOL    HW113307   0.262   5.250   9.793
 3791SOL    HW213308   0.220   5.150   9.915
 3792SOL     OW13309   0.707   4.685   9.437
 3792SOL    HW113310   0.753   4.739   9.366
 3792SOL    HW213311   0.721   4.728   9.526
 3793SOL     OW13312   0.091   4.427   9.988
 3793SOL    HW113313   0.047   4.337   9.980
 3793SOL    HW213314   0.023   4.496   0.011
 3794SOL     OW13315   1.845   5.426   9.662
 3794SOL    HW113316   1.875   5.366   9.737
 3794SOL    HW213317   1.877   5.519   9.680
 3795SOL     OW13318   0.011   5.332   9.565
 3795SOL    HW113319   0.012   5.235   9.540
 3795SOL    HW213320   0.096   5.356   9.611
 3796SOL     OW13321   1.639   4.579   9.896
 3796SOL    HW113322   1.708   4.592   9.967
 3796SOL    HW213323   1.648   4.651   9.828
 3797SOL     OW13324   1.727   4.788   9.732
 3797SOL    HW113325   1.802   4.770   9.668
 3797SOL    HW213326   1.753   4.863   9.793
 3798SOL     OW13327   0.518   5.071   9.917
 3798SOL    HW113328   0.504   4.983   9.963
 3798SOL    HW213329   0.433   5.100   9.873
 3799SOL     OW13330   0.879   3.741   9.822
 3799SOL    HW113331   0.913   3.826   9.784
 3799SOL    HW213332   0.779   3.737   9.812
 3800SOL     OW13333   1.577   4.777   9.496
 3800SOL    HW113334   1.492   4.723   9.503
 3800SOL    HW213335   1.617   4.787   9.587
 3801SOL     OW13336   0.632   4.468   9.594
 3801SOL    HW113337   0.661   4.530   9.521
 3801SOL    HW213338   0.606   4.521   9.674
 3802SOL     OW13339   1.579   5.381   9.628
 3802SOL    HW113340   1.677   5.398   9.639
 3802SOL    HW213341   1.555   5.386   9.531
 3803SOL     OW13342   1.071   4.435   9.744
 3803SOL    HW113343   1.108   4.390   9.825
 3803SOL    HW213344   0.984   4.393   9.719
 3804SOL     OW13345   9.992   4.679   0.053
 3804SOL    HW113346   0.058   4.716   9.987
 3804SOL    HW213347   0.015   4.712   0.144
 3805SOL     OW13348   0.869   4.101   9.490
 3805SOL    HW113349   0.931   4.150   9.429
 3805SOL    HW213350   0.814   4.036   9.437
 3806SOL     OW13351   1.225   4.864   9.867
 3806SOL    HW113352   1.300   4.873   9.933
 3806SOL    HW213353   1.219   4.948   9.813
 3807SOL     OW13354   1.031   5.249   9.878
 3807SOL    HW113355   0.995   5.316   9.813
 3807SOL    HW213356   0.961   5.227   9.946
 3808SOL     OW13357   0.354   5.478   0.169
 3808SOL    HW113358   0.381   5.390   0.131
 3808SOL    HW213359   0.380   5.483   0.265
 3809SOL     OW13360   1.179   5.513   9.560
 3809SOL    HW113361   1.099   5.489   9.615
 3809SOL    HW213362   1.198   5.439   9.495
 3810SOL     OW13363   1.654   5.148   9.390
 3810SOL    HW113364   1.605   5.236   9.386
 3810SOL    HW213365   1.591   5.074   9.370
 3811SOL     OW13366   0.493   5.511   9.610
 3811SOL    HW113367   0.522   5.590   9.664
 3811SOL    HW213368   0.573   5.462   9.576
 3812SOL     OW13369   1.350   3.847   9.751
 3812SOL    HW113370   1.355   3.806   9.660
 3812SOL    HW213371   1.442   3.858   9.788
 3813SOL     OW13372   0.303   4.506   9.846
 3813SOL    HW113373   0.372   4.435   9.858
 3813SOL    HW213374   0.222   4.484   9.901
 3814SOL     OW13375   0.615   3.813   9.419
 3814SOL    HW113376   0.621   3.713   9.431
 3814SOL    HW213377   0.580   3.834   9.328
 3815SOL     OW13378   0.613   3.761   9.791
 3815SOL    HW113379   0.553   3.768   9.871
 3815SOL    HW213380   0.600   3.842   9.733
 3816SOL     OW13381   1.443   4.967   9.348
 3816SOL    HW113382   1.489   4.894   9.399
 3816SOL    HW213383   1.364   4.998   9.399
 3817SOL     OW13384   0.230   3.740   9.487
 3817SOL    HW113385   0.216   3.837   9.509
 3817SOL    HW213386   0.305   3.703   9.542
 3818SOL     OW13387   0.960   3.976   9.717
 3818SOL    HW113388   0.919   4.011   9.633
 3818SOL    HW213389   1.056   4.004   9.722
 3819SOL     OW13390   0.430   4.858   0.074
 3819SOL    HW113391   0.401   4.920   0.146
 3819SOL    HW213392   0.351   4.822   0.026
 3820SOL     OW13393   1.293   5.550   9.892
 3820SOL    HW113394   1.317   5.622   9.826
 3820SOL    HW213395   1.306   5.584   9.985
 3821SOL     OW13396   1.053   4.249   9.342
 3821SOL    HW113397   1.052   4.339   9.299
 3821SOL    HW213398   1.117   4.249   9.418
 3822SOL     OW13399   0.887   4.158   9.910
 3822SOL    HW113400   0.851   4.229   9.849
 3822SOL    HW213401   0.906   4.075   9.857
 3823SOL     OW13402   2.119   4.460   9.680
 3823SOL    HW113403   2.048   4.445   9.749
 3823SOL    HW213404   2.098   4.407   9.598
 3824SOL     OW13405   1.387   4.296   9.336
 3824SOL    HW113406   1.350   4.280   9.428
 3824SOL    HW213407   1.487   4.296   9.341
 3825SOL     OW13408   0.543   3.966   9.630
 3825SOL    HW113409   0.570   3.914   9.550
 3825SOL    HW213410   0.534   4.063   9.606
 3826SOL     OW13411   0.745   4.816   9.674
 3826SOL    HW113412   0.679   4.769   9.733
 3826SOL    HW213413   0.838   4.791   9.701
 3827SOL     OW13414   0.210   4.775   9.901
 3827SOL    HW113415   0.199   4.831   9.819
 3827SOL    HW213416   0.248   4.686   9.875
 3828SOL     OW13417   1.232   5.117   9.748
 3828SOL    HW113418   1.311   5.174   9.771
 3828SOL    HW213419   1.150   5.157   9.788
 3829SOL     OW13420   1.660   4.309   9.844
 3829SOL    HW113421   1.642   4.407   9.845
 3829SOL    HW213422   1.590   4.262   9.897
 3830SOL     OW13423   1.218   4.275   9.559
 3830SOL    HW113424   1.222   4.195   9.619
 3830SOL    HW213425   1.182   4.353   9.609
 3831SOL     OW13426   0.430   3.802   9.984
 3831SOL    HW113427   0.360   3.835   9.921
 3831SOL    HW213428   0.392   3.728   0.040
 3832SOL     OW13429   1.516   3.926   9.393
 3832SOL    HW113430   1.463   3.852   9.434
 3832SOL    HW213431   1.562   3.978   9.465
 3833SOL     OW13432   1.236   4.515   9.291
 3833SOL    HW113433   1.290   4.432   9.304
 3833SOL    HW213434   1.275   4.569   9.216
 3834SOL     OW13435   0.002   5.058   9.500
 3834SOL    HW113436   0.015   5.042   9.402
 3834SOL    HW213437   9.918   5.014   9.531
 3835SOL     OW13438   0.835   4.304   9.679
 3835SOL    HW113439   0.844   4.229   9.613
 3835SOL    HW213440   0.761   4.365   9.650
 3836SOL     OW13441   0.498   4.225   9.560
 3836SOL    HW113442   0.547   4.312   9.569
 3836SOL    HW213443   0.418   4.238   9.502
 3837SOL     OW13444   1.336   4.653   9.510
 3837SOL    HW113445   1.267   4.668   9.581
 3837SOL    HW213446   1.294   4.606   9.432
 3838SOL     OW13447   1.597   3.885   9.853
 3838SOL    HW113448   1.693   3.900   9.829
 3838SOL    HW213449   1.582   3.909   9.949
 3839SOL     OW13450   1.413   5.315   9.827
 3839SOL    HW113451   1.476   5.334   9.752
 3839SOL    HW213452   1.355   5.395   9.842
 3840SOL     OW13453   0.724   5.374   9.505
 3840SOL    HW113454   0.725   5.385   9.406
 3840SOL    HW213455   0.721   5.277   9.528
 3841SOL     OW13456   1.242   5.315   9.378
 3841SOL    HW113457   1.238   5.223   9.416
 3841SOL    HW213458   1.169   5.327   9.311
 3842SOL     OW13459   0.996   4.717   9.748
 3842SOL    HW113460   1.068   4.772   9.789
 3842SOL    HW213461   1.022   4.620   9.748
 3843SOL     OW13462   1.506   5.392   9.363
 3843SOL    HW113463   1.409   5.368   9.358
 3843SOL    HW213464   1.545   5.392   9.271
 3844SOL     OW13465   0.161   4.955   9.700
 3844SOL    HW113466   0.116   4.991   9.618
 3844SOL    HW213467   0.210   5.029   9.746
 3845SOL     OW13468   0.075   3.913   9.253
 3845SOL    HW113469   0.072   3.879   9.347
 3845SOL    HW213470   9.982   3.925   9.219
 3846SOL     OW13471   1.212   5.059   9.478
 3846SOL    HW113472   1.114   5.049   9.460
 3846SOL    HW213473   1.228   5.073   9.576
 3847SOL     OW13474   1.210   4.078   9.744
 3847SOL    HW113475   1.267   3.997   9.756
 3847SOL    HW213476   1.210   4.131   9.828
 3848SOL     OW13477   0.564   4.629   9.809
 3848SOL    HW113478   0.607   4.621   9.899
 3848SOL    HW213479   0.468   4.602   9.816
 3849SOL     OW13480   0.941   5.077   9.426
 3849SOL    HW113481   0.859   5.085   9.484
 3849SOL    HW213482   0.949   5.158   9.369
 3850SOL     OW13483   0.148   5.020   0.042
 3850SOL    HW113484   0.060   5.023   0.091
 3850SOL    HW213485   0.155   4.934   9.993
 3851SOL     OW13486   0.470   4.304   9.897
 3851SOL    HW113487   0.509   4.232   9.839
 3851SOL    HW213488   0.472   4.274   9.993
 3852SOL     OW13489   1.381   3.718   9.512
 3852SOL    HW113490   1.443   3.649   9.550
 3852SOL    HW213491   1.326   3.677   9.439
 3853SOL     OW13492   9.920   4.814   9.685
 3853SOL    HW113493   9.994   4.872   9.718
 3853SOL    HW213494   9.957   4.745   9.623
 3854SOL     OW13495   0.932   5.439   9.692
 3854SOL    HW113496   0.863   5.417   9.622
 3854SOL    HW213497   0.905   5.522   9.739
 3855SOL     OW13498   0.115   6.298   0.184
 3855SOL    HW113499   0.030   6.269   0.229
 3855SOL    HW213500   0.121   6.255   0.094
 3856SOL     OW13501   0.139   5.876   1.056
 3856SOL    HW113502   0.207   5.823   1.106
 3856SOL    HW213503   0.049   5.862   1.097
 3857SOL     OW13504   9.881   5.957   0.767
 3857SOL    HW113505   9.887   6.039   0.825
 3857SOL    HW213506   9.834   5.981   0.682
 3858SOL     OW13507   0.573   6.910   1.208
 3858SOL    HW113508   0.502   6.914   1.138
 3858SOL    HW213509   0.596   7.003   1.238
 3859SOL     OW13510   1.116   6.332   0.667
 3859SOL    HW113511   1.161   6.418   0.644
 3859SOL    HW213512   1.068   6.341   0.754
 3860SOL     OW13513   1.693   6.114   0.152
 3860SOL    HW113514   1.611   6.141   0.101
 3860SOL    HW213515   1.667   6.059   0.232
 3861SOL     OW13516   0.722   6.720   1.058
 3861SOL    HW113517   0.657   6.758   1.125
 3861SOL    HW213518   0.772   6.795   1.014
 3862SOL     OW13519   0.895   6.292   1.835
 3862SOL    HW113520   0.897   6.350   1.916
 3862SOL    HW213521   0.908   6.349   1.753
 3863SOL     OW13522   0.671   6.562   0.633
 3863SOL    HW113523   0.747   6.567   0.697
 3863SOL    HW213524   0.603   6.630   0.656
 3864SOL     OW13525   0.677   6.721   1.757
 3864SOL    HW113526   0.679   6.812   1.715
 3864SOL    HW213527   0.590   6.678   1.737
 3865SOL     OW13528   0.383   7.033   1.018
 3865SOL    HW113529   0.309   7.021   0.952
 3865SOL    HW213530   0.452   7.095   0.980
 3866SOL     OW13531   1.435   7.101   1.411
 3866SOL    HW113532   1.502   7.175   1.420
 3866SOL    HW213533   1.346   7.134   1.441
 3867SOL     OW13534   0.528   5.959   1.455
 3867SOL    HW113535   0.600   5.891   1.446
 3867SOL    HW213536   0.490   5.955   1.547
 3868SOL     OW13537   1.725   6.102   0.763
 3868SOL    HW113538   1.658   6.123   0.692
 3868SOL    HW213539   1.707   6.158   0.844
 3869SOL     OW13540   0.253   7.218   0.569
 3869SOL    HW113541   0.184   7.289   0.552
 3869SOL    HW213542   0.339   7.244   0.526
 3870SOL     OW13543   1.079   6.860   1.678
 3870SOL    HW113544   1.175   6.831   1.681
 3870SOL    HW213545   1.020   6.787   1.711
 3871SOL     OW13546   0.153   6.991   0.462
 3871SOL    HW113547   0.192   7.075   0.498
 3871SOL    HW213548   0.146   6.923   0.536
 3872SOL     OW13549   0.269   6.665   0.877
 3872SOL    HW113550   0.272   6.569   0.904
 3872SOL    HW213551   0.212   6.717   0.942
 3873SOL     OW13552   0.578   7.432   1.348
 3873SOL    HW113553   0.504   7.415   1.412
 3873SOL    HW213554   0.646   7.493   1.390
 3874SOL     OW13555   0.505   6.536   0.198
 3874SOL    HW113556   0.473   6.617   0.149
 3874SOL    HW213557   0.586   6.561   0.252
 3875SOL     OW13558   1.679   5.691   1.536
 3875SOL    HW113559   1.717   5.771   1.490
 3875SOL    HW213560   1.613   5.720   1.605
 3876SOL     OW13561   1.916   7.313   0.329
 3876SOL    HW113562   1.994   7.298   0.391
 3876SOL    HW213563   1.923   7.404   0.289
 3877SOL     OW13564   9.938   7.257   0.139
 3877SOL    HW113565   9.965   7.214   0.053
 3877SOL    HW213566   0.001   7.332   0.160
 3878SOL     OW13567   1.664   6.411   0.587
 3878SOL    HW113568   1.745   6.409   0.645
 3878SOL    HW213569   1.664   6.494   0.531
 3879SOL     OW13570   1.700   6.652   0.464
 3879SOL    HW113571   1.780   6.636   0.406
 3879SOL    HW213572   1.722   6.720   0.534
 3880SOL     OW13573   0.252   6.294   1.621
 3880SOL    HW113574   0.351   6.292   1.631
 3880SOL    HW213575   0.219   6.388   1.634
 3881SOL     OW13576   0.621   6.962   0.764
 3881SOL    HW113577   0.565   6.879   0.766
 3881SOL    HW213578   0.631   6.993   0.669
 3882SOL     OW13579   1.258   6.800   1.390
 3882SOL    HW113580   1.277   6.735   1.317
 3882SOL    HW213581   1.342   6.821   1.439
 3883SOL     OW13582   0.843   5.625   0.525
 3883SOL    HW113583   0.884   5.709   0.490
 3883SOL    HW213584   0.745   5.638   0.536
 3884SOL     OW13585   0.172   6.468   1.280
 3884SOL    HW113586   0.270   6.448   1.278
 3884SOL    HW213587   0.126   6.420   1.205
 3885SOL     OW13588   1.474   6.654   0.293
 3885SOL    HW113589   1.416   6.577   0.318
 3885SOL    HW213590   1.552   6.659   0.356
 3886SOL     OW13591   1.113   7.430   1.516
 3886SOL    HW113592   1.187   7.497   1.522
 3886SOL    HW213593   1.151   7.341   1.491
 3887SOL     OW13594   1.518   6.936   0.978
 3887SOL    HW113595   1.455   6.986   1.037
 3887SOL    HW213596   1.467   6.874   0.918
 3888SOL     OW13597   1.668   7.223   0.394
 3888SOL    HW113598   1.760   7.256   0.372
 3888SOL    HW213599   1.623   7.192   0.311
 3889SOL     OW13600   0.786   6.146   1.427
 3889SOL    HW113601   0.752   6.118   1.517
 3889SOL    HW213602   0.761   6.078   1.359
 3890SOL     OW13603   1.359   6.064   1.641
 3890SOL    HW113604   1.360   6.118   1.725
 3890SOL    HW213605   1.424   5.989   1.649
 3891SOL     OW13606   0.933   6.443   1.600
 3891SOL    HW113607   0.984   6.378   1.542
 3891SOL    HW213608   0.885   6.509   1.542
 3892SOL     OW13609   0.991   5.957   1.099
 3892SOL    HW113610   0.904   5.964   1.148
 3892SOL    HW213611   0.998   5.868   1.055
 3893SOL     OW13612   1.064   6.298   0.398
 3893SOL    HW113613   1.083   6.311   0.495
 3893SOL    HW213614   0.980   6.244   0.387
 3894SOL     OW13615   0.011   6.408   0.850
 3894SOL    HW113616   0.108   6.407   0.875
 3894SOL    HW213617   9.961   6.463   0.917
 3895SOL     OW13618   0.113   7.442   1.580
 3895SOL    HW113619   0.115   7.423   1.678
 3895SOL    HW213620   0.092   7.358   1.531
 3896SOL     OW13621   0.859   5.918   0.193
 3896SOL    HW113622   0.832   5.975   0.116
 3896SOL    HW213623   0.890   5.829   0.159
 3897SOL     OW13624   1.633   6.196   1.825
 3897SOL    HW113625   1.636   6.279   1.770
 3897SOL    HW213626   1.669   6.119   1.772
 3898SOL     OW13627   0.592   5.689   0.923
 3898SOL    HW113628   0.589   5.722   1.018
 3898SOL    HW213629   0.600   5.766   0.861
 3899SOL     OW13630   0.960   7.033   0.449
 3899SOL    HW113631   0.933   7.105   0.385
 3899SOL    HW213632   0.938   7.061   0.543
 3900SOL     OW13633   0.385   7.427   0.906
 3900SOL    HW113634   0.436   7.342   0.892
 3900SOL    HW213635   0.428   7.481   0.978
 3901SOL     OW13636   1.775   6.656   0.871
 3901SOL    HW113637   1.764   6.722   0.797
 3901SOL    HW213638   1.689   6.646   0.921
 3902SOL     OW13639   1.177   7.162   1.471
 3902SOL    HW113640   1.152   7.149   1.567
 3902SOL    HW213641   1.128   7.095   1.415
 3903SOL     OW13642   0.252   6.504   0.307
 3903SOL    HW113643   0.344   6.510   0.267
 3903SOL    HW213644   0.206   6.422   0.273
 3904SOL     OW13645   1.434   6.428   0.728
 3904SOL    HW113646   1.436   6.361   0.803
 3904SOL    HW213647   1.521   6.426   0.679
 3905SOL     OW13648   0.423   6.903   1.710
 3905SOL    HW113649   0.396   6.907   1.613
 3905SOL    HW213650   0.342   6.918   1.767
 3906SOL     OW13651   1.124   7.311   0.198
 3906SOL    HW113652   1.037   7.277   0.234
 3906SOL    HW213653   1.172   7.237   0.151
 3907SOL     OW13654   0.166   5.874   1.403
 3907SOL    HW113655   0.162   5.973   1.410
 3907SOL    HW213656   0.085   5.834   1.446
 3908SOL     OW13657   1.625   6.898   0.122
 3908SOL    HW113658   1.594   6.991   0.139
 3908SOL    HW213659   1.548   6.843   0.089
 3909SOL     OW13660   0.502   7.277   0.454
 3909SOL    HW113661   0.527   7.366   0.493
 3909SOL    HW213662   0.537   7.271   0.360
 3910SOL     OW13663   0.176   7.329   1.240
 3910SOL    HW113664   0.253   7.267   1.255
 3910SOL    HW213665   0.149   7.326   1.143
 3911SOL     OW13666   0.963   7.335   0.816
 3911SOL    HW113667   1.049   7.288   0.839
 3911SOL    HW213668   0.909   7.277   0.755
 3912SOL     OW13669   1.490   5.813   1.709
 3912SOL    HW113670   1.493   5.829   1.808
 3912SOL    HW213671   1.411   5.756   1.687
 3913SOL     OW13672   0.665   5.655   0.162
 3913SOL    HW113673   0.756   5.671   0.124
 3913SOL    HW213674   0.597   5.668   0.090
 3914SOL     OW13675   0.805   5.839   1.729
 3914SOL    HW113676   0.896   5.798   1.723
 3914SOL    HW213677   0.755   5.799   1.806
 3915SOL     OW13678   0.862   7.098   1.188
 3915SOL    HW113679   0.846   7.052   1.100
 3915SOL    HW213680   0.930   7.046   1.240
 3916SOL     OW13681   1.270   6.182   1.407
 3916SOL    HW113682   1.308   6.145   1.492
 3916SOL    HW213683   1.310   6.272   1.390
 3917SOL     OW13684   0.822   6.952   0.953
 3917SOL    HW113685   0.913   6.963   0.912
 3917SOL    HW213686   0.752   6.962   0.883
 3918SOL     OW13687   0.903   6.117   0.883
 3918SOL    HW113688   0.880   6.073   0.796
 3918SOL    HW213689   0.946   6.050   0.944
 3919SOL     OW13690   0.576   5.669   0.533
 3919SOL    HW113691   0.506   5.686   0.603
 3919SOL    HW213692   0.569   5.738   0.461
 3920SOL     OW13693   1.382   6.758   0.061
 3920SOL    HW113694   1.415   6.715   0.145
 3920SOL    HW213695   1.291   6.797   0.076
 3921SOL     OW13696   0.954   5.854   0.442
 3921SOL    HW113697   0.919   5.879   0.352
 3921SOL    HW213698   1.052   5.878   0.448
 3922SOL     OW13699   1.015   6.284   1.391
 3922SOL    HW113700   0.941   6.218   1.404
 3922SOL    HW213701   1.103   6.237   1.394
 3923SOL     OW13702   1.206   7.210   0.835
 3923SOL    HW113703   1.244   7.261   0.758
 3923SOL    HW213704   1.248   7.243   0.920
 3924SOL     OW13705   0.469   6.733   0.702
 3924SOL    HW113706   0.404   6.709   0.774
 3924SOL    HW213707   0.422   6.732   0.613
 3925SOL     OW13708   1.292   7.384   0.647
 3925SOL    HW113709   1.355   7.400   0.571
 3925SOL    HW213710   1.236   7.465   0.661
 3926SOL     OW13711   1.037   6.209   9.990
 3926SOL    HW113712   1.062   6.306   9.995
 3926SOL    HW213713   1.081   6.160   0.065
 3927SOL     OW13714   0.167   6.150   1.402
 3927SOL    HW113715   0.255   6.142   1.355
 3927SOL    HW213716   0.178   6.208   1.483
 3928SOL     OW13717   0.571   5.758   1.187
 3928SOL    HW113718   0.607   5.684   1.244
 3928SOL    HW213719   0.471   5.761   1.195
 3929SOL     OW13720   0.815   5.992   0.646
 3929SOL    HW113721   0.728   5.951   0.673
 3929SOL    HW213722   0.864   5.930   0.584
 3930SOL     OW13723   1.021   5.596   0.727
 3930SOL    HW113724   0.954   5.614   0.655
 3930SOL    HW213725   0.991   5.519   0.782
 3931SOL     OW13726   1.369   6.769   0.814
 3931SOL    HW113727   1.276   6.735   0.825
 3931SOL    HW213728   1.378   6.815   0.726
 3932SOL     OW13729   1.449   6.229   0.920
 3932SOL    HW113730   1.428   6.134   0.894
 3932SOL    HW213731   1.526   6.229   0.985
 3933SOL     OW13732   1.844   6.321   0.269
 3933SOL    HW113733   1.884   6.292   0.356
 3933SOL    HW213734   1.789   6.247   0.231
 3934SOL     OW13735   0.432   7.080   0.142
 3934SOL    HW113736   0.355   7.018   0.163
 3934SOL    HW213737   0.487   7.040   0.069
 3935SOL     OW13738   1.788   6.833   0.656
 3935SOL    HW113739   1.888   6.835   0.654
 3935SOL    HW213740   1.753   6.926   0.648
 3936SOL     OW13741   1.403   6.096   0.079
 3936SOL    HW113742   1.319   6.102   0.133
 3936SOL    HW213743   1.439   6.003   0.085
 3937SOL     OW13744   0.541   5.841   0.330
 3937SOL    HW113745   0.595   5.791   0.263
 3937SOL    HW213746   0.533   5.937   0.302
 3938SOL     OW13747   1.030   6.943   1.346
 3938SOL    HW113748   0.945   6.909   1.387
 3938SOL    HW213749   1.107   6.888   1.379
 3939SOL     OW13750   1.583   7.166   1.691
 3939SOL    HW113751   1.603   7.218   1.608
 3939SOL    HW213752   1.638   7.083   1.693
 3940SOL     OW13753   1.155   6.864   1.105
 3940SOL    HW113754   1.093   6.889   1.179
 3940SOL    HW213755   1.120   6.900   1.019
 3941SOL     OW13756   1.524   6.620   1.000
 3941SOL    HW113757   1.462   6.640   1.076
 3941SOL    HW213758   1.481   6.646   0.914
 3942SOL     OW13759   0.957   5.624   1.382
 3942SOL    HW113760   0.974   5.582   1.293
 3942SOL    HW213761   1.035   5.680   1.409
 3943SOL     OW13762   0.934   6.649   1.774
 3943SOL    HW113763   0.838   6.677   1.777
 3943SOL    HW213764   0.944   6.570   1.713
 3944SOL     OW13765   0.728   6.613   0.353
 3944SOL    HW113766   0.715   6.583   0.448
 3944SOL    HW213767   0.810   6.571   0.315
 3945SOL     OW13768   0.437   6.391   1.274
 3945SOL    HW113769   0.509   6.407   1.342
 3945SOL    HW213770   0.420   6.292   1.266
 3946SOL     OW13771   1.217   5.954   1.260
 3946SOL    HW113772   1.237   6.041   1.304
 3946SOL    HW213773   1.136   5.964   1.201
 3947SOL     OW13774   0.045   7.130   1.384
 3947SOL    HW113775   0.087   7.200   1.325
 3947SOL    HW213776   0.096   7.124   1.470
 3948SOL     OW13777   0.319   6.716   0.466
 3948SOL    HW113778   0.337   6.785   0.396
 3948SOL    HW213779   0.298   6.628   0.422
 3949SOL     OW13780   0.494   6.136   0.856
 3949SOL    HW113781   0.487   6.217   0.798
 3949SOL    HW213782   0.564   6.152   0.926
 3950SOL     OW13783   1.204   6.951   0.379
 3950SOL    HW113784   1.242   7.028   0.328
 3950SOL    HW213785   1.114   6.975   0.414
 3951SOL     OW13786   1.349   7.055   1.155
 3951SOL    HW113787   1.382   7.059   1.249
 3951SOL    HW213788   1.281   6.982   1.147
 3952SOL     OW13789   1.554   6.159   0.551
 3952SOL    HW113790   1.455   6.160   0.568
 3952SOL    HW213791   1.587   6.253   0.546
 3953SOL     OW13792   0.358   7.130   1.268
 3953SOL    HW113793   0.350   7.089   1.177
 3953SOL    HW213794   0.453   7.150   1.287
 3954SOL     OW13795   0.524   6.301   1.656
 3954SOL    HW113796   0.566   6.341   1.575
 3954SOL    HW213797   0.579   6.223   1.687
 3955SOL     OW13798   1.634   6.419   1.670
 3955SOL    HW113799   1.541   6.455   1.658
 3955SOL    HW213800   1.683   6.425   1.583
 3956SOL     OW13801   1.033   5.682   1.768
 3956SOL    HW113802   1.085   5.766   1.756
 3956SOL    HW213803   1.083   5.605   1.727
 3957SOL     OW13804   0.662   6.451   1.114
 3957SOL    HW113805   0.676   6.546   1.086
 3957SOL    HW213806   0.573   6.441   1.157
 3958SOL     OW13807   1.260   6.413   1.019
 3958SOL    HW113808   1.172   6.395   0.976
 3958SOL    HW213809   1.328   6.347   0.986
 3959SOL     OW13810   1.174   6.107   0.228
 3959SOL    HW113811   1.188   6.027   0.287
 3959SOL    HW213812   1.136   6.182   0.282
 3960SOL     OW13813   0.304   5.734   1.218
 3960SOL    HW113814   0.260   5.779   1.296
 3960SOL    HW213815   0.269   5.641   1.209
 3961SOL     OW13816   0.022   6.869   1.281
 3961SOL    HW113817   0.070   6.806   1.341
 3961SOL    HW213818   0.027   6.962   1.318
 3962SOL     OW13819   0.688   6.189   1.035
 3962SOL    HW113820   0.769   6.173   0.978
 3962SOL    HW213821   0.682   6.285   1.060
 3963SOL     OW13822   1.781   6.558   1.856
 3963SOL    HW113823   1.724   6.506   1.793
 3963SOL    HW213824   1.727   6.584   1.936
 3964SOL     OW13825   0.350   5.734   0.684
 3964SOL    HW113826   0.272   5.789   0.714
 3964SOL    HW213827   0.351   5.647   0.733
 3965SOL     OW13828   1.614   5.964   0.363
 3965SOL    HW113829   1.681   5.902   0.406
 3965SOL    HW213830   1.586   6.033   0.430
 3966SOL     OW13831   1.002   6.364   0.923
 3966SOL    HW113832   0.983   6.391   1.018
 3966SOL    HW213833   0.966   6.271   0.908
 3967SOL     OW13834   1.062   7.124   1.715
 3967SOL    HW113835   0.977   7.163   1.680
 3967SOL    HW213836   1.059   7.024   1.705
 3968SOL     OW13837   0.449   6.544   1.766
 3968SOL    HW113838   0.466   6.553   1.864
 3968SOL    HW213839   0.483   6.455   1.734
 3969SOL     OW13840   1.506   5.844   0.129
 3969SOL    HW113841   1.452   5.761   0.140
 3969SOL    HW213842   1.541   5.874   0.218
 3970SOL     OW13843   1.393   6.372   0.070
 3970SOL    HW113844   1.399   6.272   0.064
 3970SOL    HW213845   1.468   6.413   0.020
 3971SOL     OW13846   1.076   6.968   0.865
 3971SOL    HW113847   1.099   6.891   0.806
 3971SOL    HW213848   1.131   7.048   0.840
 3972SOL     OW13849   0.277   6.388   0.916
 3972SOL    HW113850   0.349   6.389   0.847
 3972SOL    HW213851   0.278   6.300   0.964
 3973SOL     OW13852   0.274   6.110   1.014
 3973SOL    HW113853   0.225   6.023   1.014
 3973SOL    HW213854   0.348   6.107   0.946
 3974SOL     OW13855   1.134   5.925   1.698
 3974SOL    HW113856   1.083   5.972   1.770
 3974SOL    HW213857   1.213   5.980   1.671
 3975SOL     OW13858   1.169   5.773   1.464
 3975SOL    HW113859   1.150   5.828   1.545
 3975SOL    HW213860   1.195   5.832   1.387
 3976SOL     OW13861   9.947   6.858   0.130
 3976SOL    HW113862   9.850   6.879   0.133
 3976SOL    HW213863   9.967   6.783   0.194
 3977SOL     OW13864   0.144   7.304   0.968
 3977SOL    HW113865   0.164   7.219   0.920
 3977SOL    HW213866   0.213   7.373   0.945
 3978SOL     OW13867   0.552   7.206   0.891
 3978SOL    HW113868   0.622   7.278   0.895
 3978SOL    HW213869   0.587   7.129   0.839
 3979SOL     OW13870   0.931   6.430   1.175
 3979SOL    HW113871   0.963   6.378   1.254
 3979SOL    HW213872   0.831   6.426   1.171
 3980SOL     OW13873   0.061   6.209   1.154
 3980SOL    HW113874   0.140   6.176   1.102
 3980SOL    HW213875   0.073   6.187   1.250
 3981SOL     OW13876   0.192   6.052   1.730
 3981SOL    HW113877   0.274   5.996   1.721
 3981SOL    HW213878   0.205   6.139   1.683
 3982SOL     OW13879   1.381   6.518   1.630
 3982SOL    HW113880   1.360   6.615   1.645
 3982SOL    HW213881   1.368   6.495   1.533
 3983SOL     OW13882   0.852   6.136   0.390
 3983SOL    HW113883   0.833   6.067   0.321
 3983SOL    HW213884   0.824   6.102   0.480
 3984SOL     OW13885   1.663   6.189   1.088
 3984SOL    HW113886   1.632   6.105   1.132
 3984SOL    HW213887   1.760   6.203   1.107
 3985SOL     OW13888   0.165   7.161   1.634
 3985SOL    HW113889   0.169   7.222   1.713
 3985SOL    HW213890   0.201   7.071   1.660
 3986SOL     OW13891   0.739   5.981   1.207
 3986SOL    HW113892   0.676   5.903   1.202
 3986SOL    HW213893   0.706   6.054   1.147
 3987SOL     OW13894   0.885   7.274   1.538
 3987SOL    HW113895   0.860   7.242   1.447
 3987SOL    HW213896   0.962   7.338   1.531
 3988SOL     OW13897   0.178   6.700   1.429
 3988SOL    HW113898   0.184   6.665   1.522
 3988SOL    HW213899   0.181   6.624   1.365
 3989SOL     OW13900   1.291   6.635   1.168
 3989SOL    HW113901   1.274   6.554   1.111
 3989SOL    HW213902   1.239   6.713   1.133
 3990SOL     OW13903   1.303   6.442   0.327
 3990SOL    HW113904   1.220   6.389   0.346
 3990SOL    HW213905   1.338   6.417   0.237
 3991SOL     OW13906   1.758   7.278   1.171
 3991SOL    HW113907   1.830   7.322   1.117
 3991SOL    HW213908   1.745   7.184   1.138
 3992SOL     OW13909   1.311   7.310   1.068
 3992SOL    HW113910   1.398   7.361   1.073
 3992SOL    HW213911   1.325   7.218   1.105
 3993SOL     OW13912   0.092   6.811   1.019
 3993SOL    HW113913   0.079   6.831   1.116
 3993SOL    HW213914   0.017   6.850   0.966
 3994SOL     OW13915   0.686   7.247   1.717
 3994SOL    HW113916   0.631   7.329   1.731
 3994SOL    HW213917   0.760   7.266   1.653
 3995SOL     OW13918   0.922   5.676   0.074
 3995SOL    HW113919   0.909   5.666   9.976
 3995SOL    HW213920   0.996   5.617   0.105
 3996SOL     OW13921   1.796   5.793   0.476
 3996SOL    HW113922   1.859   5.765   0.403
 3996SOL    HW213923   1.743   5.714   0.506
 3997SOL     OW13924   0.140   7.339   1.840
 3997SOL    HW113925   0.082   7.291   1.907
 3997SOL    HW213926   0.212   7.389   1.888
 3998SOL     OW13927   1.244   6.554   0.586
 3998SOL    HW113928   1.321   6.523   0.641
 3998SOL    HW213929   1.267   6.545   0.489
 3999SOL     OW13930   0.768   6.864   1.416
 3999SOL    HW113931   0.738   6.908   1.500
 3999SOL    HW213932   0.697   6.875   1.346
 4000SOL     OW13933   0.623   7.263   0.206
 4000SOL    HW113934   0.601   7.346   0.156
 4000SOL    HW213935   0.563   7.189   0.176
 4001SOL     OW13936   1.629   7.292   1.424
 4001SOL    HW113937   1.670   7.281   1.334
 4001SOL    HW213938   1.649   7.384   1.459
 4002SOL     OW13939   1.828   5.783   0.953
 4002SOL    HW113940   1.861   5.691   0.931
 4002SOL    HW213941   1.788   5.824   0.871
 4003SOL     OW13942   0.142   5.867   0.785
 4003SOL    HW113943   0.052   5.897   0.754
 4003SOL    HW213944   0.144   5.863   0.885
 4004SOL     OW13945   1.274   7.107   0.080
 4004SOL    HW113946   1.224   7.020   0.084
 4004SOL    HW213947   1.307   7.121   9.987
 4005SOL     OW13948   0.828   6.598   1.399
 4005SOL    HW113949   0.883   6.585   1.316
 4005SOL    HW213950   0.807   6.695   1.410
 4006SOL     OW13951   0.959   6.506   0.244
 4006SOL    HW113952   1.013   6.508   0.159
 4006SOL    HW213953   0.995   6.434   0.303
 4007SOL     OW13954   1.537   7.157   0.160
 4007SOL    HW113955   1.439   7.146   0.145
 4007SOL    HW213956   1.578   7.204   0.081
 4008SOL     OW13957   0.317   6.937   1.467
 4008SOL    HW113958   0.327   6.998   1.388
 4008SOL    HW213959   0.271   6.853   1.438
 4009SOL     OW13960   1.101   6.716   0.756
 4009SOL    HW113961   1.012   6.675   0.776
 4009SOL    HW213962   1.145   6.664   0.682
 4010SOL     OW13963   1.004   5.718   0.980
 4010SOL    HW113964   1.017   5.689   0.885
 4010SOL    HW213965   1.003   5.638   1.040
 4011SOL     OW13966   0.637   7.045   0.508
 4011SOL    HW113967   0.660   6.992   0.426
 4011SOL    HW213968   0.573   7.118   0.483
 4012SOL     OW13969   1.796   5.919   1.427
 4012SOL    HW113970   1.861   5.994   1.414
 4012SOL    HW213971   1.797   5.861   1.345
 4013SOL     OW13972   0.213   6.921   0.206
 4013SOL    HW113973   0.126   6.909   0.160
 4013SOL    HW213974   0.197   6.950   0.301
 4014SOL     OW13975   0.191   6.563   1.671
 4014SOL    HW113976   0.135   6.558   1.754
 4014SOL    HW213977   0.287   6.573   1.696
 4015SOL     OW13978   0.740   5.770   1.473
 4015SOL    HW113979   0.822   5.731   1.431
 4015SOL    HW213980   0.762   5.802   1.565
 4016SOL     OW13981   0.119   5.960   9.999
 4016SOL    HW113982   0.056   5.917   0.064
 4016SOL    HW213983   0.086   6.052   9.978
 4017SOL     OW13984   1.375   6.440   1.361
 4017SOL    HW113985   1.317   6.501   1.307
 4017SOL    HW213986   1.464   6.431   1.316
 4018SOL     OW13987   0.156   5.676   0.188
 4018SOL    HW113988   0.199   5.718   0.268
 4018SOL    HW213989   0.206   5.593   0.163
 4019SOL     OW13990   1.132   6.877   0.115
 4019SOL    HW113991   1.036   6.884   0.086
 4019SOL    HW213992   1.137   6.866   0.214
 4020SOL     OW13993   0.654   6.390   1.437
 4020SOL    HW113994   0.713   6.470   1.425
 4020SOL    HW213995   0.708   6.307   1.425
 4021SOL     OW13996   1.549   7.449   1.080
 4021SOL    HW113997   1.583   7.489   0.995
 4021SOL    HW213998   1.619   7.388   1.118
 4022SOL     OW13999   0.728   6.109   1.701
 4022SOL    HW114000   0.786   6.170   1.754
 4022SOL    HW214001   0.756   6.014   1.716
 4023SOL     OW14002   1.342   6.778   1.708
 4023SOL    HW114003   1.377   6.794   1.800
 4023SOL    HW214004   1.401   6.823   1.641
 4024SOL     OW14005   0.381   7.376   1.533
 4024SOL    HW114006   0.292   7.421   1.539
 4024SOL    HW214007   0.369   7.277   1.538
 4025SOL     OW14008   1.601   6.435   1.198
 4025SOL    HW114009   1.622   6.346   1.157
 4025SOL    HW214010   1.586   6.502   1.125
 4026SOL     OW14011   1.223   5.926   0.443
 4026SOL    HW114012   1.283   5.849   0.462
 4026SOL    HW214013   1.243   6.002   0.505
 4027SOL     OW14014   0.472   6.371   0.720
 4027SOL    HW114015   0.542   6.431   0.682
 4027SOL    HW214016   0.412   6.338   0.647
 4028SOL     OW14017   1.715   5.972   1.687
 4028SOL    HW114018   1.746   5.965   1.592
 4028SOL    HW214019   1.635   5.913   1.700
 4029SOL     OW14020   1.756   6.440   1.426
 4029SOL    HW114021   1.852   6.448   1.398
 4029SOL    HW214022   1.697   6.446   1.345
 4030SOL     OW14023   0.840   6.967   0.057
 4030SOL    HW114024   0.816   6.938   0.149
 4030SOL    HW214025   0.756   6.991   0.007
 4031SOL     OW14026   0.717   7.426   0.900
 4031SOL    HW114027   0.707   7.525   0.898
 4031SOL    HW214028   0.812   7.401   0.880
 4032SOL     OW14029   0.863   6.588   0.836
 4032SOL    HW114030   0.911   6.506   0.866
 4032SOL    HW214031   0.813   6.627   0.914
 4033SOL     OW14032   1.139   6.467   0.013
 4033SOL    HW114033   1.141   6.537   9.942
 4033SOL    HW214034   1.232   6.439   0.036
 4034SOL     OW14035   1.809   7.180   0.848
 4034SOL    HW114036   1.761   7.152   0.764
 4034SOL    HW214037   1.789   7.114   0.920
 4035SOL     OW14038   0.200   6.959   1.841
 4035SOL    HW114039   0.105   6.927   1.839
 4035SOL    HW214040   0.229   6.972   1.936
 4036SOL     OW14041   0.144   6.789   0.662
 4036SOL    HW114042   0.178   6.748   0.746
 4036SOL    HW214043   0.196   6.752   0.584
 4037SOL     OW14044   0.670   6.980   1.648
 4037SOL    HW114045   0.575   6.958   1.667
 4037SOL    HW214046   0.689   7.074   1.676
 4038SOL     OW14047   1.797   5.743   1.221
 4038SOL    HW114048   1.815   5.645   1.229
 4038SOL    HW214049   1.804   5.770   1.126
 4039SOL     OW14050   0.566   5.902   0.745
 4039SOL    HW114051   0.484   5.853   0.715
 4039SOL    HW214052   0.540   5.991   0.782
 4040SOL     OW14053   1.751   7.025   1.075
 4040SOL    HW114054   1.667   6.985   1.039
 4040SOL    HW214055   1.798   6.960   1.134
 4041SOL     OW14056   0.402   6.123   1.276
 4041SOL    HW114057   0.454   6.059   1.333
 4041SOL    HW214058   0.387   6.082   1.186
 4042SOL     OW14059   0.823   7.200   0.632
 4042SOL    HW114060   0.826   7.286   0.581
 4042SOL    HW214061   0.751   7.141   0.594
 4043SOL     OW14062   1.397   5.850   1.078
 4043SOL    HW114063   1.425   5.758   1.107
 4043SOL    HW214064   1.333   5.888   1.145
 4044SOL     OW14065   1.021   5.497   1.148
 4044SOL    HW114066   0.964   5.414   1.141
 4044SOL    HW214067   1.112   5.477   1.112
 4045SOL     OW14068   0.768   6.885   0.312
 4045SOL    HW114069   0.750   6.787   0.324
 4045SOL    HW214070   0.844   6.912   0.371
 4046SOL     OW14071   0.625   7.173   1.283
 4046SOL    HW114072   0.616   7.271   1.301
 4046SOL    HW214073   0.715   7.154   1.244
 4047SOL     OW14074   1.361   5.609   0.155
 4047SOL    HW114075   1.413   5.523   0.147
 4047SOL    HW214076   1.268   5.588   0.184
 4048SOL     OW14077   1.286   6.122   0.627
 4048SOL    HW114078   1.224   6.199   0.642
 4048SOL    HW214079   1.309   6.080   0.716
 4049SOL     OW14080   0.007   6.646   0.288
 4049SOL    HW114081   0.093   6.603   0.317
 4049SOL    HW214082   9.939   6.637   0.360
 4050SOL     OW14083   0.880   7.246   0.301
 4050SOL    HW114084   0.794   7.236   0.250
 4050SOL    HW214085   0.870   7.318   0.370
 4051SOL     OW14086   0.228   6.143   1.998
 4051SOL    HW114087   0.177   6.205   2.057
 4051SOL    HW214088   0.188   6.145   1.906
 4052SOL     OW14089   0.148   5.840   2.867
 4052SOL    HW114090   0.188   5.805   2.951
 4052SOL    HW214091   0.054   5.807   2.858
 4053SOL     OW14092   0.031   6.006   2.472
 4053SOL    HW114093   9.933   5.986   2.478
 4053SOL    HW214094   0.072   5.953   2.398
 4054SOL     OW14095   0.467   6.917   3.093
 4054SOL    HW114096   0.417   6.923   3.006
 4054SOL    HW214097   0.516   7.003   3.109
 4055SOL     OW14098   1.605   7.130   2.561
 4055SOL    HW114099   1.561   7.089   2.641
 4055SOL    HW214100   1.537   7.146   2.490
 4056SOL     OW14101   1.130   6.288   2.521
 4056SOL    HW114102   1.183   6.371   2.504
 4056SOL    HW214103   1.085   6.295   2.610
 4057SOL     OW14104   1.754   6.170   2.066
 4057SOL    HW114105   1.715   6.192   1.977
 4057SOL    HW214106   1.698   6.100   2.110
 4058SOL     OW14107   0.738   6.665   2.888
 4058SOL    HW114108   0.657   6.678   2.945
 4058SOL    HW214109   0.762   6.751   2.844
 4059SOL     OW14110   0.922   6.312   3.661
 4059SOL    HW114111   0.951   6.375   3.734
 4059SOL    HW214112   0.929   6.358   3.573
 4060SOL     OW14113   0.694   6.496   2.477
 4060SOL    HW114114   0.768   6.494   2.544
 4060SOL    HW214115   0.630   6.568   2.500
 4061SOL     OW14116   0.778   6.797   3.696
 4061SOL    HW114117   0.833   6.860   3.752
 4061SOL    HW214118   0.717   6.850   3.637
 4062SOL     OW14119   0.320   6.985   2.869
 4062SOL    HW114120   0.243   6.958   2.810
 4062SOL    HW214121   0.387   7.036   2.815
 4063SOL     OW14122   1.463   7.114   3.274
 4063SOL    HW114123   1.531   7.187   3.272
 4063SOL    HW214124   1.399   7.131   3.349
 4064SOL     OW14125   0.479   5.942   3.290
 4064SOL    HW114126   0.560   5.887   3.307
 4064SOL    HW214127   0.400   5.900   3.334
 4065SOL     OW14128   1.558   6.033   2.612
 4065SOL    HW114129   1.487   6.034   2.542
 4065SOL    HW214130   1.539   6.102   2.682
 4066SOL     OW14131   0.202   7.271   2.278
 4066SOL    HW114132   0.149   7.328   2.341
 4066SOL    HW214133   0.285   7.320   2.252
 4067SOL     OW14134   1.143   6.943   3.585
 4067SOL    HW114135   1.191   6.935   3.672
 4067SOL    HW214136   1.102   6.854   3.562
 4068SOL     OW14137   0.350   7.057   2.350
 4068SOL    HW114138   0.292   7.138   2.336
 4068SOL    HW214139   0.298   6.988   2.401
 4069SOL     OW14140   0.372   6.612   2.767
 4069SOL    HW114141   0.346   6.515   2.775
 4069SOL    HW214142   0.315   6.666   2.829
 4070SOL     OW14143   0.567   7.395   3.271
 4070SOL    HW114144   0.507   7.352   3.338
 4070SOL    HW214145   0.616   7.471   3.313
 4071SOL     OW14146   0.495   6.597   2.036
 4071SOL    HW114147   0.517   6.692   2.013
 4071SOL    HW214148   0.571   6.557   2.088
 4072SOL     OW14149   1.703   5.674   3.399
 4072SOL    HW114150   1.725   5.745   3.333
 4072SOL    HW214151   1.639   5.709   3.467
 4073SOL     OW14152   0.121   6.262   2.445
 4073SOL    HW114153   0.087   6.170   2.461
 4073SOL    HW214154   0.110   6.317   2.528
 4074SOL     OW14155   1.873   7.282   2.163
 4074SOL    HW114156   1.952   7.285   2.225
 4074SOL    HW214157   1.846   7.376   2.140
 4075SOL     OW14158   0.032   7.205   2.068
 4075SOL    HW114159   0.020   7.106   2.073
 4075SOL    HW214160   0.094   7.235   2.141
 4076SOL     OW14161   1.718   6.505   2.555
 4076SOL    HW114162   1.800   6.450   2.540
 4076SOL    HW214163   1.699   6.560   2.473
 4077SOL     OW14164   1.697   6.687   2.339
 4077SOL    HW114165   1.781   6.658   2.292
 4077SOL    HW214166   1.720   6.761   2.404
 4078SOL     OW14167   0.261   6.336   3.450
 4078SOL    HW114168   0.357   6.343   3.478
 4078SOL    HW214169   0.224   6.428   3.435
 4079SOL     OW14170   0.631   6.936   2.592
 4079SOL    HW114171   0.592   6.845   2.576
 4079SOL    HW214172   0.639   6.984   2.505
 4080SOL     OW14173   1.243   6.792   3.277
 4080SOL    HW114174   1.248   6.711   3.219
 4080SOL    HW214175   1.314   6.788   3.347
 4081SOL     OW14176   0.843   5.608   2.361
 4081SOL    HW114177   0.891   5.690   2.330
 4081SOL    HW214178   0.744   5.625   2.359
 4082SOL     OW14179   0.216   6.550   3.091
 4082SOL    HW114180   0.296   6.491   3.086
 4082SOL    HW214181   0.142   6.511   3.035
 4083SOL     OW14182   1.603   6.621   2.078
 4083SOL    HW114183   1.531   6.553   2.092
 4083SOL    HW214184   1.639   6.650   2.167
 4084SOL     OW14185   1.298   7.463   3.507
 4084SOL    HW114186   1.247   7.516   3.439
 4084SOL    HW214187   1.293   7.366   3.484
 4085SOL     OW14188   0.403   5.826   3.701
 4085SOL    HW114189   0.440   5.904   3.751
 4085SOL    HW214190   0.306   5.842   3.681
 4086SOL     OW14191   1.505   7.015   2.781
 4086SOL    HW114192   1.414   7.025   2.822
 4086SOL    HW214193   1.516   6.921   2.749
 4087SOL     OW14194   1.672   7.363   2.417
 4087SOL    HW114195   1.647   7.323   2.329
 4087SOL    HW214196   1.664   7.293   2.488
 4088SOL     OW14197   0.571   6.247   2.151
 4088SOL    HW114198   0.610   6.339   2.156
 4088SOL    HW214199   0.492   6.240   2.212
 4089SOL     OW14200   1.271   5.980   2.796
 4089SOL    HW114201   1.182   5.935   2.788
 4089SOL    HW214202   1.327   5.931   2.863
 4090SOL     OW14203   1.598   7.242   2.178
 4090SOL    HW114204   1.697   7.236   2.164
 4090SOL    HW214205   1.551   7.224   2.092
 4091SOL     OW14206   0.783   6.172   3.276
 4091SOL    HW114207   0.758   6.151   3.370
 4091SOL    HW214208   0.758   6.094   3.217
 4092SOL     OW14209   1.376   6.042   3.540
 4092SOL    HW114210   1.380   6.088   3.629
 4092SOL    HW214211   1.435   5.961   3.542
 4093SOL     OW14212   0.955   6.473   3.439
 4093SOL    HW114213   1.000   6.408   3.378
 4093SOL    HW214214   0.896   6.533   3.385
 4094SOL     OW14215   1.001   5.948   3.042
 4094SOL    HW114216   0.906   5.958   3.071
 4094SOL    HW214217   1.005   5.907   2.951
 4095SOL     OW14218   1.045   6.262   2.258
 4095SOL    HW114219   1.072   6.270   2.354
 4095SOL    HW214220   0.957   6.215   2.252
 4096SOL     OW14221   0.080   6.381   2.697
 4096SOL    HW114222   0.177   6.364   2.718
 4096SOL    HW214223   0.036   6.423   2.777
 4097SOL     OW14224   0.156   7.521   3.375
 4097SOL    HW114225   0.181   7.490   3.467
 4097SOL    HW214226   0.138   7.442   3.317
 4098SOL     OW14227   0.849   5.907   2.060
 4098SOL    HW114228   0.906   5.960   1.997
 4098SOL    HW214229   0.839   5.814   2.025
 4099SOL     OW14230   1.647   6.174   3.706
 4099SOL    HW114231   1.642   6.260   3.656
 4099SOL    HW214232   1.681   6.102   3.645
 4100SOL     OW14233   1.426   6.733   2.440
 4100SOL    HW114234   1.506   6.722   2.380
 4100SOL    HW214235   1.374   6.813   2.411
 4101SOL     OW14236   0.545   5.754   2.778
 4101SOL    HW114237   0.554   5.767   2.876
 4101SOL    HW214238   0.535   5.843   2.733
 4102SOL     OW14239   1.031   7.038   2.430
 4102SOL    HW114240   0.963   7.110   2.436
 4102SOL    HW214241   1.027   6.980   2.511
 4103SOL     OW14242   0.393   7.371   2.693
 4103SOL    HW114243   0.424   7.277   2.700
 4103SOL    HW214244   0.456   7.431   2.743
 4104SOL     OW14245   1.811   6.602   2.798
 4104SOL    HW114246   1.766   6.581   2.711
 4104SOL    HW214247   1.741   6.629   2.865
 4105SOL     OW14248   1.250   7.176   3.438
 4105SOL    HW114249   1.229   7.092   3.488
 4105SOL    HW214250   1.168   7.207   3.390
 4106SOL     OW14251   0.238   6.538   2.133
 4106SOL    HW114252   0.326   6.540   2.087
 4106SOL    HW214253   0.210   6.443   2.147
 4107SOL     OW14254   1.486   6.357   2.578
 4107SOL    HW114255   1.472   6.310   2.665
 4107SOL    HW214256   1.570   6.412   2.583
 4108SOL     OW14257   0.362   7.000   3.490
 4108SOL    HW114258   0.324   6.963   3.406
 4108SOL    HW214259   0.304   6.973   3.567
 4109SOL     OW14260   1.174   7.323   2.121
 4109SOL    HW114261   1.141   7.299   2.212
 4109SOL    HW214262   1.177   7.242   2.063
 4110SOL     OW14263   0.212   5.848   3.366
 4110SOL    HW114264   0.116   5.837   3.338
 4110SOL    HW214265   0.221   5.824   3.462
 4111SOL     OW14266   1.668   6.957   2.009
 4111SOL    HW114267   1.681   7.041   1.957
 4111SOL    HW214268   1.580   6.915   1.983
 4112SOL     OW14269   0.457   7.354   2.203
 4112SOL    HW114270   0.501   7.427   2.256
 4112SOL    HW214271   0.510   7.270   2.212
 4113SOL     OW14272   1.393   5.684   2.311
 4113SOL    HW114273   1.392   5.659   2.214
 4113SOL    HW214274   1.482   5.660   2.351
 4114SOL     OW14275   0.157   7.398   2.967
 4114SOL    HW114276   0.221   7.324   2.986
 4114SOL    HW214277   0.127   7.393   2.872
 4115SOL     OW14278   0.953   7.296   2.711
 4115SOL    HW114279   1.052   7.281   2.706
 4115SOL    HW214280   0.910   7.259   2.628
 4116SOL     OW14281   0.371   6.222   2.338
 4116SOL    HW114282   0.381   6.123   2.348
 4116SOL    HW214283   0.283   6.250   2.376
 4117SOL     OW14284   1.520   5.798   3.573
 4117SOL    HW114285   1.525   5.810   3.673
 4117SOL    HW214286   1.445   5.735   3.552
 4118SOL     OW14287   0.827   5.662   1.955
 4118SOL    HW114288   0.907   5.650   1.897
 4118SOL    HW214289   0.788   5.572   1.977
 4119SOL     OW14290   0.778   5.870   3.597
 4119SOL    HW114291   0.861   5.821   3.622
 4119SOL    HW214292   0.705   5.850   3.663
 4120SOL     OW14293   0.819   7.035   3.041
 4120SOL    HW114294   0.813   7.001   2.947
 4120SOL    HW214295   0.909   7.013   3.078
 4121SOL     OW14296   1.283   6.166   3.314
 4121SOL    HW114297   1.322   6.128   3.398
 4121SOL    HW214298   1.323   6.257   3.298
 4122SOL     OW14299   0.816   6.905   2.788
 4122SOL    HW114300   0.903   6.898   2.739
 4122SOL    HW214301   0.742   6.926   2.723
 4123SOL     OW14302   0.917   6.053   2.720
 4123SOL    HW114303   0.893   6.046   2.623
 4123SOL    HW214304   0.955   5.965   2.751
 4124SOL     OW14305   0.577   5.662   2.333
 4124SOL    HW114306   0.503   5.657   2.400
 4124SOL    HW214307   0.570   5.747   2.281
 4125SOL     OW14308   1.437   6.807   1.963
 4125SOL    HW114309   1.498   6.735   1.998
 4125SOL    HW214310   1.362   6.822   2.027
 4126SOL     OW14311   0.271   5.621   1.979
 4126SOL    HW114312   0.267   5.720   1.996
 4126SOL    HW214313   0.348   5.582   2.030
 4127SOL     OW14314   0.979   5.830   2.290
 4127SOL    HW114315   0.943   5.859   2.201
 4127SOL    HW214316   1.077   5.852   2.295
 4128SOL     OW14317   1.037   6.281   3.268
 4128SOL    HW114318   0.957   6.220   3.276
 4128SOL    HW214319   1.120   6.228   3.284
 4129SOL     OW14320   1.219   7.298   2.673
 4129SOL    HW114321   1.233   7.330   2.580
 4129SOL    HW214322   1.301   7.315   2.727
 4130SOL     OW14323   0.516   6.690   2.551
 4130SOL    HW114324   0.463   6.664   2.632
 4130SOL    HW214325   0.458   6.688   2.470
 4131SOL     OW14326   1.242   7.420   2.430
 4131SOL    HW114327   1.300   7.481   2.376
 4131SOL    HW214328   1.166   7.473   2.468
 4132SOL     OW14329   1.017   6.059   1.908
 4132SOL    HW114330   0.978   6.147   1.880
 4132SOL    HW214331   1.092   6.075   1.972
 4133SOL     OW14332   0.150   6.223   3.229
 4133SOL    HW114333   0.227   6.179   3.182
 4133SOL    HW214334   0.183   6.273   3.308
 4134SOL     OW14335   0.544   5.766   3.048
 4134SOL    HW114336   0.572   5.684   3.098
 4134SOL    HW214337   0.447   5.784   3.065
 4135SOL     OW14338   0.867   6.012   2.462
 4135SOL    HW114339   0.828   6.073   2.393
 4135SOL    HW214340   0.911   5.935   2.417
 4136SOL     OW14341   1.012   5.631   2.578
 4136SOL    HW114342   0.951   5.629   2.499
 4136SOL    HW214343   0.983   5.561   2.644
 4137SOL     OW14344   1.555   6.769   2.685
 4137SOL    HW114345   1.490   6.740   2.615
 4137SOL    HW214346   1.642   6.794   2.642
 4138SOL     OW14347   1.440   6.207   2.803
 4138SOL    HW114348   1.374   6.133   2.813
 4138SOL    HW214349   1.501   6.208   2.882
 4139SOL     OW14350   1.795   6.344   2.271
 4139SOL    HW114351   1.862   6.302   2.333
 4139SOL    HW214352   1.785   6.286   2.190
 4140SOL     OW14353   0.516   6.873   1.989
 4140SOL    HW114354   0.429   6.905   2.027
 4140SOL    HW214355   0.511   6.878   1.889
 4141SOL     OW14356   1.765   6.866   2.533
 4141SOL    HW114357   1.864   6.852   2.535
 4141SOL    HW214358   1.746   6.964   2.527
 4142SOL     OW14359   1.361   6.179   1.888
 4142SOL    HW114360   1.323   6.141   1.973
 4142SOL    HW214361   1.461   6.181   1.894
 4143SOL     OW14362   0.587   5.888   2.173
 4143SOL    HW114363   0.683   5.888   2.145
 4143SOL    HW214364   0.531   5.932   2.102
 4144SOL     OW14365   1.738   6.817   3.395
 4144SOL    HW114366   1.828   6.774   3.388
 4144SOL    HW214367   1.748   6.910   3.431
 4145SOL     OW14368   1.033   6.948   3.205
 4145SOL    HW114369   0.952   6.928   3.260
 4145SOL    HW214370   1.109   6.891   3.235
 4146SOL     OW14371   1.629   7.200   3.576
 4146SOL    HW114372   1.595   7.265   3.508
 4146SOL    HW214373   1.707   7.150   3.539
 4147SOL     OW14374   0.963   6.687   3.058
 4147SOL    HW114375   0.986   6.784   3.059
 4147SOL    HW214376   0.893   6.670   2.989
 4148SOL     OW14377   1.608   6.696   2.959
 4148SOL    HW114378   1.600   6.770   3.025
 4148SOL    HW214379   1.566   6.724   2.872
 4149SOL     OW14380   0.942   5.650   3.224
 4149SOL    HW114381   0.968   5.637   3.128
 4149SOL    HW214382   1.016   5.695   3.273
 4150SOL     OW14383   1.010   6.696   3.592
 4150SOL    HW114384   0.919   6.726   3.620
 4150SOL    HW214385   1.002   6.616   3.533
 4151SOL     OW14386   0.692   6.489   2.194
 4151SOL    HW114387   0.701   6.494   2.293
 4151SOL    HW214388   0.782   6.480   2.152
 4152SOL     OW14389   0.444   6.385   3.095
 4152SOL    HW114390   0.509   6.406   3.168
 4152SOL    HW214391   0.414   6.290   3.103
 4153SOL     OW14392   1.241   5.947   3.161
 4153SOL    HW114393   1.260   6.031   3.212
 4153SOL    HW214394   1.152   5.954   3.116
 4154SOL     OW14395   0.116   7.299   3.225
 4154SOL    HW114396   0.082   7.335   3.139
 4154SOL    HW214397   0.193   7.237   3.207
 4155SOL     OW14398   0.385   6.695   2.312
 4155SOL    HW114399   0.457   6.733   2.253
 4155SOL    HW214400   0.328   6.632   2.258
 4156SOL     OW14401   0.526   6.032   2.694
 4156SOL    HW114402   0.533   6.101   2.622
 4156SOL    HW214403   0.590   6.054   2.767
 4157SOL     OW14404   1.289   6.954   2.371
 4157SOL    HW114405   1.339   7.041   2.369
 4157SOL    HW214406   1.191   6.973   2.378
 4158SOL     OW14407   1.235   7.131   3.124
 4158SOL    HW114408   1.319   7.121   3.177
 4158SOL    HW214409   1.164   7.073   3.163
 4159SOL     OW14410   1.553   6.221   2.347
 4159SOL    HW114411   1.513   6.262   2.428
 4159SOL    HW214412   1.630   6.277   2.315
 4160SOL     OW14413   0.320   7.197   3.045
 4160SOL    HW114414   0.305   7.118   2.985
 4160SOL    HW214415   0.415   7.197   3.076
 4161SOL     OW14416   0.530   6.340   3.515
 4161SOL    HW114417   0.564   6.379   3.429
 4161SOL    HW214418   0.585   6.260   3.539
 4162SOL     OW14419   1.626   6.410   3.577
 4162SOL    HW114420   1.530   6.437   3.573
 4162SOL    HW214421   1.673   6.443   3.495
 4163SOL     OW14422   0.993   5.730   3.695
 4163SOL    HW114423   1.060   5.792   3.653
 4163SOL    HW214424   1.040   5.663   3.751
 4164SOL     OW14425   0.551   5.632   3.589
 4164SOL    HW114426   0.496   5.580   3.524
 4164SOL    HW214427   0.498   5.711   3.621
 4165SOL     OW14428   0.604   6.390   2.874
 4165SOL    HW114429   0.643   6.480   2.857
 4165SOL    HW214430   0.542   6.394   2.952
 4166SOL     OW14431   1.254   6.405   2.885
 4166SOL    HW114432   1.169   6.372   2.844
 4166SOL    HW214433   1.330   6.348   2.856
 4167SOL     OW14434   1.204   6.099   2.106
 4167SOL    HW114435   1.231   6.024   2.166
 4167SOL    HW214436   1.155   6.168   2.159
 4168SOL     OW14437   0.272   5.768   3.106
 4168SOL    HW114438   0.254   5.804   3.197
 4168SOL    HW214439   0.259   5.669   3.106
 4169SOL     OW14440   0.703   6.135   2.872
 4169SOL    HW114441   0.783   6.119   2.814
 4169SOL    HW214442   0.674   6.230   2.863
 4170SOL     OW14443   1.771   6.580   3.741
 4170SOL    HW114444   1.721   6.510   3.689
 4170SOL    HW214445   1.714   6.615   3.815
 4171SOL     OW14446   0.363   5.645   2.500
 4171SOL    HW114447   0.315   5.723   2.539
 4171SOL    HW214448   0.321   5.560   2.533
 4172SOL     OW14449   1.583   5.997   2.193
 4172SOL    HW114450   1.632   5.930   2.249
 4172SOL    HW214451   1.555   6.074   2.250
 4173SOL     OW14452   1.016   6.296   2.783
 4173SOL    HW114453   0.985   6.315   2.877
 4173SOL    HW214454   0.988   6.203   2.758
 4174SOL     OW14455   0.984   7.166   3.590
 4174SOL    HW114456   0.986   7.208   3.499
 4174SOL    HW214457   1.024   7.075   3.586
 4175SOL     OW14458   1.838   7.072   3.455
 4175SOL    HW114459   1.858   7.099   3.361
 4175SOL    HW214460   1.921   7.084   3.511
 4176SOL     OW14461   0.443   6.515   3.710
 4176SOL    HW114462   0.522   6.551   3.760
 4176SOL    HW214463   0.474   6.450   3.640
 4177SOL     OW14464   1.490   5.854   1.973
 4177SOL    HW114465   1.445   5.772   2.008
 4177SOL    HW214466   1.520   5.911   2.049
 4178SOL     OW14467   1.284   6.440   1.875
 4178SOL    HW114468   1.299   6.341   1.877
 4178SOL    HW214469   1.315   6.476   1.787
 4179SOL     OW14470   0.339   6.331   2.774
 4179SOL    HW114471   0.438   6.341   2.769
 4179SOL    HW214472   0.317   6.238   2.806
 4180SOL     OW14473   0.301   6.062   2.851
 4180SOL    HW114474   0.241   5.983   2.853
 4180SOL    HW214475   0.376   6.046   2.786
 4181SOL     OW14476   1.128   5.938   3.576
 4181SOL    HW114477   1.081   5.990   3.648
 4181SOL    HW214478   1.218   5.978   3.559
 4182SOL     OW14479   1.143   5.780   3.354
 4182SOL    HW114480   1.124   5.839   3.433
 4182SOL    HW214481   1.186   5.835   3.282
 4183SOL     OW14482   0.009   6.924   2.106
 4183SOL    HW114483   9.969   6.910   2.016
 4183SOL    HW214484   0.009   6.838   2.156
 4184SOL     OW14485   0.118   7.351   2.696
 4184SOL    HW114486   0.086   7.384   2.607
 4184SOL    HW214487   0.218   7.352   2.698
 4185SOL     OW14488   0.510   7.127   2.741
 4185SOL    HW114489   0.582   7.181   2.783
 4185SOL    HW214490   0.551   7.056   2.683
 4186SOL     OW14491   0.917   6.339   3.027
 4186SOL    HW114492   0.976   6.333   3.107
 4186SOL    HW214493   0.827   6.302   3.048
 4187SOL     OW14494   0.053   6.148   2.974
 4187SOL    HW114495   0.142   6.131   2.932
 4187SOL    HW214496   0.066   6.181   3.068
 4188SOL     OW14497   0.175   6.093   3.518
 4188SOL    HW114498   0.186   6.039   3.434
 4188SOL    HW214499   0.199   6.188   3.499
 4189SOL     OW14500   1.380   6.509   3.517
 4189SOL    HW114501   1.399   6.606   3.510
 4189SOL    HW214502   1.367   6.470   3.425
 4190SOL     OW14503   0.809   6.132   2.219
 4190SOL    HW114504   0.822   6.053   2.159
 4190SOL    HW214505   0.721   6.175   2.198
 4191SOL     OW14506   1.616   6.212   3.009
 4191SOL    HW114507   1.600   6.146   3.083
 4191SOL    HW214508   1.713   6.209   2.983
 4192SOL     OW14509   0.731   5.977   3.087
 4192SOL    HW114510   0.665   5.901   3.088
 4192SOL    HW214511   0.712   6.035   3.008
 4193SOL     OW14512   1.001   7.252   3.332
 4193SOL    HW114513   0.964   7.187   3.266
 4193SOL    HW214514   0.977   7.345   3.304
 4194SOL     OW14515   0.480   6.052   1.965
 4194SOL    HW114516   0.541   6.120   2.005
 4194SOL    HW214517   0.386   6.082   1.974
 4195SOL     OW14518   0.147   6.567   3.363
 4195SOL    HW114519   0.189   6.631   3.428
 4195SOL    HW214520   0.178   6.588   3.271
 4196SOL     OW14521   1.207   6.568   3.100
 4196SOL    HW114522   1.233   6.514   3.020
 4196SOL    HW214523   1.115   6.603   3.089
 4197SOL     OW14524   1.393   6.464   2.125
 4197SOL    HW114525   1.340   6.414   2.194
 4197SOL    HW214526   1.348   6.454   2.036
 4198SOL     OW14527   1.800   7.316   3.040
 4198SOL    HW114528   1.869   7.337   2.970
 4198SOL    HW214529   1.749   7.234   3.013
 4199SOL     OW14530   1.260   7.384   3.005
 4199SOL    HW114531   1.330   7.372   2.935
 4199SOL    HW214532   1.249   7.300   3.057
 4200SOL     OW14533   0.725   7.209   3.659
 4200SOL    HW114534   0.684   7.297   3.638
 4200SOL    HW214535   0.820   7.208   3.628
 4201SOL     OW14536   1.741   5.815   2.324
 4201SOL    HW114537   1.801   5.798   2.246
 4201SOL    HW214538   1.704   5.728   2.358
 4202SOL     OW14539   1.413   7.197   2.376
 4202SOL    HW114540   1.469   7.214   2.294
 4202SOL    HW214541   1.350   7.273   2.390
 4203SOL     OW14542   0.207   7.380   3.605
 4203SOL    HW114543   0.121   7.329   3.607
 4203SOL    HW214544   0.235   7.403   3.698
 4204SOL     OW14545   1.283   6.508   2.487
 4204SOL    HW114546   1.355   6.448   2.521
 4204SOL    HW214547   1.323   6.596   2.459
 4205SOL     OW14548   0.779   6.909   3.313
 4205SOL    HW114549   0.728   6.930   3.396
 4205SOL    HW214550   0.733   6.950   3.234
 4206SOL     OW14551   1.643   7.318   3.275
 4206SOL    HW114552   1.695   7.319   3.189
 4206SOL    HW214553   1.660   7.404   3.324
 4207SOL     OW14554   1.824   5.753   2.849
 4207SOL    HW114555   1.860   5.664   2.823
 4207SOL    HW214556   1.736   5.768   2.803
 4208SOL     OW14557   0.228   5.855   2.608
 4208SOL    HW114558   0.160   5.915   2.566
 4208SOL    HW214559   0.203   5.838   2.703
 4209SOL     OW14560   1.193   7.103   1.957
 4209SOL    HW114561   1.149   7.021   1.995
 4209SOL    HW214562   1.153   7.122   1.867
 4210SOL     OW14563   0.811   6.633   3.276
 4210SOL    HW114564   0.871   6.638   3.197
 4210SOL    HW214565   0.784   6.726   3.304
 4211SOL     OW14566   0.939   6.442   2.076
 4211SOL    HW114567   0.999   6.517   2.049
 4211SOL    HW214568   0.986   6.383   2.142
 4212SOL     OW14569   1.465   7.207   1.936
 4212SOL    HW114570   1.377   7.161   1.939
 4212SOL    HW214571   1.507   7.195   1.846
 4213SOL     OW14572   1.604   6.900   3.161
 4213SOL    HW114573   1.658   6.862   3.235
 4213SOL    HW214574   1.539   6.967   3.197
 4214SOL     OW14575   1.051   6.651   2.544
 4214SOL    HW114576   0.982   6.591   2.586
 4214SOL    HW214577   1.129   6.595   2.515
 4215SOL     OW14578   1.040   5.812   2.793
 4215SOL    HW114579   1.034   5.770   2.702
 4215SOL    HW214580   1.042   5.741   2.863
 4216SOL     OW14581   0.623   7.087   2.360
 4216SOL    HW114582   0.659   7.050   2.275
 4216SOL    HW214583   0.523   7.078   2.360
 4217SOL     OW14584   1.818   5.947   3.291
 4217SOL    HW114585   1.869   6.027   3.259
 4217SOL    HW214586   1.812   5.879   3.219
 4218SOL     OW14587   0.282   6.958   2.104
 4218SOL    HW114588   0.184   6.940   2.115
 4218SOL    HW214589   0.318   6.998   2.188
 4219SOL     OW14590   0.274   6.690   3.571
 4219SOL    HW114591   0.247   6.772   3.623
 4219SOL    HW214592   0.335   6.634   3.626
 4220SOL     OW14593   0.715   5.775   3.341
 4220SOL    HW114594   0.798   5.745   3.295
 4220SOL    HW214595   0.737   5.809   3.432
 4221SOL     OW14596   0.026   5.849   1.812
 4221SOL    HW114597   9.948   5.823   1.755
 4221SOL    HW214598   0.075   5.925   1.768
 4222SOL     OW14599   1.371   6.420   3.260
 4222SOL    HW114600   1.300   6.468   3.209
 4222SOL    HW214601   1.459   6.435   3.214
 4223SOL     OW14602   0.025   5.626   2.096
 4223SOL    HW114603   0.042   5.618   2.194
 4223SOL    HW214604   0.112   5.619   2.047
 4224SOL     OW14605   0.646   6.413   3.277
 4224SOL    HW114606   0.703   6.495   3.276
 4224SOL    HW214607   0.704   6.332   3.273
 4225SOL     OW14608   1.449   7.368   2.807
 4225SOL    HW114609   1.471   7.463   2.785
 4225SOL    HW214610   1.531   7.312   2.795
 4226SOL     OW14611   0.735   6.141   3.545
 4226SOL    HW114612   0.799   6.197   3.598
 4226SOL    HW214613   0.750   6.045   3.565
 4227SOL     OW14614   1.460   6.770   3.486
 4227SOL    HW114615   1.450   6.800   3.581
 4227SOL    HW214616   1.553   6.790   3.454
 4228SOL     OW14617   0.416   7.271   3.470
 4228SOL    HW114618   0.336   7.313   3.512
 4228SOL    HW214619   0.403   7.172   3.467
 4229SOL     OW14620   1.601   6.469   3.118
 4229SOL    HW114621   1.610   6.384   3.066
 4229SOL    HW214622   1.600   6.547   3.055
 4230SOL     OW14623   1.241   5.909   2.305
 4230SOL    HW114624   1.299   5.828   2.306
 4230SOL    HW214625   1.259   5.965   2.386
 4231SOL     OW14626   0.561   6.253   2.532
 4231SOL    HW114627   0.618   6.334   2.519
 4231SOL    HW214628   0.490   6.250   2.461
 4232SOL     OW14629   1.733   5.969   3.547
 4232SOL    HW114630   1.762   5.968   3.451
 4232SOL    HW214631   1.658   5.904   3.561
 4233SOL     OW14632   1.723   6.528   3.354
 4233SOL    HW114633   1.713   6.626   3.371
 4233SOL    HW214634   1.681   6.504   3.266
 4234SOL     OW14635   0.704   7.290   2.828
 4234SOL    HW114636   0.667   7.383   2.825
 4234SOL    HW214637   0.797   7.290   2.791
 4235SOL     OW14638   0.869   6.508   2.689
 4235SOL    HW114639   0.918   6.430   2.727
 4235SOL    HW214640   0.826   6.560   2.763
 4236SOL     OW14641   1.111   6.636   1.972
 4236SOL    HW114642   1.046   6.647   1.896
 4236SOL    HW214643   1.185   6.575   1.943
 4237SOL     OW14644   1.819   7.152   2.734
 4237SOL    HW114645   1.749   7.150   2.663
 4237SOL    HW214646   1.783   7.109   2.817
 4238SOL     OW14647   0.196   6.844   2.434
 4238SOL    HW114648   0.109   6.818   2.393
 4238SOL    HW214649   0.269   6.785   2.398
 4239SOL     OW14650   0.634   6.975   3.539
 4239SOL    HW114651   0.536   6.974   3.520
 4239SOL    HW214652   0.659   7.062   3.582
 4240SOL     OW14653   1.793   5.742   3.120
 4240SOL    HW114654   1.794   5.643   3.133
 4240SOL    HW214655   1.805   5.763   3.023
 4241SOL     OW14656   0.416   5.961   2.379
 4241SOL    HW114657   0.493   5.935   2.320
 4241SOL    HW214658   0.432   5.927   2.471
 4242SOL     OW14659   1.684   7.081   2.967
 4242SOL    HW114660   1.611   7.062   2.901
 4242SOL    HW214661   1.677   7.016   3.043
 4243SOL     OW14662   0.373   6.123   3.114
 4243SOL    HW114663   0.420   6.058   3.173
 4243SOL    HW214664   0.362   6.083   3.023
 4244SOL     OW14665   0.837   7.235   2.465
 4244SOL    HW114666   0.838   7.325   2.422
 4244SOL    HW214667   0.757   7.184   2.434
 4245SOL     OW14668   1.413   5.841   2.980
 4245SOL    HW114669   1.440   5.747   3.001
 4245SOL    HW214670   1.357   5.877   3.055
 4246SOL     OW14671   1.037   5.590   2.957
 4246SOL    HW114672   0.978   5.532   2.902
 4246SOL    HW214673   1.129   5.552   2.960
 4247SOL     OW14674   0.585   7.162   3.124
 4247SOL    HW114675   0.591   7.249   3.173
 4247SOL    HW214676   0.672   7.142   3.080
 4248SOL     OW14677   1.378   5.615   2.047
 4248SOL    HW114678   1.429   5.546   1.997
 4248SOL    HW214679   1.284   5.584   2.062
 4249SOL     OW14680   1.283   6.057   2.529
 4249SOL    HW114681   1.230   6.141   2.519
 4249SOL    HW214682   1.279   6.026   2.624
 4250SOL     OW14683   1.574   5.800   2.761
 4250SOL    HW114684   1.516   5.827   2.838
 4250SOL    HW214685   1.572   5.871   2.691
 4251SOL     OW14686   0.029   6.695   2.245
 4251SOL    HW114687   0.096   6.630   2.212
 4251SOL    HW214688   9.945   6.647   2.270
 4252SOL     OW14689   0.236   6.137   3.782
 4252SOL    HW114690   0.229   6.232   3.811
 4252SOL    HW214691   0.210   6.129   3.685
 4253SOL     OW14692   0.152   5.890   4.715
 4253SOL    HW114693   0.191   5.850   4.799
 4253SOL    HW214694   0.059   5.857   4.702
 4254SOL     OW14695   0.624   6.903   4.966
 4254SOL    HW114696   0.551   6.908   4.898
 4254SOL    HW214697   0.628   6.988   5.018
 4255SOL     OW14698   1.583   7.061   4.417
 4255SOL    HW114699   1.531   7.023   4.493
 4255SOL    HW214700   1.521   7.093   4.346
 4256SOL     OW14701   1.800   6.164   3.926
 4256SOL    HW114702   1.750   6.178   3.840
 4256SOL    HW214703   1.752   6.096   3.981
 4257SOL     OW14704   0.720   6.693   4.794
 4257SOL    HW114705   0.691   6.746   4.873
 4257SOL    HW214706   0.749   6.754   4.721
 4258SOL     OW14707   0.858   6.302   5.529
 4258SOL    HW114708   0.791   6.350   5.586
 4258SOL    HW214709   0.902   6.367   5.467
 4259SOL     OW14710   0.708   6.587   4.393
 4259SOL    HW114711   0.783   6.569   4.456
 4259SOL    HW214712   0.637   6.640   4.439
 4260SOL     OW14713   0.689   6.752   5.555
 4260SOL    HW114714   0.734   6.837   5.526
 4260SOL    HW214715   0.599   6.745   5.511
 4261SOL     OW14716   0.416   6.977   4.800
 4261SOL    HW114717   0.325   6.937   4.788
 4261SOL    HW214718   0.434   7.041   4.725
 4262SOL     OW14719   1.440   7.073   5.115
 4262SOL    HW114720   1.496   7.154   5.134
 4262SOL    HW214721   1.371   7.063   5.186
 4263SOL     OW14722   0.443   5.970   5.133
 4263SOL    HW114723   0.528   5.918   5.143
 4263SOL    HW214724   0.368   5.920   5.177
 4264SOL     OW14725   1.617   6.049   4.483
 4264SOL    HW114726   1.536   6.038   4.426
 4264SOL    HW214727   1.613   6.137   4.531
 4265SOL     OW14728   0.277   7.293   4.238
 4265SOL    HW114729   0.189   7.335   4.215
 4265SOL    HW214730   0.337   7.295   4.158
 4266SOL     OW14731   1.130   6.907   5.500
 4266SOL    HW114732   1.180   6.898   5.586
 4266SOL    HW214733   1.073   6.826   5.487
 4267SOL     OW14734   0.202   7.023   4.224
 4267SOL    HW114735   0.232   7.116   4.244
 4267SOL    HW214736   0.208   6.968   4.308
 4268SOL     OW14737   0.273   6.680   4.657
 4268SOL    HW114738   0.269   6.585   4.685
 4268SOL    HW214739   0.225   6.737   4.724
 4269SOL     OW14740   0.653   6.620   3.868
 4269SOL    HW114741   0.706   6.674   3.802
 4269SOL    HW214742   0.701   6.618   3.956
 4270SOL     OW14743   0.090   6.177   4.412
 4270SOL    HW114744   0.088   6.164   4.313
 4270SOL    HW214745   0.118   6.271   4.433
 4271SOL     OW14746   1.870   7.342   4.169
 4271SOL    HW114747   1.783   7.372   4.206
 4271SOL    HW214748   1.945   7.388   4.217
 4272SOL     OW14749   1.670   6.475   4.373
 4272SOL    HW114750   1.759   6.466   4.416
 4272SOL    HW214751   1.674   6.547   4.303
 4273SOL     OW14752   1.684   6.703   4.197
 4273SOL    HW114753   1.768   6.685   4.145
 4273SOL    HW214754   1.705   6.755   4.279
 4274SOL     OW14755   0.196   6.303   5.315
 4274SOL    HW114756   0.276   6.322   5.258
 4274SOL    HW214757   0.194   6.366   5.392
 4275SOL     OW14758   0.596   6.975   4.444
 4275SOL    HW114759   0.561   6.886   4.471
 4275SOL    HW214760   0.582   6.989   4.346
 4276SOL     OW14761   1.261   6.780   5.173
 4276SOL    HW114762   1.282   6.718   5.098
 4276SOL    HW214763   1.337   6.780   5.238
 4277SOL     OW14764   0.837   5.598   4.244
 4277SOL    HW114765   0.885   5.679   4.212
 4277SOL    HW214766   0.739   5.612   4.236
 4278SOL     OW14767   0.135   6.569   5.029
 4278SOL    HW114768   0.224   6.524   5.025
 4278SOL    HW214769   0.098   6.578   4.936
 4279SOL     OW14770   1.576   6.668   3.934
 4279SOL    HW114771   1.495   6.613   3.949
 4279SOL    HW214772   1.620   6.687   4.022
 4280SOL     OW14773   1.195   7.338   5.306
 4280SOL    HW114774   1.276   7.391   5.330
 4280SOL    HW214775   1.220   7.241   5.302
 4281SOL     OW14776   0.343   5.820   5.571
 4281SOL    HW114777   0.396   5.905   5.570
 4281SOL    HW214778   0.246   5.842   5.579
 4282SOL     OW14779   1.473   6.956   4.645
 4282SOL    HW114780   1.416   6.995   4.718
 4282SOL    HW214781   1.448   6.860   4.631
 4283SOL     OW14782   1.618   7.441   4.237
 4283SOL    HW114783   1.600   7.386   4.155
 4283SOL    HW214784   1.583   7.393   4.318
 4284SOL     OW14785   0.584   6.262   3.978
 4284SOL    HW114786   0.590   6.354   3.939
 4284SOL    HW214787   0.506   6.258   4.040
 4285SOL     OW14788   1.306   5.989   4.661
 4285SOL    HW114789   1.227   5.927   4.663
 4285SOL    HW214790   1.370   5.962   4.732
 4286SOL     OW14791   1.584   7.270   4.025
 4286SOL    HW114792   1.678   7.243   4.001
 4286SOL    HW214793   1.531   7.280   3.941
 4287SOL     OW14794   0.722   6.180   5.067
 4287SOL    HW114795   0.757   6.140   5.152
 4287SOL    HW214796   0.712   6.109   4.998
 4288SOL     OW14797   1.380   6.068   5.391
 4288SOL    HW114798   1.379   6.119   5.477
 4288SOL    HW214799   1.439   5.988   5.400
 4289SOL     OW14800   0.958   6.472   5.342
 4289SOL    HW114801   1.010   6.399   5.297
 4289SOL    HW214802   0.892   6.511   5.278
 4290SOL     OW14803   1.010   6.004   4.842
 4290SOL    HW114804   0.912   6.000   4.863
 4290SOL    HW214805   1.033   5.928   4.780
 4291SOL     OW14806   0.986   6.252   4.178
 4291SOL    HW114807   0.972   6.283   4.272
 4291SOL    HW214808   0.909   6.195   4.149
 4292SOL     OW14809   0.147   6.444   4.459
 4292SOL    HW114810   0.198   6.426   4.543
 4292SOL    HW214811   0.192   6.519   4.409
 4293SOL     OW14812   0.056   7.357   5.182
 4293SOL    HW114813   0.015   7.302   5.255
 4293SOL    HW214814   0.071   7.299   5.102
 4294SOL     OW14815   0.867   5.903   3.928
 4294SOL    HW114816   0.924   5.957   3.867
 4294SOL    HW214817   0.827   5.826   3.878
 4295SOL     OW14818   1.699   6.145   5.521
 4295SOL    HW114819   1.680   6.238   5.490
 4295SOL    HW214820   1.723   6.088   5.443
 4296SOL     OW14821   1.409   6.746   4.268
 4296SOL    HW114822   1.501   6.737   4.230
 4296SOL    HW214823   1.359   6.816   4.217
 4297SOL     OW14824   0.598   5.718   4.631
 4297SOL    HW114825   0.571   5.747   4.723
 4297SOL    HW214826   0.638   5.795   4.582
 4298SOL     OW14827   1.005   7.060   4.216
 4298SOL    HW114828   0.984   7.137   4.156
 4298SOL    HW214829   0.960   7.073   4.304
 4299SOL     OW14830   0.311   7.384   4.672
 4299SOL    HW114831   0.354   7.302   4.636
 4299SOL    HW214832   0.371   7.463   4.656
 4300SOL     OW14833   1.800   6.673   4.633
 4300SOL    HW114834   1.771   6.730   4.557
 4300SOL    HW214835   1.727   6.668   4.701
 4301SOL     OW14836   1.221   7.065   5.286
 4301SOL    HW114837   1.212   7.007   5.367
 4301SOL    HW214838   1.160   7.031   5.214
 4302SOL     OW14839   1.451   6.328   4.418
 4302SOL    HW114840   1.445   6.306   4.516
 4302SOL    HW214841   1.530   6.388   4.403
 4303SOL     OW14842   0.462   6.841   5.427
 4303SOL    HW114843   0.432   6.851   5.332
 4303SOL    HW214844   0.385   6.860   5.488
 4304SOL     OW14845   1.125   7.384   3.952
 4304SOL    HW114846   1.046   7.350   4.004
 4304SOL    HW214847   1.152   7.316   3.884
 4305SOL     OW14848   0.220   5.833   5.231
 4305SOL    HW114849   0.121   5.843   5.220
 4305SOL    HW214850   0.240   5.747   5.277
 4306SOL     OW14851   1.674   6.993   3.773
 4306SOL    HW114852   1.664   7.074   3.717
 4306SOL    HW214853   1.592   6.936   3.766
 4307SOL     OW14854   0.473   7.324   4.036
 4307SOL    HW114855   0.519   7.391   4.094
 4307SOL    HW214856   0.541   7.265   3.992
 4308SOL     OW14857   1.382   5.687   4.173
 4308SOL    HW114858   1.383   5.664   4.076
 4308SOL    HW214859   1.474   5.679   4.210
 4309SOL     OW14860   0.384   7.388   4.936
 4309SOL    HW114861   0.380   7.299   4.981
 4309SOL    HW214862   0.349   7.380   4.843
 4310SOL     OW14863   0.943   7.282   4.576
 4310SOL    HW114864   1.032   7.239   4.565
 4310SOL    HW214865   0.876   7.235   4.517
 4311SOL     OW14866   0.384   6.229   4.159
 4311SOL    HW114867   0.416   6.151   4.213
 4311SOL    HW214868   0.285   6.221   4.143
 4312SOL     OW14869   1.528   5.844   5.440
 4312SOL    HW114870   1.531   5.857   5.539
 4312SOL    HW214871   1.493   5.752   5.419
 4313SOL     OW14872   0.692   5.690   3.817
 4313SOL    HW114873   0.735   5.607   3.852
 4313SOL    HW214874   0.642   5.668   3.733
 4314SOL     OW14875   0.762   5.869   5.426
 4314SOL    HW114876   0.845   5.814   5.431
 4314SOL    HW214877   0.708   5.857   5.510
 4315SOL     OW14878   0.908   7.160   5.038
 4315SOL    HW114879   0.943   7.206   4.956
 4315SOL    HW214880   0.960   7.077   5.054
 4316SOL     OW14881   1.301   6.178   5.155
 4316SOL    HW114882   1.340   6.144   5.241
 4316SOL    HW214883   1.337   6.269   5.136
 4317SOL     OW14884   0.802   6.869   4.612
 4317SOL    HW114885   0.894   6.909   4.607
 4317SOL    HW214886   0.740   6.919   4.552
 4318SOL     OW14887   0.572   5.652   4.205
 4318SOL    HW114888   0.506   5.671   4.277
 4318SOL    HW214889   0.568   5.723   4.135
 4319SOL     OW14890   1.446   6.835   3.758
 4319SOL    HW114891   1.493   6.770   3.817
 4319SOL    HW214892   1.361   6.865   3.802
 4320SOL     OW14893   0.304   5.591   3.808
 4320SOL    HW114894   0.352   5.671   3.771
 4320SOL    HW214895   0.356   5.554   3.884
 4321SOL     OW14896   0.962   5.823   4.174
 4321SOL    HW114897   0.931   5.853   4.084
 4321SOL    HW214898   1.055   5.855   4.190
 4322SOL     OW14899   1.045   6.255   5.205
 4322SOL    HW114900   0.984   6.185   5.242
 4322SOL    HW214901   1.136   6.216   5.190
 4323SOL     OW14902   1.197   7.196   4.529
 4323SOL    HW114903   1.231   7.242   4.447
 4323SOL    HW214904   1.247   7.228   4.609
 4324SOL     OW14905   0.502   6.727   4.502
 4324SOL    HW114906   0.450   6.709   4.586
 4324SOL    HW214907   0.445   6.706   4.422
 4325SOL     OW14908   1.264   7.391   4.323
 4325SOL    HW114909   1.308   7.465   4.272
 4325SOL    HW214910   1.179   7.425   4.364
 4326SOL     OW14911   1.020   6.080   3.781
 4326SOL    HW114912   0.987   6.166   3.742
 4326SOL    HW214913   1.080   6.099   3.859
 4327SOL     OW14914   0.075   6.212   5.077
 4327SOL    HW114915   0.163   6.194   5.033
 4327SOL    HW214916   0.091   6.241   5.172
 4328SOL     OW14917   0.527   5.786   4.879
 4328SOL    HW114918   0.555   5.710   4.937
 4328SOL    HW214919   0.430   5.807   4.896
 4329SOL     OW14920   0.736   5.932   4.309
 4329SOL    HW114921   0.728   6.003   4.239
 4329SOL    HW214922   0.812   5.870   4.286
 4330SOL     OW14923   1.040   5.630   4.460
 4330SOL    HW114924   0.977   5.643   4.383
 4330SOL    HW214925   1.006   5.556   4.519
 4331SOL     OW14926   1.413   6.690   4.616
 4331SOL    HW114927   1.359   6.613   4.652
 4331SOL    HW214928   1.407   6.691   4.516
 4332SOL     OW14929   1.448   6.237   4.676
 4332SOL    HW114930   1.393   6.153   4.682
 4332SOL    HW214931   1.525   6.231   4.739
 4333SOL     OW14932   1.823   6.380   4.092
 4333SOL    HW114933   1.880   6.347   4.167
 4333SOL    HW214934   1.817   6.309   4.022
 4334SOL     OW14935   0.473   7.006   3.921
 4334SOL    HW114936   0.463   6.907   3.925
 4334SOL    HW214937   0.405   7.045   3.859
 4335SOL     OW14938   1.755   6.840   4.418
 4335SOL    HW114939   1.853   6.856   4.406
 4335SOL    HW214940   1.707   6.928   4.414
 4336SOL     OW14941   1.378   6.153   3.790
 4336SOL    HW114942   1.339   6.126   3.878
 4336SOL    HW214943   1.478   6.150   3.796
 4337SOL     OW14944   0.554   5.828   4.005
 4337SOL    HW114945   0.606   5.778   3.936
 4337SOL    HW214946   0.517   5.912   3.965
 4338SOL     OW14947   1.736   6.837   5.266
 4338SOL    HW114948   1.814   6.774   5.266
 4338SOL    HW214949   1.765   6.925   5.303
 4339SOL     OW14950   1.045   6.927   5.106
 4339SOL    HW114951   0.958   6.888   5.136
 4339SOL    HW214952   1.120   6.867   5.134
 4340SOL     OW14953   1.619   7.192   5.410
 4340SOL    HW114954   1.599   7.231   5.320
 4340SOL    HW214955   1.706   7.144   5.407
 4341SOL     OW14956   1.147   6.859   4.854
 4341SOL    HW114957   1.086   6.883   4.930
 4341SOL    HW214958   1.104   6.884   4.768
 4342SOL     OW14959   1.602   6.677   4.824
 4342SOL    HW114960   1.596   6.749   4.893
 4342SOL    HW214961   1.526   6.687   4.759
 4343SOL     OW14962   0.899   5.731   5.045
 4343SOL    HW114963   0.925   5.674   4.968
 4343SOL    HW214964   0.982   5.756   5.097
 4344SOL     OW14965   0.963   6.687   5.504
 4344SOL    HW114966   0.867   6.699   5.529
 4344SOL    HW214967   0.972   6.609   5.442
 4345SOL     OW14968   0.765   6.634   4.127
 4345SOL    HW114969   0.738   6.616   4.222
 4345SOL    HW214970   0.849   6.585   4.107
 4346SOL     OW14971   0.382   6.435   5.029
 4346SOL    HW114972   0.455   6.436   5.097
 4346SOL    HW214973   0.359   6.340   5.006
 4347SOL     OW14974   1.237   5.970   4.995
 4347SOL    HW114975   1.259   6.050   5.051
 4347SOL    HW214976   1.155   5.988   4.941
 4348SOL     OW14977   0.113   7.182   4.985
 4348SOL    HW114978   0.095   7.200   4.888
 4348SOL    HW214979   0.211   7.163   4.998
 4349SOL     OW14980   1.259   6.963   4.142
 4349SOL    HW114981   1.321   7.035   4.172
 4349SOL    HW214982   1.167   6.982   4.176
 4350SOL     OW14983   1.341   7.046   4.865
 4350SOL    HW114984   1.378   7.057   4.957
 4350SOL    HW214985   1.271   6.974   4.865
 4351SOL     OW14986   1.589   6.227   4.185
 4351SOL    HW114987   1.529   6.263   4.257
 4351SOL    HW214988   1.656   6.297   4.160
 4352SOL     OW14989   0.382   7.126   5.019
 4352SOL    HW114990   0.394   7.070   4.937
 4352SOL    HW214991   0.471   7.139   5.063
 4353SOL     OW14992   0.490   6.419   5.449
 4353SOL    HW114993   0.532   6.404   5.359
 4353SOL    HW214994   0.563   6.427   5.518
 4354SOL     OW14995   1.651   6.398   5.432
 4354SOL    HW114996   1.557   6.430   5.419
 4354SOL    HW214997   1.706   6.420   5.351
 4355SOL     OW14998   0.984   5.722   5.452
 4355SOL    HW114999   1.048   5.799   5.451
 4355SOL    HW215000   1.028   5.642   5.411
 4356SOL     OW15001   0.515   6.504   4.789
 4356SOL    HW115002   0.591   6.569   4.790
 4356SOL    HW215003   0.478   6.495   4.882
 4357SOL     OW15004   1.294   6.462   4.728
 4357SOL    HW115005   1.199   6.429   4.731
 4357SOL    HW215006   1.355   6.385   4.711
 4358SOL     OW15007   1.168   6.112   4.014
 4358SOL    HW115008   1.196   6.034   4.069
 4358SOL    HW215009   1.114   6.175   4.071
 4359SOL     OW15010   0.255   5.780   4.942
 4359SOL    HW115011   0.240   5.806   5.038
 4359SOL    HW215012   0.223   5.687   4.927
 4360SOL     OW15013   0.007   6.931   5.013
 4360SOL    HW115014   0.037   6.881   5.094
 4360SOL    HW215015   0.033   7.027   5.022
 4361SOL     OW15016   1.776   6.573   5.609
 4361SOL    HW115017   1.731   6.503   5.553
 4361SOL    HW215018   1.719   6.593   5.688
 4362SOL     OW15019   0.370   5.724   4.378
 4362SOL    HW115020   0.325   5.804   4.418
 4362SOL    HW215021   0.365   5.647   4.442
 4363SOL     OW15022   1.621   5.993   4.053
 4363SOL    HW115023   1.673   5.932   4.112
 4363SOL    HW215024   1.595   6.075   4.104
 4364SOL     OW15025   1.043   6.347   4.762
 4364SOL    HW115026   0.997   6.364   4.849
 4364SOL    HW215027   1.054   6.248   4.749
 4365SOL     OW15028   0.990   7.138   5.519
 4365SOL    HW115029   0.969   7.182   5.431
 4365SOL    HW215030   1.027   7.047   5.502
 4366SOL     OW15031   1.859   7.073   5.338
 4366SOL    HW115032   1.876   7.100   5.244
 4366SOL    HW215033   1.942   7.085   5.393
 4367SOL     OW15034   1.531   5.843   3.838
 4367SOL    HW115035   1.476   5.768   3.874
 4367SOL    HW215036   1.561   5.902   3.913
 4368SOL     OW15037   1.287   6.405   3.749
 4368SOL    HW115038   1.318   6.310   3.758
 4368SOL    HW215039   1.318   6.442   3.662
 4369SOL     OW15040   1.067   6.950   4.605
 4369SOL    HW115041   1.084   6.864   4.557
 4369SOL    HW215042   1.123   7.022   4.565
 4370SOL     OW15043   0.296   6.395   4.679
 4370SOL    HW115044   0.384   6.430   4.711
 4370SOL    HW215045   0.289   6.298   4.701
 4371SOL     OW15046   0.309   6.119   4.721
 4371SOL    HW115047   0.241   6.046   4.723
 4371SOL    HW215048   0.374   6.102   4.646
 4372SOL     OW15049   1.134   5.949   5.408
 4372SOL    HW115050   1.082   5.998   5.478
 4372SOL    HW215051   1.224   5.991   5.398
 4373SOL     OW15052   1.135   5.791   5.179
 4373SOL    HW115053   1.127   5.848   5.261
 4373SOL    HW215054   1.181   5.842   5.107
 4374SOL     OW15055   0.080   7.227   4.717
 4374SOL    HW115056   0.082   7.149   4.654
 4374SOL    HW215057   0.149   7.294   4.689
 4375SOL     OW15058   0.470   7.163   4.605
 4375SOL    HW115059   0.541   7.232   4.618
 4375SOL    HW215060   0.502   7.096   4.538
 4376SOL     OW15061   0.911   6.367   4.996
 4376SOL    HW115062   0.975   6.339   5.068
 4376SOL    HW215063   0.829   6.310   5.000
 4377SOL     OW15064   9.892   6.122   4.884
 4377SOL    HW115065   9.929   6.129   4.791
 4377SOL    HW215066   9.964   6.144   4.950
 4378SOL     OW15067   0.170   6.057   5.427
 4378SOL    HW115068   0.205   5.990   5.361
 4378SOL    HW215069   0.172   6.148   5.387
 4379SOL     OW15070   1.409   6.506   5.365
 4379SOL    HW115071   1.430   6.604   5.363
 4379SOL    HW215072   1.390   6.474   5.272
 4380SOL     OW15073   0.771   6.102   4.095
 4380SOL    HW115074   0.797   6.029   4.031
 4380SOL    HW215075   0.705   6.162   4.051
 4381SOL     OW15076   1.672   6.222   4.838
 4381SOL    HW115077   1.677   6.143   4.899
 4381SOL    HW215078   1.764   6.253   4.816
 4382SOL     OW15079   0.293   7.170   5.428
 4382SOL    HW115080   0.243   7.204   5.508
 4382SOL    HW215081   0.322   7.076   5.444
 4383SOL     OW15082   0.722   5.990   4.849
 4383SOL    HW115083   0.655   5.920   4.874
 4383SOL    HW215084   0.721   6.003   4.750
 4384SOL     OW15085   0.935   7.276   5.285
 4384SOL    HW115086   0.921   7.240   5.193
 4384SOL    HW215087   1.027   7.316   5.292
 4385SOL     OW15088   0.480   6.044   3.848
 4385SOL    HW115089   0.536   6.117   3.885
 4385SOL    HW215090   0.389   6.080   3.824
 4386SOL     OW15091   0.114   6.771   5.206
 4386SOL    HW115092   0.084   6.739   5.296
 4386SOL    HW215093   0.122   6.694   5.143
 4387SOL     OW15094   1.278   6.632   4.939
 4387SOL    HW115095   1.289   6.568   4.863
 4387SOL    HW215096   1.231   6.714   4.906
 4388SOL     OW15097   1.348   6.537   3.980
 4388SOL    HW115098   1.272   6.531   4.045
 4388SOL    HW215099   1.325   6.484   3.898
 4389SOL     OW15100   1.738   7.279   4.910
 4389SOL    HW115101   1.826   7.316   4.880
 4389SOL    HW215102   1.720   7.193   4.863
 4390SOL     OW15103   1.313   7.293   4.756
 4390SOL    HW115104   1.390   7.353   4.775
 4390SOL    HW215105   1.327   7.205   4.803
 4391SOL     OW15106   0.157   6.893   4.787
 4391SOL    HW115107   0.099   6.895   4.868
 4391SOL    HW215108   0.108   6.935   4.710
 4392SOL     OW15109   0.673   7.248   5.357
 4392SOL    HW115110   0.622   7.326   5.395
 4392SOL    HW215111   0.768   7.275   5.342
 4393SOL     OW15112   1.783   5.821   4.188
 4393SOL    HW115113   1.834   5.789   4.108
 4393SOL    HW215114   1.728   5.745   4.225
 4394SOL     OW15115   1.415   7.175   4.225
 4394SOL    HW115116   1.472   7.204   4.147
 4394SOL    HW215117   1.355   7.251   4.251
 4395SOL     OW15118   0.125   7.257   5.630
 4395SOL    HW115119   0.072   7.224   5.708
 4395SOL    HW215120   0.196   7.319   5.662
 4396SOL     OW15121   1.273   6.546   4.385
 4396SOL    HW115122   1.325   6.461   4.385
 4396SOL    HW215123   1.321   6.615   4.330
 4397SOL     OW15124   0.796   6.841   5.170
 4397SOL    HW115125   0.765   6.888   5.253
 4397SOL    HW215126   0.730   6.857   5.096
 4398SOL     OW15127   0.684   7.180   3.922
 4398SOL    HW115128   0.699   7.198   3.825
 4398SOL    HW215129   0.620   7.103   3.932
 4399SOL     OW15130   1.604   7.292   5.150
 4399SOL    HW115131   1.642   7.284   5.058
 4399SOL    HW215132   1.635   7.377   5.192
 4400SOL     OW15133   1.859   5.731   4.700
 4400SOL    HW115134   1.877   5.636   4.673
 4400SOL    HW215135   1.769   5.759   4.666
 4401SOL     OW15136   0.251   5.953   4.472
 4401SOL    HW115137   0.194   6.029   4.440
 4401SOL    HW215138   0.216   5.919   4.559
 4402SOL     OW15139   1.199   7.198   3.769
 4402SOL    HW115140   1.207   7.106   3.808
 4402SOL    HW215141   1.125   7.199   3.701
 4403SOL     OW15142   0.793   6.570   5.155
 4403SOL    HW115143   0.836   6.535   5.071
 4403SOL    HW215144   0.797   6.670   5.155
 4404SOL     OW15145   0.984   6.501   4.061
 4404SOL    HW115146   1.009   6.501   3.964
 4404SOL    HW215147   0.994   6.409   4.098
 4405SOL     OW15148   1.458   7.294   3.785
 4405SOL    HW115149   1.366   7.259   3.766
 4405SOL    HW215150   1.520   7.263   3.712
 4406SOL     OW15151   0.352   6.905   5.193
 4406SOL    HW115152   0.348   6.984   5.132
 4406SOL    HW215153   0.264   6.858   5.191
 4407SOL     OW15154   1.607   6.876   5.022
 4407SOL    HW115155   1.664   6.849   5.100
 4407SOL    HW215156   1.537   6.940   5.052
 4408SOL     OW15157   1.083   6.701   4.503
 4408SOL    HW115158   1.009   6.643   4.538
 4408SOL    HW215159   1.150   6.644   4.456
 4409SOL     OW15160   1.097   5.789   4.688
 4409SOL    HW115161   1.084   5.750   4.597
 4409SOL    HW215162   1.082   5.718   4.757
 4410SOL     OW15163   0.590   7.020   4.180
 4410SOL    HW115164   0.673   6.980   4.143
 4410SOL    HW215165   0.522   7.029   4.107
 4411SOL     OW15166   1.735   6.009   5.012
 4411SOL    HW115167   1.820   6.057   5.035
 4411SOL    HW215168   1.755   5.912   4.994
 4412SOL     OW15169   0.673   5.808   5.176
 4412SOL    HW115170   0.755   5.789   5.122
 4412SOL    HW215171   0.699   5.833   5.269
 4413SOL     OW15172   0.141   5.854   3.641
 4413SOL    HW115173   0.050   5.825   3.672
 4413SOL    HW215174   0.136   5.949   3.609
 4414SOL     OW15175   1.390   6.435   5.101
 4414SOL    HW115176   1.333   6.500   5.051
 4414SOL    HW215177   1.483   6.437   5.066
 4415SOL     OW15178   0.084   5.699   3.922
 4415SOL    HW115179   0.108   5.705   4.019
 4415SOL    HW215180   0.158   5.656   3.871
 4416SOL     OW15181   1.202   6.940   3.869
 4416SOL    HW115182   1.102   6.931   3.864
 4416SOL    HW215183   1.231   6.938   3.964
 4417SOL     OW15184   0.594   6.391   5.196
 4417SOL    HW115185   0.663   6.463   5.187
 4417SOL    HW215186   0.628   6.307   5.153
 4418SOL     OW15187   1.533   7.451   4.804
 4418SOL    HW115188   1.566   7.506   4.728
 4418SOL    HW215189   1.609   7.400   4.844
 4419SOL     OW15190   0.831   6.114   5.319
 4419SOL    HW115191   0.828   6.180   5.394
 4419SOL    HW215192   0.806   6.023   5.354
 4420SOL     OW15193   1.480   6.768   5.353
 4420SOL    HW115194   1.476   6.786   5.451
 4420SOL    HW215195   1.570   6.794   5.318
 4421SOL     OW15196   0.299   7.415   5.303
 4421SOL    HW115197   0.218   7.410   5.245
 4421SOL    HW215198   0.312   7.326   5.348
 4422SOL     OW15199   1.635   6.455   4.983
 4422SOL    HW115200   1.647   6.373   4.927
 4422SOL    HW215201   1.629   6.535   4.923
 4423SOL     OW15202   1.225   5.911   4.199
 4423SOL    HW115203   1.280   5.828   4.186
 4423SOL    HW215204   1.266   5.968   4.270
 4424SOL     OW15205   0.466   6.443   4.303
 4424SOL    HW115206   0.562   6.439   4.329
 4424SOL    HW215207   0.441   6.358   4.255
 4425SOL     OW15208   1.728   5.962   5.299
 4425SOL    HW115209   1.695   5.990   5.209
 4425SOL    HW215210   1.654   5.916   5.348
 4426SOL     OW15211   1.789   6.469   5.210
 4426SOL    HW115212   1.839   6.556   5.208
 4426SOL    HW215213   1.734   6.460   5.128
 4427SOL     OW15214   0.923   6.971   3.853
 4427SOL    HW115215   0.880   6.945   3.939
 4427SOL    HW215216   0.895   7.065   3.830
 4428SOL     OW15217   0.653   7.357   4.628
 4428SOL    HW115218   0.612   7.447   4.641
 4428SOL    HW215219   0.752   7.364   4.636
 4429SOL     OW15220   0.888   6.521   4.614
 4429SOL    HW115221   0.950   6.465   4.669
 4429SOL    HW215222   0.828   6.573   4.675
 4430SOL     OW15223   1.049   6.513   3.800
 4430SOL    HW115224   1.038   6.591   3.738
 4430SOL    HW215225   1.138   6.471   3.783
 4431SOL     OW15226   1.767   7.173   4.585
 4431SOL    HW115227   1.707   7.143   4.511
 4431SOL    HW215228   1.752   7.115   4.665
 4432SOL     OW15229   0.247   6.920   5.569
 4432SOL    HW115230   0.148   6.920   5.555
 4432SOL    HW215231   0.267   6.914   5.666
 4433SOL     OW15232   0.222   6.834   4.437
 4433SOL    HW115233   0.236   6.785   4.524
 4433SOL    HW215234   0.254   6.777   4.362
 4434SOL     OW15235   0.697   6.977   5.389
 4434SOL    HW115236   0.606   6.938   5.401
 4434SOL    HW215237   0.690   7.077   5.387
 4435SOL     OW15238   1.788   5.744   4.960
 4435SOL    HW115239   1.855   5.692   5.013
 4435SOL    HW215240   1.816   5.746   4.864
 4436SOL     OW15241   0.466   6.029   4.315
 4436SOL    HW115242   0.543   5.966   4.315
 4436SOL    HW215243   0.394   5.993   4.375
 4437SOL     OW15244   1.683   7.032   4.804
 4437SOL    HW115245   1.611   7.004   4.741
 4437SOL    HW215246   1.682   6.974   4.885
 4438SOL     OW15247   0.330   6.171   4.987
 4438SOL    HW115248   0.379   6.101   5.039
 4438SOL    HW215249   0.332   6.149   4.890
 4439SOL     OW15250   0.796   7.155   4.388
 4439SOL    HW115251   0.762   7.209   4.311
 4439SOL    HW215252   0.724   7.091   4.417
 4440SOL     OW15253   1.479   5.935   4.869
 4440SOL    HW115254   1.556   5.959   4.928
 4440SOL    HW215255   1.395   5.934   4.922
 4441SOL     OW15256   1.013   5.560   4.848
 4441SOL    HW115257   0.984   5.510   4.766
 4441SOL    HW215258   1.039   5.495   4.919
 4442SOL     OW15259   0.817   6.899   4.090
 4442SOL    HW115260   0.802   6.801   4.108
 4442SOL    HW215261   0.892   6.932   4.147
 4443SOL     OW15262   0.641   7.141   5.106
 4443SOL    HW115263   0.635   7.177   5.199
 4443SOL    HW215264   0.733   7.154   5.071
 4444SOL     OW15265   1.388   5.620   3.909
 4444SOL    HW115266   1.439   5.545   3.868
 4444SOL    HW215267   1.290   5.609   3.891
 4445SOL     OW15268   1.348   6.060   4.396
 4445SOL    HW115269   1.355   6.159   4.389
 4445SOL    HW215270   1.323   6.034   4.489
 4446SOL     OW15271   1.617   5.829   4.649
 4446SOL    HW115272   1.561   5.856   4.727
 4446SOL    HW215273   1.617   5.903   4.582
 4447SOL     OW15274   0.032   6.530   3.995
 4447SOL    HW115275   9.996   6.622   3.975
 4447SOL    HW215276   0.018   6.509   4.092
 4448SOL     OW15277   0.899   7.278   4.078
 4448SOL    HW115278   0.817   7.250   4.028
 4448SOL    HW215279   0.883   7.366   4.123
 4449SOL     OW15280   0.244   6.153   5.702
 4449SOL    HW115281   0.178   6.203   5.759
 4449SOL    HW215282   0.209   6.147   5.609
 4450SOL     OW15283   0.209   5.943   6.626
 4450SOL    HW115284   0.220   5.880   6.702
 4450SOL    HW215285   0.140   6.012   6.649
 4451SOL     OW15286   0.014   5.979   6.204
 4451SOL    HW115287   9.914   5.981   6.202
 4451SOL    HW215288   0.047   5.903   6.147
 4452SOL     OW15289   1.106   6.322   6.261
 4452SOL    HW115290   1.166   6.402   6.266
 4452SOL    HW215291   1.043   6.321   6.338
 4453SOL     OW15292   1.799   6.150   5.771
 4453SOL    HW115293   1.766   6.152   5.677
 4453SOL    HW215294   1.742   6.087   5.825
 4454SOL     OW15295   0.710   6.723   6.594
 4454SOL    HW115296   0.706   6.785   6.672
 4454SOL    HW215297   0.727   6.775   6.511
 4455SOL     OW15298   0.837   6.333   7.410
 4455SOL    HW115299   0.778   6.397   7.459
 4455SOL    HW215300   0.874   6.377   7.328
 4456SOL     OW15301   0.656   6.597   6.191
 4456SOL    HW115302   0.728   6.596   6.260
 4456SOL    HW215303   0.598   6.678   6.205
 4457SOL     OW15304   0.728   6.773   7.395
 4457SOL    HW115305   0.773   6.852   7.436
 4457SOL    HW215306   0.648   6.804   7.343
 4458SOL     OW15307   0.455   6.988   6.664
 4458SOL    HW115308   0.377   6.927   6.652
 4458SOL    HW215309   0.472   7.038   6.579
 4459SOL     OW15310   1.443   7.120   6.976
 4459SOL    HW115311   1.509   7.195   6.980
 4459SOL    HW215312   1.368   7.138   7.039
 4460SOL     OW15313   0.480   5.934   6.979
 4460SOL    HW115314   0.560   5.883   7.013
 4460SOL    HW215315   0.415   5.870   6.939
 4461SOL     OW15316   1.649   6.045   6.323
 4461SOL    HW115317   1.622   6.090   6.238
 4461SOL    HW215318   1.605   6.090   6.401
 4462SOL     OW15319   0.209   7.201   6.032
 4462SOL    HW115320   0.161   7.277   6.076
 4462SOL    HW215321   0.296   7.233   5.995
 4463SOL     OW15322   1.126   6.931   7.259
 4463SOL    HW115323   1.178   6.924   7.344
 4463SOL    HW215324   1.069   6.849   7.249
 4464SOL     OW15325   0.270   6.940   6.088
 4464SOL    HW115326   0.243   7.036   6.079
 4464SOL    HW215327   0.199   6.891   6.138
 4465SOL     OW15328   0.314   6.670   6.418
 4465SOL    HW115329   0.333   6.575   6.445
 4465SOL    HW215330   0.292   6.724   6.499
 4466SOL     OW15331   0.541   7.316   7.013
 4466SOL    HW115332   0.458   7.333   7.066
 4466SOL    HW215333   0.599   7.397   7.016
 4467SOL     OW15334   0.683   6.489   5.647
 4467SOL    HW115335   0.689   6.584   5.613
 4467SOL    HW215336   0.683   6.489   5.747
 4468SOL     OW15337   1.687   5.664   7.120
 4468SOL    HW115338   1.712   5.712   7.036
 4468SOL    HW215339   1.621   5.719   7.172
 4469SOL     OW15340   0.088   6.240   6.156
 4469SOL    HW115341   0.068   6.144   6.173
 4469SOL    HW215342   0.020   6.297   6.202
 4470SOL     OW15343   1.853   7.277   5.931
 4470SOL    HW115344   1.916   7.251   6.004
 4470SOL    HW215345   1.863   7.375   5.912
 4471SOL     OW15346   0.004   7.152   5.856
 4471SOL    HW115347   9.991   7.053   5.844
 4471SOL    HW215348   0.078   7.168   5.922
 4472SOL     OW15349   1.710   6.535   6.304
 4472SOL    HW115350   1.797   6.487   6.314
 4472SOL    HW215351   1.707   6.579   6.214
 4473SOL     OW15352   1.682   6.711   6.074
 4473SOL    HW115353   1.765   6.681   6.027
 4473SOL    HW215354   1.702   6.793   6.127
 4474SOL     OW15355   0.262   6.296   7.179
 4474SOL    HW115356   0.361   6.296   7.194
 4474SOL    HW215357   0.225   6.387   7.199
 4475SOL     OW15358   0.630   7.023   6.193
 4475SOL    HW115359   0.573   6.941   6.201
 4475SOL    HW215360   0.632   7.052   6.097
 4476SOL     OW15361   1.343   6.729   7.026
 4476SOL    HW115362   1.406   6.776   6.965
 4476SOL    HW215363   1.367   6.749   7.121
 4477SOL     OW15364   0.826   5.612   6.083
 4477SOL    HW115365   0.881   5.688   6.048
 4477SOL    HW215366   0.729   5.635   6.078
 4478SOL     OW15367   0.206   6.501   6.876
 4478SOL    HW115368   0.301   6.472   6.886
 4478SOL    HW215369   0.169   6.465   6.790
 4479SOL     OW15370   1.590   6.633   5.816
 4479SOL    HW115371   1.522   6.561   5.831
 4479SOL    HW215372   1.620   6.670   5.903
 4480SOL     OW15373   1.237   7.430   7.211
 4480SOL    HW115374   1.221   7.489   7.132
 4480SOL    HW215375   1.236   7.334   7.182
 4481SOL     OW15376   0.319   5.823   7.393
 4481SOL    HW115377   0.353   5.902   7.341
 4481SOL    HW215378   0.220   5.832   7.405
 4482SOL     OW15379   1.438   6.998   6.569
 4482SOL    HW115380   1.371   7.008   6.643
 4482SOL    HW215381   1.433   6.906   6.532
 4483SOL     OW15382   0.579   6.289   5.932
 4483SOL    HW115383   0.621   6.379   5.930
 4483SOL    HW215384   0.496   6.292   5.987
 4484SOL     OW15385   1.247   5.945   6.462
 4484SOL    HW115386   1.166   5.890   6.480
 4484SOL    HW215387   1.318   5.921   6.528
 4485SOL     OW15388   1.587   7.228   5.913
 4485SOL    HW115389   1.685   7.241   5.925
 4485SOL    HW215390   1.566   7.226   5.815
 4486SOL     OW15391   0.835   6.144   7.045
 4486SOL    HW115392   0.792   6.115   7.131
 4486SOL    HW215393   0.812   6.079   6.973
 4487SOL     OW15394   1.371   6.088   7.283
 4487SOL    HW115395   1.375   6.122   7.377
 4487SOL    HW215396   1.429   6.008   7.274
 4488SOL     OW15397   0.945   6.460   7.177
 4488SOL    HW115398   1.008   6.395   7.135
 4488SOL    HW215399   0.897   6.510   7.105
 4489SOL     OW15400   1.068   5.996   6.758
 4489SOL    HW115401   0.972   6.013   6.782
 4489SOL    HW215402   1.072   5.934   6.679
 4490SOL     OW15403   1.049   6.290   5.994
 4490SOL    HW115404   1.071   6.300   6.091
 4490SOL    HW215405   0.962   6.243   5.984
 4491SOL     OW15406   0.100   7.522   7.220
 4491SOL    HW115407   0.102   7.575   7.305
 4491SOL    HW215408   0.006   7.497   7.198
 4492SOL     OW15409   0.851   5.944   5.779
 4492SOL    HW115410   0.910   5.987   5.710
 4492SOL    HW215411   0.785   5.884   5.734
 4493SOL     OW15412   1.749   6.188   7.381
 4493SOL    HW115413   1.800   6.251   7.321
 4493SOL    HW215414   1.740   6.099   7.337
 4494SOL     OW15415   1.410   6.749   6.184
 4494SOL    HW115416   1.498   6.734   6.140
 4494SOL    HW215417   1.357   6.816   6.132
 4495SOL     OW15418   0.588   5.681   6.499
 4495SOL    HW115419   0.568   5.705   6.594
 4495SOL    HW215420   0.607   5.764   6.447
 4496SOL     OW15421   1.011   6.983   6.116
 4496SOL    HW115422   0.950   6.906   6.132
 4496SOL    HW215423   0.973   7.065   6.158
 4497SOL     OW15424   0.345   7.359   6.465
 4497SOL    HW115425   0.399   7.276   6.454
 4497SOL    HW215426   0.400   7.427   6.514
 4498SOL     OW15427   1.748   6.740   6.483
 4498SOL    HW115428   1.733   6.662   6.423
 4498SOL    HW215429   1.690   6.731   6.564
 4499SOL     OW15430   1.206   7.154   7.107
 4499SOL    HW115431   1.187   7.070   7.158
 4499SOL    HW215432   1.141   7.162   7.032
 4500SOL     OW15433   1.495   6.366   6.322
 4500SOL    HW115434   1.503   6.302   6.400
 4500SOL    HW215435   1.571   6.430   6.324
 4501SOL     OW15436   0.502   6.869   7.272
 4501SOL    HW115437   0.471   6.870   7.177
 4501SOL    HW215438   0.424   6.877   7.333
 4502SOL     OW15439   1.184   7.444   5.702
 4502SOL    HW115440   1.090   7.473   5.684
 4502SOL    HW215441   1.191   7.344   5.694
 4503SOL     OW15442   0.173   5.826   7.095
 4503SOL    HW115443   0.223   5.896   7.146
 4503SOL    HW215444   0.148   5.751   7.156
 4504SOL     OW15445   1.672   6.984   5.680
 4504SOL    HW115446   1.617   7.068   5.680
 4504SOL    HW215447   1.616   6.907   5.651
 4505SOL     OW15448   0.451   7.284   5.930
 4505SOL    HW115449   0.494   7.363   5.971
 4505SOL    HW215450   0.515   7.207   5.928
 4506SOL     OW15451   1.391   5.698   6.043
 4506SOL    HW115452   1.391   5.672   5.947
 4506SOL    HW215453   1.483   5.688   6.081
 4507SOL     OW15454   0.214   7.354   6.782
 4507SOL    HW115455   0.279   7.284   6.812
 4507SOL    HW215456   0.166   7.323   6.701
 4508SOL     OW15457   0.928   7.320   6.461
 4508SOL    HW115458   0.960   7.250   6.525
 4508SOL    HW215459   0.908   7.278   6.372
 4509SOL     OW15460   0.352   6.282   6.102
 4509SOL    HW115461   0.389   6.192   6.126
 4509SOL    HW215462   0.253   6.284   6.120
 4510SOL     OW15463   1.504   5.829   7.261
 4510SOL    HW115464   1.503   5.833   7.361
 4510SOL    HW215465   1.419   5.787   7.228
 4511SOL     OW15466   0.764   5.825   7.333
 4511SOL    HW115467   0.862   5.805   7.336
 4511SOL    HW215468   0.717   5.779   7.409
 4512SOL     OW15469   1.307   6.246   7.064
 4512SOL    HW115470   1.338   6.194   7.144
 4512SOL    HW215471   1.369   6.322   7.048
 4513SOL     OW15472   0.780   6.882   6.385
 4513SOL    HW115473   0.873   6.915   6.398
 4513SOL    HW215474   0.734   6.940   6.317
 4514SOL     OW15475   0.885   6.043   6.445
 4514SOL    HW115476   0.890   6.032   6.346
 4514SOL    HW215477   0.929   5.965   6.490
 4515SOL     OW15478   0.559   5.684   6.052
 4515SOL    HW115479   0.495   5.697   6.127
 4515SOL    HW215480   0.547   5.758   5.985
 4516SOL     OW15481   1.478   6.797   5.628
 4516SOL    HW115482   1.520   6.729   5.688
 4516SOL    HW215483   1.395   6.832   5.671
 4517SOL     OW15484   0.286   5.601   5.722
 4517SOL    HW115485   0.328   5.677   5.673
 4517SOL    HW215486   0.354   5.558   5.782
 4518SOL     OW15487   0.967   5.825   5.996
 4518SOL    HW115488   0.926   5.865   5.914
 4518SOL    HW215489   1.064   5.850   6.001
 4519SOL     OW15490   1.054   6.291   6.979
 4519SOL    HW115491   0.989   6.222   7.012
 4519SOL    HW215492   1.147   6.266   7.005
 4520SOL     OW15493   1.253   7.109   6.399
 4520SOL    HW115494   1.269   7.203   6.369
 4520SOL    HW215495   1.332   7.077   6.451
 4521SOL     OW15496   0.464   6.801   6.221
 4521SOL    HW115497   0.419   6.756   6.297
 4521SOL    HW215498   0.397   6.852   6.167
 4522SOL     OW15499   1.014   6.089   5.611
 4522SOL    HW115500   0.962   6.171   5.589
 4522SOL    HW215501   1.078   6.109   5.685
 4523SOL     OW15502   0.138   6.194   6.958
 4523SOL    HW115503   0.219   6.173   6.902
 4523SOL    HW215504   0.167   6.226   7.048
 4524SOL     OW15505   0.524   5.729   6.754
 4524SOL    HW115506   0.549   5.658   6.820
 4524SOL    HW215507   0.428   5.754   6.767
 4525SOL     OW15508   0.870   6.005   6.183
 4525SOL    HW115509   0.843   6.074   6.116
 4525SOL    HW215510   0.911   5.927   6.135
 4526SOL     OW15511   0.997   5.637   6.311
 4526SOL    HW115512   0.936   5.634   6.232
 4526SOL    HW215513   0.982   5.556   6.368
 4527SOL     OW15514   1.418   6.740   6.478
 4527SOL    HW115515   1.376   6.655   6.510
 4527SOL    HW215516   1.414   6.744   6.379
 4528SOL     OW15517   1.535   6.175   6.532
 4528SOL    HW115518   1.444   6.155   6.569
 4528SOL    HW215519   1.597   6.198   6.607
 4529SOL     OW15520   1.796   6.345   5.964
 4529SOL    HW115521   1.866   6.316   6.029
 4529SOL    HW215522   1.798   6.286   5.884
 4530SOL     OW15523   0.571   6.897   5.785
 4530SOL    HW115524   0.473   6.880   5.795
 4530SOL    HW215525   0.610   6.832   5.720
 4531SOL     OW15526   1.760   6.899   6.257
 4531SOL    HW115527   1.854   6.874   6.234
 4531SOL    HW215528   1.733   6.853   6.341
 4532SOL     OW15529   1.380   6.169   5.644
 4532SOL    HW115530   1.313   6.144   5.714
 4532SOL    HW215531   1.470   6.136   5.671
 4533SOL     OW15532   0.492   5.860   5.844
 4533SOL    HW115533   0.393   5.854   5.852
 4533SOL    HW215534   0.518   5.953   5.819
 4534SOL     OW15535   1.741   6.872   7.113
 4534SOL    HW115536   1.790   6.798   7.159
 4534SOL    HW215537   1.782   6.960   7.138
 4535SOL     OW15538   1.113   6.849   6.906
 4535SOL    HW115539   1.023   6.849   6.949
 4535SOL    HW215540   1.177   6.796   6.962
 4536SOL     OW15541   1.643   7.235   7.264
 4536SOL    HW115542   1.619   7.276   7.176
 4536SOL    HW215543   1.728   7.182   7.254
 4537SOL     OW15544   1.131   6.669   6.691
 4537SOL    HW115545   1.115   6.745   6.755
 4537SOL    HW215546   1.096   6.694   6.601
 4538SOL     OW15547   1.585   6.713   6.701
 4538SOL    HW115548   1.568   6.778   6.775
 4538SOL    HW215549   1.511   6.718   6.634
 4539SOL     OW15550   0.933   5.671   6.970
 4539SOL    HW115551   0.956   5.640   6.878
 4539SOL    HW215552   0.993   5.746   6.996
 4540SOL     OW15553   0.974   6.702   7.291
 4540SOL    HW115554   0.883   6.728   7.324
 4540SOL    HW215555   0.970   6.612   7.248
 4541SOL     OW15556   0.705   6.527   5.929
 4541SOL    HW115557   0.685   6.560   6.021
 4541SOL    HW215558   0.803   6.533   5.911
 4542SOL     OW15559   0.459   6.404   6.883
 4542SOL    HW115560   0.539   6.401   6.943
 4542SOL    HW215561   0.426   6.311   6.866
 4543SOL     OW15562   0.110   7.113   6.928
 4543SOL    HW115563   0.066   7.203   6.925
 4543SOL    HW215564   0.209   7.124   6.919
 4544SOL     OW15565   0.288   6.550   5.992
 4544SOL    HW115566   0.354   6.608   6.040
 4544SOL    HW215567   0.305   6.454   6.018
 4545SOL     OW15568   0.621   6.120   6.411
 4545SOL    HW115569   0.613   6.205   6.359
 4545SOL    HW215570   0.716   6.088   6.407
 4546SOL     OW15571   1.264   6.934   6.026
 4546SOL    HW115572   1.311   7.022   6.029
 4546SOL    HW215573   1.171   6.946   6.061
 4547SOL     OW15574   1.274   7.039   6.780
 4547SOL    HW115575   1.337   7.069   6.851
 4547SOL    HW215576   1.209   6.973   6.818
 4548SOL     OW15577   1.592   6.209   6.105
 4548SOL    HW115578   1.533   6.264   6.164
 4548SOL    HW215579   1.653   6.269   6.053
 4549SOL     OW15580   0.377   7.143   6.877
 4549SOL    HW115581   0.415   7.093   6.800
 4549SOL    HW215582   0.449   7.196   6.921
 4550SOL     OW15583   0.526   6.293   7.234
 4550SOL    HW115584   0.578   6.337   7.162
 4550SOL    HW215585   0.575   6.211   7.266
 4551SOL     OW15586   1.031   5.774   7.350
 4551SOL    HW115587   1.064   5.862   7.315
 4551SOL    HW215588   1.103   5.705   7.341
 4552SOL     OW15589   0.473   5.618   7.311
 4552SOL    HW115590   0.422   5.568   7.241
 4552SOL    HW215591   0.420   5.696   7.342
 4553SOL     OW15592   0.589   6.480   6.652
 4553SOL    HW115593   0.632   6.569   6.638
 4553SOL    HW215594   0.545   6.477   6.742
 4554SOL     OW15595   1.185   6.119   5.829
 4554SOL    HW115596   1.205   6.038   5.885
 4554SOL    HW215597   1.142   6.189   5.886
 4555SOL     OW15598   0.267   5.773   6.845
 4555SOL    HW115599   0.223   5.796   6.932
 4555SOL    HW215600   0.243   5.680   6.819
 4556SOL     OW15601   0.071   6.860   6.845
 4556SOL    HW115602   0.101   6.802   6.921
 4556SOL    HW215603   0.073   6.956   6.874
 4557SOL     OW15604   0.692   6.223   6.668
 4557SOL    HW115605   0.673   6.177   6.581
 4557SOL    HW215606   0.654   6.315   6.666
 4558SOL     OW15607   1.694   6.600   7.447
 4558SOL    HW115608   1.625   6.551   7.394
 4558SOL    HW215609   1.662   6.613   7.541
 4559SOL     OW15610   0.362   5.709   6.243
 4559SOL    HW115611   0.323   5.785   6.295
 4559SOL    HW215612   0.361   5.626   6.299
 4560SOL     OW15613   1.626   5.998   5.924
 4560SOL    HW115614   1.685   5.934   5.974
 4560SOL    HW215615   1.593   6.069   5.987
 4561SOL     OW15616   0.938   6.315   6.481
 4561SOL    HW115617   0.943   6.341   6.577
 4561SOL    HW215618   0.920   6.217   6.474
 4562SOL     OW15619   0.992   7.153   7.337
 4562SOL    HW115620   0.950   7.209   7.265
 4562SOL    HW215621   1.030   7.071   7.296
 4563SOL     OW15622   1.876   7.104   7.174
 4563SOL    HW115623   1.907   7.138   7.086
 4563SOL    HW215624   1.951   7.110   7.241
 4564SOL     OW15625   0.428   6.456   7.433
 4564SOL    HW115626   0.508   6.494   7.481
 4564SOL    HW215627   0.458   6.390   7.365
 4565SOL     OW15628   1.513   5.860   5.709
 4565SOL    HW115629   1.463   5.780   5.743
 4565SOL    HW215630   1.551   5.910   5.787
 4566SOL     OW15631   1.305   6.427   5.604
 4566SOL    HW115632   1.327   6.330   5.612
 4566SOL    HW215633   1.337   6.461   5.515
 4567SOL     OW15634   1.044   6.948   6.439
 4567SOL    HW115635   1.065   6.852   6.425
 4567SOL    HW215636   1.120   7.005   6.408
 4568SOL     OW15637   0.358   6.412   6.527
 4568SOL    HW115638   0.445   6.445   6.561
 4568SOL    HW215639   0.361   6.312   6.520
 4569SOL     OW15640   0.393   6.140   6.562
 4569SOL    HW115641   0.331   6.061   6.565
 4569SOL    HW215642   0.470   6.118   6.502
 4570SOL     OW15643   1.106   6.022   7.264
 4570SOL    HW115644   1.059   6.064   7.341
 4570SOL    HW215645   1.202   6.051   7.264
 4571SOL     OW15646   1.101   5.882   7.023
 4571SOL    HW115647   1.092   5.945   7.100
 4571SOL    HW215648   1.103   5.935   6.938
 4572SOL     OW15649   9.972   6.881   5.809
 4572SOL    HW115650   9.958   6.899   5.712
 4572SOL    HW215651   0.022   6.795   5.820
 4573SOL     OW15652   0.111   7.241   6.541
 4573SOL    HW115653   0.118   7.148   6.505
 4573SOL    HW215654   0.185   7.297   6.504
 4574SOL     OW15655   0.513   7.134   6.437
 4574SOL    HW115656   0.574   7.208   6.465
 4574SOL    HW215657   0.541   7.098   6.348
 4575SOL     OW15658   0.919   6.369   6.752
 4575SOL    HW115659   0.974   6.345   6.832
 4575SOL    HW215660   0.839   6.310   6.748
 4576SOL     OW15661   0.050   6.159   6.690
 4576SOL    HW115662   0.082   6.250   6.665
 4576SOL    HW215663   0.047   6.150   6.790
 4577SOL     OW15664   0.335   6.022   7.201
 4577SOL    HW115665   0.399   6.010   7.125
 4577SOL    HW215666   0.301   6.116   7.202
 4578SOL     OW15667   1.480   6.526   7.287
 4578SOL    HW115668   1.482   6.626   7.277
 4578SOL    HW215669   1.481   6.484   7.196
 4579SOL     OW15670   0.816   6.153   5.959
 4579SOL    HW115671   0.821   6.080   5.891
 4579SOL    HW215672   0.728   6.200   5.950
 4580SOL     OW15673   1.687   6.230   6.758
 4580SOL    HW115674   1.626   6.191   6.826
 4580SOL    HW215675   1.782   6.213   6.784
 4581SOL     OW15676   0.292   7.175   7.362
 4581SOL    HW115677   0.280   7.213   7.454
 4581SOL    HW215678   0.296   7.075   7.368
 4582SOL     OW15679   0.789   6.008   6.810
 4582SOL    HW115680   0.725   5.930   6.807
 4582SOL    HW215681   0.750   6.085   6.760
 4583SOL     OW15682   0.854   7.284   7.136
 4583SOL    HW115683   0.790   7.229   7.083
 4583SOL    HW215684   0.896   7.352   7.076
 4584SOL     OW15685   0.507   6.108   5.744
 4584SOL    HW115686   0.545   6.178   5.804
 4584SOL    HW215687   0.414   6.133   5.718
 4585SOL     OW15688   0.190   6.709   7.039
 4585SOL    HW115689   0.192   6.672   7.132
 4585SOL    HW215690   0.198   6.634   6.973
 4586SOL     OW15691   1.394   6.454   5.861
 4586SOL    HW115692   1.333   6.409   5.926
 4586SOL    HW215693   1.358   6.444   5.769
 4587SOL     OW15694   1.823   7.323   6.750
 4587SOL    HW115695   1.877   7.345   6.669
 4587SOL    HW215696   1.753   7.256   6.727
 4588SOL     OW15697   1.241   7.322   6.730
 4588SOL    HW115698   1.332   7.352   6.700
 4588SOL    HW215699   1.237   7.222   6.728
 4589SOL     OW15700   0.225   6.844   6.618
 4589SOL    HW115701   0.174   6.837   6.703
 4589SOL    HW215702   0.176   6.902   6.553
 4590SOL     OW15703   0.688   7.278   7.358
 4590SOL    HW115704   0.610   7.339   7.345
 4590SOL    HW215705   0.756   7.293   7.286
 4591SOL     OW15706   1.794   5.823   6.049
 4591SOL    HW115707   1.853   5.790   5.975
 4591SOL    HW215708   1.738   5.747   6.084
 4592SOL     OW15709   1.278   6.532   6.283
 4592SOL    HW115710   1.352   6.467   6.304
 4592SOL    HW215711   1.316   6.611   6.235
 4593SOL     OW15712   0.830   6.862   6.982
 4593SOL    HW115713   0.800   6.911   7.064
 4593SOL    HW215714   0.777   6.892   6.903
 4594SOL     OW15715   1.621   7.327   6.995
 4594SOL    HW115716   1.684   7.325   6.918
 4594SOL    HW215717   1.597   7.421   7.016
 4595SOL     OW15718   1.855   5.752   6.596
 4595SOL    HW115719   1.891   5.663   6.566
 4595SOL    HW215720   1.774   5.775   6.542
 4596SOL     OW15721   0.235   5.920   6.358
 4596SOL    HW115722   0.150   5.946   6.312
 4596SOL    HW215723   0.220   5.918   6.457
 4597SOL     OW15724   1.229   7.167   5.665
 4597SOL    HW115725   1.235   7.085   5.721
 4597SOL    HW215726   1.148   7.162   5.607
 4598SOL     OW15727   0.840   6.586   6.958
 4598SOL    HW115728   0.883   6.561   6.871
 4598SOL    HW215729   0.834   6.685   6.965
 4599SOL     OW15730   0.969   6.530   5.886
 4599SOL    HW115731   1.037   6.572   5.826
 4599SOL    HW215732   1.007   6.446   5.925
 4600SOL     OW15733   1.505   7.218   5.653
 4600SOL    HW115734   1.406   7.201   5.649
 4600SOL    HW215735   1.543   7.216   5.561
 4601SOL     OW15736   0.394   6.895   7.030
 4601SOL    HW115737   0.374   6.979   6.978
 4601SOL    HW215738   0.316   6.833   7.025
 4602SOL     OW15739   1.549   6.876   6.919
 4602SOL    HW115740   1.617   6.861   6.991
 4602SOL    HW215741   1.510   6.968   6.930
 4603SOL     OW15742   1.078   6.681   6.415
 4603SOL    HW115743   0.990   6.638   6.397
 4603SOL    HW215744   1.151   6.627   6.371
 4604SOL     OW15745   1.021   5.803   6.535
 4604SOL    HW115746   1.012   5.758   6.446
 4604SOL    HW215747   1.016   5.734   6.608
 4605SOL     OW15748   1.856   5.945   6.996
 4605SOL    HW115749   1.882   6.023   6.939
 4605SOL    HW215750   1.834   5.866   6.938
 4606SOL     OW15751   0.304   6.863   5.830
 4606SOL    HW115752   0.241   6.786   5.822
 4606SOL    HW215753   0.298   6.902   5.922
 4607SOL     OW15754   0.215   6.563   7.272
 4607SOL    HW115755   0.146   6.556   7.344
 4607SOL    HW215756   0.306   6.557   7.313
 4608SOL     OW15757   0.692   5.772   7.071
 4608SOL    HW115758   0.777   5.739   7.030
 4608SOL    HW215759   0.707   5.794   7.167
 4609SOL     OW15760   0.076   5.878   5.611
 4609SOL    HW115761   9.979   5.860   5.626
 4609SOL    HW215762   0.086   5.952   5.544
 4610SOL     OW15763   1.471   6.471   7.016
 4610SOL    HW115764   1.411   6.551   7.005
 4610SOL    HW215765   1.553   6.484   6.961
 4611SOL     OW15766   0.055   5.646   5.850
 4611SOL    HW115767   0.075   5.679   5.943
 4611SOL    HW215768   0.141   5.624   5.804
 4612SOL     OW15769   1.245   6.875   5.757
 4612SOL    HW115770   1.207   6.783   5.748
 4612SOL    HW215771   1.256   6.898   5.854
 4613SOL     OW15772   0.683   6.375   7.027
 4613SOL    HW115773   0.736   6.457   7.002
 4613SOL    HW215774   0.744   6.296   7.031
 4614SOL     OW15775   1.494   7.402   6.644
 4614SOL    HW115776   1.534   7.457   6.571
 4614SOL    HW215777   1.547   7.319   6.657
 4615SOL     OW15778   0.718   6.097   7.288
 4615SOL    HW115779   0.764   6.159   7.352
 4615SOL    HW215780   0.729   6.003   7.318
 4616SOL     OW15781   1.495   6.795   7.252
 4616SOL    HW115782   1.489   6.821   7.348
 4616SOL    HW215783   1.578   6.835   7.212
 4617SOL     OW15784   0.323   7.362   7.171
 4617SOL    HW115785   0.240   7.417   7.172
 4617SOL    HW215786   0.311   7.283   7.231
 4618SOL     OW15787   1.696   6.501   6.829
 4618SOL    HW115788   1.684   6.413   6.784
 4618SOL    HW215789   1.653   6.573   6.775
 4619SOL     OW15790   1.225   5.917   6.014
 4619SOL    HW115791   1.289   5.841   6.026
 4619SOL    HW215792   1.232   5.979   6.092
 4620SOL     OW15793   0.569   6.343   6.269
 4620SOL    HW115794   0.610   6.432   6.245
 4620SOL    HW215795   0.484   6.331   6.218
 4621SOL     OW15796   1.749   5.951   7.249
 4621SOL    HW115797   1.784   5.951   7.156
 4621SOL    HW215798   1.659   5.908   7.251
 4622SOL     OW15799   0.656   7.346   6.508
 4622SOL    HW115800   0.616   7.436   6.526
 4622SOL    HW215801   0.754   7.356   6.491
 4623SOL     OW15802   0.833   6.556   6.400
 4623SOL    HW115803   0.863   6.463   6.423
 4623SOL    HW215804   0.789   6.597   6.480
 4624SOL     OW15805   1.145   6.629   5.696
 4624SOL    HW115806   1.075   6.648   5.627
 4624SOL    HW215807   1.204   6.555   5.665
 4625SOL     OW15808   1.895   7.110   6.376
 4625SOL    HW115809   1.827   7.063   6.320
 4625SOL    HW215810   1.924   7.050   6.451
 4626SOL     OW15811   0.276   6.906   7.420
 4626SOL    HW115812   0.183   6.879   7.392
 4626SOL    HW215813   0.281   6.909   7.520
 4627SOL     OW15814   0.122   6.779   6.252
 4627SOL    HW115815   0.184   6.719   6.303
 4627SOL    HW215816   0.031   6.738   6.250
 4628SOL     OW15817   0.720   7.018   7.191
 4628SOL    HW115818   0.637   6.965   7.208
 4628SOL    HW215819   0.725   7.094   7.256
 4629SOL     OW15820   1.790   5.722   6.859
 4629SOL    HW115821   1.808   5.624   6.869
 4629SOL    HW215822   1.809   5.749   6.764
 4630SOL     OW15823   0.429   6.048   6.211
 4630SOL    HW115824   0.510   6.056   6.269
 4630SOL    HW215825   0.357   6.001   6.261
 4631SOL     OW15826   1.640   7.138   6.688
 4631SOL    HW115827   1.569   7.091   6.636
 4631SOL    HW215828   1.695   7.070   6.737
 4632SOL     OW15829   0.379   6.150   6.837
 4632SOL    HW115830   0.427   6.074   6.882
 4632SOL    HW215831   0.392   6.143   6.738
 4633SOL     OW15832   0.855   7.192   6.228
 4633SOL    HW115833   0.852   7.278   6.178
 4633SOL    HW215834   0.768   7.143   6.218
 4634SOL     OW15835   1.421   5.866   6.660
 4634SOL    HW115836   1.433   5.772   6.694
 4634SOL    HW215837   1.392   5.925   6.736
 4635SOL     OW15838   1.019   5.589   6.715
 4635SOL    HW115839   0.964   5.514   6.677
 4635SOL    HW215840   1.116   5.562   6.715
 4636SOL     OW15841   1.393   5.617   5.783
 4636SOL    HW115842   1.450   5.550   5.736
 4636SOL    HW215843   1.301   5.579   5.795
 4637SOL     OW15844   1.237   6.080   6.227
 4637SOL    HW115845   1.192   6.168   6.240
 4637SOL    HW215846   1.246   6.033   6.315
 4638SOL     OW15847   1.618   5.810   6.476
 4638SOL    HW115848   1.545   5.843   6.536
 4638SOL    HW215849   1.632   5.876   6.402
 4639SOL     OW15850   0.199   5.862   8.390
 4639SOL    HW115851   0.224   5.803   8.467
 4639SOL    HW215852   0.111   5.833   8.354
 4640SOL     OW15853   0.589   6.915   8.664
 4640SOL    HW115854   0.514   6.906   8.599
 4640SOL    HW215855   0.602   7.011   8.687
 4641SOL     OW15856   1.640   7.074   8.175
 4641SOL    HW115857   1.581   7.035   8.246
 4641SOL    HW215858   1.583   7.126   8.110
 4642SOL     OW15859   1.175   6.352   8.298
 4642SOL    HW115860   1.165   6.418   8.223
 4642SOL    HW215861   1.084   6.329   8.334
 4643SOL     OW15862   1.804   6.158   7.642
 4643SOL    HW115863   1.783   6.176   7.546
 4643SOL    HW215864   1.742   6.088   7.677
 4644SOL     OW15865   0.792   6.726   8.543
 4644SOL    HW115866   0.693   6.734   8.540
 4644SOL    HW215867   0.833   6.817   8.532
 4645SOL     OW15868   0.960   6.309   9.221
 4645SOL    HW115869   0.974   6.374   9.295
 4645SOL    HW215870   0.957   6.358   9.134
 4646SOL     OW15871   0.753   6.747   9.284
 4646SOL    HW115872   0.816   6.812   9.327
 4646SOL    HW215873   0.676   6.797   9.243
 4647SOL     OW15874   0.361   6.997   8.499
 4647SOL    HW115875   0.282   6.965   8.446
 4647SOL    HW215876   0.417   7.057   8.442
 4648SOL     OW15877   1.447   7.082   8.834
 4648SOL    HW115878   1.501   7.165   8.845
 4648SOL    HW215879   1.368   7.084   8.896
 4649SOL     OW15880   0.499   5.963   8.821
 4649SOL    HW115881   0.571   5.894   8.825
 4649SOL    HW215882   0.410   5.919   8.834
 4650SOL     OW15883   1.598   6.024   8.174
 4650SOL    HW115884   1.521   6.026   8.111
 4650SOL    HW215885   1.584   6.093   8.246
 4651SOL     OW15886   0.195   7.301   7.772
 4651SOL    HW115887   0.164   7.348   7.854
 4651SOL    HW215888   0.295   7.302   7.769
 4652SOL     OW15889   1.144   6.908   9.167
 4652SOL    HW115890   1.187   6.901   9.257
 4652SOL    HW215891   1.093   6.824   9.148
 4653SOL     OW15892   0.243   6.975   7.951
 4653SOL    HW115893   0.146   6.996   7.942
 4653SOL    HW215894   0.257   6.912   8.028
 4654SOL     OW15895   0.263   6.657   8.376
 4654SOL    HW115896   0.253   6.558   8.366
 4654SOL    HW215897   0.203   6.689   8.449
 4655SOL     OW15898   0.585   7.434   8.831
 4655SOL    HW115899   0.502   7.406   8.880
 4655SOL    HW215900   0.636   7.499   8.887
 4656SOL     OW15901   0.674   6.542   7.530
 4656SOL    HW115902   0.694   6.618   7.468
 4656SOL    HW215903   0.694   6.569   7.624
 4657SOL     OW15904   1.641   5.707   8.952
 4657SOL    HW115905   1.691   5.782   8.909
 4657SOL    HW215906   1.594   5.741   9.034
 4658SOL     OW15907   0.170   6.183   8.085
 4658SOL    HW115908   0.140   6.162   7.992
 4658SOL    HW215909   0.091   6.216   8.138
 4659SOL     OW15910   1.875   7.343   7.753
 4659SOL    HW115911   1.951   7.326   7.816
 4659SOL    HW215912   1.874   7.440   7.728
 4660SOL     OW15913   1.701   6.507   8.125
 4660SOL    HW115914   1.791   6.466   8.136
 4660SOL    HW215915   1.701   6.564   8.043
 4661SOL     OW15916   1.715   6.681   7.908
 4661SOL    HW115917   1.791   6.650   7.851
 4661SOL    HW215918   1.744   6.759   7.964
 4662SOL     OW15919   0.217   6.381   9.081
 4662SOL    HW115920   0.317   6.384   9.086
 4662SOL    HW215921   0.179   6.458   9.133
 4663SOL     OW15922   1.260   6.777   8.890
 4663SOL    HW115923   1.284   6.713   8.817
 4663SOL    HW215924   1.331   6.777   8.960
 4664SOL     OW15925   0.830   5.618   7.947
 4664SOL    HW115926   0.883   5.695   7.912
 4664SOL    HW215927   0.733   5.642   7.948
 4665SOL     OW15928   0.166   6.565   8.794
 4665SOL    HW115929   0.253   6.516   8.781
 4665SOL    HW215930   0.139   6.609   8.708
 4666SOL     OW15931   1.551   6.652   7.690
 4666SOL    HW115932   1.471   6.597   7.713
 4666SOL    HW215933   1.608   6.664   7.771
 4667SOL     OW15934   1.169   7.376   9.073
 4667SOL    HW115935   1.195   7.446   9.006
 4667SOL    HW215936   1.190   7.285   9.036
 4668SOL     OW15937   0.391   5.819   9.300
 4668SOL    HW115938   0.465   5.873   9.339
 4668SOL    HW215939   0.306   5.872   9.301
 4669SOL     OW15940   1.493   6.971   8.381
 4669SOL    HW115941   1.427   7.008   8.447
 4669SOL    HW215942   1.471   6.875   8.364
 4670SOL     OW15943   1.646   7.470   7.975
 4670SOL    HW115944   1.640   7.404   7.900
 4670SOL    HW215945   1.649   7.420   8.062
 4671SOL     OW15946   0.535   6.280   7.768
 4671SOL    HW115947   0.570   6.370   7.742
 4671SOL    HW215948   0.488   6.287   7.856
 4672SOL     OW15949   1.304   5.979   8.376
 4672SOL    HW115950   1.212   5.940   8.371
 4672SOL    HW215951   1.355   5.932   8.448
 4673SOL     OW15952   1.609   7.286   7.770
 4673SOL    HW115953   1.709   7.292   7.762
 4673SOL    HW215954   1.568   7.271   7.680
 4674SOL     OW15955   0.696   6.159   8.854
 4674SOL    HW115956   0.757   6.131   8.928
 4674SOL    HW215957   0.624   6.090   8.841
 4675SOL     OW15958   1.403   6.068   9.135
 4675SOL    HW115959   1.409   6.123   9.219
 4675SOL    HW215960   1.463   5.989   9.143
 4676SOL     OW15961   0.963   6.463   8.986
 4676SOL    HW115962   1.004   6.381   8.944
 4676SOL    HW215963   0.917   6.516   8.915
 4677SOL     OW15964   1.057   5.974   8.612
 4677SOL    HW115965   0.994   6.050   8.624
 4677SOL    HW215966   1.038   5.928   8.525
 4678SOL     OW15967   9.995   6.463   8.338
 4678SOL    HW115968   0.082   6.435   8.379
 4678SOL    HW215969   9.931   6.490   8.410
 4679SOL     OW15970   0.100   7.399   8.903
 4679SOL    HW115971   0.094   7.392   9.003
 4679SOL    HW215972   0.075   7.311   8.862
 4680SOL     OW15973   0.953   5.867   7.602
 4680SOL    HW115974   0.954   5.962   7.571
 4680SOL    HW215975   0.982   5.807   7.527
 4681SOL     OW15976   1.696   6.171   9.302
 4681SOL    HW115977   1.675   6.253   9.249
 4681SOL    HW215978   1.724   6.097   9.240
 4682SOL     OW15979   1.440   6.754   8.069
 4682SOL    HW115980   1.524   6.764   8.015
 4682SOL    HW215981   1.373   6.823   8.041
 4683SOL     OW15982   0.485   5.729   8.418
 4683SOL    HW115983   0.420   5.727   8.494
 4683SOL    HW215984   0.514   5.823   8.401
 4684SOL     OW15985   0.275   7.328   8.388
 4684SOL    HW115986   0.353   7.269   8.367
 4684SOL    HW215987   0.274   7.404   8.323
 4685SOL     OW15988   1.796   6.622   8.368
 4685SOL    HW115989   1.743   6.609   8.284
 4685SOL    HW215990   1.735   6.636   8.445
 4686SOL     OW15991   1.209   7.098   8.975
 4686SOL    HW115992   1.207   7.034   9.052
 4686SOL    HW215993   1.148   7.066   8.903
 4687SOL     OW15994   1.480   6.346   8.136
 4687SOL    HW115995   1.478   6.295   8.221
 4687SOL    HW215996   1.559   6.407   8.135
 4688SOL     OW15997   0.494   6.871   9.201
 4688SOL    HW115998   0.434   6.906   9.130
 4688SOL    HW215999   0.467   6.779   9.226
 4689SOL     OW16000   1.150   7.347   7.659
 4689SOL    HW116001   1.060   7.320   7.693
 4689SOL    HW216002   1.182   7.280   7.592
 4690SOL     OW16003   0.251   5.837   8.853
 4690SOL    HW116004   0.161   5.880   8.840
 4690SOL    HW216005   0.253   5.789   8.940
 4691SOL     OW16006   1.680   7.019   7.545
 4691SOL    HW116007   1.631   7.106   7.537
 4691SOL    HW216008   1.615   6.944   7.534
 4692SOL     OW16009   0.467   7.362   7.745
 4692SOL    HW116010   0.521   7.426   7.799
 4692SOL    HW216011   0.527   7.300   7.696
 4693SOL     OW16012   1.433   5.708   7.884
 4693SOL    HW116013   1.414   5.678   7.790
 4693SOL    HW216014   1.530   5.731   7.892
 4694SOL     OW16015   0.305   7.367   8.655
 4694SOL    HW116016   0.333   7.279   8.693
 4694SOL    HW216017   0.295   7.359   8.556
 4695SOL     OW16018   0.937   7.309   8.343
 4695SOL    HW116019   1.023   7.258   8.335
 4695SOL    HW216020   0.880   7.291   8.263
 4696SOL     OW16021   0.424   6.272   8.015
 4696SOL    HW116022   0.483   6.208   8.065
 4696SOL    HW216023   0.329   6.260   8.044
 4697SOL     OW16024   1.521   5.818   9.181
 4697SOL    HW116025   1.537   5.834   9.278
 4697SOL    HW216026   1.441   5.759   9.170
 4698SOL     OW16027   0.638   5.662   7.521
 4698SOL    HW116028   0.672   5.576   7.559
 4698SOL    HW216029   0.575   5.643   7.446
 4699SOL     OW16030   0.823   5.837   9.142
 4699SOL    HW116031   0.903   5.777   9.148
 4699SOL    HW216032   0.761   5.817   9.218
 4700SOL     OW16033   0.883   7.117   8.720
 4700SOL    HW116034   0.874   7.090   8.624
 4700SOL    HW216035   0.944   7.054   8.767
 4701SOL     OW16036   1.311   6.165   8.899
 4701SOL    HW116037   1.351   6.137   8.987
 4701SOL    HW216038   1.339   6.259   8.879
 4702SOL     OW16039   0.863   6.992   8.473
 4702SOL    HW116040   0.942   6.977   8.413
 4702SOL    HW216041   0.785   7.024   8.420
 4703SOL     OW16042   0.955   6.057   8.267
 4703SOL    HW116043   0.929   6.048   8.170
 4703SOL    HW216044   0.985   5.968   8.301
 4704SOL     OW16045   0.561   5.673   7.920
 4704SOL    HW116046   0.478   5.679   7.976
 4704SOL    HW216047   0.560   5.745   7.851
 4705SOL     OW16048   1.470   6.845   7.518
 4705SOL    HW116049   1.497   6.773   7.581
 4705SOL    HW216050   1.376   6.873   7.537
 4706SOL     OW16051   0.293   5.640   7.618
 4706SOL    HW116052   0.332   5.713   7.562
 4706SOL    HW216053   0.367   5.589   7.662
 4707SOL     OW16054   0.993   5.818   7.863
 4707SOL    HW116055   0.972   5.831   7.766
 4707SOL    HW216056   1.089   5.839   7.880
 4708SOL     OW16057   1.046   6.222   8.893
 4708SOL    HW116058   0.992   6.160   8.951
 4708SOL    HW216059   1.142   6.194   8.896
 4709SOL     OW16060   1.183   7.202   8.283
 4709SOL    HW116061   1.218   7.247   8.200
 4709SOL    HW216062   1.229   7.239   8.363
 4710SOL     OW16063   0.533   6.708   8.371
 4710SOL    HW116064   0.433   6.706   8.377
 4710SOL    HW216065   0.560   6.716   8.276
 4711SOL     OW16066   1.254   7.384   8.074
 4711SOL    HW116067   1.301   7.444   8.009
 4711SOL    HW216068   1.176   7.433   8.114
 4712SOL     OW16069   0.997   6.123   7.497
 4712SOL    HW116070   0.944   6.206   7.481
 4712SOL    HW216071   1.057   6.136   7.576
 4713SOL     OW16072   0.147   6.230   8.851
 4713SOL    HW116073   0.234   6.209   8.805
 4713SOL    HW216074   0.163   6.295   8.924
 4714SOL     OW16075   0.897   6.037   7.994
 4714SOL    HW116076   0.805   6.048   7.957
 4714SOL    HW216077   0.938   5.954   7.957
 4715SOL     OW16078   1.048   5.647   8.151
 4715SOL    HW116079   0.980   5.656   8.078
 4715SOL    HW216080   1.019   5.577   8.216
 4716SOL     OW16081   1.452   6.705   8.341
 4716SOL    HW116082   1.411   6.617   8.366
 4716SOL    HW216083   1.450   6.716   8.242
 4717SOL     OW16084   1.490   6.196   8.369
 4717SOL    HW116085   1.412   6.136   8.381
 4717SOL    HW216086   1.547   6.194   8.451
 4718SOL     OW16087   1.805   6.349   7.831
 4718SOL    HW116088   1.868   6.317   7.902
 4718SOL    HW216089   1.805   6.283   7.755
 4719SOL     OW16090   0.548   6.945   7.658
 4719SOL    HW116091   0.448   6.936   7.664
 4719SOL    HW216092   0.582   6.887   7.584
 4720SOL     OW16093   1.798   6.878   8.062
 4720SOL    HW116094   1.895   6.882   8.086
 4720SOL    HW216095   1.750   6.955   8.104
 4721SOL     OW16096   1.368   6.172   7.546
 4721SOL    HW116097   1.293   6.150   7.608
 4721SOL    HW216098   1.454   6.142   7.586
 4722SOL     OW16099   0.575   5.845   7.710
 4722SOL    HW116100   0.608   5.782   7.640
 4722SOL    HW216101   0.527   5.921   7.666
 4723SOL     OW16102   1.742   6.801   8.989
 4723SOL    HW116103   1.833   6.763   8.981
 4723SOL    HW216104   1.749   6.897   9.019
 4724SOL     OW16105   1.040   6.920   8.822
 4724SOL    HW116106   0.953   6.882   8.854
 4724SOL    HW216107   1.115   6.864   8.857
 4725SOL     OW16108   1.602   7.221   9.116
 4725SOL    HW116109   1.584   7.265   9.028
 4725SOL    HW216110   1.676   7.155   9.107
 4726SOL     OW16111   1.159   6.846   8.575
 4726SOL    HW116112   1.096   6.873   8.648
 4726SOL    HW216113   1.121   6.871   8.486
 4727SOL     OW16114   1.612   6.672   8.563
 4727SOL    HW116115   1.607   6.743   8.634
 4727SOL    HW216116   1.546   6.691   8.491
 4728SOL     OW16117   1.053   5.560   8.844
 4728SOL    HW116118   1.056   5.575   8.745
 4728SOL    HW216119   1.110   5.628   8.890
 4729SOL     OW16120   0.991   6.674   9.163
 4729SOL    HW116121   0.898   6.696   9.191
 4729SOL    HW216122   0.989   6.601   9.094
 4730SOL     OW16123   0.737   6.654   7.768
 4730SOL    HW116124   0.712   6.734   7.822
 4730SOL    HW216125   0.837   6.647   7.763
 4731SOL     OW16126   0.405   6.440   8.744
 4731SOL    HW116127   0.486   6.449   8.802
 4731SOL    HW216128   0.388   6.343   8.725
 4732SOL     OW16129   1.276   5.932   8.762
 4732SOL    HW116130   1.295   6.018   8.810
 4732SOL    HW216131   1.193   5.942   8.708
 4733SOL     OW16132   0.083   7.151   8.756
 4733SOL    HW116133   0.060   7.167   8.660
 4733SOL    HW216134   0.182   7.138   8.765
 4734SOL     OW16135   0.556   6.709   8.083
 4734SOL    HW116136   0.589   6.773   8.013
 4734SOL    HW216137   0.596   6.618   8.067
 4735SOL     OW16138   0.550   6.000   8.377
 4735SOL    HW116139   0.559   6.008   8.278
 4735SOL    HW216140   0.598   6.076   8.421
 4736SOL     OW16141   1.337   7.052   8.589
 4736SOL    HW116142   1.379   7.061   8.679
 4736SOL    HW216143   1.274   6.974   8.589
 4737SOL     OW16144   1.566   6.219   7.901
 4737SOL    HW116145   1.522   6.256   7.983
 4737SOL    HW216146   1.644   6.277   7.876
 4738SOL     OW16147   0.356   7.103   8.749
 4738SOL    HW116148   0.349   7.055   8.662
 4738SOL    HW216149   0.451   7.129   8.765
 4739SOL     OW16150   0.489   6.394   9.111
 4739SOL    HW116151   0.543   6.412   9.029
 4739SOL    HW216152   0.530   6.318   9.161
 4740SOL     OW16153   1.632   6.396   9.167
 4740SOL    HW116154   1.535   6.420   9.166
 4740SOL    HW216155   1.676   6.432   9.085
 4741SOL     OW16156   1.036   5.678   9.194
 4741SOL    HW116157   1.098   5.756   9.204
 4741SOL    HW216158   1.090   5.596   9.175
 4742SOL     OW16159   0.522   5.604   9.178
 4742SOL    HW116160   0.472   5.552   9.108
 4742SOL    HW216161   0.468   5.684   9.205
 4743SOL     OW16162   0.508   6.463   8.489
 4743SOL    HW116163   0.531   6.552   8.450
 4743SOL    HW216164   0.476   6.475   8.583
 4744SOL     OW16165   1.370   6.462   8.443
 4744SOL    HW116166   1.291   6.424   8.394
 4744SOL    HW216167   1.442   6.392   8.449
 4745SOL     OW16168   1.167   6.119   7.723
 4745SOL    HW116169   1.198   6.037   7.770
 4745SOL    HW216170   1.115   6.176   7.787
 4746SOL     OW16171   0.283   5.715   8.604
 4746SOL    HW116172   0.279   5.758   8.694
 4746SOL    HW216173   0.236   5.626   8.607
 4747SOL     OW16174   0.018   6.885   8.785
 4747SOL    HW116175   0.052   6.846   8.871
 4747SOL    HW216176   0.033   6.984   8.785
 4748SOL     OW16177   0.652   6.235   8.458
 4748SOL    HW116178   0.746   6.257   8.433
 4748SOL    HW216179   0.599   6.319   8.468
 4749SOL     OW16180   1.776   6.553   9.343
 4749SOL    HW116181   1.736   6.487   9.280
 4749SOL    HW216182   1.706   6.587   9.406
 4750SOL     OW16183   0.320   5.684   8.058
 4750SOL    HW116184   0.306   5.779   8.088
 4750SOL    HW216185   0.324   5.625   8.139
 4751SOL     OW16186   1.606   5.994   7.749
 4751SOL    HW116187   1.637   5.917   7.804
 4751SOL    HW216188   1.581   6.070   7.809
 4752SOL     OW16189   0.927   6.281   8.411
 4752SOL    HW116190   0.927   6.256   8.508
 4752SOL    HW216191   0.935   6.198   8.356
 4753SOL     OW16192   0.994   7.140   9.217
 4753SOL    HW116193   0.964   7.200   9.142
 4753SOL    HW216194   1.031   7.055   9.179
 4754SOL     OW16195   1.811   7.061   9.031
 4754SOL    HW116196   1.835   7.088   8.937
 4754SOL    HW216197   1.889   7.079   9.091
 4755SOL     OW16198   0.437   6.612   9.267
 4755SOL    HW116199   0.490   6.602   9.351
 4755SOL    HW216200   0.458   6.537   9.205
 4756SOL     OW16201   1.499   5.860   7.528
 4756SOL    HW116202   1.450   5.782   7.566
 4756SOL    HW216203   1.543   5.912   7.602
 4757SOL     OW16204   1.312   6.433   7.480
 4757SOL    HW116205   1.328   6.335   7.495
 4757SOL    HW216206   1.374   6.465   7.408
 4758SOL     OW16207   1.081   6.939   8.323
 4758SOL    HW116208   1.089   6.870   8.250
 4758SOL    HW216209   1.129   7.022   8.294
 4759SOL     OW16210   0.263   6.380   8.399
 4759SOL    HW116211   0.355   6.407   8.427
 4759SOL    HW216212   0.257   6.281   8.393
 4760SOL     OW16213   0.301   6.103   8.449
 4760SOL    HW116214   0.247   6.021   8.431
 4760SOL    HW216215   0.395   6.088   8.420
 4761SOL     OW16216   1.182   5.912   9.173
 4761SOL    HW116217   1.125   5.961   9.239
 4761SOL    HW216218   1.261   5.968   9.149
 4762SOL     OW16219   1.229   5.741   8.955
 4762SOL    HW116220   1.199   5.799   9.032
 4762SOL    HW216221   1.255   5.800   8.878
 4763SOL     OW16222   0.017   6.831   7.665
 4763SOL    HW116223   9.997   6.844   7.568
 4763SOL    HW216224   0.006   6.735   7.689
 4764SOL     OW16225   0.066   7.167   8.473
 4764SOL    HW116226   0.091   7.085   8.421
 4764SOL    HW216227   0.128   7.241   8.450
 4765SOL     OW16228   0.501   7.176   8.346
 4765SOL    HW116229   0.562   7.245   8.385
 4765SOL    HW216230   0.521   7.166   8.248
 4766SOL     OW16231   0.902   6.197   8.666
 4766SOL    HW116232   0.965   6.217   8.742
 4766SOL    HW216233   0.810   6.183   8.702
 4767SOL     OW16234   0.057   6.182   8.593
 4767SOL    HW116235   0.143   6.160   8.548
 4767SOL    HW216236   0.074   6.204   8.689
 4768SOL     OW16237   0.121   6.126   9.118
 4768SOL    HW116238   0.094   6.111   9.023
 4768SOL    HW216239   0.155   6.219   9.128
 4769SOL     OW16240   1.384   6.503   9.108
 4769SOL    HW116241   1.409   6.600   9.102
 4769SOL    HW216242   1.366   6.467   9.016
 4770SOL     OW16243   0.662   6.052   7.864
 4770SOL    HW116244   0.643   5.973   7.806
 4770SOL    HW216245   0.626   6.135   7.821
 4771SOL     OW16246   1.644   6.196   8.592
 4771SOL    HW116247   1.622   6.123   8.656
 4771SOL    HW216248   1.742   6.198   8.575
 4772SOL     OW16249   0.879   7.281   8.963
 4772SOL    HW116250   0.874   7.220   8.885
 4772SOL    HW216251   0.911   7.371   8.933
 4773SOL     OW16252   0.456   6.065   7.615
 4773SOL    HW116253   0.478   6.152   7.659
 4773SOL    HW216254   0.358   6.047   7.623
 4774SOL     OW16255   0.144   6.748   8.995
 4774SOL    HW116256   0.142   6.707   9.086
 4774SOL    HW216257   0.161   6.677   8.927
 4775SOL     OW16258   1.283   6.615   8.659
 4775SOL    HW116259   1.315   6.559   8.583
 4775SOL    HW216260   1.236   6.696   8.624
 4776SOL     OW16261   1.331   6.501   7.744
 4776SOL    HW116262   1.320   6.422   7.804
 4776SOL    HW216263   1.317   6.474   7.649
 4777SOL     OW16264   1.745   7.282   8.609
 4777SOL    HW116265   1.820   7.317   8.553
 4777SOL    HW216266   1.723   7.189   8.582
 4778SOL     OW16267   1.288   7.310   8.513
 4778SOL    HW116268   1.373   7.362   8.517
 4778SOL    HW216269   1.304   7.218   8.549
 4779SOL     OW16270   0.092   6.722   8.577
 4779SOL    HW116271   0.082   6.791   8.649
 4779SOL    HW216272   0.005   6.710   8.529
 4780SOL     OW16273   0.691   7.278   9.162
 4780SOL    HW116274   0.626   7.354   9.159
 4780SOL    HW216275   0.761   7.291   9.092
 4781SOL     OW16276   1.711   5.762   7.879
 4781SOL    HW116277   1.777   5.767   7.803
 4781SOL    HW216278   1.723   5.675   7.927
 4782SOL     OW16279   1.481   7.219   8.012
 4782SOL    HW116280   1.510   7.234   7.917
 4782SOL    HW216281   1.394   7.267   8.027
 4783SOL     OW16282   0.112   7.399   9.173
 4783SOL    HW116283   0.077   7.305   9.179
 4783SOL    HW216284   0.162   7.421   9.257
 4784SOL     OW16285   1.282   6.537   8.106
 4784SOL    HW116286   1.340   6.456   8.114
 4784SOL    HW216287   1.339   6.616   8.080
 4785SOL     OW16288   0.773   6.859   8.873
 4785SOL    HW116289   0.748   6.915   8.952
 4785SOL    HW216290   0.706   6.873   8.800
 4786SOL     OW16291   0.658   7.204   7.622
 4786SOL    HW116292   0.674   7.223   7.525
 4786SOL    HW216293   0.628   7.109   7.632
 4787SOL     OW16294   1.598   7.310   8.846
 4787SOL    HW116295   1.651   7.296   8.763
 4787SOL    HW216296   1.597   7.408   8.869
 4788SOL     OW16297   1.848   5.755   8.415
 4788SOL    HW116298   1.873   5.660   8.394
 4788SOL    HW216299   1.757   5.775   8.378
 4789SOL     OW16300   0.298   5.942   8.149
 4789SOL    HW116301   0.245   6.022   8.122
 4789SOL    HW216302   0.269   5.910   8.239
 4790SOL     OW16303   1.243   7.173   7.470
 4790SOL    HW116304   1.240   7.077   7.498
 4790SOL    HW216305   1.166   7.193   7.410
 4791SOL     OW16306   0.823   6.605   8.798
 4791SOL    HW116307   0.829   6.619   8.699
 4791SOL    HW216308   0.804   6.692   8.843
 4792SOL     OW16309   1.010   6.638   7.735
 4792SOL    HW116310   1.051   6.642   7.644
 4792SOL    HW216311   1.077   6.607   7.802
 4793SOL     OW16312   1.510   7.251   7.505
 4793SOL    HW116313   1.415   7.222   7.488
 4793SOL    HW216314   1.559   7.257   7.418
 4794SOL     OW16315   0.333   6.952   8.996
 4794SOL    HW116316   0.344   6.991   8.905
 4794SOL    HW216317   0.263   6.880   8.992
 4795SOL     OW16318   1.604   6.869   8.757
 4795SOL    HW116319   1.658   6.839   8.835
 4795SOL    HW216320   1.539   6.939   8.786
 4796SOL     OW16321   1.077   6.724   8.114
 4796SOL    HW116322   0.990   6.676   8.105
 4796SOL    HW216323   1.151   6.657   8.121
 4797SOL     OW16324   1.069   5.818   8.370
 4797SOL    HW116325   1.067   5.768   8.283
 4797SOL    HW216326   1.072   5.753   8.446
 4798SOL     OW16327   1.803   5.924   8.866
 4798SOL    HW116328   1.867   6.000   8.854
 4798SOL    HW216329   1.821   5.854   8.796
 4799SOL     OW16330   0.274   6.920   7.691
 4799SOL    HW116331   0.182   6.883   7.676
 4799SOL    HW216332   0.283   6.950   7.786
 4800SOL     OW16333   0.166   6.607   9.238
 4800SOL    HW116334   0.123   6.588   9.326
 4800SOL    HW216335   0.264   6.619   9.251
 4801SOL     OW16336   0.056   5.905   7.417
 4801SOL    HW116337   9.997   5.838   7.463
 4801SOL    HW216338   0.013   5.995   7.419
 4802SOL     OW16339   1.376   6.427   8.843
 4802SOL    HW116340   1.317   6.487   8.788
 4802SOL    HW216341   1.468   6.427   8.805
 4803SOL     OW16342   0.097   5.786   7.772
 4803SOL    HW116343   0.073   5.814   7.864
 4803SOL    HW216344   0.161   5.709   7.776
 4804SOL     OW16345   1.198   6.911   7.539
 4804SOL    HW116346   1.180   6.813   7.530
 4804SOL    HW216347   1.137   6.951   7.607
 4805SOL     OW16348   0.635   6.423   8.885
 4805SOL    HW116349   0.706   6.487   8.855
 4805SOL    HW216350   0.665   6.329   8.867
 4806SOL     OW16351   1.528   7.443   8.520
 4806SOL    HW116352   1.561   7.500   8.444
 4806SOL    HW216353   1.604   7.389   8.556
 4807SOL     OW16354   0.867   6.093   9.059
 4807SOL    HW116355   0.888   6.153   9.136
 4807SOL    HW216356   0.853   6.000   9.092
 4808SOL     OW16357   1.471   6.760   9.085
 4808SOL    HW116358   1.459   6.785   9.180
 4808SOL    HW216359   1.565   6.781   9.057
 4809SOL     OW16360   0.366   7.339   8.966
 4809SOL    HW116361   0.279   7.372   8.930
 4809SOL    HW216362   0.358   7.242   8.987
 4810SOL     OW16363   1.617   6.444   8.715
 4810SOL    HW116364   1.631   6.360   8.664
 4810SOL    HW216365   1.616   6.522   8.653
 4811SOL     OW16366   1.248   5.913   7.898
 4811SOL    HW116367   1.315   5.839   7.891
 4811SOL    HW216368   1.269   5.970   7.977
 4812SOL     OW16369   1.757   5.961   9.132
 4812SOL    HW116370   1.773   5.954   9.033
 4812SOL    HW216371   1.681   5.901   9.158
 4813SOL     OW16372   1.731   6.518   8.949
 4813SOL    HW116373   1.718   6.616   8.962
 4813SOL    HW216374   1.691   6.489   8.862
 4814SOL     OW16375   0.856   6.984   7.508
 4814SOL    HW116376   0.908   6.982   7.593
 4814SOL    HW216377   0.894   7.054   7.447
 4815SOL     OW16378   0.671   7.372   8.412
 4815SOL    HW116379   0.650   7.468   8.393
 4815SOL    HW216380   0.769   7.357   8.406
 4816SOL     OW16381   0.856   6.544   8.349
 4816SOL    HW116382   0.879   6.455   8.389
 4816SOL    HW216383   0.834   6.609   8.421
 4817SOL     OW16384   1.144   6.651   7.497
 4817SOL    HW116385   1.083   6.660   7.418
 4817SOL    HW216386   1.200   6.569   7.487
 4818SOL     OW16387   1.846   7.135   8.342
 4818SOL    HW116388   1.782   7.124   8.266
 4818SOL    HW216389   1.819   7.076   8.418
 4819SOL     OW16390   0.305   6.802   8.153
 4819SOL    HW116391   0.275   6.740   8.226
 4819SOL    HW216392   0.393   6.771   8.117
 4820SOL     OW16393   0.695   7.012   9.082
 4820SOL    HW116394   0.619   6.966   9.127
 4820SOL    HW216395   0.699   7.107   9.112
 4821SOL     OW16396   1.832   5.727   8.686
 4821SOL    HW116397   1.820   5.628   8.692
 4821SOL    HW216398   1.842   5.754   8.590
 4822SOL     OW16399   0.548   6.040   8.110
 4822SOL    HW116400   0.590   6.032   8.020
 4822SOL    HW216401   0.459   5.993   8.110
 4823SOL     OW16402   1.700   7.023   8.546
 4823SOL    HW116403   1.627   7.004   8.480
 4823SOL    HW216404   1.689   6.963   8.626
 4824SOL     OW16405   0.370   6.174   8.705
 4824SOL    HW116406   0.427   6.103   8.746
 4824SOL    HW216407   0.353   6.151   8.609
 4825SOL     OW16408   0.806   7.288   8.115
 4825SOL    HW116409   0.827   7.351   8.040
 4825SOL    HW216410   0.712   7.255   8.106
 4826SOL     OW16411   1.440   5.840   8.566
 4826SOL    HW116412   1.459   5.743   8.576
 4826SOL    HW216413   1.387   5.872   8.644
 4827SOL     OW16414   1.073   5.612   8.556
 4827SOL    HW116415   0.983   5.571   8.547
 4827SOL    HW216416   1.142   5.547   8.523
 4828SOL     OW16417   0.620   7.178   8.745
 4828SOL    HW116418   0.608   7.275   8.767
 4828SOL    HW216419   0.717   7.157   8.740
 4829SOL     OW16420   1.379   5.637   7.627
 4829SOL    HW116421   1.426   5.564   7.578
 4829SOL    HW216422   1.282   5.614   7.635
 4830SOL     OW16423   1.314   6.064   8.116
 4830SOL    HW116424   1.281   6.158   8.115
 4830SOL    HW216425   1.308   6.027   8.208
 4831SOL     OW16426   1.595   5.803   8.341
 4831SOL    HW116427   1.538   5.833   8.417
 4831SOL    HW216428   1.594   5.873   8.269
 4832SOL     OW16429   0.043   6.557   7.722
 4832SOL    HW116430   0.091   6.515   7.645
 4832SOL    HW216431   0.103   6.558   7.802
 4833SOL     OW16432   0.900   7.250   7.755
 4833SOL    HW116433   0.813   7.236   7.708
 4833SOL    HW216434   0.892   7.326   7.819
 4834SOL     OW16435   1.829   6.159   9.536
 4834SOL    HW116436   1.785   6.174   9.447
 4834SOL    HW216437   1.767   6.108   9.595
 4835SOL     OW16438   0.028   7.195   9.876
 4835SOL    HW116439   0.042   7.291   9.852
 4835SOL    HW216440   9.964   7.153   9.813
 4836SOL     OW16441   0.227   7.006   9.849
 4836SOL    HW116442   0.160   7.079   9.864
 4836SOL    HW216443   0.184   6.918   9.869
 4837SOL     OW16444   0.621   6.584   9.469
 4837SOL    HW116445   0.679   6.630   9.401
 4837SOL    HW216446   0.652   6.608   9.561
 4838SOL     OW16447   0.051   6.212   9.932
 4838SOL    HW116448   0.094   6.231   9.844
 4838SOL    HW216449   9.968   6.267   9.940
 4839SOL     OW16450   1.818   7.352   9.657
 4839SOL    HW116451   1.900   7.338   9.711
 4839SOL    HW216452   1.825   7.437   9.605
 4840SOL     OW16453   1.624   6.434   9.911
 4840SOL    HW116454   1.712   6.412   9.953
 4840SOL    HW216455   1.634   6.511   9.849
 4841SOL     OW16456   1.748   6.637   9.750
 4841SOL    HW116457   1.814   6.644   9.675
 4841SOL    HW216458   1.794   6.658   9.836
 4842SOL     OW16459   0.600   7.020   9.929
 4842SOL    HW116460   0.568   6.934   9.891
 4842SOL    HW216461   0.558   7.096   9.880
 4843SOL     OW16462   0.842   5.672   9.809
 4843SOL    HW116463   0.891   5.755   9.781
 4843SOL    HW216464   0.744   5.683   9.792
 4844SOL     OW16465   1.579   6.627   9.529
 4844SOL    HW116466   1.506   6.563   9.555
 4844SOL    HW216467   1.634   6.650   9.609
 4845SOL     OW16468   0.524   6.328   9.543
 4845SOL    HW116469   0.559   6.418   9.515
 4845SOL    HW216470   0.504   6.330   9.641
 4846SOL     OW16471   1.566   7.229   9.643
 4846SOL    HW116472   1.657   7.269   9.655
 4846SOL    HW216473   1.544   7.225   9.546
 4847SOL     OW16474   1.010   6.236   9.707
 4847SOL    HW116475   1.017   6.218   9.805
 4847SOL    HW216476   0.952   6.167   9.665
 4848SOL     OW16477   0.080   6.542   0.043
 4848SOL    HW116478   0.110   6.450   0.068
 4848SOL    HW216479   0.042   6.588   0.123
 4849SOL     OW16480   1.288   6.679   9.807
 4849SOL    HW116481   1.338   6.695   9.892
 4849SOL    HW216482   1.258   6.766   9.769
 4850SOL     OW16483   0.975   7.027   9.818
 4850SOL    HW116484   0.952   7.116   9.780
 4850SOL    HW216485   0.933   7.017   9.908
 4851SOL     OW16486   0.318   7.327   0.185
 4851SOL    HW116487   0.344   7.231   0.172
 4851SOL    HW216488   0.396   7.385   0.162
 4852SOL     OW16489   1.161   7.336   9.576
 4852SOL    HW116490   1.074   7.313   9.619
 4852SOL    HW216491   1.182   7.270   9.504
 4853SOL     OW16492   1.646   6.987   9.388
 4853SOL    HW116493   1.606   7.078   9.382
 4853SOL    HW216494   1.576   6.918   9.373
 4854SOL     OW16495   1.406   5.754   9.746
 4854SOL    HW116496   1.419   5.706   9.659
 4854SOL    HW216497   1.496   5.777   9.785
 4855SOL     OW16498   0.440   6.256   9.804
 4855SOL    HW116499   0.477   6.164   9.814
 4855SOL    HW216500   0.345   6.252   9.776
 4856SOL     OW16501   0.691   5.724   9.356
 4856SOL    HW116502   0.757   5.664   9.402
 4856SOL    HW216503   0.632   5.669   9.297
 4857SOL     OW16504   0.573   5.727   9.772
 4857SOL    HW116505   0.523   5.697   9.853
 4857SOL    HW216506   0.566   5.826   9.763
 4858SOL     OW16507   1.445   6.801   9.358
 4858SOL    HW116508   1.490   6.736   9.419
 4858SOL    HW216509   1.357   6.827   9.397
 4859SOL     OW16510   0.302   5.597   9.432
 4859SOL    HW116511   0.338   5.676   9.382
 4859SOL    HW216512   0.373   5.559   9.491
 4860SOL     OW16513   0.958   5.910   9.747
 4860SOL    HW116514   0.931   5.949   9.659
 4860SOL    HW216515   1.057   5.920   9.758
 4861SOL     OW16516   0.402   6.753   0.077
 4861SOL    HW116517   0.327   6.807   0.114
 4861SOL    HW216518   0.413   6.773   9.979
 4862SOL     OW16519   1.302   7.419   9.906
 4862SOL    HW116520   1.359   7.473   9.844
 4862SOL    HW216521   1.206   7.435   9.885
 4863SOL     OW16522   1.071   6.092   9.353
 4863SOL    HW116523   1.046   6.174   9.302
 4863SOL    HW216524   1.145   6.113   9.417
 4864SOL     OW16525   0.821   6.040   9.947
 4864SOL    HW116526   0.881   6.118   9.968
 4864SOL    HW216527   0.863   5.983   9.877
 4865SOL     OW16528   2.018   6.359   9.619
 4865SOL    HW116529   2.034   6.323   9.711
 4865SOL    HW216530   1.947   6.304   9.574
 4866SOL     OW16531   0.485   7.040   9.429
 4866SOL    HW116532   0.389   7.038   9.457
 4866SOL    HW216533   0.498   6.980   9.350
 4867SOL     OW16534   1.421   6.193   9.377
 4867SOL    HW116535   1.373   6.164   9.460
 4867SOL    HW216536   1.520   6.178   9.388
 4868SOL     OW16537   0.725   6.642   9.716
 4868SOL    HW116538   0.699   6.622   9.811
 4868SOL    HW216539   0.804   6.585   9.690
 4869SOL     OW16540   0.444   6.827   9.811
 4869SOL    HW116541   0.368   6.891   9.798
 4869SOL    HW216542   0.479   6.798   9.722
 4870SOL     OW16543   1.219   6.944   9.724
 4870SOL    HW116544   1.284   7.014   9.754
 4870SOL    HW216545   1.128   6.965   9.758
 4871SOL     OW16546   1.510   6.263   9.729
 4871SOL    HW116547   1.556   6.312   9.803
 4871SOL    HW216548   1.449   6.325   9.680
 4872SOL     OW16549   1.232   6.138   9.571
 4872SOL    HW116550   1.247   6.062   9.634
 4872SOL    HW216551   1.169   6.204   9.613
 4873SOL     OW16552   0.447   5.680   0.004
 4873SOL    HW116553   0.410   5.769   0.029
 4873SOL    HW216554   0.397   5.608   0.053
 4874SOL     OW16555   1.620   6.022   9.666
 4874SOL    HW116556   1.622   5.964   9.748
 4874SOL    HW216557   1.574   6.108   9.688
 4875SOL     OW16558   1.553   5.863   9.443
 4875SOL    HW116559   1.499   5.786   9.475
 4875SOL    HW216560   1.576   5.923   9.520
 4876SOL     OW16561   1.295   6.433   9.355
 4876SOL    HW116562   1.339   6.344   9.368
 4876SOL    HW216563   1.319   6.470   9.265
 4877SOL     OW16564   9.973   6.900   9.531
 4877SOL    HW116565   9.922   6.876   9.448
 4877SOL    HW216566   9.980   6.820   9.591
 4878SOL     OW16567   1.369   6.479   9.625
 4878SOL    HW116568   1.328   6.545   9.688
 4878SOL    HW216569   1.315   6.476   9.540
 4879SOL     OW16570   1.633   5.845   9.881
 4879SOL    HW116571   1.727   5.811   9.889
 4879SOL    HW216572   1.589   5.846   9.971
 4880SOL     OW16573   1.372   7.164   9.827
 4880SOL    HW116574   1.446   7.171   9.761
 4880SOL    HW216575   1.339   7.256   9.850
 4881SOL     OW16576   0.690   7.238   9.444
 4881SOL    HW116577   0.711   7.243   9.346
 4881SOL    HW216578   0.621   7.167   9.459
 4882SOL     OW16579   1.224   7.162   9.375
 4882SOL    HW116580   1.220   7.067   9.406
 4882SOL    HW216581   1.148   7.179   9.312
 4883SOL     OW16582   0.926   6.487   9.633
 4883SOL    HW116583   0.965   6.505   9.543
 4883SOL    HW216584   0.959   6.398   9.666
 4884SOL     OW16585   1.491   7.228   9.367
 4884SOL    HW116586   1.395   7.202   9.360
 4884SOL    HW216587   1.530   7.234   9.275
 4885SOL     OW16588   0.157   5.959   9.325
 4885SOL    HW116589   0.072   5.908   9.340
 4885SOL    HW216590   0.144   6.024   9.250
 4886SOL     OW16591   0.080   5.689   9.561
 4886SOL    HW116592   0.111   5.744   9.639
 4886SOL    HW216593   0.159   5.646   9.517
 4887SOL     OW16594   1.195   6.898   9.452
 4887SOL    HW116595   1.096   6.890   9.435
 4887SOL    HW216596   1.210   6.906   9.551
 4888SOL     OW16597   1.230   5.956   9.779
 4888SOL    HW116598   1.289   5.876   9.765
 4888SOL    HW216599   1.264   6.009   9.857
 4889SOL     OW16600   0.483   6.284   0.084
 4889SOL    HW116601   0.496   6.376   0.120
 4889SOL    HW216602   0.472   6.288   9.985
 4890SOL     OW16603   0.925   6.928   9.397
 4890SOL    HW116604   0.878   6.927   9.485
 4890SOL    HW216605   0.920   7.020   9.357
 4891SOL     OW16606   1.041   6.515   9.385
 4891SOL    HW116607   1.024   6.587   9.318
 4891SOL    HW216608   1.136   6.487   9.381
 4892SOL     OW16609   0.093   6.778   9.914
 4892SOL    HW116610   0.031   6.823   9.978
 4892SOL    HW216611   0.112   6.685   9.947
 4893SOL     OW16612   0.554   6.007   9.866
 4893SOL    HW116613   0.646   6.026   9.902
 4893SOL    HW216614   0.494   5.980   9.942
 4894SOL     OW16615   0.816   6.892   9.637
 4894SOL    HW116616   0.780   6.804   9.669
 4894SOL    HW216617   0.871   6.934   9.709
 4895SOL     OW16618   1.415   5.633   9.501
 4895SOL    HW116619   1.463   5.561   9.451
 4895SOL    HW216620   1.323   5.603   9.523
 4896SOL     OW16621   9.977   6.680   9.688
 4896SOL    HW116622   0.029   6.714   9.767
 4896SOL    HW216623   9.883   6.660   9.716
 4897SOL     OW16624   0.911   7.266   9.688
 4897SOL    HW116625   0.839   7.260   9.619
 4897SOL    HW216626   0.896   7.347   9.744
 4898SOL     OW16627   0.217   8.068   0.167
 4898SOL    HW116628   0.146   8.048   0.234
 4898SOL    HW216629   0.176   8.081   0.077
 4899SOL     OW16630   0.154   7.730   0.999
 4899SOL    HW116631   0.190   7.681   1.079
 4899SOL    HW216632   0.057   7.707   0.986
 4900SOL     OW16633   0.026   7.881   0.571
 4900SOL    HW116634   9.927   7.872   0.583
 4900SOL    HW216635   0.063   7.794   0.538
 4901SOL     OW16636   0.639   8.772   1.189
 4901SOL    HW116637   0.546   8.754   1.156
 4901SOL    HW216638   0.651   8.871   1.202
 4902SOL     OW16639   1.606   8.920   0.672
 4902SOL    HW116640   1.556   8.904   0.757
 4902SOL    HW216641   1.544   8.958   0.603
 4903SOL     OW16642   1.123   8.120   0.663
 4903SOL    HW116643   1.156   8.211   0.638
 4903SOL    HW216644   1.071   8.125   0.747
 4904SOL     OW16645   1.774   8.041   0.155
 4904SOL    HW116646   1.738   8.067   0.065
 4904SOL    HW216647   1.718   7.969   0.195
 4905SOL     OW16648   0.809   8.554   1.085
 4905SOL    HW116649   0.748   8.629   1.108
 4905SOL    HW216650   0.904   8.586   1.087
 4906SOL     OW16651   0.916   8.208   1.848
 4906SOL    HW116652   0.918   8.268   1.928
 4906SOL    HW216653   0.929   8.264   1.765
 4907SOL     OW16654   0.691   8.407   0.638
 4907SOL    HW116655   0.767   8.409   0.703
 4907SOL    HW216656   0.629   8.483   0.659
 4908SOL     OW16657   0.743   8.652   1.844
 4908SOL    HW116658   0.791   8.733   1.880
 4908SOL    HW216659   0.664   8.681   1.790
 4909SOL     OW16660   0.374   8.852   1.093
 4909SOL    HW116661   0.286   8.843   1.047
 4909SOL    HW216662   0.433   8.914   1.041
 4910SOL     OW16663   1.467   8.941   1.366
 4910SOL    HW116664   1.519   9.027   1.371
 4910SOL    HW216665   1.376   8.954   1.406
 4911SOL     OW16666   0.375   7.899   1.613
 4911SOL    HW116667   0.422   7.836   1.675
 4911SOL    HW216668   0.323   7.846   1.545
 4912SOL     OW16669   1.597   7.903   0.732
 4912SOL    HW116670   1.517   7.896   0.672
 4912SOL    HW216671   1.583   7.977   0.798
 4913SOL     OW16672   0.234   9.097   0.359
 4913SOL    HW116673   0.176   9.148   0.423
 4913SOL    HW216674   0.329   9.124   0.371
 4914SOL     OW16675   1.088   8.859   1.669
 4914SOL    HW116676   1.123   8.887   1.759
 4914SOL    HW216677   1.059   8.763   1.674
 4915SOL     OW16678   0.326   8.509   0.876
 4915SOL    HW116679   0.323   8.411   0.892
 4915SOL    HW216680   0.249   8.552   0.924
 4916SOL     OW16681   0.616   9.295   1.392
 4916SOL    HW116682   0.544   9.259   1.452
 4916SOL    HW216683   0.662   9.372   1.437
 4917SOL     OW16684   0.581   8.384   0.164
 4917SOL    HW116685   0.543   8.463   0.116
 4917SOL    HW216686   0.654   8.415   0.225
 4918SOL     OW16687   1.696   7.549   1.487
 4918SOL    HW116688   1.712   7.598   1.401
 4918SOL    HW216689   1.634   7.602   1.545
 4919SOL     OW16690   0.134   8.145   0.608
 4919SOL    HW116691   0.086   8.058   0.602
 4919SOL    HW216692   0.097   8.199   0.684
 4920SOL     OW16693   1.876   9.226   0.311
 4920SOL    HW116694   1.960   9.204   0.361
 4920SOL    HW216695   1.883   9.318   0.273
 4921SOL     OW16696   0.031   9.074   0.184
 4921SOL    HW116697   0.063   9.092   0.092
 4921SOL    HW216698   0.108   9.071   0.247
 4922SOL     OW16699   1.640   8.380   0.535
 4922SOL    HW116700   1.699   8.323   0.478
 4922SOL    HW216701   1.620   8.466   0.488
 4923SOL     OW16702   0.166   8.240   1.578
 4923SOL    HW116703   0.262   8.214   1.587
 4923SOL    HW216704   0.154   8.335   1.608
 4924SOL     OW16705   0.636   8.838   0.772
 4924SOL    HW116706   0.603   8.746   0.755
 4924SOL    HW216707   0.592   8.902   0.709
 4925SOL     OW16708   1.250   8.633   1.420
 4925SOL    HW116709   1.266   8.560   1.354
 4925SOL    HW216710   1.321   8.632   1.490
 4926SOL     OW16711   0.830   7.433   0.492
 4926SOL    HW116712   0.892   7.511   0.484
 4926SOL    HW216713   0.737   7.466   0.508
 4927SOL     OW16714   0.224   8.346   1.254
 4927SOL    HW116715   0.322   8.330   1.244
 4927SOL    HW216716   0.173   8.294   1.186
 4928SOL     OW16717   1.665   8.426   0.188
 4928SOL    HW116718   1.612   8.341   0.186
 4928SOL    HW216719   1.623   8.490   0.252
 4929SOL     OW16720   1.170   9.259   1.591
 4929SOL    HW116721   1.182   9.344   1.540
 4929SOL    HW216722   1.200   9.182   1.535
 4930SOL     OW16723   0.405   7.711   1.835
 4930SOL    HW116724   0.442   7.789   1.885
 4930SOL    HW216725   0.305   7.716   1.833
 4931SOL     OW16726   1.493   8.850   0.905
 4931SOL    HW116727   1.419   8.911   0.934
 4931SOL    HW216728   1.461   8.755   0.907
 4932SOL     OW16729   1.622   9.346   0.506
 4932SOL    HW116730   1.617   9.274   0.437
 4932SOL    HW216731   1.648   9.305   0.594
 4933SOL     OW16732   0.589   8.125   0.290
 4933SOL    HW116733   0.596   8.209   0.236
 4933SOL    HW216734   0.521   8.137   0.362
 4934SOL     OW16735   1.321   7.856   0.930
 4934SOL    HW116736   1.229   7.818   0.929
 4934SOL    HW216737   1.376   7.809   1.000
 4935SOL     OW16738   1.611   9.148   0.316
 4935SOL    HW116739   1.710   9.159   0.314
 4935SOL    HW216740   1.577   9.131   0.224
 4936SOL     OW16741   0.799   8.067   1.476
 4936SOL    HW116742   0.786   8.034   1.570
 4936SOL    HW216743   0.746   8.010   1.413
 4937SOL     OW16744   1.398   7.938   1.705
 4937SOL    HW116745   1.414   7.983   1.793
 4937SOL    HW216746   1.463   7.862   1.694
 4938SOL     OW16747   0.964   8.354   1.609
 4938SOL    HW116748   1.017   8.286   1.558
 4938SOL    HW216749   0.904   8.403   1.547
 4939SOL     OW16750   1.065   7.888   1.183
 4939SOL    HW116751   1.028   7.980   1.176
 4939SOL    HW216752   1.049   7.838   1.098
 4940SOL     OW16753   1.038   8.104   0.393
 4940SOL    HW116754   1.057   8.097   0.491
 4940SOL    HW216755   0.953   8.056   0.372
 4941SOL     OW16756   0.033   8.276   0.839
 4941SOL    HW116757   0.129   8.271   0.869
 4941SOL    HW216758   9.977   8.312   0.914
 4942SOL     OW16759   0.088   9.389   1.694
 4942SOL    HW116760   0.116   9.319   1.760
 4942SOL    HW216761   9.990   9.384   1.679
 4943SOL     OW16762   0.863   7.777   0.124
 4943SOL    HW116763   0.901   7.830   0.048
 4943SOL    HW216764   0.919   7.695   0.138
 4944SOL     OW16765   1.807   8.034   1.806
 4944SOL    HW116766   1.766   8.121   1.778
 4944SOL    HW216767   1.785   7.964   1.739
 4945SOL     OW16768   0.643   7.718   0.934
 4945SOL    HW116769   0.590   7.666   1.002
 4945SOL    HW216770   0.585   7.788   0.893
 4946SOL     OW16771   0.361   9.219   0.935
 4946SOL    HW116772   0.419   9.138   0.941
 4946SOL    HW216773   0.417   9.301   0.947
 4947SOL     OW16774   1.792   8.438   0.864
 4947SOL    HW116775   1.749   8.507   0.804
 4947SOL    HW216776   1.759   8.451   0.957
 4948SOL     OW16777   1.212   9.020   1.464
 4948SOL    HW116778   1.168   8.949   1.520
 4948SOL    HW216779   1.154   9.041   1.385
 4949SOL     OW16780   0.358   8.382   0.335
 4949SOL    HW116781   0.428   8.375   0.264
 4949SOL    HW216782   0.354   8.296   0.386
 4950SOL     OW16783   1.455   8.223   0.650
 4950SOL    HW116784   1.472   8.189   0.743
 4950SOL    HW216785   1.529   8.284   0.623
 4951SOL     OW16786   0.492   8.731   1.744
 4951SOL    HW116787   0.472   8.713   1.648
 4951SOL    HW216788   0.407   8.750   1.793
 4952SOL     OW16789   0.174   7.776   1.447
 4952SOL    HW116790   0.160   7.870   1.418
 4952SOL    HW216791   0.090   7.739   1.485
 4953SOL     OW16792   1.669   8.890   0.085
 4953SOL    HW116793   1.603   8.966   0.081
 4953SOL    HW216794   1.626   8.807   0.049
 4954SOL     OW16795   0.485   9.179   0.442
 4954SOL    HW116796   0.494   9.269   0.485
 4954SOL    HW216797   0.536   9.178   0.356
 4955SOL     OW16798   1.465   7.415   0.433
 4955SOL    HW116799   1.432   7.434   0.341
 4955SOL    HW216800   1.538   7.347   0.429
 4956SOL     OW16801   0.274   9.180   1.312
 4956SOL    HW116802   0.326   9.098   1.333
 4956SOL    HW216803   0.218   9.164   1.230
 4957SOL     OW16804   0.937   9.110   0.833
 4957SOL    HW116805   1.025   9.084   0.793
 4957SOL    HW216806   0.893   9.030   0.872
 4958SOL     OW16807   0.373   8.140   0.481
 4958SOL    HW116808   0.398   8.043   0.489
 4958SOL    HW216809   0.281   8.154   0.518
 4959SOL     OW16810   1.533   7.687   1.674
 4959SOL    HW116811   1.541   7.666   1.771
 4959SOL    HW216812   1.445   7.653   1.639
 4960SOL     OW16813   0.524   7.500   0.097
 4960SOL    HW116814   0.603   7.541   0.052
 4960SOL    HW216815   0.441   7.523   0.046
 4961SOL     OW16816   0.779   7.726   1.818
 4961SOL    HW116817   0.835   7.686   1.745
 4961SOL    HW216818   0.730   7.653   1.866
 4962SOL     OW16819   0.910   8.962   1.181
 4962SOL    HW116820   0.881   8.927   1.092
 4962SOL    HW216821   0.946   8.887   1.236
 4963SOL     OW16822   1.303   8.037   1.469
 4963SOL    HW116823   1.344   8.015   1.557
 4963SOL    HW216824   1.337   8.126   1.437
 4964SOL     OW16825   0.852   8.871   0.934
 4964SOL    HW116826   0.934   8.824   0.901
 4964SOL    HW216827   0.774   8.847   0.875
 4965SOL     OW16828   0.872   7.878   0.921
 4965SOL    HW116829   0.790   7.820   0.917
 4965SOL    HW216830   0.953   7.820   0.920
 4966SOL     OW16831   0.580   7.531   0.524
 4966SOL    HW116832   0.511   7.548   0.594
 4966SOL    HW216833   0.561   7.588   0.444
 4967SOL     OW16834   1.422   8.728   0.063
 4967SOL    HW116835   1.393   8.641   0.103
 4967SOL    HW216836   1.352   8.798   0.080
 4968SOL     OW16837   1.054   8.158   1.435
 4968SOL    HW116838   0.970   8.109   1.456
 4968SOL    HW216839   1.133   8.098   1.452
 4969SOL     OW16840   1.185   9.025   0.747
 4969SOL    HW116841   1.203   9.089   0.673
 4969SOL    HW216842   1.247   9.044   0.824
 4970SOL     OW16843   0.511   8.603   0.699
 4970SOL    HW116844   0.443   8.572   0.765
 4970SOL    HW216845   0.466   8.619   0.611
 4971SOL     OW16846   1.220   9.204   0.534
 4971SOL    HW116847   1.270   9.288   0.516
 4971SOL    HW216848   1.126   9.214   0.500
 4972SOL     OW16849   1.095   8.084   9.989
 4972SOL    HW116850   1.039   8.006   9.959
 4972SOL    HW216851   1.144   8.060   0.072
 4973SOL     OW16852   0.163   8.041   1.383
 4973SOL    HW116853   0.256   8.036   1.347
 4973SOL    HW216854   0.155   8.118   1.446
 4974SOL     OW16855   0.489   7.573   1.118
 4974SOL    HW116856   0.539   7.516   1.184
 4974SOL    HW216857   0.399   7.596   1.156
 4975SOL     OW16858   1.072   7.566   0.719
 4975SOL    HW116859   1.025   7.597   0.637
 4975SOL    HW216860   1.029   7.482   0.752
 4976SOL     OW16861   1.474   8.578   0.879
 4976SOL    HW116862   1.407   8.509   0.850
 4976SOL    HW216863   1.543   8.589   0.807
 4977SOL     OW16864   1.483   8.082   0.922
 4977SOL    HW116865   1.420   8.005   0.931
 4977SOL    HW216866   1.547   8.082   0.999
 4978SOL     OW16867   1.776   8.192   0.387
 4978SOL    HW116868   1.854   8.161   0.442
 4978SOL    HW216869   1.783   8.153   0.295
 4979SOL     OW16870   0.425   9.006   0.093
 4979SOL    HW116871   0.380   8.949   0.162
 4979SOL    HW216872   0.489   8.951   0.041
 4980SOL     OW16873   1.693   8.659   0.718
 4980SOL    HW116874   1.786   8.646   0.683
 4980SOL    HW216875   1.661   8.750   0.695
 4981SOL     OW16876   1.310   7.845   9.991
 4981SOL    HW116877   1.270   7.898   0.065
 4981SOL    HW216878   1.382   7.786   0.028
 4982SOL     OW16879   0.511   7.680   0.314
 4982SOL    HW116880   0.514   7.612   0.241
 4982SOL    HW216881   0.487   7.770   0.275
 4983SOL     OW16882   1.754   8.672   1.523
 4983SOL    HW116883   1.845   8.629   1.515
 4983SOL    HW216884   1.764   8.763   1.563
 4984SOL     OW16885   1.033   8.773   1.332
 4984SOL    HW116886   0.952   8.761   1.389
 4984SOL    HW216887   1.112   8.730   1.377
 4985SOL     OW16888   1.696   9.149   1.629
 4985SOL    HW116889   1.656   9.159   1.538
 4985SOL    HW216890   1.747   9.063   1.634
 4986SOL     OW16891   1.068   8.639   1.098
 4986SOL    HW116892   1.066   8.697   1.179
 4986SOL    HW216893   1.092   8.693   1.018
 4987SOL     OW16894   1.635   8.526   1.098
 4987SOL    HW116895   1.633   8.601   1.164
 4987SOL    HW216896   1.567   8.544   1.026
 4988SOL     OW16897   0.998   8.591   1.743
 4988SOL    HW116898   0.906   8.609   1.778
 4988SOL    HW216899   0.998   8.507   1.689
 4989SOL     OW16900   0.775   8.448   0.365
 4989SOL    HW116901   0.739   8.431   0.456
 4989SOL    HW216902   0.871   8.422   0.361
 4990SOL     OW16903   0.491   8.268   1.260
 4990SOL    HW116904   0.536   8.286   1.347
 4990SOL    HW216905   0.457   8.174   1.258
 4991SOL     OW16906   1.286   7.810   1.321
 4991SOL    HW116907   1.305   7.892   1.375
 4991SOL    HW216908   1.201   7.822   1.270
 4992SOL     OW16909   9.978   8.969   1.298
 4992SOL    HW116910   0.032   9.033   1.243
 4992SOL    HW216911   0.006   8.975   1.394
 4993SOL     OW16912   0.396   8.632   0.450
 4993SOL    HW116913   0.362   8.703   0.387
 4993SOL    HW216914   0.384   8.542   0.408
 4994SOL     OW16915   0.525   7.972   0.873
 4994SOL    HW116916   0.524   8.040   0.801
 4994SOL    HW216917   0.589   8.000   0.945
 4995SOL     OW16918   1.283   8.805   0.406
 4995SOL    HW116919   1.337   8.883   0.437
 4995SOL    HW216920   1.212   8.785   0.473
 4996SOL     OW16921   1.525   8.085   0.416
 4996SOL    HW116922   1.480   8.116   0.500
 4996SOL    HW216923   1.618   8.124   0.412
 4997SOL     OW16924   0.417   8.951   1.339
 4997SOL    HW116925   0.390   8.909   1.252
 4997SOL    HW216926   0.510   8.986   1.332
 4998SOL     OW16927   0.426   8.180   1.623
 4998SOL    HW116928   0.506   8.220   1.577
 4998SOL    HW216929   0.433   8.080   1.622
 4999SOL     OW16930   1.653   8.252   1.721
 4999SOL    HW116931   1.554   8.265   1.714
 4999SOL    HW216932   1.697   8.290   1.640
 5000SOL     OW16933   0.952   7.636   1.614
 5000SOL    HW116934   1.015   7.710   1.638
 5000SOL    HW216935   1.004   7.556   1.585
 5001SOL     OW16936   0.526   7.480   1.743
 5001SOL    HW116937   0.479   7.441   1.664
 5001SOL    HW216938   0.486   7.569   1.766
 5002SOL     OW16939   0.734   8.299   1.134
 5002SOL    HW116940   0.756   8.394   1.111
 5002SOL    HW216941   0.642   8.294   1.172
 5003SOL     OW16942   1.288   8.275   0.983
 5003SOL    HW116943   1.203   8.237   0.945
 5003SOL    HW216944   1.364   8.213   0.964
 5004SOL     OW16945   1.210   7.978   0.220
 5004SOL    HW116946   1.257   7.912   0.280
 5004SOL    HW216947   1.148   8.033   0.275
 5005SOL     OW16948   0.241   7.606   1.230
 5005SOL    HW116949   0.221   7.662   1.311
 5005SOL    HW216950   0.210   7.513   1.246
 5006SOL     OW16951   0.017   8.702   1.244
 5006SOL    HW116952   0.079   8.661   1.311
 5006SOL    HW216953   0.004   8.799   1.266
 5007SOL     OW16954   0.704   8.034   1.070
 5007SOL    HW116955   0.779   7.991   1.019
 5007SOL    HW216956   0.722   8.132   1.081
 5008SOL     OW16957   1.759   8.441   1.888
 5008SOL    HW116958   1.721   8.365   1.835
 5008SOL    HW216959   1.697   8.462   1.963
 5009SOL     OW16960   0.366   7.583   0.680
 5009SOL    HW116961   0.321   7.666   0.711
 5009SOL    HW216962   0.368   7.516   0.754
 5010SOL     OW16963   1.629   7.852   0.292
 5010SOL    HW116964   1.686   7.796   0.352
 5010SOL    HW216965   1.574   7.914   0.348
 5011SOL     OW16966   0.990   8.136   0.905
 5011SOL    HW116967   0.996   8.152   1.004
 5011SOL    HW216968   0.947   8.047   0.889
 5012SOL     OW16969   0.953   9.104   1.669
 5012SOL    HW116970   1.024   9.163   1.632
 5012SOL    HW216971   0.982   9.009   1.664
 5013SOL     OW16972   1.850   8.925   1.595
 5013SOL    HW116973   1.885   8.954   1.506
 5013SOL    HW216974   1.925   8.922   1.661
 5014SOL     OW16975   0.366   8.374   1.817
 5014SOL    HW116976   0.443   8.406   1.873
 5014SOL    HW216977   0.397   8.303   1.754
 5015SOL     OW16978   1.495   7.692   0.113
 5015SOL    HW116979   1.452   7.613   0.157
 5015SOL    HW216980   1.543   7.746   0.182
 5016SOL     OW16981   1.099   8.782   0.862
 5016SOL    HW116982   1.105   8.699   0.806
 5016SOL    HW216983   1.135   8.860   0.811
 5017SOL     OW16984   0.303   8.231   0.899
 5017SOL    HW116985   0.376   8.226   0.830
 5017SOL    HW216986   0.297   8.143   0.946
 5018SOL     OW16987   0.297   7.962   1.016
 5018SOL    HW116988   0.243   7.877   1.009
 5018SOL    HW216989   0.375   7.956   0.954
 5019SOL     OW16990   1.145   7.825   1.698
 5019SOL    HW116991   1.094   7.869   1.771
 5019SOL    HW216992   1.234   7.870   1.687
 5020SOL     OW16993   1.286   7.646   1.545
 5020SOL    HW116994   1.230   7.701   1.606
 5020SOL    HW216995   1.292   7.691   1.455
 5021SOL     OW16996   0.063   8.716   0.158
 5021SOL    HW116997   9.977   8.762   0.183
 5021SOL    HW216998   0.072   8.632   0.212
 5022SOL     OW16999   0.150   9.104   1.086
 5022SOL    HW117000   0.134   9.015   1.044
 5022SOL    HW217001   0.209   9.159   1.027
 5023SOL     OW17002   0.543   9.017   0.963
 5023SOL    HW117003   0.614   9.083   0.989
 5023SOL    HW217004   0.580   8.954   0.895
 5024SOL     OW17005   0.972   8.162   1.174
 5024SOL    HW117006   1.016   8.171   1.263
 5024SOL    HW217007   0.888   8.216   1.172
 5025SOL     OW17008   0.071   8.076   1.123
 5025SOL    HW117009   0.152   8.038   1.079
 5025SOL    HW217010   0.079   8.064   1.222
 5026SOL     OW17011   0.158   8.005   1.741
 5026SOL    HW117012   0.241   7.972   1.696
 5026SOL    HW217013   0.127   8.089   1.697
 5027SOL     OW17014   1.400   8.351   1.644
 5027SOL    HW117015   1.422   8.448   1.640
 5027SOL    HW217016   1.383   8.317   1.551
 5028SOL     OW17017   0.815   7.967   0.325
 5028SOL    HW117018   0.822   7.899   0.252
 5028SOL    HW217019   0.733   8.022   0.312
 5029SOL     OW17020   1.661   8.067   1.136
 5029SOL    HW117021   1.655   7.991   1.201
 5029SOL    HW217022   1.756   8.096   1.127
 5030SOL     OW17023   0.266   9.030   1.708
 5030SOL    HW117024   0.225   9.094   1.773
 5030SOL    HW217025   0.279   8.941   1.752
 5031SOL     OW17026   0.430   7.915   0.208
 5031SOL    HW117027   0.506   7.975   0.229
 5031SOL    HW217028   0.349   7.969   0.186
 5032SOL     OW17029   0.189   8.567   1.406
 5032SOL    HW117030   0.179   8.537   1.501
 5032SOL    HW217031   0.203   8.486   1.348
 5033SOL     OW17032   1.243   8.444   1.196
 5033SOL    HW117033   1.267   8.382   1.121
 5033SOL    HW217034   1.178   8.512   1.163
 5034SOL     OW17035   1.774   9.109   1.145
 5034SOL    HW117036   1.842   9.149   1.084
 5034SOL    HW217037   1.755   9.015   1.116
 5035SOL     OW17038   0.096   8.597   1.005
 5035SOL    HW117039   0.078   8.623   1.100
 5035SOL    HW217040   0.018   8.545   0.970
 5036SOL     OW17041   0.717   9.132   1.791
 5036SOL    HW117042   0.661   9.210   1.761
 5036SOL    HW217043   0.805   9.133   1.744
 5037SOL     OW17044   0.994   7.538   0.105
 5037SOL    HW117045   0.967   7.510   0.013
 5037SOL    HW217046   1.047   7.465   0.148
 5038SOL     OW17047   1.797   7.676   0.431
 5038SOL    HW117048   1.869   7.644   0.369
 5038SOL    HW217049   1.742   7.598   0.462
 5039SOL     OW17050   1.428   9.028   0.486
 5039SOL    HW117051   1.493   9.069   0.422
 5039SOL    HW217052   1.352   9.090   0.502
 5040SOL     OW17053   0.146   9.192   1.886
 5040SOL    HW117054   0.094   9.142   1.955
 5040SOL    HW217055   0.209   9.256   1.931
 5041SOL     OW17056   1.219   8.361   0.577
 5041SOL    HW117057   1.309   8.318   0.574
 5041SOL    HW217058   1.182   8.368   0.484
 5042SOL     OW17059   0.779   8.751   1.433
 5042SOL    HW117060   0.748   8.809   1.509
 5042SOL    HW217061   0.715   8.759   1.357
 5043SOL     OW17062   0.596   9.198   0.200
 5043SOL    HW117063   0.617   9.281   0.149
 5043SOL    HW217064   0.539   9.138   0.144
 5044SOL     OW17065   1.616   9.173   1.366
 5044SOL    HW117066   1.676   9.151   1.289
 5044SOL    HW217067   1.586   9.268   1.360
 5045SOL     OW17068   1.874   7.633   0.983
 5045SOL    HW117069   1.902   7.541   0.956
 5045SOL    HW217070   1.784   7.653   0.945
 5046SOL     OW17071   0.238   7.809   0.748
 5046SOL    HW117072   0.162   7.849   0.695
 5046SOL    HW217073   0.204   7.780   0.837
 5047SOL     OW17074   1.233   9.153   0.091
 5047SOL    HW117075   1.209   9.059   0.115
 5047SOL    HW217076   1.215   9.169   9.994
 5048SOL     OW17077   0.815   8.485   1.422
 5048SOL    HW117078   0.845   8.472   1.327
 5048SOL    HW217079   0.799   8.582   1.439
 5049SOL     OW17080   1.049   8.371   0.347
 5049SOL    HW117081   1.062   8.401   0.252
 5049SOL    HW217082   1.041   8.272   0.349
 5050SOL     OW17083   1.496   9.095   0.062
 5050SOL    HW117084   1.402   9.113   0.091
 5050SOL    HW217085   1.496   9.067   9.966
 5051SOL     OW17086   0.404   8.722   1.491
 5051SOL    HW117087   0.409   8.811   1.444
 5051SOL    HW217088   0.331   8.667   1.450
 5052SOL     OW17089   1.633   8.741   1.279
 5052SOL    HW117090   1.681   8.709   1.361
 5052SOL    HW217091   1.562   8.806   1.306
 5053SOL     OW17092   1.096   8.549   0.730
 5053SOL    HW117093   1.014   8.503   0.765
 5053SOL    HW217094   1.146   8.486   0.670
 5054SOL     OW17095   1.087   7.713   0.944
 5054SOL    HW117096   1.086   7.668   0.855
 5054SOL    HW217097   1.098   7.644   1.016
 5055SOL     OW17098   1.756   7.876   1.334
 5055SOL    HW117099   1.837   7.926   1.362
 5055SOL    HW217100   1.783   7.786   1.299
 5056SOL     OW17101   0.285   8.835   0.270
 5056SOL    HW117102   0.204   8.798   0.224
 5056SOL    HW217103   0.261   8.920   0.317
 5057SOL     OW17104   0.155   8.494   1.668
 5057SOL    HW117105   0.110   8.580   1.690
 5057SOL    HW217106   0.235   8.483   1.727
 5058SOL     OW17107   0.034   7.827   0.033
 5058SOL    HW117108   9.937   7.809   0.014
 5058SOL    HW217109   0.059   7.917   9.997
 5059SOL     OW17110   1.380   8.285   1.380
 5059SOL    HW117111   1.316   8.334   1.322
 5059SOL    HW217112   1.472   8.293   1.343
 5060SOL     OW17113   0.107   7.486   0.165
 5060SOL    HW117114   0.137   7.575   0.201
 5060SOL    HW217115   0.179   7.418   0.182
 5061SOL     OW17116   1.205   8.886   0.151
 5061SOL    HW117117   1.109   8.868   0.128
 5061SOL    HW217118   1.224   8.852   0.243
 5062SOL     OW17119   0.640   8.285   1.486
 5062SOL    HW117120   0.691   8.370   1.474
 5062SOL    HW217121   0.703   8.207   1.487
 5063SOL     OW17122   1.533   9.195   1.017
 5063SOL    HW117123   1.542   9.289   0.984
 5063SOL    HW217124   1.615   9.169   1.067
 5064SOL     OW17125   0.763   7.991   1.729
 5064SOL    HW117126   0.808   8.057   1.789
 5064SOL    HW217127   0.765   7.901   1.772
 5065SOL     OW17128   1.464   8.615   1.620
 5065SOL    HW117129   1.447   8.632   1.717
 5065SOL    HW217130   1.555   8.648   1.596
 5066SOL     OW17131   0.405   9.209   1.553
 5066SOL    HW117132   0.347   9.223   1.473
 5066SOL    HW217133   0.367   9.135   1.610
 5067SOL     OW17134   1.626   8.311   1.265
 5067SOL    HW117135   1.636   8.224   1.217
 5067SOL    HW217136   1.631   8.387   1.200
 5068SOL     OW17137   0.509   8.202   0.712
 5068SOL    HW117138   0.580   8.271   0.693
 5068SOL    HW217139   0.461   8.179   0.628
 5069SOL     OW17140   1.736   7.858   1.612
 5069SOL    HW117141   1.728   7.873   1.514
 5069SOL    HW217142   1.666   7.792   1.641
 5070SOL     OW17143   1.745   8.385   1.501
 5070SOL    HW117144   1.728   8.483   1.513
 5070SOL    HW217145   1.704   8.354   1.415
 5071SOL     OW17146   0.935   8.866   0.079
 5071SOL    HW117147   0.894   8.793   0.134
 5071SOL    HW217148   0.869   8.941   0.070
 5072SOL     OW17149   0.727   9.227   0.987
 5072SOL    HW117150   0.667   9.302   0.957
 5072SOL    HW217151   0.795   9.209   0.916
 5073SOL     OW17152   0.884   8.406   0.841
 5073SOL    HW117153   0.914   8.314   0.866
 5073SOL    HW217154   0.851   8.453   0.922
 5074SOL     OW17155   1.079   8.448   0.089
 5074SOL    HW117156   1.009   8.487   0.031
 5074SOL    HW217157   1.155   8.415   0.033
 5075SOL     OW17158   1.822   9.002   0.829
 5075SOL    HW117159   1.760   8.984   0.752
 5075SOL    HW217160   1.799   8.942   0.905
 5076SOL     OW17161   0.254   8.794   1.852
 5076SOL    HW117162   0.165   8.765   1.817
 5076SOL    HW217163   0.249   8.801   1.951
 5077SOL     OW17164   0.684   8.897   1.640
 5077SOL    HW117165   0.603   8.850   1.676
 5077SOL    HW217166   0.696   8.984   1.688
 5078SOL     OW17167   1.841   7.629   1.254
 5078SOL    HW117168   1.909   7.560   1.279
 5078SOL    HW217169   1.842   7.641   1.154
 5079SOL     OW17170   0.425   7.883   0.540
 5079SOL    HW117171   0.457   7.803   0.490
 5079SOL    HW217172   0.373   7.854   0.620
 5080SOL     OW17173   1.720   8.859   1.049
 5080SOL    HW117174   1.638   8.855   0.992
 5080SOL    HW217175   1.703   8.812   1.136
 5081SOL     OW17176   0.404   8.013   1.264
 5081SOL    HW117177   0.491   7.969   1.285
 5081SOL    HW217178   0.373   7.983   1.174
 5082SOL     OW17179   1.450   7.711   1.121
 5082SOL    HW117180   1.468   7.613   1.131
 5082SOL    HW217181   1.397   7.743   1.200
 5083SOL     OW17182   1.114   7.499   1.107
 5083SOL    HW117183   1.036   7.452   1.150
 5083SOL    HW217184   1.188   7.433   1.091
 5084SOL     OW17185   0.795   8.700   0.247
 5084SOL    HW117186   0.795   8.608   0.288
 5084SOL    HW217187   0.721   8.754   0.287
 5085SOL     OW17188   0.666   9.044   1.280
 5085SOL    HW117189   0.654   9.138   1.313
 5085SOL    HW217190   0.761   9.031   1.250
 5086SOL     OW17191   1.358   7.454   0.178
 5086SOL    HW117192   1.361   7.449   0.078
 5086SOL    HW217193   1.273   7.413   0.211
 5087SOL     OW17194   1.319   7.920   0.658
 5087SOL    HW117195   1.255   7.997   0.652
 5087SOL    HW217196   1.321   7.887   0.753
 5088SOL     OW17197   1.623   7.684   0.908
 5088SOL    HW117198   1.560   7.705   0.983
 5088SOL    HW217199   1.611   7.752   0.836
 5089SOL     OW17200   0.115   8.502   0.323
 5089SOL    HW117201   0.204   8.457   0.320
 5089SOL    HW217202   0.088   8.517   0.419
 5090SOL     OW17203   0.227   8.044   2.009
 5090SOL    HW117204   0.175   8.101   2.073
 5090SOL    HW217205   0.188   8.051   1.918
 5091SOL     OW17206   0.171   7.779   2.937
 5091SOL    HW117207   0.211   7.712   3.000
 5091SOL    HW217208   0.078   7.800   2.965
 5092SOL     OW17209   0.027   7.838   2.491
 5092SOL    HW117210   9.927   7.835   2.483
 5092SOL    HW217211   0.067   7.773   2.426
 5093SOL     OW17212   0.610   8.735   3.077
 5093SOL    HW117213   0.521   8.724   3.033
 5093SOL    HW217214   0.628   8.832   3.093
 5094SOL     OW17215   1.540   8.988   2.556
 5094SOL    HW117216   1.507   8.936   2.635
 5094SOL    HW217217   1.470   8.988   2.485
 5095SOL     OW17218   1.136   8.171   2.517
 5095SOL    HW117219   1.194   8.249   2.497
 5095SOL    HW217220   1.098   8.180   2.609
 5096SOL     OW17221   1.708   8.073   2.061
 5096SOL    HW117222   1.752   8.057   1.973
 5096SOL    HW217223   1.682   7.985   2.102
 5097SOL     OW17224   0.743   8.546   2.907
 5097SOL    HW117225   0.694   8.592   2.981
 5097SOL    HW217226   0.787   8.615   2.848
 5098SOL     OW17227   0.892   8.135   3.713
 5098SOL    HW117228   0.861   8.182   3.796
 5098SOL    HW217229   0.908   8.201   3.641
 5099SOL     OW17230   0.722   8.414   2.489
 5099SOL    HW117231   0.794   8.406   2.558
 5099SOL    HW217232   0.647   8.470   2.526
 5100SOL     OW17233   0.675   8.601   3.681
 5100SOL    HW117234   0.704   8.689   3.718
 5100SOL    HW217235   0.595   8.614   3.623
 5101SOL     OW17236   0.374   8.795   2.938
 5101SOL    HW117237   0.309   8.731   2.897
 5101SOL    HW217238   0.421   8.846   2.866
 5102SOL     OW17239   1.442   8.926   3.237
 5102SOL    HW117240   1.500   9.006   3.253
 5102SOL    HW217241   1.365   8.928   3.302
 5103SOL     OW17242   0.496   7.804   3.299
 5103SOL    HW117243   0.568   7.739   3.320
 5103SOL    HW217244   0.415   7.783   3.353
 5104SOL     OW17245   1.500   7.885   2.633
 5104SOL    HW117246   1.418   7.893   2.576
 5104SOL    HW217247   1.576   7.853   2.577
 5105SOL     OW17248   0.235   9.161   2.265
 5105SOL    HW117249   0.200   9.243   2.310
 5105SOL    HW217250   0.323   9.181   2.222
 5106SOL     OW17251   1.090   8.787   3.623
 5106SOL    HW117252   1.128   8.776   3.715
 5106SOL    HW217253   1.039   8.704   3.598
 5107SOL     OW17254   0.309   8.920   2.375
 5107SOL    HW117255   0.277   9.011   2.348
 5107SOL    HW217256   0.282   8.901   2.469
 5108SOL     OW17257   0.351   8.512   2.797
 5108SOL    HW117258   0.346   8.428   2.851
 5108SOL    HW217259   0.262   8.558   2.798
 5109SOL     OW17260   0.610   9.219   3.284
 5109SOL    HW117261   0.523   9.221   3.334
 5109SOL    HW217262   0.667   9.296   3.314
 5110SOL     OW17263   0.607   8.463   2.006
 5110SOL    HW117264   0.651   8.517   1.935
 5110SOL    HW217265   0.657   8.473   2.092
 5111SOL     OW17266   1.705   7.550   3.403
 5111SOL    HW117267   1.739   7.629   3.352
 5111SOL    HW217268   1.631   7.579   3.464
 5112SOL     OW17269   0.133   8.086   2.485
 5112SOL    HW117270   0.097   7.993   2.488
 5112SOL    HW217271   0.223   8.089   2.528
 5113SOL     OW17272   1.856   9.191   2.177
 5113SOL    HW117273   1.936   9.177   2.236
 5113SOL    HW217274   1.854   9.287   2.148
 5114SOL     OW17275   0.034   9.050   2.103
 5114SOL    HW117276   0.017   8.952   2.115
 5114SOL    HW217277   0.106   9.079   2.165
 5115SOL     OW17278   1.725   8.396   2.478
 5115SOL    HW117279   1.768   8.337   2.410
 5115SOL    HW217280   1.696   8.481   2.434
 5116SOL     OW17281   1.677   8.610   2.308
 5116SOL    HW117282   1.760   8.582   2.259
 5116SOL    HW217283   1.697   8.691   2.363
 5117SOL     OW17284   0.136   8.171   3.470
 5117SOL    HW117285   0.226   8.191   3.431
 5117SOL    HW217286   0.092   8.256   3.499
 5118SOL     OW17287   0.654   8.790   2.565
 5118SOL    HW117288   0.612   8.700   2.582
 5118SOL    HW217289   0.632   8.820   2.473
 5119SOL     OW17290   1.239   8.640   3.282
 5119SOL    HW117291   1.261   8.580   3.205
 5119SOL    HW217292   1.317   8.644   3.344
 5120SOL     OW17293   0.831   7.496   2.364
 5120SOL    HW117294   0.881   7.570   2.319
 5120SOL    HW217295   0.733   7.514   2.361
 5121SOL     OW17296   0.198   8.354   3.171
 5121SOL    HW117297   0.255   8.312   3.241
 5121SOL    HW217298   0.242   8.344   3.082
 5122SOL     OW17299   1.565   8.492   2.083
 5122SOL    HW117300   1.511   8.413   2.112
 5122SOL    HW217301   1.598   8.542   2.164
 5123SOL     OW17302   1.241   9.221   3.523
 5123SOL    HW117303   1.271   9.298   3.468
 5123SOL    HW217304   1.245   9.137   3.468
 5124SOL     OW17305   0.403   7.652   3.642
 5124SOL    HW117306   0.436   7.743   3.665
 5124SOL    HW217307   0.303   7.650   3.650
 5125SOL     OW17308   1.461   8.838   2.771
 5125SOL    HW117309   1.400   8.877   2.841
 5125SOL    HW217310   1.439   8.742   2.757
 5126SOL     OW17311   1.568   9.267   2.363
 5126SOL    HW117312   1.571   9.212   2.280
 5126SOL    HW217313   1.585   9.208   2.442
 5127SOL     OW17314   0.597   8.180   2.075
 5127SOL    HW117315   0.615   8.270   2.035
 5127SOL    HW217316   0.516   8.185   2.133
 5128SOL     OW17317   1.213   7.811   2.771
 5128SOL    HW117318   1.122   7.769   2.773
 5128SOL    HW217319   1.271   7.769   2.841
 5129SOL     OW17320   1.593   9.104   2.138
 5129SOL    HW117321   1.689   9.121   2.157
 5129SOL    HW217322   1.578   9.102   2.039
 5130SOL     OW17323   0.804   8.008   3.274
 5130SOL    HW117324   0.787   7.982   3.369
 5130SOL    HW217325   0.761   7.941   3.213
 5131SOL     OW17326   1.388   7.904   3.503
 5131SOL    HW117327   1.395   7.955   3.589
 5131SOL    HW217328   1.437   7.818   3.511
 5132SOL     OW17329   0.942   8.307   3.497
 5132SOL    HW117330   0.994   8.239   3.446
 5132SOL    HW217331   0.897   8.370   3.433
 5133SOL     OW17332   0.974   7.820   3.035
 5133SOL    HW117333   0.878   7.834   3.061
 5133SOL    HW217334   0.977   7.782   2.942
 5134SOL     OW17335   1.048   8.163   2.256
 5134SOL    HW117336   1.073   8.163   2.352
 5134SOL    HW217337   0.957   8.122   2.244
 5135SOL     OW17338   0.124   9.325   3.479
 5135SOL    HW117339   0.131   9.273   3.565
 5135SOL    HW217340   0.037   9.303   3.435
 5136SOL     OW17341   0.880   7.842   2.043
 5136SOL    HW117342   0.954   7.892   1.999
 5136SOL    HW217343   0.829   7.791   1.973
 5137SOL     OW17344   1.671   8.044   3.696
 5137SOL    HW117345   1.662   8.129   3.645
 5137SOL    HW217346   1.699   7.971   3.634
 5138SOL     OW17347   1.411   8.628   2.459
 5138SOL    HW117348   1.492   8.641   2.402
 5138SOL    HW217349   1.349   8.706   2.447
 5139SOL     OW17350   0.583   7.536   2.809
 5139SOL    HW117351   0.567   7.561   2.905
 5139SOL    HW217352   0.600   7.619   2.756
 5140SOL     OW17353   0.979   8.942   2.372
 5140SOL    HW117354   0.964   9.009   2.299
 5140SOL    HW217355   0.927   8.969   2.453
 5141SOL     OW17356   1.820   8.468   2.736
 5141SOL    HW117357   1.782   8.448   2.646
 5141SOL    HW217358   1.746   8.483   2.801
 5142SOL     OW17359   1.222   8.963   3.405
 5142SOL    HW117360   1.194   8.885   3.460
 5142SOL    HW217361   1.142   9.001   3.358
 5143SOL     OW17362   0.373   8.461   2.163
 5143SOL    HW117363   0.452   8.473   2.104
 5143SOL    HW217364   0.371   8.368   2.199
 5144SOL     OW17365   1.513   8.230   2.529
 5144SOL    HW117366   1.512   8.191   2.621
 5144SOL    HW217367   1.594   8.288   2.518
 5145SOL     OW17368   0.436   8.663   3.562
 5145SOL    HW117369   0.407   8.682   3.468
 5145SOL    HW217370   0.368   8.698   3.626
 5146SOL     OW17371   1.031   9.349   2.049
 5146SOL    HW117372   0.986   9.267   2.082
 5146SOL    HW217373   1.013   9.360   1.951
 5147SOL     OW17374   0.232   7.785   3.397
 5147SOL    HW117375   0.176   7.838   3.333
 5147SOL    HW217376   0.204   7.689   3.394
 5148SOL     OW17377   1.612   8.823   1.915
 5148SOL    HW117378   1.584   8.917   1.894
 5148SOL    HW217379   1.533   8.762   1.904
 5149SOL     OW17380   0.481   9.236   2.169
 5149SOL    HW117381   0.520   9.290   2.244
 5149SOL    HW217382   0.550   9.172   2.134
 5150SOL     OW17383   1.406   7.577   2.276
 5150SOL    HW117384   1.402   7.533   2.186
 5150SOL    HW217385   1.501   7.590   2.302
 5151SOL     OW17386   0.207   9.266   3.066
 5151SOL    HW117387   0.282   9.218   3.019
 5151SOL    HW217388   0.154   9.319   2.999
 5152SOL     OW17389   0.949   9.049   2.808
 5152SOL    HW117390   1.041   9.071   2.773
 5152SOL    HW217391   0.890   9.022   2.733
 5153SOL     OW17392   0.375   8.191   2.244
 5153SOL    HW117393   0.404   8.098   2.269
 5153SOL    HW217394   0.276   8.193   2.232
 5154SOL     OW17395   1.505   7.652   3.570
 5154SOL    HW117396   1.510   7.672   3.668
 5154SOL    HW217397   1.432   7.585   3.554
 5155SOL     OW17398   0.660   7.534   1.975
 5155SOL    HW117399   0.714   7.462   2.018
 5155SOL    HW217400   0.610   7.496   1.897
 5156SOL     OW17401   0.810   7.683   3.600
 5156SOL    HW117402   0.897   7.636   3.614
 5156SOL    HW217403   0.753   7.672   3.681
 5157SOL     OW17404   0.911   8.988   3.071
 5157SOL    HW117405   0.928   9.009   2.975
 5157SOL    HW217406   0.948   8.897   3.092
 5158SOL     OW17407   1.296   8.040   3.282
 5158SOL    HW117408   1.340   7.999   3.362
 5158SOL    HW217409   1.335   8.130   3.264
 5159SOL     OW17410   0.853   8.732   2.752
 5159SOL    HW117411   0.945   8.765   2.729
 5159SOL    HW217412   0.791   8.757   2.678
 5160SOL     OW17413   0.895   7.953   2.711
 5160SOL    HW117414   0.877   7.948   2.613
 5160SOL    HW217415   0.919   7.862   2.745
 5161SOL     OW17416   0.568   7.559   2.341
 5161SOL    HW117417   0.503   7.576   2.415
 5161SOL    HW217418   0.564   7.634   2.275
 5162SOL     OW17419   1.418   8.626   1.895
 5162SOL    HW117420   1.478   8.577   1.958
 5162SOL    HW217421   1.322   8.602   1.915
 5163SOL     OW17422   0.321   7.474   1.995
 5163SOL    HW117423   0.371   7.553   1.959
 5163SOL    HW217424   0.378   7.428   2.063
 5164SOL     OW17425   0.960   7.717   2.272
 5164SOL    HW117426   0.927   7.756   2.186
 5164SOL    HW217427   1.059   7.734   2.280
 5165SOL     OW17428   1.044   8.141   3.303
 5165SOL    HW117429   0.967   8.077   3.292
 5165SOL    HW217430   1.130   8.090   3.299
 5166SOL     OW17431   1.177   9.128   2.677
 5166SOL    HW117432   1.159   9.202   2.612
 5166SOL    HW217433   1.229   9.164   2.754
 5167SOL     OW17434   0.518   8.560   2.591
 5167SOL    HW117435   0.464   8.537   2.672
 5167SOL    HW217436   0.457   8.579   2.515
 5168SOL     OW17437   1.098   9.352   2.499
 5168SOL    HW117438   1.174   9.358   2.434
 5168SOL    HW217439   1.013   9.335   2.449
 5169SOL     OW17440   1.060   7.983   1.903
 5169SOL    HW117441   1.018   8.071   1.881
 5169SOL    HW217442   1.130   7.996   1.973
 5170SOL     OW17443   0.120   8.005   3.254
 5170SOL    HW117444   0.215   8.010   3.222
 5170SOL    HW217445   0.111   8.060   3.338
 5171SOL     OW17446   0.535   7.599   3.067
 5171SOL    HW117447   0.567   7.528   3.129
 5171SOL    HW217448   0.438   7.617   3.082
 5172SOL     OW17449   0.853   7.911   2.445
 5172SOL    HW117450   0.821   7.975   2.376
 5172SOL    HW217451   0.893   7.831   2.400
 5173SOL     OW17452   1.010   7.527   2.567
 5173SOL    HW117453   0.944   7.523   2.491
 5173SOL    HW217454   0.997   7.447   2.625
 5174SOL     OW17455   1.423   8.563   2.732
 5174SOL    HW117456   1.367   8.484   2.755
 5174SOL    HW217457   1.416   8.580   2.633
 5175SOL     OW17458   1.499   8.117   2.779
 5175SOL    HW117459   1.489   8.029   2.733
 5175SOL    HW217460   1.562   8.108   2.856
 5176SOL     OW17461   1.821   8.261   2.248
 5176SOL    HW117462   1.897   8.212   2.291
 5176SOL    HW217463   1.775   8.200   2.183
 5177SOL     OW17464   0.528   8.842   2.038
 5177SOL    HW117465   0.432   8.834   2.066
 5177SOL    HW217466   0.544   8.783   1.959
 5178SOL     OW17467   1.742   8.809   2.468
 5178SOL    HW117468   1.829   8.806   2.517
 5178SOL    HW217469   1.685   8.882   2.506
 5179SOL     OW17470   1.435   8.051   1.953
 5179SOL    HW117471   1.371   8.022   2.023
 5179SOL    HW217472   1.525   8.068   1.994
 5180SOL     OW17473   0.560   7.739   2.139
 5180SOL    HW117474   0.602   7.669   2.082
 5180SOL    HW217475   0.528   7.814   2.082
 5181SOL     OW17476   1.758   8.668   3.363
 5181SOL    HW117477   1.848   8.630   3.346
 5181SOL    HW217478   1.767   8.758   3.406
 5182SOL     OW17479   1.007   8.750   3.174
 5182SOL    HW117480   0.924   8.740   3.229
 5182SOL    HW217481   1.086   8.717   3.226
 5183SOL     OW17482   1.618   9.063   3.542
 5183SOL    HW117483   1.593   9.108   3.456
 5183SOL    HW217484   1.697   9.004   3.526
 5184SOL     OW17485   1.166   8.718   2.952
 5184SOL    HW117486   1.089   8.726   3.015
 5184SOL    HW217487   1.136   8.740   2.859
 5185SOL     OW17488   1.620   8.534   2.921
 5185SOL    HW117489   1.614   8.603   2.994
 5185SOL    HW217490   1.546   8.547   2.856
 5186SOL     OW17491   0.942   7.503   3.231
 5186SOL    HW117492   0.952   7.503   3.131
 5186SOL    HW217493   1.016   7.557   3.271
 5187SOL     OW17494   0.944   8.536   3.652
 5187SOL    HW117495   0.847   8.557   3.661
 5187SOL    HW217496   0.955   8.453   3.596
 5188SOL     OW17497   0.765   8.487   2.226
 5188SOL    HW117498   0.753   8.457   2.320
 5188SOL    HW217499   0.841   8.438   2.184
 5189SOL     OW17500   1.211   7.815   3.158
 5189SOL    HW117501   1.243   7.902   3.195
 5189SOL    HW217502   1.122   7.828   3.114
 5190SOL     OW17503   0.113   9.034   3.205
 5190SOL    HW117504   0.120   9.125   3.164
 5190SOL    HW217505   0.204   8.994   3.212
 5191SOL     OW17506   0.364   8.626   2.384
 5191SOL    HW117507   0.321   8.715   2.367
 5191SOL    HW217508   0.361   8.571   2.300
 5192SOL     OW17509   0.457   8.047   2.678
 5192SOL    HW117510   0.484   8.110   2.605
 5192SOL    HW217511   0.535   8.028   2.737
 5193SOL     OW17512   1.251   8.851   2.417
 5193SOL    HW117513   1.299   8.897   2.342
 5193SOL    HW217514   1.153   8.870   2.411
 5194SOL     OW17515   1.326   8.933   2.991
 5194SOL    HW117516   1.368   8.932   3.081
 5194SOL    HW217517   1.262   8.856   2.983
 5195SOL     OW17518   1.490   8.075   2.297
 5195SOL    HW117519   1.502   8.112   2.389
 5195SOL    HW217520   1.459   8.147   2.235
 5196SOL     OW17521   0.368   8.937   3.166
 5196SOL    HW117522   0.362   8.886   3.080
 5196SOL    HW217523   0.461   8.973   3.176
 5197SOL     OW17524   1.632   8.278   3.564
 5197SOL    HW117525   1.535   8.302   3.557
 5197SOL    HW217526   1.679   8.306   3.481
 5198SOL     OW17527   1.062   7.565   3.655
 5198SOL    HW117528   1.096   7.655   3.627
 5198SOL    HW217529   1.132   7.495   3.635
 5199SOL     OW17530   0.568   7.433   3.631
 5199SOL    HW117531   0.519   7.369   3.573
 5199SOL    HW217532   0.515   7.518   3.639
 5200SOL     OW17533   0.630   8.292   2.931
 5200SOL    HW117534   0.659   8.383   2.902
 5200SOL    HW217535   0.666   8.273   3.023
 5201SOL     OW17536   1.302   8.315   2.821
 5201SOL    HW117537   1.212   8.273   2.808
 5201SOL    HW217538   1.373   8.245   2.809
 5202SOL     OW17539   1.223   8.000   2.121
 5202SOL    HW117540   1.233   7.917   2.176
 5202SOL    HW217541   1.169   8.067   2.172
 5203SOL     OW17542   0.263   7.596   3.115
 5203SOL    HW117543   0.242   7.579   3.211
 5203SOL    HW217544   0.224   7.524   3.058
 5204SOL     OW17545   0.032   8.775   3.093
 5204SOL    HW117546   0.051   8.707   3.164
 5204SOL    HW217547   0.056   8.866   3.128
 5205SOL     OW17548   0.667   8.025   2.855
 5205SOL    HW117549   0.752   8.009   2.804
 5205SOL    HW217550   0.660   8.122   2.878
 5206SOL     OW17551   1.829   8.403   3.718
 5206SOL    HW117552   1.749   8.358   3.678
 5206SOL    HW217553   1.817   8.408   3.818
 5207SOL     OW17554   0.375   7.591   2.527
 5207SOL    HW117555   0.327   7.659   2.583
 5207SOL    HW217556   0.378   7.504   2.576
 5208SOL     OW17557   1.588   7.849   2.175
 5208SOL    HW117558   1.621   7.781   2.241
 5208SOL    HW217559   1.544   7.924   2.223
 5209SOL     OW17560   1.040   8.180   2.782
 5209SOL    HW117561   1.030   8.198   2.880
 5209SOL    HW217562   0.995   8.094   2.759
 5210SOL     OW17563   0.937   9.010   3.560
 5210SOL    HW117564   0.955   9.041   3.467
 5210SOL    HW217565   0.988   8.926   3.578
 5211SOL     OW17566   1.838   8.919   3.448
 5211SOL    HW117567   1.860   8.952   3.356
 5211SOL    HW217568   1.914   8.936   3.509
 5212SOL     OW17569   1.556   7.662   1.951
 5212SOL    HW117570   1.490   7.593   1.979
 5212SOL    HW217571   1.558   7.736   2.018
 5213SOL     OW17572   1.305   8.280   1.887
 5213SOL    HW117573   1.347   8.192   1.908
 5213SOL    HW217574   1.332   8.309   1.795
 5214SOL     OW17575   1.116   8.790   2.693
 5214SOL    HW117576   1.121   8.703   2.643
 5214SOL    HW217577   1.161   8.861   2.639
 5215SOL     OW17578   0.355   8.283   2.950
 5215SOL    HW117579   0.455   8.290   2.945
 5215SOL    HW217580   0.326   8.191   2.926
 5216SOL     OW17581   0.301   8.015   2.896
 5216SOL    HW117582   0.261   7.924   2.903
 5216SOL    HW217583   0.351   8.024   2.810
 5217SOL     OW17584   1.141   7.807   3.572
 5217SOL    HW117585   1.105   7.859   3.649
 5217SOL    HW217586   1.226   7.850   3.540
 5218SOL     OW17587   1.149   7.639   3.352
 5218SOL    HW117588   1.129   7.698   3.430
 5218SOL    HW217589   1.180   7.695   3.275
 5219SOL     OW17590   0.009   8.770   2.159
 5219SOL    HW117591   9.965   8.764   2.248
 5219SOL    HW217592   0.028   8.678   2.124
 5220SOL     OW17593   0.493   8.936   2.737
 5220SOL    HW117594   0.538   9.024   2.752
 5220SOL    HW217595   0.551   8.878   2.680
 5221SOL     OW17596   0.995   8.234   3.041
 5221SOL    HW117597   1.042   8.207   3.125
 5221SOL    HW217598   0.897   8.245   3.061
 5222SOL     OW17599   0.036   8.032   2.996
 5222SOL    HW117600   0.124   8.054   2.952
 5222SOL    HW217601   0.051   8.013   3.093
 5223SOL     OW17602   0.176   7.943   3.611
 5223SOL    HW117603   0.211   7.886   3.537
 5223SOL    HW217604   0.152   8.033   3.575
 5224SOL     OW17605   1.385   8.372   3.487
 5224SOL    HW117606   1.416   8.467   3.482
 5224SOL    HW217607   1.371   8.337   3.394
 5225SOL     OW17608   0.804   8.048   2.206
 5225SOL    HW117609   0.823   7.968   2.149
 5225SOL    HW217610   0.729   8.100   2.166
 5226SOL     OW17611   1.670   8.067   2.991
 5226SOL    HW117612   1.624   7.997   3.045
 5226SOL    HW217613   1.767   8.044   2.983
 5227SOL     OW17614   0.307   9.004   3.586
 5227SOL    HW117615   0.243   9.067   3.629
 5227SOL    HW217616   0.289   8.910   3.617
 5228SOL     OW17617   0.704   7.846   3.069
 5228SOL    HW117618   0.639   7.771   3.078
 5228SOL    HW217619   0.675   7.905   2.993
 5229SOL     OW17620   1.003   9.095   3.306
 5229SOL    HW117621   0.964   9.059   3.221
 5229SOL    HW217622   1.005   9.195   3.302
 5230SOL     OW17623   0.477   7.941   1.974
 5230SOL    HW117624   0.544   8.014   1.987
 5230SOL    HW217625   0.385   7.977   1.988
 5231SOL     OW17626   0.103   8.583   3.285
 5231SOL    HW117627   0.073   8.555   3.376
 5231SOL    HW217628   0.137   8.503   3.235
 5232SOL     OW17629   1.274   8.483   3.044
 5232SOL    HW117630   1.284   8.418   2.970
 5232SOL    HW217631   1.238   8.569   3.008
 5233SOL     OW17632   1.384   8.300   2.163
 5233SOL    HW117633   1.318   8.326   2.234
 5233SOL    HW217634   1.338   8.298   2.074
 5234SOL     OW17635   1.752   9.135   3.022
 5234SOL    HW117636   1.816   9.177   2.957
 5234SOL    HW217637   1.719   9.048   2.985
 5235SOL     OW17638   1.289   9.196   2.924
 5235SOL    HW117639   1.380   9.239   2.927
 5235SOL    HW217640   1.297   9.100   2.949
 5236SOL     OW17641   0.129   8.672   2.822
 5236SOL    HW117642   0.086   8.705   2.906
 5236SOL    HW217643   0.067   8.611   2.775
 5237SOL     OW17644   0.704   9.106   3.654
 5237SOL    HW117645   0.666   9.189   3.613
 5237SOL    HW217646   0.793   9.086   3.611
 5238SOL     OW17647   1.680   7.610   2.322
 5238SOL    HW117648   1.725   7.596   2.234
 5238SOL    HW217649   1.678   7.524   2.373
 5239SOL     OW17650   0.143   9.183   3.709
 5239SOL    HW117651   0.078   9.141   3.771
 5239SOL    HW217652   0.203   9.245   3.760
 5240SOL     OW17653   1.301   8.379   2.452
 5240SOL    HW117654   1.377   8.319   2.477
 5240SOL    HW217655   1.335   8.473   2.445
 5241SOL     OW17656   0.765   8.718   3.304
 5241SOL    HW117657   0.726   8.775   3.377
 5241SOL    HW217658   0.702   8.717   3.226
 5242SOL     OW17659   0.669   9.073   2.047
 5242SOL    HW117660   0.680   9.099   1.951
 5242SOL    HW217661   0.617   8.988   2.052
 5243SOL     OW17662   1.601   9.148   3.262
 5243SOL    HW117663   1.658   9.134   3.180
 5243SOL    HW217664   1.595   9.246   3.281
 5244SOL     OW17665   0.221   7.756   2.669
 5244SOL    HW117666   0.143   7.792   2.618
 5244SOL    HW217667   0.200   7.758   2.766
 5245SOL     OW17668   1.287   9.166   1.826
 5245SOL    HW117669   1.230   9.090   1.856
 5245SOL    HW217670   1.249   9.204   1.741
 5246SOL     OW17671   0.858   8.465   3.293
 5246SOL    HW117672   0.935   8.475   3.230
 5246SOL    HW217673   0.815   8.554   3.307
 5247SOL     OW17674   0.967   8.362   2.083
 5247SOL    HW117675   1.039   8.424   2.050
 5247SOL    HW217676   1.008   8.295   2.144
 5248SOL     OW17677   1.547   9.090   1.864
 5248SOL    HW117678   1.453   9.118   1.845
 5248SOL    HW217679   1.605   9.115   1.786
 5249SOL     OW17680   0.339   8.717   3.326
 5249SOL    HW117681   0.349   8.800   3.270
 5249SOL    HW217682   0.251   8.675   3.305
 5250SOL     OW17683   1.610   8.728   3.132
 5250SOL    HW117684   1.669   8.700   3.207
 5250SOL    HW217685   1.539   8.789   3.167
 5251SOL     OW17686   1.106   8.544   2.583
 5251SOL    HW117687   1.026   8.498   2.622
 5251SOL    HW217688   1.160   8.478   2.530
 5252SOL     OW17689   0.973   7.685   2.788
 5252SOL    HW117690   0.982   7.645   2.697
 5252SOL    HW217691   0.975   7.612   2.856
 5253SOL     OW17692   0.580   8.882   2.327
 5253SOL    HW117693   0.595   8.851   2.233
 5253SOL    HW217694   0.483   8.899   2.341
 5254SOL     OW17695   1.807   7.783   3.284
 5254SOL    HW117696   1.873   7.858   3.278
 5254SOL    HW217697   1.813   7.727   3.201
 5255SOL     OW17698   0.269   8.824   2.126
 5255SOL    HW117699   0.174   8.794   2.130
 5255SOL    HW217700   0.295   8.865   2.214
 5256SOL     OW17701   0.095   8.435   3.543
 5256SOL    HW117702   0.065   8.420   3.637
 5256SOL    HW217703   0.195   8.433   3.538
 5257SOL     OW17704   0.710   7.611   3.354
 5257SOL    HW117705   0.790   7.581   3.302
 5257SOL    HW217706   0.738   7.642   3.444
 5258SOL     OW17707   0.133   7.747   1.838
 5258SOL    HW117708   0.050   7.697   1.815
 5258SOL    HW217709   0.126   7.842   1.807
 5259SOL     OW17710   1.383   8.297   3.222
 5259SOL    HW117711   1.324   8.357   3.168
 5259SOL    HW217712   1.476   8.299   3.183
 5260SOL     OW17713   0.083   7.520   2.120
 5260SOL    HW117714   0.105   7.572   2.203
 5260SOL    HW217715   0.168   7.499   2.071
 5261SOL     OW17716   0.747   8.249   3.166
 5261SOL    HW117717   0.777   8.325   3.225
 5261SOL    HW217718   0.763   8.162   3.212
 5262SOL     OW17719   1.534   9.319   2.937
 5262SOL    HW117720   1.577   9.385   2.875
 5262SOL    HW217721   1.604   9.264   2.981
 5263SOL     OW17722   0.783   7.949   3.534
 5263SOL    HW117723   0.815   8.009   3.607
 5263SOL    HW217724   0.795   7.854   3.562
 5264SOL     OW17725   1.494   8.620   3.470
 5264SOL    HW117726   1.501   8.636   3.568
 5264SOL    HW217727   1.581   8.643   3.426
 5265SOL     OW17728   0.385   9.212   3.437
 5265SOL    HW117729   0.300   9.263   3.423
 5265SOL    HW217730   0.364   9.124   3.479
 5266SOL     OW17731   1.625   8.318   3.093
 5266SOL    HW117732   1.644   8.231   3.048
 5266SOL    HW217733   1.624   8.391   3.025
 5267SOL     OW17734   1.226   7.784   2.292
 5267SOL    HW117735   1.293   7.710   2.284
 5267SOL    HW217736   1.238   7.831   2.379
 5268SOL     OW17737   0.537   8.207   2.477
 5268SOL    HW117738   0.610   8.275   2.481
 5268SOL    HW217739   0.480   8.223   2.397
 5269SOL     OW17740   1.737   7.830   3.543
 5269SOL    HW117741   1.757   7.820   3.445
 5269SOL    HW217742   1.666   7.765   3.570
 5270SOL     OW17743   1.734   8.379   3.333
 5270SOL    HW117744   1.729   8.478   3.346
 5270SOL    HW217745   1.696   8.355   3.244
 5271SOL     OW17746   0.896   8.880   1.964
 5271SOL    HW117747   0.880   8.829   2.049
 5271SOL    HW217748   0.836   8.960   1.962
 5272SOL     OW17749   0.649   9.165   2.757
 5272SOL    HW117750   0.602   9.254   2.758
 5272SOL    HW217751   0.716   9.162   2.831
 5273SOL     OW17752   0.899   8.405   2.702
 5273SOL    HW117753   0.944   8.323   2.735
 5273SOL    HW217754   0.850   8.450   2.777
 5274SOL     OW17755   1.166   8.507   1.944
 5274SOL    HW117756   1.108   8.542   1.871
 5274SOL    HW217757   1.209   8.422   1.915
 5275SOL     OW17758   1.763   9.048   2.711
 5275SOL    HW117759   1.687   9.045   2.647
 5275SOL    HW217760   1.750   8.980   2.782
 5276SOL     OW17761   0.237   8.769   3.709
 5276SOL    HW117762   0.141   8.767   3.679
 5276SOL    HW217763   0.242   8.798   3.804
 5277SOL     OW17764   0.637   8.864   3.497
 5277SOL    HW117765   0.552   8.817   3.519
 5277SOL    HW217766   0.638   8.954   3.542
 5278SOL     OW17767   1.818   7.622   3.067
 5278SOL    HW117768   1.801   7.524   3.058
 5278SOL    HW217769   1.833   7.661   2.976
 5279SOL     OW17770   0.462   7.946   2.316
 5279SOL    HW117771   0.499   7.867   2.266
 5279SOL    HW217772   0.504   7.949   2.407
 5280SOL     OW17773   1.678   8.894   2.922
 5280SOL    HW117774   1.601   8.874   2.863
 5280SOL    HW217775   1.679   8.831   2.999
 5281SOL     OW17776   0.384   8.015   3.171
 5281SOL    HW117777   0.436   7.939   3.208
 5281SOL    HW217778   0.382   8.010   3.071
 5282SOL     OW17779   0.803   9.017   2.577
 5282SOL    HW117780   0.746   9.089   2.617
 5282SOL    HW217781   0.749   8.934   2.565
 5283SOL     OW17782   1.326   7.655   2.977
 5283SOL    HW117783   1.302   7.560   2.999
 5283SOL    HW217784   1.292   7.715   3.049
 5284SOL     OW17785   1.004   7.463   2.949
 5284SOL    HW117786   0.968   7.396   2.885
 5284SOL    HW217787   1.099   7.441   2.972
 5285SOL     OW17788   0.843   8.755   2.192
 5285SOL    HW117789   0.811   8.663   2.214
 5285SOL    HW217790   0.883   8.796   2.274
 5286SOL     OW17791   0.647   9.001   3.136
 5286SOL    HW117792   0.632   9.082   3.192
 5286SOL    HW217793   0.743   8.996   3.108
 5287SOL     OW17794   1.390   7.458   2.030
 5287SOL    HW117795   1.438   7.381   1.988
 5287SOL    HW217796   1.299   7.429   2.058
 5288SOL     OW17797   1.250   7.918   2.526
 5288SOL    HW117798   1.207   8.008   2.518
 5288SOL    HW217799   1.231   7.880   2.616
 5289SOL     OW17800   1.497   7.634   2.771
 5289SOL    HW117801   1.441   7.646   2.853
 5289SOL    HW217802   1.498   7.719   2.718
 5290SOL     OW17803   0.117   8.531   2.083
 5290SOL    HW117804   0.209   8.517   2.120
 5290SOL    HW217805   0.089   8.450   2.031
 5291SOL     OW17806   0.896   9.146   2.188
 5291SOL    HW117807   0.809   9.112   2.151
 5291SOL    HW217808   0.878   9.217   2.255
 5292SOL     OW17809   0.243   7.992   3.874
 5292SOL    HW117810   0.176   8.051   3.919
 5292SOL    HW217811   0.219   7.982   3.777
 5293SOL     OW17812   0.142   7.625   4.764
 5293SOL    HW117813   0.177   7.532   4.752
 5293SOL    HW217814   0.064   7.623   4.826
 5294SOL     OW17815   0.048   7.878   4.329
 5294SOL    HW117816   9.949   7.869   4.326
 5294SOL    HW217817   0.089   7.811   4.268
 5295SOL     OW17818   0.625   8.798   4.978
 5295SOL    HW117819   0.546   8.795   4.917
 5295SOL    HW217820   0.644   8.892   5.004
 5296SOL     OW17821   1.630   8.925   4.435
 5296SOL    HW117822   1.577   8.895   4.514
 5296SOL    HW217823   1.570   8.970   4.369
 5297SOL     OW17824   1.163   8.224   4.534
 5297SOL    HW117825   1.178   8.291   4.461
 5297SOL    HW217826   1.078   8.245   4.581
 5298SOL     OW17827   1.823   7.998   3.912
 5298SOL    HW117828   1.770   8.019   3.830
 5298SOL    HW217829   1.781   7.920   3.959
 5299SOL     OW17830   0.797   8.646   4.816
 5299SOL    HW117831   0.728   8.668   4.885
 5299SOL    HW217832   0.823   8.729   4.766
 5300SOL     OW17833   0.839   8.128   5.611
 5300SOL    HW117834   0.766   8.149   5.676
 5300SOL    HW217835   0.899   8.208   5.602
 5301SOL     OW17836   0.743   8.519   4.326
 5301SOL    HW117837   0.770   8.517   4.422
 5301SOL    HW217838   0.643   8.511   4.320
 5302SOL     OW17839   0.725   8.607   5.564
 5302SOL    HW117840   0.786   8.676   5.604
 5302SOL    HW217841   0.646   8.652   5.521
 5303SOL     OW17842   0.408   8.866   4.824
 5303SOL    HW117843   0.322   8.819   4.803
 5303SOL    HW217844   0.439   8.915   4.743
 5304SOL     OW17845   1.450   8.937   5.109
 5304SOL    HW117846   1.512   9.014   5.126
 5304SOL    HW217847   1.370   8.945   5.168
 5305SOL     OW17848   0.450   7.900   5.258
 5305SOL    HW117849   0.537   7.851   5.264
 5305SOL    HW217850   0.374   7.836   5.271
 5306SOL     OW17851   1.606   7.903   4.461
 5306SOL    HW117852   1.594   7.936   4.368
 5306SOL    HW217853   1.560   7.965   4.525
 5307SOL     OW17854   0.235   9.116   4.053
 5307SOL    HW117855   0.180   9.154   4.127
 5307SOL    HW217856   0.321   9.166   4.046
 5308SOL     OW17857   1.124   8.755   5.421
 5308SOL    HW117858   1.197   8.728   5.484
 5308SOL    HW217859   1.061   8.679   5.408
 5309SOL     OW17860   0.571   9.316   5.103
 5309SOL    HW117861   0.493   9.293   5.161
 5309SOL    HW217862   0.635   9.373   5.154
 5310SOL     OW17863   0.580   8.499   3.915
 5310SOL    HW117864   0.607   8.530   3.824
 5310SOL    HW217865   0.655   8.514   3.980
 5311SOL     OW17866   1.711   7.521   5.244
 5311SOL    HW117867   1.723   7.586   5.168
 5311SOL    HW217868   1.657   7.565   5.316
 5312SOL     OW17869   0.084   8.153   4.284
 5312SOL    HW117870   0.079   8.056   4.304
 5312SOL    HW217871   0.007   8.201   4.327
 5313SOL     OW17872   1.895   9.144   4.064
 5313SOL    HW117873   1.970   9.129   4.129
 5313SOL    HW217874   1.903   9.235   4.025
 5314SOL     OW17875   0.004   9.057   3.911
 5314SOL    HW117876   9.988   8.958   3.904
 5314SOL    HW217877   0.084   9.074   3.968
 5315SOL     OW17878   1.678   8.322   4.375
 5315SOL    HW117879   1.767   8.310   4.419
 5315SOL    HW217880   1.685   8.391   4.304
 5316SOL     OW17881   1.692   8.531   4.191
 5316SOL    HW117882   1.767   8.507   4.129
 5316SOL    HW217883   1.725   8.594   4.261
 5317SOL     OW17884   0.201   8.202   5.329
 5317SOL    HW117885   0.300   8.191   5.327
 5317SOL    HW217886   0.178   8.297   5.350
 5318SOL     OW17887   0.656   8.836   4.485
 5318SOL    HW117888   0.602   8.760   4.521
 5318SOL    HW217889   0.654   8.833   4.385
 5319SOL     OW17890   1.263   8.665   5.133
 5319SOL    HW117891   1.291   8.606   5.058
 5319SOL    HW217892   1.331   8.660   5.206
 5320SOL     OW17893   0.865   7.523   4.208
 5320SOL    HW117894   0.896   7.615   4.183
 5320SOL    HW217895   0.765   7.520   4.210
 5321SOL     OW17896   1.541   8.474   3.956
 5321SOL    HW117897   1.478   8.397   3.971
 5321SOL    HW217898   1.590   8.494   4.041
 5322SOL     OW17899   1.195   9.250   5.334
 5322SOL    HW117900   1.205   9.312   5.256
 5322SOL    HW217901   1.203   9.156   5.303
 5323SOL     OW17902   0.423   7.658   5.613
 5323SOL    HW117903   0.469   7.740   5.645
 5323SOL    HW217904   0.327   7.678   5.596
 5324SOL     OW17905   1.493   8.840   4.654
 5324SOL    HW117906   1.429   8.876   4.720
 5324SOL    HW217907   1.467   8.747   4.628
 5325SOL     OW17908   1.657   9.322   4.253
 5325SOL    HW117909   1.649   9.251   4.184
 5325SOL    HW217910   1.666   9.281   4.343
 5326SOL     OW17911   0.605   8.228   3.962
 5326SOL    HW117912   0.584   8.322   3.937
 5326SOL    HW217913   0.703   8.221   3.981
 5327SOL     OW17914   1.299   7.843   4.679
 5327SOL    HW117915   1.220   7.783   4.665
 5327SOL    HW217916   1.356   7.807   4.753
 5328SOL     OW17917   1.622   9.123   4.066
 5328SOL    HW117918   1.722   9.113   4.064
 5328SOL    HW217919   1.586   9.109   3.974
 5329SOL     OW17920   0.820   8.056   5.097
 5329SOL    HW117921   0.831   8.035   5.194
 5329SOL    HW217922   0.807   7.971   5.046
 5330SOL     OW17923   1.350   7.796   5.371
 5330SOL    HW117924   1.339   7.874   5.432
 5330SOL    HW217925   1.328   7.825   5.277
 5331SOL     OW17926   1.067   7.784   4.919
 5331SOL    HW117927   0.972   7.812   4.928
 5331SOL    HW217928   1.081   7.742   4.829
 5332SOL     OW17929   0.111   9.362   5.371
 5332SOL    HW117930   0.130   9.294   5.442
 5332SOL    HW217931   0.012   9.369   5.358
 5333SOL     OW17932   0.961   7.685   3.882
 5333SOL    HW117933   0.984   7.777   3.851
 5333SOL    HW217934   1.009   7.618   3.826
 5334SOL     OW17935   1.633   8.037   5.552
 5334SOL    HW117936   1.632   8.126   5.506
 5334SOL    HW217937   1.673   7.968   5.491
 5335SOL     OW17938   1.442   8.604   4.307
 5335SOL    HW117939   1.528   8.576   4.264
 5335SOL    HW217940   1.408   8.687   4.264
 5336SOL     OW17941   0.508   7.586   4.680
 5336SOL    HW117942   0.528   7.584   4.778
 5336SOL    HW217943   0.503   7.681   4.649
 5337SOL     OW17944   0.932   8.924   4.175
 5337SOL    HW117945   0.934   9.017   4.139
 5337SOL    HW217946   0.977   8.923   4.264
 5338SOL     OW17947   0.371   9.267   4.583
 5338SOL    HW117948   0.406   9.173   4.589
 5338SOL    HW217949   0.434   9.330   4.627
 5339SOL     OW17950   1.813   8.530   4.614
 5339SOL    HW117951   1.784   8.583   4.534
 5339SOL    HW217952   1.740   8.532   4.683
 5340SOL     OW17953   1.208   8.970   5.245
 5340SOL    HW117954   1.199   8.900   5.316
 5340SOL    HW217955   1.145   8.950   5.170
 5341SOL     OW17956   0.326   8.423   3.979
 5341SOL    HW117957   0.412   8.461   3.945
 5341SOL    HW217958   0.343   8.335   4.023
 5342SOL     OW17959   1.446   8.195   4.392
 5342SOL    HW117960   1.439   8.149   4.480
 5342SOL    HW217961   1.533   8.245   4.388
 5343SOL     OW17962   0.477   8.722   5.466
 5343SOL    HW117963   0.452   8.728   5.369
 5343SOL    HW217964   0.397   8.694   5.519
 5344SOL     OW17965   1.166   9.197   3.967
 5344SOL    HW117966   1.074   9.191   4.004
 5344SOL    HW217967   1.175   9.137   3.888
 5345SOL     OW17968   0.236   7.718   5.271
 5345SOL    HW117969   0.144   7.697   5.238
 5345SOL    HW217970   0.282   7.634   5.300
 5346SOL     OW17971   1.676   8.853   3.816
 5346SOL    HW117972   1.616   8.933   3.819
 5346SOL    HW217973   1.625   8.774   3.782
 5347SOL     OW17974   0.468   9.261   4.029
 5347SOL    HW117975   0.504   9.325   4.097
 5347SOL    HW217976   0.544   9.210   3.988
 5348SOL     OW17977   1.386   7.598   4.185
 5348SOL    HW117978   1.372   7.576   4.088
 5348SOL    HW217979   1.480   7.577   4.211
 5349SOL     OW17980   0.221   9.213   4.952
 5349SOL    HW117981   0.287   9.138   4.958
 5349SOL    HW217982   0.179   9.213   4.862
 5350SOL     OW17983   0.938   9.175   4.615
 5350SOL    HW117984   1.028   9.130   4.608
 5350SOL    HW217985   0.876   9.136   4.548
 5351SOL     OW17986   1.570   7.650   5.435
 5351SOL    HW117987   1.589   7.649   5.534
 5351SOL    HW217988   1.481   7.693   5.419
 5352SOL     OW17989   0.689   7.594   3.836
 5352SOL    HW117990   0.786   7.587   3.860
 5352SOL    HW217991   0.664   7.515   3.780
 5353SOL     OW17992   0.890   9.002   4.920
 5353SOL    HW117993   0.872   8.963   4.829
 5353SOL    HW217994   0.954   8.943   4.969
 5354SOL     OW17995   0.847   8.872   4.680
 5354SOL    HW117996   0.938   8.862   4.640
 5354SOL    HW217997   0.778   8.860   4.609
 5355SOL     OW17998   0.594   7.508   4.190
 5355SOL    HW117999   0.525   7.513   4.263
 5355SOL    HW218000   0.588   7.590   4.133
 5356SOL     OW18001   1.501   8.645   3.746
 5356SOL    HW118002   1.527   8.577   3.814
 5356SOL    HW218003   1.405   8.669   3.757
 5357SOL     OW18004   0.297   7.443   3.864
 5357SOL    HW118005   0.308   7.541   3.881
 5357SOL    HW218006   0.364   7.392   3.919
 5358SOL     OW18007   0.969   7.780   4.136
 5358SOL    HW118008   0.962   7.744   4.043
 5358SOL    HW218009   1.066   7.794   4.159
 5359SOL     OW18010   1.195   9.090   4.551
 5359SOL    HW118011   1.229   9.142   4.473
 5359SOL    HW218012   1.237   9.124   4.635
 5360SOL     OW18013   1.263   9.260   4.344
 5360SOL    HW118014   1.311   9.319   4.278
 5360SOL    HW218015   1.179   9.305   4.373
 5361SOL     OW18016   1.054   7.931   3.800
 5361SOL    HW118017   0.996   8.008   3.772
 5361SOL    HW218018   1.124   7.963   3.864
 5362SOL     OW18019   0.137   8.111   5.083
 5362SOL    HW118020   0.225   8.080   5.046
 5362SOL    HW218021   0.150   8.146   5.176
 5363SOL     OW18022   1.030   7.496   4.427
 5363SOL    HW118023   0.972   7.510   4.347
 5363SOL    HW218024   0.990   7.426   4.485
 5364SOL     OW18025   1.447   8.581   4.586
 5364SOL    HW118026   1.408   8.493   4.612
 5364SOL    HW218027   1.447   8.590   4.487
 5365SOL     OW18028   1.468   8.065   4.640
 5365SOL    HW118029   1.398   7.997   4.664
 5365SOL    HW218030   1.533   8.073   4.715
 5366SOL     OW18031   1.799   8.190   4.099
 5366SOL    HW118032   1.866   8.170   4.170
 5366SOL    HW218033   1.809   8.123   4.025
 5367SOL     OW18034   0.552   8.895   3.975
 5367SOL    HW118035   0.455   8.873   3.963
 5367SOL    HW218036   0.605   8.854   3.901
 5368SOL     OW18037   1.775   8.690   4.391
 5368SOL    HW118038   1.874   8.700   4.390
 5368SOL    HW218039   1.733   8.780   4.400
 5369SOL     OW18040   1.400   8.026   3.743
 5369SOL    HW118041   1.360   7.999   3.831
 5369SOL    HW218042   1.500   8.027   3.751
 5370SOL     OW18043   0.577   7.732   4.039
 5370SOL    HW118044   0.615   7.686   3.959
 5370SOL    HW218045   0.550   7.825   4.014
 5371SOL     OW18046   1.757   8.664   5.250
 5371SOL    HW118047   1.848   8.630   5.229
 5371SOL    HW218048   1.764   8.753   5.295
 5372SOL     OW18049   1.044   8.816   5.068
 5372SOL    HW118050   0.960   8.787   5.114
 5372SOL    HW218051   1.120   8.759   5.099
 5373SOL     OW18052   1.620   9.054   5.418
 5373SOL    HW118053   1.594   9.093   5.329
 5373SOL    HW218054   1.702   8.997   5.407
 5374SOL     OW18055   1.156   8.724   4.828
 5374SOL    HW118056   1.090   8.749   4.898
 5374SOL    HW218057   1.124   8.755   4.739
 5375SOL     OW18058   1.619   8.551   4.806
 5375SOL    HW118059   1.608   8.615   4.882
 5375SOL    HW218060   1.548   8.568   4.738
 5376SOL     OW18061   0.946   8.535   5.414
 5376SOL    HW118062   0.863   8.559   5.465
 5376SOL    HW218063   0.921   8.503   5.323
 5377SOL     OW18064   0.809   8.511   4.066
 5377SOL    HW118065   0.790   8.518   4.164
 5377SOL    HW218066   0.838   8.417   4.045
 5378SOL     OW18067   0.553   8.203   4.926
 5378SOL    HW118068   0.595   8.243   5.008
 5378SOL    HW218069   0.486   8.134   4.954
 5379SOL     OW18070   1.293   7.840   5.068
 5379SOL    HW118071   1.305   7.939   5.054
 5379SOL    HW218072   1.208   7.810   5.024
 5380SOL     OW18073   0.131   9.037   5.148
 5380SOL    HW118074   0.117   9.119   5.093
 5380SOL    HW218075   0.227   9.010   5.145
 5381SOL     OW18076   0.475   8.490   4.260
 5381SOL    HW118077   0.448   8.521   4.169
 5381SOL    HW218078   0.411   8.420   4.292
 5382SOL     OW18079   0.502   7.861   4.651
 5382SOL    HW118080   0.485   7.904   4.562
 5382SOL    HW218081   0.572   7.913   4.700
 5383SOL     OW18082   1.338   8.923   4.862
 5383SOL    HW118083   1.381   8.925   4.953
 5383SOL    HW218084   1.272   8.848   4.858
 5384SOL     OW18085   1.590   8.034   4.214
 5384SOL    HW118086   1.517   8.087   4.257
 5384SOL    HW218087   1.658   8.096   4.176
 5385SOL     OW18088   0.390   8.983   5.061
 5385SOL    HW118089   0.392   8.938   4.972
 5385SOL    HW218090   0.480   9.020   5.082
 5386SOL     OW18091   0.472   8.169   5.325
 5386SOL    HW118092   0.542   8.211   5.268
 5386SOL    HW218093   0.472   8.070   5.311
 5387SOL     OW18094   1.632   8.270   5.417
 5387SOL    HW118095   1.539   8.299   5.395
 5387SOL    HW218096   1.693   8.292   5.342
 5388SOL     OW18097   0.530   7.468   5.439
 5388SOL    HW118098   0.450   7.452   5.382
 5388SOL    HW218099   0.511   7.539   5.506
 5389SOL     OW18100   1.360   8.338   4.686
 5389SOL    HW118101   1.283   8.300   4.635
 5389SOL    HW218102   1.432   8.269   4.694
 5390SOL     OW18103   1.257   8.007   3.980
 5390SOL    HW118104   1.250   7.946   4.059
 5390SOL    HW218105   1.287   8.097   4.010
 5391SOL     OW18106   0.029   8.812   5.028
 5391SOL    HW118107   0.059   8.731   5.079
 5391SOL    HW218108   0.057   8.894   5.077
 5392SOL     OW18109   0.688   8.029   4.755
 5392SOL    HW118110   0.726   8.061   4.669
 5392SOL    HW218111   0.647   8.106   4.804
 5393SOL     OW18112   1.766   8.442   5.583
 5393SOL    HW118113   1.719   8.372   5.530
 5393SOL    HW218114   1.709   8.471   5.660
 5394SOL     OW18115   0.362   7.542   4.345
 5394SOL    HW118116   0.306   7.586   4.415
 5394SOL    HW218117   0.331   7.447   4.332
 5395SOL     OW18118   1.667   7.818   4.053
 5395SOL    HW118119   1.720   7.756   4.110
 5395SOL    HW218120   1.626   7.889   4.110
 5396SOL     OW18121   0.933   8.257   4.673
 5396SOL    HW118122   0.935   8.243   4.772
 5396SOL    HW218123   0.899   8.175   4.628
 5397SOL     OW18124   1.006   8.990   5.494
 5397SOL    HW118125   0.975   9.048   5.419
 5397SOL    HW218126   1.036   8.901   5.458
 5398SOL     OW18127   1.842   8.917   5.325
 5398SOL    HW118128   1.857   8.946   5.231
 5398SOL    HW218129   1.924   8.932   5.379
 5399SOL     OW18130   0.433   8.355   5.522
 5399SOL    HW118131   0.511   8.379   5.580
 5399SOL    HW218132   0.460   8.283   5.458
 5400SOL     OW18133   1.523   7.712   3.833
 5400SOL    HW118134   1.457   7.648   3.874
 5400SOL    HW218135   1.577   7.755   3.906
 5401SOL     OW18136   1.284   8.271   3.719
 5401SOL    HW118137   1.319   8.177   3.719
 5401SOL    HW218138   1.310   8.316   3.633
 5402SOL     OW18139   1.094   8.833   4.587
 5402SOL    HW118140   1.106   8.757   4.523
 5402SOL    HW218141   1.146   8.912   4.555
 5403SOL     OW18142   0.175   8.326   4.817
 5403SOL    HW118143   0.270   8.343   4.792
 5403SOL    HW218144   0.152   8.230   4.800
 5404SOL     OW18145   0.285   7.852   4.812
 5404SOL    HW118146   0.234   7.767   4.801
 5404SOL    HW218147   0.362   7.854   4.748
 5405SOL     OW18148   9.964   8.786   3.894
 5405SOL    HW118149   9.956   8.784   3.794
 5405SOL    HW218150   0.005   8.700   3.925
 5406SOL     OW18151   0.120   9.242   4.707
 5406SOL    HW118152   0.040   9.294   4.677
 5406SOL    HW218153   0.195   9.259   4.644
 5407SOL     OW18154   0.498   9.020   4.610
 5407SOL    HW118155   0.559   9.084   4.657
 5407SOL    HW218156   0.553   8.952   4.561
 5408SOL     OW18157   0.103   8.061   4.807
 5408SOL    HW118158   0.167   7.986   4.794
 5408SOL    HW218159   0.085   8.073   4.904
 5409SOL     OW18160   0.159   7.945   5.421
 5409SOL    HW118161   0.186   7.880   5.351
 5409SOL    HW218162   0.160   8.038   5.383
 5410SOL     OW18163   1.393   8.369   5.332
 5410SOL    HW118164   1.410   8.467   5.339
 5410SOL    HW218165   1.389   8.343   5.235
 5411SOL     OW18166   1.644   8.083   4.844
 5411SOL    HW118167   1.621   8.020   4.918
 5411SOL    HW218168   1.740   8.071   4.819
 5412SOL     OW18169   0.347   9.004   5.387
 5412SOL    HW118170   0.282   9.018   5.462
 5412SOL    HW218171   0.336   8.911   5.350
 5413SOL     OW18172   0.799   7.846   4.917
 5413SOL    HW118173   0.746   7.762   4.910
 5413SOL    HW218174   0.762   7.915   4.854
 5414SOL     OW18175   0.886   9.142   5.259
 5414SOL    HW118176   0.829   9.091   5.195
 5414SOL    HW218177   0.926   9.221   5.212
 5415SOL     OW18178   0.497   7.979   3.967
 5415SOL    HW118179   0.543   8.067   3.967
 5415SOL    HW218180   0.404   7.989   3.930
 5416SOL     OW18181   0.142   8.589   5.141
 5416SOL    HW118182   0.160   8.533   5.222
 5416SOL    HW218183   0.101   8.532   5.069
 5417SOL     OW18184   1.301   8.507   4.897
 5417SOL    HW118185   1.321   8.448   4.819
 5417SOL    HW218186   1.246   8.585   4.867
 5418SOL     OW18187   1.332   8.288   3.989
 5418SOL    HW118188   1.256   8.337   4.031
 5418SOL    HW218189   1.319   8.285   3.890
 5419SOL     OW18190   1.754   9.142   4.891
 5419SOL    HW118191   1.827   9.177   4.833
 5419SOL    HW218192   1.732   9.048   4.864
 5420SOL     OW18193   1.288   9.182   4.793
 5420SOL    HW118194   1.376   9.230   4.799
 5420SOL    HW218195   1.300   9.088   4.825
 5421SOL     OW18196   0.163   8.766   4.789
 5421SOL    HW118197   0.120   8.773   4.879
 5421SOL    HW218198   0.093   8.774   4.717
 5422SOL     OW18199   0.726   9.145   5.479
 5422SOL    HW118200   0.661   9.220   5.471
 5422SOL    HW218201   0.795   9.153   5.406
 5423SOL     OW18202   1.806   7.648   4.224
 5423SOL    HW118203   1.895   7.603   4.232
 5423SOL    HW218204   1.733   7.580   4.233
 5424SOL     OW18205   1.449   9.055   4.267
 5424SOL    HW118206   1.505   9.086   4.191
 5424SOL    HW218207   1.383   9.126   4.292
 5425SOL     OW18208   0.167   9.168   5.558
 5425SOL    HW118209   0.120   9.128   5.637
 5425SOL    HW218210   0.239   9.229   5.590
 5426SOL     OW18211   1.267   8.399   4.349
 5426SOL    HW118212   1.326   8.319   4.351
 5426SOL    HW218213   1.322   8.480   4.327
 5427SOL     OW18214   0.802   8.745   5.176
 5427SOL    HW118215   0.773   8.794   5.258
 5427SOL    HW218216   0.734   8.757   5.104
 5428SOL     OW18217   0.681   9.129   3.921
 5428SOL    HW118218   0.692   9.123   3.822
 5428SOL    HW218219   0.638   9.045   3.955
 5429SOL     OW18220   1.624   9.146   5.141
 5429SOL    HW118221   1.666   9.142   5.051
 5429SOL    HW218222   1.655   9.228   5.190
 5430SOL     OW18223   1.843   7.600   4.690
 5430SOL    HW118224   1.874   7.516   4.646
 5430SOL    HW218225   1.754   7.627   4.653
 5431SOL     OW18226   0.199   7.691   4.499
 5431SOL    HW118227   0.151   7.770   4.462
 5431SOL    HW218228   0.173   7.679   4.595
 5432SOL     OW18229   1.241   9.055   3.742
 5432SOL    HW118230   1.191   8.972   3.717
 5432SOL    HW218231   1.237   9.120   3.667
 5433SOL     OW18232   0.853   8.479   5.157
 5433SOL    HW118233   0.893   8.458   5.068
 5433SOL    HW218234   0.832   8.577   5.162
 5434SOL     OW18235   0.877   8.245   3.990
 5434SOL    HW118236   0.961   8.283   3.951
 5434SOL    HW218237   0.900   8.170   4.053
 5435SOL     OW18238   1.512   9.079   3.796
 5435SOL    HW118239   1.415   9.060   3.784
 5435SOL    HW218240   1.556   9.086   3.706
 5436SOL     OW18241   0.345   8.767   5.230
 5436SOL    HW118242   0.368   8.834   5.160
 5436SOL    HW218243   0.279   8.702   5.194
 5437SOL     OW18244   1.606   8.725   5.020
 5437SOL    HW118245   1.666   8.697   5.095
 5437SOL    HW218246   1.542   8.795   5.053
 5438SOL     OW18247   1.087   8.602   4.446
 5438SOL    HW118248   1.002   8.566   4.484
 5438SOL    HW218249   1.139   8.528   4.403
 5439SOL     OW18250   1.094   7.661   4.660
 5439SOL    HW118251   1.076   7.637   4.564
 5439SOL    HW218252   1.087   7.579   4.717
 5440SOL     OW18253   0.665   8.882   4.221
 5440SOL    HW118254   0.763   8.885   4.199
 5440SOL    HW218255   0.612   8.880   4.136
 5441SOL     OW18256   1.837   7.816   5.132
 5441SOL    HW118257   1.885   7.897   5.098
 5441SOL    HW218258   1.827   7.751   5.057
 5442SOL     OW18259   0.278   8.864   3.965
 5442SOL    HW118260   0.236   8.811   4.039
 5442SOL    HW218261   0.268   8.962   3.984
 5443SOL     OW18262   0.224   8.476   5.391
 5443SOL    HW118263   0.202   8.557   5.445
 5443SOL    HW218264   0.310   8.436   5.423
 5444SOL     OW18265   0.119   7.691   3.702
 5444SOL    HW118266   0.028   7.664   3.734
 5444SOL    HW218267   0.117   7.785   3.669
 5445SOL     OW18268   1.416   8.327   5.061
 5445SOL    HW118269   1.370   8.398   5.008
 5445SOL    HW218270   1.513   8.326   5.039
 5446SOL     OW18271   0.037   7.396   3.914
 5446SOL    HW118272   0.028   7.391   4.013
 5446SOL    HW218273   0.133   7.406   3.889
 5447SOL     OW18274   0.670   8.273   5.165
 5447SOL    HW118275   0.727   8.354   5.175
 5447SOL    HW218276   0.727   8.193   5.148
 5448SOL     OW18277   1.533   9.301   4.807
 5448SOL    HW118278   1.564   9.352   4.727
 5448SOL    HW218279   1.609   9.248   4.844
 5449SOL     OW18280   0.842   8.005   5.359
 5449SOL    HW118281   0.835   8.053   5.447
 5449SOL    HW218282   0.859   7.908   5.375
 5450SOL     OW18283   1.469   8.632   5.339
 5450SOL    HW118284   1.457   8.654   5.436
 5450SOL    HW218285   1.564   8.646   5.313
 5451SOL     OW18286   0.372   9.250   5.282
 5451SOL    HW118287   0.281   9.292   5.286
 5451SOL    HW218288   0.366   9.155   5.312
 5452SOL     OW18289   1.670   8.333   4.964
 5452SOL    HW118290   1.670   8.247   4.912
 5452SOL    HW218291   1.662   8.410   4.901
 5453SOL     OW18292   1.232   7.835   4.199
 5453SOL    HW118293   1.290   7.754   4.203
 5453SOL    HW218294   1.233   7.881   4.288
 5454SOL     OW18295   1.740   7.852   5.383
 5454SOL    HW118296   1.771   7.848   5.288
 5454SOL    HW218297   1.676   7.778   5.400
 5455SOL     OW18298   1.778   8.370   5.212
 5455SOL    HW118299   1.763   8.466   5.235
 5455SOL    HW218300   1.747   8.353   5.119
 5456SOL     OW18301   0.750   8.832   3.794
 5456SOL    HW118302   0.827   8.806   3.852
 5456SOL    HW218303   0.778   8.903   3.730
 5457SOL     OW18304   0.667   9.202   4.710
 5457SOL    HW118305   0.641   9.297   4.699
 5457SOL    HW218306   0.766   9.193   4.699
 5458SOL     OW18307   0.861   8.504   4.585
 5458SOL    HW118308   0.886   8.411   4.612
 5458SOL    HW218309   0.832   8.555   4.666
 5459SOL     OW18310   1.070   8.377   3.850
 5459SOL    HW118311   1.026   8.450   3.797
 5459SOL    HW218312   1.143   8.336   3.796
 5460SOL     OW18313   1.838   8.999   4.598
 5460SOL    HW118314   1.775   8.982   4.522
 5460SOL    HW218315   1.811   8.945   4.677
 5461SOL     OW18316   0.222   8.686   5.574
 5461SOL    HW118317   0.129   8.716   5.556
 5461SOL    HW218318   0.250   8.717   5.665
 5462SOL     OW18319   0.697   8.882   5.385
 5462SOL    HW118320   0.608   8.844   5.412
 5462SOL    HW218321   0.706   8.974   5.423
 5463SOL     OW18322   1.823   7.604   4.964
 5463SOL    HW118323   1.879   7.523   4.984
 5463SOL    HW218324   1.820   7.619   4.865
 5464SOL     OW18325   0.505   7.774   4.298
 5464SOL    HW118326   0.533   7.767   4.203
 5464SOL    HW218327   0.457   7.690   4.325
 5465SOL     OW18328   1.708   8.888   4.813
 5465SOL    HW118329   1.630   8.870   4.753
 5465SOL    HW218330   1.707   8.823   4.889
 5466SOL     OW18331   0.382   8.011   5.013
 5466SOL    HW118332   0.410   7.965   5.097
 5466SOL    HW218333   0.351   7.943   4.946
 5467SOL     OW18334   0.786   9.077   4.420
 5467SOL    HW118335   0.751   9.117   4.336
 5467SOL    HW218336   0.740   8.990   4.437
 5468SOL     OW18337   1.449   7.720   4.869
 5468SOL    HW118338   1.464   7.622   4.880
 5468SOL    HW218339   1.405   7.757   4.951
 5469SOL     OW18340   1.070   7.418   4.778
 5469SOL    HW118341   1.012   7.367   4.715
 5469SOL    HW218342   1.161   7.376   4.781
 5470SOL     OW18343   0.932   8.739   3.977
 5470SOL    HW118344   0.890   8.653   4.005
 5470SOL    HW218345   0.931   8.803   4.054
 5471SOL     OW18346   0.662   9.064   5.050
 5471SOL    HW118347   0.635   9.159   5.057
 5471SOL    HW218348   0.745   9.056   4.993
 5472SOL     OW18349   1.361   7.511   3.927
 5472SOL    HW118350   1.409   7.444   3.871
 5472SOL    HW218351   1.266   7.482   3.941
 5473SOL     OW18352   1.223   7.962   4.444
 5473SOL    HW118353   1.207   8.058   4.466
 5473SOL    HW218354   1.258   7.915   4.525
 5474SOL     OW18355   1.592   7.676   4.629
 5474SOL    HW118356   1.539   7.708   4.708
 5474SOL    HW218357   1.592   7.747   4.558
 5475SOL     OW18358   0.092   8.550   4.040
 5475SOL    HW118359   0.178   8.506   4.015
 5475SOL    HW218360   0.016   8.487   4.024
 5476SOL     OW18361   0.907   9.175   4.073
 5476SOL    HW118362   0.828   9.159   4.014
 5476SOL    HW218363   0.891   9.255   4.130
 5477SOL     OW18364   0.279   8.029   5.656
 5477SOL    HW118365   0.255   8.124   5.678
 5477SOL    HW218366   0.234   8.003   5.571
 5478SOL     OW18367   9.981   7.726   6.274
 5478SOL    HW118368   9.962   7.824   6.264
 5478SOL    HW218369   9.935   7.676   6.202
 5479SOL     OW18370   0.617   8.740   6.857
 5479SOL    HW118371   0.568   8.699   6.781
 5479SOL    HW218372   0.610   8.840   6.851
 5480SOL     OW18373   1.625   8.957   6.293
 5480SOL    HW118374   1.580   8.925   6.377
 5480SOL    HW218375   1.556   8.976   6.223
 5481SOL     OW18376   1.156   8.166   6.254
 5481SOL    HW118377   1.203   8.253   6.239
 5481SOL    HW218378   1.105   8.171   6.340
 5482SOL     OW18379   1.817   8.030   5.756
 5482SOL    HW118380   1.755   8.047   5.679
 5482SOL    HW218381   1.779   7.957   5.813
 5483SOL     OW18382   0.801   8.526   6.685
 5483SOL    HW118383   0.817   8.521   6.784
 5483SOL    HW218384   0.804   8.622   6.655
 5484SOL     OW18385   0.728   8.407   6.253
 5484SOL    HW118386   0.805   8.410   6.317
 5484SOL    HW218387   0.655   8.467   6.284
 5485SOL     OW18388   0.671   8.546   7.416
 5485SOL    HW118389   0.712   8.584   7.500
 5485SOL    HW218390   0.602   8.609   7.382
 5486SOL     OW18391   0.276   8.883   6.631
 5486SOL    HW118392   0.206   8.905   6.563
 5486SOL    HW218393   0.365   8.912   6.598
 5487SOL     OW18394   1.425   8.958   6.957
 5487SOL    HW118395   1.503   9.021   6.962
 5487SOL    HW218396   1.352   8.991   7.017
 5488SOL     OW18397   0.406   7.865   7.058
 5488SOL    HW118398   0.471   7.791   7.044
 5488SOL    HW218399   0.313   7.827   7.064
 5489SOL     OW18400   1.572   7.888   6.328
 5489SOL    HW118401   1.498   7.885   6.261
 5489SOL    HW218402   1.555   7.962   6.393
 5490SOL     OW18403   0.266   9.113   5.963
 5490SOL    HW118404   0.220   9.176   6.026
 5490SOL    HW218405   0.345   9.158   5.921
 5491SOL     OW18406   1.221   8.819   7.265
 5491SOL    HW118407   1.305   8.769   7.244
 5491SOL    HW218408   1.143   8.757   7.261
 5492SOL     OW18409   0.350   8.881   6.068
 5492SOL    HW118410   0.316   8.970   6.039
 5492SOL    HW218411   0.310   8.857   6.157
 5493SOL     OW18412   0.301   8.536   6.487
 5493SOL    HW118413   0.301   8.436   6.481
 5493SOL    HW218414   0.244   8.565   6.564
 5494SOL     OW18415   0.587   9.239   7.003
 5494SOL    HW118416   0.501   9.253   7.052
 5494SOL    HW218417   0.632   9.327   6.989
 5495SOL     OW18418   0.627   8.437   5.756
 5495SOL    HW118419   0.666   8.494   5.684
 5495SOL    HW218420   0.671   8.460   5.843
 5496SOL     OW18421   1.576   7.583   7.061
 5496SOL    HW118422   1.641   7.655   7.037
 5496SOL    HW218423   1.522   7.612   7.140
 5497SOL     OW18424   0.191   8.249   6.077
 5497SOL    HW118425   0.143   8.183   6.020
 5497SOL    HW218426   0.152   8.249   6.169
 5498SOL     OW18427   1.870   9.192   5.931
 5498SOL    HW118428   1.951   9.184   5.988
 5498SOL    HW218429   1.870   9.281   5.885
 5499SOL     OW18430   0.067   9.061   5.783
 5499SOL    HW118431   0.034   8.967   5.792
 5499SOL    HW218432   0.140   9.078   5.850
 5500SOL     OW18433   1.718   8.387   6.248
 5500SOL    HW118434   1.812   8.351   6.248
 5500SOL    HW218435   1.705   8.448   6.170
 5501SOL     OW18436   1.695   8.564   6.028
 5501SOL    HW118437   1.774   8.529   5.978
 5501SOL    HW218438   1.723   8.642   6.084
 5502SOL     OW18439   0.207   8.183   7.176
 5502SOL    HW118440   0.305   8.166   7.182
 5502SOL    HW218441   0.187   8.276   7.207
 5503SOL     OW18442   0.641   8.801   6.354
 5503SOL    HW118443   0.601   8.710   6.355
 5503SOL    HW218444   0.629   8.842   6.263
 5504SOL     OW18445   1.231   8.621   7.017
 5504SOL    HW118446   1.245   8.561   6.938
 5504SOL    HW218447   1.319   8.643   7.058
 5505SOL     OW18448   0.829   7.430   6.107
 5505SOL    HW118449   0.889   7.509   6.097
 5505SOL    HW218450   0.736   7.455   6.081
 5506SOL     OW18451   0.201   8.440   6.871
 5506SOL    HW118452   0.286   8.390   6.855
 5506SOL    HW218453   0.188   8.508   6.799
 5507SOL     OW18454   1.574   8.504   5.779
 5507SOL    HW118455   1.505   8.432   5.788
 5507SOL    HW218456   1.609   8.528   5.870
 5508SOL     OW18457   1.343   9.316   7.161
 5508SOL    HW118458   1.280   9.378   7.114
 5508SOL    HW218459   1.308   9.223   7.155
 5509SOL     OW18460   0.351   7.675   7.456
 5509SOL    HW118461   0.395   7.764   7.468
 5509SOL    HW218462   0.253   7.688   7.438
 5510SOL     OW18463   1.503   8.856   6.518
 5510SOL    HW118464   1.435   8.888   6.584
 5510SOL    HW218465   1.474   8.767   6.482
 5511SOL     OW18466   1.626   9.316   6.120
 5511SOL    HW118467   1.621   9.242   6.052
 5511SOL    HW218468   1.641   9.277   6.211
 5512SOL     OW18469   0.630   8.164   5.821
 5512SOL    HW118470   0.634   8.260   5.794
 5512SOL    HW218471   0.560   8.152   5.892
 5513SOL     OW18472   1.283   7.856   6.518
 5513SOL    HW118473   1.188   7.825   6.528
 5513SOL    HW218474   1.342   7.797   6.573
 5514SOL     OW18475   1.604   9.122   5.925
 5514SOL    HW118476   1.703   9.133   5.922
 5514SOL    HW218477   1.570   9.105   5.832
 5515SOL     OW18478   0.793   8.029   7.036
 5515SOL    HW118479   0.817   7.990   7.125
 5515SOL    HW218480   0.770   7.955   6.972
 5516SOL     OW18481   1.343   7.922   7.243
 5516SOL    HW118482   1.347   7.970   7.331
 5516SOL    HW218483   1.389   7.834   7.252
 5517SOL     OW18484   1.002   7.837   6.803
 5517SOL    HW118485   0.905   7.844   6.827
 5517SOL    HW218486   1.011   7.802   6.710
 5518SOL     OW18487   1.076   8.139   5.993
 5518SOL    HW118488   1.108   8.148   6.087
 5518SOL    HW218489   0.986   8.096   5.992
 5519SOL     OW18490   0.085   8.227   6.336
 5519SOL    HW118491   0.171   8.246   6.383
 5519SOL    HW218492   0.009   8.263   6.390
 5520SOL     OW18493   0.129   9.366   7.259
 5520SOL    HW118494   0.162   9.306   7.331
 5520SOL    HW218495   0.029   9.360   7.254
 5521SOL     OW18496   0.855   7.692   5.825
 5521SOL    HW118497   0.892   7.776   5.787
 5521SOL    HW218498   0.874   7.616   5.763
 5522SOL     OW18499   1.623   8.021   7.412
 5522SOL    HW118500   1.627   8.102   7.354
 5522SOL    HW218501   1.654   7.942   7.361
 5523SOL     OW18502   1.428   8.620   6.137
 5523SOL    HW118503   1.516   8.610   6.089
 5523SOL    HW218504   1.371   8.685   6.088
 5524SOL     OW18505   0.502   7.568   6.576
 5524SOL    HW118506   0.531   7.590   6.669
 5524SOL    HW218507   0.453   7.646   6.537
 5525SOL     OW18508   1.005   8.918   6.055
 5525SOL    HW118509   0.986   8.996   5.995
 5525SOL    HW218510   0.967   8.936   6.145
 5526SOL     OW18511   1.764   8.448   6.513
 5526SOL    HW118512   1.731   8.441   6.418
 5526SOL    HW218513   1.689   8.478   6.572
 5527SOL     OW18514   1.230   9.058   7.121
 5527SOL    HW118515   1.218   8.978   7.180
 5527SOL    HW218516   1.146   9.076   7.070
 5528SOL     OW18517   0.365   8.458   5.858
 5528SOL    HW118518   0.458   8.456   5.821
 5528SOL    HW218519   0.313   8.381   5.821
 5529SOL     OW18520   1.504   8.220   6.270
 5529SOL    HW118521   1.492   8.174   6.358
 5529SOL    HW218522   1.585   8.279   6.274
 5530SOL     OW18523   0.470   8.722   7.355
 5530SOL    HW118524   0.447   8.759   7.265
 5530SOL    HW218525   0.387   8.690   7.400
 5531SOL     OW18526   1.159   9.206   5.809
 5531SOL    HW118527   1.069   9.187   5.850
 5531SOL    HW218528   1.184   9.129   5.749
 5532SOL     OW18529   0.146   7.744   7.068
 5532SOL    HW118530   0.058   7.755   7.021
 5532SOL    HW218531   0.145   7.660   7.123
 5533SOL     OW18532   1.656   8.824   5.694
 5533SOL    HW118533   1.628   8.919   5.687
 5533SOL    HW218534   1.583   8.765   5.658
 5534SOL     OW18535   0.492   9.227   5.853
 5534SOL    HW118536   0.526   9.275   5.933
 5534SOL    HW218537   0.565   9.169   5.816
 5535SOL     OW18538   1.463   7.620   5.993
 5535SOL    HW118539   1.455   7.559   5.914
 5535SOL    HW218540   1.557   7.619   6.026
 5536SOL     OW18541   0.198   9.212   6.804
 5536SOL    HW118542   0.266   9.139   6.811
 5536SOL    HW218543   0.141   9.198   6.723
 5537SOL     OW18544   0.924   9.149   6.454
 5537SOL    HW118545   1.017   9.112   6.456
 5537SOL    HW218546   0.869   9.098   6.387
 5538SOL     OW18547   0.441   8.145   6.019
 5538SOL    HW118548   0.431   8.048   6.041
 5538SOL    HW218549   0.353   8.191   6.031
 5539SOL     OW18550   1.444   7.662   7.296
 5539SOL    HW118551   1.455   7.686   7.392
 5539SOL    HW218552   1.382   7.585   7.287
 5540SOL     OW18553   0.865   7.766   7.432
 5540SOL    HW118554   0.937   7.705   7.400
 5540SOL    HW218555   0.787   7.712   7.463
 5541SOL     OW18556   0.876   8.940   6.787
 5541SOL    HW118557   0.847   8.898   6.700
 5541SOL    HW218558   0.929   8.873   6.840
 5542SOL     OW18559   1.281   8.064   7.017
 5542SOL    HW118560   1.314   8.024   7.102
 5542SOL    HW218561   1.324   8.153   7.003
 5543SOL     OW18562   0.819   8.779   6.567
 5543SOL    HW118563   0.908   8.789   6.523
 5543SOL    HW218564   0.747   8.785   6.498
 5544SOL     OW18565   0.910   7.929   6.456
 5544SOL    HW118566   0.897   7.914   6.358
 5544SOL    HW218567   0.947   7.845   6.498
 5545SOL     OW18568   0.574   7.499   6.038
 5545SOL    HW118569   0.510   7.502   6.115
 5545SOL    HW218570   0.576   7.588   5.992
 5546SOL     OW18571   1.434   8.669   5.612
 5546SOL    HW118572   1.483   8.601   5.667
 5546SOL    HW218573   1.351   8.696   5.660
 5547SOL     OW18574   0.321   7.418   5.724
 5547SOL    HW118575   0.375   7.494   5.688
 5547SOL    HW218576   0.374   7.369   5.794
 5548SOL     OW18577   1.014   7.651   6.038
 5548SOL    HW118578   0.955   7.665   5.959
 5548SOL    HW218579   1.097   7.706   6.027
 5549SOL     OW18580   1.025   8.172   7.015
 5549SOL    HW118581   0.951   8.105   7.008
 5549SOL    HW218582   1.113   8.126   7.007
 5550SOL     OW18583   1.177   9.057   6.403
 5550SOL    HW118584   1.208   9.101   6.319
 5550SOL    HW218585   1.226   9.097   6.481
 5551SOL     OW18586   0.520   8.561   6.326
 5551SOL    HW118587   0.449   8.550   6.395
 5551SOL    HW218588   0.478   8.567   6.236
 5552SOL     OW18589   1.240   9.224   6.187
 5552SOL    HW118590   1.288   9.285   6.124
 5552SOL    HW218591   1.157   9.269   6.220
 5553SOL     OW18592   0.962   7.922   5.738
 5553SOL    HW118593   0.925   7.994   5.678
 5553SOL    HW218594   1.060   7.936   5.751
 5554SOL     OW18595   0.128   8.070   6.937
 5554SOL    HW118596   0.212   8.054   6.887
 5554SOL    HW218597   0.150   8.112   7.025
 5555SOL     OW18598   0.558   7.646   6.839
 5555SOL    HW118599   0.614   7.601   6.909
 5555SOL    HW218600   0.461   7.624   6.854
 5556SOL     OW18601   0.896   7.871   6.192
 5556SOL    HW118602   0.861   7.926   6.116
 5556SOL    HW218603   0.933   7.785   6.158
 5557SOL     OW18604   1.059   7.540   6.362
 5557SOL    HW118605   1.109   7.516   6.278
 5557SOL    HW218606   1.008   7.461   6.395
 5558SOL     OW18607   1.412   8.617   6.426
 5558SOL    HW118608   1.315   8.593   6.434
 5558SOL    HW218609   1.438   8.617   6.329
 5559SOL     OW18610   1.457   8.077   6.506
 5559SOL    HW118611   1.387   8.006   6.514
 5559SOL    HW218612   1.515   8.075   6.587
 5560SOL     OW18613   1.843   8.211   5.963
 5560SOL    HW118614   1.904   8.171   6.031
 5560SOL    HW218615   1.841   8.151   5.882
 5561SOL     OW18616   0.515   8.879   5.699
 5561SOL    HW118617   0.429   8.862   5.746
 5561SOL    HW218618   0.515   8.833   5.610
 5562SOL     OW18619   1.787   8.757   6.184
 5562SOL    HW118620   1.882   8.757   6.215
 5562SOL    HW218621   1.739   8.833   6.227
 5563SOL     OW18622   1.356   7.995   5.576
 5563SOL    HW118623   1.317   7.980   5.666
 5563SOL    HW218624   1.456   8.003   5.583
 5564SOL     OW18625   0.598   7.741   5.915
 5564SOL    HW118626   0.693   7.721   5.891
 5564SOL    HW218627   0.557   7.800   5.845
 5565SOL     OW18628   1.702   8.706   7.093
 5565SOL    HW118629   1.770   8.636   7.115
 5565SOL    HW218630   1.737   8.796   7.119
 5566SOL     OW18631   1.007   8.742   6.920
 5566SOL    HW118632   0.927   8.732   6.978
 5566SOL    HW218633   1.087   8.704   6.967
 5567SOL     OW18634   1.621   9.061   7.273
 5567SOL    HW118635   1.567   9.096   7.196
 5567SOL    HW218636   1.702   9.014   7.238
 5568SOL     OW18637   1.155   8.707   6.694
 5568SOL    HW118638   1.091   8.720   6.770
 5568SOL    HW218639   1.113   8.738   6.609
 5569SOL     OW18640   1.554   8.536   6.667
 5569SOL    HW118641   1.537   8.598   6.744
 5569SOL    HW218642   1.494   8.559   6.591
 5570SOL     OW18643   0.951   7.478   6.963
 5570SOL    HW118644   0.959   7.465   6.864
 5570SOL    HW218645   1.028   7.532   6.996
 5571SOL     OW18646   0.955   8.541   7.340
 5571SOL    HW118647   0.857   8.557   7.354
 5571SOL    HW218648   0.968   8.454   7.292
 5572SOL     OW18649   0.767   8.495   5.988
 5572SOL    HW118650   0.751   8.461   6.080
 5572SOL    HW218651   0.843   8.444   5.946
 5573SOL     OW18652   0.437   8.287   6.847
 5573SOL    HW118653   0.505   8.292   6.920
 5573SOL    HW218654   0.406   8.192   6.837
 5574SOL     OW18655   1.264   7.835   6.866
 5574SOL    HW118656   1.284   7.917   6.918
 5574SOL    HW218657   1.167   7.835   6.840
 5575SOL     OW18658   0.130   9.037   7.025
 5575SOL    HW118659   0.106   9.121   6.975
 5575SOL    HW218660   0.218   9.003   6.992
 5576SOL     OW18661   0.395   8.600   6.089
 5576SOL    HW118662   0.403   8.692   6.050
 5576SOL    HW218663   0.383   8.534   6.015
 5577SOL     OW18664   0.480   8.006   6.471
 5577SOL    HW118665   0.493   8.061   6.389
 5577SOL    HW218666   0.565   8.006   6.525
 5578SOL     OW18667   1.261   8.816   6.011
 5578SOL    HW118668   1.324   8.887   6.042
 5578SOL    HW218669   1.167   8.843   6.033
 5579SOL     OW18670   1.324   8.921   6.711
 5579SOL    HW118671   1.359   8.935   6.804
 5579SOL    HW218672   1.265   8.840   6.710
 5580SOL     OW18673   1.602   8.086   6.044
 5580SOL    HW118674   1.553   8.127   6.120
 5580SOL    HW218675   1.676   8.146   6.016
 5581SOL     OW18676   0.352   8.963   6.880
 5581SOL    HW118677   0.320   8.925   6.794
 5581SOL    HW218678   0.449   8.987   6.872
 5582SOL     OW18679   0.474   8.116   7.192
 5582SOL    HW118680   0.535   8.170   7.135
 5582SOL    HW218681   0.461   8.025   7.151
 5583SOL     OW18682   1.630   8.249   7.268
 5583SOL    HW118683   1.544   8.299   7.258
 5583SOL    HW218684   1.686   8.265   7.187
 5584SOL     OW18685   1.043   7.595   7.329
 5584SOL    HW118686   1.073   7.676   7.278
 5584SOL    HW218687   1.105   7.519   7.310
 5585SOL     OW18688   0.499   7.485   7.334
 5585SOL    HW118689   0.442   7.438   7.266
 5585SOL    HW218690   0.445   7.554   7.381
 5586SOL     OW18691   0.675   8.284   6.695
 5586SOL    HW118692   0.711   8.375   6.677
 5586SOL    HW218693   0.584   8.291   6.736
 5587SOL     OW18694   1.273   8.277   6.590
 5587SOL    HW118695   1.186   8.239   6.558
 5587SOL    HW218696   1.348   8.219   6.557
 5588SOL     OW18697   1.220   7.976   5.823
 5588SOL    HW118698   1.244   7.899   5.882
 5588SOL    HW218699   1.177   8.048   5.879
 5589SOL     OW18700   0.306   7.587   6.892
 5589SOL    HW118701   0.232   7.639   6.936
 5589SOL    HW218702   0.268   7.504   6.851
 5590SOL     OW18703   0.018   8.786   6.970
 5590SOL    HW118704   0.070   8.719   7.023
 5590SOL    HW218705   0.050   8.878   6.993
 5591SOL     OW18706   0.705   8.019   6.620
 5591SOL    HW118707   0.781   7.996   6.559
 5591SOL    HW218708   0.707   8.117   6.640
 5592SOL     OW18709   1.754   8.387   7.472
 5592SOL    HW118710   1.713   8.330   7.401
 5592SOL    HW218711   1.688   8.403   7.545
 5593SOL     OW18712   0.393   7.505   6.234
 5593SOL    HW118713   0.340   7.589   6.243
 5593SOL    HW218714   0.368   7.441   6.307
 5594SOL     OW18715   1.668   7.857   5.909
 5594SOL    HW118716   1.683   7.785   5.976
 5594SOL    HW218717   1.629   7.937   5.954
 5595SOL     OW18718   1.028   8.168   6.507
 5595SOL    HW118719   1.004   8.188   6.602
 5595SOL    HW218720   0.990   8.080   6.480
 5596SOL     OW18721   1.837   8.938   7.143
 5596SOL    HW118722   1.865   8.965   7.051
 5596SOL    HW218723   1.918   8.936   7.203
 5597SOL     OW18724   0.423   8.255   7.426
 5597SOL    HW118725   0.500   8.281   7.484
 5597SOL    HW218726   0.455   8.206   7.345
 5598SOL     OW18727   1.638   7.663   5.706
 5598SOL    HW118728   1.562   7.603   5.730
 5598SOL    HW218729   1.637   7.744   5.765
 5599SOL     OW18730   1.269   8.253   5.546
 5599SOL    HW118731   1.294   8.156   5.547
 5599SOL    HW218732   1.309   8.297   5.466
 5600SOL     OW18733   1.063   8.806   6.454
 5600SOL    HW118734   1.099   8.727   6.403
 5600SOL    HW218735   1.110   8.889   6.425
 5601SOL     OW18736   0.331   8.266   6.453
 5601SOL    HW118737   0.399   8.259   6.380
 5601SOL    HW218738   0.345   8.193   6.520
 5602SOL     OW18739   1.094   7.828   7.199
 5602SOL    HW118740   1.022   7.895   7.219
 5602SOL    HW218741   1.184   7.871   7.212
 5603SOL     OW18742   1.169   7.629   7.032
 5603SOL    HW118743   1.132   7.701   7.091
 5603SOL    HW218744   1.222   7.669   6.958
 5604SOL     OW18745  10.000   8.792   5.816
 5604SOL    HW118746   9.971   8.782   5.720
 5604SOL    HW218747   0.018   8.701   5.855
 5605SOL     OW18748   0.050   9.157   6.569
 5605SOL    HW118749   0.090   9.093   6.504
 5605SOL    HW218750   0.029   9.243   6.522
 5606SOL     OW18751   0.511   8.970   6.536
 5606SOL    HW118752   0.552   9.061   6.537
 5606SOL    HW218753   0.557   8.914   6.467
 5607SOL     OW18754   0.943   8.226   6.751
 5607SOL    HW118755   0.981   8.224   6.844
 5607SOL    HW218756   0.847   8.251   6.755
 5608SOL     OW18757   9.958   7.960   6.744
 5608SOL    HW118758   9.984   7.865   6.731
 5608SOL    HW218759   0.011   7.999   6.819
 5609SOL     OW18760   0.130   7.937   7.269
 5609SOL    HW118761   0.132   7.879   7.188
 5609SOL    HW218762   0.144   8.033   7.242
 5610SOL     OW18763   1.400   8.392   7.230
 5610SOL    HW118764   1.410   8.492   7.231
 5610SOL    HW218765   1.381   8.362   7.136
 5611SOL     OW18766   0.834   8.016   5.961
 5611SOL    HW118767   0.873   7.970   5.882
 5611SOL    HW218768   0.756   8.072   5.932
 5612SOL     OW18769   1.611   8.057   6.728
 5612SOL    HW118770   1.565   8.003   6.799
 5612SOL    HW218771   1.704   8.023   6.716
 5613SOL     OW18772   0.729   7.857   6.836
 5613SOL    HW118773   0.667   7.778   6.830
 5613SOL    HW218774   0.716   7.916   6.756
 5614SOL     OW18775   1.007   9.104   6.972
 5614SOL    HW118776   0.959   9.053   6.901
 5614SOL    HW218777   0.986   9.202   6.963
 5615SOL     OW18778   0.514   7.915   5.720
 5615SOL    HW118779   0.576   7.990   5.743
 5615SOL    HW218780   0.425   7.952   5.693
 5616SOL     OW18781   0.189   8.599   7.090
 5616SOL    HW118782   0.203   8.543   7.171
 5616SOL    HW218783   0.192   8.541   7.008
 5617SOL     OW18784   1.249   8.466   6.785
 5617SOL    HW118785   1.259   8.396   6.714
 5617SOL    HW218786   1.220   8.552   6.744
 5618SOL     OW18787   1.376   8.323   5.792
 5618SOL    HW118788   1.346   8.256   5.860
 5618SOL    HW218789   1.334   8.302   5.703
 5619SOL     OW18790   1.758   9.188   6.729
 5619SOL    HW118791   1.830   9.222   6.669
 5619SOL    HW218792   1.742   9.091   6.710
 5620SOL     OW18793   1.283   9.173   6.627
 5620SOL    HW118794   1.368   9.225   6.634
 5620SOL    HW218795   1.296   9.083   6.666
 5621SOL     OW18796   0.154   8.641   6.690
 5621SOL    HW118797   0.201   8.729   6.680
 5621SOL    HW218798   0.056   8.656   6.703
 5622SOL     OW18799   0.705   9.170   7.240
 5622SOL    HW118800   0.676   9.248   7.295
 5622SOL    HW218801   0.672   9.182   7.146
 5623SOL     OW18802   1.738   7.641   6.071
 5623SOL    HW118803   1.786   7.604   5.991
 5623SOL    HW218804   1.744   7.577   6.147
 5624SOL     OW18805   1.423   9.022   6.106
 5624SOL    HW118806   1.483   9.057   6.035
 5624SOL    HW218807   1.356   9.092   6.132
 5625SOL     OW18808   1.303   8.391   6.215
 5625SOL    HW118809   1.376   8.326   6.232
 5625SOL    HW218810   1.340   8.474   6.173
 5626SOL     OW18811   0.696   9.079   5.741
 5626SOL    HW118812   0.722   9.104   5.648
 5626SOL    HW218813   0.637   8.998   5.739
 5627SOL     OW18814   1.627   9.138   6.973
 5627SOL    HW118815   1.674   9.145   6.885
 5627SOL    HW218816   1.651   9.216   7.030
 5628SOL     OW18817   1.859   7.614   6.547
 5628SOL    HW118818   1.884   7.521   6.519
 5628SOL    HW218819   1.765   7.632   6.520
 5629SOL     OW18820   0.256   7.740   6.262
 5629SOL    HW118821   0.156   7.737   6.272
 5629SOL    HW218822   0.298   7.761   6.351
 5630SOL     OW18823   1.239   9.004   5.643
 5630SOL    HW118824   1.233   8.911   5.680
 5630SOL    HW218825   1.163   9.019   5.580
 5631SOL     OW18826   0.821   8.466   6.977
 5631SOL    HW118827   0.908   8.433   7.014
 5631SOL    HW218828   0.799   8.555   7.015
 5632SOL     OW18829   0.956   8.352   5.863
 5632SOL    HW118830   0.982   8.355   5.766
 5632SOL    HW218831   1.011   8.283   5.909
 5633SOL     OW18832   1.506   9.079   5.663
 5633SOL    HW118833   1.411   9.049   5.654
 5633SOL    HW218834   1.550   9.078   5.574
 5634SOL     OW18835   0.369   8.804   7.115
 5634SOL    HW118836   0.375   8.859   7.032
 5634SOL    HW218837   0.303   8.731   7.102
 5635SOL     OW18838   1.518   8.704   6.889
 5635SOL    HW118839   1.586   8.689   6.961
 5635SOL    HW218840   1.474   8.793   6.903
 5636SOL     OW18841   1.142   8.556   6.368
 5636SOL    HW118842   1.058   8.512   6.399
 5636SOL    HW218843   1.192   8.495   6.306
 5637SOL     OW18844   1.039   7.706   6.567
 5637SOL    HW118845   1.049   7.663   6.477
 5637SOL    HW218846   1.031   7.635   6.637
 5638SOL     OW18847   0.622   8.901   6.098
 5638SOL    HW118848   0.674   8.856   6.024
 5638SOL    HW218849   0.525   8.902   6.074
 5639SOL     OW18850   1.786   7.766   7.018
 5639SOL    HW118851   1.841   7.848   7.003
 5639SOL    HW218852   1.805   7.699   6.946
 5640SOL     OW18853   0.275   8.808   5.817
 5640SOL    HW118854   0.175   8.806   5.819
 5640SOL    HW218855   0.310   8.831   5.907
 5641SOL     OW18856   0.251   8.438   7.308
 5641SOL    HW118857   0.240   8.515   7.371
 5641SOL    HW218858   0.323   8.377   7.341
 5642SOL     OW18859   0.700   7.543   7.045
 5642SOL    HW118860   0.793   7.527   7.012
 5642SOL    HW218861   0.703   7.563   7.143
 5643SOL     OW18862   0.156   7.716   5.574
 5643SOL    HW118863   0.078   7.656   5.563
 5643SOL    HW218864   0.143   7.799   5.519
 5644SOL     OW18865   1.385   8.313   6.968
 5644SOL    HW118866   1.323   8.364   6.908
 5644SOL    HW218867   1.477   8.312   6.929
 5645SOL     OW18868   0.082   7.522   5.800
 5645SOL    HW118869   0.099   7.568   5.887
 5645SOL    HW218870   0.168   7.481   5.767
 5646SOL     OW18871   1.201   8.752   5.740
 5646SOL    HW118872   1.103   8.736   5.728
 5646SOL    HW218873   1.221   8.760   5.838
 5647SOL     OW18874   0.643   8.256   7.025
 5647SOL    HW118875   0.699   8.338   7.012
 5647SOL    HW218876   0.703   8.175   7.022
 5648SOL     OW18877   1.518   9.309   6.645
 5648SOL    HW118878   1.541   9.369   6.568
 5648SOL    HW218879   1.601   9.264   6.678
 5649SOL     OW18880   1.454   8.665   7.229
 5649SOL    HW118881   1.470   8.666   7.328
 5649SOL    HW218882   1.539   8.686   7.181
 5650SOL     OW18883   0.382   9.262   7.186
 5650SOL    HW118884   0.301   9.317   7.168
 5650SOL    HW218885   0.359   9.191   7.253
 5651SOL     OW18886   1.621   8.318   6.830
 5651SOL    HW118887   1.624   8.232   6.779
 5651SOL    HW218888   1.602   8.393   6.767
 5652SOL     OW18889   1.252   7.786   6.020
 5652SOL    HW118890   1.327   7.721   6.008
 5652SOL    HW218891   1.266   7.838   6.104
 5653SOL     OW18892   0.531   8.205   6.274
 5653SOL    HW118893   0.610   8.266   6.269
 5653SOL    HW218894   0.501   8.181   6.181
 5654SOL     OW18895   1.699   7.792   7.279
 5654SOL    HW118896   1.733   7.782   7.185
 5654SOL    HW218897   1.617   7.736   7.290
 5655SOL     OW18898   1.783   8.310   7.052
 5655SOL    HW118899   1.822   8.400   7.072
 5655SOL    HW218900   1.730   8.315   6.967
 5656SOL     OW18901   0.905   8.785   5.679
 5656SOL    HW118902   0.859   8.798   5.767
 5656SOL    HW218903   0.918   8.875   5.636
 5657SOL     OW18904   0.645   9.212   6.519
 5657SOL    HW118905   0.616   9.308   6.513
 5657SOL    HW218906   0.744   9.206   6.511
 5658SOL     OW18907   0.919   8.420   6.455
 5658SOL    HW118908   0.955   8.328   6.472
 5658SOL    HW218909   0.880   8.457   6.539
 5659SOL     OW18910   1.015   8.338   5.594
 5659SOL    HW118911   0.995   8.412   5.531
 5659SOL    HW218912   1.109   8.305   5.579
 5660SOL     OW18913   1.858   9.014   6.444
 5660SOL    HW118914   1.791   9.003   6.370
 5660SOL    HW218915   1.821   8.973   6.527
 5661SOL     OW18916   0.242   8.644   7.484
 5661SOL    HW118917   0.160   8.689   7.450
 5661SOL    HW218918   0.257   8.670   7.580
 5662SOL     OW18919   0.256   8.727   6.291
 5662SOL    HW118920   0.262   8.670   6.373
 5662SOL    HW218921   0.284   8.673   6.212
 5663SOL     OW18922   1.839   7.589   6.824
 5663SOL    HW118923   1.835   7.489   6.819
 5663SOL    HW218924   1.846   7.626   6.731
 5664SOL     OW18925   0.430   7.886   6.089
 5664SOL    HW118926   0.493   7.825   6.039
 5664SOL    HW218927   0.374   7.832   6.151
 5665SOL     OW18928   1.721   8.928   6.663
 5665SOL    HW118929   1.640   8.896   6.614
 5665SOL    HW218930   1.756   8.855   6.722
 5666SOL     OW18931   0.382   8.020   6.834
 5666SOL    HW118932   0.398   7.963   6.915
 5666SOL    HW218933   0.429   7.980   6.756
 5667SOL     OW18934   0.827   8.989   6.261
 5667SOL    HW118935   0.761   9.002   6.187
 5667SOL    HW218936   0.798   8.913   6.319
 5668SOL     OW18937   1.421   7.693   6.692
 5668SOL    HW118938   1.427   7.596   6.716
 5668SOL    HW218939   1.372   7.742   6.764
 5669SOL     OW18940   1.012   7.459   6.697
 5669SOL    HW118941   0.968   7.421   6.616
 5669SOL    HW218942   1.099   7.412   6.714
 5670SOL     OW18943   0.802   8.766   5.937
 5670SOL    HW118944   0.791   8.669   5.955
 5670SOL    HW218945   0.882   8.801   5.984
 5671SOL     OW18946   0.621   9.012   6.864
 5671SOL    HW118947   0.611   9.100   6.911
 5671SOL    HW218948   0.714   9.003   6.831
 5672SOL     OW18949   1.445   7.481   5.757
 5672SOL    HW118950   1.482   7.394   5.725
 5672SOL    HW218951   1.347   7.484   5.739
 5673SOL     OW18952   1.296   7.926   6.250
 5673SOL    HW118953   1.249   8.014   6.243
 5673SOL    HW218954   1.287   7.891   6.343
 5674SOL     OW18955   1.600   7.661   6.489
 5674SOL    HW118956   1.538   7.679   6.565
 5674SOL    HW218957   1.591   7.733   6.420
 5675SOL     OW18958   0.102   8.551   5.902
 5675SOL    HW118959   0.199   8.535   5.882
 5675SOL    HW218960   0.069   8.477   5.961
 5676SOL     OW18961   0.910   9.136   5.914
 5676SOL    HW118962   0.833   9.112   5.854
 5676SOL    HW218963   0.885   9.215   5.970
 5677SOL     OW18964   0.190   7.979   7.538
 5677SOL    HW118965   0.175   8.076   7.559
 5677SOL    HW218966   0.164   7.962   7.443
 5678SOL     OW18967   0.169   7.727   8.491
 5678SOL    HW118968   0.222   7.687   8.567
 5678SOL    HW218969   0.072   7.725   8.514
 5679SOL     OW18970   9.915   7.775   8.198
 5679SOL    HW118971   9.911   7.865   8.241
 5679SOL    HW218972   9.909   7.785   8.099
 5680SOL     OW18973   1.591   8.971   8.143
 5680SOL    HW118974   1.528   8.949   8.218
 5680SOL    HW218975   1.538   9.002   8.064
 5681SOL     OW18976   1.200   8.180   8.122
 5681SOL    HW118977   1.254   8.264   8.120
 5681SOL    HW218978   1.147   8.176   8.207
 5682SOL     OW18979   1.759   8.037   7.644
 5682SOL    HW118980   1.717   8.044   7.553
 5682SOL    HW218981   1.707   7.972   7.699
 5683SOL     OW18982   0.676   8.528   8.517
 5683SOL    HW118983   0.583   8.531   8.481
 5683SOL    HW218984   0.731   8.599   8.475
 5684SOL     OW18985   0.918   8.184   9.216
 5684SOL    HW118986   0.944   8.252   9.284
 5684SOL    HW218987   0.910   8.227   9.126
 5685SOL     OW18988   0.698   8.408   8.161
 5685SOL    HW118989   0.785   8.411   8.211
 5685SOL    HW218990   0.660   8.500   8.153
 5686SOL     OW18991   0.711   8.600   9.310
 5686SOL    HW118992   0.777   8.667   9.343
 5686SOL    HW218993   0.635   8.647   9.264
 5687SOL     OW18994   0.369   8.937   8.577
 5687SOL    HW118995   0.307   8.861   8.554
 5687SOL    HW218996   0.416   8.966   8.494
 5688SOL     OW18997   1.421   8.968   8.846
 5688SOL    HW118998   1.482   9.046   8.860
 5688SOL    HW218999   1.341   8.978   8.906
 5689SOL     OW19000   0.496   7.791   8.899
 5689SOL    HW119001   0.578   7.738   8.921
 5689SOL    HW219002   0.415   7.741   8.929
 5690SOL     OW19003   1.590   7.907   8.208
 5690SOL    HW119004   1.513   7.902   8.144
 5690SOL    HW219005   1.571   7.976   8.277
 5691SOL     OW19006   1.104   8.788   9.140
 5691SOL    HW119007   1.181   8.762   9.199
 5691SOL    HW219008   1.040   8.712   9.134
 5692SOL     OW19009   0.056   8.926   7.943
 5692SOL    HW119010   0.083   9.019   7.970
 5692SOL    HW219011   0.102   8.860   8.002
 5693SOL     OW19012   0.431   8.531   8.380
 5693SOL    HW119013   0.423   8.432   8.370
 5693SOL    HW219014   0.341   8.570   8.399
 5694SOL     OW19015   0.629   8.341   7.597
 5694SOL    HW119016   0.636   8.415   7.530
 5694SOL    HW219017   0.714   8.334   7.648
 5695SOL     OW19018   1.631   7.572   8.897
 5695SOL    HW119019   1.711   7.602   8.846
 5695SOL    HW219020   1.613   7.636   8.972
 5696SOL     OW19021   1.866   9.267   7.750
 5696SOL    HW119022   1.920   9.238   7.829
 5696SOL    HW219023   1.900   9.356   7.718
 5697SOL     OW19024   0.020   9.096   7.698
 5697SOL    HW119025   0.034   8.999   7.682
 5697SOL    HW219026   0.059   9.121   7.787
 5698SOL     OW19027   1.643   8.344   8.007
 5698SOL    HW119028   1.706   8.289   7.951
 5698SOL    HW219029   1.633   8.435   7.966
 5699SOL     OW19030   1.677   8.577   7.863
 5699SOL    HW119031   1.763   8.548   7.822
 5699SOL    HW219032   1.694   8.646   7.934
 5700SOL     OW19033   0.253   8.214   9.034
 5700SOL    HW119034   0.351   8.211   9.057
 5700SOL    HW219035   0.219   8.307   9.049
 5701SOL     OW19036   0.588   8.918   8.109
 5701SOL    HW119037   0.578   8.821   8.127
 5701SOL    HW219038   0.549   8.940   8.020
 5702SOL     OW19039   1.249   8.643   8.875
 5702SOL    HW119040   1.273   8.582   8.801
 5702SOL    HW219041   1.324   8.648   8.941
 5703SOL     OW19042   0.861   7.472   7.919
 5703SOL    HW119043   0.921   7.550   7.898
 5703SOL    HW219044   0.765   7.500   7.907
 5704SOL     OW19045   0.219   8.404   8.643
 5704SOL    HW119046   0.299   8.343   8.651
 5704SOL    HW219047   0.220   8.448   8.553
 5705SOL     OW19048   1.554   8.441   7.658
 5705SOL    HW119049   1.484   8.378   7.691
 5705SOL    HW219050   1.593   8.490   7.736
 5706SOL     OW19051   1.221   9.291   9.083
 5706SOL    HW119052   1.209   9.350   9.002
 5706SOL    HW219053   1.218   9.195   9.054
 5707SOL     OW19054   0.287   7.692   9.236
 5707SOL    HW119055   0.345   7.773   9.223
 5707SOL    HW219056   0.194   7.721   9.256
 5708SOL     OW19057   1.424   8.914   8.356
 5708SOL    HW119058   1.378   8.915   8.445
 5708SOL    HW219059   1.429   8.820   8.323
 5709SOL     OW19060   1.611   9.416   7.940
 5709SOL    HW119061   1.615   9.321   7.906
 5709SOL    HW219062   1.591   9.415   8.038
 5710SOL     OW19063   1.292   7.837   8.391
 5710SOL    HW119064   1.203   7.792   8.389
 5710SOL    HW219065   1.351   7.792   8.458
 5711SOL     OW19066   1.608   9.179   7.774
 5711SOL    HW119067   1.703   9.209   7.764
 5711SOL    HW219068   1.575   9.143   7.686
 5712SOL     OW19069   0.784   8.030   8.895
 5712SOL    HW119070   0.753   8.004   8.986
 5712SOL    HW219071   0.764   7.956   8.830
 5713SOL     OW19072   1.379   7.938   9.091
 5713SOL    HW119073   1.379   7.987   9.178
 5713SOL    HW219074   1.440   7.859   9.096
 5714SOL     OW19075   0.919   8.365   8.974
 5714SOL    HW119076   0.971   8.296   8.925
 5714SOL    HW219077   0.865   8.419   8.909
 5715SOL     OW19078   1.012   7.798   8.651
 5715SOL    HW119079   0.918   7.811   8.682
 5715SOL    HW219080   1.012   7.762   8.558
 5716SOL     OW19081   1.099   8.169   7.866
 5716SOL    HW119082   1.135   8.173   7.959
 5716SOL    HW219083   1.005   8.134   7.868
 5717SOL     OW19084   0.172   9.304   9.104
 5717SOL    HW119085   0.123   9.290   9.190
 5717SOL    HW219086   0.217   9.219   9.077
 5718SOL     OW19087   0.943   7.881   7.673
 5718SOL    HW119088   1.039   7.908   7.670
 5718SOL    HW219089   0.917   7.841   7.586
 5719SOL     OW19090   1.653   8.067   9.314
 5719SOL    HW119091   1.648   8.151   9.260
 5719SOL    HW219092   1.687   7.993   9.256
 5720SOL     OW19093   1.411   8.632   7.977
 5720SOL    HW119094   1.492   8.629   7.918
 5720SOL    HW219095   1.350   8.704   7.947
 5721SOL     OW19096   0.620   7.639   8.374
 5721SOL    HW119097   0.600   7.644   8.471
 5721SOL    HW219098   0.606   7.729   8.332
 5722SOL     OW19099   1.028   8.978   7.968
 5722SOL    HW119100   0.980   8.969   7.881
 5722SOL    HW219101   0.967   9.016   8.037
 5723SOL     OW19102   0.361   9.257   8.302
 5723SOL    HW119103   0.405   9.169   8.317
 5723SOL    HW219104   0.412   9.329   8.349
 5724SOL     OW19105   1.192   9.013   8.990
 5724SOL    HW119106   1.170   8.931   9.042
 5724SOL    HW219107   1.121   9.029   8.922
 5725SOL     OW19108   0.488   8.732   9.198
 5725SOL    HW119109   0.483   8.708   9.101
 5725SOL    HW219110   0.395   8.742   9.234
 5726SOL     OW19111   1.132   9.169   7.582
 5726SOL    HW119112   1.056   9.143   7.641
 5726SOL    HW219113   1.178   9.087   7.547
 5727SOL     OW19114   0.229   7.702   8.965
 5727SOL    HW119115   0.132   7.696   8.942
 5727SOL    HW219116   0.243   7.676   9.060
 5728SOL     OW19117   1.679   8.851   7.575
 5728SOL    HW119118   1.629   8.937   7.563
 5728SOL    HW219119   1.622   8.775   7.544
 5729SOL     OW19120   1.395   7.544   7.901
 5729SOL    HW119121   1.391   7.521   7.803
 5729SOL    HW219122   1.488   7.532   7.934
 5730SOL     OW19123   0.177   9.141   8.632
 5730SOL    HW119124   0.253   9.075   8.631
 5730SOL    HW219125   0.138   9.149   8.540
 5731SOL     OW19126   0.953   9.163   8.329
 5731SOL    HW119127   1.041   9.115   8.324
 5731SOL    HW219128   0.891   9.126   8.260
 5732SOL     OW19129   1.513   7.698   9.129
 5732SOL    HW119130   1.508   7.698   9.229
 5732SOL    HW219131   1.451   7.628   9.093
 5733SOL     OW19132   0.695   7.565   7.504
 5733SOL    HW119133   0.757   7.490   7.526
 5733SOL    HW219134   0.624   7.532   7.442
 5734SOL     OW19135   0.774   7.697   9.246
 5734SOL    HW119136   0.861   7.651   9.226
 5734SOL    HW219137   0.715   7.635   9.299
 5735SOL     OW19138   0.985   9.036   8.811
 5735SOL    HW119139   0.976   9.080   8.722
 5735SOL    HW219140   0.989   8.936   8.799
 5736SOL     OW19141   1.281   8.060   8.868
 5736SOL    HW119142   1.320   8.024   8.953
 5736SOL    HW219143   1.325   8.147   8.845
 5737SOL     OW19144   0.801   8.716   8.370
 5737SOL    HW119145   0.892   8.755   8.357
 5737SOL    HW219146   0.743   8.739   8.292
 5738SOL     OW19147   0.955   7.926   8.326
 5738SOL    HW119148   0.933   7.920   8.228
 5738SOL    HW219149   0.988   7.838   8.358
 5739SOL     OW19150   0.610   7.558   7.876
 5739SOL    HW119151   0.537   7.576   7.942
 5739SOL    HW219152   0.615   7.634   7.810
 5740SOL     OW19153   1.485   8.657   7.502
 5740SOL    HW119154   1.517   8.571   7.543
 5740SOL    HW219155   1.402   8.687   7.549
 5741SOL     OW19156   0.308   7.593   7.713
 5741SOL    HW119157   0.330   7.624   7.621
 5741SOL    HW219158   0.344   7.501   7.726
 5742SOL     OW19159   0.994   7.705   7.879
 5742SOL    HW119160   0.962   7.759   7.802
 5742SOL    HW219161   1.092   7.721   7.894
 5743SOL     OW19162   1.023   8.157   8.837
 5743SOL    HW119163   0.949   8.093   8.860
 5743SOL    HW219164   1.111   8.111   8.848
 5744SOL     OW19165   1.194   9.046   8.251
 5744SOL    HW119166   1.211   9.099   8.167
 5744SOL    HW219167   1.280   9.008   8.284
 5745SOL     OW19168   0.545   8.650   8.158
 5745SOL    HW119169   0.505   8.612   8.241
 5745SOL    HW219170   0.489   8.624   8.079
 5746SOL     OW19171   1.244   9.258   8.043
 5746SOL    HW119172   1.279   9.321   7.973
 5746SOL    HW219173   1.159   9.295   8.080
 5747SOL     OW19174   0.143   8.088   8.819
 5747SOL    HW119175   0.220   8.035   8.787
 5747SOL    HW219176   0.170   8.141   8.900
 5748SOL     OW19177   0.563   7.636   8.639
 5748SOL    HW119178   0.592   7.553   8.687
 5748SOL    HW219179   0.467   7.654   8.658
 5749SOL     OW19180   0.908   7.894   8.065
 5749SOL    HW119181   0.879   7.967   8.002
 5749SOL    HW219182   0.936   7.814   8.012
 5750SOL     OW19183   1.028   7.514   8.176
 5750SOL    HW119184   0.969   7.524   8.096
 5750SOL    HW219185   0.988   7.446   8.238
 5751SOL     OW19186   1.471   8.676   8.243
 5751SOL    HW119187   1.523   8.594   8.264
 5751SOL    HW219188   1.441   8.674   8.148
 5752SOL     OW19189   1.463   8.060   8.407
 5752SOL    HW119190   1.392   7.989   8.410
 5752SOL    HW219191   1.523   8.049   8.486
 5753SOL     OW19192   1.814   8.238   7.820
 5753SOL    HW119193   1.873   8.189   7.884
 5753SOL    HW219194   1.786   8.176   7.746
 5754SOL     OW19195   0.529   8.865   7.585
 5754SOL    HW119196   0.450   8.829   7.635
 5754SOL    HW219197   0.532   8.825   7.493
 5755SOL     OW19198   1.738   8.745   8.058
 5755SOL    HW119199   1.824   8.732   8.106
 5755SOL    HW219200   1.691   8.825   8.094
 5756SOL     OW19201   1.353   8.035   7.490
 5756SOL    HW119202   1.311   7.996   7.571
 5756SOL    HW219203   1.452   8.020   7.493
 5757SOL     OW19204   0.601   7.747   7.682
 5757SOL    HW119205   0.635   7.680   7.616
 5757SOL    HW219206   0.550   7.818   7.634
 5758SOL     OW19207   1.741   8.673   8.971
 5758SOL    HW119208   1.828   8.624   8.958
 5758SOL    HW219209   1.759   8.762   9.012
 5759SOL     OW19210   1.015   8.767   8.791
 5759SOL    HW119211   0.926   8.744   8.832
 5759SOL    HW219212   1.087   8.719   8.840
 5760SOL     OW19213   1.642   9.086   9.122
 5760SOL    HW119214   1.615   9.124   9.034
 5760SOL    HW219215   1.713   9.017   9.109
 5761SOL     OW19216   1.149   8.710   8.561
 5761SOL    HW119217   1.086   8.726   8.636
 5761SOL    HW219218   1.106   8.739   8.475
 5762SOL     OW19219   0.955   7.520   8.839
 5762SOL    HW119220   0.970   7.503   8.741
 5762SOL    HW219221   1.038   7.560   8.878
 5763SOL     OW19222   0.947   8.558   9.162
 5763SOL    HW119223   0.856   8.569   9.202
 5763SOL    HW219224   0.944   8.489   9.090
 5764SOL     OW19225   0.436   8.236   8.698
 5764SOL    HW119226   0.497   8.262   8.773
 5764SOL    HW219227   0.405   8.142   8.711
 5765SOL     OW19228   1.260   7.816   8.749
 5765SOL    HW119229   1.274   7.907   8.788
 5765SOL    HW219230   1.167   7.810   8.711
 5766SOL     OW19231   9.974   8.974   8.752
 5766SOL    HW119232   0.035   9.046   8.720
 5766SOL    HW219233   9.984   8.964   8.852
 5767SOL     OW19234   0.384   8.585   7.939
 5767SOL    HW119235   0.363   8.646   7.862
 5767SOL    HW219236   0.418   8.498   7.904
 5768SOL     OW19237   0.551   7.945   8.295
 5768SOL    HW119238   0.554   8.029   8.240
 5768SOL    HW219239   0.618   7.949   8.368
 5769SOL     OW19240   1.261   8.847   7.896
 5769SOL    HW119241   1.329   8.920   7.906
 5769SOL    HW219242   1.172   8.880   7.928
 5770SOL     OW19243   1.312   8.924   8.601
 5770SOL    HW119244   1.352   8.930   8.692
 5770SOL    HW219245   1.256   8.841   8.595
 5771SOL     OW19246   1.502   8.108   7.887
 5771SOL    HW119247   1.539   8.168   7.958
 5771SOL    HW219248   1.444   8.161   7.825
 5772SOL     OW19249   0.516   8.195   9.117
 5772SOL    HW119250   0.558   8.232   9.033
 5772SOL    HW219251   0.566   8.113   9.146
 5773SOL     OW19252   1.623   8.284   9.158
 5773SOL    HW119253   1.527   8.308   9.143
 5773SOL    HW219254   1.676   8.308   9.077
 5774SOL     OW19255   1.003   7.571   9.189
 5774SOL    HW119256   1.066   7.648   9.181
 5774SOL    HW219257   1.052   7.486   9.164
 5775SOL     OW19258   0.473   7.482   9.170
 5775SOL    HW119259   0.432   7.425   9.098
 5775SOL    HW219260   0.411   7.556   9.194
 5776SOL     OW19261   0.675   8.257   8.555
 5776SOL    HW119262   0.681   8.353   8.529
 5776SOL    HW219263   0.586   8.239   8.596
 5777SOL     OW19264   1.310   8.289   8.445
 5777SOL    HW119265   1.221   8.255   8.417
 5777SOL    HW219266   1.380   8.219   8.429
 5778SOL     OW19267   1.204   7.960   7.713
 5778SOL    HW119268   1.236   7.889   7.776
 5778SOL    HW219269   1.178   8.041   7.765
 5779SOL     OW19270   0.297   7.629   8.706
 5779SOL    HW119271   0.272   7.653   8.800
 5779SOL    HW219272   0.296   7.530   8.695
 5780SOL     OW19273   0.067   8.738   8.647
 5780SOL    HW119274   0.110   8.687   8.722
 5780SOL    HW219275   0.033   8.825   8.682
 5781SOL     OW19276   0.737   7.998   8.479
 5781SOL    HW119277   0.822   7.986   8.428
 5781SOL    HW219278   0.725   8.095   8.501
 5782SOL     OW19279   1.762   8.460   9.314
 5782SOL    HW119280   1.711   8.393   9.261
 5782SOL    HW219281   1.710   8.485   9.396
 5783SOL     OW19282   0.363   7.354   8.078
 5783SOL    HW119283   0.375   7.451   8.054
 5783SOL    HW219284   0.267   7.329   8.064
 5784SOL     OW19285   1.581   7.870   7.771
 5784SOL    HW119286   1.639   7.814   7.830
 5784SOL    HW219287   1.546   7.948   7.823
 5785SOL     OW19288   1.066   8.171   8.367
 5785SOL    HW119289   1.031   8.200   8.457
 5785SOL    HW219290   1.034   8.078   8.348
 5786SOL     OW19291   0.995   9.018   9.243
 5786SOL    HW119292   0.959   9.082   9.175
 5786SOL    HW219293   1.014   8.930   9.199
 5787SOL     OW19294   1.846   8.921   9.034
 5787SOL    HW119295   1.868   8.928   8.937
 5787SOL    HW219296   1.928   8.944   9.088
 5788SOL     OW19297   0.385   8.366   9.288
 5788SOL    HW119298   0.445   8.401   9.360
 5788SOL    HW219299   0.438   8.307   9.228
 5789SOL     OW19300   1.476   7.725   7.555
 5789SOL    HW119301   1.441   7.640   7.595
 5789SOL    HW219302   1.515   7.782   7.628
 5790SOL     OW19303   1.289   8.296   7.464
 5790SOL    HW119304   1.306   8.198   7.465
 5790SOL    HW219305   1.326   8.335   7.380
 5791SOL     OW19306   1.056   8.807   8.319
 5791SOL    HW119307   1.081   8.727   8.264
 5791SOL    HW219308   1.099   8.889   8.281
 5792SOL     OW19309   0.395   8.265   8.359
 5792SOL    HW119310   0.451   8.232   8.284
 5792SOL    HW219311   0.357   8.188   8.410
 5793SOL     OW19312   0.335   7.944   8.468
 5793SOL    HW119313   0.278   7.862   8.463
 5793SOL    HW219314   0.408   7.938   8.400
 5794SOL     OW19315   1.152   7.797   9.145
 5794SOL    HW119316   1.102   7.850   9.214
 5794SOL    HW219317   1.233   7.848   9.115
 5795SOL     OW19318   1.194   7.624   8.934
 5795SOL    HW119319   1.171   7.681   9.013
 5795SOL    HW219320   1.228   7.681   8.860
 5796SOL     OW19321   0.059   8.830   7.654
 5796SOL    HW119322   0.030   8.806   7.561
 5796SOL    HW219323   0.022   8.762   7.718
 5797SOL     OW19324   0.113   9.134   8.365
 5797SOL    HW119325   0.116   9.044   8.320
 5797SOL    HW219326   0.191   9.189   8.334
 5798SOL     OW19327   0.498   9.025   8.351
 5798SOL    HW119328   0.572   9.083   8.385
 5798SOL    HW219329   0.526   8.981   8.265
 5799SOL     OW19330   0.948   8.249   8.591
 5799SOL    HW119331   0.982   8.223   8.681
 5799SOL    HW219332   0.848   8.252   8.594
 5800SOL     OW19333   0.091   8.058   8.530
 5800SOL    HW119334   0.182   8.025   8.509
 5800SOL    HW219335   0.084   8.079   8.628
 5801SOL     OW19336   0.282   7.952   9.111
 5801SOL    HW119337   0.267   7.890   9.034
 5801SOL    HW219338   0.262   8.046   9.082
 5802SOL     OW19339   1.380   8.378   9.074
 5802SOL    HW119340   1.405   8.475   9.073
 5802SOL    HW219341   1.375   8.344   8.980
 5803SOL     OW19342   0.838   8.061   7.855
 5803SOL    HW119343   0.859   7.995   7.783
 5803SOL    HW219344   0.739   8.068   7.866
 5804SOL     OW19345   1.639   8.022   8.610
 5804SOL    HW119346   1.624   7.939   8.663
 5804SOL    HW219347   1.735   8.031   8.586
 5805SOL     OW19348   0.209   9.021   9.154
 5805SOL    HW119349   0.173   9.077   9.229
 5805SOL    HW219350   0.243   8.935   9.190
 5806SOL     OW19351   0.745   7.841   8.697
 5806SOL    HW119352   0.678   7.766   8.692
 5806SOL    HW219353   0.735   7.900   8.618
 5807SOL     OW19354   0.896   9.178   9.029
 5807SOL    HW119355   0.918   9.121   8.950
 5807SOL    HW219356   0.920   9.273   9.009
 5808SOL     OW19357   0.455   7.920   7.514
 5808SOL    HW119358   0.503   7.992   7.464
 5808SOL    HW219359   0.362   7.949   7.534
 5809SOL     OW19360   0.204   8.587   8.840
 5809SOL    HW119361   0.192   8.545   8.930
 5809SOL    HW219362   0.211   8.515   8.770
 5810SOL     OW19363   1.287   8.484   8.638
 5810SOL    HW119364   1.298   8.417   8.565
 5810SOL    HW219365   1.239   8.565   8.603
 5811SOL     OW19366   1.338   8.273   7.735
 5811SOL    HW119367   1.253   8.256   7.785
 5811SOL    HW219368   1.317   8.283   7.638
 5812SOL     OW19369   1.747   9.144   8.632
 5812SOL    HW119370   1.819   9.178   8.572
 5812SOL    HW219371   1.712   9.057   8.595
 5813SOL     OW19372   1.249   9.194   8.606
 5813SOL    HW119373   1.340   9.236   8.609
 5813SOL    HW219374   1.258   9.094   8.603
 5814SOL     OW19375   0.171   8.598   8.432
 5814SOL    HW119376   0.129   8.653   8.504
 5814SOL    HW219377   0.103   8.574   8.364
 5815SOL     OW19378   0.694   9.138   9.207
 5815SOL    HW119379   0.620   9.206   9.199
 5815SOL    HW219380   0.767   9.161   9.143
 5816SOL     OW19381   1.762   7.703   7.898
 5816SOL    HW119382   1.822   7.680   7.821
 5816SOL    HW219383   1.721   7.620   7.935
 5817SOL     OW19384   1.425   9.066   7.946
 5817SOL    HW119385   1.487   9.107   7.880
 5817SOL    HW219386   1.357   9.133   7.975
 5818SOL     OW19387   0.098   9.168   9.350
 5818SOL    HW119388   0.030   9.128   9.412
 5818SOL    HW219389   0.171   9.210   9.402
 5819SOL     OW19390   1.334   8.417   8.132
 5819SOL    HW119391   1.403   8.411   8.203
 5819SOL    HW219392   1.360   8.486   8.065
 5820SOL     OW19393   0.750   8.765   8.881
 5820SOL    HW119394   0.749   8.799   8.975
 5820SOL    HW219395   0.678   8.810   8.829
 5821SOL     OW19396   0.733   9.059   7.568
 5821SOL    HW119397   0.775   9.031   7.481
 5821SOL    HW219398   0.646   9.011   7.579
 5822SOL     OW19399   1.598   9.175   8.866
 5822SOL    HW119400   1.661   9.159   8.790
 5822SOL    HW219401   1.575   9.272   8.870
 5823SOL     OW19402   1.844   7.600   8.476
 5823SOL    HW119403   1.880   7.512   8.443
 5823SOL    HW219404   1.763   7.624   8.423
 5824SOL     OW19405   0.185   7.749   8.219
 5824SOL    HW119406   0.088   7.758   8.197
 5824SOL    HW219407   0.196   7.730   8.316
 5825SOL     OW19408   1.276   8.947   7.501
 5825SOL    HW119409   1.268   8.870   7.564
 5825SOL    HW219410   1.254   8.916   7.408
 5826SOL     OW19411   0.752   8.501   8.795
 5826SOL    HW119412   0.730   8.506   8.697
 5826SOL    HW219413   0.745   8.592   8.835
 5827SOL     OW19414   0.909   8.391   7.708
 5827SOL    HW119415   0.990   8.416   7.655
 5827SOL    HW219416   0.937   8.333   7.785
 5828SOL     OW19417   1.516   9.080   7.525
 5828SOL    HW119418   1.428   9.033   7.519
 5828SOL    HW219419   1.559   9.083   7.435
 5829SOL     OW19420   0.438   8.699   8.936
 5829SOL    HW119421   0.466   8.777   8.880
 5829SOL    HW219422   0.356   8.658   8.897
 5830SOL     OW19423   1.615   8.801   8.750
 5830SOL    HW119424   1.659   8.744   8.820
 5830SOL    HW219425   1.539   8.851   8.792
 5831SOL     OW19426   1.111   8.574   8.197
 5831SOL    HW119427   1.038   8.515   8.231
 5831SOL    HW219428   1.191   8.519   8.175
 5832SOL     OW19429   1.060   7.678   8.398
 5832SOL    HW119430   1.053   7.638   8.307
 5832SOL    HW219431   1.062   7.605   8.467
 5833SOL     OW19432   0.495   8.962   7.854
 5833SOL    HW119433   0.555   8.920   7.786
 5833SOL    HW219434   0.461   9.050   7.819
 5834SOL     OW19435   1.869   7.844   8.921
 5834SOL    HW119436   1.901   7.932   8.885
 5834SOL    HW219437   1.863   7.778   8.847
 5835SOL     OW19438   0.313   8.782   7.744
 5835SOL    HW119439   0.219   8.809   7.726
 5835SOL    HW219440   0.356   8.850   7.804
 5836SOL     OW19441   0.197   8.478   9.097
 5836SOL    HW119442   0.133   8.550   9.122
 5836SOL    HW219443   0.264   8.467   9.170
 5837SOL     OW19444   0.721   7.628   8.968
 5837SOL    HW119445   0.807   7.603   8.923
 5837SOL    HW219446   0.739   7.654   9.063
 5838SOL     OW19447   0.083   7.715   7.415
 5838SOL    HW119448   0.008   7.723   7.481
 5838SOL    HW219449   0.088   7.798   7.360
 5839SOL     OW19450   1.400   8.303   8.810
 5839SOL    HW119451   1.347   8.365   8.753
 5839SOL    HW219452   1.493   8.295   8.772
 5840SOL     OW19453   9.930   7.759   7.926
 5840SOL    HW119454   0.003   7.773   7.859
 5840SOL    HW219455   9.907   7.662   7.931
 5841SOL     OW19456   1.259   8.718   7.647
 5841SOL    HW119457   1.201   8.637   7.634
 5841SOL    HW219458   1.249   8.751   7.741
 5842SOL     OW19459   0.632   8.268   8.883
 5842SOL    HW119460   0.678   8.352   8.857
 5842SOL    HW219461   0.697   8.192   8.878
 5843SOL     OW19462   1.509   9.281   8.561
 5843SOL    HW119463   1.498   9.247   8.467
 5843SOL    HW219464   1.592   9.242   8.601
 5844SOL     OW19465   0.720   7.986   9.162
 5844SOL    HW119466   0.791   8.047   9.197
 5844SOL    HW219467   0.734   7.894   9.198
 5845SOL     OW19468   1.473   8.634   9.069
 5845SOL    HW119469   1.468   8.654   9.167
 5845SOL    HW219470   1.566   8.651   9.036
 5846SOL     OW19471   1.652   8.284   8.692
 5846SOL    HW119472   1.642   8.189   8.665
 5846SOL    HW219473   1.704   8.334   8.622
 5847SOL     OW19474   1.254   7.776   7.911
 5847SOL    HW119475   1.310   7.693   7.908
 5847SOL    HW219476   1.279   7.831   7.991
 5848SOL     OW19477   0.559   8.177   8.158
 5848SOL    HW119478   0.614   8.261   8.158
 5848SOL    HW219479   0.544   8.147   8.064
 5849SOL     OW19480   1.738   7.856   9.163
 5849SOL    HW119481   1.791   7.858   9.078
 5849SOL    HW219482   1.661   7.793   9.152
 5850SOL     OW19483   1.729   8.383   8.933
 5850SOL    HW119484   1.710   8.481   8.934
 5850SOL    HW219485   1.703   8.346   8.844
 5851SOL     OW19486   0.678   9.208   8.424
 5851SOL    HW119487   0.641   9.301   8.425
 5851SOL    HW219488   0.776   9.212   8.406
 5852SOL     OW19489   0.927   8.407   8.313
 5852SOL    HW119490   0.974   8.319   8.323
 5852SOL    HW219491   0.901   8.442   8.403
 5853SOL     OW19492   1.115   8.488   7.554
 5853SOL    HW119493   1.060   8.519   7.477
 5853SOL    HW219494   1.181   8.419   7.523
 5854SOL     OW19495   1.809   9.014   8.296
 5854SOL    HW119496   1.737   9.012   8.227
 5854SOL    HW219497   1.777   8.965   8.378
 5855SOL     OW19498   0.239   8.779   9.285
 5855SOL    HW119499   0.156   8.741   9.244
 5855SOL    HW219500   0.226   8.789   9.384
 5856SOL     OW19501   0.151   8.679   8.065
 5856SOL    HW119502   0.104   8.613   8.125
 5856SOL    HW219503   0.235   8.638   8.031
 5857SOL     OW19504   0.710   8.876   9.127
 5857SOL    HW119505   0.624   8.831   9.154
 5857SOL    HW219506   0.709   8.971   9.158
 5858SOL     OW19507   1.858   7.626   8.748
 5858SOL    HW119508   1.927   7.556   8.765
 5858SOL    HW219509   1.839   7.631   8.650
 5859SOL     OW19510   0.390   7.871   8.083
 5859SOL    HW119511   0.458   7.887   8.154
 5859SOL    HW219512   0.304   7.843   8.125
 5860SOL     OW19513   1.661   8.917   8.512
 5860SOL    HW119514   1.579   8.909   8.456
 5860SOL    HW219515   1.651   8.863   8.595
 5861SOL     OW19516   0.373   7.975   8.738
 5861SOL    HW119517   0.428   7.910   8.792
 5861SOL    HW219518   0.374   7.946   8.642
 5862SOL     OW19519   0.809   9.096   8.110
 5862SOL    HW119520   0.789   9.176   8.054
 5862SOL    HW219521   0.731   9.034   8.108
 5863SOL     OW19522   1.443   7.710   8.581
 5863SOL    HW119523   1.459   7.613   8.598
 5863SOL    HW219524   1.383   7.747   8.651
 5864SOL     OW19525   1.052   7.454   8.558
 5864SOL    HW119526   0.989   7.400   8.503
 5864SOL    HW219527   1.141   7.409   8.561
 5865SOL     OW19528   1.384   7.479   7.636
 5865SOL    HW119529   1.440   7.413   7.586
 5865SOL    HW219530   1.291   7.444   7.645
 5866SOL     OW19531   1.317   7.924   8.129
 5866SOL    HW119532   1.282   8.017   8.119
 5866SOL    HW219533   1.304   7.893   8.223
 5867SOL     OW19534   1.609   7.673   8.365
 5867SOL    HW119535   1.550   7.700   8.441
 5867SOL    HW219536   1.608   7.744   8.295
 5868SOL     OW19537   9.988   8.637   7.829
 5868SOL    HW119538   0.036   8.657   7.915
 5868SOL    HW219539   9.896   8.604   7.850
 5869SOL     OW19540   0.322   8.010   9.373
 5869SOL    HW119541   0.266   8.092   9.390
 5869SOL    HW219542   0.316   7.986   9.276
 5870SOL     OW19543   1.725   8.038   9.572
 5870SOL    HW119544   1.698   8.068   9.481
 5870SOL    HW219545   1.664   7.965   9.603
 5871SOL     OW19546   0.158   8.990   9.747
 5871SOL    HW119547   0.178   9.045   9.828
 5871SOL    HW219548   0.061   8.964   9.748
 5872SOL     OW19549   0.581   8.439   9.497
 5872SOL    HW119550   0.627   8.485   9.421
 5872SOL    HW219551   0.626   8.465   9.583
 5873SOL     OW19552   0.083   8.084   9.934
 5873SOL    HW119553   0.080   8.052   9.839
 5873SOL    HW219554   9.995   8.124   9.959
 5874SOL     OW19555   1.844   9.214   9.633
 5874SOL    HW119556   1.892   9.183   9.714
 5874SOL    HW219557   1.881   9.303   9.604
 5875SOL     OW19558   9.906   9.025   9.500
 5875SOL    HW119559   9.875   8.964   9.427
 5875SOL    HW219560   9.916   8.974   9.585
 5876SOL     OW19561   1.739   8.340   9.926
 5876SOL    HW119562   1.714   8.384   0.012
 5876SOL    HW219563   1.744   8.409   9.854
 5877SOL     OW19564   1.787   8.536   9.738
 5877SOL    HW119565   1.860   8.521   9.671
 5877SOL    HW219566   1.826   8.577   9.821
 5878SOL     OW19567   0.585   8.830   9.973
 5878SOL    HW119568   0.563   8.736   9.999
 5878SOL    HW219569   0.588   8.837   9.873
 5879SOL     OW19570   0.902   7.498   9.844
 5879SOL    HW119571   0.953   7.563   9.788
 5879SOL    HW219572   0.822   7.542   9.883
 5880SOL     OW19573   1.597   8.518   9.529
 5880SOL    HW119574   1.519   8.459   9.550
 5880SOL    HW219575   1.652   8.531   9.611
 5881SOL     OW19576   0.641   8.181   9.623
 5881SOL    HW119577   0.634   8.258   9.560
 5881SOL    HW219578   0.625   8.212   9.717
 5882SOL     OW19579   1.590   9.115   9.619
 5882SOL    HW119580   1.683   9.151   9.624
 5882SOL    HW219581   1.564   9.104   9.523
 5883SOL     OW19582   1.089   8.154   9.723
 5883SOL    HW119583   1.108   8.150   9.821
 5883SOL    HW219584   1.004   8.106   9.704
 5884SOL     OW19585   9.952   8.287   0.257
 5884SOL    HW119586   9.995   8.201   0.283
 5884SOL    HW219587   0.019   8.361   0.265
 5885SOL     OW19588   0.896   7.808   9.489
 5885SOL    HW119589   0.957   7.862   9.431
 5885SOL    HW219590   0.833   7.756   9.432
 5886SOL     OW19591   1.360   8.600   9.825
 5886SOL    HW119592   1.403   8.657   9.896
 5886SOL    HW219593   1.322   8.660   9.754
 5887SOL     OW19594   1.013   8.866   9.809
 5887SOL    HW119595   0.971   8.945   9.765
 5887SOL    HW219596   0.990   8.866   9.906
 5888SOL     OW19597   0.217   9.136   9.970
 5888SOL    HW119598   0.295   9.091   0.013
 5888SOL    HW219599   0.244   9.227   9.937
 5889SOL     OW19600   0.341   8.397   9.654
 5889SOL    HW119601   0.420   8.403   9.594
 5889SOL    HW219602   0.345   8.312   9.707
 5890SOL     OW19603   1.147   9.147   9.572
 5890SOL    HW119604   1.053   9.123   9.595
 5890SOL    HW219605   1.180   9.089   9.498
 5891SOL     OW19606   1.675   8.842   9.393
 5891SOL    HW119607   1.636   8.934   9.387
 5891SOL    HW219608   1.604   8.775   9.371
 5892SOL     OW19609   0.561   9.265   9.561
 5892SOL    HW119610   0.565   9.278   9.660
 5892SOL    HW219611   0.614   9.183   9.536
 5893SOL     OW19612   1.447   7.560   9.728
 5893SOL    HW119613   1.432   7.515   9.639
 5893SOL    HW219614   1.544   7.577   9.741
 5894SOL     OW19615   0.338   8.175   9.820
 5894SOL    HW119616   0.356   8.079   9.796
 5894SOL    HW219617   0.252   8.180   9.871
 5895SOL     OW19618   0.636   7.510   9.386
 5895SOL    HW119619   0.661   7.422   9.427
 5895SOL    HW219620   0.570   7.495   9.313
 5896SOL     OW19621   1.459   8.670   9.344
 5896SOL    HW119622   1.505   8.610   9.409
 5896SOL    HW219623   1.366   8.688   9.375
 5897SOL     OW19624   0.257   7.481   9.407
 5897SOL    HW119625   0.274   7.562   9.351
 5897SOL    HW219626   0.325   7.476   9.480
 5898SOL     OW19627   1.029   7.697   9.707
 5898SOL    HW119628   0.985   7.726   9.622
 5898SOL    HW219629   1.127   7.720   9.703
 5899SOL     OW19630   0.441   8.595   0.044
 5899SOL    HW119631   0.383   8.646   0.108
 5899SOL    HW219632   0.399   8.597   9.953
 5900SOL     OW19633   1.236   9.206   9.823
 5900SOL    HW119634   1.295   9.285   9.806
 5900SOL    HW219635   1.187   9.182   9.740
 5901SOL     OW19636   1.050   7.966   9.335
 5901SOL    HW119637   1.013   8.049   9.292
 5901SOL    HW219638   1.120   7.991   9.402
 5902SOL     OW19639   0.942   7.883   9.888
 5902SOL    HW119640   0.898   7.944   9.821
 5902SOL    HW219641   0.985   7.806   9.840
 5903SOL     OW19642   1.925   8.230   9.596
 5903SOL    HW119643   1.990   8.193   9.662
 5903SOL    HW219644   1.851   8.165   9.581
 5904SOL     OW19645   0.497   8.869   9.452
 5904SOL    HW119646   0.404   8.859   9.488
 5904SOL    HW219647   0.503   8.824   9.363
 5905SOL     OW19648   1.381   8.050   9.338
 5905SOL    HW119649   1.338   8.019   9.423
 5905SOL    HW219650   1.480   8.051   9.349
 5906SOL     OW19651   0.726   8.473   9.728
 5906SOL    HW119652   0.681   8.413   9.794
 5906SOL    HW219653   0.811   8.430   9.697
 5907SOL     OW19654   0.311   8.630   9.797
 5907SOL    HW119655   0.337   8.706   9.738
 5907SOL    HW219656   0.320   8.544   9.746
 5908SOL     OW19657   1.253   8.815   9.687
 5908SOL    HW119658   1.321   8.878   9.724
 5908SOL    HW219659   1.165   8.831   9.734
 5909SOL     OW19660   1.786   8.090   9.849
 5909SOL    HW119661   1.755   8.181   9.873
 5909SOL    HW219662   1.755   8.067   9.757
 5910SOL     OW19663   1.228   7.989   9.556
 5910SOL    HW119664   1.254   7.910   9.611
 5910SOL    HW219665   1.187   8.059   9.614
 5911SOL     OW19666   0.299   7.564   9.968
 5911SOL    HW119667   0.268   7.603   9.881
 5911SOL    HW219668   0.220   7.534   0.020
 5912SOL     OW19669   1.564   7.833   9.641
 5912SOL    HW119670   1.619   7.766   9.691
 5912SOL    HW219671   1.472   7.837   9.680
 5913SOL     OW19672   1.494   7.700   9.396
 5913SOL    HW119673   1.450   7.616   9.428
 5913SOL    HW219674   1.527   7.753   9.474
 5914SOL     OW19675   1.275   8.297   9.311
 5914SOL    HW119676   1.308   8.203   9.319
 5914SOL    HW219677   1.304   8.335   9.223
 5915SOL     OW19678   0.034   8.668   9.526
 5915SOL    HW119679   9.946   8.690   9.568
 5915SOL    HW219680   0.046   8.569   9.522
 5916SOL     OW19681   0.858   8.018   9.667
 5916SOL    HW119682   0.862   7.944   9.599
 5916SOL    HW219683   0.782   8.078   9.645
 5917SOL     OW19684   0.541   7.945   9.522
 5917SOL    HW119685   0.580   8.030   9.558
 5917SOL    HW219686   0.466   7.967   9.459
 5918SOL     OW19687   1.375   8.367   9.560
 5918SOL    HW119688   1.311   8.341   9.632
 5918SOL    HW219689   1.335   8.345   9.471
 5919SOL     OW19690   1.712   7.629   9.756
 5919SOL    HW119691   1.779   7.624   9.681
 5919SOL    HW219692   1.736   7.561   9.826
 5920SOL     OW19693   1.425   9.011   9.803
 5920SOL    HW119694   1.491   9.040   9.735
 5920SOL    HW219695   1.351   9.078   9.809
 5921SOL     OW19696   0.704   9.049   9.467
 5921SOL    HW119697   0.717   9.084   9.375
 5921SOL    HW219698   0.631   8.981   9.467
 5922SOL     OW19699   1.243   9.006   9.358
 5922SOL    HW119700   1.240   8.909   9.382
 5922SOL    HW219701   1.162   9.030   9.305
 5923SOL     OW19702   0.951   8.371   9.628
 5923SOL    HW119703   0.974   8.385   9.532
 5923SOL    HW219704   1.011   8.301   9.668
 5924SOL     OW19705   1.507   9.088   9.358
 5924SOL    HW119706   1.414   9.051   9.345
 5924SOL    HW219707   1.553   9.093   9.270
 5925SOL     OW19708   0.591   8.830   9.705
 5925SOL    HW119709   0.682   8.793   9.690
 5925SOL    HW219710   0.548   8.851   9.616
 5926SOL     OW19711   0.251   8.819   9.563
 5926SOL    HW119712   0.172   8.758   9.556
 5926SOL    HW219713   0.230   8.893   9.627
 5927SOL     OW19714   0.039   7.794   9.297
 5927SOL    HW119715   9.960   7.735   9.314
 5927SOL    HW219716   0.007   7.887   9.277
 5928SOL     OW19717   0.019   7.413   9.514
 5928SOL    HW119718   0.024   7.408   9.614
 5928SOL    HW219719   0.111   7.430   9.478
 5929SOL     OW19720   1.200   8.746   9.427
 5929SOL    HW119721   1.101   8.732   9.415
 5929SOL    HW219722   1.220   8.759   9.524
 5930SOL     OW19723   1.295   7.784   9.731
 5930SOL    HW119724   1.343   7.696   9.727
 5930SOL    HW219725   1.293   7.816   9.825
 5931SOL     OW19726   0.581   8.287   9.879
 5931SOL    HW119727   0.596   8.304   9.976
 5931SOL    HW219728   0.490   8.246   9.866
 5932SOL     OW19729   0.910   8.775   9.408
 5932SOL    HW119730   0.879   8.763   9.503
 5932SOL    HW219731   0.904   8.871   9.383
 5933SOL     OW19732   1.027   8.388   9.366
 5933SOL    HW119733   1.005   8.463   9.303
 5933SOL    HW219734   1.121   8.358   9.350
 5934SOL     OW19735   0.053   8.685   9.881
 5934SOL    HW119736   0.056   8.702   9.980
 5934SOL    HW219737   0.147   8.673   9.847
 5935SOL     OW19738   0.353   7.907   9.782
 5935SOL    HW119739   0.413   7.844   9.732
 5935SOL    HW219740   0.271   7.857   9.812
 5936SOL     OW19741   0.832   8.719   9.662
 5936SOL    HW119742   0.803   8.628   9.691
 5936SOL    HW219743   0.905   8.752   9.722
 5937SOL     OW19744   1.388   7.461   9.484
 5937SOL    HW119745   1.435   7.387   9.436
 5937SOL    HW219746   1.298   7.430   9.515
 5938SOL     OW19747   0.080   8.400   9.569
 5938SOL    HW119748   0.174   8.400   9.603
 5938SOL    HW219749   0.017   8.412   9.646
 5939SOL     OW19750   0.900   9.074   9.664
 5939SOL    HW119751   0.830   9.057   9.594
 5939SOL    HW219752   0.877   9.159   9.712
 5940SOL     OW19753   0.156   9.603   1.080
 5940SOL    HW119754   0.206   9.544   1.143
 5940SOL    HW219755   0.061   9.611   1.110
 5941SOL     OW19756   9.988   9.608   0.650
 5941SOL    HW119757   9.892   9.618   0.624
 5941SOL    HW219758   0.041   9.581   0.570
 5942SOL     OW19759   1.668   9.928   0.129
 5942SOL    HW119760   1.738   9.901   0.063
 5942SOL    HW219761   1.656   9.856   0.197
 5943SOL     OW19762   0.481   9.629   1.567
 5943SOL    HW119763   0.565   9.598   1.524
 5943SOL    HW219764   0.402   9.597   1.514
 5944SOL     OW19765   1.588   9.667   0.767
 5944SOL    HW119766   1.520   9.677   0.695
 5944SOL    HW219767   1.564   9.725   0.844
 5945SOL     OW19768   1.580   9.444   1.354
 5945SOL    HW119769   1.675   9.451   1.324
 5945SOL    HW219770   1.568   9.497   1.438
 5946SOL     OW19771   0.066   9.867   0.615
 5946SOL    HW119772   0.028   9.777   0.635
 5946SOL    HW219773   0.049   9.928   0.693
 5947SOL     OW19774   0.792   9.417   0.541
 5947SOL    HW119775   0.826   9.507   0.512
 5947SOL    HW219776   0.692   9.420   0.544
 5948SOL     OW19777   0.400   9.562   1.815
 5948SOL    HW119778   0.443   9.599   1.732
 5948SOL    HW219779   0.309   9.603   1.825
 5949SOL     OW19780   1.259   9.641   0.946
 5949SOL    HW119781   1.162   9.614   0.947
 5949SOL    HW219782   1.309   9.587   1.014
 5950SOL     OW19783   0.795   9.875   1.445
 5950SOL    HW119784   0.766   9.855   1.539
 5950SOL    HW219785   0.727   9.840   1.381
 5951SOL     OW19786   1.448   9.733   1.691
 5951SOL    HW119787   1.500   9.802   1.740
 5951SOL    HW219788   1.489   9.643   1.707
 5952SOL     OW19789   1.006   9.796   1.293
 5952SOL    HW119790   0.940   9.838   1.354
 5952SOL    HW219791   0.988   9.697   1.287
 5953SOL     OW19792   1.149   9.962   0.577
 5953SOL    HW119793   1.095   9.991   0.656
 5953SOL    HW219794   1.214   9.891   0.605
 5954SOL     OW19795   0.050   0.025   0.833
 5954SOL    HW119796   0.146   0.048   0.849
 5954SOL    HW219797   9.992   0.098   0.869
 5955SOL     OW19798   1.667   9.929   1.757
 5955SOL    HW119799   1.728   0.006   1.739
 5955SOL    HW219800   1.711   9.844   1.730
 5956SOL     OW19801   0.541   9.431   0.945
 5956SOL    HW119802   0.549   9.468   1.038
 5956SOL    HW219803   0.527   9.507   0.881
 5957SOL     OW19804   1.485   9.989   0.773
 5957SOL    HW119805   1.487   9.931   0.854
 5957SOL    HW219806   1.511   0.082   0.798
 5958SOL     OW19807   0.205   9.549   1.499
 5958SOL    HW119808   0.195   9.648   1.507
 5958SOL    HW219809   0.178   9.506   1.585
 5959SOL     OW19810   1.365   9.421   0.441
 5959SOL    HW119811   1.365   9.403   0.343
 5959SOL    HW219812   1.458   9.411   0.477
 5960SOL     OW19813   1.580   9.486   1.731
 5960SOL    HW119814   1.550   9.499   1.826
 5960SOL    HW219815   1.600   9.389   1.716
 5961SOL     OW19816   0.659   9.440   0.066
 5961SOL    HW119817   0.758   9.440   0.081
 5961SOL    HW219818   0.640   9.409   9.972
 5962SOL     OW19819   0.805   9.568   1.751
 5962SOL    HW119820   0.893   9.521   1.754
 5962SOL    HW219821   0.744   9.530   1.820
 5963SOL     OW19822   1.464   9.851   1.444
 5963SOL    HW119823   1.454   9.806   1.533
 5963SOL    HW219824   1.489   9.947   1.457
 5964SOL     OW19825   0.890   9.780   0.890
 5964SOL    HW119826   0.841   9.760   0.806
 5964SOL    HW219827   0.933   9.696   0.925
 5965SOL     OW19828   0.505   9.432   0.551
 5965SOL    HW119829   0.433   9.402   0.613
 5965SOL    HW219830   0.480   9.521   0.511
 5966SOL     OW19831   0.915   9.652   0.469
 5966SOL    HW119832   0.888   9.699   0.385
 5966SOL    HW219833   1.015   9.649   0.475
 5967SOL     OW19834   0.994   0.022   1.563
 5967SOL    HW119835   0.925   9.978   1.505
 5967SOL    HW219836   1.026   0.106   1.518
 5968SOL     OW19837   1.163   9.818   0.034
 5968SOL    HW119838   1.066   9.795   0.022
 5968SOL    HW219839   1.181   9.840   0.130
 5969SOL     OW19840   0.196   9.818   1.447
 5969SOL    HW119841   0.269   9.847   1.384
 5969SOL    HW219842   0.208   9.866   1.535
 5970SOL     OW19843   0.549   9.507   1.208
 5970SOL    HW119844   0.597   9.435   1.258
 5970SOL    HW219845   0.450   9.498   1.223
 5971SOL     OW19846   0.752   9.769   0.659
 5971SOL    HW119847   0.755   9.866   0.633
 5971SOL    HW219848   0.803   9.715   0.592
 5972SOL     OW19849   0.932   9.374   0.771
 5972SOL    HW119850   0.880   9.391   0.687
 5972SOL    HW219851   0.940   9.275   0.786
 5973SOL     OW19852   1.478   9.811   0.970
 5973SOL    HW119853   1.391   9.764   0.984
 5973SOL    HW219854   1.513   9.841   1.059
 5974SOL     OW19855   0.948   9.534   1.341
 5974SOL    HW119856   0.931   9.461   1.274
 5974SOL    HW219857   1.029   9.512   1.395
 5975SOL     OW19858   1.269   9.710   1.312
 5975SOL    HW119859   1.334   9.772   1.356
 5975SOL    HW219860   1.181   9.757   1.300
 5976SOL     OW19861   0.501   9.786   0.796
 5976SOL    HW119862   0.440   9.831   0.730
 5976SOL    HW219863   0.590   9.770   0.753
 5977SOL     OW19864   1.603   9.945   0.534
 5977SOL    HW119865   1.556   9.958   0.621
 5977SOL    HW219866   1.700   9.964   0.545
 5978SOL     OW19867   1.035   9.423   1.778
 5978SOL    HW119868   1.096   9.501   1.774
 5978SOL    HW219869   1.068   9.351   1.716
 5979SOL     OW19870   0.538   9.339   1.752
 5979SOL    HW119871   0.492   9.288   1.679
 5979SOL    HW219872   0.485   9.421   1.773
 5980SOL     OW19873   1.233   9.865   0.303
 5980SOL    HW119874   1.228   9.774   0.344
 5980SOL    HW219875   1.202   9.933   0.369
 5981SOL     OW19876   0.289   9.450   1.266
 5981SOL    HW119877   0.255   9.490   1.351
 5981SOL    HW219878   0.286   9.351   1.272
 5982SOL     OW19879   0.710   9.916   1.041
 5982SOL    HW119880   0.769   9.862   0.980
 5982SOL    HW219881   0.652   9.976   0.986
 5983SOL     OW19882   0.290   9.352   0.703
 5983SOL    HW119883   0.258   9.439   0.740
 5983SOL    HW219884   0.310   9.289   0.777
 5984SOL     OW19885   1.614   9.754   0.335
 5984SOL    HW119886   1.677   9.685   0.370
 5984SOL    HW219887   1.598   9.824   0.405
 5985SOL     OW19888   1.498   9.615   0.127
 5985SOL    HW119889   1.449   9.533   0.158
 5985SOL    HW219890   1.534   9.664   0.206
 5986SOL     OW19891   0.315   0.076   0.889
 5986SOL    HW119892   0.410   0.106   0.894
 5986SOL    HW219893   0.306   9.985   0.929
 5987SOL     OW19894   0.316   9.821   1.003
 5987SOL    HW119895   0.256   9.743   1.018
 5987SOL    HW219896   0.384   9.798   0.933
 5988SOL     OW19897   1.188   9.643   1.727
 5988SOL    HW119898   1.132   9.701   1.787
 5988SOL    HW219899   1.279   9.682   1.719
 5989SOL     OW19900   1.182   9.514   1.486
 5989SOL    HW119901   1.179   9.561   1.574
 5989SOL    HW219902   1.223   9.574   1.417
 5990SOL     OW19903   0.065   9.870   1.205
 5990SOL    HW119904   0.151   9.892   1.160
 5990SOL    HW219905   0.082   9.849   1.301
 5991SOL     OW19906   0.241   9.932   1.685
 5991SOL    HW119907   0.340   9.945   1.686
 5991SOL    HW219908   0.197   0.014   1.723
 5992SOL     OW19909   0.844   9.787   0.244
 5992SOL    HW119910   0.860   9.773   0.147
 5992SOL    HW219911   0.788   9.869   0.257
 5993SOL     OW19912   1.591   9.885   1.203
 5993SOL    HW119913   1.552   9.858   1.291
 5993SOL    HW219914   1.675   9.832   1.187
 5994SOL     OW19915   0.624   9.774   1.258
 5994SOL    HW119916   0.607   9.678   1.238
 5994SOL    HW219917   0.657   9.820   1.175
 5995SOL     OW19918   1.779   9.557   0.424
 5995SOL    HW119919   1.837   9.531   0.347
 5995SOL    HW219920   1.724   9.479   0.452
 5996SOL     OW19921   1.836   9.441   0.987
 5996SOL    HW119922   1.874   9.354   0.956
 5996SOL    HW219923   1.739   9.446   0.963
 5997SOL     OW19924   0.199   9.575   0.815
 5997SOL    HW119925   0.116   9.595   0.763
 5997SOL    HW219926   0.179   9.582   0.913
 5998SOL     OW19927   1.002   9.538   0.969
 5998SOL    HW119928   0.981   9.484   0.888
 5998SOL    HW219929   0.974   9.488   1.051
 5999SOL     OW19930   1.851   9.664   1.437
 5999SOL    HW119931   1.876   9.756   1.405
 5999SOL    HW219932   1.839   9.604   1.358
 6000SOL     OW19933   0.724   9.523   1.494
 6000SOL    HW119934   0.801   9.540   1.433
 6000SOL    HW219935   0.752   9.541   1.588
 6001SOL     OW19936   9.945   9.744   9.993
 6001SOL    HW119937   9.856   9.706   9.965
 6001SOL    HW219938   9.965   9.825   9.937
 6002SOL     OW19939   0.054   9.376   0.248
 6002SOL    HW119940   0.087   9.436   0.321
 6002SOL    HW219941   0.075   9.281   0.270
 6003SOL     OW19942   0.739   9.835   1.710
 6003SOL    HW119943   0.800   9.895   1.762
 6003SOL    HW219944   0.762   9.739   1.728
 6004SOL     OW19945   1.204   9.644   0.477
 6004SOL    HW119946   1.253   9.558   0.461
 6004SOL    HW219947   1.240   9.688   0.559
 6005SOL     OW19948   1.761   9.683   1.688
 6005SOL    HW119949   1.795   9.678   1.594
 6005SOL    HW219950   1.699   9.606   1.706
 6006SOL     OW19951   1.182   0.139   0.047
 6006SOL    HW119952   1.182   0.238   0.035
 6006SOL    HW219953   1.270   0.110   0.085
 6007SOL     OW19954   1.835   9.447   1.261
 6007SOL    HW119955   1.907   9.381   1.280
 6007SOL    HW219956   1.828   9.460   1.162
 6008SOL     OW19957   0.397   9.671   0.459
 6008SOL    HW119958   0.400   9.713   0.368
 6008SOL    HW219959   0.388   9.742   0.529
 6009SOL     OW19960   0.380   9.899   1.255
 6009SOL    HW119961   0.470   9.863   1.281
 6009SOL    HW219962   0.360   9.874   1.160
 6010SOL     OW19963   1.411   9.539   1.157
 6010SOL    HW119964   1.470   9.491   1.222
 6010SOL    HW219965   1.353   9.604   1.207
 6011SOL     OW19966   0.912   9.341   1.161
 6011SOL    HW119967   0.838   9.299   1.108
 6011SOL    HW219968   0.973   9.269   1.194
 6012SOL     OW19969   1.390   9.362   0.177
 6012SOL    HW119970   1.472   9.334   0.127
 6012SOL    HW219971   1.315   9.300   0.155
 6013SOL     OW19972   1.314   9.774   0.699
 6013SOL    HW119973   1.367   9.855   0.722
 6013SOL    HW219974   1.288   9.727   0.783
 6014SOL     OW19975   1.569   9.457   0.946
 6014SOL    HW119976   1.510   9.492   1.019
 6014SOL    HW219977   1.572   9.524   0.871
 6015SOL     OW19978   9.996   9.706   2.591
 6015SOL    HW119979   9.917   9.689   2.532
 6015SOL    HW219980   9.976   9.673   2.683
 6016SOL     OW19981   1.543   9.917   2.000
 6016SOL    HW119982   1.602   9.920   1.919
 6016SOL    HW219983   1.568   9.837   2.056
 6017SOL     OW19984   0.494   9.762   3.481
 6017SOL    HW119985   0.585   9.781   3.519
 6017SOL    HW219986   0.504   9.705   3.399
 6018SOL     OW19987   1.648   9.793   2.663
 6018SOL    HW119988   1.565   9.823   2.617
 6018SOL    HW219989   1.687   9.869   2.715
 6019SOL     OW19990   1.619   9.414   3.292
 6019SOL    HW119991   1.695   9.450   3.239
 6019SOL    HW219992   1.606   9.470   3.374
 6020SOL     OW19993   0.002   9.967   2.484
 6020SOL    HW119994   9.990   9.874   2.519
 6020SOL    HW219995   9.914   0.014   2.483
 6021SOL     OW19996   0.845   9.357   2.355
 6021SOL    HW119997   0.881   9.448   2.334
 6021SOL    HW219998   0.747   9.364   2.374
 6022SOL     OW19999   0.390   9.562   3.657
 6022SOL    HW120000   0.432   9.636   3.604
 6022SOL    HW220001   0.293   9.581   3.671
 6023SOL     OW20002   1.243   9.683   2.763
 6023SOL    HW120003   1.167   9.620   2.744
 6023SOL    HW220004   1.299   9.645   2.836
 6024SOL     OW20005   0.813   9.832   3.288
 6024SOL    HW120006   0.785   9.818   3.383
 6024SOL    HW220007   0.735   9.862   3.234
 6025SOL     OW20008   1.444   9.810   3.556
 6025SOL    HW120009   1.510   9.866   3.606
 6025SOL    HW220010   1.479   9.717   3.547
 6026SOL     OW20011   1.026   9.665   3.230
 6026SOL    HW120012   0.952   9.730   3.244
 6026SOL    HW220013   0.993   9.572   3.247
 6027SOL     OW20014   1.057   9.910   2.365
 6027SOL    HW120015   1.124   9.872   2.429
 6027SOL    HW220016   1.008   9.986   2.409
 6028SOL     OW20017   0.054   0.118   2.706
 6028SOL    HW120018   0.071   0.056   2.629
 6028SOL    HW220019   0.018   0.205   2.673
 6029SOL     OW20020   0.842   9.666   2.052
 6029SOL    HW120021   0.914   9.699   1.991
 6029SOL    HW220022   0.801   9.584   2.013
 6030SOL     OW20023   1.677   9.932   3.659
 6030SOL    HW120024   1.739   0.010   3.649
 6030SOL    HW220025   1.712   9.854   3.606
 6031SOL     OW20026   1.448   9.990   2.597
 6031SOL    HW120027   1.400   9.972   2.683
 6031SOL    HW220028   1.495   0.079   2.603
 6032SOL     OW20029   0.137   9.579   3.380
 6032SOL    HW120030   0.174   9.656   3.433
 6032SOL    HW220031   0.146   9.495   3.433
 6033SOL     OW20032   1.315   9.373   2.320
 6033SOL    HW120033   1.308   9.361   2.221
 6033SOL    HW220034   1.405   9.343   2.351
 6034SOL     OW20035   1.529   9.547   3.530
 6034SOL    HW120036   1.533   9.533   3.629
 6034SOL    HW220037   1.447   9.503   3.493
 6035SOL     OW20038   0.686   9.437   1.964
 6035SOL    HW120039   0.724   9.368   2.026
 6035SOL    HW220040   0.630   9.392   1.895
 6036SOL     OW20041   0.827   9.540   3.608
 6036SOL    HW120042   0.919   9.501   3.608
 6036SOL    HW220043   0.774   9.499   3.682
 6037SOL     OW20044   1.444   9.907   3.298
 6037SOL    HW120045   1.437   9.872   3.391
 6037SOL    HW220046   1.483   9.999   3.299
 6038SOL     OW20047   0.881   9.730   2.688
 6038SOL    HW120048   0.831   9.732   2.601
 6038SOL    HW220049   0.936   9.647   2.693
 6039SOL     OW20050   0.569   9.412   2.359
 6039SOL    HW120051   0.507   9.425   2.437
 6039SOL    HW220052   0.556   9.487   2.294
 6040SOL     OW20053   0.313   9.373   2.002
 6040SOL    HW120054   0.356   9.443   1.944
 6040SOL    HW220055   0.383   9.331   2.060
 6041SOL     OW20056   0.930   9.610   2.302
 6041SOL    HW120057   0.902   9.632   2.209
 6041SOL    HW220058   1.029   9.620   2.311
 6042SOL     OW20059   1.002   9.999   3.408
 6042SOL    HW120060   0.950   9.943   3.343
 6042SOL    HW220061   1.027   0.086   3.365
 6043SOL     OW20062   1.039   9.788   1.904
 6043SOL    HW120063   0.998   9.873   1.870
 6043SOL    HW220064   1.092   9.807   1.986
 6044SOL     OW20065   0.075   9.919   3.297
 6044SOL    HW120066   0.120   9.878   3.376
 6044SOL    HW220067   0.010   9.989   3.329
 6045SOL     OW20068   0.563   9.585   3.278
 6045SOL    HW120069   0.637   9.522   3.303
 6045SOL    HW220070   0.482   9.532   3.255
 6046SOL     OW20071   0.748   9.754   2.449
 6046SOL    HW120072   0.745   9.847   2.412
 6046SOL    HW220073   0.812   9.699   2.397
 6047SOL     OW20074   1.334   9.953   2.840
 6047SOL    HW120075   1.262   9.885   2.824
 6047SOL    HW220076   1.396   9.919   2.911
 6048SOL     OW20077   0.538   9.591   2.155
 6048SOL    HW120078   0.577   9.545   2.075
 6048SOL    HW220079   0.554   9.690   2.148
 6049SOL     OW20080   1.030   9.374   3.280
 6049SOL    HW120081   1.054   9.360   3.184
 6049SOL    HW220082   1.111   9.403   3.331
 6050SOL     OW20083   1.295   9.677   3.206
 6050SOL    HW120084   1.335   9.764   3.234
 6050SOL    HW220085   1.195   9.683   3.209
 6051SOL     OW20086   1.570   9.907   2.360
 6051SOL    HW120087   1.522   9.948   2.437
 6051SOL    HW220088   1.666   9.937   2.361
 6052SOL     OW20089   1.066   9.420   3.623
 6052SOL    HW120090   1.131   9.495   3.634
 6052SOL    HW220091   1.116   9.336   3.602
 6053SOL     OW20092   0.544   9.344   3.611
 6053SOL    HW120093   0.493   9.286   3.548
 6053SOL    HW220094   0.494   9.430   3.625
 6054SOL     OW20095   1.167   9.836   2.135
 6054SOL    HW120096   1.208   9.750   2.165
 6054SOL    HW220097   1.115   9.876   2.211
 6055SOL     OW20098   0.329   9.461   3.222
 6055SOL    HW120099   0.255   9.513   3.265
 6055SOL    HW220100   0.290   9.385   3.170
 6056SOL     OW20101   0.727   9.855   2.880
 6056SOL    HW120102   0.781   9.808   2.810
 6056SOL    HW220103   0.673   9.927   2.837
 6057SOL     OW20104   0.364   9.445   2.557
 6057SOL    HW120105   0.328   9.532   2.589
 6057SOL    HW220106   0.297   9.400   2.498
 6058SOL     OW20107   1.574   9.704   2.181
 6058SOL    HW120108   1.623   9.631   2.229
 6058SOL    HW220109   1.559   9.780   2.244
 6059SOL     OW20110   1.495   9.533   1.978
 6059SOL    HW120111   1.422   9.473   2.011
 6059SOL    HW220112   1.518   9.599   2.050
 6060SOL     OW20113   0.372   9.977   2.934
 6060SOL    HW120114   0.443   0.021   2.879
 6060SOL    HW220115   0.382   9.878   2.927
 6061SOL     OW20116   1.214   9.654   3.600
 6061SOL    HW120117   1.142   9.693   3.657
 6061SOL    HW220118   1.288   9.721   3.589
 6062SOL     OW20119   1.276   9.479   3.400
 6062SOL    HW120120   1.241   9.540   3.471
 6062SOL    HW220121   1.297   9.532   3.318
 6063SOL     OW20122   0.116   9.908   3.031
 6063SOL    HW120123   0.210   9.933   3.009
 6063SOL    HW220124   0.104   9.908   3.131
 6064SOL     OW20125   0.222   9.807   3.512
 6064SOL    HW120126   0.320   9.799   3.494
 6064SOL    HW220127   0.204   9.887   3.569
 6065SOL     OW20128   0.649   9.847   2.120
 6065SOL    HW120129   0.728   9.790   2.101
 6065SOL    HW220130   0.667   9.901   2.203
 6066SOL     OW20131   1.493   9.853   3.033
 6066SOL    HW120132   1.482   9.881   3.129
 6066SOL    HW220133   1.507   9.754   3.029
 6067SOL     OW20134   0.580   9.792   3.103
 6067SOL    HW120135   0.597   9.713   3.162
 6067SOL    HW220136   0.654   9.800   3.036
 6068SOL     OW20137   1.712   9.507   2.315
 6068SOL    HW120138   1.779   9.487   2.244
 6068SOL    HW220139   1.661   9.424   2.338
 6069SOL     OW20140   1.873   9.485   2.865
 6069SOL    HW120141   1.886   9.391   2.836
 6069SOL    HW220142   1.782   9.516   2.836
 6070SOL     OW20143   0.268   9.686   2.644
 6070SOL    HW120144   0.174   9.701   2.616
 6070SOL    HW220145   0.280   9.713   2.740
 6071SOL     OW20146   1.850   9.726   3.262
 6071SOL    HW120147   1.872   9.806   3.206
 6071SOL    HW220148   1.840   9.646   3.203
 6072SOL     OW20149   0.773   9.428   3.362
 6072SOL    HW120150   0.863   9.400   3.329
 6072SOL    HW220151   0.783   9.469   3.453
 6073SOL     OW20152   0.165   9.695   1.812
 6073SOL    HW120153   0.069   9.669   1.824
 6073SOL    HW220154   0.170   9.780   1.759
 6074SOL     OW20155   0.064   9.444   2.075
 6074SOL    HW120156   0.045   9.412   2.168
 6074SOL    HW220157   0.158   9.422   2.050
 6075SOL     OW20158   0.752   9.799   3.556
 6075SOL    HW120159   0.806   9.868   3.605
 6075SOL    HW220160   0.786   9.708   3.579
 6076SOL     OW20161   1.205   9.625   2.314
 6076SOL    HW120162   1.254   9.537   2.321
 6076SOL    HW220163   1.234   9.685   2.388
 6077SOL     OW20164   1.748   9.716   3.512
 6077SOL    HW120165   1.780   9.726   3.418
 6077SOL    HW220166   1.676   9.646   3.515
 6078SOL     OW20167   1.109   0.167   1.944
 6078SOL    HW120168   1.135   0.228   1.868
 6078SOL    HW220169   1.191   0.134   1.990
 6079SOL     OW20170   1.842   9.482   3.137
 6079SOL    HW120171   1.912   9.420   3.174
 6079SOL    HW220172   1.852   9.489   3.038
 6080SOL     OW20173   0.463   9.766   2.469
 6080SOL    HW120174   0.558   9.737   2.476
 6080SOL    HW220175   0.411   9.730   2.546
 6081SOL     OW20176   1.401   9.572   2.977
 6081SOL    HW120177   1.423   9.476   2.991
 6081SOL    HW220178   1.357   9.609   3.059
 6082SOL     OW20179   1.299   9.350   2.043
 6082SOL    HW120180   1.316   9.286   1.968
 6082SOL    HW220181   1.201   9.365   2.054
 6083SOL     OW20182   1.259   9.801   2.518
 6083SOL    HW120183   1.324   9.877   2.525
 6083SOL    HW220184   1.249   9.757   2.608
 6084SOL     OW20185   1.619   9.563   2.810
 6084SOL    HW120186   1.536   9.578   2.865
 6084SOL    HW220187   1.633   9.641   2.749
 6085SOL     OW20188   0.150   9.613   4.750
 6085SOL    HW120189   0.193   9.555   4.819
 6085SOL    HW220190   0.053   9.627   4.773
 6086SOL     OW20191   0.010   9.687   4.316
 6086SOL    HW120192   9.911   9.673   4.317
 6086SOL    HW220193   0.054   9.606   4.276
 6087SOL     OW20194   1.622   9.901   3.925
 6087SOL    HW120195   1.650   9.917   3.831
 6087SOL    HW220196   1.635   9.804   3.948
 6088SOL     OW20197   0.497   9.616   5.255
 6088SOL    HW120198   0.588   9.586   5.229
 6088SOL    HW220199   0.435   9.604   5.178
 6089SOL     OW20200   1.610   9.717   4.442
 6089SOL    HW120201   1.588   9.754   4.352
 6089SOL    HW220202   1.567   9.774   4.513
 6090SOL     OW20203   1.714   9.376   5.252
 6090SOL    HW120204   1.741   9.426   5.169
 6090SOL    HW220205   1.648   9.431   5.304
 6091SOL     OW20206   9.996   9.971   4.329
 6091SOL    HW120207   9.990   9.872   4.327
 6091SOL    HW220208   0.019   0.002   4.421
 6092SOL     OW20209   0.840   9.391   4.228
 6092SOL    HW120210   0.886   9.475   4.203
 6092SOL    HW220211   0.741   9.406   4.226
 6093SOL     OW20212   0.412   9.573   5.508
 6093SOL    HW120213   0.446   9.604   5.419
 6093SOL    HW220214   0.323   9.616   5.526
 6094SOL     OW20215   1.269   9.693   4.640
 6094SOL    HW120216   1.179   9.651   4.639
 6094SOL    HW220217   1.328   9.644   4.704
 6095SOL     OW20218   0.835   9.846   5.147
 6095SOL    HW120219   0.801   9.840   5.241
 6095SOL    HW220220   0.760   9.830   5.083
 6096SOL     OW20221   1.441   9.769   5.368
 6096SOL    HW120222   1.502   9.831   5.418
 6096SOL    HW220223   1.470   9.675   5.381
 6097SOL     OW20224   1.033   9.808   4.961
 6097SOL    HW120225   0.967   9.812   5.036
 6097SOL    HW220226   0.997   9.749   4.888
 6098SOL     OW20227   1.118   0.004   4.172
 6098SOL    HW120228   1.199   0.058   4.193
 6098SOL    HW220229   1.037   0.047   4.211
 6099SOL     OW20230   0.054   0.033   4.583
 6099SOL    HW120231   0.150   0.058   4.595
 6099SOL    HW220232   9.996   0.105   4.620
 6100SOL     OW20233   0.837   9.644   3.914
 6100SOL    HW120234   0.906   9.673   3.847
 6100SOL    HW220235   0.790   9.562   3.880
 6101SOL     OW20236   1.654   9.908   5.480
 6101SOL    HW120237   1.707   9.986   5.447
 6101SOL    HW220238   1.704   9.823   5.462
 6102SOL     OW20239   0.558   9.453   4.673
 6102SOL    HW120240   0.553   9.490   4.766
 6102SOL    HW220241   0.563   9.529   4.607
 6103SOL     OW20242   1.520   0.052   4.415
 6103SOL    HW120243   1.494   9.985   4.485
 6103SOL    HW220244   1.561   0.131   4.460
 6104SOL     OW20245   0.187   9.562   5.191
 6104SOL    HW120246   0.197   9.659   5.214
 6104SOL    HW220247   0.177   9.508   5.275
 6105SOL     OW20248   1.408   9.409   4.166
 6105SOL    HW120249   1.408   9.381   4.070
 6105SOL    HW220250   1.501   9.401   4.203
 6106SOL     OW20251   1.529   9.511   5.419
 6106SOL    HW120252   1.531   9.525   5.518
 6106SOL    HW220253   1.453   9.449   5.396
 6107SOL     OW20254   0.706   9.413   3.818
 6107SOL    HW120255   0.723   9.336   3.880
 6107SOL    HW220256   0.641   9.385   3.748
 6108SOL     OW20257   0.804   9.577   5.461
 6108SOL    HW120258   0.893   9.530   5.458
 6108SOL    HW220259   0.749   9.539   5.535
 6109SOL     OW20260   1.465   9.885   5.120
 6109SOL    HW120261   1.453   9.839   5.207
 6109SOL    HW220262   1.499   9.978   5.135
 6110SOL     OW20263   0.921   9.799   4.596
 6110SOL    HW120264   0.903   9.798   4.497
 6110SOL    HW220265   0.959   9.711   4.623
 6111SOL     OW20266   0.572   9.443   4.204
 6111SOL    HW120267   0.508   9.441   4.281
 6111SOL    HW220268   0.554   9.524   4.148
 6112SOL     OW20269   0.303   9.361   3.839
 6112SOL    HW120270   0.347   9.428   3.780
 6112SOL    HW220271   0.368   9.327   3.907
 6113SOL     OW20272   0.962   9.619   4.154
 6113SOL    HW120273   0.923   9.632   4.063
 6113SOL    HW220274   1.062   9.617   4.147
 6114SOL     OW20275   1.021   0.005   5.284
 6114SOL    HW120276   0.966   9.953   5.219
 6114SOL    HW220277   1.042   0.095   5.245
 6115SOL     OW20278   1.034   9.769   3.768
 6115SOL    HW120279   0.994   9.853   3.732
 6115SOL    HW220280   1.094   9.792   3.846
 6116SOL     OW20281   0.208   9.833   5.193
 6116SOL    HW120282   0.283   9.864   5.134
 6116SOL    HW220283   0.215   9.876   5.283
 6117SOL     OW20284   0.534   9.539   4.931
 6117SOL    HW120285   0.575   9.464   4.983
 6117SOL    HW220286   0.435   9.528   4.930
 6118SOL     OW20287   0.891   9.811   4.333
 6118SOL    HW120288   0.891   9.899   4.286
 6118SOL    HW220289   0.916   9.738   4.269
 6119SOL     OW20290   1.020   9.368   4.438
 6119SOL    HW120291   0.956   9.377   4.362
 6119SOL    HW220292   0.986   9.300   4.502
 6120SOL     OW20293   1.475   9.875   4.621
 6120SOL    HW120294   1.391   9.822   4.633
 6120SOL    HW220295   1.513   9.900   4.711
 6121SOL     OW20296   0.482   9.657   4.065
 6121SOL    HW120297   0.541   9.724   4.020
 6121SOL    HW220298   0.395   9.651   4.015
 6122SOL     OW20299   0.971   9.370   5.099
 6122SOL    HW120300   0.989   9.350   5.002
 6122SOL    HW220301   1.047   9.423   5.136
 6123SOL     OW20302   1.284   9.706   5.015
 6123SOL    HW120303   1.348   9.774   5.050
 6123SOL    HW220304   1.197   9.749   4.993
 6124SOL     OW20305   0.506   9.844   4.597
 6124SOL    HW120306   0.497   9.897   4.513
 6124SOL    HW220307   0.591   9.869   4.644
 6125SOL     OW20308   1.584   9.870   4.213
 6125SOL    HW120309   1.569   9.942   4.280
 6125SOL    HW220310   1.617   9.911   4.128
 6126SOL     OW20311   1.035   9.441   5.460
 6126SOL    HW120312   1.100   9.517   5.463
 6126SOL    HW220313   1.082   9.358   5.431
 6127SOL     OW20314   0.552   9.350   5.461
 6127SOL    HW120315   0.495   9.299   5.396
 6127SOL    HW220316   0.512   9.441   5.476
 6128SOL     OW20317   1.188   9.831   3.982
 6128SOL    HW120318   1.217   9.747   4.028
 6128SOL    HW220319   1.152   9.895   4.049
 6129SOL     OW20320   0.271   9.478   4.953
 6129SOL    HW120321   0.236   9.512   5.040
 6129SOL    HW220322   0.258   9.379   4.948
 6130SOL     OW20323   0.730   9.937   4.734
 6130SOL    HW120324   0.800   9.896   4.674
 6130SOL    HW220325   0.696   0.021   4.693
 6131SOL     OW20326   0.370   9.450   4.384
 6131SOL    HW120327   0.321   9.524   4.430
 6131SOL    HW220328   0.369   9.369   4.443
 6132SOL     OW20329   1.623   9.652   4.033
 6132SOL    HW120330   1.701   9.602   4.072
 6132SOL    HW220331   1.579   9.707   4.104
 6133SOL     OW20332   1.526   9.531   3.800
 6133SOL    HW120333   1.473   9.454   3.835
 6133SOL    HW220334   1.563   9.583   3.878
 6134SOL     OW20335   0.312   0.099   4.640
 6134SOL    HW120336   0.408   0.128   4.633
 6134SOL    HW220337   0.307   0.013   4.691
 6135SOL     OW20338   0.299   9.841   4.767
 6135SOL    HW120339   0.242   9.760   4.756
 6135SOL    HW220340   0.375   9.836   4.702
 6136SOL     OW20341   1.189   9.666   5.434
 6136SOL    HW120342   1.142   9.712   5.509
 6136SOL    HW220343   1.272   9.717   5.410
 6137SOL     OW20344   1.188   9.514   5.191
 6137SOL    HW120345   1.177   9.563   5.277
 6137SOL    HW220346   1.227   9.575   5.122
 6138SOL     OW20347   0.073   9.850   4.946
 6138SOL    HW120348   0.154   9.869   4.891
 6138SOL    HW220349   0.098   9.841   5.042
 6139SOL     OW20350   0.249   9.936   5.438
 6139SOL    HW120351   0.347   9.954   5.432
 6139SOL    HW220352   0.203   0.014   5.480
 6140SOL     OW20353   0.655   9.845   3.957
 6140SOL    HW120354   0.728   9.778   3.946
 6140SOL    HW220355   0.674   9.902   4.037
 6141SOL     OW20356   1.586   9.918   4.872
 6141SOL    HW120357   1.539   9.897   4.957
 6141SOL    HW220358   1.660   9.852   4.857
 6142SOL     OW20359   0.642   9.799   4.960
 6142SOL    HW120360   0.611   9.706   4.942
 6142SOL    HW220361   0.670   9.842   4.875
 6143SOL     OW20362   1.824   9.516   4.159
 6143SOL    HW120363   1.877   9.472   4.087
 6143SOL    HW220364   1.766   9.448   4.204
 6144SOL     OW20365   1.833   9.441   4.741
 6144SOL    HW120366   1.873   9.357   4.706
 6144SOL    HW220367   1.752   9.464   4.687
 6145SOL     OW20368   0.219   9.644   4.488
 6145SOL    HW120369   0.137   9.676   4.440
 6145SOL    HW220370   0.197   9.632   4.585
 6146SOL     OW20371   1.036   9.549   4.651
 6146SOL    HW120372   1.033   9.499   4.564
 6146SOL    HW220373   1.039   9.483   4.726
 6147SOL     OW20374   1.854   9.689   5.170
 6147SOL    HW120375   1.869   9.778   5.128
 6147SOL    HW220376   1.839   9.620   5.099
 6148SOL     OW20377   0.745   9.493   5.207
 6148SOL    HW120378   0.827   9.455   5.163
 6148SOL    HW220379   0.769   9.525   5.299
 6149SOL     OW20380   0.128   9.622   3.708
 6149SOL    HW120381   0.036   9.589   3.725
 6149SOL    HW220382   0.125   9.702   3.648
 6150SOL     OW20383   0.051   9.380   3.942
 6150SOL    HW120384   0.050   9.367   4.041
 6150SOL    HW220385   0.145   9.375   3.908
 6151SOL     OW20386   0.748   9.842   5.411
 6151SOL    HW120387   0.806   9.899   5.468
 6151SOL    HW220388   0.765   9.745   5.431
 6152SOL     OW20389   1.237   9.623   4.152
 6152SOL    HW120390   1.299   9.545   4.154
 6152SOL    HW220391   1.249   9.677   4.235
 6153SOL     OW20392   1.764   9.668   5.423
 6153SOL    HW120393   1.799   9.674   5.329
 6153SOL    HW220394   1.689   9.602   5.426
 6154SOL     OW20395   1.096   0.177   3.781
 6154SOL    HW120396   1.113   0.239   3.704
 6154SOL    HW220397   1.177   0.175   3.840
 6155SOL     OW20398   1.839   9.456   5.017
 6155SOL    HW120399   1.910   9.387   5.030
 6155SOL    HW220400   1.818   9.465   4.920
 6156SOL     OW20401   0.346   9.777   4.276
 6156SOL    HW120402   0.397   9.720   4.212
 6156SOL    HW220403   0.313   9.721   4.352
 6157SOL     OW20404   0.394   9.914   5.010
 6157SOL    HW120405   0.489   9.885   5.020
 6157SOL    HW220406   0.360   9.889   4.920
 6158SOL     OW20407   1.418   9.560   4.824
 6158SOL    HW120408   1.441   9.467   4.853
 6158SOL    HW220409   1.374   9.608   4.900
 6159SOL     OW20410   1.050   9.325   4.827
 6159SOL    HW120411   0.989   9.270   4.770
 6159SOL    HW220412   1.141   9.283   4.828
 6160SOL     OW20413   1.402   9.314   3.909
 6160SOL    HW120414   1.452   9.240   3.864
 6160SOL    HW220415   1.309   9.283   3.931
 6161SOL     OW20416   1.257   9.772   4.374
 6161SOL    HW120417   1.216   9.863   4.370
 6161SOL    HW220418   1.266   9.745   4.470
 6162SOL     OW20419   1.599   9.503   4.621
 6162SOL    HW120420   1.534   9.541   4.687
 6162SOL    HW220421   1.606   9.565   4.542
 6163SOL     OW20422   9.948   9.579   6.275
 6163SOL    HW120423   9.890   9.657   6.250
 6163SOL    HW220424   9.932   9.504   6.212
 6164SOL     OW20425   1.547   9.926   5.729
 6164SOL    HW120426   1.590   9.920   5.639
 6164SOL    HW220427   1.570   9.846   5.783
 6165SOL     OW20428   0.474   9.730   7.182
 6165SOL    HW120429   0.565   9.772   7.192
 6165SOL    HW220430   0.473   9.673   7.100
 6166SOL     OW20431   1.608   9.750   6.314
 6166SOL    HW120432   1.583   9.787   6.225
 6166SOL    HW220433   1.555   9.796   6.386
 6167SOL     OW20434   1.714   9.365   7.097
 6167SOL    HW120435   1.724   9.423   7.017
 6167SOL    HW220436   1.649   9.406   7.161
 6168SOL     OW20437   9.974   9.967   6.133
 6168SOL    HW120438   9.899   9.908   6.163
 6168SOL    HW220439   0.024   0.000   6.213
 6169SOL     OW20440   0.838   9.360   6.060
 6169SOL    HW120441   0.873   9.453   6.049
 6169SOL    HW220442   0.738   9.363   6.071
 6170SOL     OW20443   0.416   9.604   7.424
 6170SOL    HW120444   0.437   9.660   7.345
 6170SOL    HW220445   0.323   9.625   7.456
 6171SOL     OW20446   1.246   9.685   6.505
 6171SOL    HW120447   1.160   9.636   6.492
 6171SOL    HW220448   1.301   9.638   6.574
 6172SOL     OW20449   0.815   9.850   6.934
 6172SOL    HW120450   0.789   9.829   7.028
 6172SOL    HW220451   0.733   9.873   6.881
 6173SOL     OW20452   1.415   9.740   7.249
 6173SOL    HW120453   1.482   9.805   7.286
 6173SOL    HW220454   1.455   9.648   7.248
 6174SOL     OW20455   1.023   9.836   6.756
 6174SOL    HW120456   0.943   9.830   6.816
 6174SOL    HW220457   0.994   9.821   6.661
 6175SOL     OW20458   1.205   9.987   6.137
 6175SOL    HW120459   1.276   0.032   6.191
 6175SOL    HW220460   1.117   0.030   6.156
 6176SOL     OW20461   0.127   0.071   6.342
 6176SOL    HW120462   0.178   0.056   6.427
 6176SOL    HW220463   0.163   0.152   6.296
 6177SOL     OW20464   0.852   9.661   5.776
 6177SOL    HW120465   0.927   9.691   5.717
 6177SOL    HW220466   0.804   9.584   5.732
 6178SOL     OW20467   1.632   9.897   7.318
 6178SOL    HW120468   1.667   9.976   7.267
 6178SOL    HW220469   1.693   9.819   7.304
 6179SOL     OW20470   0.575   9.498   6.525
 6179SOL    HW120471   0.585   9.511   6.624
 6179SOL    HW220472   0.601   9.582   6.478
 6180SOL     OW20473   1.425   0.049   6.296
 6180SOL    HW120474   1.422   9.978   6.366
 6180SOL    HW220475   1.474   0.129   6.331
 6181SOL     OW20476   0.182   9.565   7.089
 6181SOL    HW120477   0.190   9.653   7.136
 6181SOL    HW220478   0.165   9.493   7.156
 6182SOL     OW20479   1.381   9.388   6.020
 6182SOL    HW120480   1.389   9.364   5.923
 6182SOL    HW220481   1.471   9.382   6.064
 6183SOL     OW20482   1.532   9.486   7.265
 6183SOL    HW120483   1.522   9.498   7.364
 6183SOL    HW220484   1.463   9.422   7.232
 6184SOL     OW20485   0.697   9.442   5.681
 6184SOL    HW120486   0.748   9.373   5.733
 6184SOL    HW220487   0.641   9.396   5.611
 6185SOL     OW20488   0.770   9.539   7.256
 6185SOL    HW120489   0.855   9.501   7.295
 6185SOL    HW220490   0.692   9.490   7.295
 6186SOL     OW20491   1.307   9.888   7.048
 6186SOL    HW120492   1.340   9.834   7.126
 6186SOL    HW220493   1.373   9.959   7.026
 6187SOL     OW20494   0.930   9.785   6.494
 6187SOL    HW120495   0.914   9.795   6.396
 6187SOL    HW220496   0.953   9.690   6.514
 6188SOL     OW20497   0.566   9.378   6.065
 6188SOL    HW120498   0.504   9.367   6.142
 6188SOL    HW220499   0.540   9.459   6.012
 6189SOL     OW20500   0.331   9.350   5.669
 6189SOL    HW120501   0.373   9.427   5.621
 6189SOL    HW220502   0.397   9.312   5.734
 6190SOL     OW20503   0.942   9.610   6.027
 6190SOL    HW120504   0.907   9.635   5.937
 6190SOL    HW220505   1.042   9.603   6.023
 6191SOL     OW20506   1.036   9.925   7.105
 6191SOL    HW120507   0.978   9.900   7.027
 6191SOL    HW220508   1.132   9.915   7.079
 6192SOL     OW20509   1.057   9.796   5.647
 6192SOL    HW120510   1.008   9.876   5.612
 6192SOL    HW220511   1.103   9.820   5.732
 6193SOL     OW20512   0.020   9.849   7.043
 6193SOL    HW120513   0.091   9.837   7.112
 6193SOL    HW220514   9.932   9.865   7.088
 6194SOL     OW20515   0.562   9.547   6.799
 6194SOL    HW120516   0.634   9.521   6.864
 6194SOL    HW220517   0.476   9.505   6.826
 6195SOL     OW20518   0.919   9.804   6.227
 6195SOL    HW120519   0.929   9.891   6.179
 6195SOL    HW220520   0.919   9.729   6.161
 6196SOL     OW20521   1.006   9.342   6.279
 6196SOL    HW120522   0.946   9.349   6.198
 6196SOL    HW220523   0.967   9.276   6.343
 6197SOL     OW20524   1.446   9.870   6.497
 6197SOL    HW120525   1.365   9.813   6.509
 6197SOL    HW220526   1.491   9.882   6.586
 6198SOL     OW20527   0.504   9.573   5.881
 6198SOL    HW120528   0.571   9.553   5.811
 6198SOL    HW220529   0.427   9.622   5.841
 6199SOL     OW20530   0.976   9.372   6.913
 6199SOL    HW120531   1.004   9.356   6.818
 6199SOL    HW220532   1.050   9.418   6.963
 6200SOL     OW20533   1.237   9.704   6.866
 6200SOL    HW120534   1.269   9.772   6.932
 6200SOL    HW220535   1.160   9.741   6.814
 6201SOL     OW20536   0.594   9.754   6.424
 6201SOL    HW120537   0.565   9.808   6.344
 6201SOL    HW220538   0.633   9.815   6.492
 6202SOL     OW20539   1.562   9.911   6.093
 6202SOL    HW120540   1.501   9.962   6.154
 6202SOL    HW220541   1.631   9.973   6.055
 6203SOL     OW20542   0.992   9.432   7.367
 6203SOL    HW120543   1.068   9.492   7.342
 6203SOL    HW220544   1.027   9.352   7.415
 6204SOL     OW20545   0.557   9.391   7.349
 6204SOL    HW120546   0.497   9.341   7.288
 6204SOL    HW220547   0.507   9.467   7.390
 6205SOL     OW20548   1.178   9.855   5.897
 6205SOL    HW120549   1.197   9.759   5.916
 6205SOL    HW220550   1.180   9.907   5.983
 6206SOL     OW20551   0.328   9.445   6.890
 6206SOL    HW120552   0.270   9.492   6.956
 6206SOL    HW220553   0.280   9.364   6.856
 6207SOL     OW20554   0.691   9.935   6.609
 6207SOL    HW120555   0.782   9.930   6.569
 6207SOL    HW220556   0.654   0.027   6.596
 6208SOL     OW20557   0.372   9.349   6.253
 6208SOL    HW120558   0.357   9.395   6.341
 6208SOL    HW220559   0.285   9.312   6.220
 6209SOL     OW20560   1.594   9.715   5.900
 6209SOL    HW120561   1.655   9.647   5.941
 6209SOL    HW220562   1.565   9.780   5.970
 6210SOL     OW20563   1.522   9.554   5.682
 6210SOL    HW120564   1.472   9.474   5.715
 6210SOL    HW220565   1.542   9.615   5.759
 6211SOL     OW20566   0.292   0.083   6.571
 6211SOL    HW120567   0.389   0.108   6.572
 6211SOL    HW220568   0.280   9.992   6.610
 6212SOL     OW20569   1.163   9.634   7.291
 6212SOL    HW120570   1.105   9.686   7.353
 6212SOL    HW220571   1.253   9.677   7.286
 6213SOL     OW20572   1.175   9.507   7.047
 6213SOL    HW120573   1.159   9.551   7.135
 6213SOL    HW220574   1.199   9.576   6.978
 6214SOL     OW20575   0.039   9.893   6.778
 6214SOL    HW120576   0.128   9.865   6.740
 6214SOL    HW220577   0.034   9.865   6.873
 6215SOL     OW20578   0.217   9.805   7.231
 6215SOL    HW120579   0.313   9.785   7.211
 6215SOL    HW220580   0.210   9.895   7.273
 6216SOL     OW20581   0.707   9.891   5.814
 6216SOL    HW120582   0.758   9.805   5.806
 6216SOL    HW220583   0.715   9.926   5.908
 6217SOL     OW20584   1.586   9.884   6.733
 6217SOL    HW120585   1.543   9.833   6.808
 6217SOL    HW220586   1.678   9.847   6.717
 6218SOL     OW20587   0.510   9.811   6.769
 6218SOL    HW120588   0.535   9.715   6.782
 6218SOL    HW220589   0.578   9.856   6.711
 6219SOL     OW20590   1.759   9.532   6.019
 6219SOL    HW120591   1.819   9.497   5.946
 6219SOL    HW220592   1.711   9.456   6.061
 6220SOL     OW20593   1.815   9.499   6.570
 6220SOL    HW120594   1.853   9.411   6.541
 6220SOL    HW220595   1.726   9.513   6.526
 6221SOL     OW20596   0.214   9.616   6.243
 6221SOL    HW120597   0.116   9.614   6.261
 6221SOL    HW220598   0.263   9.583   6.324
 6222SOL     OW20599   1.026   9.526   6.493
 6222SOL    HW120600   1.019   9.481   6.403
 6222SOL    HW220601   1.031   9.456   6.564
 6223SOL     OW20602   1.858   9.656   7.022
 6223SOL    HW120603   1.880   9.749   6.991
 6223SOL    HW220604   1.825   9.602   6.944
 6224SOL     OW20605   0.736   9.469   6.993
 6224SOL    HW120606   0.823   9.433   6.957
 6224SOL    HW220607   0.750   9.503   7.086
 6225SOL     OW20608   0.174   9.697   5.550
 6225SOL    HW120609   0.075   9.678   5.554
 6225SOL    HW220610   0.189   9.785   5.506
 6226SOL     OW20611   0.090   9.401   5.776
 6226SOL    HW120612   0.111   9.438   5.867
 6226SOL    HW220613   0.175   9.375   5.730
 6227SOL     OW20614   0.741   9.805   7.199
 6227SOL    HW120615   0.793   9.868   7.256
 6227SOL    HW220616   0.762   9.710   7.225
 6228SOL     OW20617   1.214   9.606   6.014
 6228SOL    HW120618   1.268   9.522   6.004
 6228SOL    HW220619   1.240   9.653   6.098
 6229SOL     OW20620   1.768   9.665   7.278
 6229SOL    HW120621   1.802   9.660   7.184
 6229SOL    HW220622   1.697   9.595   7.292
 6230SOL     OW20623   1.111   0.179   5.660
 6230SOL    HW120624   1.138   0.245   5.589
 6230SOL    HW220625   1.192   0.145   5.706
 6231SOL     OW20626   1.778   9.461   6.840
 6231SOL    HW120627   1.778   9.361   6.832
 6231SOL    HW220628   1.785   9.501   6.749
 6232SOL     OW20629   0.426   9.725   6.103
 6232SOL    HW120630   0.459   9.665   6.030
 6232SOL    HW220631   0.352   9.679   6.152
 6233SOL     OW20632   1.399   9.567   6.693
 6233SOL    HW120633   1.423   9.473   6.717
 6233SOL    HW220634   1.345   9.608   6.767
 6234SOL     OW20635   1.046   9.305   6.657
 6234SOL    HW120636   0.981   9.249   6.606
 6234SOL    HW220637   1.136   9.263   6.654
 6235SOL     OW20638   1.396   9.323   5.756
 6235SOL    HW120639   1.447   9.246   5.717
 6235SOL    HW220640   1.301   9.295   5.770
 6236SOL     OW20641   1.277   9.739   6.235
 6236SOL    HW120642   1.246   9.831   6.211
 6236SOL    HW220643   1.264   9.724   6.333
 6237SOL     OW20644   1.566   9.525   6.474
 6237SOL    HW120645   1.501   9.559   6.542
 6237SOL    HW220646   1.574   9.592   6.399
 6238SOL     OW20647   0.166   9.577   8.468
 6238SOL    HW120648   0.202   9.515   8.538
 6238SOL    HW220649   0.067   9.582   8.475
 6239SOL     OW20650   9.895   9.583   8.131
 6239SOL    HW120651   9.948   9.667   8.119
 6239SOL    HW220652   9.925   9.515   8.063
 6240SOL     OW20653   1.614   9.958   7.579
 6240SOL    HW120654   1.620   9.941   7.481
 6240SOL    HW220655   1.606   9.872   7.628
 6241SOL     OW20656   0.480   9.773   8.919
 6241SOL    HW120657   0.554   9.799   8.981
 6241SOL    HW220658   0.514   9.709   8.850
 6242SOL     OW20659   1.571   9.797   8.122
 6242SOL    HW120660   1.548   9.700   8.119
 6242SOL    HW220661   1.526   9.840   8.201
 6243SOL     OW20662   1.565   9.441   8.875
 6243SOL    HW120663   1.635   9.483   8.816
 6243SOL    HW220664   1.552   9.497   8.957
 6244SOL     OW20665   0.782   9.357   7.977
 6244SOL    HW120666   0.825   9.437   7.935
 6244SOL    HW220667   0.687   9.351   7.947
 6245SOL     OW20668   0.330   9.510   9.295
 6245SOL    HW120669   0.362   9.576   9.364
 6245SOL    HW220670   0.241   9.539   9.260
 6246SOL     OW20671   1.316   9.619   8.337
 6246SOL    HW120672   1.219   9.596   8.331
 6246SOL    HW220673   1.351   9.591   8.427
 6247SOL     OW20674   0.837   9.833   8.840
 6247SOL    HW120675   0.792   9.831   8.930
 6247SOL    HW220676   0.769   9.816   8.769
 6248SOL     OW20677   1.418   9.765   9.110
 6248SOL    HW120678   1.466   9.817   9.182
 6248SOL    HW220679   1.441   9.668   9.119
 6249SOL     OW20680   1.041   9.802   8.664
 6249SOL    HW120681   0.971   9.805   8.735
 6249SOL    HW220682   1.013   9.738   8.592
 6250SOL     OW20683   1.042   0.016   7.852
 6250SOL    HW120684   1.125   0.049   7.898
 6250SOL    HW220685   0.962   0.047   7.902
 6251SOL     OW20686   0.817   9.613   7.613
 6251SOL    HW120687   0.887   9.639   7.546
 6251SOL    HW220688   0.786   9.519   7.594
 6252SOL     OW20689   1.601   9.883   9.285
 6252SOL    HW120690   1.613   9.976   9.251
 6252SOL    HW220691   1.664   9.822   9.238
 6253SOL     OW20692   0.535   9.449   8.431
 6253SOL    HW120693   0.521   9.468   8.528
 6253SOL    HW220694   0.550   9.535   8.382
 6254SOL     OW20695   1.411   0.097   8.203
 6254SOL    HW120696   1.410   0.017   8.263
 6254SOL    HW220697   1.480   0.162   8.236
 6255SOL     OW20698   0.140   9.505   8.924
 6255SOL    HW120699   0.173   9.592   8.961
 6255SOL    HW220700   0.156   9.433   8.991
 6256SOL     OW20701   1.351   9.422   7.849
 6256SOL    HW120702   1.350   9.381   7.758
 6256SOL    HW220703   1.445   9.440   7.877
 6257SOL     OW20704   1.505   9.511   9.156
 6257SOL    HW120705   1.500   9.524   9.255
 6257SOL    HW220706   1.456   9.427   9.131
 6258SOL     OW20707   0.721   9.355   7.570
 6258SOL    HW120708   0.736   9.258   7.588
 6258SOL    HW220709   0.657   9.366   7.495
 6259SOL     OW20710   0.770   9.559   9.147
 6259SOL    HW120711   0.863   9.523   9.151
 6259SOL    HW220712   0.718   9.527   9.226
 6260SOL     OW20713   1.478   9.877   8.862
 6260SOL    HW120714   1.452   9.832   8.948
 6260SOL    HW220715   1.536   9.956   8.882
 6261SOL     OW20716   0.932   9.808   8.288
 6261SOL    HW120717   0.898   9.799   8.195
 6261SOL    HW220718   0.976   9.723   8.316
 6262SOL     OW20719   0.506   9.371   7.890
 6262SOL    HW120720   0.437   9.365   7.963
 6262SOL    HW220721   0.511   9.465   7.857
 6263SOL     OW20722   0.905   9.585   7.870
 6263SOL    HW120723   0.871   9.593   7.776
 6263SOL    HW220724   1.004   9.598   7.871
 6264SOL     OW20725   1.042   9.955   8.985
 6264SOL    HW120726   0.974   9.930   8.917
 6264SOL    HW220727   1.080   0.045   8.963
 6265SOL     OW20728   1.012   9.774   7.472
 6265SOL    HW120729   0.974   9.856   7.429
 6265SOL    HW220730   1.073   9.800   7.547
 6266SOL     OW20731   0.079   9.937   8.844
 6266SOL    HW120732   0.172   9.943   8.807
 6266SOL    HW220733   0.075   9.864   8.912
 6267SOL     OW20734   0.504   9.536   8.694
 6267SOL    HW120735   0.566   9.501   8.765
 6267SOL    HW220736   0.415   9.493   8.703
 6268SOL     OW20737   0.843   9.797   8.039
 6268SOL    HW120738   0.806   9.873   7.984
 6268SOL    HW220739   0.859   9.718   7.980
 6269SOL     OW20740   1.005   9.363   8.149
 6269SOL    HW120741   0.929   9.367   8.083
 6269SOL    HW220742   0.986   9.291   8.216
 6270SOL     OW20743   1.436   9.874   8.358
 6270SOL    HW120744   1.383   9.790   8.369
 6270SOL    HW220745   1.471   9.904   8.447
 6271SOL     OW20746   0.496   9.634   7.817
 6271SOL    HW120747   0.574   9.661   7.759
 6271SOL    HW220748   0.412   9.673   7.779
 6272SOL     OW20749   0.942   9.403   8.792
 6272SOL    HW120750   0.966   9.379   8.698
 6272SOL    HW220751   1.022   9.442   8.838
 6273SOL     OW20752   1.281   9.705   8.765
 6273SOL    HW120753   1.347   9.774   8.794
 6273SOL    HW220754   1.199   9.751   8.729
 6274SOL     OW20755   0.560   9.715   8.345
 6274SOL    HW120756   0.538   9.704   8.248
 6274SOL    HW220757   0.628   9.787   8.356
 6275SOL     OW20758   1.515   9.938   7.894
 6275SOL    HW120759   1.531   9.891   7.981
 6275SOL    HW220760   1.586   0.007   7.880
 6276SOL     OW20761   1.016   9.452   9.186
 6276SOL    HW120762   1.043   9.511   9.263
 6276SOL    HW220763   1.089   9.386   9.168
 6277SOL     OW20764   0.505   9.338   9.168
 6277SOL    HW120765   0.498   9.311   9.072
 6277SOL    HW220766   0.425   9.391   9.195
 6278SOL     OW20767   1.169   9.849   7.686
 6278SOL    HW120768   1.184   9.765   7.737
 6278SOL    HW220769   1.118   9.914   7.742
 6279SOL     OW20770   0.248   9.417   8.686
 6279SOL    HW120771   0.203   9.450   8.769
 6279SOL    HW220772   0.225   9.321   8.672
 6280SOL     OW20773   0.724   9.930   8.426
 6280SOL    HW120774   0.802   9.903   8.369
 6280SOL    HW220775   0.691   0.019   8.398
 6281SOL     OW20776   0.288   9.377   8.067
 6281SOL    HW120777   0.255   9.463   8.104
 6281SOL    HW220778   0.318   9.318   8.142
 6282SOL     OW20779   1.574   9.728   7.722
 6282SOL    HW120780   1.653   9.685   7.766
 6282SOL    HW220781   1.531   9.792   7.786
 6283SOL     OW20782   1.503   9.539   7.525
 6283SOL    HW120783   1.446   9.466   7.563
 6283SOL    HW220784   1.521   9.607   7.596
 6284SOL     OW20785   0.356   0.056   8.364
 6284SOL    HW120786   0.445   0.101   8.375
 6284SOL    HW220787   0.359   9.966   8.408
 6285SOL     OW20788   0.338   9.794   8.482
 6285SOL    HW120789   0.270   9.720   8.480
 6285SOL    HW220790   0.421   9.765   8.435
 6286SOL     OW20791   1.146   9.740   9.113
 6286SOL    HW120792   1.104   9.815   9.063
 6286SOL    HW220793   1.246   9.749   9.109
 6287SOL     OW20794   1.158   9.514   8.919
 6287SOL    HW120795   1.128   9.563   9.001
 6287SOL    HW220796   1.210   9.576   8.861
 6288SOL     OW20797   0.065   9.882   8.564
 6288SOL    HW120798   0.165   9.884   8.553
 6288SOL    HW220799   0.041   9.917   8.654
 6289SOL     OW20800   0.221   9.750   9.016
 6289SOL    HW120801   0.316   9.753   8.985
 6289SOL    HW220802   0.205   9.826   9.080
 6290SOL     OW20803   0.738   9.877   7.652
 6290SOL    HW120804   0.761   9.782   7.633
 6290SOL    HW220805   0.819   9.925   7.686
 6291SOL     OW20806   1.555   9.947   8.601
 6291SOL    HW120807   1.522   9.915   8.690
 6291SOL    HW220808   1.643   9.904   8.580
 6292SOL     OW20809   0.657   9.775   8.651
 6292SOL    HW120810   0.602   9.693   8.635
 6292SOL    HW220811   0.668   9.825   8.566
 6293SOL     OW20812   1.784   9.606   7.850
 6293SOL    HW120813   1.856   9.571   7.790
 6293SOL    HW220814   1.727   9.530   7.881
 6294SOL     OW20815   0.217   9.609   8.190
 6294SOL    HW120816   0.158   9.685   8.166
 6294SOL    HW220817   0.205   9.586   8.287
 6295SOL     OW20818   1.051   9.551   8.348
 6295SOL    HW120819   1.033   9.500   8.264
 6295SOL    HW220820   1.041   9.490   8.427
 6296SOL     OW20821   1.833   9.704   8.905
 6296SOL    HW120822   1.858   9.793   8.866
 6296SOL    HW220823   1.806   9.642   8.832
 6297SOL     OW20824   0.696   9.463   8.891
 6297SOL    HW120825   0.784   9.444   8.847
 6297SOL    HW220826   0.712   9.505   8.980
 6298SOL     OW20827   0.158   9.691   7.484
 6298SOL    HW120828   0.068   9.652   7.499
 6298SOL    HW220829   0.161   9.736   7.395
 6299SOL     OW20830   0.034   9.359   7.618
 6299SOL    HW120831   0.089   9.401   7.690
 6299SOL    HW220832   0.031   9.260   7.632
 6300SOL     OW20833   0.707   9.820   9.082
 6300SOL    HW120834   0.755   9.888   9.137
 6300SOL    HW220835   0.730   9.728   9.114
 6301SOL     OW20836   1.178   9.635   7.864
 6301SOL    HW120837   1.237   9.555   7.854
 6301SOL    HW220838   1.201   9.683   7.949
 6302SOL     OW20839   1.736   9.680   9.158
 6302SOL    HW120840   1.774   9.693   9.066
 6302SOL    HW220841   1.666   9.609   9.156
 6303SOL     OW20842   1.125   0.147   7.469
 6303SOL    HW120843   1.151   0.219   7.405
 6303SOL    HW220844   1.206   0.115   7.518
 6304SOL     OW20845   1.777   9.518   8.714
 6304SOL    HW120846   1.837   9.438   8.714
 6304SOL    HW220847   1.769   9.554   8.622
 6305SOL     OW20848   0.472   9.677   8.095
 6305SOL    HW120849   0.487   9.665   7.997
 6305SOL    HW220850   0.378   9.650   8.118
 6306SOL     OW20851   0.333   9.915   8.730
 6306SOL    HW120852   0.388   9.876   8.803
 6306SOL    HW220853   0.350   9.865   8.645
 6307SOL     OW20854   1.404   9.544   8.576
 6307SOL    HW120855   1.441   9.455   8.600
 6307SOL    HW220856   1.365   9.587   8.657
 6308SOL     OW20857   1.031   9.335   8.533
 6308SOL    HW120858   0.990   9.275   8.464
 6308SOL    HW220859   1.115   9.293   8.567
 6309SOL     OW20860   1.363   9.311   7.602
 6309SOL    HW120861   1.429   9.244   7.569
 6309SOL    HW220862   1.270   9.274   7.593
 6310SOL     OW20863   1.250   9.759   8.094
 6310SOL    HW120864   1.240   9.858   8.105
 6310SOL    HW220865   1.274   9.718   8.181
 6311SOL     OW20866   1.611   9.876   9.560
 6311SOL    HW120867   1.614   9.868   9.461
 6311SOL    HW220868   1.587   9.787   9.600
 6312SOL     OW20869   9.975   9.987   9.861
 6312SOL    HW120870   9.903   0.057   9.854
 6312SOL    HW220871   0.027   0.000   9.946
 6313SOL     OW20872   0.832   9.307   9.784
 6313SOL    HW120873   0.871   9.399   9.784
 6313SOL    HW220874   0.734   9.311   9.804
 6314SOL     OW20875   1.126   9.933   9.782
 6314SOL    HW120876   1.156   9.901   9.872
 6314SOL    HW220877   1.031   9.962   9.787
 6315SOL     OW20878   0.072   0.040   0.112
 6315SOL    HW120879   0.046   0.028   0.208
 6315SOL    HW220880   0.056   0.135   0.085
 6316SOL     OW20881   0.811   9.618   9.508
 6316SOL    HW120882   0.892   9.632   9.451
 6316SOL    HW220883   0.747   9.557   9.462
 6317SOL     OW20884   1.389   9.406   9.723
 6317SOL    HW120885   1.391   9.359   9.635
 6317SOL    HW220886   1.447   9.488   9.719
 6318SOL     OW20887   0.641   9.449   9.374
 6318SOL    HW120888   0.621   9.391   9.454
 6318SOL    HW220889   0.591   9.414   9.295
 6319SOL     OW20890   0.565   9.363   9.821
 6319SOL    HW120891   0.470   9.353   9.851
 6319SOL    HW220892   0.577   9.451   9.775
 6320SOL     OW20893   0.302   9.300   9.469
 6320SOL    HW120894   0.312   9.375   9.403
 6320SOL    HW220895   0.391   9.277   9.507
 6321SOL     OW20896   0.912   9.573   9.769
 6321SOL    HW120897   0.885   9.586   9.674
 6321SOL    HW220898   1.012   9.573   9.776
 6322SOL     OW20899   0.898   9.774   9.970
 6322SOL    HW120900   0.871   9.856   9.919
 6322SOL    HW220901   0.890   9.694   9.910
 6323SOL     OW20902   0.590   9.603   9.701
 6323SOL    HW120903   0.665   9.630   9.642
 6323SOL    HW220904   0.564   9.679   9.760
 6324SOL     OW20905   1.693   0.030   9.781
 6324SOL    HW120906   1.607   0.065   9.817
 6324SOL    HW220907   1.676   9.978   9.697
 6325SOL     OW20908   1.535   9.642   9.690
 6325SOL    HW120909   1.619   9.601   9.725
 6325SOL    HW220910   1.485   9.683   9.766
 6326SOL     OW20911   1.476   9.543   9.423
 6326SOL    HW120912   1.428   9.457   9.440
 6326SOL    HW220913   1.497   9.587   9.510
 6327SOL     OW20914   0.343   9.796   0.217
 6327SOL    HW120915   0.244   9.789   0.214
 6327SOL    HW220916   0.384   9.723   0.163
 6328SOL     OW20917   0.760   9.893   9.565
 6328SOL    HW120918   0.779   9.797   9.545
 6328SOL    HW220919   0.799   9.917   9.654
 6329SOL     OW20920   1.753   9.492   9.763
 6329SOL    HW120921   1.822   9.493   9.691
 6329SOL    HW220922   1.725   9.398   9.781
 6330SOL     OW20923   0.079   9.629   9.274
 6330SOL    HW120924   0.011   9.577   9.327
 6330SOL    HW220925   0.039   9.658   9.187
 6331SOL     OW20926   0.063   9.347   9.603
 6331SOL    HW120927   0.063   9.349   9.703
 6331SOL    HW220928   0.156   9.334   9.570
 6332SOL     OW20929   1.179   9.568   9.795
 6332SOL    HW120930   1.238   9.495   9.761
 6332SOL    HW220931   1.234   9.637   9.841
 6333SOL     OW20932   1.052   0.142   9.365
 6333SOL    HW120933   1.105   0.207   9.310
 6333SOL    HW220934   1.113   0.096   9.429
 6334SOL     OW20935   0.486   9.780   9.877
 6334SOL    HW120936   0.465   9.720   9.954
 6334SOL    HW220937   0.424   9.858   9.877
 6335SOL     OW20938   1.363   9.300   9.476
 6335SOL    HW120939   1.420   9.232   9.429
 6335SOL    HW220940   1.275   9.259   9.499
 6336SOL     OW20941   1.385   9.723   9.910
 6336SOL    HW120942   1.309   9.773   9.951
 6336SOL    HW220943   1.441   9.682   9.982
 6337SOL     OW20944   1.963   0.569   0.130
 6337SOL    HW120945   1.872   0.561   0.169
 6337SOL    HW220946   1.967   0.520   0.043
 6338SOL     OW20947   2.033   0.304   1.084
 6338SOL    HW120948   2.088   0.249   1.147
 6338SOL    HW220949   1.965   0.246   1.040
 6339SOL     OW20950   1.831   0.435   0.648
 6339SOL    HW120951   1.742   0.452   0.692
 6339SOL    HW220952   1.822   0.360   0.583
 6340SOL     OW20953   2.523   1.323   1.143
 6340SOL    HW120954   2.431   1.358   1.129
 6340SOL    HW220955   2.587   1.372   1.083
 6341SOL     OW20956   3.547   1.515   0.725
 6341SOL    HW120957   3.496   1.483   0.805
 6341SOL    HW220958   3.483   1.547   0.655
 6342SOL     OW20959   2.997   0.704   0.661
 6342SOL    HW120960   3.039   0.794   0.670
 6342SOL    HW220961   2.937   0.687   0.739
 6343SOL     OW20962   3.580   0.597   0.229
 6343SOL    HW120963   3.497   0.636   0.189
 6343SOL    HW220964   3.556   0.519   0.287
 6344SOL     OW20965   2.531   1.105   0.979
 6344SOL    HW120966   2.528   1.177   1.047
 6344SOL    HW220967   2.471   1.128   0.902
 6345SOL     OW20968   2.772   0.649   1.794
 6345SOL    HW120969   2.773   0.738   1.838
 6345SOL    HW220970   2.825   0.653   1.709
 6346SOL     OW20971   2.544   0.931   0.672
 6346SOL    HW120972   2.626   0.931   0.729
 6346SOL    HW220973   2.485   1.008   0.697
 6347SOL     OW20974   2.606   1.168   1.815
 6347SOL    HW120975   2.671   1.219   1.870
 6347SOL    HW220976   2.533   1.229   1.784
 6348SOL     OW20977   2.278   1.432   1.077
 6348SOL    HW120978   2.201   1.377   1.044
 6348SOL    HW220979   2.302   1.501   1.007
 6349SOL     OW20980   3.261   1.511   1.391
 6349SOL    HW120981   3.315   1.592   1.414
 6349SOL    HW220982   3.176   1.512   1.443
 6350SOL     OW20983   2.357   0.466   1.532
 6350SOL    HW120984   2.442   0.447   1.580
 6350SOL    HW220985   2.301   0.383   1.529
 6351SOL     OW20986   3.419   0.456   0.763
 6351SOL    HW120987   3.354   0.454   0.687
 6351SOL    HW220988   3.387   0.521   0.832
 6352SOL     OW20989   2.039   1.717   0.503
 6352SOL    HW120990   2.006   1.791   0.561
 6352SOL    HW220991   2.139   1.721   0.498
 6353SOL     OW20992   2.988   1.315   1.701
 6353SOL    HW120993   3.074   1.280   1.740
 6353SOL    HW220994   2.928   1.238   1.679
 6354SOL     OW20995   2.043   1.442   0.480
 6354SOL    HW120996   2.039   1.541   0.494
 6354SOL    HW220997   2.017   1.395   0.564
 6355SOL     OW20998   2.216   1.050   0.930
 6355SOL    HW120999   2.198   0.957   0.961
 6355SOL    HW221000   2.139   1.109   0.955
 6356SOL     OW21001   2.437   1.835   1.475
 6356SOL    HW121002   2.358   1.841   1.536
 6356SOL    HW221003   2.476   1.927   1.462
 6357SOL     OW21004   2.398   0.919   0.206
 6357SOL    HW121005   2.364   0.992   0.147
 6357SOL    HW221006   2.468   0.955   0.268
 6358SOL     OW21007   3.423   0.077   1.490
 6358SOL    HW121008   3.474   0.144   1.436
 6358SOL    HW221009   3.391   0.119   1.575
 6359SOL     OW21010   1.921   0.692   0.623
 6359SOL    HW121011   1.890   0.597   0.630
 6359SOL    HW221012   1.949   0.725   0.713
 6360SOL     OW21013   3.801   1.695   0.315
 6360SOL    HW121014   3.876   1.663   0.373
 6360SOL    HW221015   3.815   1.792   0.293
 6361SOL     OW21016   1.893   1.671   0.265
 6361SOL    HW121017   1.929   1.589   0.221
 6361SOL    HW221018   1.941   1.687   0.351
 6362SOL     OW21019   3.566   0.937   0.698
 6362SOL    HW121020   3.658   0.897   0.707
 6362SOL    HW221021   3.559   0.985   0.611
 6363SOL     OW21022   3.544   1.103   0.474
 6363SOL    HW121023   3.599   1.059   0.404
 6363SOL    HW221024   3.584   1.191   0.498
 6364SOL     OW21025   1.939   0.811   1.484
 6364SOL    HW121026   2.004   0.858   1.423
 6364SOL    HW221027   1.855   0.865   1.491
 6365SOL     OW21028   2.486   1.397   0.763
 6365SOL    HW121029   2.451   1.305   0.750
 6365SOL    HW221030   2.497   1.442   0.675
 6366SOL     OW21031   3.101   1.192   1.422
 6366SOL    HW121032   3.121   1.135   1.342
 6366SOL    HW221033   3.176   1.185   1.487
 6367SOL     OW21034   2.631   0.052   0.541
 6367SOL    HW121035   2.684   0.131   0.512
 6367SOL    HW221036   2.533   0.071   0.533
 6368SOL     OW21037   2.098   0.942   1.296
 6368SOL    HW121038   2.194   0.921   1.315
 6368SOL    HW221039   2.073   0.905   1.207
 6369SOL     OW21040   3.404   0.869   0.363
 6369SOL    HW121041   3.309   0.851   0.339
 6369SOL    HW221042   3.415   0.965   0.389
 6370SOL     OW21043   2.931   1.763   1.626
 6370SOL    HW121044   2.969   1.845   1.583
 6370SOL    HW221045   2.965   1.682   1.579
 6371SOL     OW21046   2.264   0.229   1.783
 6371SOL    HW121047   2.318   0.294   1.836
 6371SOL    HW221048   2.170   0.229   1.817
 6372SOL     OW21049   3.366   1.433   0.920
 6372SOL    HW121050   3.307   1.472   0.990
 6372SOL    HW221051   3.332   1.342   0.894
 6373SOL     OW21052   3.495   1.899   0.488
 6373SOL    HW121053   3.512   1.814   0.438
 6373SOL    HW221054   3.474   1.878   0.583
 6374SOL     OW21055   2.386   0.668   0.319
 6374SOL    HW121056   2.396   0.755   0.270
 6374SOL    HW221057   2.320   0.678   0.393
 6375SOL     OW21058   3.120   0.382   0.915
 6375SOL    HW121059   3.031   0.335   0.912
 6375SOL    HW221060   3.182   0.332   0.975
 6376SOL     OW21061   3.533   1.666   0.358
 6376SOL    HW121062   3.632   1.665   0.344
 6376SOL    HW221063   3.487   1.636   0.274
 6377SOL     OW21064   2.671   0.584   1.447
 6377SOL    HW121065   2.641   0.526   1.523
 6377SOL    HW221066   2.654   0.537   1.361
 6378SOL     OW21067   3.273   0.528   1.654
 6378SOL    HW121068   3.259   0.560   1.748
 6378SOL    HW221069   3.366   0.495   1.643
 6379SOL     OW21070   2.868   0.442   1.097
 6379SOL    HW121071   2.783   0.448   1.149
 6379SOL    HW221072   2.873   0.353   1.052
 6380SOL     OW21073   2.903   0.692   0.404
 6380SOL    HW121074   2.933   0.693   0.500
 6380SOL    HW221075   2.808   0.663   0.398
 6381SOL     OW21076   1.980   0.799   0.861
 6381SOL    HW121077   2.060   0.790   0.919
 6381SOL    HW221078   1.925   0.877   0.891
 6382SOL     OW21079   1.962   1.926   1.603
 6382SOL    HW121080   1.964   1.857   1.676
 6382SOL    HW221081   1.869   1.932   1.565
 6383SOL     OW21082   2.702   0.383   0.208
 6383SOL    HW121083   2.688   0.440   0.126
 6383SOL    HW221084   2.699   0.287   0.182
 6384SOL     OW21085   3.520   0.601   1.852
 6384SOL    HW121086   3.504   0.684   1.800
 6384SOL    HW221087   3.529   0.524   1.789
 6385SOL     OW21088   3.291   1.159   0.588
 6385SOL    HW121089   3.381   1.140   0.548
 6385SOL    HW221090   3.248   1.235   0.538
 6386SOL     OW21091   2.397   0.218   0.977
 6386SOL    HW121092   2.418   0.239   1.072
 6386SOL    HW221093   2.404   0.301   0.922
 6387SOL     OW21094   2.908   1.471   0.406
 6387SOL    HW121095   2.877   1.561   0.375
 6387SOL    HW221096   2.878   1.455   0.500
 6388SOL     OW21097   2.232   1.828   0.992
 6388SOL    HW121098   2.267   1.744   0.950
 6388SOL    HW221099   2.269   1.908   0.945
 6389SOL     OW21100   3.637   1.094   0.909
 6389SOL    HW121101   3.601   1.046   0.829
 6389SOL    HW221102   3.566   1.100   0.979
 6390SOL     OW21103   3.013   1.517   1.516
 6390SOL    HW121104   3.018   1.447   1.587
 6390SOL    HW221105   2.963   1.482   1.437
 6391SOL     OW21106   2.180   0.941   0.380
 6391SOL    HW121107   2.254   0.937   0.312
 6391SOL    HW221108   2.173   0.853   0.428
 6392SOL     OW21109   3.354   0.771   0.736
 6392SOL    HW121110   3.347   0.725   0.824
 6392SOL    HW221111   3.436   0.828   0.734
 6393SOL     OW21112   2.351   1.345   1.723
 6393SOL    HW121113   2.334   1.316   1.629
 6393SOL    HW221114   2.264   1.357   1.771
 6394SOL     OW21115   2.978   1.767   0.170
 6394SOL    HW121116   2.910   1.737   0.237
 6394SOL    HW221117   3.031   1.688   0.138
 6395SOL     OW21118   2.165   0.261   1.528
 6395SOL    HW121119   2.066   0.277   1.530
 6395SOL    HW221120   2.197   0.239   1.620
 6396SOL     OW21121   3.477   1.327   0.118
 6396SOL    HW121122   3.472   1.427   0.119
 6396SOL    HW221123   3.388   1.289   0.142
 6397SOL     OW21124   2.312   1.743   0.473
 6397SOL    HW121125   2.365   1.820   0.507
 6397SOL    HW221126   2.296   1.754   0.375
 6398SOL     OW21127   3.232   0.120   0.361
 6398SOL    HW121128   3.238   0.119   0.261
 6398SOL    HW221129   3.303   0.061   0.399
 6399SOL     OW21130   2.142   1.781   1.240
 6399SOL    HW121131   2.190   1.701   1.276
 6399SOL    HW221132   2.165   1.794   1.144
 6400SOL     OW21133   2.738   1.747   0.829
 6400SOL    HW121134   2.733   1.729   0.927
 6400SOL    HW221135   2.741   1.661   0.779
 6401SOL     OW21136   2.175   0.692   0.506
 6401SOL    HW121137   2.194   0.595   0.498
 6401SOL    HW221138   2.084   0.706   0.544
 6402SOL     OW21139   3.337   0.213   1.716
 6402SOL    HW121140   3.356   0.219   1.814
 6402SOL    HW221141   3.241   0.236   1.699
 6403SOL     OW21142   2.466   0.168   0.090
 6403SOL    HW121143   2.563   0.144   0.099
 6403SOL    HW221144   2.435   0.147   9.997
 6404SOL     OW21145   2.611   0.201   1.763
 6404SOL    HW121146   2.691   0.144   1.744
 6404SOL    HW221147   2.566   0.168   1.846
 6405SOL     OW21148   3.145   0.610   1.427
 6405SOL    HW121149   3.195   0.586   1.510
 6405SOL    HW221150   3.170   0.702   1.398
 6406SOL     OW21151   2.679   1.453   0.953
 6406SOL    HW121152   2.770   1.423   0.922
 6406SOL    HW221153   2.612   1.435   0.881
 6407SOL     OW21154   2.830   0.603   0.867
 6407SOL    HW121155   2.795   0.555   0.786
 6407SOL    HW221156   2.855   0.536   0.937
 6408SOL     OW21157   2.366   0.096   0.505
 6408SOL    HW121158   2.282   0.075   0.555
 6408SOL    HW221159   2.345   0.151   0.425
 6409SOL     OW21160   2.184   0.009   0.201
 6409SOL    HW121161   2.217   0.096   0.238
 6409SOL    HW221162   2.213   9.934   0.260
 6410SOL     OW21163   2.785   0.265   0.458
 6410SOL    HW121164   2.754   0.309   0.373
 6410SOL    HW221165   2.884   0.270   0.464
 6411SOL     OW21166   2.907   0.649   1.563
 6411SOL    HW121167   2.827   0.627   1.508
 6411SOL    HW221168   2.990   0.635   1.508
 6412SOL     OW21169   3.113   1.536   0.750
 6412SOL    HW121170   3.113   1.620   0.695
 6412SOL    HW221171   3.206   1.515   0.778
 6413SOL     OW21172   2.373   1.143   0.739
 6413SOL    HW121173   2.312   1.105   0.809
 6413SOL    HW221174   2.322   1.157   0.654
 6414SOL     OW21175   3.152   1.769   0.554
 6414SOL    HW121176   3.182   1.842   0.493
 6414SOL    HW221177   3.056   1.783   0.578
 6415SOL     OW21178   2.957   0.469   0.012
 6415SOL    HW121179   2.860   0.492   9.998
 6415SOL    HW221180   2.978   0.475   0.110
 6416SOL     OW21181   1.992   0.559   1.408
 6416SOL    HW121182   2.087   0.569   1.379
 6416SOL    HW221183   1.961   0.645   1.449
 6417SOL     OW21184   2.430   0.272   1.245
 6417SOL    HW121185   2.481   0.244   1.327
 6417SOL    HW221186   2.336   0.238   1.252
 6418SOL     OW21187   2.740   0.484   0.637
 6418SOL    HW121188   2.691   0.538   0.570
 6418SOL    HW221189   2.757   0.393   0.601
 6419SOL     OW21190   2.753   0.044   0.797
 6419SOL    HW121191   2.714   0.056   0.705
 6419SOL    HW221192   2.781   9.949   0.809
 6420SOL     OW21193   3.254   1.191   0.862
 6420SOL    HW121194   3.156   1.173   0.874
 6420SOL    HW221195   3.279   1.176   0.766
 6421SOL     OW21196   3.286   0.619   0.956
 6421SOL    HW121197   3.217   0.547   0.956
 6421SOL    HW221198   3.345   0.608   1.036
 6422SOL     OW21199   3.709   0.799   0.370
 6422SOL    HW121200   3.741   0.759   0.456
 6422SOL    HW221201   3.653   0.733   0.321
 6423SOL     OW21202   2.326   1.516   0.223
 6423SOL    HW121203   2.264   1.437   0.225
 6423SOL    HW221204   2.406   1.493   0.168
 6424SOL     OW21205   3.659   1.337   0.545
 6424SOL    HW121206   3.754   1.366   0.530
 6424SOL    HW221207   3.616   1.398   0.612
 6425SOL     OW21208   3.270   0.560   0.180
 6425SOL    HW121209   3.184   0.522   0.211
 6425SOL    HW221210   3.330   0.486   0.149
 6426SOL     OW21211   2.304   0.250   0.285
 6426SOL    HW121212   2.373   0.217   0.221
 6426SOL    HW221213   2.264   0.335   0.250
 6427SOL     OW21214   3.577   1.214   1.512
 6427SOL    HW121215   3.669   1.183   1.488
 6427SOL    HW221216   3.582   1.301   1.560
 6428SOL     OW21217   2.893   1.343   1.339
 6428SOL    HW121218   2.803   1.308   1.362
 6428SOL    HW221219   2.963   1.284   1.379
 6429SOL     OW21220   3.422   1.636   1.695
 6429SOL    HW121221   3.412   1.680   1.605
 6429SOL    HW221222   3.491   1.563   1.689
 6430SOL     OW21223   3.024   1.299   1.105
 6430SOL    HW121224   2.966   1.321   1.184
 6430SOL    HW221225   2.977   1.325   1.021
 6431SOL     OW21226   3.421   1.109   1.080
 6431SOL    HW121227   3.397   1.161   1.162
 6431SOL    HW221228   3.353   1.125   1.009
 6432SOL     OW21229   2.807   0.117   1.362
 6432SOL    HW121230   2.842   0.089   1.273
 6432SOL    HW221231   2.873   0.177   1.407
 6433SOL     OW21232   2.818   1.094   1.655
 6433SOL    HW121233   2.731   1.115   1.699
 6433SOL    HW221234   2.801   1.052   1.566
 6434SOL     OW21235   2.570   1.001   0.403
 6434SOL    HW121236   2.559   0.965   0.495
 6434SOL    HW221237   2.665   0.988   0.373
 6435SOL     OW21238   2.351   0.847   1.326
 6435SOL    HW121239   2.423   0.850   1.395
 6435SOL    HW221240   2.310   0.755   1.325
 6436SOL     OW21241   3.098   0.407   1.255
 6436SOL    HW121242   3.115   0.487   1.313
 6436SOL    HW221243   3.018   0.424   1.197
 6437SOL     OW21244   1.991   1.568   1.395
 6437SOL    HW121245   1.967   1.658   1.358
 6437SOL    HW221246   2.090   1.557   1.395
 6438SOL     OW21247   2.196   1.170   0.531
 6438SOL    HW121248   2.192   1.245   0.465
 6438SOL    HW221249   2.188   1.083   0.482
 6439SOL     OW21250   2.400   0.479   0.871
 6439SOL    HW121251   2.384   0.531   0.787
 6439SOL    HW221252   2.474   0.522   0.923
 6440SOL     OW21253   3.187   1.381   0.457
 6440SOL    HW121254   3.246   1.454   0.493
 6440SOL    HW221255   3.094   1.416   0.447
 6441SOL     OW21256   3.203   1.501   1.126
 6441SOL    HW121257   3.228   1.509   1.223
 6441SOL    HW221258   3.139   1.425   1.115
 6442SOL     OW21259   3.427   0.639   0.509
 6442SOL    HW121260   3.394   0.675   0.596
 6442SOL    HW221261   3.431   0.714   0.442
 6443SOL     OW21262   2.261   1.539   1.325
 6443SOL    HW121263   2.264   1.498   1.234
 6443SOL    HW221264   2.353   1.565   1.353
 6444SOL     OW21265   2.344   0.713   1.649
 6444SOL    HW121266   2.421   0.765   1.611
 6444SOL    HW221267   2.341   0.623   1.607
 6445SOL     OW21268   3.467   0.814   1.695
 6445SOL    HW121269   3.370   0.837   1.687
 6445SOL    HW221270   3.515   0.842   1.612
 6446SOL     OW21271   2.817   0.031   1.727
 6446SOL    HW121272   2.888   0.065   1.788
 6446SOL    HW221273   2.859   9.988   1.647
 6447SOL     OW21274   2.383   9.980   1.801
 6447SOL    HW121275   2.455   9.950   1.738
 6447SOL    HW221276   2.347   0.068   1.770
 6448SOL     OW21277   2.454   0.859   1.073
 6448SOL    HW121278   2.482   0.950   1.040
 6448SOL    HW221279   2.426   0.866   1.169
 6449SOL     OW21280   3.171   0.880   0.975
 6449SOL    HW121281   3.159   0.911   0.880
 6449SOL    HW221282   3.203   0.786   0.976
 6450SOL     OW21283   3.024   0.484   0.272
 6450SOL    HW121284   3.035   0.409   0.337
 6450SOL    HW221285   2.976   0.560   0.317
 6451SOL     OW21286   2.179   0.166   1.276
 6451SOL    HW121287   2.174   0.203   1.368
 6451SOL    HW221288   2.194   0.067   1.281
 6452SOL     OW21289   1.973   1.340   1.237
 6452SOL    HW121290   1.987   1.266   1.303
 6452SOL    HW221291   1.972   1.428   1.285
 6453SOL     OW21292   2.583   0.630   1.002
 6453SOL    HW121293   2.664   0.645   0.944
 6453SOL    HW221294   2.540   0.718   1.021
 6454SOL     OW21295   3.629   0.988   1.838
 6454SOL    HW121296   3.575   0.917   1.792
 6454SOL    HW221297   3.574   1.028   1.911
 6455SOL     OW21298   2.124   0.077   0.653
 6455SOL    HW121299   2.104   0.175   0.655
 6455SOL    HW221300   2.153   0.047   0.744
 6456SOL     OW21301   3.483   0.398   0.408
 6456SOL    HW121302   3.538   0.342   0.471
 6456SOL    HW221303   3.457   0.483   0.453
 6457SOL     OW21304   2.870   1.543   1.807
 6457SOL    HW121305   2.872   1.623   1.748
 6457SOL    HW221306   2.899   1.462   1.756
 6458SOL     OW21307   3.627   1.454   1.630
 6458SOL    HW121308   3.664   1.517   1.561
 6458SOL    HW221309   3.694   1.440   1.702
 6459SOL     OW21310   2.264   0.905   1.824
 6459SOL    HW121311   2.341   0.936   1.880
 6459SOL    HW221312   2.296   0.837   1.758
 6460SOL     OW21313   3.417   0.323   0.157
 6460SOL    HW121314   3.354   0.247   0.139
 6460SOL    HW221315   3.423   0.338   0.256
 6461SOL     OW21316   2.923   1.373   0.865
 6461SOL    HW121317   2.938   1.281   0.829
 6461SOL    HW221318   2.984   1.438   0.819
 6462SOL     OW21319   2.195   0.786   1.029
 6462SOL    HW121320   2.292   0.811   1.034
 6462SOL    HW221321   2.184   0.688   1.044
 6463SOL     OW21322   2.208   0.512   1.061
 6463SOL    HW121323   2.143   0.436   1.064
 6463SOL    HW221324   2.275   0.496   0.989
 6464SOL     OW21325   3.080   0.341   1.723
 6464SOL    HW121326   3.008   0.375   1.783
 6464SOL    HW221327   3.141   0.415   1.698
 6465SOL     OW21328   3.002   0.258   1.470
 6465SOL    HW121329   3.028   0.291   1.561
 6465SOL    HW221330   3.048   0.313   1.400
 6466SOL     OW21331   1.889   1.231   0.135
 6466SOL    HW121332   1.796   1.256   0.110
 6466SOL    HW221333   1.888   1.145   0.186
 6467SOL     OW21334   2.364   1.608   0.886
 6467SOL    HW121335   2.408   1.692   0.854
 6467SOL    HW221336   2.401   1.529   0.836
 6468SOL     OW21337   1.845   0.481   1.191
 6468SOL    HW121338   1.907   0.425   1.137
 6468SOL    HW221339   1.895   0.522   1.267
 6469SOL     OW21340   3.222   0.911   1.620
 6469SOL    HW121341   3.247   1.008   1.623
 6469SOL    HW221342   3.205   0.884   1.525
 6470SOL     OW21343   2.648   0.585   0.386
 6470SOL    HW121344   2.666   0.510   0.324
 6470SOL    HW221345   2.555   0.620   0.371
 6471SOL     OW21346   3.455   0.598   1.166
 6471SOL    HW121347   3.411   0.541   1.237
 6471SOL    HW221348   3.552   0.573   1.159
 6472SOL     OW21349   2.621   0.465   1.210
 6472SOL    HW121350   2.550   0.395   1.220
 6472SOL    HW221351   2.597   0.526   1.135
 6473SOL     OW21352   2.229   0.488   0.172
 6473SOL    HW121353   2.291   0.551   0.218
 6473SOL    HW221354   2.136   0.525   0.173
 6474SOL     OW21355   2.016   1.156   1.443
 6474SOL    HW121356   2.038   1.136   1.539
 6474SOL    HW221357   2.041   1.078   1.386
 6475SOL     OW21358   3.118   1.051   1.181
 6475SOL    HW121359   3.134   0.988   1.105
 6475SOL    HW221360   3.084   1.139   1.145
 6476SOL     OW21361   3.158   0.781   0.307
 6476SOL    HW121362   3.068   0.752   0.339
 6476SOL    HW221363   3.202   0.706   0.257
 6477SOL     OW21364   3.583   1.692   1.193
 6477SOL    HW121365   3.645   1.717   1.119
 6477SOL    HW221366   3.556   1.596   1.183
 6478SOL     OW21367   3.124   1.767   1.103
 6478SOL    HW121368   3.212   1.815   1.099
 6478SOL    HW221369   3.140   1.669   1.103
 6479SOL     OW21370   2.008   1.215   0.984
 6479SOL    HW121371   1.989   1.262   1.070
 6479SOL    HW221372   1.934   1.152   0.963
 6480SOL     OW21373   2.729   0.118   0.137
 6480SOL    HW121374   2.822   0.140   0.107
 6480SOL    HW221375   2.732   0.043   0.203
 6481SOL     OW21376   3.665   0.219   0.538
 6481SOL    HW121377   3.661   0.187   0.443
 6481SOL    HW221378   3.700   0.146   0.597
 6482SOL     OW21379   3.353   1.588   0.545
 6482SOL    HW121380   3.417   1.610   0.470
 6482SOL    HW221381   3.280   1.657   0.547
 6483SOL     OW21382   2.004   1.731   1.800
 6483SOL    HW121383   1.953   1.649   1.828
 6483SOL    HW221384   2.042   1.775   1.881
 6484SOL     OW21385   3.153   0.939   0.686
 6484SOL    HW121386   3.224   0.869   0.693
 6484SOL    HW221387   3.187   1.016   0.633
 6485SOL     OW21388   2.638   1.251   1.387
 6485SOL    HW121389   2.610   1.310   1.463
 6485SOL    HW221390   2.586   1.275   1.306
 6486SOL     OW21391   3.414   1.737   1.431
 6486SOL    HW121392   3.471   1.723   1.350
 6486SOL    HW221393   3.410   1.834   1.453
 6487SOL     OW21394   3.706   0.174   0.928
 6487SOL    HW121395   3.741   0.114   0.855
 6487SOL    HW221396   3.609   0.190   0.914
 6488SOL     OW21397   2.077   0.338   0.711
 6488SOL    HW121398   1.988   0.379   0.693
 6488SOL    HW221399   2.099   0.348   0.808
 6489SOL     OW21400   3.133   1.550   0.079
 6489SOL    HW121401   3.145   1.457   0.114
 6489SOL    HW221402   3.160   1.553   9.983
 6490SOL     OW21403   2.829   0.961   0.339
 6490SOL    HW121404   2.895   1.015   0.287
 6490SOL    HW221405   2.866   0.869   0.355
 6491SOL     OW21406   3.405   1.595   0.132
 6491SOL    HW121407   3.307   1.595   0.113
 6491SOL    HW221408   3.453   1.648   0.063
 6492SOL     OW21409   2.260   1.304   1.473
 6492SOL    HW121410   2.257   1.387   1.417
 6492SOL    HW221411   2.178   1.249   1.456
 6493SOL     OW21412   3.396   1.277   1.310
 6493SOL    HW121413   3.455   1.245   1.384
 6493SOL    HW221414   3.332   1.345   1.346
 6494SOL     OW21415   2.976   1.111   0.808
 6494SOL    HW121416   2.890   1.067   0.834
 6494SOL    HW221417   3.030   1.049   0.752
 6495SOL     OW21418   2.897   0.208   0.965
 6495SOL    HW121419   2.844   0.164   0.893
 6495SOL    HW221420   2.921   0.141   1.035
 6496SOL     OW21421   2.499   1.534   0.523
 6496SOL    HW121422   2.494   1.451   0.467
 6496SOL    HW221423   2.424   1.595   0.499
 6497SOL     OW21424   3.651   0.328   1.433
 6497SOL    HW121425   3.704   0.411   1.421
 6497SOL    HW221426   3.635   0.285   1.344
 6498SOL     OW21427   2.126   1.318   0.255
 6498SOL    HW121428   2.045   1.289   0.204
 6498SOL    HW221429   2.097   1.370   0.336
 6499SOL     OW21430   2.092   1.096   1.700
 6499SOL    HW121431   2.008   1.072   1.748
 6499SOL    HW221432   2.165   1.033   1.725
 6500SOL     OW21433   2.568   0.200   1.468
 6500SOL    HW121434   2.653   0.165   1.428
 6500SOL    HW221435   2.575   0.199   1.568
 6501SOL     OW21436   1.988   0.455   9.883
 6501SOL    HW121437   1.930   0.389   9.836
 6501SOL    HW221438   2.084   0.426   9.878
 6502SOL     OW21439   3.216   0.860   1.351
 6502SOL    HW121440   3.161   0.923   1.297
 6502SOL    HW221441   3.310   0.860   1.317
 6503SOL     OW21442   3.208   1.298   0.198
 6503SOL    HW121443   3.144   1.221   0.192
 6503SOL    HW221444   3.213   1.330   0.293
 6504SOL     OW21445   2.558   0.826   1.501
 6504SOL    HW121446   2.620   0.899   1.472
 6504SOL    HW221447   2.602   0.737   1.486
 6505SOL     OW21448   3.378   1.874   1.093
 6505SOL    HW121449   3.408   1.923   1.011
 6505SOL    HW221450   3.447   1.807   1.120
 6506SOL     OW21451   2.592   0.460   1.678
 6506SOL    HW121452   2.642   0.526   1.734
 6506SOL    HW221453   2.605   0.368   1.716
 6507SOL     OW21454   3.310   1.168   1.610
 6507SOL    HW121455   3.293   1.196   1.705
 6507SOL    HW221456   3.406   1.183   1.587
 6508SOL     OW21457   2.225   1.845   1.645
 6508SOL    HW121458   2.146   1.891   1.605
 6508SOL    HW221459   2.193   1.771   1.705
 6509SOL     OW21460   3.461   0.873   1.233
 6509SOL    HW121461   3.469   0.783   1.189
 6509SOL    HW221462   3.453   0.944   1.162
 6510SOL     OW21463   3.058   0.296   0.465
 6510SOL    HW121464   3.130   0.234   0.433
 6510SOL    HW221465   3.094   0.354   0.538
 6511SOL     OW21466   2.389   0.692   0.690
 6511SOL    HW121467   2.449   0.771   0.682
 6511SOL    HW221468   2.312   0.702   0.627
 6512SOL     OW21469   3.531   0.395   1.670
 6512SOL    HW121470   3.576   0.375   1.583
 6512SOL    HW221471   3.466   0.322   1.692
 6513SOL     OW21472   3.575   0.923   1.473
 6513SOL    HW121473   3.568   1.022   1.488
 6513SOL    HW221474   3.540   0.901   1.382
 6514SOL     OW21475   2.481   1.840   0.816
 6514SOL    HW121476   2.466   1.935   0.844
 6514SOL    HW221477   2.580   1.823   0.811
 6515SOL     OW21478   2.746   0.976   0.878
 6515SOL    HW121479   2.782   0.914   0.947
 6515SOL    HW221480   2.670   1.028   0.916
 6516SOL     OW21481   2.998   1.115   0.187
 6516SOL    HW121482   2.945   1.197   0.167
 6516SOL    HW221483   3.039   1.080   0.102
 6517SOL     OW21484   3.822   1.542   0.822
 6517SOL    HW121485   3.740   1.544   0.765
 6517SOL    HW221486   3.831   1.451   0.863
 6518SOL     OW21487   2.104   1.332   1.836
 6518SOL    HW121488   2.097   1.246   1.785
 6518SOL    HW221489   2.127   1.312   1.931
 6519SOL     OW21490   1.999   1.282   0.704
 6519SOL    HW121491   2.008   1.268   0.802
 6519SOL    HW221492   2.068   1.227   0.656
 6520SOL     OW21493   2.567   1.429   1.577
 6520SOL    HW121494   2.490   1.414   1.639
 6520SOL    HW221495   2.546   1.505   1.515
 6521SOL     OW21496   3.605   0.180   1.208
 6521SOL    HW121497   3.543   0.101   1.203
 6521SOL    HW221498   3.657   0.186   1.123
 6522SOL     OW21499   2.223   0.432   0.498
 6522SOL    HW121500   2.263   0.361   0.440
 6522SOL    HW221501   2.178   0.389   0.577
 6523SOL     OW21502   3.536   1.429   1.141
 6523SOL    HW121503   3.496   1.427   1.049
 6523SOL    HW221504   3.480   1.375   1.204
 6524SOL     OW21505   2.248   0.597   1.318
 6524SOL    HW121506   2.300   0.540   1.382
 6524SOL    HW221507   2.248   0.555   1.228
 6525SOL     OW21508   2.751   1.561   0.625
 6525SOL    HW121509   2.798   1.643   0.593
 6525SOL    HW221510   2.659   1.558   0.585
 6526SOL     OW21511   3.258   0.241   1.099
 6526SOL    HW121512   3.239   0.143   1.106
 6526SOL    HW221513   3.207   0.289   1.170
 6527SOL     OW21514   2.954   0.015   1.152
 6527SOL    HW121515   2.915   9.926   1.175
 6527SOL    HW221516   3.052   0.007   1.136
 6528SOL     OW21517   2.560   1.276   0.438
 6528SOL    HW121518   2.541   1.181   0.416
 6528SOL    HW221519   2.658   1.288   0.454
 6529SOL     OW21520   3.243   0.120   0.078
 6529SOL    HW121521   3.262   0.134   9.980
 6529SOL    HW221522   3.220   0.024   0.094
 6530SOL     OW21523   3.146   0.466   0.658
 6530SOL    HW121524   3.100   0.555   0.648
 6530SOL    HW221525   3.136   0.433   0.751
 6531SOL     OW21526   3.440   0.218   0.893
 6531SOL    HW121527   3.382   0.225   0.974
 6531SOL    HW221528   3.435   0.303   0.841
 6532SOL     OW21529   1.927   1.001   0.287
 6532SOL    HW121530   2.023   0.997   0.315
 6532SOL    HW221531   1.879   0.919   0.318
 6533SOL     OW21532   2.769   1.704   0.338
 6533SOL    HW121533   2.680   1.668   0.308
 6533SOL    HW221534   2.755   1.793   0.381
 6534SOL     OW21535   2.072   0.312   2.962
 6534SOL    HW121536   2.156   0.274   3.002
 6534SOL    HW221537   2.094   0.356   2.875
 6535SOL     OW21538   1.795   0.434   2.465
 6535SOL    HW121539   1.712   0.451   2.517
 6535SOL    HW221540   1.779   0.363   2.397
 6536SOL     OW21541   2.415   1.353   3.114
 6536SOL    HW121542   2.336   1.356   3.052
 6536SOL    HW221543   2.444   1.446   3.135
 6537SOL     OW21544   3.454   1.469   2.583
 6537SOL    HW121545   3.386   1.458   2.656
 6537SOL    HW221546   3.414   1.522   2.508
 6538SOL     OW21547   2.964   0.702   2.524
 6538SOL    HW121548   3.004   0.788   2.555
 6538SOL    HW221549   2.902   0.668   2.594
 6539SOL     OW21550   3.649   0.582   2.089
 6539SOL    HW121551   3.607   0.597   1.999
 6539SOL    HW221552   3.605   0.505   2.134
 6540SOL     OW21553   2.540   1.154   2.965
 6540SOL    HW121554   2.494   1.211   3.032
 6540SOL    HW221555   2.596   1.212   2.905
 6541SOL     OW21556   2.711   0.805   3.757
 6541SOL    HW121557   2.734   0.843   3.846
 6541SOL    HW221558   2.742   0.867   3.685
 6542SOL     OW21559   2.540   0.975   2.497
 6542SOL    HW121560   2.628   0.985   2.543
 6542SOL    HW221561   2.468   1.020   2.550
 6543SOL     OW21562   2.598   1.150   3.669
 6543SOL    HW121563   2.656   1.219   3.713
 6543SOL    HW221564   2.517   1.195   3.631
 6544SOL     OW21565   2.201   1.416   2.958
 6544SOL    HW121566   2.113   1.374   2.935
 6544SOL    HW221567   2.242   1.455   2.875
 6545SOL     OW21568   2.271   0.510   3.445
 6545SOL    HW121569   2.359   0.492   3.488
 6545SOL    HW221570   2.228   0.424   3.420
 6546SOL     OW21571   3.473   0.467   2.643
 6546SOL    HW121572   3.449   0.488   2.548
 6546SOL    HW221573   3.433   0.536   2.703
 6547SOL     OW21574   2.106   1.728   2.295
 6547SOL    HW121575   2.118   1.792   2.370
 6547SOL    HW221576   2.184   1.735   2.233
 6548SOL     OW21577   2.999   1.386   3.538
 6548SOL    HW121578   3.020   1.376   3.635
 6548SOL    HW221579   3.008   1.298   3.492
 6549SOL     OW21580   2.131   1.454   2.303
 6549SOL    HW121581   2.111   1.552   2.304
 6549SOL    HW221582   2.087   1.410   2.382
 6550SOL     OW21583   2.093   1.150   2.754
 6550SOL    HW121584   2.109   1.058   2.790
 6550SOL    HW221585   2.038   1.202   2.820
 6551SOL     OW21586   2.439   1.862   3.266
 6551SOL    HW121587   2.371   1.835   3.334
 6551SOL    HW221588   2.502   1.929   3.306
 6552SOL     OW21589   2.472   0.982   1.982
 6552SOL    HW121590   2.527   1.034   1.917
 6552SOL    HW221591   2.502   1.004   2.075
 6553SOL     OW21592   3.367   0.108   3.218
 6553SOL    HW121593   3.454   0.085   3.174
 6553SOL    HW221594   3.383   0.170   3.294
 6554SOL     OW21595   1.960   0.673   2.449
 6554SOL    HW121596   1.905   0.590   2.445
 6554SOL    HW221597   1.980   0.695   2.544
 6555SOL     OW21598   3.738   1.760   2.163
 6555SOL    HW121599   3.820   1.737   2.217
 6555SOL    HW221600   3.749   1.852   2.125
 6556SOL     OW21601   3.532   0.789   2.469
 6556SOL    HW121602   3.591   0.811   2.547
 6556SOL    HW221603   3.582   0.809   2.384
 6557SOL     OW21604   3.508   1.146   2.321
 6557SOL    HW121605   3.595   1.135   2.273
 6557SOL    HW221606   3.525   1.153   2.419
 6558SOL     OW21607   1.959   0.758   3.438
 6558SOL    HW121608   2.048   0.799   3.456
 6558SOL    HW221609   1.894   0.829   3.411
 6559SOL     OW21610   2.473   1.353   2.586
 6559SOL    HW121611   2.436   1.265   2.616
 6559SOL    HW221612   2.454   1.365   2.488
 6560SOL     OW21613   3.088   1.236   3.297
 6560SOL    HW121614   3.097   1.166   3.226
 6560SOL    HW221615   3.177   1.256   3.336
 6561SOL     OW21616   2.688   0.102   2.421
 6561SOL    HW121617   2.702   0.196   2.390
 6561SOL    HW221618   2.590   0.083   2.427
 6562SOL     OW21619   2.048   0.953   3.200
 6562SOL    HW121620   2.135   0.915   3.168
 6562SOL    HW221621   1.973   0.916   3.143
 6563SOL     OW21622   3.432   1.070   2.023
 6563SOL    HW121623   3.363   1.000   2.043
 6563SOL    HW221624   3.472   1.103   2.108
 6564SOL     OW21625   3.032   1.826   3.500
 6564SOL    HW121626   3.043   1.900   3.433
 6564SOL    HW221627   3.015   1.740   3.451
 6565SOL     OW21628   2.159   0.151   3.609
 6565SOL    HW121629   2.233   0.132   3.674
 6565SOL    HW221630   2.085   0.197   3.658
 6566SOL     OW21631   3.273   1.451   2.791
 6566SOL    HW121632   3.221   1.461   2.876
 6566SOL    HW221633   3.262   1.357   2.757
 6567SOL     OW21634   3.503   1.889   2.397
 6567SOL    HW121635   3.491   1.824   2.321
 6567SOL    HW221636   3.512   1.839   2.483
 6568SOL     OW21637   2.401   0.664   2.110
 6568SOL    HW121638   2.415   0.756   2.074
 6568SOL    HW221639   2.338   0.668   2.188
 6569SOL     OW21640   3.136   0.380   2.780
 6569SOL    HW121641   3.048   0.335   2.791
 6569SOL    HW221642   3.203   0.338   2.841
 6570SOL     OW21643   3.470   1.713   2.190
 6570SOL    HW121644   3.569   1.718   2.177
 6570SOL    HW221645   3.426   1.690   2.103
 6571SOL     OW21646   2.621   0.640   3.360
 6571SOL    HW121647   2.584   0.575   3.427
 6571SOL    HW221648   2.630   0.595   3.271
 6572SOL     OW21649   3.280   0.492   3.526
 6572SOL    HW121650   3.278   0.526   3.620
 6572SOL    HW221651   3.321   0.401   3.524
 6573SOL     OW21652   2.906   0.442   3.023
 6573SOL    HW121653   2.818   0.464   3.067
 6573SOL    HW221654   2.894   0.362   2.963
 6574SOL     OW21655   2.897   0.697   2.252
 6574SOL    HW121656   2.914   0.697   2.350
 6574SOL    HW221657   2.808   0.656   2.233
 6575SOL     OW21658   2.016   0.738   2.727
 6575SOL    HW121659   2.089   0.800   2.757
 6575SOL    HW221660   1.928   0.775   2.757
 6576SOL     OW21661   1.984   1.860   3.416
 6576SOL    HW121662   1.977   1.835   3.512
 6576SOL    HW221663   1.999   1.959   3.408
 6577SOL     OW21664   2.700   0.326   2.068
 6577SOL    HW121665   2.768   0.347   1.997
 6577SOL    HW221666   2.648   0.246   2.041
 6578SOL     OW21667   3.583   0.562   3.671
 6578SOL    HW121668   3.576   0.637   3.605
 6578SOL    HW221669   3.582   0.475   3.621
 6579SOL     OW21670   2.502   0.186   2.848
 6579SOL    HW121671   2.519   0.226   2.938
 6579SOL    HW221672   2.502   0.258   2.779
 6580SOL     OW21673   2.802   1.445   2.357
 6580SOL    HW121674   2.812   1.526   2.300
 6580SOL    HW221675   2.767   1.472   2.447
 6581SOL     OW21676   2.209   1.773   2.731
 6581SOL    HW121677   2.243   1.678   2.732
 6581SOL    HW221678   2.280   1.834   2.766
 6582SOL     OW21679   2.995   1.592   3.364
 6582SOL    HW121680   3.006   1.516   3.429
 6582SOL    HW221681   2.952   1.558   3.280
 6583SOL     OW21682   3.281   0.809   2.582
 6583SOL    HW121683   3.279   0.748   2.662
 6583SOL    HW221684   3.373   0.810   2.542
 6584SOL     OW21685   2.373   1.278   3.583
 6584SOL    HW121686   2.336   1.268   3.491
 6584SOL    HW221687   2.299   1.294   3.648
 6585SOL     OW21688   3.009   1.759   2.117
 6585SOL    HW121689   2.921   1.742   2.161
 6585SOL    HW221690   3.040   1.677   2.070
 6586SOL     OW21691   2.151   0.275   3.370
 6586SOL    HW121692   2.069   0.247   3.320
 6586SOL    HW221693   2.156   0.227   3.457
 6587SOL     OW21694   3.444   1.403   1.961
 6587SOL    HW121695   3.416   1.498   1.961
 6587SOL    HW221696   3.373   1.347   1.918
 6588SOL     OW21697   2.338   1.768   2.150
 6588SOL    HW121698   2.376   1.824   2.224
 6588SOL    HW221699   2.412   1.715   2.108
 6589SOL     OW21700   3.178   0.092   2.367
 6589SOL    HW121701   3.233   0.065   2.288
 6589SOL    HW221702   3.236   0.093   2.449
 6590SOL     OW21703   2.040   1.810   3.082
 6590SOL    HW121704   2.094   1.735   3.119
 6590SOL    HW221705   2.018   1.791   2.986
 6591SOL     OW21706   2.826   1.692   2.744
 6591SOL    HW121707   2.915   1.650   2.732
 6591SOL    HW221708   2.756   1.637   2.698
 6592SOL     OW21709   2.227   0.647   2.330
 6592SOL    HW121710   2.230   0.547   2.330
 6592SOL    HW221711   2.138   0.679   2.363
 6593SOL     OW21712   3.339   0.224   3.572
 6593SOL    HW121713   3.347   0.238   3.670
 6593SOL    HW221714   3.269   0.155   3.553
 6594SOL     OW21715   2.518   0.072   2.017
 6594SOL    HW121716   2.550   0.002   2.081
 6594SOL    HW221717   2.462   0.028   1.946
 6595SOL     OW21718   2.688   1.533   3.016
 6595SOL    HW121719   2.672   1.467   2.943
 6595SOL    HW221720   2.758   1.496   3.078
 6596SOL     OW21721   3.141   0.638   3.342
 6596SOL    HW121722   3.201   0.597   3.410
 6596SOL    HW221723   3.177   0.727   3.315
 6597SOL     OW21724   2.660   1.348   2.809
 6597SOL    HW121725   2.755   1.351   2.778
 6597SOL    HW221726   2.599   1.352   2.729
 6598SOL     OW21727   2.798   0.571   2.699
 6598SOL    HW121728   2.736   0.538   2.628
 6598SOL    HW221729   2.832   0.493   2.752
 6599SOL     OW21730   2.418   0.020   2.434
 6599SOL    HW121731   2.342   0.061   2.485
 6599SOL    HW221732   2.390   0.004   2.339
 6600SOL     OW21733   3.253   1.221   1.871
 6600SOL    HW121734   3.317   1.159   1.918
 6600SOL    HW221735   3.174   1.238   1.929
 6601SOL     OW21736   2.091   0.027   2.224
 6601SOL    HW121737   2.167   0.086   2.198
 6601SOL    HW221738   2.125   9.935   2.245
 6602SOL     OW21739   2.783   0.339   2.326
 6602SOL    HW121740   2.752   0.338   2.231
 6602SOL    HW221741   2.883   0.342   2.329
 6603SOL     OW21742   2.894   0.577   3.457
 6603SOL    HW121743   2.815   0.607   3.403
 6603SOL    HW221744   2.978   0.612   3.415
 6604SOL     OW21745   3.065   1.586   2.661
 6604SOL    HW121746   3.087   1.658   2.595
 6604SOL    HW221747   3.149   1.549   2.700
 6605SOL     OW21748   2.335   1.119   2.621
 6605SOL    HW121749   2.259   1.133   2.684
 6605SOL    HW221750   2.300   1.120   2.527
 6606SOL     OW21751   3.112   1.809   2.493
 6606SOL    HW121752   3.159   1.878   2.438
 6606SOL    HW221753   3.028   1.847   2.530
 6607SOL     OW21754   2.899   0.437   1.905
 6607SOL    HW121755   2.849   0.515   1.868
 6607SOL    HW221756   2.957   0.466   1.981
 6608SOL     OW21757   1.956   0.564   3.248
 6608SOL    HW121758   2.051   0.560   3.218
 6608SOL    HW221759   1.947   0.634   3.319
 6609SOL     OW21760   2.527   0.295   3.096
 6609SOL    HW121761   2.603   0.249   3.141
 6609SOL    HW221762   2.441   0.252   3.123
 6610SOL     OW21763   2.632   0.492   2.502
 6610SOL    HW121764   2.582   0.570   2.464
 6610SOL    HW221765   2.682   0.446   2.428
 6611SOL     OW21766   2.826   0.067   2.651
 6611SOL    HW121767   2.771   0.086   2.569
 6611SOL    HW221768   2.818   9.970   2.673
 6612SOL     OW21769   3.275   1.210   2.673
 6612SOL    HW121770   3.210   1.145   2.633
 6612SOL    HW221771   3.367   1.188   2.641
 6613SOL     OW21772   3.275   0.626   2.797
 6613SOL    HW121773   3.214   0.547   2.791
 6613SOL    HW221774   3.336   0.615   2.876
 6614SOL     OW21775   3.685   0.818   2.230
 6614SOL    HW121776   3.785   0.818   2.232
 6614SOL    HW221777   3.653   0.738   2.179
 6615SOL     OW21778   2.395   1.417   1.989
 6615SOL    HW121779   2.322   1.366   2.034
 6615SOL    HW221780   2.397   1.394   1.892
 6616SOL     OW21781   3.554   1.215   2.603
 6616SOL    HW121782   3.650   1.201   2.577
 6616SOL    HW221783   3.528   1.310   2.586
 6617SOL     OW21784   3.236   0.587   1.916
 6617SOL    HW121785   3.180   0.555   1.992
 6617SOL    HW221786   3.333   0.582   1.941
 6618SOL     OW21787   2.302   0.199   2.143
 6618SOL    HW121788   2.382   0.150   2.109
 6618SOL    HW221789   2.290   0.284   2.092
 6619SOL     OW21790   3.690   1.205   3.427
 6619SOL    HW121791   3.784   1.174   3.413
 6619SOL    HW221792   3.690   1.303   3.451
 6620SOL     OW21793   2.866   1.382   3.196
 6620SOL    HW121794   2.779   1.367   3.242
 6620SOL    HW221795   2.938   1.332   3.243
 6621SOL     OW21796   2.999   1.280   2.978
 6621SOL    HW121797   2.930   1.310   3.044
 6621SOL    HW221798   2.967   1.300   2.885
 6622SOL     OW21799   2.758   0.190   3.190
 6622SOL    HW121800   2.788   0.114   3.132
 6622SOL    HW221801   2.835   0.224   3.243
 6623SOL     OW21802   2.798   0.988   3.575
 6623SOL    HW121803   2.727   1.054   3.599
 6623SOL    HW221804   2.783   0.955   3.482
 6624SOL     OW21805   2.587   1.048   2.231
 6624SOL    HW121806   2.564   1.017   2.323
 6624SOL    HW221807   2.672   1.005   2.201
 6625SOL     OW21808   2.280   0.823   3.108
 6625SOL    HW121809   2.338   0.851   3.184
 6625SOL    HW221810   2.255   0.727   3.119
 6626SOL     OW21811   3.143   0.448   3.145
 6626SOL    HW121812   3.146   0.522   3.213
 6626SOL    HW221813   3.059   0.455   3.092
 6627SOL     OW21814   1.970   1.593   3.332
 6627SOL    HW121815   1.955   1.689   3.355
 6627SOL    HW221816   2.059   1.584   3.287
 6628SOL     OW21817   2.244   1.149   2.372
 6628SOL    HW121818   2.309   1.218   2.339
 6628SOL    HW221819   2.209   1.097   2.294
 6629SOL     OW21820   3.164   1.490   3.036
 6629SOL    HW121821   3.229   1.483   3.112
 6629SOL    HW221822   3.105   1.410   3.036
 6630SOL     OW21823   3.392   0.554   2.397
 6630SOL    HW121824   3.298   0.552   2.431
 6630SOL    HW221825   3.431   0.645   2.412
 6631SOL     OW21826   2.191   1.591   3.167
 6631SOL    HW121827   2.184   1.524   3.092
 6631SOL    HW221828   2.288   1.609   3.185
 6632SOL     OW21829   2.233   0.791   3.495
 6632SOL    HW121830   2.302   0.837   3.438
 6632SOL    HW221831   2.248   0.692   3.490
 6633SOL     OW21832   3.561   0.770   3.496
 6633SOL    HW121833   3.466   0.799   3.503
 6633SOL    HW221834   3.606   0.819   3.421
 6634SOL     OW21835   2.858   9.988   3.629
 6634SOL    HW121836   2.876   0.068   3.686
 6634SOL    HW221837   2.913   9.993   3.546
 6635SOL     OW21838   2.486   0.892   2.918
 6635SOL    HW121839   2.513   0.988   2.930
 6635SOL    HW221840   2.421   0.867   2.989
 6636SOL     OW21841   3.149   0.843   2.931
 6636SOL    HW121842   3.055   0.819   2.956
 6636SOL    HW221843   3.189   0.769   2.878
 6637SOL     OW21844   3.055   0.520   2.114
 6637SOL    HW121845   3.067   0.446   2.180
 6637SOL    HW221846   3.004   0.595   2.157
 6638SOL     OW21847   2.270   0.205   3.134
 6638SOL    HW121848   2.237   0.229   3.225
 6638SOL    HW221849   2.243   0.112   3.111
 6639SOL     OW21850   1.945   1.352   3.195
 6639SOL    HW121851   1.959   1.279   3.262
 6639SOL    HW221852   1.941   1.440   3.242
 6640SOL     OW21853   2.684   0.704   2.910
 6640SOL    HW121854   2.714   0.666   2.822
 6640SOL    HW221855   2.612   0.771   2.894
 6641SOL     OW21856   3.696   0.933   3.672
 6641SOL    HW121857   3.655   0.864   3.613
 6641SOL    HW221858   3.628   0.967   3.737
 6642SOL     OW21859   2.207   0.106   2.577
 6642SOL    HW121860   2.133   0.173   2.572
 6642SOL    HW221861   2.212   0.070   2.671
 6643SOL     OW21862   3.480   0.388   2.199
 6643SOL    HW121863   3.538   0.320   2.243
 6643SOL    HW221864   3.440   0.448   2.268
 6644SOL     OW21865   2.816   1.570   3.640
 6644SOL    HW121866   2.778   1.632   3.572
 6644SOL    HW221867   2.875   1.502   3.594
 6645SOL     OW21868   3.751   1.466   3.465
 6645SOL    HW121869   3.766   1.516   3.379
 6645SOL    HW221870   3.823   1.490   3.531
 6646SOL     OW21871   2.209   0.930   3.739
 6646SOL    HW121872   2.299   0.955   3.776
 6646SOL    HW221873   2.221   0.874   3.658
 6647SOL     OW21874   3.368   0.255   1.980
 6647SOL    HW121875   3.322   0.176   2.021
 6647SOL    HW221876   3.412   0.309   2.053
 6648SOL     OW21877   3.110   0.817   1.848
 6648SOL    HW121878   3.149   0.728   1.867
 6648SOL    HW221879   3.143   0.851   1.760
 6649SOL     OW21880   2.918   1.359   2.727
 6649SOL    HW121881   2.916   1.289   2.655
 6649SOL    HW221882   2.969   1.439   2.695
 6650SOL     OW21883   2.204   0.904   2.843
 6650SOL    HW121884   2.295   0.918   2.805
 6650SOL    HW221885   2.212   0.880   2.940
 6651SOL     OW21886   3.030   0.370   3.562
 6651SOL    HW121887   2.967   0.442   3.535
 6651SOL    HW221888   3.123   0.408   3.569
 6652SOL     OW21889   2.997   0.266   3.310
 6652SOL    HW121890   3.007   0.301   3.403
 6652SOL    HW221891   3.051   0.322   3.247
 6653SOL     OW21892   1.954   1.768   2.825
 6653SOL    HW121893   1.897   1.702   2.775
 6653SOL    HW221894   2.045   1.771   2.783
 6654SOL     OW21895   2.331   1.527   2.746
 6654SOL    HW121896   2.405   1.583   2.783
 6654SOL    HW221897   2.369   1.460   2.683
 6655SOL     OW21898   1.858   0.486   3.008
 6655SOL    HW121899   1.923   0.419   2.974
 6655SOL    HW221900   1.890   0.521   3.096
 6656SOL     OW21901   2.041   0.551   3.603
 6656SOL    HW121902   2.128   0.533   3.557
 6656SOL    HW221903   1.992   0.624   3.554
 6657SOL     OW21904   3.309   0.873   3.515
 6657SOL    HW121905   3.312   0.961   3.562
 6657SOL    HW221906   3.285   0.887   3.419
 6658SOL     OW21907   2.662   0.582   2.173
 6658SOL    HW121908   2.670   0.492   2.130
 6658SOL    HW221909   2.570   0.618   2.158
 6659SOL     OW21910   3.430   0.563   3.006
 6659SOL    HW121911   3.378   0.517   3.078
 6659SOL    HW221912   3.528   0.545   3.019
 6660SOL     OW21913   2.185   1.566   3.584
 6660SOL    HW121914   2.117   1.629   3.622
 6660SOL    HW221915   2.170   1.474   3.622
 6661SOL     OW21916   2.654   0.531   3.118
 6661SOL    HW121917   2.602   0.448   3.100
 6661SOL    HW221918   2.655   0.589   3.037
 6662SOL     OW21919   2.701   1.726   3.444
 6662SOL    HW121920   2.641   1.657   3.405
 6662SOL    HW221921   2.743   1.779   3.371
 6663SOL     OW21922   2.305   0.430   1.985
 6663SOL    HW121923   2.356   0.502   2.031
 6663SOL    HW221924   2.231   0.471   1.931
 6664SOL     OW21925   1.988   1.150   3.375
 6664SOL    HW121926   1.999   1.123   3.471
 6664SOL    HW221927   2.011   1.073   3.316
 6665SOL     OW21928   3.128   1.065   3.084
 6665SOL    HW121929   3.140   0.988   3.021
 6665SOL    HW221930   3.085   1.141   3.035
 6666SOL     OW21931   3.230   0.903   2.077
 6666SOL    HW121932   3.181   0.873   2.159
 6666SOL    HW221933   3.179   0.875   1.996
 6667SOL     OW21934   3.680   1.716   3.051
 6667SOL    HW121935   3.735   1.737   2.970
 6667SOL    HW221936   3.601   1.661   3.024
 6668SOL     OW21937   3.110   1.759   3.011
 6668SOL    HW121938   3.198   1.794   2.978
 6668SOL    HW221939   3.117   1.661   3.028
 6669SOL     OW21940   1.952   1.306   2.931
 6669SOL    HW121941   1.956   1.312   3.031
 6669SOL    HW221942   1.867   1.346   2.898
 6670SOL     OW21943   2.539   1.744   3.668
 6670SOL    HW121944   2.479   1.824   3.662
 6670SOL    HW221945   2.610   1.750   3.598
 6671SOL     OW21946   3.661   0.217   2.314
 6671SOL    HW121947   3.709   0.236   2.228
 6671SOL    HW221948   3.688   0.127   2.348
 6672SOL     OW21949   3.325   1.632   2.413
 6672SOL    HW121950   3.363   1.654   2.323
 6672SOL    HW221951   3.242   1.687   2.427
 6673SOL     OW21952   2.003   1.760   3.671
 6673SOL    HW121953   1.948   1.688   3.713
 6673SOL    HW221954   2.055   1.808   3.742
 6674SOL     OW21955   3.133   1.026   2.513
 6674SOL    HW121956   3.185   0.944   2.539
 6674SOL    HW221957   3.176   1.069   2.434
 6675SOL     OW21958   2.624   1.356   3.308
 6675SOL    HW121959   2.591   1.407   3.387
 6675SOL    HW221960   2.546   1.330   3.250
 6676SOL     OW21961   2.555   1.628   2.046
 6676SOL    HW121962   2.606   1.647   1.963
 6676SOL    HW221963   2.501   1.544   2.035
 6677SOL     OW21964   3.708   0.148   2.857
 6677SOL    HW121965   3.762   0.105   2.783
 6677SOL    HW221966   3.622   0.181   2.819
 6678SOL     OW21967   2.034   0.325   2.556
 6678SOL    HW121968   1.944   0.354   2.525
 6678SOL    HW221969   2.069   0.390   2.624
 6679SOL     OW21970   3.090   1.542   1.971
 6679SOL    HW121971   3.087   1.448   2.005
 6679SOL    HW221972   3.014   1.556   1.907
 6680SOL     OW21973   2.812   0.935   2.139
 6680SOL    HW121974   2.824   0.931   2.040
 6680SOL    HW221975   2.850   0.852   2.180
 6681SOL     OW21976   3.335   1.666   1.951
 6681SOL    HW121977   3.244   1.625   1.955
 6681SOL    HW221978   3.367   1.665   1.857
 6682SOL     OW21979   2.242   1.268   3.352
 6682SOL    HW121980   2.254   1.331   3.275
 6682SOL    HW221981   2.148   1.236   3.354
 6683SOL     OW21982   2.907   1.183   2.525
 6683SOL    HW121983   2.897   1.230   2.437
 6683SOL    HW221984   2.984   1.119   2.519
 6684SOL     OW21985   2.906   0.228   2.850
 6684SOL    HW121986   2.877   0.185   2.765
 6684SOL    HW221987   2.905   0.161   2.924
 6685SOL     OW21988   2.403   1.373   2.325
 6685SOL    HW121989   2.471   1.372   2.251
 6685SOL    HW221990   2.323   1.425   2.295
 6686SOL     OW21991   3.719   0.372   3.314
 6686SOL    HW121992   3.763   0.461   3.320
 6686SOL    HW221993   3.683   0.358   3.222
 6687SOL     OW21994   2.173   1.287   2.093
 6687SOL    HW121995   2.145   1.194   2.116
 6687SOL    HW221996   2.149   1.349   2.167
 6688SOL     OW21997   1.999   1.081   3.639
 6688SOL    HW121998   1.909   1.055   3.673
 6688SOL    HW221999   2.069   1.024   3.682
 6689SOL     OW22000   2.009   0.289   1.850
 6689SOL    HW122001   1.928   0.260   1.798
 6689SOL    HW222002   2.025   0.386   1.834
 6690SOL     OW22003   3.254   0.877   3.247
 6690SOL    HW122004   3.201   0.948   3.200
 6690SOL    HW222005   3.329   0.847   3.189
 6691SOL     OW22006   1.923   0.210   2.101
 6691SOL    HW122007   1.958   0.237   2.011
 6691SOL    HW222008   1.981   0.139   2.140
 6692SOL     OW22009   2.441   0.861   3.326
 6692SOL    HW122010   2.492   0.946   3.341
 6692SOL    HW222011   2.500   0.783   3.342
 6693SOL     OW22012   3.358   1.828   2.920
 6693SOL    HW122013   3.401   1.874   2.842
 6693SOL    HW222014   3.403   1.740   2.935
 6694SOL     OW22015   3.421   1.173   3.420
 6694SOL    HW122016   3.377   1.156   3.508
 6694SOL    HW222017   3.520   1.183   3.433
 6695SOL     OW22018   2.251   1.793   3.447
 6695SOL    HW122019   2.157   1.815   3.419
 6695SOL    HW222020   2.252   1.703   3.491
 6696SOL     OW22021   3.060   0.338   2.322
 6696SOL    HW122022   3.102   0.247   2.331
 6696SOL    HW222023   3.095   0.398   2.394
 6697SOL     OW22024   2.478   0.706   2.440
 6697SOL    HW122025   2.496   0.803   2.455
 6697SOL    HW222026   2.385   0.694   2.404
 6698SOL     OW22027   3.594   0.316   3.547
 6698SOL    HW122028   3.629   0.329   3.454
 6698SOL    HW222029   3.505   0.271   3.544
 6699SOL     OW22030   3.683   0.936   3.319
 6699SOL    HW122031   3.671   1.029   3.354
 6699SOL    HW222032   3.764   0.933   3.261
 6700SOL     OW22033   2.794   1.321   1.965
 6700SOL    HW122034   2.732   1.327   2.043
 6700SOL    HW222035   2.801   1.411   1.922
 6701SOL     OW22036   2.524   1.689   2.827
 6701SOL    HW122037   2.503   1.787   2.830
 6701SOL    HW222038   2.599   1.670   2.891
 6702SOL     OW22039   2.858   0.911   1.869
 6702SOL    HW122040   2.844   0.978   1.795
 6702SOL    HW222041   2.951   0.875   1.864
 6703SOL     OW22042   3.631   1.605   2.741
 6703SOL    HW122043   3.588   1.557   2.664
 6703SOL    HW222044   3.580   1.586   2.825
 6704SOL     OW22045   2.131   1.319   3.707
 6704SOL    HW122046   2.077   1.240   3.677
 6704SOL    HW222047   2.123   1.330   3.806
 6705SOL     OW22048   2.031   1.269   2.500
 6705SOL    HW122049   2.035   1.240   2.595
 6705SOL    HW222050   2.099   1.219   2.446
 6706SOL     OW22051   2.515   1.504   3.512
 6706SOL    HW122052   2.458   1.428   3.544
 6706SOL    HW222053   2.510   1.580   3.576
 6707SOL     OW22054   3.588   0.037   3.079
 6707SOL    HW122055   3.541   9.957   3.042
 6707SOL    HW222056   3.636   0.084   3.005
 6708SOL     OW22057   2.211   0.379   2.342
 6708SOL    HW122058   2.244   0.304   2.285
 6708SOL    HW222059   2.147   0.344   2.410
 6709SOL     OW22060   3.460   1.572   2.957
 6709SOL    HW122061   3.398   1.530   2.891
 6709SOL    HW222062   3.436   1.543   3.050
 6710SOL     OW22063   2.228   0.561   3.178
 6710SOL    HW122064   2.253   0.552   3.274
 6710SOL    HW222065   2.262   0.482   3.126
 6711SOL     OW22066   2.657   1.562   2.564
 6711SOL    HW122067   2.611   1.647   2.538
 6711SOL    HW222068   2.588   1.490   2.577
 6712SOL     OW22069   3.285   0.269   2.994
 6712SOL    HW122070   3.305   0.192   3.054
 6712SOL    HW222071   3.233   0.338   3.045
 6713SOL     OW22072   2.853   0.006   3.011
 6713SOL    HW122073   2.767   9.987   2.963
 6713SOL    HW222074   2.903   9.920   3.025
 6714SOL     OW22075   2.638   1.314   2.185
 6714SOL    HW122076   2.619   1.217   2.204
 6714SOL    HW222077   2.699   1.351   2.255
 6715SOL     OW22078   2.471   1.616   3.159
 6715SOL    HW122079   2.470   1.709   3.195
 6715SOL    HW222080   2.556   1.599   3.109
 6716SOL     OW22081   3.237   0.021   2.046
 6716SOL    HW122082   3.309   9.973   1.995
 6716SOL    HW222083   3.181   9.954   2.096
 6717SOL     OW22084   3.148   0.498   2.521
 6717SOL    HW122085   3.085   0.576   2.523
 6717SOL    HW222086   3.147   0.453   2.610
 6718SOL     OW22087   3.460   0.234   2.777
 6718SOL    HW122088   3.400   0.245   2.857
 6718SOL    HW222089   3.467   0.322   2.730
 6719SOL     OW22090   2.098   1.035   2.171
 6719SOL    HW122091   2.090   0.973   2.092
 6719SOL    HW222092   2.033   1.006   2.242
 6720SOL     OW22093   2.763   1.688   2.224
 6720SOL    HW122094   2.684   1.667   2.166
 6720SOL    HW222095   2.741   1.765   2.283
 6721SOL     OW22096   2.044   0.579   3.874
 6721SOL    HW122097   1.952   0.564   3.909
 6721SOL    HW222098   2.042   0.583   3.774
 6722SOL     OW22099   2.037   0.316   4.792
 6722SOL    HW122100   2.089   0.267   4.863
 6722SOL    HW222101   1.990   0.250   4.734
 6723SOL     OW22102   1.873   0.439   4.362
 6723SOL    HW122103   1.792   0.461   4.417
 6723SOL    HW222104   1.852   0.364   4.299
 6724SOL     OW22105   2.414   1.301   4.972
 6724SOL    HW122106   2.331   1.301   4.917
 6724SOL    HW222107   2.430   1.393   5.009
 6725SOL     OW22108   3.430   1.519   4.413
 6725SOL    HW122109   3.373   1.501   4.493
 6725SOL    HW222110   3.372   1.545   4.336
 6726SOL     OW22111   2.960   0.742   4.366
 6726SOL    HW122112   3.034   0.807   4.351
 6726SOL    HW222113   2.917   0.759   4.455
 6727SOL     OW22114   3.650   0.547   3.929
 6727SOL    HW122115   3.624   0.559   3.833
 6727SOL    HW222116   3.591   0.479   3.972
 6728SOL     OW22117   2.557   1.124   4.815
 6728SOL    HW122118   2.499   1.175   4.879
 6728SOL    HW222119   2.603   1.188   4.753
 6729SOL     OW22120   2.585   1.083   5.479
 6729SOL    HW122121   2.606   1.146   5.553
 6729SOL    HW222122   2.505   1.116   5.429
 6730SOL     OW22123   2.193   1.367   4.817
 6730SOL    HW122124   2.121   1.308   4.779
 6730SOL    HW222125   2.240   1.413   4.742
 6731SOL     OW22126   3.335   1.593   5.102
 6731SOL    HW122127   3.396   1.666   5.132
 6731SOL    HW222128   3.251   1.594   5.156
 6732SOL     OW22129   2.352   0.434   5.216
 6732SOL    HW122130   2.426   0.369   5.235
 6732SOL    HW222131   2.264   0.391   5.235
 6733SOL     OW22132   3.494   0.470   4.463
 6733SOL    HW122133   3.482   0.528   4.382
 6733SOL    HW222134   3.436   0.503   4.537
 6734SOL     OW22135   2.075   1.740   4.191
 6734SOL    HW122136   2.065   1.791   4.276
 6734SOL    HW222137   2.160   1.766   4.146
 6735SOL     OW22138   3.014   1.340   5.374
 6735SOL    HW122139   3.108   1.307   5.382
 6735SOL    HW222140   2.951   1.262   5.379
 6736SOL     OW22141   2.156   1.479   4.211
 6736SOL    HW122142   2.118   1.571   4.214
 6736SOL    HW222143   2.116   1.424   4.283
 6737SOL     OW22144   2.155   1.077   4.581
 6737SOL    HW122145   2.169   0.980   4.605
 6737SOL    HW222146   2.095   1.119   4.649
 6738SOL     OW22147   2.471   1.740   5.261
 6738SOL    HW122148   2.381   1.761   5.299
 6738SOL    HW222149   2.507   1.820   5.213
 6739SOL     OW22150   2.457   0.990   3.853
 6739SOL    HW122151   2.509   1.031   3.778
 6739SOL    HW222152   2.495   1.018   3.941
 6740SOL     OW22153   3.392   0.127   5.158
 6740SOL    HW122154   3.443   0.148   5.075
 6740SOL    HW222155   3.378   0.212   5.210
 6741SOL     OW22156   1.977   0.687   4.300
 6741SOL    HW122157   1.944   0.595   4.319
 6741SOL    HW222158   1.975   0.741   4.384
 6742SOL     OW22159   3.685   1.773   4.125
 6742SOL    HW122160   3.776   1.743   4.154
 6742SOL    HW222161   3.690   1.867   4.090
 6743SOL     OW22162   1.883   1.551   3.799
 6743SOL    HW122163   1.875   1.457   3.831
 6743SOL    HW222164   1.875   1.613   3.877
 6744SOL     OW22165   3.547   0.863   4.427
 6744SOL    HW122166   3.636   0.826   4.452
 6744SOL    HW222167   3.558   0.938   4.361
 6745SOL     OW22168   3.583   1.076   4.265
 6745SOL    HW122169   3.636   1.054   4.183
 6745SOL    HW222170   3.607   1.169   4.296
 6746SOL     OW22171   1.928   0.767   5.232
 6746SOL    HW122172   1.996   0.818   5.179
 6746SOL    HW222173   1.842   0.818   5.233
 6747SOL     OW22174   2.477   1.359   4.445
 6747SOL    HW122175   2.436   1.268   4.435
 6747SOL    HW222176   2.461   1.413   4.362
 6748SOL     OW22177   3.132   1.287   5.091
 6748SOL    HW122178   3.154   1.194   5.063
 6748SOL    HW222179   3.171   1.305   5.181
 6749SOL     OW22180   2.638   0.010   4.216
 6749SOL    HW122181   2.685   0.087   4.172
 6749SOL    HW222182   2.543   0.035   4.232
 6750SOL     OW22183   2.078   0.928   5.057
 6750SOL    HW122184   2.174   0.900   5.054
 6750SOL    HW222185   2.041   0.931   4.965
 6751SOL     OW22186   3.508   1.013   3.857
 6751SOL    HW122187   3.432   0.962   3.898
 6751SOL    HW222188   3.583   1.020   3.923
 6752SOL     OW22189   3.031   1.851   5.311
 6752SOL    HW122190   3.043   1.913   5.234
 6752SOL    HW222191   3.065   1.760   5.286
 6753SOL     OW22192   2.191   0.297   5.548
 6753SOL    HW122193   2.236   0.355   5.616
 6753SOL    HW222194   2.092   0.310   5.554
 6754SOL     OW22195   3.287   1.474   4.653
 6754SOL    HW122196   3.242   1.484   4.741
 6754SOL    HW222197   3.294   1.377   4.630
 6755SOL     OW22198   3.679   1.852   4.394
 6755SOL    HW122199   3.672   1.827   4.297
 6755SOL    HW222200   3.658   1.772   4.451
 6756SOL     OW22201   2.431   0.727   3.964
 6756SOL    HW122202   2.449   0.813   3.916
 6756SOL    HW222203   2.362   0.742   4.035
 6757SOL     OW22204   3.111   0.362   4.636
 6757SOL    HW122205   3.018   0.325   4.641
 6757SOL    HW222206   3.172   0.304   4.690
 6758SOL     OW22207   3.418   1.716   4.039
 6758SOL    HW122208   3.513   1.735   4.064
 6758SOL    HW222209   3.413   1.695   3.941
 6759SOL     OW22210   2.738   0.594   5.217
 6759SOL    HW122211   2.733   0.553   5.308
 6759SOL    HW222212   2.696   0.532   5.151
 6760SOL     OW22213   3.225   0.474   5.370
 6760SOL    HW122214   3.219   0.532   5.451
 6760SOL    HW222215   3.273   0.389   5.394
 6761SOL     OW22216   2.919   0.974   5.149
 6761SOL    HW122217   2.941   0.876   5.147
 6761SOL    HW222218   2.831   0.988   5.104
 6762SOL     OW22219   2.873   0.432   4.886
 6762SOL    HW122220   2.785   0.442   4.934
 6762SOL    HW222221   2.859   0.379   4.802
 6763SOL     OW22222   2.887   0.720   4.101
 6763SOL    HW122223   2.906   0.722   4.199
 6763SOL    HW222224   2.803   0.670   4.084
 6764SOL     OW22225   1.955   0.832   4.529
 6764SOL    HW122226   2.041   0.818   4.579
 6764SOL    HW222227   1.899   0.898   4.579
 6765SOL     OW22228   1.984   1.906   5.288
 6765SOL    HW122229   1.974   1.912   5.388
 6765SOL    HW222230   1.896   1.879   5.248
 6766SOL     OW22231   2.737   0.363   3.866
 6766SOL    HW122232   2.727   0.436   3.798
 6766SOL    HW222233   2.810   0.301   3.838
 6767SOL     OW22234   3.506   0.598   5.554
 6767SOL    HW122235   3.513   0.681   5.498
 6767SOL    HW222236   3.538   0.520   5.500
 6768SOL     OW22237   2.440   0.185   4.702
 6768SOL    HW122238   2.451   0.206   4.799
 6768SOL    HW222239   2.440   0.270   4.649
 6769SOL     OW22240   2.822   1.483   4.164
 6769SOL    HW122241   2.796   1.569   4.121
 6769SOL    HW222242   2.798   1.485   4.261
 6770SOL     OW22243   2.219   1.752   4.625
 6770SOL    HW122244   2.260   1.661   4.622
 6770SOL    HW222245   2.288   1.818   4.656
 6771SOL     OW22246   3.647   1.029   4.636
 6771SOL    HW122247   3.581   0.984   4.576
 6771SOL    HW222248   3.597   1.081   4.706
 6772SOL     OW22249   3.090   1.584   5.223
 6772SOL    HW122250   3.079   1.507   5.286
 6772SOL    HW222251   3.003   1.601   5.177
 6773SOL     OW22252   2.126   0.920   4.004
 6773SOL    HW122253   2.150   0.916   3.907
 6773SOL    HW222254   2.154   0.835   4.049
 6774SOL     OW22255   2.354   1.231   5.412
 6774SOL    HW122256   2.291   1.272   5.346
 6774SOL    HW222257   2.304   1.202   5.493
 6775SOL     OW22258   2.865   1.856   3.887
 6775SOL    HW122259   2.825   1.797   3.956
 6775SOL    HW222260   2.919   1.801   3.823
 6776SOL     OW22261   2.118   0.314   5.267
 6776SOL    HW122262   2.042   0.378   5.256
 6776SOL    HW222263   2.134   0.297   5.364
 6777SOL     OW22264   3.508   1.430   3.882
 6777SOL    HW122265   3.462   1.495   3.821
 6777SOL    HW222266   3.439   1.382   3.936
 6778SOL     OW22267   2.308   1.814   4.069
 6778SOL    HW122268   2.351   1.900   4.097
 6778SOL    HW222269   2.377   1.755   4.026
 6779SOL     OW22270   3.202   0.133   4.189
 6779SOL    HW122271   3.218   0.103   4.095
 6779SOL    HW222272   3.278   0.102   4.247
 6780SOL     OW22273   2.062   1.767   4.949
 6780SOL    HW122274   2.115   1.691   4.987
 6780SOL    HW222275   2.032   1.744   4.857
 6781SOL     OW22276   2.804   1.681   4.584
 6781SOL    HW122277   2.897   1.644   4.583
 6781SOL    HW222278   2.751   1.638   4.511
 6782SOL     OW22279   2.215   0.704   4.153
 6782SOL    HW122280   2.263   0.619   4.173
 6782SOL    HW222281   2.128   0.705   4.203
 6783SOL     OW22282   3.347   0.243   5.455
 6783SOL    HW122283   3.339   0.256   5.554
 6783SOL    HW222284   3.320   0.150   5.431
 6784SOL     OW22285   2.400   0.052   3.887
 6784SOL    HW122286   2.447   9.975   3.930
 6784SOL    HW222287   2.434   0.064   3.794
 6785SOL     OW22288   2.663   0.257   5.514
 6785SOL    HW122289   2.732   0.187   5.497
 6785SOL    HW222290   2.602   0.226   5.588
 6786SOL     OW22291   2.692   1.510   4.931
 6786SOL    HW122292   2.664   1.506   4.836
 6786SOL    HW222293   2.757   1.436   4.950
 6787SOL     OW22294   3.228   0.597   5.127
 6787SOL    HW122295   3.232   0.554   5.217
 6787SOL    HW222296   3.269   0.688   5.132
 6788SOL     OW22297   2.657   1.312   4.648
 6788SOL    HW122298   2.748   1.333   4.610
 6788SOL    HW222299   2.588   1.327   4.577
 6789SOL     OW22300   2.718   0.524   4.572
 6789SOL    HW122301   2.656   0.526   4.494
 6789SOL    HW222302   2.769   0.438   4.573
 6790SOL     OW22303   2.383   0.093   4.233
 6790SOL    HW122304   2.302   0.091   4.291
 6790SOL    HW222305   2.376   0.169   4.169
 6791SOL     OW22306   3.319   1.100   3.667
 6791SOL    HW122307   3.392   1.084   3.733
 6791SOL    HW222308   3.234   1.120   3.715
 6792SOL     OW22309   2.152   0.045   4.005
 6792SOL    HW122310   2.239   0.047   3.954
 6792SOL    HW222311   2.169   0.018   4.099
 6793SOL     OW22312   2.779   0.215   4.101
 6793SOL    HW122313   2.738   0.263   4.023
 6793SOL    HW222314   2.857   0.267   4.135
 6794SOL     OW22315   2.964   0.710   5.115
 6794SOL    HW122316   2.891   0.658   5.159
 6794SOL    HW222317   3.050   0.658   5.121
 6795SOL     OW22318   3.059   1.588   4.525
 6795SOL    HW122319   3.079   1.663   4.463
 6795SOL    HW222320   3.143   1.557   4.570
 6796SOL     OW22321   2.340   1.138   4.394
 6796SOL    HW122322   2.276   1.108   4.464
 6796SOL    HW222323   2.299   1.125   4.304
 6797SOL     OW22324   3.102   1.807   4.360
 6797SOL    HW122325   3.161   1.868   4.306
 6797SOL    HW222326   3.021   1.858   4.390
 6798SOL     OW22327   2.716   0.555   3.666
 6798SOL    HW122328   2.705   0.643   3.712
 6798SOL    HW222329   2.793   0.559   3.603
 6799SOL     OW22330   1.961   0.518   5.123
 6799SOL    HW122331   2.053   0.530   5.085
 6799SOL    HW222332   1.934   0.602   5.171
 6800SOL     OW22333   2.454   0.254   4.963
 6800SOL    HW122334   2.518   0.195   5.013
 6800SOL    HW222335   2.361   0.235   4.993
 6801SOL     OW22336   2.755   0.091   4.480
 6801SOL    HW122337   2.717   0.080   4.388
 6801SOL    HW222338   2.770   0.001   4.521
 6802SOL     OW22339   3.306   1.212   4.604
 6802SOL    HW122340   3.245   1.153   4.656
 6802SOL    HW222341   3.313   1.178   4.510
 6803SOL     OW22342   3.317   0.541   4.657
 6803SOL    HW122343   3.238   0.480   4.651
 6803SOL    HW222344   3.354   0.540   4.750
 6804SOL     OW22345   3.676   0.751   4.101
 6804SOL    HW122346   3.743   0.720   4.170
 6804SOL    HW222347   3.669   0.682   4.029
 6805SOL     OW22348   2.376   1.428   3.928
 6805SOL    HW122349   2.286   1.385   3.935
 6805SOL    HW222350   2.447   1.362   3.952
 6806SOL     OW22351   3.628   1.326   4.342
 6806SOL    HW122352   3.723   1.351   4.363
 6806SOL    HW222353   3.567   1.402   4.365
 6807SOL     OW22354   3.219   0.515   3.790
 6807SOL    HW122355   3.147   0.524   3.859
 6807SOL    HW222356   3.275   0.435   3.811
 6808SOL     OW22357   2.376   0.285   4.037
 6808SOL    HW122358   2.394   0.205   3.980
 6808SOL    HW222359   2.348   0.361   3.979
 6809SOL     OW22360   3.540   1.291   5.282
 6809SOL    HW122361   3.577   1.217   5.338
 6809SOL    HW222362   3.593   1.375   5.296
 6810SOL     OW22363   2.866   1.318   5.014
 6810SOL    HW122364   2.793   1.288   5.076
 6810SOL    HW222365   2.954   1.310   5.060
 6811SOL     OW22366   3.487   1.655   5.410
 6811SOL    HW122367   3.482   1.717   5.332
 6811SOL    HW222368   3.564   1.592   5.398
 6812SOL     OW22369   2.955   1.217   4.779
 6812SOL    HW122370   2.912   1.254   4.861
 6812SOL    HW222371   2.930   1.273   4.700
 6813SOL     OW22372   3.501   1.185   4.804
 6813SOL    HW122373   3.493   1.250   4.880
 6813SOL    HW222374   3.428   1.204   4.738
 6814SOL     OW22375   2.678   0.141   5.091
 6814SOL    HW122376   2.693   0.043   5.086
 6814SOL    HW222377   2.766   0.189   5.083
 6815SOL     OW22378   2.856   1.113   5.387
 6815SOL    HW122379   2.758   1.104   5.404
 6815SOL    HW222380   2.880   1.061   5.305
 6816SOL     OW22381   2.607   1.064   4.074
 6816SOL    HW122382   2.591   1.018   4.161
 6816SOL    HW222383   2.690   1.028   4.032
 6817SOL     OW22384   2.325   0.815   5.024
 6817SOL    HW122385   2.404   0.813   5.085
 6817SOL    HW222386   2.279   0.727   5.026
 6818SOL     OW22387   3.124   0.391   4.974
 6818SOL    HW122388   3.163   0.469   5.022
 6818SOL    HW222389   3.038   0.417   4.932
 6819SOL     OW22390   1.908   1.532   5.098
 6819SOL    HW122391   1.860   1.595   5.037
 6819SOL    HW222392   2.007   1.544   5.086
 6820SOL     OW22393   2.177   1.138   4.162
 6820SOL    HW122394   2.168   1.210   4.094
 6820SOL    HW222395   2.166   1.049   4.117
 6821SOL     OW22396   2.421   0.456   4.630
 6821SOL    HW122397   2.443   0.495   4.541
 6821SOL    HW222398   2.480   0.495   4.700
 6822SOL     OW22399   3.082   1.452   4.073
 6822SOL    HW122400   3.138   1.513   4.129
 6822SOL    HW222401   2.988   1.453   4.107
 6823SOL     OW22402   3.183   1.497   4.901
 6823SOL    HW122403   3.244   1.538   4.969
 6823SOL    HW222404   3.138   1.417   4.940
 6824SOL     OW22405   3.472   0.650   4.262
 6824SOL    HW122406   3.464   0.723   4.330
 6824SOL    HW222407   3.531   0.681   4.187
 6825SOL     OW22408   2.180   1.530   5.031
 6825SOL    HW122409   2.176   1.470   4.952
 6825SOL    HW222410   2.276   1.551   5.052
 6826SOL     OW22411   2.335   0.684   5.328
 6826SOL    HW122412   2.409   0.740   5.291
 6826SOL    HW222413   2.340   0.592   5.291
 6827SOL     OW22414   3.513   0.832   5.406
 6827SOL    HW122415   3.423   0.876   5.406
 6827SOL    HW222416   3.556   0.843   5.317
 6828SOL     OW22417   2.830   0.028   5.496
 6828SOL    HW122418   2.895   0.072   5.558
 6828SOL    HW222419   2.873   0.014   5.407
 6829SOL     OW22420   2.369   0.094   5.493
 6829SOL    HW122421   2.414   0.122   5.408
 6829SOL    HW222422   2.296   0.159   5.515
 6830SOL     OW22423   2.441   0.873   4.783
 6830SOL    HW122424   2.482   0.963   4.780
 6830SOL    HW222425   2.398   0.858   4.872
 6831SOL     OW22426   3.037   0.525   3.982
 6831SOL    HW122427   3.028   0.450   4.048
 6831SOL    HW222428   2.986   0.604   4.015
 6832SOL     OW22429   2.181   0.205   5.017
 6832SOL    HW122430   2.153   0.238   5.107
 6832SOL    HW222431   2.184   0.105   5.017
 6833SOL     OW22432   1.913   1.275   4.998
 6833SOL    HW122433   1.936   1.217   5.075
 6833SOL    HW222434   1.899   1.369   5.030
 6834SOL     OW22435   2.582   0.632   4.788
 6834SOL    HW122436   2.638   0.609   4.709
 6834SOL    HW222437   2.536   0.720   4.773
 6835SOL     OW22438   3.624   0.965   5.620
 6835SOL    HW122439   3.588   0.910   5.545
 6835SOL    HW222440   3.551   0.983   5.687
 6836SOL     OW22441   2.153   0.109   4.382
 6836SOL    HW122442   2.145   0.209   4.382
 6836SOL    HW222443   2.176   0.077   4.474
 6837SOL     OW22444   3.474   0.382   4.064
 6837SOL    HW122445   3.530   0.317   4.114
 6837SOL    HW222446   3.433   0.447   4.128
 6838SOL     OW22447   2.832   0.766   4.608
 6838SOL    HW122448   2.849   0.776   4.707
 6838SOL    HW222449   2.800   0.674   4.589
 6839SOL     OW22450   2.854   1.557   5.413
 6839SOL    HW122451   2.842   1.598   5.322
 6839SOL    HW222452   2.898   1.468   5.403
 6840SOL     OW22453   3.706   1.503   5.316
 6840SOL    HW122454   3.736   1.516   5.221
 6840SOL    HW222455   3.786   1.503   5.376
 6841SOL     OW22456   2.213   0.857   5.506
 6841SOL    HW122457   2.274   0.906   5.568
 6841SOL    HW222458   2.268   0.801   5.444
 6842SOL     OW22459   3.340   0.274   3.843
 6842SOL    HW122460   3.289   0.194   3.877
 6842SOL    HW222461   3.398   0.309   3.917
 6843SOL     OW22462   3.180   0.782   3.737
 6843SOL    HW122463   3.190   0.684   3.756
 6843SOL    HW222464   3.228   0.804   3.652
 6844SOL     OW22465   2.906   1.356   4.548
 6844SOL    HW122466   2.934   1.278   4.491
 6844SOL    HW222467   2.963   1.435   4.527
 6845SOL     OW22468   2.193   0.806   4.672
 6845SOL    HW122469   2.285   0.835   4.699
 6845SOL    HW222470   2.179   0.711   4.698
 6846SOL     OW22471   2.191   0.534   4.746
 6846SOL    HW122472   2.128   0.458   4.757
 6846SOL    HW222473   2.275   0.502   4.701
 6847SOL     OW22474   2.979   0.349   5.361
 6847SOL    HW122475   2.946   0.353   5.455
 6847SOL    HW222476   3.066   0.398   5.354
 6848SOL     OW22477   2.964   0.226   5.121
 6848SOL    HW122478   2.958   0.267   5.212
 6848SOL    HW222479   3.028   0.278   5.065
 6849SOL     OW22480   1.849   1.290   3.916
 6849SOL    HW122481   1.757   1.322   3.893
 6849SOL    HW222482   1.847   1.191   3.933
 6850SOL     OW22483   1.963   1.712   4.704
 6850SOL    HW122484   1.914   1.644   4.649
 6850SOL    HW222485   2.054   1.726   4.666
 6851SOL     OW22486   2.347   1.508   4.638
 6851SOL    HW122487   2.423   1.564   4.672
 6851SOL    HW222488   2.380   1.448   4.565
 6852SOL     OW22489   2.833   0.768   4.878
 6852SOL    HW122490   2.891   0.748   4.957
 6852SOL    HW222491   2.747   0.717   4.886
 6853SOL     OW22492   1.846   0.504   4.872
 6853SOL    HW122493   1.904   0.439   4.824
 6853SOL    HW222494   1.884   0.523   4.963
 6854SOL     OW22495   2.051   0.612   5.430
 6854SOL    HW122496   2.148   0.634   5.418
 6854SOL    HW222497   1.995   0.673   5.373
 6855SOL     OW22498   3.274   0.966   5.368
 6855SOL    HW122499   3.265   1.065   5.356
 6855SOL    HW222500   3.280   0.923   5.278
 6856SOL     OW22501   2.665   0.583   4.033
 6856SOL    HW122502   2.677   0.498   3.982
 6856SOL    HW222503   2.581   0.628   4.002
 6857SOL     OW22504   3.412   0.542   4.912
 6857SOL    HW122505   3.353   0.564   4.990
 6857SOL    HW222506   3.502   0.516   4.946
 6858SOL     OW22507   2.623   0.468   5.000
 6858SOL    HW122508   2.560   0.390   4.994
 6858SOL    HW222509   2.600   0.534   4.929
 6859SOL     OW22510   2.831   1.636   5.144
 6859SOL    HW122511   2.780   1.586   5.075
 6859SOL    HW222512   2.825   1.734   5.126
 6860SOL     OW22513   2.301   0.497   3.892
 6860SOL    HW122514   2.357   0.579   3.907
 6860SOL    HW222515   2.204   0.523   3.892
 6861SOL     OW22516   1.982   1.125   5.218
 6861SOL    HW122517   1.990   1.098   5.314
 6861SOL    HW222518   2.021   1.054   5.160
 6862SOL     OW22519   3.166   1.026   5.031
 6862SOL    HW122520   3.162   1.034   4.931
 6862SOL    HW222521   3.075   1.006   5.066
 6863SOL     OW22522   3.300   0.878   3.964
 6863SOL    HW122523   3.259   0.839   4.047
 6863SOL    HW222524   3.250   0.845   3.884
 6864SOL     OW22525   3.651   1.766   4.926
 6864SOL    HW122526   3.747   1.773   4.899
 6864SOL    HW222527   3.607   1.691   4.875
 6865SOL     OW22528   3.122   1.759   4.832
 6865SOL    HW122529   3.208   1.795   4.793
 6865SOL    HW222530   3.134   1.663   4.856
 6866SOL     OW22531   1.980   1.191   4.751
 6866SOL    HW122532   1.949   1.223   4.841
 6866SOL    HW222533   1.905   1.142   4.706
 6867SOL     OW22534   2.600   1.634   5.481
 6867SOL    HW122535   2.560   1.680   5.402
 6867SOL    HW222536   2.698   1.620   5.465
 6868SOL     OW22537   3.656   0.212   4.185
 6868SOL    HW122538   3.696   0.215   4.094
 6868SOL    HW222539   3.669   0.120   4.224
 6869SOL     OW22540   3.248   1.611   4.223
 6869SOL    HW122541   3.308   1.651   4.154
 6869SOL    HW222542   3.195   1.684   4.267
 6870SOL     OW22543   1.985   1.898   5.555
 6870SOL    HW122544   2.035   1.813   5.570
 6870SOL    HW222545   2.013   1.966   5.622
 6871SOL     OW22546   3.162   0.924   4.360
 6871SOL    HW122547   3.199   0.862   4.429
 6871SOL    HW222548   3.229   0.996   4.340
 6872SOL     OW22549   2.631   1.256   5.144
 6872SOL    HW122550   2.619   1.304   5.231
 6872SOL    HW222551   2.550   1.270   5.087
 6873SOL     OW22552   2.496   1.668   3.927
 6873SOL    HW122553   2.517   1.696   3.833
 6873SOL    HW222554   2.449   1.580   3.926
 6874SOL     OW22555   3.514   1.799   5.169
 6874SOL    HW122556   3.562   1.793   5.081
 6874SOL    HW222557   3.489   1.894   5.187
 6875SOL     OW22558   3.716   0.183   4.709
 6875SOL    HW122559   3.787   0.132   4.661
 6875SOL    HW222560   3.635   0.193   4.651
 6876SOL     OW22561   2.135   0.381   4.410
 6876SOL    HW122562   2.040   0.403   4.390
 6876SOL    HW222563   2.157   0.406   4.504
 6877SOL     OW22564   3.086   1.698   3.748
 6877SOL    HW122565   3.042   1.608   3.753
 6877SOL    HW222566   3.070   1.738   3.657
 6878SOL     OW22567   2.667   1.008   5.051
 6878SOL    HW122568   2.648   1.020   4.953
 6878SOL    HW222569   2.653   1.096   5.098
 6879SOL     OW22570   2.826   0.949   3.966
 6879SOL    HW122571   2.898   0.978   3.903
 6879SOL    HW222572   2.859   0.871   4.019
 6880SOL     OW22573   3.367   1.643   3.758
 6880SOL    HW122574   3.268   1.650   3.762
 6880SOL    HW222575   3.398   1.661   3.665
 6881SOL     OW22576   2.167   1.338   5.246
 6881SOL    HW122577   2.168   1.401   5.169
 6881SOL    HW222578   2.099   1.266   5.229
 6882SOL     OW22579   3.484   1.378   5.014
 6882SOL    HW122580   3.517   1.328   5.094
 6882SOL    HW222581   3.425   1.453   5.044
 6883SOL     OW22582   2.964   1.121   4.423
 6883SOL    HW122583   2.876   1.076   4.440
 6883SOL    HW222584   3.030   1.055   4.389
 6884SOL     OW22585   2.856   0.257   4.670
 6884SOL    HW122586   2.817   0.207   4.593
 6884SOL    HW222587   2.878   0.194   4.744
 6885SOL     OW22588   2.438   1.498   4.219
 6885SOL    HW122589   2.482   1.455   4.140
 6885SOL    HW222590   2.339   1.500   4.205
 6886SOL     OW22591   3.706   0.274   5.189
 6886SOL    HW122592   3.683   0.345   5.123
 6886SOL    HW222593   3.700   0.184   5.144
 6887SOL     OW22594   2.110   1.341   3.982
 6887SOL    HW122595   2.013   1.326   3.967
 6887SOL    HW222596   2.123   1.403   4.060
 6888SOL     OW22597   2.002   1.027   5.468
 6888SOL    HW122598   1.917   1.002   5.515
 6888SOL    HW222599   2.069   0.953   5.480
 6889SOL     OW22600   2.518   0.230   5.289
 6889SOL    HW122601   2.576   0.193   5.216
 6889SOL    HW222602   2.574   0.247   5.370
 6890SOL     OW22603   1.952   0.308   3.704
 6890SOL    HW122604   1.858   0.309   3.668
 6890SOL    HW222605   1.995   0.396   3.685
 6891SOL     OW22606   3.343   0.845   5.130
 6891SOL    HW122607   3.290   0.913   5.079
 6891SOL    HW222608   3.440   0.863   5.119
 6892SOL     OW22609   1.936   0.206   3.968
 6892SOL    HW122610   1.940   0.250   3.878
 6892SOL    HW222611   2.014   0.145   3.979
 6893SOL     OW22612   3.012   1.404   3.809
 6893SOL    HW122613   2.918   1.369   3.813
 6893SOL    HW222614   3.047   1.417   3.902
 6894SOL     OW22615   2.550   0.796   5.179
 6894SOL    HW122616   2.593   0.877   5.139
 6894SOL    HW222617   2.619   0.726   5.196
 6895SOL     OW22618   3.363   1.867   4.748
 6895SOL    HW122619   3.398   1.945   4.697
 6895SOL    HW222620   3.429   1.792   4.745
 6896SOL     OW22621   3.277   1.251   5.360
 6896SOL    HW122622   3.289   1.242   5.458
 6896SOL    HW222623   3.364   1.277   5.317
 6897SOL     OW22624   2.234   1.807   5.372
 6897SOL    HW122625   2.151   1.838   5.327
 6897SOL    HW222626   2.210   1.758   5.456
 6898SOL     OW22627   3.015   0.330   4.174
 6898SOL    HW122628   3.090   0.265   4.181
 6898SOL    HW222629   3.008   0.383   4.258
 6899SOL     OW22630   3.587   0.369   5.418
 6899SOL    HW122631   3.630   0.336   5.334
 6899SOL    HW222632   3.503   0.318   5.435
 6900SOL     OW22633   2.735   1.354   3.794
 6900SOL    HW122634   2.684   1.367   3.879
 6900SOL    HW222635   2.741   1.442   3.746
 6901SOL     OW22636   2.547   1.680   4.698
 6901SOL    HW122637   2.509   1.773   4.705
 6901SOL    HW222638   2.641   1.685   4.666
 6902SOL     OW22639   2.729   0.997   4.513
 6902SOL    HW122640   2.768   0.914   4.552
 6902SOL    HW222641   2.689   1.054   4.585
 6903SOL     OW22642   3.006   0.994   3.759
 6903SOL    HW122643   2.938   0.995   3.686
 6903SOL    HW222644   3.063   0.913   3.750
 6904SOL     OW22645   3.632   1.630   4.551
 6904SOL    HW122646   3.565   1.591   4.488
 6904SOL    HW222647   3.614   1.599   4.644
 6905SOL     OW22648   2.197   1.155   5.616
 6905SOL    HW122649   2.119   1.116   5.567
 6905SOL    HW222650   2.166   1.192   5.703
 6906SOL     OW22651   2.051   1.268   4.369
 6906SOL    HW122652   2.073   1.222   4.455
 6906SOL    HW222653   2.089   1.217   4.293
 6907SOL     OW22654   2.572   1.384   5.370
 6907SOL    HW122655   2.490   1.334   5.395
 6907SOL    HW222656   2.571   1.474   5.414
 6908SOL     OW22657   3.531   0.145   4.919
 6908SOL    HW122658   3.519   0.045   4.916
 6908SOL    HW222659   3.603   0.171   4.856
 6909SOL     OW22660   2.337   0.468   4.243
 6909SOL    HW122661   2.361   0.404   4.169
 6909SOL    HW222662   2.262   0.430   4.296
 6910SOL     OW22663   3.520   1.557   4.796
 6910SOL    HW122664   3.440   1.533   4.741
 6910SOL    HW222665   3.532   1.489   4.869
 6911SOL     OW22666   2.209   0.569   5.019
 6911SOL    HW122667   2.276   0.512   5.067
 6911SOL    HW222668   2.212   0.550   4.921
 6912SOL     OW22669   2.664   1.559   4.390
 6912SOL    HW122670   2.606   1.596   4.317
 6912SOL    HW222671   2.620   1.479   4.431
 6913SOL     OW22672   3.300   0.254   4.808
 6913SOL    HW122673   3.379   0.216   4.856
 6913SOL    HW222674   3.241   0.302   4.873
 6914SOL     OW22675   2.926   0.094   4.875
 6914SOL    HW122676   2.940   9.996   4.885
 6914SOL    HW222677   2.946   0.140   4.962
 6915SOL     OW22678   2.612   1.336   4.048
 6915SOL    HW122679   2.610   1.237   4.062
 6915SOL    HW222680   2.694   1.373   4.092
 6916SOL     OW22681   2.454   1.556   5.061
 6916SOL    HW122682   2.463   1.616   5.140
 6916SOL    HW222683   2.540   1.552   5.011
 6917SOL     OW22684   3.205   0.046   3.926
 6917SOL    HW122685   3.293   0.001   3.913
 6917SOL    HW222686   3.133   9.977   3.934
 6918SOL     OW22687   3.009   0.471   4.399
 6918SOL    HW122688   3.000   0.571   4.392
 6918SOL    HW222689   3.056   0.448   4.484
 6919SOL     OW22690   3.470   0.227   4.590
 6919SOL    HW122691   3.404   0.244   4.663
 6919SOL    HW222692   3.479   0.309   4.533
 6920SOL     OW22693   1.865   1.002   4.029
 6920SOL    HW122694   1.963   0.990   4.016
 6920SOL    HW222695   1.822   0.914   4.044
 6921SOL     OW22696   2.720   1.719   4.077
 6921SOL    HW122697   2.636   1.700   4.026
 6921SOL    HW222698   2.705   1.794   4.140
 6922SOL     OW22699   2.058   0.641   5.720
 6922SOL    HW122700   1.968   0.605   5.742
 6922SOL    HW222701   2.062   0.664   5.622
 6923SOL     OW22702   2.029   0.301   6.609
 6923SOL    HW122703   2.089   0.252   6.673
 6923SOL    HW222704   1.955   0.240   6.581
 6924SOL     OW22705   1.786   0.279   6.211
 6924SOL    HW122706   1.706   0.337   6.226
 6924SOL    HW222707   1.769   0.218   6.133
 6925SOL     OW22708   2.388   1.257   6.784
 6925SOL    HW122709   2.337   1.319   6.725
 6925SOL    HW222710   2.358   1.269   6.879
 6926SOL     OW22711   3.452   1.527   6.285
 6926SOL    HW122712   3.416   1.490   6.371
 6926SOL    HW222713   3.377   1.542   6.221
 6927SOL     OW22714   2.963   0.733   6.211
 6927SOL    HW122715   3.002   0.824   6.220
 6927SOL    HW222716   2.877   0.728   6.262
 6928SOL     OW22717   3.613   0.574   5.804
 6928SOL    HW122718   3.578   0.591   5.711
 6928SOL    HW222719   3.568   0.494   5.843
 6929SOL     OW22720   2.565   1.121   6.632
 6929SOL    HW122721   2.498   1.157   6.698
 6929SOL    HW222722   2.610   1.197   6.585
 6930SOL     OW22723   2.771   0.768   7.447
 6930SOL    HW122724   2.760   0.807   7.538
 6930SOL    HW222725   2.795   0.840   7.383
 6931SOL     OW22726   2.577   0.958   6.240
 6931SOL    HW122727   2.643   0.971   6.315
 6931SOL    HW222728   2.500   1.020   6.252
 6932SOL     OW22729   2.429   1.067   7.423
 6932SOL    HW122730   2.490   1.128   7.473
 6932SOL    HW222731   2.386   1.118   7.348
 6933SOL     OW22732   2.219   1.421   6.634
 6933SOL    HW122733   2.148   1.364   6.593
 6933SOL    HW222734   2.268   1.471   6.562
 6934SOL     OW22735   3.347   1.485   6.950
 6934SOL    HW122736   3.405   1.564   6.968
 6934SOL    HW222737   3.271   1.483   7.015
 6935SOL     OW22738   2.277   0.432   7.077
 6935SOL    HW122739   2.367   0.389   7.089
 6935SOL    HW222740   2.206   0.362   7.082
 6936SOL     OW22741   3.481   0.494   6.335
 6936SOL    HW122742   3.457   0.520   6.241
 6936SOL    HW222743   3.435   0.556   6.399
 6937SOL     OW22744   2.105   1.724   6.009
 6937SOL    HW122745   2.127   1.785   6.086
 6937SOL    HW222746   2.173   1.735   5.937
 6938SOL     OW22747   2.160   1.457   6.052
 6938SOL    HW122748   2.126   1.551   6.049
 6938SOL    HW222749   2.122   1.410   6.131
 6939SOL     OW22750   2.185   1.108   6.460
 6939SOL    HW122751   2.193   1.010   6.478
 6939SOL    HW222752   2.127   1.150   6.530
 6940SOL     OW22753   2.400   1.827   6.989
 6940SOL    HW122754   2.327   1.804   7.054
 6940SOL    HW222755   2.469   1.882   7.035
 6941SOL     OW22756   2.422   0.903   5.798
 6941SOL    HW122757   2.473   0.883   5.714
 6941SOL    HW222758   2.477   0.962   5.857
 6942SOL     OW22759   3.378   0.077   7.084
 6942SOL    HW122760   3.420   0.113   7.001
 6942SOL    HW222761   3.384   0.146   7.156
 6943SOL     OW22762   3.701   1.735   5.862
 6943SOL    HW122763   3.780   1.746   5.921
 6943SOL    HW222764   3.675   1.824   5.823
 6944SOL     OW22765   3.536   0.933   6.188
 6944SOL    HW122766   3.583   0.869   6.127
 6944SOL    HW222767   3.523   1.021   6.141
 6945SOL     OW22768   3.528   1.155   6.012
 6945SOL    HW122769   3.610   1.108   5.979
 6945SOL    HW222770   3.551   1.248   6.038
 6946SOL     OW22771   1.949   0.674   7.187
 6946SOL    HW122772   2.046   0.698   7.185
 6946SOL    HW222773   1.895   0.748   7.147
 6947SOL     OW22774   2.491   1.373   6.294
 6947SOL    HW122775   2.456   1.279   6.300
 6947SOL    HW222776   2.469   1.411   6.204
 6948SOL     OW22777   3.169   1.218   7.044
 6948SOL    HW122778   3.169   1.159   6.964
 6948SOL    HW222779   3.250   1.200   7.099
 6949SOL     OW22780   2.680   0.083   6.169
 6949SOL    HW122781   2.709   0.176   6.145
 6949SOL    HW222782   2.582   0.074   6.152
 6950SOL     OW22783   2.123   1.053   6.915
 6950SOL    HW122784   2.190   0.980   6.904
 6950SOL    HW222785   2.088   1.081   6.825
 6951SOL     OW22786   3.410   1.025   5.794
 6951SOL    HW122787   3.334   0.966   5.819
 6951SOL    HW222788   3.445   1.071   5.875
 6952SOL     OW22789   3.036   1.818   7.197
 6952SOL    HW122790   3.054   1.892   7.133
 6952SOL    HW222791   3.088   1.737   7.170
 6953SOL     OW22792   3.347   1.409   6.513
 6953SOL    HW122793   3.283   1.438   6.584
 6953SOL    HW222794   3.322   1.318   6.480
 6954SOL     OW22795   3.481   1.815   6.133
 6954SOL    HW122796   3.468   1.760   6.051
 6954SOL    HW222797   3.488   1.755   6.213
 6955SOL     OW22798   2.419   0.652   5.900
 6955SOL    HW122799   2.420   0.743   5.860
 6955SOL    HW222800   2.363   0.652   5.982
 6956SOL     OW22801   3.145   0.434   6.524
 6956SOL    HW122802   3.059   0.382   6.530
 6956SOL    HW222803   3.207   0.404   6.596
 6957SOL     OW22804   3.442   1.659   5.910
 6957SOL    HW122805   3.540   1.670   5.896
 6957SOL    HW222806   3.396   1.652   5.822
 6958SOL     OW22807   2.669   0.656   7.032
 6958SOL    HW122808   2.667   0.610   7.121
 6958SOL    HW222809   2.640   0.591   6.961
 6959SOL     OW22810   3.240   0.493   7.247
 6959SOL    HW122811   3.244   0.540   7.335
 6959SOL    HW222812   3.286   0.404   7.255
 6960SOL     OW22813   2.858   0.435   6.792
 6960SOL    HW122814   2.763   0.455   6.814
 6960SOL    HW222815   2.862   0.374   6.713
 6961SOL     OW22816   2.926   0.724   5.941
 6961SOL    HW122817   2.942   0.723   6.040
 6961SOL    HW222818   2.838   0.681   5.921
 6962SOL     OW22819   1.961   0.914   6.384
 6962SOL    HW122820   2.047   0.878   6.418
 6962SOL    HW222821   1.924   0.981   6.449
 6963SOL     OW22822   1.964   1.867   7.182
 6963SOL    HW122823   1.971   1.832   7.276
 6963SOL    HW222824   1.870   1.857   7.150
 6964SOL     OW22825   2.705   0.331   5.811
 6964SOL    HW122826   2.777   0.336   5.742
 6964SOL    HW222827   2.640   0.259   5.786
 6965SOL     OW22828   3.521   0.595   7.427
 6965SOL    HW122829   3.517   0.678   7.371
 6965SOL    HW222830   3.541   0.517   7.368
 6966SOL     OW22831   3.262   1.182   6.136
 6966SOL    HW122832   3.348   1.177   6.084
 6966SOL    HW222833   3.201   1.247   6.092
 6967SOL     OW22834   2.388   0.232   6.561
 6967SOL    HW122835   2.416   0.249   6.655
 6967SOL    HW222836   2.399   0.315   6.507
 6968SOL     OW22837   2.836   1.465   6.049
 6968SOL    HW122838   2.813   1.535   5.982
 6968SOL    HW222839   2.801   1.492   6.139
 6969SOL     OW22840   2.191   1.773   6.480
 6969SOL    HW122841   2.249   1.692   6.476
 6969SOL    HW222842   2.249   1.855   6.488
 6970SOL     OW22843   3.655   1.014   6.425
 6970SOL    HW122844   3.602   0.979   6.347
 6970SOL    HW222845   3.593   1.035   6.500
 6971SOL     OW22846   3.123   1.477   7.105
 6971SOL    HW122847   3.130   1.379   7.084
 6971SOL    HW222848   3.047   1.491   7.168
 6972SOL     OW22849   2.151   0.882   5.855
 6972SOL    HW122850   2.247   0.898   5.832
 6972SOL    HW222851   2.120   0.798   5.811
 6973SOL     OW22852   3.313   0.792   6.261
 6973SOL    HW122853   3.313   0.751   6.352
 6973SOL    HW222854   3.396   0.846   6.249
 6974SOL     OW22855   2.348   1.278   7.258
 6974SOL    HW122856   2.314   1.284   7.164
 6974SOL    HW222857   2.272   1.291   7.322
 6975SOL     OW22858   2.996   1.725   5.812
 6975SOL    HW122859   2.902   1.708   5.842
 6975SOL    HW222860   3.021   1.659   5.741
 6976SOL     OW22861   2.093   0.223   7.087
 6976SOL    HW122862   1.997   0.233   7.059
 6976SOL    HW222863   2.098   0.216   7.186
 6977SOL     OW22864   3.517   1.404   5.659
 6977SOL    HW122865   3.467   1.490   5.666
 6977SOL    HW222866   3.452   1.330   5.642
 6978SOL     OW22867   2.309   1.781   5.824
 6978SOL    HW122868   2.343   1.832   5.903
 6978SOL    HW222869   2.382   1.725   5.786
 6979SOL     OW22870   3.150   0.094   6.090
 6979SOL    HW122871   3.196   0.070   6.005
 6979SOL    HW222872   3.214   0.086   6.166
 6980SOL     OW22873   2.060   1.797   6.817
 6980SOL    HW122874   2.112   1.716   6.846
 6980SOL    HW222875   2.027   1.783   6.724
 6981SOL     OW22876   2.795   1.707   6.454
 6981SOL    HW122877   2.888   1.670   6.458
 6981SOL    HW222878   2.742   1.655   6.387
 6982SOL     OW22879   2.260   0.641   6.126
 6982SOL    HW122880   2.269   0.542   6.120
 6982SOL    HW222881   2.172   0.665   6.167
 6983SOL     OW22882   3.334   0.236   7.327
 6983SOL    HW122883   3.350   0.250   7.424
 6983SOL    HW222884   3.269   0.160   7.314
 6984SOL     OW22885   2.526   0.131   5.720
 6984SOL    HW122886   2.580   0.056   5.759
 6984SOL    HW222887   2.468   0.095   5.646
 6985SOL     OW22888   2.621   0.283   7.353
 6985SOL    HW122889   2.688   0.214   7.328
 6985SOL    HW222890   2.570   0.253   7.434
 6986SOL     OW22891   2.674   1.465   6.926
 6986SOL    HW122892   2.657   1.428   6.834
 6986SOL    HW222893   2.695   1.390   6.988
 6987SOL     OW22894   3.129   0.656   7.056
 6987SOL    HW122895   3.181   0.607   7.126
 6987SOL    HW222896   3.184   0.732   7.021
 6988SOL     OW22897   2.671   1.333   6.511
 6988SOL    HW122898   2.766   1.359   6.494
 6988SOL    HW222899   2.617   1.355   6.429
 6989SOL     OW22900   2.814   0.537   6.492
 6989SOL    HW122901   2.782   0.530   6.398
 6989SOL    HW222902   2.847   0.447   6.523
 6990SOL     OW22903   2.415   0.073   6.105
 6990SOL    HW122904   2.332   0.052   6.157
 6990SOL    HW222905   2.390   0.124   6.023
 6991SOL     OW22906   3.316   1.220   5.625
 6991SOL    HW122907   3.350   1.142   5.677
 6991SOL    HW222908   3.232   1.254   5.668
 6992SOL     OW22909   2.066   0.111   5.878
 6992SOL    HW122910   2.162   0.138   5.885
 6992SOL    HW222911   2.046   0.042   5.947
 6993SOL     OW22912   2.783   0.317   6.070
 6993SOL    HW122913   2.747   0.322   5.977
 6993SOL    HW222914   2.882   0.331   6.068
 6994SOL     OW22915   2.899   0.794   7.116
 6994SOL    HW122916   2.820   0.737   7.091
 6994SOL    HW222917   2.983   0.743   7.099
 6995SOL     OW22918   3.054   1.627   6.418
 6995SOL    HW122919   3.081   1.677   6.336
 6995SOL    HW222920   3.100   1.665   6.498
 6996SOL     OW22921   2.364   1.129   6.258
 6996SOL    HW122922   2.303   1.121   6.336
 6996SOL    HW222923   2.311   1.123   6.173
 6997SOL     OW22924   3.097   1.799   6.205
 6997SOL    HW122925   3.153   1.862   6.150
 6997SOL    HW222926   3.011   1.844   6.229
 6998SOL     OW22927   2.913   0.409   5.630
 6998SOL    HW122928   2.852   0.474   5.585
 6998SOL    HW222929   2.971   0.458   5.695
 6999SOL     OW22930   1.959   0.508   6.971
 6999SOL    HW122931   2.044   0.540   6.930
 6999SOL    HW222932   1.940   0.561   7.054
 7000SOL     OW22933   2.414   0.283   6.834
 7000SOL    HW122934   2.449   0.265   6.926
 7000SOL    HW222935   2.322   0.246   6.825
 7001SOL     OW22936   2.722   0.527   6.246
 7001SOL    HW122937   2.641   0.581   6.226
 7001SOL    HW222938   2.733   0.456   6.175
 7002SOL     OW22939   2.807   0.071   6.418
 7002SOL    HW122940   2.759   0.076   6.331
 7002SOL    HW222941   2.838   9.977   6.434
 7003SOL     OW22942   3.269   1.164   6.421
 7003SOL    HW122943   3.178   1.131   6.445
 7003SOL    HW222944   3.277   1.169   6.322
 7004SOL     OW22945   3.305   0.662   6.501
 7004SOL    HW122946   3.236   0.590   6.506
 7004SOL    HW222947   3.367   0.654   6.580
 7005SOL     OW22948   3.649   0.762   5.996
 7005SOL    HW122949   3.728   0.730   6.048
 7005SOL    HW222950   3.637   0.705   5.915
 7006SOL     OW22951   2.382   1.393   5.757
 7006SOL    HW122952   2.295   1.347   5.775
 7006SOL    HW222953   2.446   1.329   5.716
 7007SOL     OW22954   3.628   1.389   6.121
 7007SOL    HW122955   3.674   1.321   6.179
 7007SOL    HW222956   3.562   1.440   6.176
 7008SOL     OW22957   3.229   0.604   5.610
 7008SOL    HW122958   3.188   0.565   5.692
 7008SOL    HW222959   3.329   0.597   5.616
 7009SOL     OW22960   2.326   0.226   5.886
 7009SOL    HW122961   2.399   0.189   5.830
 7009SOL    HW222962   2.295   0.314   5.847
 7010SOL     OW22963   3.642   1.206   7.131
 7010SOL    HW122964   3.735   1.173   7.116
 7010SOL    HW222965   3.645   1.304   7.149
 7011SOL     OW22966   3.481   1.620   7.268
 7011SOL    HW122967   3.458   1.664   7.181
 7011SOL    HW222968   3.557   1.556   7.254
 7012SOL     OW22969   2.993   1.292   6.733
 7012SOL    HW122970   2.915   1.301   6.795
 7012SOL    HW222971   2.965   1.319   6.640
 7013SOL     OW22972   3.457   1.071   6.617
 7013SOL    HW122973   3.454   1.135   6.695
 7013SOL    HW222974   3.385   1.095   6.552
 7014SOL     OW22975   2.718   0.170   6.981
 7014SOL    HW122976   2.726   0.078   6.943
 7014SOL    HW222977   2.810   0.208   6.995
 7015SOL     OW22978   2.596   1.036   5.974
 7015SOL    HW122979   2.593   1.001   6.067
 7015SOL    HW222980   2.683   1.010   5.931
 7016SOL     OW22981   2.302   0.847   6.882
 7016SOL    HW122982   2.362   0.845   6.962
 7016SOL    HW222983   2.255   0.759   6.874
 7017SOL     OW22984   3.108   0.447   6.884
 7017SOL    HW122985   3.119   0.527   6.943
 7017SOL    HW222986   3.017   0.449   6.842
 7018SOL     OW22987   1.892   1.545   6.928
 7018SOL    HW122988   1.843   1.613   6.874
 7018SOL    HW222989   1.990   1.554   6.912
 7019SOL     OW22990   2.182   1.110   6.040
 7019SOL    HW122991   2.164   1.172   5.963
 7019SOL    HW222992   2.170   1.015   6.009
 7020SOL     OW22993   2.405   0.482   6.442
 7020SOL    HW122994   2.420   0.505   6.346
 7020SOL    HW222995   2.467   0.536   6.499
 7021SOL     OW22996   3.096   1.371   6.014
 7021SOL    HW122997   3.154   1.447   6.043
 7021SOL    HW222998   3.000   1.394   6.030
 7022SOL     OW22999   3.195   1.479   6.727
 7022SOL    HW123000   3.252   1.480   6.809
 7022SOL    HW223001   3.123   1.410   6.737
 7023SOL     OW23002   3.428   0.603   6.090
 7023SOL    HW123003   3.355   0.659   6.130
 7023SOL    HW223004   3.498   0.662   6.050
 7024SOL     OW23005   2.161   1.541   6.869
 7024SOL    HW123006   2.173   1.497   6.779
 7024SOL    HW223007   2.251   1.554   6.911
 7025SOL     OW23008   2.230   0.687   7.183
 7025SOL    HW123009   2.310   0.740   7.155
 7025SOL    HW223010   2.241   0.592   7.154
 7026SOL     OW23011   3.497   0.823   7.279
 7026SOL    HW123012   3.402   0.853   7.272
 7026SOL    HW223013   3.547   0.851   7.197
 7027SOL     OW23014   2.796   0.062   7.318
 7027SOL    HW123015   2.862   0.108   7.378
 7027SOL    HW223016   2.845   0.025   7.238
 7028SOL     OW23017   2.402   0.009   7.293
 7028SOL    HW123018   2.474   9.948   7.258
 7028SOL    HW223019   2.390   0.086   7.231
 7029SOL     OW23020   2.438   0.877   6.642
 7029SOL    HW123021   2.487   0.964   6.634
 7029SOL    HW223022   2.394   0.872   6.732
 7030SOL     OW23023   3.139   0.885   6.594
 7030SOL    HW123024   3.045   0.853   6.581
 7030SOL    HW223025   3.203   0.818   6.559
 7031SOL     OW23026   3.067   0.521   5.824
 7031SOL    HW123027   3.077   0.451   5.895
 7031SOL    HW223028   3.024   0.602   5.862
 7032SOL     OW23029   2.165   0.172   6.829
 7032SOL    HW123030   2.140   0.198   6.922
 7032SOL    HW223031   2.181   0.073   6.825
 7033SOL     OW23032   1.922   1.279   6.875
 7033SOL    HW123033   1.906   1.224   6.957
 7033SOL    HW223034   1.900   1.374   6.895
 7034SOL     OW23035   2.565   0.633   6.598
 7034SOL    HW123036   2.656   0.630   6.558
 7034SOL    HW223037   2.534   0.728   6.604
 7035SOL     OW23038   3.640   0.956   7.472
 7035SOL    HW123039   3.585   0.905   7.406
 7035SOL    HW223040   3.582   0.984   7.549
 7036SOL     OW23041   2.157   0.066   6.227
 7036SOL    HW123042   2.115   0.156   6.229
 7036SOL    HW223043   2.183   0.039   6.320
 7037SOL     OW23044   3.461   0.381   5.930
 7037SOL    HW123045   3.522   0.317   5.978
 7037SOL    HW223046   3.432   0.453   5.993
 7038SOL     OW23047   2.882   0.785   6.575
 7038SOL    HW123048   2.857   0.793   6.671
 7038SOL    HW223049   2.869   0.691   6.545
 7039SOL     OW23050   2.908   1.521   7.272
 7039SOL    HW123051   2.872   1.602   7.227
 7039SOL    HW223052   2.837   1.450   7.275
 7040SOL     OW23053   3.699   1.473   7.180
 7040SOL    HW123054   3.723   1.509   7.090
 7040SOL    HW223055   3.777   1.483   7.241
 7041SOL     OW23056   2.167   0.851   7.396
 7041SOL    HW123057   2.250   0.899   7.426
 7041SOL    HW223058   2.191   0.787   7.323
 7042SOL     OW23059   3.322   0.265   5.723
 7042SOL    HW123060   3.283   0.182   5.764
 7042SOL    HW223061   3.375   0.314   5.792
 7043SOL     OW23062   3.142   0.860   5.581
 7043SOL    HW123063   3.165   0.763   5.586
 7043SOL    HW223064   3.188   0.902   5.503
 7044SOL     OW23065   2.938   1.379   6.478
 7044SOL    HW123066   2.965   1.296   6.429
 7044SOL    HW223067   2.990   1.457   6.444
 7045SOL     OW23068   2.196   0.828   6.518
 7045SOL    HW123069   2.288   0.845   6.552
 7045SOL    HW223070   2.172   0.732   6.533
 7046SOL     OW23071   2.182   0.534   6.590
 7046SOL    HW123072   2.124   0.453   6.591
 7046SOL    HW223073   2.262   0.518   6.532
 7047SOL     OW23074   2.999   0.374   7.291
 7047SOL    HW123075   2.947   0.433   7.353
 7047SOL    HW223076   3.082   0.422   7.262
 7048SOL     OW23077   2.979   0.254   7.035
 7048SOL    HW123078   2.974   0.284   7.131
 7048SOL    HW223079   3.029   0.322   6.982
 7049SOL     OW23080   1.937   1.762   6.566
 7049SOL    HW123081   1.885   1.693   6.516
 7049SOL    HW223082   2.030   1.768   6.529
 7050SOL     OW23083   2.371   1.572   6.449
 7050SOL    HW123084   2.432   1.652   6.445
 7050SOL    HW223085   2.411   1.497   6.397
 7051SOL     OW23086   2.813   0.807   6.833
 7051SOL    HW123087   2.879   0.852   6.893
 7051SOL    HW223088   2.751   0.751   6.888
 7052SOL     OW23089   1.836   0.453   6.739
 7052SOL    HW123090   1.902   0.404   6.683
 7052SOL    HW223091   1.879   0.483   6.824
 7053SOL     OW23092   3.255   0.935   7.226
 7053SOL    HW123093   3.293   1.027   7.231
 7053SOL    HW223094   3.242   0.909   7.130
 7054SOL     OW23095   2.692   0.594   5.891
 7054SOL    HW123096   2.695   0.498   5.864
 7054SOL    HW223097   2.597   0.623   5.903
 7055SOL     OW23098   3.469   0.599   6.709
 7055SOL    HW123099   3.409   0.522   6.731
 7055SOL    HW223100   3.564   0.569   6.709
 7056SOL     OW23101   2.073   1.523   7.290
 7056SOL    HW123102   2.055   1.599   7.354
 7056SOL    HW223103   2.096   1.441   7.342
 7057SOL     OW23104   2.591   0.495   6.828
 7057SOL    HW123105   2.529   0.416   6.828
 7057SOL    HW223106   2.577   0.547   6.744
 7058SOL     OW23107   2.745   1.679   7.096
 7058SOL    HW123108   2.723   1.608   7.028
 7058SOL    HW223109   2.783   1.759   7.049
 7059SOL     OW23110   2.268   0.467   5.761
 7059SOL    HW123111   2.339   0.522   5.805
 7059SOL    HW223112   2.186   0.522   5.749
 7060SOL     OW23113   1.926   1.099   7.099
 7060SOL    HW123114   1.953   1.095   7.195
 7060SOL    HW223115   2.004   1.078   7.041
 7061SOL     OW23116   3.125   1.060   6.805
 7061SOL    HW123117   3.134   0.999   6.726
 7061SOL    HW223118   3.079   1.144   6.777
 7062SOL     OW23119   3.187   0.879   5.851
 7062SOL    HW123120   3.114   0.837   5.905
 7062SOL    HW223121   3.164   0.871   5.754
 7063SOL     OW23122   3.633   1.737   6.738
 7063SOL    HW123123   3.705   1.759   6.672
 7063SOL    HW223124   3.599   1.645   6.721
 7064SOL     OW23125   3.150   1.736   6.651
 7064SOL    HW123126   3.237   1.786   6.655
 7064SOL    HW223127   3.163   1.644   6.688
 7065SOL     OW23128   2.003   1.222   6.624
 7065SOL    HW123129   1.976   1.251   6.716
 7065SOL    HW223130   1.924   1.184   6.576
 7066SOL     OW23131   2.573   1.674   7.313
 7066SOL    HW123132   2.500   1.743   7.308
 7066SOL    HW223133   2.636   1.686   7.237
 7067SOL     OW23134   3.656   0.224   6.053
 7067SOL    HW123135   3.696   0.232   5.962
 7067SOL    HW223136   3.677   0.134   6.091
 7068SOL     OW23137   3.253   1.582   6.100
 7068SOL    HW123138   3.312   1.611   6.024
 7068SOL    HW223139   3.192   1.658   6.125
 7069SOL     OW23140   2.001   1.760   7.429
 7069SOL    HW123141   1.955   1.688   7.481
 7069SOL    HW223142   2.043   1.826   7.492
 7070SOL     OW23143   3.112   0.963   6.211
 7070SOL    HW123144   3.182   0.894   6.229
 7070SOL    HW223145   3.155   1.042   6.166
 7071SOL     OW23146   2.513   1.628   5.737
 7071SOL    HW123147   2.545   1.635   5.642
 7071SOL    HW223148   2.466   1.541   5.750
 7072SOL     OW23149   3.495   1.715   6.991
 7072SOL    HW123150   3.548   1.715   6.906
 7072SOL    HW223151   3.502   1.804   7.034
 7073SOL     OW23152   3.684   0.155   6.605
 7073SOL    HW123153   3.700   0.056   6.601
 7073SOL    HW223154   3.614   0.180   6.539
 7074SOL     OW23155   2.044   0.313   6.288
 7074SOL    HW123156   1.948   0.296   6.262
 7074SOL    HW223157   2.054   0.298   6.386
 7075SOL     OW23158   3.078   1.549   5.617
 7075SOL    HW123159   3.075   1.456   5.654
 7075SOL    HW223160   3.007   1.560   5.547
 7076SOL     OW23161   2.827   0.970   5.856
 7076SOL    HW123162   2.876   1.008   5.778
 7076SOL    HW223163   2.869   0.883   5.882
 7077SOL     OW23164   3.345   1.634   5.648
 7077SOL    HW123165   3.251   1.606   5.631
 7077SOL    HW223166   3.391   1.651   5.560
 7078SOL     OW23167   2.232   1.285   7.013
 7078SOL    HW123168   2.183   1.366   6.981
 7078SOL    HW223169   2.186   1.203   6.980
 7079SOL     OW23170   3.458   1.248   6.830
 7079SOL    HW123171   3.556   1.259   6.847
 7079SOL    HW223172   3.408   1.318   6.881
 7080SOL     OW23173   2.978   1.125   6.384
 7080SOL    HW123174   2.890   1.086   6.413
 7080SOL    HW223175   3.021   1.065   6.317
 7081SOL     OW23176   2.914   0.273   6.572
 7081SOL    HW123177   2.871   0.213   6.506
 7081SOL    HW223178   2.949   0.219   6.649
 7082SOL     OW23179   2.439   1.472   6.055
 7082SOL    HW123180   2.488   1.424   5.981
 7082SOL    HW223181   2.341   1.469   6.037
 7083SOL     OW23182   3.632   0.334   7.022
 7083SOL    HW123183   3.702   0.401   6.998
 7083SOL    HW223184   3.595   0.294   6.938
 7084SOL     OW23185   2.121   1.298   5.838
 7084SOL    HW123186   2.044   1.330   5.784
 7084SOL    HW223187   2.134   1.359   5.916
 7085SOL     OW23188   1.990   1.063   7.363
 7085SOL    HW123189   1.903   1.052   7.411
 7085SOL    HW223190   2.048   0.983   7.380
 7086SOL     OW23191   2.504   0.270   7.104
 7086SOL    HW123192   2.583   0.234   7.054
 7086SOL    HW223193   2.532   0.292   7.198
 7087SOL     OW23194   1.934   0.380   5.528
 7087SOL    HW123195   1.848   0.366   5.479
 7087SOL    HW223196   1.972   0.469   5.504
 7088SOL     OW23197   3.255   0.877   6.960
 7088SOL    HW123198   3.198   0.942   6.909
 7088SOL    HW223199   3.344   0.868   6.914
 7089SOL     OW23200   1.850   0.235   5.777
 7089SOL    HW123201   1.869   0.296   5.700
 7089SOL    HW223202   1.935   0.192   5.807
 7090SOL     OW23203   3.082   1.300   5.740
 7090SOL    HW123204   3.029   1.217   5.719
 7090SOL    HW223205   3.082   1.316   5.839
 7091SOL     OW23206   2.459   0.821   7.107
 7091SOL    HW123207   2.491   0.885   7.177
 7091SOL    HW223208   2.535   0.763   7.077
 7092SOL     OW23209   3.391   1.867   6.654
 7092SOL    HW123210   3.415   1.919   6.572
 7092SOL    HW223211   3.472   1.821   6.689
 7093SOL     OW23212   2.664   0.556   7.279
 7093SOL    HW123213   2.694   0.618   7.351
 7093SOL    HW223214   2.653   0.464   7.317
 7094SOL     OW23215   3.381   1.173   7.219
 7094SOL    HW123216   3.377   1.199   7.315
 7094SOL    HW223217   3.474   1.186   7.185
 7095SOL     OW23218   2.199   1.732   7.153
 7095SOL    HW123219   2.115   1.787   7.148
 7095SOL    HW223220   2.176   1.639   7.182
 7096SOL     OW23221   3.485   0.864   6.810
 7096SOL    HW123222   3.485   0.772   6.770
 7096SOL    HW223223   3.480   0.932   6.736
 7097SOL     OW23224   3.056   0.348   6.041
 7097SOL    HW123225   3.094   0.257   6.057
 7097SOL    HW223226   3.082   0.408   6.117
 7098SOL     OW23227   2.506   0.690   6.229
 7098SOL    HW123228   2.534   0.786   6.232
 7098SOL    HW223229   2.413   0.683   6.192
 7099SOL     OW23230   3.567   0.366   7.279
 7099SOL    HW123231   3.591   0.359   7.182
 7099SOL    HW223232   3.483   0.314   7.296
 7100SOL     OW23233   3.605   0.933   7.050
 7100SOL    HW123234   3.606   1.032   7.066
 7100SOL    HW223235   3.564   0.914   6.961
 7101SOL     OW23236   2.623   1.279   5.661
 7101SOL    HW123237   2.637   1.288   5.759
 7101SOL    HW223238   2.672   1.352   5.613
 7102SOL     OW23239   2.524   1.806   6.431
 7102SOL    HW123240   2.525   1.901   6.397
 7102SOL    HW223241   2.615   1.782   6.464
 7103SOL     OW23242   2.745   0.991   6.460
 7103SOL    HW123243   2.795   0.915   6.502
 7103SOL    HW223244   2.683   1.031   6.528
 7104SOL     OW23245   2.968   1.065   5.637
 7104SOL    HW123246   2.921   1.088   5.552
 7104SOL    HW223247   3.031   0.989   5.621
 7105SOL     OW23248   3.714   1.506   6.448
 7105SOL    HW123249   3.660   1.509   6.365
 7105SOL    HW223250   3.654   1.504   6.528
 7106SOL     OW23251   2.134   1.291   7.425
 7106SOL    HW123252   2.076   1.213   7.403
 7106SOL    HW223253   2.134   1.305   7.524
 7107SOL     OW23254   2.065   1.268   6.239
 7107SOL    HW123255   2.091   1.227   6.327
 7107SOL    HW223256   2.090   1.206   6.165
 7108SOL     OW23257   2.590   1.400   7.293
 7108SOL    HW123258   2.499   1.358   7.282
 7108SOL    HW223259   2.580   1.499   7.300
 7109SOL     OW23260   3.502   0.169   6.816
 7109SOL    HW123261   3.473   0.074   6.805
 7109SOL    HW223262   3.575   0.189   6.751
 7110SOL     OW23263   2.266   0.377   6.122
 7110SOL    HW123264   2.289   0.311   6.051
 7110SOL    HW223265   2.193   0.340   6.180
 7111SOL     OW23266   3.558   1.491   6.665
 7111SOL    HW123267   3.477   1.454   6.621
 7111SOL    HW223268   3.597   1.423   6.727
 7112SOL     OW23269   2.194   0.594   6.859
 7112SOL    HW123270   2.249   0.529   6.913
 7112SOL    HW223271   2.201   0.570   6.762
 7113SOL     OW23272   2.672   1.577   6.251
 7113SOL    HW123273   2.629   1.642   6.188
 7113SOL    HW223274   2.612   1.500   6.267
 7114SOL     OW23275   3.317   0.362   6.729
 7114SOL    HW123276   3.374   0.291   6.771
 7114SOL    HW223277   3.242   0.385   6.791
 7115SOL     OW23278   2.988   0.120   6.785
 7115SOL    HW123279   2.981   0.021   6.785
 7115SOL    HW223280   2.991   0.154   6.879
 7116SOL     OW23281   2.639   1.305   5.928
 7116SOL    HW123282   2.622   1.210   5.954
 7116SOL    HW223283   2.716   1.342   5.980
 7117SOL     OW23284   2.417   1.563   6.946
 7117SOL    HW123285   2.420   1.663   6.954
 7117SOL    HW223286   2.509   1.526   6.943
 7118SOL     OW23287   3.206   0.028   5.819
 7118SOL    HW123288   3.292   9.990   5.784
 7118SOL    HW223289   3.140   9.954   5.831
 7119SOL     OW23290   3.111   0.503   6.252
 7119SOL    HW123291   3.060   0.588   6.242
 7119SOL    HW223292   3.122   0.481   6.349
 7120SOL     OW23293   3.455   0.259   6.472
 7120SOL    HW123294   3.400   0.284   6.551
 7120SOL    HW223295   3.472   0.340   6.416
 7121SOL     OW23296   1.898   0.972   5.930
 7121SOL    HW123297   1.990   0.959   5.893
 7121SOL    HW223298   1.853   0.883   5.940
 7122SOL     OW23299   2.737   1.675   5.899
 7122SOL    HW123300   2.655   1.656   5.844
 7122SOL    HW223301   2.719   1.750   5.962
 7123SOL     OW23302   2.072   0.694   7.612
 7123SOL    HW123303   1.980   0.656   7.619
 7123SOL    HW223304   2.082   0.743   7.526
 7124SOL     OW23305   2.034   0.292   8.453
 7124SOL    HW123306   2.073   0.254   8.537
 7124SOL    HW223307   1.972   0.226   8.412
 7125SOL     OW23308   1.869   0.430   8.097
 7125SOL    HW123309   1.787   0.455   8.148
 7125SOL    HW223310   1.847   0.358   8.032
 7126SOL     OW23311   2.405   1.324   8.705
 7126SOL    HW123312   2.333   1.322   8.636
 7126SOL    HW223313   2.431   1.419   8.723
 7127SOL     OW23314   3.443   1.534   8.145
 7127SOL    HW123315   3.397   1.483   8.218
 7127SOL    HW223316   3.379   1.551   8.071
 7128SOL     OW23317   2.983   0.738   8.111
 7128SOL    HW123318   3.032   0.823   8.091
 7128SOL    HW223319   2.934   0.747   8.197
 7129SOL     OW23320   3.689   0.602   7.639
 7129SOL    HW123321   3.624   0.606   7.563
 7129SOL    HW223322   3.711   0.507   7.659
 7130SOL     OW23323   2.560   1.131   8.526
 7130SOL    HW123324   2.503   1.168   8.599
 7130SOL    HW223325   2.600   1.206   8.473
 7131SOL     OW23326   2.780   0.717   9.242
 7131SOL    HW123327   2.797   0.787   9.311
 7131SOL    HW223328   2.782   0.758   9.151
 7132SOL     OW23329   2.580   0.944   8.099
 7132SOL    HW123330   2.641   0.964   8.175
 7132SOL    HW223331   2.499   1.002   8.106
 7133SOL     OW23332   2.572   1.158   9.278
 7133SOL    HW123333   2.633   1.222   9.326
 7133SOL    HW223334   2.491   1.207   9.245
 7134SOL     OW23335   2.208   1.366   8.523
 7134SOL    HW123336   2.136   1.304   8.493
 7134SOL    HW223337   2.244   1.415   8.444
 7135SOL     OW23338   3.294   1.502   8.814
 7135SOL    HW123339   3.355   1.578   8.836
 7135SOL    HW223340   3.214   1.505   8.873
 7136SOL     OW23341   2.355   0.348   8.859
 7136SOL    HW123342   2.423   0.314   8.925
 7136SOL    HW223343   2.263   0.326   8.892
 7137SOL     OW23344   3.473   0.496   8.172
 7137SOL    HW123345   3.458   0.532   8.080
 7137SOL    HW223346   3.421   0.550   8.238
 7138SOL     OW23347   2.104   1.715   7.911
 7138SOL    HW123348   2.118   1.787   7.978
 7138SOL    HW223349   2.169   1.727   7.836
 7139SOL     OW23350   2.975   1.341   9.143
 7139SOL    HW123351   3.023   1.332   9.230
 7139SOL    HW223352   2.920   1.259   9.127
 7140SOL     OW23353   2.168   1.452   7.940
 7140SOL    HW123354   2.139   1.548   7.944
 7140SOL    HW223355   2.131   1.404   8.020
 7141SOL     OW23356   2.175   1.062   8.307
 7141SOL    HW123357   2.183   0.964   8.326
 7141SOL    HW223358   2.120   1.105   8.379
 7142SOL     OW23359   2.433   1.834   8.854
 7142SOL    HW123360   2.358   1.809   8.915
 7142SOL    HW223361   2.486   1.908   8.895
 7143SOL     OW23362   2.419   0.948   7.671
 7143SOL    HW123363   2.426   0.986   7.579
 7143SOL    HW223364   2.488   0.990   7.730
 7144SOL     OW23365   3.429   0.089   8.967
 7144SOL    HW123366   3.468   0.141   8.891
 7144SOL    HW223367   3.386   0.152   9.033
 7145SOL     OW23368   1.982   0.678   8.039
 7145SOL    HW123369   1.949   0.586   8.058
 7145SOL    HW223370   1.975   0.734   8.122
 7146SOL     OW23371   3.722   1.755   7.750
 7146SOL    HW123372   3.798   1.746   7.815
 7146SOL    HW223373   3.719   1.849   7.716
 7147SOL     OW23374   1.908   1.556   7.573
 7147SOL    HW123375   1.886   1.460   7.586
 7147SOL    HW223376   1.884   1.607   7.655
 7148SOL     OW23377   3.576   0.940   8.106
 7148SOL    HW123378   3.643   0.875   8.071
 7148SOL    HW223379   3.560   1.012   8.038
 7149SOL     OW23380   3.560   1.133   7.909
 7149SOL    HW123381   3.644   1.100   7.865
 7149SOL    HW223382   3.580   1.217   7.959
 7150SOL     OW23383   1.951   0.758   8.960
 7150SOL    HW123384   2.003   0.816   8.897
 7150SOL    HW223385   1.864   0.801   8.980
 7151SOL     OW23386   2.477   1.344   8.184
 7151SOL    HW123387   2.440   1.252   8.169
 7151SOL    HW223388   2.488   1.391   8.097
 7152SOL     OW23389   3.099   1.210   8.864
 7152SOL    HW123390   3.123   1.144   8.792
 7152SOL    HW223391   3.170   1.209   8.935
 7153SOL     OW23392   2.660   0.125   8.012
 7153SOL    HW123393   2.725   0.181   7.960
 7153SOL    HW223394   2.569   0.135   7.973
 7154SOL     OW23395   2.071   0.929   8.778
 7154SOL    HW123396   2.163   0.891   8.762
 7154SOL    HW223397   2.031   0.957   8.691
 7155SOL     OW23398   3.458   1.035   7.671
 7155SOL    HW123399   3.384   0.971   7.691
 7155SOL    HW223400   3.491   1.076   7.757
 7156SOL     OW23401   3.013   1.775   9.067
 7156SOL    HW123402   3.042   1.850   9.008
 7156SOL    HW223403   3.032   1.688   9.022
 7157SOL     OW23404   2.201   0.293   9.214
 7157SOL    HW123405   2.269   0.346   9.264
 7157SOL    HW223406   2.109   0.325   9.238
 7158SOL     OW23407   3.333   1.393   8.351
 7158SOL    HW123408   3.270   1.428   8.421
 7158SOL    HW223409   3.310   1.297   8.331
 7159SOL     OW23410   3.490   1.859   7.975
 7159SOL    HW123411   3.481   1.794   7.899
 7159SOL    HW223412   3.501   1.808   8.060
 7160SOL     OW23413   2.447   0.695   7.777
 7160SOL    HW123414   2.444   0.785   7.733
 7160SOL    HW223415   2.383   0.694   7.854
 7161SOL     OW23416   3.157   0.420   8.374
 7161SOL    HW123417   3.071   0.370   8.384
 7161SOL    HW223418   3.226   0.381   8.435
 7162SOL     OW23419   3.459   1.682   7.768
 7162SOL    HW123420   3.558   1.694   7.758
 7162SOL    HW223421   3.419   1.662   7.678
 7163SOL     OW23422   2.671   0.579   8.921
 7163SOL    HW123423   2.636   0.535   9.004
 7163SOL    HW223424   2.644   0.526   8.841
 7164SOL     OW23425   3.237   0.503   9.107
 7164SOL    HW123426   3.236   0.551   9.195
 7164SOL    HW223427   3.285   0.415   9.118
 7165SOL     OW23428   2.809   0.878   9.013
 7165SOL    HW123429   2.865   0.814   8.960
 7165SOL    HW223430   2.749   0.929   8.951
 7166SOL     OW23431   2.879   0.443   8.616
 7166SOL    HW123432   2.784   0.451   8.645
 7166SOL    HW223433   2.887   0.370   8.548
 7167SOL     OW23434   2.912   0.688   7.850
 7167SOL    HW123435   2.933   0.702   7.947
 7167SOL    HW223436   2.826   0.639   7.840
 7168SOL     OW23437   1.954   0.831   8.261
 7168SOL    HW123438   2.042   0.812   8.306
 7168SOL    HW223439   1.903   0.899   8.314
 7169SOL     OW23440   1.979   1.874   9.038
 7169SOL    HW123441   1.986   1.846   9.133
 7169SOL    HW223442   1.883   1.870   9.009
 7170SOL     OW23443   2.823   0.315   7.628
 7170SOL    HW123444   2.839   0.403   7.582
 7170SOL    HW223445   2.874   0.243   7.581
 7171SOL     OW23446   3.518   0.584   9.294
 7171SOL    HW123447   3.509   0.663   9.234
 7171SOL    HW223448   3.548   0.505   9.241
 7172SOL     OW23449   3.281   1.182   8.016
 7172SOL    HW123450   3.371   1.174   7.973
 7172SOL    HW223451   3.225   1.247   7.965
 7173SOL     OW23452   2.431   0.177   8.396
 7173SOL    HW123453   2.451   0.194   8.492
 7173SOL    HW223454   2.440   0.262   8.344
 7174SOL     OW23455   2.866   1.461   7.901
 7174SOL    HW123456   2.845   1.531   7.833
 7174SOL    HW223457   2.828   1.488   7.989
 7175SOL     OW23458   2.206   1.767   8.318
 7175SOL    HW123459   2.242   1.674   8.318
 7175SOL    HW223460   2.277   1.830   8.350
 7176SOL     OW23461   3.667   1.024   8.350
 7176SOL    HW123462   3.626   1.002   8.261
 7176SOL    HW223463   3.595   1.046   8.416
 7177SOL     OW23464   3.047   1.521   8.947
 7177SOL    HW123465   3.039   1.454   9.021
 7177SOL    HW223466   2.986   1.495   8.872
 7178SOL     OW23467   2.155   0.923   7.738
 7178SOL    HW123468   2.252   0.933   7.713
 7178SOL    HW223469   2.122   0.833   7.707
 7179SOL     OW23470   3.338   0.811   8.140
 7179SOL    HW123471   3.332   0.754   8.221
 7179SOL    HW223472   3.425   0.861   8.140
 7180SOL     OW23473   2.348   1.307   9.198
 7180SOL    HW123474   2.337   1.283   9.102
 7180SOL    HW223475   2.259   1.305   9.244
 7181SOL     OW23476   3.021   1.724   7.653
 7181SOL    HW123477   2.927   1.710   7.687
 7181SOL    HW223478   3.045   1.650   7.591
 7182SOL     OW23479   2.108   0.292   8.946
 7182SOL    HW123480   2.044   0.369   8.934
 7182SOL    HW223481   2.130   0.283   9.043
 7183SOL     OW23482   3.544   1.413   7.548
 7183SOL    HW123483   3.484   1.493   7.545
 7183SOL    HW223484   3.493   1.332   7.520
 7184SOL     OW23485   2.310   1.770   7.735
 7184SOL    HW123486   2.357   1.813   7.812
 7184SOL    HW223487   2.375   1.719   7.680
 7185SOL     OW23488   2.062   1.815   8.627
 7185SOL    HW123489   2.117   1.738   8.656
 7185SOL    HW223490   2.025   1.797   8.536
 7186SOL     OW23491   2.780   1.683   8.309
 7186SOL    HW123492   2.873   1.647   8.312
 7186SOL    HW223493   2.733   1.646   8.229
 7187SOL     OW23494   2.257   0.670   7.973
 7187SOL    HW123495   2.265   0.571   7.966
 7187SOL    HW223496   2.161   0.694   7.988
 7188SOL     OW23497   3.326   0.245   9.181
 7188SOL    HW123498   3.348   0.247   9.278
 7188SOL    HW223499   3.229   0.222   9.169
 7189SOL     OW23500   2.476   0.121   7.536
 7189SOL    HW123501   2.525   0.057   7.595
 7189SOL    HW223502   2.447   0.073   7.453
 7190SOL     OW23503   2.648   0.225   9.276
 7190SOL    HW123504   2.733   0.172   9.267
 7190SOL    HW223505   2.579   0.170   9.323
 7191SOL     OW23506   2.700   1.510   8.623
 7191SOL    HW123507   2.680   1.460   8.539
 7191SOL    HW223508   2.768   1.459   8.676
 7192SOL     OW23509   3.182   0.611   8.863
 7192SOL    HW123510   3.214   0.585   8.954
 7192SOL    HW223511   3.209   0.705   8.844
 7193SOL     OW23512   2.659   1.349   8.394
 7193SOL    HW123513   2.752   1.361   8.358
 7193SOL    HW223514   2.594   1.355   8.318
 7194SOL     OW23515   2.796   0.538   8.307
 7194SOL    HW123516   2.782   0.516   8.211
 7194SOL    HW223517   2.830   0.458   8.356
 7195SOL     OW23518   2.408   0.098   7.894
 7195SOL    HW123519   2.339   0.078   7.963
 7195SOL    HW223520   2.369   0.158   7.823
 7196SOL     OW23521   3.363   1.214   7.491
 7196SOL    HW123522   3.399   1.143   7.551
 7196SOL    HW223523   3.272   1.241   7.522
 7197SOL     OW23524   2.091   0.102   7.577
 7197SOL    HW123525   2.155   0.157   7.631
 7197SOL    HW223526   2.120   0.006   7.579
 7198SOL     OW23527   2.885   0.241   7.878
 7198SOL    HW123528   2.855   0.274   7.788
 7198SOL    HW223529   2.981   0.264   7.892
 7199SOL     OW23530   2.914   0.691   8.849
 7199SOL    HW123531   2.844   0.627   8.879
 7199SOL    HW223532   3.004   0.647   8.852
 7200SOL     OW23533   3.044   1.617   8.266
 7200SOL    HW123534   3.073   1.665   8.183
 7200SOL    HW223535   3.086   1.660   8.346
 7201SOL     OW23536   2.363   1.106   8.117
 7201SOL    HW123537   2.298   1.087   8.191
 7201SOL    HW223538   2.313   1.116   8.031
 7202SOL     OW23539   3.097   1.796   8.057
 7202SOL    HW123540   3.147   1.860   7.999
 7202SOL    HW223541   3.017   1.841   8.097
 7203SOL     OW23542   2.909   0.537   7.496
 7203SOL    HW123543   2.867   0.626   7.478
 7203SOL    HW223544   2.982   0.548   7.564
 7204SOL     OW23545   1.974   0.516   8.832
 7204SOL    HW123546   2.065   0.526   8.791
 7204SOL    HW223547   1.952   0.598   8.885
 7205SOL     OW23548   2.490   0.231   8.654
 7205SOL    HW123549   2.565   0.186   8.702
 7205SOL    HW223550   2.422   0.262   8.720
 7206SOL     OW23551   2.777   0.454   8.050
 7206SOL    HW123552   2.725   0.496   7.976
 7206SOL    HW223553   2.829   0.377   8.015
 7207SOL     OW23554   2.769   0.132   8.264
 7207SOL    HW123555   2.722   0.142   8.177
 7207SOL    HW223556   2.780   0.035   8.286
 7208SOL     OW23557   3.283   1.126   8.303
 7208SOL    HW123558   3.224   1.049   8.326
 7208SOL    HW223559   3.281   1.140   8.204
 7209SOL     OW23560   3.312   0.651   8.360
 7209SOL    HW123561   3.245   0.576   8.364
 7209SOL    HW223562   3.374   0.644   8.439
 7210SOL     OW23563   3.673   0.775   7.844
 7210SOL    HW123564   3.739   0.739   7.910
 7210SOL    HW223565   3.674   0.718   7.761
 7211SOL     OW23566   2.382   1.440   7.640
 7211SOL    HW123567   2.288   1.410   7.656
 7211SOL    HW223568   2.437   1.363   7.606
 7212SOL     OW23569   3.625   1.346   8.051
 7212SOL    HW123570   3.716   1.352   8.092
 7212SOL    HW223571   3.568   1.421   8.085
 7213SOL     OW23572   3.252   0.593   7.497
 7213SOL    HW123573   3.210   0.563   7.582
 7213SOL    HW223574   3.352   0.588   7.505
 7214SOL     OW23575   2.297   0.252   7.694
 7214SOL    HW123576   2.365   0.214   7.631
 7214SOL    HW223577   2.287   0.350   7.677
 7215SOL     OW23578   3.588   1.240   8.958
 7215SOL    HW123579   3.678   1.204   8.933
 7215SOL    HW223580   3.598   1.329   9.001
 7216SOL     OW23581   2.877   1.349   8.783
 7216SOL    HW123582   2.790   1.319   8.822
 7216SOL    HW223583   2.952   1.296   8.824
 7217SOL     OW23584   3.442   1.619   9.122
 7217SOL    HW123585   3.428   1.660   9.032
 7217SOL    HW223586   3.528   1.569   9.123
 7218SOL     OW23587   3.005   1.277   8.552
 7218SOL    HW123588   2.944   1.302   8.627
 7218SOL    HW223589   2.965   1.305   8.465
 7219SOL     OW23590   3.459   1.089   8.519
 7219SOL    HW123591   3.451   1.160   8.590
 7219SOL    HW223592   3.392   1.106   8.447
 7220SOL     OW23593   2.693   0.145   8.815
 7220SOL    HW123594   2.701   0.046   8.821
 7220SOL    HW223595   2.783   0.186   8.824
 7221SOL     OW23596   2.817   1.114   9.151
 7221SOL    HW123597   2.723   1.128   9.182
 7221SOL    HW223598   2.822   1.030   9.097
 7222SOL     OW23599   2.625   1.028   7.839
 7222SOL    HW123600   2.614   0.991   7.931
 7222SOL    HW223601   2.694   0.975   7.789
 7223SOL     OW23602   2.309   0.804   8.731
 7223SOL    HW123603   2.378   0.807   8.802
 7223SOL    HW223604   2.272   0.711   8.724
 7224SOL     OW23605   3.122   0.396   8.715
 7224SOL    HW123606   3.151   0.473   8.773
 7224SOL    HW223607   3.034   0.418   8.672
 7225SOL     OW23608   1.929   1.545   8.762
 7225SOL    HW123609   1.871   1.608   8.710
 7225SOL    HW223610   2.025   1.566   8.745
 7226SOL     OW23611   2.198   1.136   7.897
 7226SOL    HW123612   2.191   1.209   7.829
 7226SOL    HW223613   2.180   1.048   7.853
 7227SOL     OW23614   2.437   0.458   8.315
 7227SOL    HW123615   2.441   0.508   8.228
 7227SOL    HW223616   2.494   0.504   8.382
 7228SOL     OW23617   3.125   1.364   7.870
 7228SOL    HW123618   3.181   1.443   7.892
 7228SOL    HW223619   3.029   1.386   7.885
 7229SOL     OW23620   3.188   1.476   8.567
 7229SOL    HW123621   3.229   1.483   8.658
 7229SOL    HW223622   3.123   1.400   8.566
 7230SOL     OW23623   3.445   0.644   7.946
 7230SOL    HW123624   3.387   0.709   7.996
 7230SOL    HW223625   3.515   0.694   7.895
 7231SOL     OW23626   2.191   1.583   8.686
 7231SOL    HW123627   2.187   1.504   8.626
 7231SOL    HW223628   2.285   1.597   8.717
 7232SOL     OW23629   2.370   0.694   9.128
 7232SOL    HW123630   2.409   0.742   9.049
 7232SOL    HW223631   2.435   0.625   9.160
 7233SOL     OW23632   3.483   0.806   9.142
 7233SOL    HW123633   3.390   0.840   9.129
 7233SOL    HW223634   3.539   0.834   9.064
 7234SOL     OW23635   2.878   0.073   9.260
 7234SOL    HW123636   2.951   0.134   9.290
 7234SOL    HW223637   2.893   0.046   9.165
 7235SOL     OW23638   2.341   0.066   9.161
 7235SOL    HW123639   2.409   0.101   9.096
 7235SOL    HW223640   2.275   0.138   9.182
 7236SOL     OW23641   2.439   0.875   8.498
 7236SOL    HW123642   2.480   0.967   8.500
 7236SOL    HW223643   2.394   0.858   8.585
 7237SOL     OW23644   3.151   0.886   8.406
 7237SOL    HW123645   3.057   0.854   8.395
 7237SOL    HW223646   3.213   0.809   8.392
 7238SOL     OW23647   3.090   0.537   7.711
 7238SOL    HW123648   3.118   0.458   7.766
 7238SOL    HW223649   3.030   0.595   7.765
 7239SOL     OW23650   2.114   0.183   8.689
 7239SOL    HW123651   2.111   0.220   8.783
 7239SOL    HW223652   2.152   0.091   8.691
 7240SOL     OW23653   1.946   1.272   8.725
 7240SOL    HW123654   1.963   1.229   8.814
 7240SOL    HW223655   1.933   1.370   8.739
 7241SOL     OW23656   2.586   0.638   8.469
 7241SOL    HW123657   2.651   0.626   8.395
 7241SOL    HW223658   2.535   0.723   8.456
 7242SOL     OW23659   3.610   0.983   9.315
 7242SOL    HW123660   3.566   0.912   9.260
 7242SOL    HW223661   3.548   1.012   9.388
 7243SOL     OW23662   2.193   0.078   8.073
 7243SOL    HW123663   2.165   0.172   8.090
 7243SOL    HW223664   2.215   0.034   8.160
 7244SOL     OW23665   2.892   0.777   8.390
 7244SOL    HW123666   2.867   0.792   8.485
 7244SOL    HW223667   2.865   0.685   8.362
 7245SOL     OW23668   2.810   1.549   9.213
 7245SOL    HW123669   2.791   1.621   9.146
 7245SOL    HW223670   2.868   1.479   9.170
 7246SOL     OW23671   3.682   1.490   9.035
 7246SOL    HW123672   3.698   1.512   8.939
 7246SOL    HW223673   3.764   1.508   9.088
 7247SOL     OW23674   2.247   0.903   9.269
 7247SOL    HW123675   2.312   0.938   9.337
 7247SOL    HW223676   2.291   0.830   9.217
 7248SOL     OW23677   3.354   0.220   7.598
 7248SOL    HW123678   3.303   0.137   7.575
 7248SOL    HW223679   3.373   0.222   7.696
 7249SOL     OW23680   3.166   0.846   7.466
 7249SOL    HW123681   3.191   0.750   7.470
 7249SOL    HW223682   3.191   0.883   7.376
 7250SOL     OW23683   2.918   1.373   8.313
 7250SOL    HW123684   2.934   1.294   8.254
 7250SOL    HW223685   2.973   1.450   8.281
 7251SOL     OW23686   2.199   0.791   8.385
 7251SOL    HW123687   2.291   0.821   8.411
 7251SOL    HW223688   2.190   0.693   8.403
 7252SOL     OW23689   2.204   0.512   8.446
 7252SOL    HW123690   2.138   0.438   8.442
 7252SOL    HW223691   2.285   0.489   8.392
 7253SOL     OW23692   2.973   0.431   9.064
 7253SOL    HW123693   2.932   0.450   9.153
 7253SOL    HW223694   3.068   0.462   9.064
 7254SOL     OW23695   2.944   0.242   8.872
 7254SOL    HW123696   2.943   0.310   8.945
 7254SOL    HW223697   3.010   0.269   8.802
 7255SOL     OW23698   1.868   1.279   7.638
 7255SOL    HW123699   1.779   1.309   7.603
 7255SOL    HW223700   1.864   1.182   7.663
 7256SOL     OW23701   1.941   1.749   8.383
 7256SOL    HW123702   1.893   1.677   8.333
 7256SOL    HW223703   2.035   1.756   8.348
 7257SOL     OW23704   2.334   1.520   8.337
 7257SOL    HW123705   2.405   1.580   8.375
 7257SOL    HW223706   2.376   1.454   8.275
 7258SOL     OW23707   2.782   0.802   8.635
 7258SOL    HW123708   2.837   0.768   8.712
 7258SOL    HW223709   2.704   0.741   8.620
 7259SOL     OW23710   1.858   0.480   8.578
 7259SOL    HW123711   1.917   0.421   8.523
 7259SOL    HW223712   1.903   0.499   8.666
 7260SOL     OW23713   2.103   0.636   9.163
 7260SOL    HW123714   2.200   0.654   9.145
 7260SOL    HW223715   2.047   0.686   9.097
 7261SOL     OW23716   3.248   0.927   9.069
 7261SOL    HW123717   3.267   1.025   9.073
 7261SOL    HW223718   3.236   0.899   8.974
 7262SOL     OW23719   2.678   0.552   7.810
 7262SOL    HW123720   2.677   0.478   7.742
 7262SOL    HW223721   2.595   0.606   7.802
 7263SOL     OW23722   3.467   0.612   8.582
 7263SOL    HW123723   3.403   0.553   8.631
 7263SOL    HW223724   3.557   0.568   8.579
 7264SOL     OW23725   2.099   1.550   9.163
 7264SOL    HW123726   2.078   1.625   9.226
 7264SOL    HW223727   2.101   1.464   9.213
 7265SOL     OW23728   2.615   0.471   8.677
 7265SOL    HW123729   2.566   0.385   8.663
 7265SOL    HW223730   2.595   0.533   8.602
 7266SOL     OW23731   2.698   1.720   9.024
 7266SOL    HW123732   2.636   1.664   8.970
 7266SOL    HW223733   2.744   1.786   8.964
 7267SOL     OW23734   2.278   0.516   7.653
 7267SOL    HW123735   2.351   0.571   7.692
 7267SOL    HW223736   2.197   0.573   7.637
 7268SOL     OW23737   1.999   1.125   8.954
 7268SOL    HW123738   2.008   1.099   9.050
 7268SOL    HW223739   2.026   1.049   8.896
 7269SOL     OW23740   3.130   1.047   8.629
 7269SOL    HW123741   3.142   0.986   8.551
 7269SOL    HW223742   3.085   1.131   8.599
 7270SOL     OW23743   3.249   0.875   7.724
 7270SOL    HW123744   3.202   0.811   7.784
 7270SOL    HW223745   3.214   0.865   7.631
 7271SOL     OW23746   3.595   1.703   8.601
 7271SOL    HW123747   3.669   1.738   8.543
 7271SOL    HW223748   3.570   1.611   8.570
 7272SOL     OW23749   3.139   1.733   8.497
 7272SOL    HW123750   3.223   1.786   8.500
 7272SOL    HW223751   3.157   1.640   8.529
 7273SOL     OW23752   2.006   1.176   8.483
 7273SOL    HW123753   1.979   1.212   8.572
 7273SOL    HW223754   1.927   1.133   8.439
 7274SOL     OW23755   2.569   1.774   9.268
 7274SOL    HW123756   2.486   1.824   9.242
 7274SOL    HW223757   2.626   1.760   9.187
 7275SOL     OW23758   3.264   1.591   7.945
 7275SOL    HW123759   3.325   1.626   7.874
 7275SOL    HW223760   3.199   1.662   7.971
 7276SOL     OW23761   2.022   1.792   9.295
 7276SOL    HW123762   1.965   1.726   9.344
 7276SOL    HW223763   2.062   1.856   9.361
 7277SOL     OW23764   3.129   0.964   8.073
 7277SOL    HW123765   3.202   0.901   8.098
 7277SOL    HW223766   3.168   1.047   8.034
 7278SOL     OW23767   2.626   1.278   8.866
 7278SOL    HW123768   2.613   1.331   8.951
 7278SOL    HW223769   2.547   1.290   8.807
 7279SOL     OW23770   2.537   1.656   7.589
 7279SOL    HW123771   2.557   1.658   7.491
 7279SOL    HW223772   2.483   1.574   7.610
 7280SOL     OW23773   3.469   1.715   8.853
 7280SOL    HW123774   3.507   1.709   8.761
 7280SOL    HW223775   3.511   1.793   8.901
 7281SOL     OW23776   3.698   0.164   8.464
 7281SOL    HW123777   3.695   0.065   8.457
 7281SOL    HW223778   3.627   0.204   8.407
 7282SOL     OW23779   2.106   0.318   8.166
 7282SOL    HW123780   2.022   0.366   8.142
 7282SOL    HW223781   2.111   0.305   8.265
 7283SOL     OW23782   3.100   1.523   7.483
 7283SOL    HW123783   3.104   1.430   7.519
 7283SOL    HW223784   3.038   1.525   7.405
 7284SOL     OW23785   2.659   1.009   8.831
 7284SOL    HW123786   2.694   0.993   8.739
 7284SOL    HW223787   2.648   1.107   8.847
 7285SOL     OW23788   2.811   0.892   7.695
 7285SOL    HW123789   2.878   0.949   7.648
 7285SOL    HW223790   2.859   0.824   7.752
 7286SOL     OW23791   3.360   1.628   7.512
 7286SOL    HW123792   3.267   1.592   7.502
 7286SOL    HW223793   3.403   1.635   7.422
 7287SOL     OW23794   2.279   1.244   8.945
 7287SOL    HW123795   2.315   1.268   8.856
 7287SOL    HW223796   2.183   1.215   8.936
 7288SOL     OW23797   3.449   1.287   8.722
 7288SOL    HW123798   3.505   1.260   8.800
 7288SOL    HW223799   3.382   1.356   8.751
 7289SOL     OW23800   2.938   1.135   8.187
 7289SOL    HW123801   2.861   1.086   8.227
 7289SOL    HW223802   3.000   1.070   8.144
 7290SOL     OW23803   2.935   0.259   8.428
 7290SOL    HW123804   2.871   0.222   8.361
 7290SOL    HW223805   2.978   0.184   8.479
 7291SOL     OW23806   2.494   1.457   7.937
 7291SOL    HW123807   2.548   1.402   7.874
 7291SOL    HW223808   2.401   1.469   7.901
 7292SOL     OW23809   3.698   0.336   8.907
 7292SOL    HW123810   3.740   0.421   8.877
 7292SOL    HW223811   3.649   0.294   8.831
 7293SOL     OW23812   2.128   1.335   7.702
 7293SOL    HW123813   2.031   1.318   7.684
 7293SOL    HW223814   2.137   1.388   7.787
 7294SOL     OW23815   2.017   1.046   9.213
 7294SOL    HW123816   1.937   1.017   9.265
 7294SOL    HW223817   2.095   0.988   9.237
 7295SOL     OW23818   2.531   0.217   9.022
 7295SOL    HW123819   2.594   0.189   8.949
 7295SOL    HW223820   2.582   0.228   9.108
 7296SOL     OW23821   3.248   0.869   8.804
 7296SOL    HW123822   3.191   0.929   8.747
 7296SOL    HW223823   3.341   0.869   8.768
 7297SOL     OW23824   1.826   0.101   7.697
 7297SOL    HW123825   1.754   0.054   7.646
 7297SOL    HW223826   1.911   0.102   7.643
 7298SOL     OW23827   3.115   1.272   7.600
 7298SOL    HW123828   3.060   1.189   7.586
 7298SOL    HW223829   3.117   1.293   7.698
 7299SOL     OW23830   2.507   0.798   8.913
 7299SOL    HW123831   2.554   0.883   8.892
 7299SOL    HW223832   2.573   0.723   8.916
 7300SOL     OW23833   3.380   1.867   8.508
 7300SOL    HW123834   3.417   1.924   8.435
 7300SOL    HW223835   3.454   1.811   8.547
 7301SOL     OW23836   2.589   0.519   9.182
 7301SOL    HW123837   2.654   0.587   9.216
 7301SOL    HW223838   2.606   0.431   9.227
 7302SOL     OW23839   3.320   1.189   9.058
 7302SOL    HW123840   3.313   1.214   9.155
 7302SOL    HW223841   3.411   1.212   9.024
 7303SOL     OW23842   2.232   1.765   9.031
 7303SOL    HW123843   2.143   1.809   9.015
 7303SOL    HW223844   2.217   1.672   9.066
 7304SOL     OW23845   3.494   0.871   8.686
 7304SOL    HW123846   3.494   0.782   8.639
 7304SOL    HW223847   3.487   0.944   8.618
 7305SOL     OW23848   3.151   0.331   7.891
 7305SOL    HW123849   3.242   0.290   7.886
 7305SOL    HW223850   3.145   0.389   7.972
 7306SOL     OW23851   2.466   0.691   8.149
 7306SOL    HW123852   2.517   0.774   8.131
 7306SOL    HW223853   2.386   0.687   8.090
 7307SOL     OW23854   3.588   0.358   9.154
 7307SOL    HW123855   3.626   0.349   9.062
 7307SOL    HW223856   3.502   0.306   9.159
 7308SOL     OW23857   3.607   0.924   8.929
 7308SOL    HW123858   3.593   1.022   8.947
 7308SOL    HW223859   3.573   0.902   8.838
 7309SOL     OW23860   2.571   1.262   7.543
 7309SOL    HW123861   2.620   1.277   7.629
 7309SOL    HW223862   2.612   1.318   7.471
 7310SOL     OW23863   2.523   1.695   8.411
 7310SOL    HW123864   2.492   1.790   8.400
 7310SOL    HW223865   2.620   1.688   8.389
 7311SOL     OW23866   2.737   0.996   8.319
 7311SOL    HW123867   2.791   0.918   8.350
 7311SOL    HW223868   2.685   1.033   8.396
 7312SOL     OW23869   2.979   1.031   7.528
 7312SOL    HW123870   2.922   1.032   7.445
 7312SOL    HW223871   3.055   0.967   7.515
 7313SOL     OW23872   3.655   1.592   8.308
 7313SOL    HW123873   3.586   1.584   8.236
 7313SOL    HW223874   3.636   1.526   8.381
 7314SOL     OW23875   2.090   1.301   9.288
 7314SOL    HW123876   2.067   1.212   9.249
 7314SOL    HW223877   2.038   1.315   9.372
 7315SOL     OW23878   2.069   1.241   8.112
 7315SOL    HW123879   2.095   1.187   8.192
 7315SOL    HW223880   2.108   1.200   8.029
 7316SOL     OW23881   2.575   1.433   9.084
 7316SOL    HW123882   2.490   1.410   9.130
 7316SOL    HW223883   2.636   1.481   9.148
 7317SOL     OW23884   3.548   0.196   8.706
 7317SOL    HW123885   3.538   0.097   8.698
 7317SOL    HW223886   3.608   0.230   8.634
 7318SOL     OW23887   2.270   0.405   7.963
 7318SOL    HW123888   2.262   0.344   7.884
 7318SOL    HW223889   2.217   0.369   8.039
 7319SOL     OW23890   3.541   1.451   8.515
 7319SOL    HW123891   3.468   1.429   8.450
 7319SOL    HW223892   3.539   1.387   8.591
 7320SOL     OW23893   2.221   0.545   8.717
 7320SOL    HW123894   2.283   0.479   8.760
 7320SOL    HW223895   2.220   0.531   8.618
 7321SOL     OW23896   2.681   1.609   8.068
 7321SOL    HW123897   2.685   1.699   8.025
 7321SOL    HW223898   2.608   1.555   8.027
 7322SOL     OW23899   3.333   0.322   8.566
 7322SOL    HW123900   3.402   0.273   8.618
 7322SOL    HW223901   3.252   0.337   8.623
 7323SOL     OW23902   3.031   0.032   8.551
 7323SOL    HW123903   2.979   9.975   8.614
 7323SOL    HW223904   3.098   9.976   8.503
 7324SOL     OW23905   2.668   1.296   7.794
 7324SOL    HW123906   2.659   1.200   7.820
 7324SOL    HW223907   2.751   1.333   7.835
 7325SOL     OW23908   2.465   1.590   8.738
 7325SOL    HW123909   2.461   1.682   8.775
 7325SOL    HW223910   2.550   1.577   8.688
 7326SOL     OW23911   3.224   0.006   7.482
 7326SOL    HW123912   3.308   9.958   7.457
 7326SOL    HW223913   3.162   9.943   7.528
 7327SOL     OW23914   3.117   0.491   8.106
 7327SOL    HW123915   3.067   0.577   8.105
 7327SOL    HW223916   3.133   0.462   8.200
 7328SOL     OW23917   3.491   0.276   8.337
 7328SOL    HW123918   3.422   0.290   8.408
 7328SOL    HW223919   3.483   0.348   8.268
 7329SOL     OW23920   1.891   1.016   7.771
 7329SOL    HW123921   1.988   1.002   7.753
 7329SOL    HW223922   1.847   0.928   7.787
 7330SOL     OW23923   2.766   1.673   7.749
 7330SOL    HW123924   2.687   1.660   7.689
 7330SOL    HW223925   2.743   1.742   7.819
 7331SOL     OW23926   2.102   0.671   9.451
 7331SOL    HW123927   2.010   0.637   9.471
 7331SOL    HW223928   2.111   0.689   9.353
 7332SOL     OW23929   3.675   0.652   9.503
 7332SOL    HW123930   3.614   0.628   9.428
 7332SOL    HW223931   3.758   0.595   9.498
 7333SOL     OW23932   2.103   1.747   9.781
 7333SOL    HW123933   2.115   1.802   9.863
 7333SOL    HW223934   2.174   1.769   9.715
 7334SOL     OW23935   2.202   1.496   9.818
 7334SOL    HW123936   2.157   1.585   9.808
 7334SOL    HW223937   2.144   1.435   9.871
 7335SOL     OW23938   2.433   0.993   9.460
 7335SOL    HW123939   2.481   1.036   9.383
 7335SOL    HW223940   2.474   1.024   9.546
 7336SOL     OW23941   2.020   0.723   9.834
 7336SOL    HW123942   2.002   0.626   9.848
 7336SOL    HW223943   1.983   0.775   9.911
 7337SOL     OW23944   3.640   1.796   9.624
 7337SOL    HW123945   3.704   1.768   9.696
 7337SOL    HW223946   3.676   1.877   9.578
 7338SOL     OW23947   1.894   1.614   9.444
 7338SOL    HW123948   1.832   1.536   9.443
 7338SOL    HW223949   1.882   1.664   9.530
 7339SOL     OW23950   3.557   0.849   9.857
 7339SOL    HW123951   3.626   0.849   9.929
 7339SOL    HW223952   3.549   0.941   9.818
 7340SOL     OW23953   3.560   1.109   9.748
 7340SOL    HW123954   3.654   1.122   9.718
 7340SOL    HW223955   3.532   1.186   9.805
 7341SOL     OW23956   2.514   1.179   9.917
 7341SOL    HW123957   2.442   1.149   9.980
 7341SOL    HW223958   2.498   1.273   9.890
 7342SOL     OW23959   2.611   0.022   9.772
 7342SOL    HW123960   2.674   0.098   9.754
 7342SOL    HW223961   2.521   0.058   9.796
 7343SOL     OW23962   3.422   1.051   9.511
 7343SOL    HW123963   3.339   0.998   9.528
 7343SOL    HW223964   3.469   1.069   9.598
 7344SOL     OW23965   2.465   0.693   9.605
 7344SOL    HW123966   2.465   0.783   9.562
 7344SOL    HW223967   2.402   0.694   9.683
 7345SOL     OW23968   3.406   1.654   9.633
 7345SOL    HW123969   3.491   1.705   9.642
 7345SOL    HW223970   3.378   1.652   9.537
 7346SOL     OW23971   2.914   0.705   9.674
 7346SOL    HW123972   2.963   0.704   9.761
 7346SOL    HW223973   2.829   0.653   9.683
 7347SOL     OW23974   1.903   0.829   0.060
 7347SOL    HW123975   1.926   0.740   0.099
 7347SOL    HW223976   1.916   0.901   0.129
 7348SOL     OW23977   2.740   0.371   9.491
 7348SOL    HW123978   2.812   0.420   9.443
 7348SOL    HW223979   2.690   0.314   9.426
 7349SOL     OW23980   2.848   1.464   9.782
 7349SOL    HW123981   2.809   1.550   9.748
 7349SOL    HW223982   2.871   1.473   9.879
 7350SOL     OW23983   2.289   1.779   0.204
 7350SOL    HW123984   2.304   1.681   0.201
 7350SOL    HW223985   2.374   1.826   0.182
 7351SOL     OW23986   2.184   0.921   9.587
 7351SOL    HW123987   2.265   0.953   9.537
 7351SOL    HW223988   2.153   0.835   9.548
 7352SOL     OW23989   2.995   1.760   9.601
 7352SOL    HW123990   2.900   1.745   9.630
 7352SOL    HW223991   3.018   1.696   9.527
 7353SOL     OW23992   3.492   1.426   9.393
 7353SOL    HW123993   3.431   1.506   9.394
 7353SOL    HW223994   3.441   1.345   9.365
 7354SOL     OW23995   2.322   1.818   9.631
 7354SOL    HW123996   2.367   1.855   9.712
 7354SOL    HW223997   2.385   1.757   9.583
 7355SOL     OW23998   3.275   0.175   9.804
 7355SOL    HW123999   3.263   0.110   9.729
 7355SOL    HW224000   3.339   0.247   9.775
 7356SOL     OW24001   2.295   0.666   9.819
 7356SOL    HW124002   2.287   0.569   9.843
 7356SOL    HW224003   2.203   0.707   9.813
 7357SOL     OW24004   2.467   0.070   9.404
 7357SOL    HW124005   2.486   9.986   9.454
 7357SOL    HW224006   2.414   0.049   9.322
 7358SOL     OW24007   2.359   0.134   9.837
 7358SOL    HW124008   2.274   0.088   9.865
 7358SOL    HW224009   2.348   0.171   9.745
 7359SOL     OW24010   3.304   1.228   9.334
 7359SOL    HW124011   3.344   1.160   9.395
 7359SOL    HW224012   3.212   1.251   9.365
 7360SOL     OW24013   2.116   0.072   9.556
 7360SOL    HW124014   2.196   0.131   9.565
 7360SOL    HW224015   2.125   9.994   9.617
 7361SOL     OW24016   2.799   0.209   9.707
 7361SOL    HW124017   2.771   0.264   9.628
 7361SOL    HW224018   2.887   0.242   9.741
 7362SOL     OW24019   2.286   1.122   0.063
 7362SOL    HW124020   2.234   1.192   0.112
 7362SOL    HW224021   2.248   1.112   9.971
 7363SOL     OW24022   3.132   1.858   9.829
 7363SOL    HW124023   3.196   1.925   9.790
 7363SOL    HW224024   3.068   1.828   9.758
 7364SOL     OW24025   2.924   0.501   9.333
 7364SOL    HW124026   2.879   0.584   9.302
 7364SOL    HW224027   2.986   0.522   9.409
 7365SOL     OW24028   2.695   0.537   9.969
 7365SOL    HW124029   2.627   0.606   9.997
 7365SOL    HW224030   2.695   0.529   9.870
 7366SOL     OW24031   3.852   0.862   9.565
 7366SOL    HW124032   3.867   0.824   9.656
 7366SOL    HW224033   3.768   0.824   9.526
 7367SOL     OW24034   2.383   1.433   9.451
 7367SOL    HW124035   2.318   1.385   9.510
 7367SOL    HW224036   2.379   1.394   9.359
 7368SOL     OW24037   3.248   0.602   9.360
 7368SOL    HW124038   3.206   0.568   9.445
 7368SOL    HW224039   3.347   0.595   9.366
 7369SOL     OW24040   2.337   0.230   9.583
 7369SOL    HW124041   2.393   0.181   9.517
 7369SOL    HW224042   2.326   0.325   9.554
 7370SOL     OW24043   2.578   1.083   9.672
 7370SOL    HW124044   2.560   1.099   9.769
 7370SOL    HW224045   2.663   1.031   9.662
 7371SOL     OW24046   2.197   1.108   9.799
 7371SOL    HW124047   2.211   1.182   9.732
 7371SOL    HW224048   2.192   1.020   9.751
 7372SOL     OW24049   3.087   1.413   9.663
 7372SOL    HW124050   3.149   1.472   9.712
 7372SOL    HW224051   2.995   1.420   9.702
 7373SOL     OW24052   3.494   0.624   9.707
 7373SOL    HW124053   3.500   0.700   9.772
 7373SOL    HW224054   3.560   0.638   9.634
 7374SOL     OW24055   3.074   0.517   9.560
 7374SOL    HW124056   3.076   0.444   9.628
 7374SOL    HW224057   3.027   0.597   9.599
 7375SOL     OW24058   2.103   0.051   9.946
 7375SOL    HW124059   2.051   0.136   9.952
 7375SOL    HW224060   2.136   0.026   0.037
 7376SOL     OW24061   3.449   0.356   9.687
 7376SOL    HW124062   3.542   0.323   9.704
 7376SOL    HW224063   3.447   0.455   9.699
 7377SOL     OW24064   3.314   0.249   9.462
 7377SOL    HW124065   3.295   0.160   9.501
 7377SOL    HW224066   3.365   0.304   9.529
 7378SOL     OW24067   3.127   0.836   9.294
 7378SOL    HW124068   3.169   0.747   9.314
 7378SOL    HW224069   3.164   0.872   9.208
 7379SOL     OW24070   1.935   1.294   9.512
 7379SOL    HW124071   1.847   1.335   9.488
 7379SOL    HW224072   1.920   1.203   9.549
 7380SOL     OW24073   2.687   0.555   9.689
 7380SOL    HW124074   2.700   0.481   9.623
 7380SOL    HW224075   2.607   0.609   9.663
 7381SOL     OW24076   2.312   0.488   9.488
 7381SOL    HW124077   2.384   0.548   9.522
 7381SOL    HW224078   2.227   0.541   9.477
 7382SOL     OW24079   3.186   0.924   9.545
 7382SOL    HW124080   3.114   0.891   9.606
 7382SOL    HW224081   3.164   0.897   9.451
 7383SOL     OW24082   3.706   0.262   9.737
 7383SOL    HW124083   3.754   0.256   9.650
 7383SOL    HW224084   3.699   0.171   9.778
 7384SOL     OW24085   3.223   1.599   9.824
 7384SOL    HW124086   3.301   1.604   9.763
 7384SOL    HW224087   3.185   1.691   9.837
 7385SOL     OW24088   2.519   1.661   9.510
 7385SOL    HW124089   2.544   1.697   9.421
 7385SOL    HW224090   2.474   1.572   9.499
 7386SOL     OW24091   3.604   0.131   0.285
 7386SOL    HW124092   3.611   0.051   0.225
 7386SOL    HW224093   3.572   0.209   0.231
 7387SOL     OW24094   3.047   1.599   9.380
 7387SOL    HW124095   3.048   1.501   9.398
 7387SOL    HW224096   2.974   1.620   9.315
 7388SOL     OW24097   2.805   0.948   9.617
 7388SOL    HW124098   2.831   0.962   9.521
 7388SOL    HW224099   2.842   0.861   9.649
 7389SOL     OW24100   3.319   1.650   9.367
 7389SOL    HW124101   3.222   1.629   9.359
 7389SOL    HW224102   3.361   1.650   9.276
 7390SOL     OW24103   2.468   1.440   9.835
 7390SOL    HW124104   2.512   1.426   9.747
 7390SOL    HW224105   2.372   1.465   9.821
 7391SOL     OW24106   2.190   1.318   9.615
 7391SOL    HW124107   2.098   1.314   9.576
 7391SOL    HW224108   2.193   1.391   9.683
 7392SOL     OW24109   1.971   0.420   9.257
 7392SOL    HW124110   1.874   0.444   9.255
 7392SOL    HW224111   2.026   0.498   9.229
 7393SOL     OW24112   1.934   0.267   9.501
 7393SOL    HW124113   1.950   0.319   9.417
 7393SOL    HW224114   1.999   0.192   9.508
 7394SOL     OW24115   3.039   1.321   9.414
 7394SOL    HW124116   2.943   1.296   9.412
 7394SOL    HW224117   3.066   1.341   9.509
 7395SOL     OW24118   3.045   0.336   9.775
 7395SOL    HW124119   3.124   0.278   9.794
 7395SOL    HW224120   3.023   0.390   9.857
 7396SOL     OW24121   2.494   0.719   0.008
 7396SOL    HW124122   2.469   0.795   0.069
 7396SOL    HW224123   2.423   0.708   9.938
 7397SOL     OW24124   2.748   1.343   9.389
 7397SOL    HW124125   2.703   1.359   9.477
 7397SOL    HW224126   2.761   1.430   9.342
 7398SOL     OW24127   2.889   0.947   9.359
 7398SOL    HW124128   2.866   1.020   9.294
 7398SOL    HW224129   2.977   0.908   9.335
 7399SOL     OW24130   2.053   1.304   9.931
 7399SOL    HW124131   1.985   1.279   0.000
 7399SOL    HW224132   2.083   1.223   9.882
 7400SOL     OW24133   2.258   0.406   9.912
 7400SOL    HW124134   2.315   0.325   9.898
 7400SOL    HW224135   2.259   0.430   0.009
 7401SOL     OW24136   2.642   1.349   9.639
 7401SOL    HW124137   2.619   1.252   9.645
 7401SOL    HW224138   2.722   1.369   9.696
 7402SOL     OW24139   3.269   0.006   9.583
 7402SOL    HW124140   3.342   9.958   9.535
 7402SOL    HW224141   3.184   9.953   9.576
 7403SOL     OW24142   1.931   1.047   9.627
 7403SOL    HW124143   2.028   1.027   9.614
 7403SOL    HW224144   1.878   0.962   9.621
 7404SOL     OW24145   2.736   1.694   9.685
 7404SOL    HW124146   2.661   1.674   9.622
 7404SOL    HW224147   2.708   1.767   9.747
 7405SOL     OW24148   2.048   2.434   0.113
 7405SOL    HW124149   1.954   2.417   0.142
 7405SOL    HW224150   2.048   2.481   0.025
 7406SOL     OW24151   2.057   2.169   1.031
 7406SOL    HW124152   2.111   2.123   1.102
 7406SOL    HW224153   1.959   2.151   1.047
 7407SOL     OW24154   2.433   3.186   1.242
 7407SOL    HW124155   2.345   3.175   1.195
 7407SOL    HW224156   2.448   3.283   1.261
 7408SOL     OW24157   3.440   3.388   0.689
 7408SOL    HW124158   3.381   3.363   0.766
 7408SOL    HW224159   3.384   3.405   0.608
 7409SOL     OW24160   2.977   2.555   0.641
 7409SOL    HW124161   3.024   2.643   0.647
 7409SOL    HW224162   2.891   2.561   0.692
 7410SOL     OW24163   3.498   2.503   0.257
 7410SOL    HW124164   3.423   2.517   0.192
 7410SOL    HW224165   3.514   2.405   0.269
 7411SOL     OW24166   2.560   3.003   1.069
 7411SOL    HW124167   2.509   3.038   1.148
 7411SOL    HW224168   2.602   3.078   1.020
 7412SOL     OW24169   2.767   2.575   1.783
 7412SOL    HW124170   2.784   2.642   1.855
 7412SOL    HW224171   2.782   2.616   1.694
 7413SOL     OW24172   2.540   2.817   0.656
 7413SOL    HW124173   2.615   2.832   0.721
 7413SOL    HW224174   2.460   2.869   0.684
 7414SOL     OW24175   2.566   3.009   1.814
 7414SOL    HW124176   2.614   3.086   1.857
 7414SOL    HW224177   2.487   3.044   1.762
 7415SOL     OW24178   2.212   3.218   1.075
 7415SOL    HW124179   2.177   3.137   1.027
 7415SOL    HW224180   2.253   3.281   1.010
 7416SOL     OW24181   3.261   3.388   1.389
 7416SOL    HW124182   3.331   3.457   1.403
 7416SOL    HW224183   3.184   3.406   1.450
 7417SOL     OW24184   2.344   2.258   1.424
 7417SOL    HW124185   2.424   2.199   1.426
 7417SOL    HW224186   2.267   2.211   1.467
 7418SOL     OW24187   3.469   2.307   0.743
 7418SOL    HW124188   3.437   2.342   0.655
 7418SOL    HW224189   3.436   2.366   0.817
 7419SOL     OW24190   2.127   3.537   0.476
 7419SOL    HW124191   2.122   3.619   0.533
 7419SOL    HW224192   2.219   3.527   0.440
 7420SOL     OW24193   2.977   3.184   1.695
 7420SOL    HW124194   3.068   3.155   1.725
 7420SOL    HW224195   2.916   3.105   1.692
 7421SOL     OW24196   2.094   3.262   0.505
 7421SOL    HW124197   2.104   3.362   0.500
 7421SOL    HW224198   2.049   3.238   0.591
 7422SOL     OW24199   2.118   2.964   0.984
 7422SOL    HW124200   2.132   2.869   0.955
 7422SOL    HW224201   2.084   2.966   1.078
 7423SOL     OW24202   2.428   3.705   1.396
 7423SOL    HW124203   2.355   3.677   1.458
 7423SOL    HW224204   2.482   3.778   1.440
 7424SOL     OW24205   2.411   2.836   0.202
 7424SOL    HW124206   2.373   2.912   0.150
 7424SOL    HW224207   2.482   2.870   0.263
 7425SOL     OW24208   3.429   2.001   1.493
 7425SOL    HW124209   3.500   2.062   1.459
 7425SOL    HW224210   3.398   2.032   1.583
 7426SOL     OW24211   1.978   2.604   0.539
 7426SOL    HW124212   1.906   2.537   0.558
 7426SOL    HW224213   1.980   2.672   0.611
 7427SOL     OW24214   3.754   3.572   0.321
 7427SOL    HW124215   3.832   3.556   0.380
 7427SOL    HW224216   3.755   3.666   0.287
 7428SOL     OW24217   1.921   3.424   0.087
 7428SOL    HW124218   1.891   3.330   0.108
 7428SOL    HW224219   1.911   3.481   0.169
 7429SOL     OW24220   3.548   2.791   0.677
 7429SOL    HW124221   3.638   2.748   0.665
 7429SOL    HW224222   3.530   2.852   0.600
 7430SOL     OW24223   3.503   2.974   0.474
 7430SOL    HW124224   3.575   2.960   0.406
 7430SOL    HW224225   3.531   3.046   0.537
 7431SOL     OW24226   2.072   2.597   1.598
 7431SOL    HW124227   2.172   2.601   1.604
 7431SOL    HW224228   2.033   2.683   1.628
 7432SOL     OW24229   2.469   3.211   0.757
 7432SOL    HW124230   2.426   3.121   0.746
 7432SOL    HW224231   2.487   3.249   0.666
 7433SOL     OW24232   3.110   3.137   1.399
 7433SOL    HW124233   3.130   3.055   1.345
 7433SOL    HW224234   3.191   3.196   1.403
 7434SOL     OW24235   2.712   1.941   0.465
 7434SOL    HW124236   2.750   2.033   0.454
 7434SOL    HW224237   2.615   1.948   0.488
 7435SOL     OW24238   2.042   2.866   1.249
 7435SOL    HW124239   2.129   2.816   1.256
 7435SOL    HW224240   1.967   2.801   1.235
 7436SOL     OW24241   3.349   2.882   0.259
 7436SOL    HW124242   3.285   2.810   0.284
 7436SOL    HW224243   3.401   2.911   0.339
 7437SOL     OW24244   3.038   3.669   1.638
 7437SOL    HW124245   3.041   3.736   1.565
 7437SOL    HW224246   3.036   3.577   1.599
 7438SOL     OW24247   2.191   2.143   1.935
 7438SOL    HW124248   2.225   2.221   1.988
 7438SOL    HW224249   2.098   2.163   1.903
 7439SOL     OW24250   3.277   3.313   0.897
 7439SOL    HW124251   3.233   3.338   0.984
 7439SOL    HW224252   3.265   3.215   0.882
 7440SOL     OW24253   3.483   3.728   0.495
 7440SOL    HW124254   3.485   3.656   0.426
 7440SOL    HW224255   3.489   3.687   0.586
 7441SOL     OW24256   2.417   2.560   0.275
 7441SOL    HW124257   2.420   2.656   0.245
 7441SOL    HW224258   2.351   2.551   0.349
 7442SOL     OW24259   3.163   2.254   0.956
 7442SOL    HW124260   3.075   2.207   0.951
 7442SOL    HW224261   3.217   2.215   1.031
 7443SOL     OW24262   3.479   3.526   0.313
 7443SOL    HW124263   3.579   3.526   0.313
 7443SOL    HW224264   3.445   3.495   0.224
 7444SOL     OW24265   2.569   2.507   1.404
 7444SOL    HW124266   2.566   2.471   1.498
 7444SOL    HW224267   2.566   2.431   1.339
 7445SOL     OW24268   3.220   2.305   1.679
 7445SOL    HW124269   3.222   2.362   1.761
 7445SOL    HW224270   3.280   2.226   1.693
 7446SOL     OW24271   2.811   2.717   1.553
 7446SOL    HW124272   2.861   2.648   1.501
 7446SOL    HW224273   2.760   2.776   1.491
 7447SOL     OW24274   2.838   2.280   1.302
 7447SOL    HW124275   2.754   2.312   1.259
 7447SOL    HW224276   2.832   2.181   1.317
 7448SOL     OW24277   2.916   2.556   0.371
 7448SOL    HW124278   2.937   2.546   0.468
 7448SOL    HW224279   2.825   2.519   0.353
 7449SOL     OW24280   1.948   2.760   0.768
 7449SOL    HW124281   2.028   2.736   0.823
 7449SOL    HW224282   1.883   2.811   0.824
 7450SOL     OW24283   1.982   3.734   1.584
 7450SOL    HW124284   1.985   3.701   1.679
 7450SOL    HW224285   1.892   3.716   1.545
 7451SOL     OW24286   2.728   2.206   0.173
 7451SOL    HW124287   2.716   2.250   0.084
 7451SOL    HW224288   2.745   2.108   0.160
 7452SOL     OW24289   3.506   2.425   1.837
 7452SOL    HW124290   3.461   2.487   1.773
 7452SOL    HW224291   3.545   2.348   1.785
 7453SOL     OW24292   3.246   3.021   0.581
 7453SOL    HW124293   3.335   3.007   0.537
 7453SOL    HW224294   3.194   3.090   0.530
 7454SOL     OW24295   2.414   2.088   0.904
 7454SOL    HW124296   2.428   2.091   1.003
 7454SOL    HW224297   2.398   2.181   0.869
 7455SOL     OW24298   2.864   3.336   0.488
 7455SOL    HW124299   2.836   3.410   0.427
 7455SOL    HW224300   2.840   3.359   0.582
 7456SOL     OW24301   2.210   3.637   0.875
 7456SOL    HW124302   2.247   3.544   0.882
 7456SOL    HW224303   2.279   3.703   0.903
 7457SOL     OW24304   3.638   2.900   0.916
 7457SOL    HW124305   3.597   2.878   0.828
 7457SOL    HW224306   3.566   2.918   0.983
 7458SOL     OW24307   3.024   3.409   1.528
 7458SOL    HW124308   3.020   3.329   1.588
 7458SOL    HW224309   2.958   3.398   1.453
 7459SOL     OW24310   2.164   2.823   0.326
 7459SOL    HW124311   2.252   2.829   0.279
 7459SOL    HW224312   2.123   2.733   0.310
 7460SOL     OW24313   3.333   2.629   0.718
 7460SOL    HW124314   3.341   2.573   0.800
 7460SOL    HW224315   3.413   2.688   0.709
 7461SOL     OW24316   2.349   3.136   1.695
 7461SOL    HW124317   2.307   3.141   1.605
 7461SOL    HW224318   2.278   3.146   1.765
 7462SOL     OW24319   2.954   3.614   0.170
 7462SOL    HW124320   2.891   3.583   0.242
 7462SOL    HW224321   3.003   3.535   0.133
 7463SOL     OW24322   2.103   2.141   1.498
 7463SOL    HW124323   2.051   2.226   1.496
 7463SOL    HW224324   2.048   2.070   1.543
 7464SOL     OW24325   3.473   3.187   9.984
 7464SOL    HW124326   3.447   3.280   0.012
 7464SOL    HW224327   3.396   3.125   0.000
 7465SOL     OW24328   2.397   3.547   0.417
 7465SOL    HW124329   2.404   3.642   0.447
 7465SOL    HW224330   2.448   3.535   0.332
 7466SOL     OW24331   3.245   1.966   0.381
 7466SOL    HW124332   3.236   1.953   0.282
 7466SOL    HW224333   3.342   1.958   0.407
 7467SOL     OW24334   2.078   3.674   1.201
 7467SOL    HW124335   2.124   3.591   1.234
 7467SOL    HW224336   2.040   3.657   1.110
 7468SOL     OW24337   2.817   3.570   0.886
 7468SOL    HW124338   2.904   3.520   0.883
 7468SOL    HW224339   2.758   3.538   0.811
 7469SOL     OW24340   2.231   2.511   0.476
 7469SOL    HW124341   2.223   2.412   0.483
 7469SOL    HW224342   2.143   2.554   0.496
 7470SOL     OW24343   3.355   2.072   1.753
 7470SOL    HW124344   3.363   2.105   1.847
 7470SOL    HW224345   3.300   1.988   1.752
 7471SOL     OW24346   2.492   1.945   0.131
 7471SOL    HW124347   2.592   1.942   0.134
 7471SOL    HW224348   2.462   1.960   0.037
 7472SOL     OW24349   2.591   2.152   1.680
 7472SOL    HW124350   2.670   2.102   1.714
 7472SOL    HW224351   2.507   2.113   1.720
 7473SOL     OW24352   2.689   3.387   1.171
 7473SOL    HW124353   2.674   3.331   1.089
 7473SOL    HW224354   2.760   3.344   1.228
 7474SOL     OW24355   3.194   2.470   1.459
 7474SOL    HW124356   3.215   2.422   1.544
 7474SOL    HW224357   3.230   2.563   1.464
 7475SOL     OW24358   2.662   3.223   0.949
 7475SOL    HW124359   2.752   3.230   0.907
 7475SOL    HW224360   2.592   3.228   0.878
 7476SOL     OW24361   2.446   1.981   0.521
 7476SOL    HW124362   2.417   2.017   0.609
 7476SOL    HW224363   2.417   2.042   0.447
 7477SOL     OW24364   3.268   3.026   0.045
 7477SOL    HW124365   3.305   2.963   0.113
 7477SOL    HW224366   3.192   3.078   0.085
 7478SOL     OW24367   2.818   2.191   0.433
 7478SOL    HW124368   2.788   2.207   0.339
 7478SOL    HW224369   2.918   2.191   0.437
 7479SOL     OW24370   2.932   2.520   1.402
 7479SOL    HW124371   2.894   2.431   1.376
 7479SOL    HW224372   3.029   2.510   1.423
 7480SOL     OW24373   3.058   3.447   0.773
 7480SOL    HW124374   3.075   3.517   0.705
 7480SOL    HW224375   3.145   3.415   0.811
 7481SOL     OW24376   2.331   2.973   0.748
 7481SOL    HW124377   2.278   2.970   0.833
 7481SOL    HW224378   2.269   2.975   0.670
 7482SOL     OW24379   3.101   3.659   0.594
 7482SOL    HW124380   3.145   3.721   0.529
 7482SOL    HW224381   3.028   3.708   0.641
 7483SOL     OW24382   2.985   2.349   9.951
 7483SOL    HW124383   2.887   2.328   9.950
 7483SOL    HW224384   3.016   2.357   0.045
 7484SOL     OW24385   2.004   2.401   1.413
 7484SOL    HW124386   2.089   2.409   1.361
 7484SOL    HW224387   2.003   2.469   1.486
 7485SOL     OW24388   2.433   2.098   1.177
 7485SOL    HW124389   2.487   2.071   1.257
 7485SOL    HW224390   2.336   2.082   1.196
 7486SOL     OW24391   2.698   2.367   0.622
 7486SOL    HW124392   2.623   2.418   0.581
 7486SOL    HW224393   2.738   2.306   0.553
 7487SOL     OW24394   2.893   1.808   0.615
 7487SOL    HW124395   2.836   1.867   0.558
 7487SOL    HW224396   2.857   1.805   0.708
 7488SOL     OW24397   3.237   3.046   0.862
 7488SOL    HW124398   3.145   3.013   0.879
 7488SOL    HW224399   3.260   3.034   0.766
 7489SOL     OW24400   3.347   2.466   0.936
 7489SOL    HW124401   3.275   2.400   0.956
 7489SOL    HW224402   3.400   2.484   1.020
 7490SOL     OW24403   3.716   2.656   0.324
 7490SOL    HW124404   3.747   2.619   0.411
 7490SOL    HW224405   3.635   2.607   0.293
 7491SOL     OW24406   2.283   3.417   0.131
 7491SOL    HW124407   2.215   3.359   0.175
 7491SOL    HW224408   2.335   3.363   0.064
 7492SOL     OW24409   3.587   3.156   0.648
 7492SOL    HW124410   3.681   3.158   0.681
 7492SOL    HW224411   3.544   3.245   0.663
 7493SOL     OW24412   3.284   2.435   0.086
 7493SOL    HW124413   3.201   2.419   0.141
 7493SOL    HW224414   3.324   2.347   0.061
 7494SOL     OW24415   2.372   2.131   0.303
 7494SOL    HW124416   2.416   2.061   0.246
 7494SOL    HW224417   2.347   2.209   0.246
 7495SOL     OW24418   2.867   3.243   1.335
 7495SOL    HW124419   2.786   3.208   1.381
 7495SOL    HW224420   2.949   3.200   1.373
 7496SOL     OW24421   3.443   3.514   1.684
 7496SOL    HW124422   3.427   3.553   1.593
 7496SOL    HW224423   3.523   3.454   1.681
 7497SOL     OW24424   2.991   3.152   1.106
 7497SOL    HW124425   2.930   3.183   1.179
 7497SOL    HW224426   2.952   3.176   1.017
 7498SOL     OW24427   3.428   2.962   1.079
 7498SOL    HW124428   3.442   3.038   1.142
 7498SOL    HW224429   3.354   2.985   1.016
 7499SOL     OW24430   2.811   2.010   1.333
 7499SOL    HW124431   2.837   1.964   1.247
 7499SOL    HW224432   2.882   1.995   1.401
 7500SOL     OW24433   2.819   2.954   1.708
 7500SOL    HW124434   2.724   2.972   1.735
 7500SOL    HW224435   2.821   2.874   1.647
 7501SOL     OW24436   2.602   2.914   0.392
 7501SOL    HW124437   2.582   2.877   0.483
 7501SOL    HW224438   2.686   2.874   0.356
 7502SOL     OW24439   2.268   2.713   1.264
 7502SOL    HW124440   2.330   2.737   1.339
 7502SOL    HW224441   2.249   2.615   1.267
 7503SOL     OW24442   3.117   2.229   1.340
 7503SOL    HW124443   3.155   2.311   1.382
 7503SOL    HW224444   3.023   2.248   1.310
 7504SOL     OW24445   1.921   3.448   1.357
 7504SOL    HW124446   1.867   3.497   1.288
 7504SOL    HW224447   2.014   3.435   1.323
 7505SOL     OW24448   2.161   2.993   0.541
 7505SOL    HW124449   2.152   3.085   0.504
 7505SOL    HW224450   2.163   2.926   0.466
 7506SOL     OW24451   2.373   2.360   0.832
 7506SOL    HW124452   2.392   2.402   0.744
 7506SOL    HW224453   2.430   2.403   0.902
 7507SOL     OW24454   3.112   3.224   0.444
 7507SOL    HW124455   3.176   3.300   0.454
 7507SOL    HW224456   3.019   3.257   0.463
 7508SOL     OW24457   3.170   3.358   1.138
 7508SOL    HW124458   3.209   3.367   1.229
 7508SOL    HW224459   3.106   3.281   1.136
 7509SOL     OW24460   3.401   2.445   0.515
 7509SOL    HW124461   3.356   2.510   0.576
 7509SOL    HW224462   3.427   2.491   0.430
 7510SOL     OW24463   2.179   3.416   1.262
 7510SOL    HW124464   2.174   3.342   1.194
 7510SOL    HW224465   2.275   3.439   1.280
 7511SOL     OW24466   2.341   2.610   1.663
 7511SOL    HW124467   2.375   2.676   1.596
 7511SOL    HW224468   2.409   2.538   1.677
 7512SOL     OW24469   3.389   2.599   1.668
 7512SOL    HW124470   3.330   2.677   1.685
 7512SOL    HW224471   3.463   2.626   1.606
 7513SOL     OW24472   2.792   1.985   1.777
 7513SOL    HW124473   2.867   2.050   1.772
 7513SOL    HW224474   2.822   1.897   1.740
 7514SOL     OW24475   2.378   2.023   1.788
 7514SOL    HW124476   2.332   1.951   1.735
 7514SOL    HW224477   2.310   2.075   1.839
 7515SOL     OW24478   2.419   2.757   1.038
 7515SOL    HW124479   2.471   2.843   1.041
 7515SOL    HW224480   2.368   2.746   1.123
 7516SOL     OW24481   3.092   2.724   1.035
 7516SOL    HW124482   2.998   2.701   1.009
 7516SOL    HW224483   3.155   2.668   0.981
 7517SOL     OW24484   3.057   2.371   0.222
 7517SOL    HW124485   3.076   2.299   0.288
 7517SOL    HW224486   3.003   2.443   0.265
 7518SOL     OW24487   2.174   2.050   1.249
 7518SOL    HW124488   2.147   2.086   1.338
 7518SOL    HW224489   2.158   1.951   1.247
 7519SOL     OW24490   2.527   2.500   1.001
 7519SOL    HW124491   2.609   2.489   0.944
 7519SOL    HW224492   2.503   2.597   1.007
 7520SOL     OW24493   3.473   2.238   0.339
 7520SOL    HW124494   3.553   2.186   0.370
 7520SOL    HW224495   3.434   2.288   0.416
 7521SOL     OW24496   2.827   2.653   0.979
 7521SOL    HW124497   2.799   2.652   1.074
 7521SOL    HW224498   2.803   2.566   0.935
 7522SOL     OW24499   2.836   3.402   1.784
 7522SOL    HW124500   2.805   3.464   1.712
 7522SOL    HW224501   2.877   3.321   1.743
 7523SOL     OW24502   3.670   3.362   1.644
 7523SOL    HW124503   3.731   3.382   1.568
 7523SOL    HW224504   3.717   3.379   1.731
 7524SOL     OW24505   2.248   2.778   1.870
 7524SOL    HW124506   2.326   2.811   1.923
 7524SOL    HW224507   2.280   2.717   1.798
 7525SOL     OW24508   3.370   2.162   0.100
 7525SOL    HW124509   3.297   2.093   0.105
 7525SOL    HW224510   3.399   2.186   0.193
 7526SOL     OW24511   3.173   2.683   0.023
 7526SOL    HW124512   3.217   2.593   0.029
 7526SOL    HW224513   3.193   2.724   9.934
 7527SOL     OW24514   2.912   3.229   0.853
 7527SOL    HW124515   2.940   3.141   0.814
 7527SOL    HW224516   2.966   3.303   0.812
 7528SOL     OW24517   2.170   2.697   0.927
 7528SOL    HW124518   2.266   2.717   0.947
 7528SOL    HW224519   2.150   2.601   0.947
 7529SOL     OW24520   2.155   2.416   0.990
 7529SOL    HW124521   2.108   2.329   1.003
 7529SOL    HW224522   2.230   2.404   0.925
 7530SOL     OW24523   2.982   2.181   1.729
 7530SOL    HW124524   2.936   2.239   1.795
 7530SOL    HW224525   3.068   2.224   1.701
 7531SOL     OW24526   3.016   2.014   1.514
 7531SOL    HW124527   2.998   2.071   1.594
 7531SOL    HW224528   3.078   2.062   1.452
 7532SOL     OW24529   1.871   3.154   0.150
 7532SOL    HW124530   1.777   3.180   0.130
 7532SOL    HW224531   1.872   3.070   0.205
 7533SOL     OW24532   1.950   3.626   0.958
 7533SOL    HW124533   1.896   3.554   0.914
 7533SOL    HW224534   2.041   3.630   0.918
 7534SOL     OW24535   2.340   3.394   0.910
 7534SOL    HW124536   2.411   3.457   0.941
 7534SOL    HW224537   2.380   3.327   0.847
 7535SOL     OW24538   2.752   2.637   1.235
 7535SOL    HW124539   2.834   2.609   1.285
 7535SOL    HW224540   2.671   2.604   1.284
 7536SOL     OW24541   1.913   2.483   1.157
 7536SOL    HW124542   1.991   2.477   1.095
 7536SOL    HW224543   1.942   2.465   1.251
 7537SOL     OW24544   2.101   2.429   1.810
 7537SOL    HW124545   2.201   2.418   1.811
 7537SOL    HW224546   2.075   2.489   1.734
 7538SOL     OW24547   3.234   2.824   1.692
 7538SOL    HW124548   3.224   2.917   1.726
 7538SOL    HW224549   3.224   2.824   1.592
 7539SOL     OW24550   2.671   2.449   0.314
 7539SOL    HW124551   2.677   2.363   0.263
 7539SOL    HW224552   2.582   2.491   0.299
 7540SOL     OW24553   3.512   2.505   1.161
 7540SOL    HW124554   3.487   2.437   1.230
 7540SOL    HW224555   3.611   2.507   1.151
 7541SOL     OW24556   2.133   3.417   1.717
 7541SOL    HW124557   2.100   3.490   1.777
 7541SOL    HW224558   2.143   3.333   1.770
 7542SOL     OW24559   2.585   2.327   1.199
 7542SOL    HW124560   2.529   2.246   1.187
 7542SOL    HW224561   2.565   2.393   1.127
 7543SOL     OW24562   2.722   3.565   1.562
 7543SOL    HW124563   2.667   3.499   1.510
 7543SOL    HW224564   2.753   3.638   1.502
 7544SOL     OW24565   2.302   2.344   0.146
 7544SOL    HW124566   2.355   2.421   0.182
 7544SOL    HW224567   2.206   2.369   0.140
 7545SOL     OW24568   1.975   3.001   1.490
 7545SOL    HW124569   1.991   2.938   1.566
 7545SOL    HW224570   1.995   2.954   1.403
 7546SOL     OW24571   3.110   2.927   1.214
 7546SOL    HW124572   3.109   2.849   1.152
 7546SOL    HW224573   3.067   3.005   1.169
 7547SOL     OW24574   3.163   2.687   0.298
 7547SOL    HW124575   3.080   2.644   0.334
 7547SOL    HW224576   3.163   2.682   0.198
 7548SOL     OW24577   3.615   3.556   1.191
 7548SOL    HW124578   3.689   3.592   1.133
 7548SOL    HW224579   3.572   3.479   1.145
 7549SOL     OW24580   3.133   3.633   1.112
 7549SOL    HW124581   3.226   3.671   1.107
 7549SOL    HW224582   3.139   3.533   1.122
 7550SOL     OW24583   2.544   3.579   1.770
 7550SOL    HW124584   2.478   3.654   1.760
 7550SOL    HW224585   2.617   3.590   1.703
 7551SOL     OW24586   2.767   1.939   0.094
 7551SOL    HW124587   2.743   1.921   9.999
 7551SOL    HW224588   2.849   1.888   0.119
 7552SOL     OW24589   3.683   2.086   0.431
 7552SOL    HW124590   3.760   2.048   0.380
 7552SOL    HW224591   3.618   2.014   0.454
 7553SOL     OW24592   3.270   3.450   0.484
 7553SOL    HW124593   3.335   3.480   0.414
 7553SOL    HW224594   3.209   3.525   0.507
 7554SOL     OW24595   2.014   3.634   1.837
 7554SOL    HW124596   1.956   3.568   1.885
 7554SOL    HW224597   2.058   3.693   1.904
 7555SOL     OW24598   3.122   2.788   0.663
 7555SOL    HW124599   3.198   2.726   0.683
 7555SOL    HW224600   3.157   2.870   0.617
 7556SOL     OW24601   2.627   3.161   1.435
 7556SOL    HW124602   2.604   3.217   1.514
 7556SOL    HW224603   2.553   3.164   1.368
 7557SOL     OW24604   2.542   3.492   0.194
 7557SOL    HW124605   2.605   3.429   0.148
 7557SOL    HW224606   2.448   3.473   0.163
 7558SOL     OW24607   3.448   3.595   1.414
 7558SOL    HW124608   3.512   3.579   1.340
 7558SOL    HW224609   3.444   3.693   1.434
 7559SOL     OW24610   3.692   2.016   1.000
 7559SOL    HW124611   3.705   1.920   0.975
 7559SOL    HW224612   3.605   2.047   0.963
 7560SOL     OW24613   2.110   2.108   0.756
 7560SOL    HW124614   2.160   2.176   0.702
 7560SOL    HW224615   2.106   2.138   0.851
 7561SOL     OW24616   3.100   3.398   0.074
 7561SOL    HW124617   3.077   3.306   0.107
 7561SOL    HW224618   3.117   3.394   9.976
 7562SOL     OW24619   2.676   2.896   1.397
 7562SOL    HW124620   2.706   2.885   1.302
 7562SOL    HW224621   2.665   2.993   1.418
 7563SOL     OW24622   2.828   2.811   0.293
 7563SOL    HW124623   2.878   2.842   0.212
 7563SOL    HW224624   2.861   2.720   0.319
 7564SOL     OW24625   3.375   3.439   0.071
 7564SOL    HW124626   3.278   3.427   0.091
 7564SOL    HW224627   3.385   3.482   9.981
 7565SOL     OW24628   2.194   3.172   1.475
 7565SOL    HW124629   2.176   3.257   1.425
 7565SOL    HW224630   2.110   3.117   1.479
 7566SOL     OW24631   3.508   3.162   1.251
 7566SOL    HW124632   3.607   3.147   1.247
 7566SOL    HW224633   3.481   3.179   1.346
 7567SOL     OW24634   2.967   2.968   0.801
 7567SOL    HW124635   2.874   2.937   0.821
 7567SOL    HW224636   3.015   2.897   0.750
 7568SOL     OW24637   2.524   3.331   0.521
 7568SOL    HW124638   2.566   3.279   0.447
 7568SOL    HW224639   2.464   3.401   0.483
 7569SOL     OW24640   3.653   2.164   1.437
 7569SOL    HW124641   3.721   2.236   1.420
 7569SOL    HW224642   3.670   2.087   1.376
 7570SOL     OW24643   2.126   3.208   0.235
 7570SOL    HW124644   2.035   3.195   0.197
 7570SOL    HW224645   2.119   3.227   0.333
 7571SOL     OW24646   2.010   2.837   1.716
 7571SOL    HW124647   1.926   2.843   1.771
 7571SOL    HW224648   2.089   2.835   1.777
 7572SOL     OW24649   2.564   2.075   1.424
 7572SOL    HW124650   2.653   2.048   1.386
 7572SOL    HW224651   2.577   2.111   1.517
 7573SOL     OW24652   2.010   2.312   9.806
 7573SOL    HW124653   1.983   2.242   9.740
 7573SOL    HW224654   2.107   2.303   9.828
 7574SOL     OW24655   3.239   2.781   1.417
 7574SOL    HW124656   3.173   2.827   1.357
 7574SOL    HW224657   3.326   2.771   1.370
 7575SOL     OW24658   3.062   3.145   0.178
 7575SOL    HW124659   3.014   3.058   0.166
 7575SOL    HW224660   3.078   3.160   0.276
 7576SOL     OW24661   2.456   2.743   1.455
 7576SOL    HW124662   2.525   2.815   1.447
 7576SOL    HW224663   2.498   2.655   1.435
 7577SOL     OW24664   3.391   3.730   1.093
 7577SOL    HW124665   3.427   3.776   1.012
 7577SOL    HW224666   3.465   3.681   1.139
 7578SOL     OW24667   2.557   2.430   1.671
 7578SOL    HW124668   2.629   2.477   1.721
 7578SOL    HW224669   2.570   2.331   1.678
 7579SOL     OW24670   2.235   3.631   1.574
 7579SOL    HW124671   2.145   3.673   1.560
 7579SOL    HW224672   2.223   3.540   1.613
 7580SOL     OW24673   3.469   2.760   1.268
 7580SOL    HW124674   3.482   2.672   1.222
 7580SOL    HW224675   3.455   2.831   1.200
 7581SOL     OW24676   3.092   2.193   0.430
 7581SOL    HW124677   3.148   2.111   0.419
 7581SOL    HW224678   3.112   2.236   0.518
 7582SOL     OW24679   2.456   2.543   0.630
 7582SOL    HW124680   2.489   2.637   0.638
 7582SOL    HW224681   2.375   2.540   0.572
 7583SOL     OW24682   3.601   2.201   1.704
 7583SOL    HW124683   3.623   2.189   1.607
 7583SOL    HW224684   3.523   2.143   1.728
 7584SOL     OW24685   3.585   2.705   1.517
 7584SOL    HW124686   3.599   2.782   1.579
 7584SOL    HW224687   3.552   2.739   1.428
 7585SOL     OW24688   2.691   3.287   0.087
 7585SOL    HW124689   2.602   3.261   0.048
 7585SOL    HW224690   2.702   3.242   0.176
 7586SOL     OW24691   2.529   3.576   0.962
 7586SOL    HW124692   2.501   3.671   0.948
 7586SOL    HW224693   2.628   3.571   0.970
 7587SOL     OW24694   2.715   2.870   0.868
 7587SOL    HW124695   2.758   2.789   0.908
 7587SOL    HW224696   2.659   2.916   0.937
 7588SOL     OW24697   2.983   2.887   0.076
 7588SOL    HW124698   2.961   2.919   9.984
 7588SOL    HW224699   3.052   2.814   0.071
 7589SOL     OW24700   3.647   3.462   0.855
 7589SOL    HW124701   3.589   3.448   0.775
 7589SOL    HW224702   3.610   3.412   0.933
 7590SOL     OW24703   2.131   3.178   1.856
 7590SOL    HW124704   2.044   3.134   1.835
 7590SOL    HW224705   2.140   3.188   1.955
 7591SOL     OW24706   2.008   3.101   0.744
 7591SOL    HW124707   2.024   3.063   0.835
 7591SOL    HW224708   2.050   3.042   0.675
 7592SOL     OW24709   2.540   3.324   1.635
 7592SOL    HW124710   2.468   3.261   1.663
 7592SOL    HW224711   2.538   3.405   1.694
 7593SOL     OW24712   3.683   1.957   1.268
 7593SOL    HW124713   3.644   1.865   1.264
 7593SOL    HW224714   3.694   1.992   1.175
 7594SOL     OW24715   2.204   2.239   0.500
 7594SOL    HW124716   2.271   2.204   0.434
 7594SOL    HW224717   2.115   2.196   0.484
 7595SOL     OW24718   3.504   3.349   1.057
 7595SOL    HW124719   3.423   3.340   1.000
 7595SOL    HW224720   3.501   3.280   1.130
 7596SOL     OW24721   2.226   2.443   1.264
 7596SOL    HW124722   2.284   2.379   1.314
 7596SOL    HW224723   2.227   2.420   1.167
 7597SOL     OW24724   2.687   3.510   0.658
 7597SOL    HW124725   2.677   3.596   0.609
 7597SOL    HW224726   2.624   3.442   0.619
 7598SOL     OW24727   3.301   2.137   1.155
 7598SOL    HW124728   3.322   2.040   1.165
 7598SOL    HW224729   3.241   2.167   1.229
 7599SOL     OW24730   2.882   1.885   1.099
 7599SOL    HW124731   2.815   1.812   1.092
 7599SOL    HW224732   2.974   1.847   1.098
 7600SOL     OW24733   2.676   3.181   0.343
 7600SOL    HW124734   2.651   3.085   0.359
 7600SOL    HW224735   2.756   3.204   0.398
 7601SOL     OW24736   2.452   3.461   1.279
 7601SOL    HW124737   2.448   3.552   1.319
 7601SOL    HW224738   2.538   3.449   1.231
 7602SOL     OW24739   3.183   1.940   0.104
 7602SOL    HW124740   3.186   1.922   0.006
 7602SOL    HW224741   3.106   1.890   0.145
 7603SOL     OW24742   3.124   2.317   0.671
 7603SOL    HW124743   3.076   2.404   0.663
 7603SOL    HW224744   3.144   2.298   0.767
 7604SOL     OW24745   3.448   2.088   0.917
 7604SOL    HW124746   3.393   2.124   0.992
 7604SOL    HW224747   3.450   2.154   0.842
 7605SOL     OW24748   1.906   2.923   0.291
 7605SOL    HW124749   2.006   2.921   0.301
 7605SOL    HW224750   1.872   2.830   0.278
 7606SOL     OW24751   2.759   3.554   0.351
 7606SOL    HW124752   2.680   3.535   0.293
 7606SOL    HW224753   2.741   3.633   0.408
 7607SOL     OW24754   2.044   2.500   2.066
 7607SOL    HW124755   1.949   2.474   2.082
 7607SOL    HW224756   2.066   2.487   1.970
 7608SOL     OW24757   2.054   2.163   2.871
 7608SOL    HW124758   2.097   2.140   2.959
 7608SOL    HW224759   1.966   2.116   2.863
 7609SOL     OW24760   1.871   2.273   2.495
 7609SOL    HW124761   1.788   2.292   2.548
 7609SOL    HW224762   1.849   2.212   2.419
 7610SOL     OW24763   2.431   3.160   3.081
 7610SOL    HW124764   2.342   3.152   3.037
 7610SOL    HW224765   2.446   3.255   3.109
 7611SOL     OW24766   3.463   3.360   2.542
 7611SOL    HW124767   3.410   3.348   2.626
 7611SOL    HW224768   3.400   3.380   2.466
 7612SOL     OW24769   2.980   2.595   2.552
 7612SOL    HW124770   3.044   2.671   2.542
 7612SOL    HW224771   2.919   2.612   2.630
 7613SOL     OW24772   3.642   2.462   2.065
 7613SOL    HW124773   3.599   2.461   1.974
 7613SOL    HW224774   3.600   2.392   2.123
 7614SOL     OW24775   2.585   2.983   2.920
 7614SOL    HW124776   2.523   3.017   2.991
 7614SOL    HW224777   2.621   3.060   2.867
 7615SOL     OW24778   2.678   2.577   3.638
 7615SOL    HW124779   2.631   2.634   3.706
 7615SOL    HW224780   2.714   2.635   3.565
 7616SOL     OW24781   2.570   2.841   2.518
 7616SOL    HW124782   2.638   2.844   2.591
 7616SOL    HW224783   2.495   2.905   2.538
 7617SOL     OW24784   2.552   3.016   3.683
 7617SOL    HW124785   2.589   3.093   3.735
 7617SOL    HW224786   2.476   3.048   3.626
 7618SOL     OW24787   2.194   3.233   2.941
 7618SOL    HW124788   2.119   3.177   2.906
 7618SOL    HW224789   2.238   3.282   2.866
 7619SOL     OW24790   3.297   3.389   3.246
 7619SOL    HW124791   3.354   3.466   3.275
 7619SOL    HW224792   3.218   3.380   3.307
 7620SOL     OW24793   2.107   3.603   2.332
 7620SOL    HW124794   2.125   3.668   2.405
 7620SOL    HW224795   2.176   3.613   2.260
 7621SOL     OW24796   2.972   3.177   3.575
 7621SOL    HW124797   3.039   3.157   3.647
 7621SOL    HW224798   2.913   3.098   3.561
 7622SOL     OW24799   2.168   3.338   2.356
 7622SOL    HW124800   2.133   3.431   2.361
 7622SOL    HW224801   2.122   3.282   2.426
 7623SOL     OW24802   2.163   2.961   2.717
 7623SOL    HW124803   2.179   2.863   2.735
 7623SOL    HW224804   2.100   2.998   2.785
 7624SOL     OW24805   2.415   3.647   3.292
 7624SOL    HW124806   2.336   3.639   3.354
 7624SOL    HW224807   2.466   3.730   3.312
 7625SOL     OW24808   2.468   2.848   2.022
 7625SOL    HW124809   2.513   2.895   1.946
 7625SOL    HW224810   2.505   2.882   2.109
 7626SOL     OW24811   3.555   1.887   3.385
 7626SOL    HW124812   3.571   1.928   3.295
 7626SOL    HW224813   3.558   1.958   3.455
 7627SOL     OW24814   1.967   2.536   2.439
 7627SOL    HW124815   1.947   2.442   2.463
 7627SOL    HW224816   1.961   2.594   2.520
 7628SOL     OW24817   3.736   3.563   2.154
 7628SOL    HW124818   3.806   3.558   2.225
 7628SOL    HW224819   3.729   3.657   2.120
 7629SOL     OW24820   1.882   3.448   1.976
 7629SOL    HW124821   1.817   3.373   1.967
 7629SOL    HW224822   1.873   3.490   2.067
 7630SOL     OW24823   3.682   2.862   2.484
 7630SOL    HW124824   3.653   2.814   2.401
 7630SOL    HW224825   3.649   2.957   2.481
 7631SOL     OW24826   3.506   3.002   2.257
 7631SOL    HW124827   3.582   2.967   2.202
 7631SOL    HW224828   3.542   3.063   2.328
 7632SOL     OW24829   1.987   2.609   3.424
 7632SOL    HW124830   2.074   2.656   3.434
 7632SOL    HW224831   1.916   2.675   3.399
 7633SOL     OW24832   2.490   3.242   2.576
 7633SOL    HW124833   2.449   3.151   2.571
 7633SOL    HW224834   2.477   3.290   2.489
 7634SOL     OW24835   3.102   3.063   3.287
 7634SOL    HW124836   3.122   2.995   3.216
 7634SOL    HW224837   3.178   3.065   3.352
 7635SOL     OW24838   2.696   1.906   2.381
 7635SOL    HW124839   2.740   1.991   2.353
 7635SOL    HW224840   2.597   1.917   2.377
 7636SOL     OW24841   2.060   2.823   3.186
 7636SOL    HW124842   2.151   2.789   3.159
 7636SOL    HW224843   1.998   2.814   3.108
 7637SOL     OW24844   3.338   2.909   2.057
 7637SOL    HW124845   3.276   2.842   2.098
 7637SOL    HW224846   3.396   2.948   2.129
 7638SOL     OW24847   2.999   3.611   3.492
 7638SOL    HW124848   3.018   3.688   3.431
 7638SOL    HW224849   3.024   3.525   3.447
 7639SOL     OW24850   2.210   2.133   3.776
 7639SOL    HW124851   2.256   2.214   3.812
 7639SOL    HW224852   2.114   2.155   3.756
 7640SOL     OW24853   3.308   3.324   2.766
 7640SOL    HW124854   3.260   3.344   2.851
 7640SOL    HW224855   3.291   3.229   2.740
 7641SOL     OW24856   3.489   3.687   2.388
 7641SOL    HW124857   3.479   3.624   2.311
 7641SOL    HW224858   3.510   3.635   2.471
 7642SOL     OW24859   2.435   2.586   2.146
 7642SOL    HW124860   2.445   2.675   2.101
 7642SOL    HW224861   2.363   2.590   2.215
 7643SOL     OW24862   3.120   2.229   2.785
 7643SOL    HW124863   3.029   2.188   2.790
 7643SOL    HW224864   3.185   2.176   2.839
 7644SOL     OW24865   3.461   3.519   2.175
 7644SOL    HW124866   3.560   3.517   2.163
 7644SOL    HW224867   3.416   3.510   2.086
 7645SOL     OW24868   2.566   2.448   3.272
 7645SOL    HW124869   2.569   2.406   3.362
 7645SOL    HW224870   2.519   2.387   3.208
 7646SOL     OW24871   3.255   2.332   3.519
 7646SOL    HW124872   3.226   2.302   3.610
 7646SOL    HW224873   3.351   2.308   3.506
 7647SOL     OW24874   2.792   2.723   3.435
 7647SOL    HW124875   2.854   2.654   3.400
 7647SOL    HW224876   2.753   2.775   3.359
 7648SOL     OW24877   2.905   2.271   3.041
 7648SOL    HW124878   2.854   2.356   3.056
 7648SOL    HW224879   2.866   2.222   2.963
 7649SOL     OW24880   2.920   2.582   2.283
 7649SOL    HW124881   2.939   2.581   2.381
 7649SOL    HW224882   2.829   2.543   2.267
 7650SOL     OW24883   1.947   2.713   2.649
 7650SOL    HW124884   2.042   2.711   2.679
 7650SOL    HW224885   1.893   2.767   2.714
 7651SOL     OW24886   1.960   3.750   3.492
 7651SOL    HW124887   1.967   3.706   3.582
 7651SOL    HW224888   1.864   3.754   3.464
 7652SOL     OW24889   2.720   2.239   2.090
 7652SOL    HW124890   2.779   2.279   2.020
 7652SOL    HW224891   2.665   2.166   2.050
 7653SOL     OW24892   3.588   2.465   3.658
 7653SOL    HW124893   3.576   2.553   3.613
 7653SOL    HW224894   3.561   2.392   3.596
 7654SOL     OW24895   3.269   3.023   2.416
 7654SOL    HW124896   3.348   3.012   2.355
 7654SOL    HW224897   3.203   3.086   2.375
 7655SOL     OW24898   2.411   1.944   2.809
 7655SOL    HW124899   2.402   1.978   2.903
 7655SOL    HW224900   2.432   2.020   2.748
 7656SOL     OW24901   2.848   3.340   2.348
 7656SOL    HW124902   2.831   3.412   2.281
 7656SOL    HW224903   2.810   3.366   2.437
 7657SOL     OW24904   2.227   3.638   2.757
 7657SOL    HW124905   2.259   3.544   2.751
 7657SOL    HW224906   2.299   3.696   2.794
 7658SOL     OW24907   3.049   3.363   3.377
 7658SOL    HW124908   3.039   3.294   3.449
 7658SOL    HW224909   2.993   3.337   3.298
 7659SOL     OW24910   2.120   2.767   2.117
 7659SOL    HW124911   2.163   2.785   2.029
 7659SOL    HW224912   2.097   2.670   2.125
 7660SOL     OW24913   2.349   3.156   3.560
 7660SOL    HW124914   2.310   3.162   3.468
 7660SOL    HW224915   2.276   3.162   3.628
 7661SOL     OW24916   3.011   3.616   2.109
 7661SOL    HW124917   2.918   3.604   2.144
 7661SOL    HW224918   3.032   3.543   2.044
 7662SOL     OW24919   3.436   3.230   1.944
 7662SOL    HW124920   3.407   3.325   1.941
 7662SOL    HW224921   3.361   3.171   1.913
 7663SOL     OW24922   2.321   3.654   2.164
 7663SOL    HW124923   2.365   3.700   2.240
 7663SOL    HW224924   2.388   3.598   2.115
 7664SOL     OW24925   3.253   1.990   2.339
 7664SOL    HW124926   3.241   1.962   2.243
 7664SOL    HW224927   3.347   1.970   2.367
 7665SOL     OW24928   2.071   3.653   3.089
 7665SOL    HW124929   2.124   3.575   3.120
 7665SOL    HW224930   2.040   3.637   2.995
 7666SOL     OW24931   2.843   3.551   2.752
 7666SOL    HW124932   2.930   3.504   2.739
 7666SOL    HW224933   2.774   3.511   2.692
 7667SOL     OW24934   2.236   2.545   2.339
 7667SOL    HW124935   2.252   2.447   2.354
 7667SOL    HW224936   2.141   2.567   2.360
 7668SOL     OW24937   2.582   2.034   1.973
 7668SOL    HW124938   2.664   2.000   1.928
 7668SOL    HW224939   2.503   2.020   1.913
 7669SOL     OW24940   2.696   2.131   3.605
 7669SOL    HW124941   2.795   2.117   3.608
 7669SOL    HW224942   2.655   2.095   3.689
 7670SOL     OW24943   2.696   3.371   3.018
 7670SOL    HW124944   2.682   3.312   2.938
 7670SOL    HW224945   2.771   3.334   3.073
 7671SOL     OW24946   3.200   2.456   3.280
 7671SOL    HW124947   3.235   2.428   3.369
 7671SOL    HW224948   3.236   2.547   3.257
 7672SOL     OW24949   2.669   3.207   2.791
 7672SOL    HW124950   2.764   3.213   2.758
 7672SOL    HW224951   2.607   3.225   2.715
 7673SOL     OW24952   2.767   2.346   2.741
 7673SOL    HW124953   2.747   2.350   2.643
 7673SOL    HW224954   2.802   2.255   2.764
 7674SOL     OW24955   2.421   1.930   2.355
 7674SOL    HW124956   2.339   1.923   2.412
 7674SOL    HW224957   2.415   2.012   2.299
 7675SOL     OW24958   3.212   3.058   1.872
 7675SOL    HW124959   3.263   2.994   1.929
 7675SOL    HW224960   3.140   3.101   1.926
 7676SOL     OW24961   2.141   1.881   1.994
 7676SOL    HW124962   2.171   1.973   1.972
 7676SOL    HW224963   2.212   1.834   2.047
 7677SOL     OW24964   2.829   2.137   2.318
 7677SOL    HW124965   2.795   2.174   2.232
 7677SOL    HW224966   2.926   2.159   2.328
 7678SOL     OW24967   2.938   2.513   3.328
 7678SOL    HW124968   2.916   2.430   3.379
 7678SOL    HW224969   3.033   2.510   3.298
 7679SOL     OW24970   3.076   3.435   2.648
 7679SOL    HW124971   3.086   3.508   2.580
 7679SOL    HW224972   3.166   3.410   2.684
 7680SOL     OW24973   2.355   3.008   2.533
 7680SOL    HW124974   2.289   2.993   2.606
 7680SOL    HW224975   2.309   2.998   2.445
 7681SOL     OW24976   3.102   3.650   2.475
 7681SOL    HW124977   3.153   3.714   2.418
 7681SOL    HW224978   3.023   3.696   2.516
 7682SOL     OW24979   2.882   2.356   1.909
 7682SOL    HW124980   2.848   2.438   1.864
 7682SOL    HW224981   2.951   2.381   1.977
 7683SOL     OW24982   1.975   2.453   3.199
 7683SOL    HW124983   2.069   2.445   3.165
 7683SOL    HW224984   1.975   2.507   3.283
 7684SOL     OW24985   2.381   2.033   3.061
 7684SOL    HW124986   2.418   1.970   3.129
 7684SOL    HW224987   2.285   2.052   3.081
 7685SOL     OW24988   2.726   2.337   2.478
 7685SOL    HW124989   2.689   2.401   2.411
 7685SOL    HW224990   2.761   2.256   2.431
 7686SOL     OW24991   2.872   1.911   2.594
 7686SOL    HW124992   2.809   1.911   2.516
 7686SOL    HW224993   2.851   1.835   2.654
 7687SOL     OW24994   3.265   3.068   2.695
 7687SOL    HW124995   3.177   3.025   2.718
 7687SOL    HW224996   3.285   3.054   2.598
 7688SOL     OW24997   3.221   2.448   2.936
 7688SOL    HW124998   3.179   2.370   2.891
 7688SOL    HW224999   3.309   2.421   2.975
 7689SOL     OW25000   3.676   2.658   2.251
 7689SOL    HW125001   3.760   2.627   2.294
 7689SOL    HW225002   3.654   2.597   2.174
 7690SOL     OW25003   2.398   3.286   2.065
 7690SOL    HW125004   2.306   3.250   2.080
 7690SOL    HW225005   2.459   3.210   2.041
 7691SOL     OW25006   3.620   3.138   2.461
 7691SOL    HW125007   3.717   3.148   2.484
 7691SOL    HW225008   3.570   3.219   2.493
 7692SOL     OW25009   3.229   2.430   1.921
 7692SOL    HW125010   3.181   2.405   2.005
 7692SOL    HW225011   3.328   2.415   1.933
 7693SOL     OW25012   2.410   2.138   2.184
 7693SOL    HW125013   2.474   2.101   2.117
 7693SOL    HW225014   2.366   2.220   2.148
 7694SOL     OW25015   3.587   3.109   3.364
 7694SOL    HW125016   3.662   3.043   3.359
 7694SOL    HW225017   3.620   3.195   3.402
 7695SOL     OW25018   2.888   3.205   3.194
 7695SOL    HW125019   2.798   3.176   3.227
 7695SOL    HW225020   2.959   3.150   3.237
 7696SOL     OW25021   3.494   3.475   3.554
 7696SOL    HW125022   3.471   3.526   3.472
 7696SOL    HW225023   3.571   3.414   3.535
 7697SOL     OW25024   3.028   3.142   2.967
 7697SOL    HW125025   2.966   3.162   3.043
 7697SOL    HW225026   2.983   3.163   2.880
 7698SOL     OW25027   3.474   3.032   2.892
 7698SOL    HW125028   3.457   3.079   2.979
 7698SOL    HW225029   3.399   3.049   2.829
 7699SOL     OW25030   2.810   1.894   3.241
 7699SOL    HW125031   2.816   1.877   3.143
 7699SOL    HW225032   2.890   1.945   3.271
 7700SOL     OW25033   2.804   2.954   3.589
 7700SOL    HW125034   2.710   2.973   3.615
 7700SOL    HW225035   2.807   2.872   3.532
 7701SOL     OW25036   2.595   2.933   2.257
 7701SOL    HW125037   2.576   2.901   2.350
 7701SOL    HW225038   2.681   2.894   2.225
 7702SOL     OW25039   2.295   2.702   3.112
 7702SOL    HW125040   2.357   2.709   3.190
 7702SOL    HW225041   2.263   2.608   3.102
 7703SOL     OW25042   3.147   2.220   3.147
 7703SOL    HW125043   3.179   2.304   3.191
 7703SOL    HW225044   3.057   2.236   3.106
 7704SOL     OW25045   1.914   3.399   3.208
 7704SOL    HW125046   1.865   3.467   3.153
 7704SOL    HW225047   2.012   3.413   3.196
 7705SOL     OW25048   2.188   2.980   2.303
 7705SOL    HW125049   2.184   3.054   2.235
 7705SOL    HW225050   2.173   2.892   2.259
 7706SOL     OW25051   2.355   2.405   2.695
 7706SOL    HW125052   2.381   2.466   2.620
 7706SOL    HW225053   2.428   2.404   2.764
 7707SOL     OW25054   3.099   3.224   2.310
 7707SOL    HW125055   3.165   3.298   2.327
 7707SOL    HW225056   3.007   3.256   2.332
 7708SOL     OW25057   3.187   3.361   3.001
 7708SOL    HW125058   3.227   3.371   3.092
 7708SOL    HW225059   3.131   3.278   2.998
 7709SOL     OW25060   3.532   2.475   2.409
 7709SOL    HW125061   3.464   2.512   2.472
 7709SOL    HW225062   3.577   2.550   2.361
 7710SOL     OW25063   2.186   3.404   3.148
 7710SOL    HW125064   2.179   3.340   3.071
 7710SOL    HW225065   2.282   3.423   3.167
 7711SOL     OW25066   2.265   2.653   3.489
 7711SOL    HW125067   2.338   2.688   3.429
 7711SOL    HW225068   2.272   2.554   3.496
 7712SOL     OW25069   3.554   2.696   3.518
 7712SOL    HW125070   3.459   2.724   3.505
 7712SOL    HW225071   3.602   2.697   3.430
 7713SOL     OW25072   2.975   2.058   3.647
 7713SOL    HW125073   2.989   2.126   3.575
 7713SOL    HW225074   2.989   1.966   3.610
 7714SOL     OW25075   2.373   1.954   3.638
 7714SOL    HW125076   2.320   1.905   3.568
 7714SOL    HW225077   2.316   2.025   3.679
 7715SOL     OW25078   2.462   2.722   2.896
 7715SOL    HW125079   2.505   2.812   2.892
 7715SOL    HW225080   2.399   2.719   2.973
 7716SOL     OW25081   3.084   2.682   2.915
 7716SOL    HW125082   2.994   2.652   2.885
 7716SOL    HW225083   3.143   2.602   2.928
 7717SOL     OW25084   3.052   2.391   2.132
 7717SOL    HW125085   3.075   2.319   2.197
 7717SOL    HW225086   3.010   2.468   2.180
 7718SOL     OW25087   2.121   2.065   3.123
 7718SOL    HW125088   2.093   2.096   3.213
 7718SOL    HW225089   2.092   1.970   3.109
 7719SOL     OW25090   1.917   3.136   3.135
 7719SOL    HW125091   1.940   3.084   3.217
 7719SOL    HW225092   1.906   3.232   3.158
 7720SOL     OW25093   2.548   2.443   2.880
 7720SOL    HW125094   2.630   2.417   2.831
 7720SOL    HW225095   2.538   2.542   2.880
 7721SOL     OW25096   3.667   2.846   3.714
 7721SOL    HW125097   3.627   2.788   3.643
 7721SOL    HW225098   3.600   2.861   3.787
 7722SOL     OW25099   2.184   1.907   2.495
 7722SOL    HW125100   2.148   1.997   2.518
 7722SOL    HW225101   2.189   1.851   2.577
 7723SOL     OW25102   3.494   2.282   2.215
 7723SOL    HW125103   3.553   2.208   2.245
 7723SOL    HW225104   3.485   2.350   2.288
 7724SOL     OW25105   2.832   2.589   2.844
 7724SOL    HW125106   2.812   2.578   2.941
 7724SOL    HW225107   2.819   2.502   2.797
 7725SOL     OW25108   2.816   3.386   3.655
 7725SOL    HW125109   2.799   3.459   3.588
 7725SOL    HW225110   2.868   3.313   3.612
 7726SOL     OW25111   3.712   3.340   3.446
 7726SOL    HW125112   3.734   3.379   3.357
 7726SOL    HW225113   3.794   3.336   3.502
 7727SOL     OW25114   2.228   2.800   3.721
 7727SOL    HW125115   2.315   2.812   3.769
 7727SOL    HW225116   2.243   2.746   3.639
 7728SOL     OW25117   3.363   2.143   2.010
 7728SOL    HW125118   3.311   2.067   2.049
 7728SOL    HW225119   3.405   2.197   2.083
 7729SOL     OW25120   3.119   2.674   1.887
 7729SOL    HW125121   3.160   2.583   1.890
 7729SOL    HW225122   3.163   2.728   1.816
 7730SOL     OW25123   2.929   3.212   2.719
 7730SOL    HW125124   2.960   3.126   2.680
 7730SOL    HW225125   2.981   3.288   2.679
 7731SOL     OW25126   2.201   2.691   2.765
 7731SOL    HW125127   2.300   2.696   2.779
 7731SOL    HW225128   2.169   2.597   2.784
 7732SOL     OW25129   2.123   2.419   2.818
 7732SOL    HW125130   2.084   2.328   2.833
 7732SOL    HW225131   2.205   2.412   2.761
 7733SOL     OW25132   2.985   2.281   3.488
 7733SOL    HW125133   2.946   2.328   3.568
 7733SOL    HW225134   3.082   2.302   3.481
 7734SOL     OW25135   3.018   2.053   3.330
 7734SOL    HW125136   2.984   2.134   3.377
 7734SOL    HW225137   3.080   2.080   3.257
 7735SOL     OW25138   1.889   3.120   2.056
 7735SOL    HW125139   1.805   3.165   2.026
 7735SOL    HW225140   1.868   3.027   2.086
 7736SOL     OW25141   1.968   3.611   2.837
 7736SOL    HW125142   1.919   3.540   2.787
 7736SOL    HW225143   2.059   3.622   2.799
 7737SOL     OW25144   2.338   3.384   2.759
 7737SOL    HW125145   2.410   3.438   2.802
 7737SOL    HW225146   2.377   3.327   2.687
 7738SOL     OW25147   2.780   2.517   3.105
 7738SOL    HW125148   2.850   2.528   3.176
 7738SOL    HW225149   2.692   2.498   3.148
 7739SOL     OW25150   1.891   2.516   2.945
 7739SOL    HW125151   1.965   2.495   2.882
 7739SOL    HW225152   1.923   2.502   3.039
 7740SOL     OW25153   2.061   2.452   3.643
 7740SOL    HW125154   2.150   2.423   3.608
 7740SOL    HW225155   2.016   2.509   3.574
 7741SOL     OW25156   3.300   2.783   3.474
 7741SOL    HW125157   3.305   2.883   3.474
 7741SOL    HW225158   3.281   2.751   3.381
 7742SOL     OW25159   2.674   2.470   2.234
 7742SOL    HW125160   2.682   2.385   2.181
 7742SOL    HW225161   2.591   2.518   2.207
 7743SOL     OW25162   3.477   2.383   3.032
 7743SOL    HW125163   3.493   2.321   3.108
 7743SOL    HW225164   3.563   2.398   2.982
 7744SOL     OW25165   2.083   3.402   3.579
 7744SOL    HW125166   2.061   3.475   3.643
 7744SOL    HW225167   2.105   3.319   3.629
 7745SOL     OW25168   2.441   2.300   3.084
 7745SOL    HW125169   2.437   2.201   3.074
 7745SOL    HW225170   2.486   2.340   3.004
 7746SOL     OW25171   2.695   3.550   3.451
 7746SOL    HW125172   2.642   3.474   3.416
 7746SOL    HW225173   2.729   3.606   3.375
 7747SOL     OW25174   2.287   2.362   2.072
 7747SOL    HW125175   2.359   2.431   2.086
 7747SOL    HW225176   2.199   2.400   2.097
 7748SOL     OW25177   1.983   3.003   3.369
 7748SOL    HW125178   1.998   2.979   3.465
 7748SOL    HW225179   2.018   2.929   3.311
 7749SOL     OW25180   3.134   2.902   3.063
 7749SOL    HW125181   3.116   2.823   3.003
 7749SOL    HW225182   3.104   2.986   3.018
 7750SOL     OW25183   3.154   2.730   2.153
 7750SOL    HW125184   3.083   2.692   2.212
 7750SOL    HW225185   3.135   2.707   2.058
 7751SOL     OW25186   3.605   3.609   3.038
 7751SOL    HW125187   3.681   3.634   2.978
 7751SOL    HW225188   3.574   3.516   3.015
 7752SOL     OW25189   3.135   3.632   2.978
 7752SOL    HW125190   3.224   3.672   2.955
 7752SOL    HW225191   3.145   3.533   2.986
 7753SOL     OW25192   1.979   3.062   2.884
 7753SOL    HW125193   1.954   3.090   2.977
 7753SOL    HW225194   1.904   3.010   2.843
 7754SOL     OW25195   2.556   3.626   3.676
 7754SOL    HW125196   2.478   3.679   3.644
 7754SOL    HW225197   2.615   3.603   3.598
 7755SOL     OW25198   3.663   2.089   2.296
 7755SOL    HW125199   3.717   2.058   2.218
 7755SOL    HW225200   3.613   2.011   2.335
 7756SOL     OW25201   3.268   3.438   2.359
 7756SOL    HW125202   3.326   3.467   2.283
 7756SOL    HW225203   3.206   3.512   2.384
 7757SOL     OW25204   2.006   3.622   3.728
 7757SOL    HW125205   1.953   3.551   3.773
 7757SOL    HW225206   2.062   3.671   3.795
 7758SOL     OW25207   3.168   2.786   2.519
 7758SOL    HW125208   3.241   2.720   2.532
 7758SOL    HW225209   3.203   2.865   2.468
 7759SOL     OW25210   2.635   3.133   3.270
 7759SOL    HW125211   2.617   3.188   3.351
 7759SOL    HW225212   2.556   3.139   3.207
 7760SOL     OW25213   2.529   3.521   2.035
 7760SOL    HW125214   2.543   3.537   1.937
 7760SOL    HW225215   2.483   3.433   2.047
 7761SOL     OW25216   3.481   3.601   3.303
 7761SOL    HW125217   3.525   3.597   3.213
 7761SOL    HW225218   3.509   3.686   3.349
 7762SOL     OW25219   3.697   2.014   2.857
 7762SOL    HW125220   3.742   1.927   2.836
 7762SOL    HW225221   3.610   2.019   2.808
 7763SOL     OW25222   2.100   2.151   2.587
 7763SOL    HW125223   2.019   2.198   2.552
 7763SOL    HW225224   2.100   2.154   2.687
 7764SOL     OW25225   3.069   3.416   1.933
 7764SOL    HW125226   3.061   3.325   1.974
 7764SOL    HW225227   2.992   3.432   1.871
 7765SOL     OW25228   2.676   2.867   3.235
 7765SOL    HW125229   2.701   2.859   3.138
 7765SOL    HW225230   2.663   2.963   3.258
 7766SOL     OW25231   2.819   2.818   2.178
 7766SOL    HW125232   2.839   2.812   2.080
 7766SOL    HW225233   2.859   2.739   2.224
 7767SOL     OW25234   3.332   3.499   1.932
 7767SOL    HW125235   3.236   3.473   1.925
 7767SOL    HW225236   3.369   3.513   1.840
 7768SOL     OW25237   2.206   3.180   3.334
 7768SOL    HW125238   2.190   3.259   3.274
 7768SOL    HW225239   2.123   3.125   3.341
 7769SOL     OW25240   3.455   3.188   3.131
 7769SOL    HW125241   3.510   3.146   3.203
 7769SOL    HW225242   3.389   3.251   3.173
 7770SOL     OW25243   3.003   2.955   2.666
 7770SOL    HW125244   2.915   2.913   2.691
 7770SOL    HW225245   3.056   2.890   2.611
 7771SOL     OW25246   2.874   2.093   2.806
 7771SOL    HW125247   2.875   2.047   2.717
 7771SOL    HW225248   2.869   2.025   2.879
 7772SOL     OW25249   2.444   3.364   2.346
 7772SOL    HW125250   2.483   3.329   2.261
 7772SOL    HW225251   2.344   3.362   2.341
 7773SOL     OW25252   3.616   2.232   3.230
 7773SOL    HW125253   3.701   2.283   3.219
 7773SOL    HW225254   3.628   2.139   3.196
 7774SOL     OW25255   2.139   3.194   2.130
 7774SOL    HW125256   2.043   3.174   2.110
 7774SOL    HW225257   2.144   3.256   2.208
 7775SOL     OW25258   2.003   2.937   3.634
 7775SOL    HW125259   1.917   2.908   3.676
 7775SOL    HW225260   2.078   2.880   3.669
 7776SOL     OW25261   2.611   2.043   3.357
 7776SOL    HW125262   2.688   1.997   3.314
 7776SOL    HW225263   2.637   2.073   3.449
 7777SOL     OW25264   1.939   2.211   1.853
 7777SOL    HW125265   1.867   2.205   1.785
 7777SOL    HW225266   1.987   2.299   1.844
 7778SOL     OW25267   3.274   2.714   3.216
 7778SOL    HW125268   3.220   2.780   3.162
 7778SOL    HW225269   3.360   2.696   3.169
 7779SOL     OW25270   1.910   2.013   2.065
 7779SOL    HW125271   1.897   2.085   1.997
 7779SOL    HW225272   1.994   1.963   2.044
 7780SOL     OW25273   3.031   3.169   2.046
 7780SOL    HW125274   2.941   3.126   2.044
 7780SOL    HW225275   3.062   3.178   2.140
 7781SOL     OW25276   2.473   2.699   3.314
 7781SOL    HW125277   2.543   2.768   3.295
 7781SOL    HW225278   2.512   2.608   3.303
 7782SOL     OW25279   3.383   3.733   2.920
 7782SOL    HW125280   3.416   3.783   2.841
 7782SOL    HW225281   3.460   3.686   2.965
 7783SOL     OW25282   2.544   2.354   3.533
 7783SOL    HW125283   2.588   2.432   3.578
 7783SOL    HW225284   2.593   2.270   3.555
 7784SOL     OW25285   3.330   3.054   3.462
 7784SOL    HW125286   3.333   3.072   3.561
 7784SOL    HW225287   3.419   3.076   3.422
 7785SOL     OW25288   2.203   3.626   3.462
 7785SOL    HW125289   2.115   3.674   3.455
 7785SOL    HW225290   2.187   3.532   3.491
 7786SOL     OW25291   3.505   2.649   3.092
 7786SOL    HW125292   3.493   2.551   3.074
 7786SOL    HW225293   3.507   2.698   3.005
 7787SOL     OW25294   3.096   2.218   2.347
 7787SOL    HW125295   3.155   2.137   2.346
 7787SOL    HW225296   3.124   2.279   2.421
 7788SOL     OW25297   2.432   2.599   2.525
 7788SOL    HW125298   2.487   2.682   2.513
 7788SOL    HW225299   2.364   2.594   2.452
 7789SOL     OW25300   3.517   2.266   3.481
 7789SOL    HW125301   3.546   2.264   3.385
 7789SOL    HW225302   3.555   2.186   3.528
 7790SOL     OW25303   3.696   2.689   3.284
 7790SOL    HW125304   3.774   2.731   3.237
 7790SOL    HW225305   3.623   2.671   3.218
 7791SOL     OW25306   2.688   3.214   1.933
 7791SOL    HW125307   2.685   3.224   2.033
 7791SOL    HW225308   2.734   3.294   1.894
 7792SOL     OW25309   2.532   3.544   2.846
 7792SOL    HW125310   2.517   3.643   2.849
 7792SOL    HW225311   2.612   3.520   2.902
 7793SOL     OW25312   2.755   2.838   2.743
 7793SOL    HW125313   2.777   2.747   2.779
 7793SOL    HW225314   2.699   2.888   2.810
 7794SOL     OW25315   2.878   2.789   1.918
 7794SOL    HW125316   2.864   2.860   1.849
 7794SOL    HW225317   2.969   2.749   1.906
 7795SOL     OW25318   3.662   3.454   2.712
 7795SOL    HW125319   3.605   3.422   2.635
 7795SOL    HW225320   3.630   3.411   2.797
 7796SOL     OW25321   2.128   3.169   3.717
 7796SOL    HW125322   2.074   3.090   3.687
 7796SOL    HW225323   2.116   3.182   3.816
 7797SOL     OW25324   2.055   3.127   2.505
 7797SOL    HW125325   2.077   3.084   2.592
 7797SOL    HW225326   2.087   3.070   2.430
 7798SOL     OW25327   2.582   3.285   3.490
 7798SOL    HW125328   2.493   3.248   3.516
 7798SOL    HW225329   2.634   3.310   3.572
 7799SOL     OW25330   3.644   1.977   3.129
 7799SOL    HW125331   3.657   1.878   3.124
 7799SOL    HW225332   3.659   2.018   3.039
 7800SOL     OW25333   2.260   2.282   2.389
 7800SOL    HW125334   2.318   2.217   2.340
 7800SOL    HW225335   2.217   2.236   2.467
 7801SOL     OW25336   3.526   3.368   2.937
 7801SOL    HW125337   3.449   3.358   2.874
 7801SOL    HW225338   3.519   3.299   3.009
 7802SOL     OW25339   2.215   2.446   3.074
 7802SOL    HW125340   2.297   2.390   3.088
 7802SOL    HW225341   2.184   2.438   2.980
 7803SOL     OW25342   2.688   3.461   2.546
 7803SOL    HW125343   2.659   3.539   2.491
 7803SOL    HW225344   2.610   3.400   2.560
 7804SOL     OW25345   3.285   2.094   2.950
 7804SOL    HW125346   3.301   1.998   2.971
 7804SOL    HW225347   3.246   2.140   3.030
 7805SOL     OW25348   2.867   1.861   2.964
 7805SOL    HW125349   2.831   1.799   2.894
 7805SOL    HW225350   2.959   1.833   2.990
 7806SOL     OW25351   2.658   3.197   2.202
 7806SOL    HW125352   2.633   3.104   2.230
 7806SOL    HW225353   2.725   3.234   2.266
 7807SOL     OW25354   2.463   3.422   3.154
 7807SOL    HW125355   2.456   3.508   3.204
 7807SOL    HW225356   2.551   3.419   3.105
 7808SOL     OW25357   3.232   1.906   2.080
 7808SOL    HW125358   3.289   1.837   2.035
 7808SOL    HW225359   3.140   1.869   2.094
 7809SOL     OW25360   3.163   2.391   2.569
 7809SOL    HW125361   3.086   2.455   2.561
 7809SOL    HW225362   3.149   2.331   2.647
 7810SOL     OW25363   3.451   2.025   2.741
 7810SOL    HW125364   3.396   2.070   2.812
 7810SOL    HW225365   3.431   2.067   2.652
 7811SOL     OW25366   1.869   2.862   2.175
 7811SOL    HW125367   1.964   2.843   2.150
 7811SOL    HW225368   1.824   2.776   2.200
 7812SOL     OW25369   2.755   3.553   2.198
 7812SOL    HW125370   2.677   3.536   2.138
 7812SOL    HW225371   2.729   3.619   2.268
 7813SOL     OW25372   2.051   2.508   3.906
 7813SOL    HW125373   1.958   2.481   3.933
 7813SOL    HW225374   2.060   2.502   3.807
 7814SOL     OW25375   2.105   2.061   4.673
 7814SOL    HW125376   2.152   2.047   4.760
 7814SOL    HW225377   2.012   2.024   4.680
 7815SOL     OW25378   2.024   2.255   4.300
 7815SOL    HW125379   2.014   2.263   4.399
 7815SOL    HW225380   1.950   2.199   4.264
 7816SOL     OW25381   2.452   3.213   5.011
 7816SOL    HW125382   2.368   3.187   5.059
 7816SOL    HW225383   2.456   3.313   5.005
 7817SOL     OW25384   3.433   3.367   4.395
 7817SOL    HW125385   3.379   3.353   4.478
 7817SOL    HW225386   3.371   3.383   4.318
 7818SOL     OW25387   3.029   2.570   4.426
 7818SOL    HW125388   3.079   2.656   4.412
 7818SOL    HW225389   2.976   2.577   4.511
 7819SOL     OW25390   3.680   2.445   3.910
 7819SOL    HW125391   3.641   2.458   3.819
 7819SOL    HW225392   3.639   2.364   3.952
 7820SOL     OW25393   2.563   3.085   4.800
 7820SOL    HW125394   2.511   3.126   4.875
 7820SOL    HW225395   2.623   3.154   4.759
 7821SOL     OW25396   2.782   2.607   5.603
 7821SOL    HW125397   2.775   2.654   5.691
 7821SOL    HW225398   2.760   2.670   5.529
 7822SOL     OW25399   2.553   2.843   4.385
 7822SOL    HW125400   2.638   2.814   4.429
 7822SOL    HW225401   2.499   2.899   4.449
 7823SOL     OW25402   2.549   3.029   5.535
 7823SOL    HW125403   2.586   3.109   5.581
 7823SOL    HW225404   2.476   3.057   5.472
 7824SOL     OW25405   2.173   3.407   4.717
 7824SOL    HW125406   2.104   3.351   4.671
 7824SOL    HW225407   2.247   3.427   4.653
 7825SOL     OW25408   3.312   3.369   5.109
 7825SOL    HW125409   3.376   3.445   5.120
 7825SOL    HW225410   3.237   3.378   5.174
 7826SOL     OW25411   2.242   2.331   5.136
 7826SOL    HW125412   2.333   2.307   5.103
 7826SOL    HW225413   2.186   2.248   5.142
 7827SOL     OW25414   3.431   2.338   4.526
 7827SOL    HW125415   3.347   2.321   4.475
 7827SOL    HW225416   3.416   2.413   4.591
 7828SOL     OW25417   2.087   3.604   4.221
 7828SOL    HW125418   2.083   3.685   4.281
 7828SOL    HW225419   2.173   3.607   4.169
 7829SOL     OW25420   2.957   3.164   5.475
 7829SOL    HW125421   3.006   3.145   5.560
 7829SOL    HW225422   2.901   3.085   5.451
 7830SOL     OW25423   2.179   3.325   4.231
 7830SOL    HW125424   2.127   3.405   4.261
 7830SOL    HW225425   2.168   3.251   4.298
 7831SOL     OW25426   2.429   3.736   5.116
 7831SOL    HW125427   2.358   3.704   5.178
 7831SOL    HW225428   2.479   3.811   5.160
 7832SOL     OW25429   2.464   2.837   3.872
 7832SOL    HW125430   2.502   2.897   3.801
 7832SOL    HW225431   2.490   2.873   3.962
 7833SOL     OW25432   3.457   2.068   5.212
 7833SOL    HW125433   3.544   2.106   5.178
 7833SOL    HW225434   3.382   2.102   5.155
 7834SOL     OW25435   2.018   2.526   4.250
 7834SOL    HW125436   2.018   2.428   4.269
 7834SOL    HW225437   2.003   2.577   4.335
 7835SOL     OW25438   1.891   3.422   3.860
 7835SOL    HW125439   1.865   3.327   3.877
 7835SOL    HW225440   1.877   3.476   3.943
 7836SOL     OW25441   3.585   2.779   4.363
 7836SOL    HW125442   3.660   2.721   4.334
 7836SOL    HW225443   3.554   2.835   4.286
 7837SOL     OW25444   3.500   2.951   4.146
 7837SOL    HW125445   3.592   2.944   4.109
 7837SOL    HW225446   3.498   3.017   4.221
 7838SOL     OW25447   2.001   2.598   5.327
 7838SOL    HW125448   2.087   2.649   5.331
 7838SOL    HW225449   1.928   2.657   5.295
 7839SOL     OW25450   2.683   1.944   4.239
 7839SOL    HW125451   2.746   2.016   4.207
 7839SOL    HW225452   2.589   1.974   4.226
 7840SOL     OW25453   2.124   2.786   5.083
 7840SOL    HW125454   2.193   2.804   5.012
 7840SOL    HW225455   2.082   2.697   5.066
 7841SOL     OW25456   3.437   2.865   3.885
 7841SOL    HW125457   3.375   2.786   3.880
 7841SOL    HW225458   3.456   2.887   3.980
 7842SOL     OW25459   3.028   3.679   5.283
 7842SOL    HW125460   2.965   3.687   5.206
 7842SOL    HW225461   3.061   3.585   5.289
 7843SOL     OW25462   2.246   2.200   5.577
 7843SOL    HW125463   2.279   2.260   5.650
 7843SOL    HW225464   2.206   2.255   5.504
 7844SOL     OW25465   3.286   3.296   4.619
 7844SOL    HW125466   3.248   3.310   4.711
 7844SOL    HW225467   3.287   3.198   4.598
 7845SOL     OW25468   3.562   3.595   4.271
 7845SOL    HW125469   3.528   3.563   4.183
 7845SOL    HW225470   3.540   3.528   4.342
 7846SOL     OW25471   2.465   2.575   3.968
 7846SOL    HW125472   2.462   2.668   3.933
 7846SOL    HW225473   2.396   2.564   4.039
 7847SOL     OW25474   3.471   3.503   4.026
 7847SOL    HW125475   3.566   3.528   4.003
 7847SOL    HW225476   3.419   3.491   3.941
 7848SOL     OW25477   3.284   2.330   5.431
 7848SOL    HW125478   3.271   2.378   5.519
 7848SOL    HW225479   3.346   2.253   5.444
 7849SOL     OW25480   2.812   2.205   4.946
 7849SOL    HW125481   2.726   2.251   4.966
 7849SOL    HW225482   2.813   2.175   4.850
 7850SOL     OW25483   2.907   2.618   4.176
 7850SOL    HW125484   2.940   2.585   4.264
 7850SOL    HW225485   2.829   2.562   4.146
 7851SOL     OW25486   1.964   2.678   4.472
 7851SOL    HW125487   2.055   2.670   4.512
 7851SOL    HW225488   1.906   2.736   4.529
 7852SOL     OW25489   1.965   3.703   5.282
 7852SOL    HW125490   1.964   3.674   5.377
 7852SOL    HW225491   1.876   3.740   5.257
 7853SOL     OW25492   2.798   2.277   3.919
 7853SOL    HW125493   2.838   2.323   3.840
 7853SOL    HW225494   2.755   2.191   3.890
 7854SOL     OW25495   3.612   2.382   5.523
 7854SOL    HW125496   3.583   2.468   5.480
 7854SOL    HW225497   3.552   2.308   5.493
 7855SOL     OW25498   3.210   2.947   4.153
 7855SOL    HW125499   3.309   2.954   4.143
 7855SOL    HW225500   3.168   3.036   4.139
 7856SOL     OW25501   2.426   1.932   4.697
 7856SOL    HW125502   2.440   1.982   4.783
 7856SOL    HW225503   2.431   1.995   4.620
 7857SOL     OW25504   2.853   3.322   4.175
 7857SOL    HW125505   2.832   3.398   4.114
 7857SOL    HW225506   2.825   3.345   4.268
 7858SOL     OW25507   3.650   2.896   4.622
 7858SOL    HW125508   3.610   2.871   4.533
 7858SOL    HW225509   3.577   2.909   4.689
 7859SOL     OW25510   3.086   3.394   5.271
 7859SOL    HW125511   3.071   3.343   5.355
 7859SOL    HW225512   3.017   3.368   5.203
 7860SOL     OW25513   2.104   2.776   3.964
 7860SOL    HW125514   2.148   2.797   3.877
 7860SOL    HW225515   2.083   2.679   3.969
 7861SOL     OW25516   3.358   2.652   4.427
 7861SOL    HW125517   3.364   2.610   4.518
 7861SOL    HW225518   3.446   2.693   4.404
 7862SOL     OW25519   2.346   3.153   5.393
 7862SOL    HW125520   2.306   3.161   5.301
 7862SOL    HW225521   2.274   3.163   5.462
 7863SOL     OW25522   3.019   3.585   3.977
 7863SOL    HW125523   2.922   3.578   4.000
 7863SOL    HW225524   3.041   3.518   3.906
 7864SOL     OW25525   2.064   2.128   5.151
 7864SOL    HW125526   1.977   2.172   5.130
 7864SOL    HW225527   2.047   2.049   5.211
 7865SOL     OW25528   3.547   3.248   3.804
 7865SOL    HW125529   3.513   3.340   3.783
 7865SOL    HW225530   3.480   3.180   3.775
 7866SOL     OW25531   2.327   3.651   4.091
 7866SOL    HW125532   2.377   3.708   4.156
 7866SOL    HW225533   2.392   3.599   4.035
 7867SOL     OW25534   3.264   1.942   4.182
 7867SOL    HW125535   3.230   1.921   4.090
 7867SOL    HW225536   3.363   1.933   4.184
 7868SOL     OW25537   2.167   3.697   4.908
 7868SOL    HW125538   2.188   3.606   4.943
 7868SOL    HW225539   2.126   3.689   4.817
 7869SOL     OW25540   2.823   3.521   4.581
 7869SOL    HW125541   2.914   3.481   4.565
 7869SOL    HW225542   2.765   3.504   4.501
 7870SOL     OW25543   2.280   2.506   4.158
 7870SOL    HW125544   2.294   2.407   4.168
 7870SOL    HW225545   2.183   2.527   4.172
 7871SOL     OW25546   2.605   2.081   5.369
 7871SOL    HW125547   2.696   2.061   5.405
 7871SOL    HW225548   2.536   2.048   5.433
 7872SOL     OW25549   2.720   3.430   4.937
 7872SOL    HW125550   2.721   3.374   4.854
 7872SOL    HW225551   2.797   3.405   4.995
 7873SOL     OW25552   3.348   2.450   5.167
 7873SOL    HW125553   3.328   2.409   5.256
 7873SOL    HW225554   3.283   2.524   5.149
 7874SOL     OW25555   2.728   3.279   4.709
 7874SOL    HW125556   2.817   3.238   4.688
 7874SOL    HW225557   2.714   3.360   4.652
 7875SOL     OW25558   2.762   2.353   4.601
 7875SOL    HW125559   2.753   2.354   4.502
 7875SOL    HW225560   2.785   2.261   4.632
 7876SOL     OW25561   3.342   3.076   3.737
 7876SOL    HW125562   3.378   2.994   3.782
 7876SOL    HW225563   3.255   3.101   3.778
 7877SOL     OW25564   2.141   1.890   3.868
 7877SOL    HW125565   2.182   1.974   3.835
 7877SOL    HW225566   2.200   1.850   3.939
 7878SOL     OW25567   2.846   2.147   4.161
 7878SOL    HW125568   2.836   2.195   4.073
 7878SOL    HW225569   2.942   2.148   4.188
 7879SOL     OW25570   3.068   3.421   4.505
 7879SOL    HW125571   3.089   3.490   4.435
 7879SOL    HW225572   3.153   3.387   4.544
 7880SOL     OW25573   3.130   3.634   4.333
 7880SOL    HW125574   3.192   3.698   4.288
 7880SOL    HW225575   3.051   3.684   4.368
 7881SOL     OW25576   2.896   2.421   3.705
 7881SOL    HW125577   2.823   2.487   3.688
 7881SOL    HW225578   2.972   2.466   3.753
 7882SOL     OW25579   2.438   2.080   4.935
 7882SOL    HW125580   2.487   2.032   5.008
 7882SOL    HW225581   2.341   2.056   4.938
 7883SOL     OW25582   2.742   2.340   4.331
 7883SOL    HW125583   2.705   2.402   4.261
 7883SOL    HW225584   2.784   2.261   4.287
 7884SOL     OW25585   2.859   1.916   4.449
 7884SOL    HW125586   2.795   1.927   4.373
 7884SOL    HW225587   2.835   1.835   4.503
 7885SOL     OW25588   3.315   3.031   4.552
 7885SOL    HW125589   3.249   2.965   4.515
 7885SOL    HW225590   3.386   3.048   4.484
 7886SOL     OW25591   3.691   2.624   4.116
 7886SOL    HW125592   3.759   2.592   4.182
 7886SOL    HW225593   3.693   2.566   4.035
 7887SOL     OW25594   2.353   3.322   3.893
 7887SOL    HW125595   2.267   3.280   3.923
 7887SOL    HW225596   2.404   3.258   3.835
 7888SOL     OW25597   3.509   3.104   4.372
 7888SOL    HW125598   3.606   3.080   4.377
 7888SOL    HW225599   3.499   3.203   4.373
 7889SOL     OW25600   3.593   3.066   5.260
 7889SOL    HW125601   3.629   3.158   5.277
 7889SOL    HW225602   3.506   3.056   5.308
 7890SOL     OW25603   2.907   3.295   5.092
 7890SOL    HW125604   2.824   3.259   5.133
 7890SOL    HW225605   2.946   3.226   5.030
 7891SOL     OW25606   3.469   3.465   5.424
 7891SOL    HW125607   3.449   3.510   5.337
 7891SOL    HW225608   3.551   3.409   5.414
 7892SOL     OW25609   2.992   3.105   4.911
 7892SOL    HW125610   2.912   3.050   4.934
 7892SOL    HW225611   2.992   3.124   4.813
 7893SOL     OW25612   3.445   2.968   4.792
 7893SOL    HW125613   3.459   3.050   4.848
 7893SOL    HW225614   3.386   2.990   4.715
 7894SOL     OW25615   2.818   1.892   5.059
 7894SOL    HW125616   2.833   1.879   4.961
 7894SOL    HW225617   2.878   1.965   5.091
 7895SOL     OW25618   2.795   2.932   5.450
 7895SOL    HW125619   2.707   2.964   5.484
 7895SOL    HW225620   2.784   2.893   5.359
 7896SOL     OW25621   2.575   2.930   4.115
 7896SOL    HW125622   2.558   2.899   4.209
 7896SOL    HW225623   2.664   2.897   4.084
 7897SOL     OW25624   2.328   2.655   4.924
 7897SOL    HW125625   2.393   2.624   4.993
 7897SOL    HW225626   2.243   2.602   4.933
 7898SOL     OW25627   1.987   3.449   5.165
 7898SOL    HW125628   1.971   3.542   5.198
 7898SOL    HW225629   2.067   3.447   5.105
 7899SOL     OW25630   2.164   2.983   4.140
 7899SOL    HW125631   2.158   3.059   4.075
 7899SOL    HW225632   2.153   2.897   4.091
 7900SOL     OW25633   2.395   2.360   4.477
 7900SOL    HW125634   2.396   2.453   4.439
 7900SOL    HW225635   2.432   2.362   4.570
 7901SOL     OW25636   3.104   3.207   4.115
 7901SOL    HW125637   3.167   3.280   4.142
 7901SOL    HW225638   3.010   3.235   4.138
 7902SOL     OW25639   3.192   3.337   4.869
 7902SOL    HW125640   3.242   3.348   4.955
 7902SOL    HW225641   3.115   3.274   4.882
 7903SOL     OW25642   3.458   2.453   4.168
 7903SOL    HW125643   3.402   2.484   4.245
 7903SOL    HW225644   3.532   2.518   4.154
 7904SOL     OW25645   2.202   3.429   4.989
 7904SOL    HW125646   2.185   3.409   4.893
 7904SOL    HW225647   2.299   3.449   5.003
 7905SOL     OW25648   2.270   2.693   5.298
 7905SOL    HW125649   2.228   2.738   5.219
 7905SOL    HW225650   2.338   2.627   5.266
 7906SOL     OW25651   3.549   2.633   5.409
 7906SOL    HW125652   3.451   2.652   5.403
 7906SOL    HW225653   3.598   2.688   5.341
 7907SOL     OW25654   2.859   2.019   5.444
 7907SOL    HW125655   2.914   2.101   5.434
 7907SOL    HW225656   2.911   1.940   5.413
 7908SOL     OW25657   2.393   1.983   5.515
 7908SOL    HW125658   2.341   1.917   5.461
 7908SOL    HW225659   2.336   2.063   5.533
 7909SOL     OW25660   2.488   2.729   4.715
 7909SOL    HW125661   2.455   2.813   4.672
 7909SOL    HW225662   2.433   2.710   4.797
 7910SOL     OW25663   3.361   2.557   4.682
 7910SOL    HW125664   3.267   2.572   4.710
 7910SOL    HW225665   3.418   2.542   4.763
 7911SOL     OW25666   2.179   2.011   4.937
 7911SOL    HW125667   2.138   2.062   5.012
 7911SOL    HW225668   2.148   1.916   4.940
 7912SOL     OW25669   1.901   3.233   5.014
 7912SOL    HW125670   1.916   3.149   5.065
 7912SOL    HW225671   1.917   3.312   5.073
 7913SOL     OW25672   2.534   2.450   4.716
 7913SOL    HW125673   2.618   2.419   4.672
 7913SOL    HW225674   2.525   2.548   4.704
 7914SOL     OW25675   3.631   2.847   5.584
 7914SOL    HW125676   3.600   2.762   5.542
 7914SOL    HW225677   3.575   2.867   5.665
 7915SOL     OW25678   2.078   1.878   4.426
 7915SOL    HW125679   2.082   1.976   4.445
 7915SOL    HW225680   2.133   1.828   4.493
 7916SOL     OW25681   3.551   2.231   4.022
 7916SOL    HW125682   3.485   2.166   3.985
 7916SOL    HW225683   3.504   2.295   4.084
 7917SOL     OW25684   2.897   2.585   4.668
 7917SOL    HW125685   2.953   2.580   4.751
 7917SOL    HW225686   2.849   2.498   4.655
 7918SOL     OW25687   2.847   3.404   5.532
 7918SOL    HW125688   2.815   3.462   5.457
 7918SOL    HW225689   2.876   3.315   5.496
 7919SOL     OW25690   3.700   3.332   5.277
 7919SOL    HW125691   3.707   3.379   5.189
 7919SOL    HW225692   3.789   3.335   5.323
 7920SOL     OW25693   2.233   2.811   5.546
 7920SOL    HW125694   2.311   2.815   5.609
 7920SOL    HW225695   2.259   2.761   5.463
 7921SOL     OW25696   3.150   2.745   3.702
 7921SOL    HW125697   3.145   2.651   3.735
 7921SOL    HW225698   3.204   2.749   3.618
 7922SOL     OW25699   2.975   3.188   4.648
 7922SOL    HW125700   2.969   3.101   4.601
 7922SOL    HW225701   3.008   3.258   4.585
 7923SOL     OW25702   2.209   2.658   4.582
 7923SOL    HW125703   2.273   2.643   4.506
 7923SOL    HW225704   2.257   2.645   4.669
 7924SOL     OW25705   3.018   2.241   5.382
 7924SOL    HW125706   2.965   2.288   5.453
 7924SOL    HW225707   3.114   2.268   5.389
 7925SOL     OW25708   2.988   2.096   5.131
 7925SOL    HW125709   2.997   2.147   5.216
 7925SOL    HW225710   2.932   2.148   5.067
 7926SOL     OW25711   1.849   3.150   3.951
 7926SOL    HW125712   1.761   3.177   3.914
 7926SOL    HW225713   1.847   3.053   3.974
 7927SOL     OW25714   2.361   3.465   4.525
 7927SOL    HW125715   2.409   3.551   4.542
 7927SOL    HW225716   2.394   3.424   4.440
 7928SOL     OW25717   2.151   2.383   5.393
 7928SOL    HW125718   2.199   2.361   5.308
 7928SOL    HW225719   2.082   2.453   5.374
 7929SOL     OW25720   3.298   2.741   5.366
 7929SOL    HW125721   3.325   2.837   5.365
 7929SOL    HW225722   3.258   2.717   5.278
 7930SOL     OW25723   2.694   2.469   4.085
 7930SOL    HW125724   2.731   2.400   4.024
 7930SOL    HW225725   2.613   2.511   4.043
 7931SOL     OW25726   3.493   2.519   4.916
 7931SOL    HW125727   3.469   2.473   5.001
 7931SOL    HW225728   3.593   2.519   4.905
 7932SOL     OW25729   2.181   3.437   5.454
 7932SOL    HW125730   2.112   3.499   5.491
 7932SOL    HW225731   2.167   3.346   5.493
 7933SOL     OW25732   2.515   2.340   4.966
 7933SOL    HW125733   2.491   2.244   4.956
 7933SOL    HW225734   2.518   2.383   4.875
 7934SOL     OW25735   2.740   3.539   5.307
 7934SOL    HW125736   2.672   3.473   5.276
 7934SOL    HW225737   2.769   3.596   5.230
 7935SOL     OW25738   2.294   2.372   3.873
 7935SOL    HW125739   2.371   2.432   3.890
 7935SOL    HW225740   2.209   2.418   3.901
 7936SOL     OW25741   2.014   3.007   5.209
 7936SOL    HW125742   2.023   2.990   5.307
 7936SOL    HW225743   2.045   2.926   5.158
 7937SOL     OW25744   3.116   2.707   4.029
 7937SOL    HW125745   3.042   2.673   4.088
 7937SOL    HW225746   3.148   2.795   4.064
 7938SOL     OW25747   3.573   3.604   4.869
 7938SOL    HW125748   3.649   3.645   4.818
 7938SOL    HW225749   3.542   3.522   4.821
 7939SOL     OW25750   3.140   3.619   4.836
 7939SOL    HW125751   3.219   3.680   4.837
 7939SOL    HW225752   3.169   3.524   4.847
 7940SOL     OW25753   2.558   3.589   5.511
 7940SOL    HW125754   2.490   3.660   5.493
 7940SOL    HW225755   2.634   3.598   5.446
 7941SOL     OW25756   3.262   3.423   4.191
 7941SOL    HW125757   3.329   3.455   4.125
 7941SOL    HW225758   3.203   3.499   4.220
 7942SOL     OW25759   1.990   3.617   5.538
 7942SOL    HW125760   1.930   3.550   5.581
 7942SOL    HW225761   2.032   3.674   5.608
 7943SOL     OW25762   3.161   2.829   4.397
 7943SOL    HW125763   3.236   2.763   4.407
 7943SOL    HW225764   3.166   2.871   4.307
 7944SOL     OW25765   2.668   3.194   5.170
 7944SOL    HW125766   2.643   3.234   5.258
 7944SOL    HW225767   2.590   3.198   5.108
 7945SOL     OW25768   2.515   3.532   3.925
 7945SOL    HW125769   2.534   3.565   3.833
 7945SOL    HW225770   2.457   3.451   3.920
 7946SOL     OW25771   3.477   3.580   5.130
 7946SOL    HW125772   3.505   3.593   5.034
 7946SOL    HW225773   3.496   3.664   5.181
 7947SOL     OW25774   3.081   3.406   3.780
 7947SOL    HW125775   3.085   3.309   3.803
 7947SOL    HW225776   2.999   3.424   3.726
 7948SOL     OW25777   2.753   2.997   5.000
 7948SOL    HW125778   2.689   3.000   4.922
 7948SOL    HW225779   2.725   3.065   5.068
 7949SOL     OW25780   2.813   2.841   4.033
 7949SOL    HW125781   2.872   2.864   3.955
 7949SOL    HW225782   2.852   2.764   4.083
 7950SOL     OW25783   3.345   3.497   3.783
 7950SOL    HW125784   3.251   3.464   3.772
 7950SOL    HW225785   3.392   3.494   3.694
 7951SOL     OW25786   2.219   3.183   5.148
 7951SOL    HW125787   2.187   3.267   5.105
 7951SOL    HW225788   2.141   3.123   5.165
 7952SOL     OW25789   3.499   3.193   4.946
 7952SOL    HW125790   3.593   3.172   4.972
 7952SOL    HW225791   3.450   3.231   5.025
 7953SOL     OW25792   2.950   2.950   4.534
 7953SOL    HW125793   2.869   2.893   4.548
 7953SOL    HW225794   3.018   2.899   4.481
 7954SOL     OW25795   2.825   2.091   4.677
 7954SOL    HW125796   2.845   2.066   4.582
 7954SOL    HW225797   2.840   2.013   4.736
 7955SOL     OW25798   2.454   3.356   4.266
 7955SOL    HW125799   2.506   3.303   4.199
 7955SOL    HW225800   2.357   3.351   4.245
 7956SOL     OW25801   3.683   2.174   5.111
 7956SOL    HW125802   3.684   2.274   5.111
 7956SOL    HW225803   3.657   2.141   5.020
 7957SOL     OW25804   2.114   3.211   3.991
 7957SOL    HW125805   2.015   3.199   3.985
 7957SOL    HW225806   2.136   3.262   4.074
 7958SOL     OW25807   2.018   2.955   5.479
 7958SOL    HW125808   1.934   2.917   5.516
 7958SOL    HW225809   2.096   2.900   5.508
 7959SOL     OW25810   2.570   1.961   5.135
 7959SOL    HW125811   2.660   1.932   5.103
 7959SOL    HW225812   2.580   2.015   5.219
 7960SOL     OW25813   1.949   2.207   3.725
 7960SOL    HW125814   1.883   2.188   3.653
 7960SOL    HW225815   1.977   2.303   3.720
 7961SOL     OW25816   3.209   2.699   5.082
 7961SOL    HW125817   3.157   2.784   5.088
 7961SOL    HW225818   3.302   2.719   5.051
 7962SOL     OW25819   1.912   2.014   3.933
 7962SOL    HW125820   1.902   2.090   3.869
 7962SOL    HW225821   1.999   1.967   3.917
 7963SOL     OW25822   3.097   3.139   3.849
 7963SOL    HW125823   3.044   3.054   3.840
 7963SOL    HW225824   3.102   3.164   3.946
 7964SOL     OW25825   3.361   3.793   4.825
 7964SOL    HW125826   3.379   3.842   4.740
 7964SOL    HW225827   3.440   3.737   4.849
 7965SOL     OW25828   2.242   3.647   5.295
 7965SOL    HW125829   2.148   3.674   5.272
 7965SOL    HW225830   2.240   3.560   5.343
 7966SOL     OW25831   3.456   2.775   4.991
 7966SOL    HW125832   3.478   2.685   4.952
 7966SOL    HW225833   3.456   2.844   4.919
 7967SOL     OW25834   3.103   2.159   4.232
 7967SOL    HW125835   3.171   2.087   4.218
 7967SOL    HW225836   3.132   2.218   4.308
 7968SOL     OW25837   2.390   2.618   4.381
 7968SOL    HW125838   2.452   2.696   4.370
 7968SOL    HW225839   2.355   2.590   4.292
 7969SOL     OW25840   3.636   2.802   5.204
 7969SOL    HW125841   3.632   2.898   5.231
 7969SOL    HW225842   3.577   2.786   5.125
 7970SOL     OW25843   2.633   3.237   3.812
 7970SOL    HW125844   2.626   3.240   3.912
 7970SOL    HW225845   2.702   3.303   3.782
 7971SOL     OW25846   2.501   3.695   4.577
 7971SOL    HW125847   2.471   3.790   4.591
 7971SOL    HW225848   2.586   3.680   4.628
 7972SOL     OW25849   2.734   2.781   4.588
 7972SOL    HW125850   2.799   2.710   4.616
 7972SOL    HW225851   2.648   2.769   4.639
 7973SOL     OW25852   2.963   2.909   3.806
 7973SOL    HW125853   2.899   2.925   3.731
 7973SOL    HW225854   3.034   2.845   3.776
 7974SOL     OW25855   2.138   3.189   5.568
 7974SOL    HW125856   2.085   3.110   5.538
 7974SOL    HW225857   2.113   3.211   5.663
 7975SOL     OW25858   2.546   3.339   5.367
 7975SOL    HW125859   2.469   3.276   5.380
 7975SOL    HW225860   2.541   3.412   5.435
 7976SOL     OW25861   3.596   2.043   4.893
 7976SOL    HW125862   3.609   1.945   4.899
 7976SOL    HW225863   3.554   2.066   4.805
 7977SOL     OW25864   2.297   2.233   4.254
 7977SOL    HW125865   2.197   2.232   4.264
 7977SOL    HW225866   2.338   2.269   4.338
 7978SOL     OW25867   3.521   3.369   4.742
 7978SOL    HW125868   3.440   3.354   4.686
 7978SOL    HW225869   3.522   3.303   4.817
 7979SOL     OW25870   2.096   2.519   4.995
 7979SOL    HW125871   2.143   2.452   5.052
 7979SOL    HW225872   2.014   2.477   4.956
 7980SOL     OW25873   2.681   3.484   4.357
 7980SOL    HW125874   2.685   3.573   4.312
 7980SOL    HW225875   2.598   3.436   4.329
 7981SOL     OW25876   3.214   2.063   4.884
 7981SOL    HW125877   3.265   1.986   4.848
 7981SOL    HW225878   3.148   2.031   4.952
 7982SOL     OW25879   2.874   1.850   4.797
 7982SOL    HW125880   2.833   1.788   4.730
 7982SOL    HW225881   2.969   1.824   4.813
 7983SOL     OW25882   2.613   3.204   4.091
 7983SOL    HW125883   2.594   3.106   4.099
 7983SOL    HW225884   2.707   3.222   4.121
 7984SOL     OW25885   2.468   3.488   5.011
 7984SOL    HW125886   2.456   3.581   5.046
 7984SOL    HW225887   2.562   3.475   4.980
 7985SOL     OW25888   3.163   1.910   3.924
 7985SOL    HW125889   3.162   1.826   3.869
 7985SOL    HW225890   3.070   1.945   3.932
 7986SOL     OW25891   3.169   2.320   4.445
 7986SOL    HW125892   3.118   2.405   4.433
 7986SOL    HW225893   3.160   2.289   4.539
 7987SOL     OW25894   3.495   2.085   4.638
 7987SOL    HW125895   3.450   2.171   4.612
 7987SOL    HW225896   3.579   2.074   4.584
 7988SOL     OW25897   1.861   2.877   4.053
 7988SOL    HW125898   1.953   2.863   4.017
 7988SOL    HW225899   1.819   2.789   4.075
 7989SOL     OW25900   2.757   3.549   4.049
 7989SOL    HW125901   2.672   3.535   3.998
 7989SOL    HW225902   2.746   3.624   4.114
 7990SOL     OW25903   2.083   2.454   5.655
 7990SOL    HW125904   1.983   2.452   5.653
 7990SOL    HW225905   2.118   2.442   5.562
 7991SOL     OW25906   2.112   2.117   6.607
 7991SOL    HW125907   2.142   2.097   6.700
 7991SOL    HW225908   2.015   2.095   6.597
 7992SOL     OW25909   1.805   2.335   6.212
 7992SOL    HW125910   1.721   2.344   6.266
 7992SOL    HW225911   1.801   2.253   6.156
 7993SOL     OW25912   3.450   3.333   6.286
 7993SOL    HW125913   3.399   3.301   6.366
 7993SOL    HW225914   3.386   3.352   6.212
 7994SOL     OW25915   3.001   2.579   6.237
 7994SOL    HW125916   3.053   2.660   6.209
 7994SOL    HW225917   2.958   2.596   6.326
 7995SOL     OW25918   3.743   2.444   5.756
 7995SOL    HW125919   3.695   2.424   5.671
 7995SOL    HW225920   3.714   2.381   5.827
 7996SOL     OW25921   2.758   2.589   7.445
 7996SOL    HW125922   2.761   2.645   7.528
 7996SOL    HW225923   2.771   2.648   7.365
 7997SOL     OW25924   2.542   2.815   6.198
 7997SOL    HW125925   2.625   2.839   6.247
 7997SOL    HW225926   2.464   2.860   6.242
 7998SOL     OW25927   2.577   2.971   7.421
 7998SOL    HW125928   2.634   3.035   7.473
 7998SOL    HW225929   2.500   3.021   7.380
 7999SOL     OW25930   2.191   3.350   6.674
 7999SOL    HW125931   2.172   3.252   6.685
 7999SOL    HW225932   2.241   3.365   6.590
 8000SOL     OW25933   3.307   3.380   6.960
 8000SOL    HW125934   3.373   3.454   6.973
 8000SOL    HW225935   3.232   3.390   7.025
 8001SOL     OW25936   2.229   2.313   7.060
 8001SOL    HW125937   2.307   2.264   7.021
 8001SOL    HW225938   2.159   2.248   7.088
 8002SOL     OW25939   3.432   2.297   6.309
 8002SOL    HW125940   3.357   2.291   6.244
 8002SOL    HW225941   3.415   2.372   6.373
 8003SOL     OW25942   2.104   3.558   6.046
 8003SOL    HW125943   2.116   3.626   6.118
 8003SOL    HW225944   2.170   3.575   5.973
 8004SOL     OW25945   2.958   3.244   7.285
 8004SOL    HW125946   3.004   3.223   7.372
 8004SOL    HW225947   2.904   3.166   7.256
 8005SOL     OW25948   2.099   3.285   6.104
 8005SOL    HW125949   2.102   3.385   6.096
 8005SOL    HW225950   2.031   3.259   6.172
 8006SOL     OW25951   2.470   3.629   7.129
 8006SOL    HW125952   2.374   3.642   7.157
 8006SOL    HW225953   2.501   3.712   7.082
 8007SOL     OW25954   2.443   2.863   5.730
 8007SOL    HW125955   2.481   2.916   5.655
 8007SOL    HW225956   2.500   2.876   5.812
 8008SOL     OW25957   3.531   1.957   7.106
 8008SOL    HW125958   3.558   2.039   7.056
 8008SOL    HW225959   3.467   1.982   7.180
 8009SOL     OW25960   1.986   2.538   6.165
 8009SOL    HW125961   1.928   2.459   6.186
 8009SOL    HW225962   1.994   2.596   6.246
 8010SOL     OW25963   3.712   3.596   5.901
 8010SOL    HW125964   3.796   3.581   5.952
 8010SOL    HW225965   3.717   3.684   5.854
 8011SOL     OW25966   1.848   3.416   5.651
 8011SOL    HW125967   1.765   3.362   5.646
 8011SOL    HW225968   1.863   3.446   5.745
 8012SOL     OW25969   3.550   2.762   6.243
 8012SOL    HW125970   3.634   2.755   6.296
 8012SOL    HW225971   3.560   2.833   6.173
 8013SOL     OW25972   3.580   2.976   6.066
 8013SOL    HW125973   3.660   2.951   6.011
 8013SOL    HW225974   3.608   3.041   6.137
 8014SOL     OW25975   1.881   2.726   7.221
 8014SOL    HW125976   1.949   2.710   7.149
 8014SOL    HW225977   1.797   2.763   7.180
 8015SOL     OW25978   2.372   3.197   6.302
 8015SOL    HW125979   2.357   3.099   6.314
 8015SOL    HW225980   2.391   3.217   6.206
 8016SOL     OW25981   3.093   3.057   7.002
 8016SOL    HW125982   3.124   2.989   6.935
 8016SOL    HW225983   3.166   3.072   7.069
 8017SOL     OW25984   2.681   1.884   6.071
 8017SOL    HW125985   2.724   1.968   6.039
 8017SOL    HW225986   2.582   1.894   6.069
 8018SOL     OW25987   2.010   2.757   6.971
 8018SOL    HW125988   2.102   2.745   6.935
 8018SOL    HW225989   1.949   2.689   6.932
 8019SOL     OW25990   3.463   2.914   5.802
 8019SOL    HW125991   3.382   2.861   5.825
 8019SOL    HW225992   3.508   2.945   5.885
 8020SOL     OW25993   3.201   3.732   7.191
 8020SOL    HW125994   3.136   3.784   7.135
 8020SOL    HW225995   3.184   3.635   7.180
 8021SOL     OW25996   2.241   2.087   7.403
 8021SOL    HW125997   2.305   2.162   7.388
 8021SOL    HW225998   2.148   2.121   7.401
 8022SOL     OW25999   3.324   3.238   6.506
 8022SOL    HW126000   3.264   3.275   6.578
 8022SOL    HW226001   3.299   3.143   6.488
 8023SOL     OW26002   2.440   2.590   5.865
 8023SOL    HW126003   2.446   2.677   5.816
 8023SOL    HW226004   2.367   2.596   5.934
 8024SOL     OW26005   3.139   2.261   6.509
 8024SOL    HW126006   3.051   2.213   6.506
 8024SOL    HW226007   3.199   2.217   6.576
 8025SOL     OW26008   3.447   3.538   5.935
 8025SOL    HW126009   3.546   3.550   5.926
 8025SOL    HW226010   3.407   3.524   5.845
 8026SOL     OW26011   2.668   2.456   7.048
 8026SOL    HW126012   2.658   2.416   7.140
 8026SOL    HW226013   2.652   2.385   6.979
 8027SOL     OW26014   3.281   2.421   7.263
 8027SOL    HW126015   3.229   2.490   7.314
 8027SOL    HW226016   3.372   2.411   7.305
 8028SOL     OW26017   2.803   2.734   7.210
 8028SOL    HW126018   2.858   2.682   7.145
 8028SOL    HW226019   2.730   2.782   7.161
 8029SOL     OW26020   2.880   2.238   6.761
 8029SOL    HW126021   2.788   2.255   6.798
 8029SOL    HW226022   2.873   2.188   6.675
 8030SOL     OW26023   2.894   2.539   5.987
 8030SOL    HW126024   2.927   2.548   6.081
 8030SOL    HW226025   2.803   2.498   5.987
 8031SOL     OW26026   1.984   2.717   6.386
 8031SOL    HW126027   2.073   2.717   6.431
 8031SOL    HW226028   1.933   2.799   6.412
 8032SOL     OW26029   1.969   3.758   7.170
 8032SOL    HW126030   1.966   3.740   7.269
 8032SOL    HW226031   1.876   3.763   7.134
 8033SOL     OW26032   2.718   2.233   5.776
 8033SOL    HW126033   2.775   2.269   5.703
 8033SOL    HW226034   2.666   2.155   5.742
 8034SOL     OW26035   3.539   2.446   7.394
 8034SOL    HW126036   3.544   2.530   7.342
 8034SOL    HW226037   3.570   2.369   7.338
 8035SOL     OW26038   3.320   3.006   6.156
 8035SOL    HW126039   3.414   2.997   6.122
 8035SOL    HW226040   3.268   3.065   6.095
 8036SOL     OW26041   2.220   3.656   6.476
 8036SOL    HW126042   2.254   3.562   6.470
 8036SOL    HW226043   2.292   3.715   6.512
 8037SOL     OW26044   3.688   2.982   6.492
 8037SOL    HW126045   3.658   3.034   6.412
 8037SOL    HW226046   3.611   2.974   6.557
 8038SOL     OW26047   3.094   3.435   7.121
 8038SOL    HW126048   3.064   3.355   7.174
 8038SOL    HW226049   3.015   3.476   7.075
 8039SOL     OW26050   2.205   2.888   5.880
 8039SOL    HW126051   2.289   2.892   5.827
 8039SOL    HW226052   2.140   2.826   5.835
 8040SOL     OW26053   3.345   2.594   6.234
 8040SOL    HW126054   3.326   2.555   6.324
 8040SOL    HW226055   3.425   2.654   6.239
 8041SOL     OW26056   2.362   3.117   7.305
 8041SOL    HW126057   2.351   3.091   7.209
 8041SOL    HW226058   2.273   3.122   7.349
 8042SOL     OW26059   3.012   3.587   5.869
 8042SOL    HW126060   2.922   3.571   5.910
 8042SOL    HW226061   3.034   3.512   5.807
 8043SOL     OW26062   2.036   2.121   7.103
 8043SOL    HW126063   1.958   2.172   7.139
 8043SOL    HW226064   2.028   2.025   7.131
 8044SOL     OW26065   3.492   3.243   5.718
 8044SOL    HW126066   3.460   3.337   5.705
 8044SOL    HW226067   3.432   3.180   5.669
 8045SOL     OW26068   2.307   3.648   5.878
 8045SOL    HW126069   2.348   3.700   5.954
 8045SOL    HW226070   2.378   3.598   5.830
 8046SOL     OW26071   3.254   1.960   6.050
 8046SOL    HW126072   3.246   1.931   5.954
 8046SOL    HW226073   3.342   1.930   6.087
 8047SOL     OW26074   2.060   3.691   6.813
 8047SOL    HW126075   2.118   3.620   6.853
 8047SOL    HW226076   2.035   3.665   6.720
 8048SOL     OW26077   2.820   3.576   6.422
 8048SOL    HW126078   2.908   3.530   6.433
 8048SOL    HW226079   2.771   3.537   6.344
 8049SOL     OW26080   2.231   2.520   6.039
 8049SOL    HW126081   2.227   2.437   5.982
 8049SOL    HW226082   2.143   2.534   6.083
 8050SOL     OW26083   3.365   2.076   7.299
 8050SOL    HW126084   3.378   2.082   7.398
 8050SOL    HW226085   3.268   2.086   7.278
 8051SOL     OW26086   2.576   2.008   5.711
 8051SOL    HW126087   2.645   1.935   5.710
 8051SOL    HW226088   2.508   1.991   5.641
 8052SOL     OW26089   2.683   2.133   7.442
 8052SOL    HW126090   2.766   2.090   7.405
 8052SOL    HW226091   2.622   2.062   7.476
 8053SOL     OW26092   2.732   3.385   6.830
 8053SOL    HW126093   2.710   3.392   6.733
 8053SOL    HW226094   2.778   3.298   6.848
 8054SOL     OW26095   3.155   2.481   7.022
 8054SOL    HW126096   3.200   2.457   7.108
 8054SOL    HW226097   3.194   2.565   6.986
 8055SOL     OW26098   2.786   2.358   6.440
 8055SOL    HW126099   2.747   2.338   6.351
 8055SOL    HW226100   2.829   2.276   6.477
 8056SOL     OW26101   2.406   1.911   6.045
 8056SOL    HW126102   2.337   1.902   6.117
 8056SOL    HW226103   2.399   2.002   6.004
 8057SOL     OW26104   3.319   3.054   5.615
 8057SOL    HW126105   3.374   2.997   5.676
 8057SOL    HW226106   3.233   3.078   5.661
 8058SOL     OW26107   2.124   2.028   5.750
 8058SOL    HW126108   2.167   2.096   5.691
 8058SOL    HW226109   2.195   1.970   5.792
 8059SOL     OW26110   2.813   2.115   6.006
 8059SOL    HW126111   2.783   2.157   5.920
 8059SOL    HW226112   2.912   2.126   6.016
 8060SOL     OW26113   2.896   2.592   6.987
 8060SOL    HW126114   2.820   2.531   7.010
 8060SOL    HW226115   2.982   2.543   7.000
 8061SOL     OW26116   3.068   3.461   6.420
 8061SOL    HW126117   3.100   3.510   6.339
 8061SOL    HW226118   3.106   3.504   6.502
 8062SOL     OW26119   2.319   2.922   6.317
 8062SOL    HW126120   2.280   2.865   6.389
 8062SOL    HW226121   2.249   2.943   6.249
 8063SOL     OW26122   3.144   3.621   6.215
 8063SOL    HW126123   3.234   3.659   6.195
 8063SOL    HW226124   3.075   3.694   6.212
 8064SOL     OW26125   2.897   2.359   5.603
 8064SOL    HW126126   2.854   2.449   5.595
 8064SOL    HW226127   2.957   2.358   5.683
 8065SOL     OW26128   2.415   2.147   6.943
 8065SOL    HW126129   2.478   2.086   6.991
 8065SOL    HW226130   2.339   2.094   6.906
 8066SOL     OW26131   2.678   2.254   6.199
 8066SOL    HW126132   2.639   2.328   6.145
 8066SOL    HW226133   2.735   2.196   6.140
 8067SOL     OW26134   2.857   1.918   6.291
 8067SOL    HW126135   2.795   1.914   6.212
 8067SOL    HW226136   2.832   1.846   6.357
 8068SOL     OW26137   3.284   2.972   6.447
 8068SOL    HW126138   3.234   2.888   6.467
 8068SOL    HW226139   3.304   2.976   6.349
 8069SOL     OW26140   3.306   2.491   6.489
 8069SOL    HW126141   3.239   2.418   6.506
 8069SOL    HW226142   3.373   2.493   6.563
 8070SOL     OW26143   3.675   2.637   5.939
 8070SOL    HW126144   3.722   2.614   6.024
 8070SOL    HW226145   3.705   2.575   5.866
 8071SOL     OW26146   2.360   3.316   5.794
 8071SOL    HW126147   2.261   3.302   5.791
 8071SOL    HW226148   2.404   3.257   5.726
 8072SOL     OW26149   3.645   3.140   6.270
 8072SOL    HW126150   3.738   3.174   6.277
 8072SOL    HW226151   3.581   3.216   6.271
 8073SOL     OW26152   3.258   2.445   5.692
 8073SOL    HW126153   3.179   2.407   5.740
 8073SOL    HW226154   3.334   2.457   5.757
 8074SOL     OW26155   2.399   2.129   5.890
 8074SOL    HW126156   2.468   2.096   5.826
 8074SOL    HW226157   2.364   2.217   5.860
 8075SOL     OW26158   3.582   3.124   7.112
 8075SOL    HW126159   3.660   3.062   7.117
 8075SOL    HW226160   3.609   3.214   7.145
 8076SOL     OW26161   2.851   3.152   6.914
 8076SOL    HW126162   2.778   3.145   6.983
 8076SOL    HW226163   2.937   3.122   6.955
 8077SOL     OW26164   3.479   3.509   7.285
 8077SOL    HW126165   3.446   3.550   7.200
 8077SOL    HW226166   3.558   3.451   7.267
 8078SOL     OW26167   3.026   3.118   6.698
 8078SOL    HW126168   2.944   3.128   6.755
 8078SOL    HW226169   3.003   3.140   6.603
 8079SOL     OW26170   3.472   2.966   6.664
 8079SOL    HW126171   3.456   3.033   6.738
 8079SOL    HW226172   3.396   2.971   6.599
 8080SOL     OW26173   2.834   1.910   6.949
 8080SOL    HW126174   2.852   1.898   6.851
 8080SOL    HW226175   2.907   1.965   6.989
 8081SOL     OW26176   2.806   3.017   7.252
 8081SOL    HW126177   2.731   2.999   7.316
 8081SOL    HW226178   2.854   2.931   7.232
 8082SOL     OW26179   2.604   2.890   5.944
 8082SOL    HW126180   2.579   2.859   6.035
 8082SOL    HW226181   2.683   2.838   5.911
 8083SOL     OW26182   2.296   2.683   6.847
 8083SOL    HW126183   2.356   2.681   6.927
 8083SOL    HW226184   2.234   2.605   6.850
 8084SOL     OW26185   3.124   2.251   6.874
 8084SOL    HW126186   3.137   2.335   6.926
 8084SOL    HW226187   3.033   2.253   6.831
 8085SOL     OW26188   1.938   3.420   6.947
 8085SOL    HW126189   1.888   3.492   6.900
 8085SOL    HW226190   2.036   3.440   6.943
 8086SOL     OW26191   2.149   3.010   6.120
 8086SOL    HW126192   2.151   3.108   6.106
 8086SOL    HW226193   2.168   2.962   6.034
 8087SOL     OW26194   2.354   2.507   6.477
 8087SOL    HW126195   2.379   2.523   6.382
 8087SOL    HW226196   2.434   2.475   6.528
 8088SOL     OW26197   3.135   3.158   6.011
 8088SOL    HW126198   3.169   3.247   6.040
 8088SOL    HW226199   3.070   3.123   6.079
 8089SOL     OW26200   3.187   3.336   6.724
 8089SOL    HW126201   3.231   3.350   6.812
 8089SOL    HW226202   3.128   3.255   6.730
 8090SOL     OW26203   3.429   2.505   5.977
 8090SOL    HW126204   3.385   2.527   6.064
 8090SOL    HW226205   3.504   2.569   5.960
 8091SOL     OW26206   2.207   3.478   6.905
 8091SOL    HW126207   2.204   3.430   6.817
 8091SOL    HW226208   2.293   3.457   6.951
 8092SOL     OW26209   2.303   2.530   7.212
 8092SOL    HW126210   2.371   2.583   7.161
 8092SOL    HW226211   2.272   2.453   7.157
 8093SOL     OW26212   3.534   2.675   7.254
 8093SOL    HW126213   3.442   2.712   7.241
 8093SOL    HW226214   3.589   2.693   7.173
 8094SOL     OW26215   2.902   2.017   7.338
 8094SOL    HW126216   2.976   2.085   7.335
 8094SOL    HW226217   2.936   1.929   7.304
 8095SOL     OW26218   2.364   1.860   7.324
 8095SOL    HW126219   2.306   1.803   7.267
 8095SOL    HW226220   2.315   1.944   7.347
 8096SOL     OW26221   2.533   2.704   6.698
 8096SOL    HW126222   2.515   2.773   6.628
 8096SOL    HW226223   2.451   2.692   6.755
 8097SOL     OW26224   3.154   2.731   6.525
 8097SOL    HW126225   3.060   2.697   6.515
 8097SOL    HW226226   3.218   2.655   6.515
 8098SOL     OW26227   3.042   2.365   5.837
 8098SOL    HW126228   3.062   2.286   5.896
 8098SOL    HW226229   2.991   2.434   5.889
 8099SOL     OW26230   2.167   2.045   6.867
 8099SOL    HW126231   2.114   2.080   6.944
 8099SOL    HW226232   2.146   1.949   6.853
 8100SOL     OW26233   1.877   3.166   6.870
 8100SOL    HW126234   1.896   3.104   6.946
 8100SOL    HW226235   1.898   3.260   6.897
 8101SOL     OW26236   2.582   2.442   6.611
 8101SOL    HW126237   2.660   2.422   6.552
 8101SOL    HW226238   2.587   2.537   6.642
 8102SOL     OW26239   3.639   2.877   7.405
 8102SOL    HW126240   3.604   2.798   7.356
 8102SOL    HW226241   3.571   2.910   7.470
 8103SOL     OW26242   2.193   1.876   6.219
 8103SOL    HW126243   2.199   1.966   6.262
 8103SOL    HW226244   2.182   1.806   6.289
 8104SOL     OW26245   3.618   2.306   5.959
 8104SOL    HW126246   3.592   2.211   5.973
 8104SOL    HW226247   3.536   2.364   5.964
 8105SOL     OW26248   2.898   2.612   6.494
 8105SOL    HW126249   2.870   2.641   6.585
 8105SOL    HW226250   2.863   2.520   6.476
 8106SOL     OW26251   2.846   3.496   7.290
 8106SOL    HW126252   2.847   3.525   7.195
 8106SOL    HW226253   2.874   3.400   7.296
 8107SOL     OW26254   3.694   3.367   7.173
 8107SOL    HW126255   3.709   3.397   7.079
 8107SOL    HW226256   3.779   3.374   7.225
 8108SOL     OW26257   2.271   2.752   7.391
 8108SOL    HW126258   2.345   2.754   7.458
 8108SOL    HW226259   2.284   2.673   7.331
 8109SOL     OW26260   3.172   2.691   5.606
 8109SOL    HW126261   3.195   2.597   5.632
 8109SOL    HW226262   3.215   2.712   5.519
 8110SOL     OW26263   3.010   3.191   6.434
 8110SOL    HW126264   3.044   3.135   6.358
 8110SOL    HW226265   3.044   3.285   6.424
 8111SOL     OW26266   2.227   2.744   6.519
 8111SOL    HW126267   2.271   2.655   6.503
 8111SOL    HW226268   2.220   2.760   6.617
 8112SOL     OW26269   2.164   2.387   6.633
 8112SOL    HW126270   2.144   2.292   6.608
 8112SOL    HW226271   2.226   2.426   6.565
 8113SOL     OW26272   3.087   2.224   7.287
 8113SOL    HW126273   3.026   2.276   7.347
 8113SOL    HW226274   3.168   2.279   7.267
 8114SOL     OW26275   3.048   2.060   7.057
 8114SOL    HW126276   3.046   2.115   7.141
 8114SOL    HW226277   3.082   2.116   6.982
 8115SOL     OW26278   1.959   3.645   6.556
 8115SOL    HW126279   1.908   3.579   6.502
 8115SOL    HW226280   2.053   3.651   6.523
 8116SOL     OW26281   2.342   3.415   6.459
 8116SOL    HW126282   2.432   3.454   6.480
 8116SOL    HW226283   2.354   3.334   6.401
 8117SOL     OW26284   2.807   2.682   6.738
 8117SOL    HW126285   2.844   2.654   6.827
 8117SOL    HW226286   2.708   2.691   6.744
 8118SOL     OW26287   3.309   2.800   7.185
 8118SOL    HW126288   3.302   2.900   7.185
 8118SOL    HW226289   3.280   2.765   7.095
 8119SOL     OW26290   2.647   2.425   5.963
 8119SOL    HW126291   2.665   2.355   5.894
 8119SOL    HW226292   2.575   2.486   5.931
 8120SOL     OW26293   3.491   2.482   6.690
 8120SOL    HW126294   3.459   2.415   6.758
 8120SOL    HW226295   3.591   2.476   6.683
 8121SOL     OW26296   2.111   3.413   7.348
 8121SOL    HW126297   2.059   3.446   7.426
 8121SOL    HW226298   2.129   3.315   7.358
 8122SOL     OW26299   2.619   2.290   6.836
 8122SOL    HW126300   2.542   2.236   6.868
 8122SOL    HW226301   2.593   2.341   6.753
 8123SOL     OW26302   2.858   3.539   7.019
 8123SOL    HW126303   2.813   3.478   6.954
 8123SOL    HW226304   2.848   3.634   6.988
 8124SOL     OW26305   2.298   2.368   5.789
 8124SOL    HW126306   2.363   2.443   5.804
 8124SOL    HW226307   2.213   2.404   5.752
 8125SOL     OW26308   1.943   3.001   7.079
 8125SOL    HW126309   1.995   2.999   7.164
 8125SOL    HW226310   1.954   2.913   7.031
 8126SOL     OW26311   3.147   2.886   6.760
 8126SOL    HW126312   3.148   2.827   6.679
 8126SOL    HW226313   3.105   2.974   6.736
 8127SOL     OW26314   3.235   2.790   5.859
 8127SOL    HW126315   3.183   2.752   5.936
 8127SOL    HW226316   3.202   2.749   5.774
 8128SOL     OW26317   3.602   3.565   6.736
 8128SOL    HW126318   3.679   3.595   6.680
 8128SOL    HW226319   3.572   3.474   6.706
 8129SOL     OW26320   3.153   3.594   6.643
 8129SOL    HW126321   3.241   3.643   6.644
 8129SOL    HW226322   3.165   3.504   6.686
 8130SOL     OW26323   2.588   3.539   7.360
 8130SOL    HW126324   2.542   3.581   7.281
 8130SOL    HW226325   2.686   3.536   7.344
 8131SOL     OW26326   3.595   2.039   6.020
 8131SOL    HW126327   3.695   2.044   6.023
 8131SOL    HW226328   3.564   1.963   6.077
 8132SOL     OW26329   3.257   3.395   6.091
 8132SOL    HW126330   3.322   3.432   6.025
 8132SOL    HW226331   3.200   3.469   6.127
 8133SOL     OW26332   1.966   3.702   7.431
 8133SOL    HW126333   1.940   3.612   7.465
 8133SOL    HW226334   2.029   3.745   7.495
 8134SOL     OW26335   3.170   2.783   6.160
 8134SOL    HW126336   3.229   2.706   6.182
 8134SOL    HW226337   3.226   2.866   6.150
 8135SOL     OW26338   2.615   3.168   7.076
 8135SOL    HW126339   2.645   3.176   7.171
 8135SOL    HW226340   2.578   3.255   7.045
 8136SOL     OW26341   2.537   3.529   5.775
 8136SOL    HW126342   2.557   3.545   5.678
 8136SOL    HW226343   2.487   3.443   5.784
 8137SOL     OW26344   3.478   3.590   6.987
 8137SOL    HW126345   3.522   3.587   6.897
 8137SOL    HW226346   3.501   3.676   7.033
 8138SOL     OW26347   3.703   2.017   6.527
 8138SOL    HW126348   3.729   1.922   6.506
 8138SOL    HW226349   3.611   2.034   6.494
 8139SOL     OW26350   3.080   3.394   5.682
 8139SOL    HW126351   3.082   3.297   5.708
 8139SOL    HW226352   2.998   3.412   5.628
 8140SOL     OW26353   2.648   2.878   7.027
 8140SOL    HW126354   2.709   2.878   6.947
 8140SOL    HW226355   2.637   2.972   7.060
 8141SOL     OW26356   2.812   2.754   5.838
 8141SOL    HW126357   2.883   2.803   5.788
 8141SOL    HW226358   2.854   2.681   5.892
 8142SOL     OW26359   3.344   3.493   5.674
 8142SOL    HW126360   3.251   3.457   5.667
 8142SOL    HW226361   3.387   3.492   5.584
 8143SOL     OW26362   3.454   3.161   6.872
 8143SOL    HW126363   3.507   3.131   6.951
 8143SOL    HW226364   3.389   3.231   6.900
 8144SOL     OW26365   2.999   3.005   6.214
 8144SOL    HW126366   2.907   2.975   6.238
 8144SOL    HW226367   3.056   2.925   6.194
 8145SOL     OW26368   2.903   2.100   6.510
 8145SOL    HW126369   2.886   2.062   6.420
 8145SOL    HW226370   2.911   2.026   6.577
 8146SOL     OW26371   2.444   3.297   6.053
 8146SOL    HW126372   2.403   3.304   5.962
 8146SOL    HW226373   2.452   3.388   6.093
 8147SOL     OW26374   3.646   2.192   6.990
 8147SOL    HW126375   3.700   2.273   6.971
 8147SOL    HW226376   3.654   2.128   6.913
 8148SOL     OW26377   2.083   3.258   5.832
 8148SOL    HW126378   1.984   3.244   5.827
 8148SOL    HW226379   2.111   3.265   5.927
 8149SOL     OW26380   2.067   2.911   7.316
 8149SOL    HW126381   1.990   2.849   7.301
 8149SOL    HW226382   2.147   2.858   7.344
 8150SOL     OW26383   2.602   1.993   7.078
 8150SOL    HW126384   2.681   1.963   7.024
 8150SOL    HW226385   2.634   2.023   7.168
 8151SOL     OW26386   3.267   2.712   6.929
 8151SOL    HW126387   3.211   2.773   6.873
 8151SOL    HW226388   3.362   2.715   6.898
 8152SOL     OW26389   1.870   2.031   5.846
 8152SOL    HW126390   1.812   2.066   5.773
 8152SOL    HW226391   1.966   2.039   5.820
 8153SOL     OW26392   3.082   3.118   5.740
 8153SOL    HW126393   3.038   3.029   5.725
 8153SOL    HW226394   3.100   3.130   5.838
 8154SOL     OW26395   2.483   2.658   7.046
 8154SOL    HW126396   2.531   2.746   7.045
 8154SOL    HW226397   2.550   2.584   7.045
 8155SOL     OW26398   3.394   3.725   6.644
 8155SOL    HW126399   3.431   3.789   6.577
 8155SOL    HW226400   3.468   3.670   6.682
 8156SOL     OW26401   2.646   2.371   7.305
 8156SOL    HW126402   2.675   2.448   7.363
 8156SOL    HW226403   2.658   2.285   7.356
 8157SOL     OW26404   3.311   3.074   7.179
 8157SOL    HW126405   3.296   3.090   7.277
 8157SOL    HW226406   3.406   3.096   7.156
 8158SOL     OW26407   2.218   3.645   7.233
 8158SOL    HW126408   2.137   3.688   7.194
 8158SOL    HW226409   2.193   3.558   7.275
 8159SOL     OW26410   3.515   2.735   6.811
 8159SOL    HW126411   3.511   2.652   6.755
 8159SOL    HW226412   3.505   2.816   6.752
 8160SOL     OW26413   3.082   2.174   6.033
 8160SOL    HW126414   3.144   2.095   6.033
 8160SOL    HW226415   3.103   2.233   6.111
 8161SOL     OW26416   2.426   2.564   6.227
 8161SOL    HW126417   2.475   2.649   6.206
 8161SOL    HW226418   2.357   2.547   6.157
 8162SOL     OW26419   3.589   2.222   7.253
 8162SOL    HW126420   3.609   2.216   7.155
 8162SOL    HW226421   3.505   2.172   7.272
 8163SOL     OW26422   3.672   2.751   7.034
 8163SOL    HW126423   3.710   2.843   7.038
 8163SOL    HW226424   3.613   2.742   6.954
 8164SOL     OW26425   2.639   3.248   5.662
 8164SOL    HW126426   2.654   3.223   5.758
 8164SOL    HW226427   2.709   3.313   5.633
 8165SOL     OW26428   2.562   3.565   6.527
 8165SOL    HW126429   2.520   3.655   6.539
 8165SOL    HW226430   2.655   3.576   6.493
 8166SOL     OW26431   2.768   2.886   6.337
 8166SOL    HW126432   2.800   2.825   6.409
 8166SOL    HW226433   2.754   2.978   6.374
 8167SOL     OW26434   2.977   2.879   5.654
 8167SOL    HW126435   2.913   2.891   5.578
 8167SOL    HW226436   3.044   2.809   5.630
 8168SOL     OW26437   3.660   3.429   6.442
 8168SOL    HW126438   3.593   3.413   6.370
 8168SOL    HW226439   3.635   3.376   6.523
 8169SOL     OW26440   2.111   3.149   7.433
 8169SOL    HW126441   2.092   3.060   7.391
 8169SOL    HW226442   2.038   3.170   7.498
 8170SOL     OW26443   1.913   3.090   6.250
 8170SOL    HW126444   1.877   3.036   6.326
 8170SOL    HW226445   1.993   3.043   6.211
 8171SOL     OW26446   2.585   3.268   7.346
 8171SOL    HW126447   2.495   3.227   7.330
 8171SOL    HW226448   2.576   3.368   7.347
 8172SOL     OW26449   3.670   2.010   6.798
 8172SOL    HW126450   3.660   1.911   6.809
 8172SOL    HW226451   3.686   2.032   6.702
 8173SOL     OW26452   3.536   3.314   6.659
 8173SOL    HW126453   3.462   3.288   6.597
 8173SOL    HW226454   3.533   3.257   6.741
 8174SOL     OW26455   2.116   2.479   6.873
 8174SOL    HW126456   2.154   2.418   6.942
 8174SOL    HW226457   2.133   2.440   6.782
 8175SOL     OW26458   3.292   2.134   6.696
 8175SOL    HW126459   3.314   2.040   6.719
 8175SOL    HW226460   3.238   2.175   6.770
 8176SOL     OW26461   2.909   1.870   6.669
 8176SOL    HW126462   2.847   1.812   6.616
 8176SOL    HW226463   2.999   1.827   6.672
 8177SOL     OW26464   2.642   3.161   5.918
 8177SOL    HW126465   2.634   3.062   5.929
 8177SOL    HW226466   2.578   3.207   5.979
 8178SOL     OW26467   2.508   3.402   6.991
 8178SOL    HW126468   2.498   3.486   7.044
 8178SOL    HW226469   2.581   3.415   6.923
 8179SOL     OW26470   3.226   1.865   5.802
 8179SOL    HW126471   3.281   1.816   5.734
 8179SOL    HW226472   3.135   1.824   5.807
 8180SOL     OW26473   3.142   2.335   6.244
 8180SOL    HW126474   3.095   2.423   6.236
 8180SOL    HW226475   3.139   2.305   6.339
 8181SOL     OW26476   3.445   2.076   6.475
 8181SOL    HW126477   3.392   2.110   6.552
 8181SOL    HW226478   3.443   2.143   6.400
 8182SOL     OW26479   2.742   3.544   5.973
 8182SOL    HW126480   2.677   3.530   5.898
 8182SOL    HW226481   2.730   3.636   6.011
 8183SOL     OW26482   2.080   2.151   8.435
 8183SOL    HW126483   2.118   2.122   8.523
 8183SOL    HW226484   1.990   2.109   8.423
 8184SOL     OW26485   1.820   2.224   8.087
 8184SOL    HW126486   1.735   2.259   8.126
 8184SOL    HW226487   1.816   2.125   8.080
 8185SOL     OW26488   2.447   3.186   8.685
 8185SOL    HW126489   2.365   3.177   8.628
 8185SOL    HW226490   2.462   3.282   8.707
 8186SOL     OW26491   3.399   3.275   8.086
 8186SOL    HW126492   3.363   3.287   8.178
 8186SOL    HW226493   3.345   3.328   8.021
 8187SOL     OW26494   3.003   2.603   8.130
 8187SOL    HW126495   3.056   2.686   8.111
 8187SOL    HW226496   2.959   2.611   8.219
 8188SOL     OW26497   3.646   2.415   7.640
 8188SOL    HW126498   3.607   2.433   7.549
 8188SOL    HW226499   3.588   2.350   7.688
 8189SOL     OW26500   2.589   2.987   8.539
 8189SOL    HW126501   2.530   3.028   8.608
 8189SOL    HW226502   2.626   3.058   8.480
 8190SOL     OW26503   2.777   2.582   9.234
 8190SOL    HW126504   2.798   2.645   9.310
 8190SOL    HW226505   2.785   2.631   9.147
 8191SOL     OW26506   2.590   2.860   8.088
 8191SOL    HW126507   2.649   2.861   8.169
 8191SOL    HW226508   2.509   2.917   8.105
 8192SOL     OW26509   2.572   3.025   9.291
 8192SOL    HW126510   2.634   3.093   9.330
 8192SOL    HW226511   2.492   3.071   9.252
 8193SOL     OW26512   2.225   3.231   8.523
 8193SOL    HW126513   2.154   3.170   8.487
 8193SOL    HW226514   2.263   3.286   8.449
 8194SOL     OW26515   3.274   3.386   8.824
 8194SOL    HW126516   3.340   3.460   8.836
 8194SOL    HW226517   3.194   3.403   8.880
 8195SOL     OW26518   2.364   2.209   8.878
 8195SOL    HW126519   2.446   2.155   8.896
 8195SOL    HW226520   2.284   2.162   8.917
 8196SOL     OW26521   3.475   2.323   8.185
 8196SOL    HW126522   3.462   2.361   8.093
 8196SOL    HW226523   3.421   2.376   8.251
 8197SOL     OW26524   2.113   3.616   7.898
 8197SOL    HW126525   2.139   3.678   7.971
 8197SOL    HW226526   2.181   3.620   7.825
 8198SOL     OW26527   2.974   3.202   9.133
 8198SOL    HW126528   3.069   3.170   9.144
 8198SOL    HW226529   2.911   3.126   9.148
 8199SOL     OW26530   2.223   2.927   8.342
 8199SOL    HW126531   2.227   2.832   8.373
 8199SOL    HW226532   2.149   2.975   8.389
 8200SOL     OW26533   2.422   3.700   8.858
 8200SOL    HW126534   2.341   3.667   8.908
 8200SOL    HW226535   2.468   3.771   8.912
 8201SOL     OW26536   2.455   2.819   7.615
 8201SOL    HW126537   2.499   2.861   7.536
 8201SOL    HW226538   2.506   2.843   7.698
 8202SOL     OW26539   3.587   1.939   8.957
 8202SOL    HW126540   3.626   1.987   8.878
 8202SOL    HW226541   3.517   1.997   8.999
 8203SOL     OW26542   1.878   2.569   8.080
 8203SOL    HW126543   1.868   2.470   8.092
 8203SOL    HW226544   1.930   2.607   8.156
 8204SOL     OW26545   3.740   3.567   7.797
 8204SOL    HW126546   3.820   3.544   7.851
 8204SOL    HW226547   3.746   3.663   7.767
 8205SOL     OW26548   1.938   3.456   7.553
 8205SOL    HW126549   1.911   3.361   7.567
 8205SOL    HW226550   1.914   3.510   7.634
 8206SOL     OW26551   3.559   2.801   8.191
 8206SOL    HW126552   3.643   2.757   8.222
 8206SOL    HW226553   3.581   2.892   8.155
 8207SOL     OW26554   3.497   2.970   7.854
 8207SOL    HW126555   3.584   2.932   7.821
 8207SOL    HW226556   3.511   3.012   7.944
 8208SOL     OW26557   1.967   2.653   8.940
 8208SOL    HW126558   2.026   2.706   8.879
 8208SOL    HW226559   1.877   2.696   8.946
 8209SOL     OW26560   2.470   3.249   8.144
 8209SOL    HW126561   2.436   3.155   8.152
 8209SOL    HW226562   2.455   3.282   8.051
 8210SOL     OW26563   3.117   3.083   8.862
 8210SOL    HW126564   3.155   3.023   8.791
 8210SOL    HW226565   3.180   3.087   8.939
 8211SOL     OW26566   2.685   1.854   7.946
 8211SOL    HW126567   2.729   1.940   7.920
 8211SOL    HW226568   2.586   1.868   7.952
 8212SOL     OW26569   2.100   2.813   8.763
 8212SOL    HW126570   2.186   2.763   8.754
 8212SOL    HW226571   2.068   2.840   8.672
 8213SOL     OW26572   3.431   2.910   7.591
 8213SOL    HW126573   3.427   2.811   7.593
 8213SOL    HW226574   3.450   2.945   7.683
 8214SOL     OW26575   3.025   3.687   9.038
 8214SOL    HW126576   3.037   3.750   8.962
 8214SOL    HW226577   3.028   3.592   9.004
 8215SOL     OW26578   2.219   2.152   9.326
 8215SOL    HW126579   2.258   2.226   9.381
 8215SOL    HW226580   2.149   2.189   9.265
 8216SOL     OW26581   3.291   3.281   8.340
 8216SOL    HW126582   3.248   3.298   8.429
 8216SOL    HW226583   3.291   3.183   8.322
 8217SOL     OW26584   3.542   3.682   8.034
 8217SOL    HW126585   3.502   3.629   7.959
 8217SOL    HW226586   3.475   3.692   8.107
 8218SOL     OW26587   2.456   2.590   7.800
 8218SOL    HW126588   2.447   2.655   7.724
 8218SOL    HW226589   2.407   2.506   7.777
 8219SOL     OW26590   3.128   2.250   8.372
 8219SOL    HW126591   3.044   2.197   8.369
 8219SOL    HW226592   3.191   2.208   8.438
 8220SOL     OW26593   3.465   3.547   7.797
 8220SOL    HW126594   3.565   3.543   7.798
 8220SOL    HW226595   3.432   3.538   7.703
 8221SOL     OW26596   2.644   2.429   8.875
 8221SOL    HW126597   2.614   2.399   8.965
 8221SOL    HW226598   2.617   2.361   8.807
 8222SOL     OW26599   3.227   2.343   9.103
 8222SOL    HW126600   3.233   2.395   9.188
 8222SOL    HW226601   3.303   2.278   9.098
 8223SOL     OW26602   2.818   2.749   9.012
 8223SOL    HW126603   2.863   2.679   8.956
 8223SOL    HW226604   2.765   2.810   8.953
 8224SOL     OW26605   2.862   2.218   8.626
 8224SOL    HW126606   2.766   2.234   8.647
 8224SOL    HW226607   2.870   2.159   8.546
 8225SOL     OW26608   2.888   2.552   7.886
 8225SOL    HW126609   2.930   2.570   7.975
 8225SOL    HW226610   2.800   2.505   7.900
 8226SOL     OW26611   1.994   2.687   8.290
 8226SOL    HW126612   2.081   2.685   8.338
 8226SOL    HW226613   1.935   2.757   8.330
 8227SOL     OW26614   1.952   3.717   9.049
 8227SOL    HW126615   1.968   3.686   9.143
 8227SOL    HW226616   1.859   3.692   9.022
 8228SOL     OW26617   2.728   2.246   7.688
 8228SOL    HW126618   2.821   2.284   7.689
 8228SOL    HW226619   2.709   2.209   7.597
 8229SOL     OW26620   3.524   2.463   9.310
 8229SOL    HW126621   3.510   2.543   9.252
 8229SOL    HW226622   3.556   2.386   9.255
 8230SOL     OW26623   3.216   2.966   7.844
 8230SOL    HW126624   3.315   2.971   7.849
 8230SOL    HW226625   3.178   3.058   7.840
 8231SOL     OW26626   2.413   1.944   8.380
 8231SOL    HW126627   2.423   1.979   8.474
 8231SOL    HW226628   2.428   2.018   8.315
 8232SOL     OW26629   2.858   3.313   7.887
 8232SOL    HW126630   2.835   3.393   7.832
 8232SOL    HW226631   2.825   3.327   7.981
 8233SOL     OW26632   2.243   3.652   8.335
 8233SOL    HW126633   2.274   3.557   8.337
 8233SOL    HW226634   2.318   3.712   8.364
 8234SOL     OW26635   3.029   3.412   8.949
 8234SOL    HW126636   3.016   3.345   9.023
 8234SOL    HW226637   2.978   3.382   8.868
 8235SOL     OW26638   2.188   2.874   7.692
 8235SOL    HW126639   2.284   2.867   7.663
 8235SOL    HW226640   2.137   2.797   7.656
 8236SOL     OW26641   3.343   2.649   8.145
 8236SOL    HW126642   3.325   2.589   8.223
 8236SOL    HW226643   3.425   2.703   8.164
 8237SOL     OW26644   2.341   3.162   9.194
 8237SOL    HW126645   2.316   3.166   9.097
 8237SOL    HW226646   2.260   3.149   9.250
 8238SOL     OW26647   2.998   3.637   7.664
 8238SOL    HW126648   2.912   3.607   7.705
 8238SOL    HW226649   3.031   3.566   7.601
 8239SOL     OW26650   2.124   2.091   8.953
 8239SOL    HW126651   2.096   2.162   9.017
 8239SOL    HW226652   2.073   2.007   8.971
 8240SOL     OW26653   3.474   3.251   7.559
 8240SOL    HW126654   3.450   3.348   7.554
 8240SOL    HW226655   3.405   3.197   7.511
 8241SOL     OW26656   2.325   3.672   7.734
 8241SOL    HW126657   2.372   3.718   7.809
 8241SOL    HW226658   2.389   3.613   7.686
 8242SOL     OW26659   3.245   1.959   7.895
 8242SOL    HW126660   3.242   1.932   7.799
 8242SOL    HW226661   3.337   1.943   7.931
 8243SOL     OW26662   2.103   3.651   8.675
 8243SOL    HW126663   2.150   3.567   8.702
 8243SOL    HW226664   2.064   3.641   8.584
 8244SOL     OW26665   2.814   3.520   8.295
 8244SOL    HW126666   2.908   3.487   8.306
 8244SOL    HW226667   2.770   3.469   8.221
 8245SOL     OW26668   3.376   2.090   9.071
 8245SOL    HW126669   3.364   2.075   9.170
 8245SOL    HW226670   3.297   2.054   9.023
 8246SOL     OW26671   2.519   1.939   7.537
 8246SOL    HW126672   2.548   1.855   7.583
 8246SOL    HW226673   2.460   1.916   7.460
 8247SOL     OW26674   2.640   2.121   9.194
 8247SOL    HW126675   2.722   2.065   9.197
 8247SOL    HW226676   2.575   2.089   9.263
 8248SOL     OW26677   2.714   3.388   8.625
 8248SOL    HW126678   2.689   3.337   8.542
 8248SOL    HW226679   2.783   3.337   8.676
 8249SOL     OW26680   3.137   2.458   8.873
 8249SOL    HW126681   3.169   2.422   8.960
 8249SOL    HW226682   3.177   2.548   8.858
 8250SOL     OW26683   2.668   3.212   8.399
 8250SOL    HW126684   2.763   3.215   8.367
 8250SOL    HW226685   2.606   3.231   8.322
 8251SOL     OW26686   2.782   2.368   8.343
 8251SOL    HW126687   2.759   2.335   8.251
 8251SOL    HW226688   2.826   2.295   8.395
 8252SOL     OW26689   2.419   1.902   7.948
 8252SOL    HW126690   2.337   1.909   8.004
 8252SOL    HW226691   2.426   1.984   7.890
 8253SOL     OW26692   3.276   3.092   7.451
 8253SOL    HW126693   3.321   3.017   7.499
 8253SOL    HW226694   3.186   3.108   7.491
 8254SOL     OW26695   2.128   1.930   7.605
 8254SOL    HW126696   2.176   1.991   7.542
 8254SOL    HW226697   2.195   1.874   7.654
 8255SOL     OW26698   2.806   2.089   7.902
 8255SOL    HW126699   2.764   2.137   7.825
 8255SOL    HW226700   2.904   2.110   7.904
 8256SOL     OW26701   2.881   2.556   8.830
 8256SOL    HW126702   2.806   2.493   8.847
 8256SOL    HW226703   2.969   2.508   8.840
 8257SOL     OW26704   3.075   3.430   8.242
 8257SOL    HW126705   3.093   3.501   8.174
 8257SOL    HW226706   3.161   3.389   8.270
 8258SOL     OW26707   2.362   3.003   8.128
 8258SOL    HW126708   2.313   2.973   8.210
 8258SOL    HW226709   2.299   3.010   8.051
 8259SOL     OW26710   3.104   3.643   8.062
 8259SOL    HW126711   3.162   3.713   8.018
 8259SOL    HW226712   3.021   3.687   8.097
 8260SOL     OW26713   2.957   2.401   7.460
 8260SOL    HW126714   2.876   2.458   7.452
 8260SOL    HW226715   2.970   2.375   7.556
 8261SOL     OW26716   1.988   2.414   8.807
 8261SOL    HW126717   2.086   2.403   8.789
 8261SOL    HW226718   1.974   2.494   8.865
 8262SOL     OW26719   2.434   2.028   8.637
 8262SOL    HW126720   2.458   1.954   8.700
 8262SOL    HW226721   2.339   2.055   8.653
 8263SOL     OW26722   2.722   2.269   8.101
 8263SOL    HW126723   2.683   2.335   8.037
 8263SOL    HW226724   2.756   2.190   8.050
 8264SOL     OW26725   2.865   1.907   8.173
 8264SOL    HW126726   2.807   1.915   8.092
 8264SOL    HW226727   2.831   1.832   8.230
 8265SOL     OW26728   3.310   3.021   8.266
 8265SOL    HW126729   3.242   2.959   8.228
 8265SOL    HW226730   3.400   3.000   8.226
 8266SOL     OW26731   3.301   2.473   8.357
 8266SOL    HW126732   3.234   2.400   8.367
 8266SOL    HW226733   3.370   2.465   8.429
 8267SOL     OW26734   3.660   2.613   7.827
 8267SOL    HW126735   3.722   2.586   7.900
 8267SOL    HW226736   3.664   2.545   7.753
 8268SOL     OW26737   2.305   3.319   7.652
 8268SOL    HW126738   2.224   3.307   7.710
 8268SOL    HW226739   2.295   3.264   7.569
 8269SOL     OW26740   3.570   3.069   8.106
 8269SOL    HW126741   3.661   3.104   8.127
 8269SOL    HW226742   3.506   3.145   8.096
 8270SOL     OW26743   2.449   2.093   7.766
 8270SOL    HW126744   2.475   2.057   7.676
 8270SOL    HW226745   2.428   2.190   7.758
 8271SOL     OW26746   3.563   3.132   8.995
 8271SOL    HW126747   3.629   3.056   8.999
 8271SOL    HW226748   3.609   3.217   9.021
 8272SOL     OW26749   2.886   3.215   8.784
 8272SOL    HW126750   2.801   3.189   8.830
 8272SOL    HW226751   2.963   3.167   8.826
 8273SOL     OW26752   3.483   3.492   9.132
 8273SOL    HW126753   3.453   3.519   9.041
 8273SOL    HW226754   3.569   3.442   9.125
 8274SOL     OW26755   3.013   3.103   8.562
 8274SOL    HW126756   2.951   3.135   8.634
 8274SOL    HW226757   2.977   3.133   8.473
 8275SOL     OW26758   2.810   1.911   8.836
 8275SOL    HW126759   2.827   1.889   8.740
 8275SOL    HW226760   2.893   1.952   8.875
 8276SOL     OW26761   2.824   2.968   9.179
 8276SOL    HW126762   2.729   2.983   9.206
 8276SOL    HW226763   2.830   2.889   9.119
 8277SOL     OW26764   2.627   2.887   7.818
 8277SOL    HW126765   2.618   2.869   7.915
 8277SOL    HW226766   2.699   2.830   7.779
 8278SOL     OW26767   2.321   2.660   8.744
 8278SOL    HW126768   2.387   2.668   8.818
 8278SOL    HW226769   2.290   2.565   8.737
 8279SOL     OW26770   3.103   2.218   8.746
 8279SOL    HW126771   3.122   2.306   8.788
 8279SOL    HW226772   3.014   2.220   8.701
 8280SOL     OW26773   1.929   3.395   8.766
 8280SOL    HW126774   1.883   3.468   8.716
 8280SOL    HW226775   2.028   3.408   8.761
 8281SOL     OW26776   2.181   3.030   7.924
 8281SOL    HW126777   2.156   3.117   7.883
 8281SOL    HW226778   2.190   2.961   7.852
 8282SOL     OW26779   2.368   2.431   8.236
 8282SOL    HW126780   2.393   2.507   8.175
 8282SOL    HW226781   2.435   2.423   8.309
 8283SOL     OW26782   3.106   3.221   7.818
 8283SOL    HW126783   3.169   3.292   7.849
 8283SOL    HW226784   3.014   3.242   7.850
 8284SOL     OW26785   3.174   3.322   8.578
 8284SOL    HW126786   3.216   3.341   8.666
 8284SOL    HW226787   3.122   3.237   8.583
 8285SOL     OW26788   3.449   2.478   7.954
 8285SOL    HW126789   3.393   2.539   8.011
 8285SOL    HW226790   3.518   2.532   7.906
 8286SOL     OW26791   2.204   3.398   8.733
 8286SOL    HW126792   2.202   3.334   8.656
 8286SOL    HW226793   2.299   3.425   8.751
 8287SOL     OW26794   2.368   2.573   9.125
 8287SOL    HW126795   2.412   2.625   9.053
 8287SOL    HW226796   2.425   2.495   9.150
 8288SOL     OW26797   3.474   2.681   9.148
 8288SOL    HW126798   3.381   2.716   9.148
 8288SOL    HW226799   3.518   2.704   9.061
 8289SOL     OW26800   2.860   1.967   9.201
 8289SOL    HW126801   2.925   2.043   9.195
 8289SOL    HW226802   2.903   1.883   9.167
 8290SOL     OW26803   2.347   1.931   9.226
 8290SOL    HW126804   2.301   1.874   9.158
 8290SOL    HW226805   2.293   2.012   9.245
 8291SOL     OW26806   2.500   2.713   8.547
 8291SOL    HW126807   2.522   2.810   8.536
 8291SOL    HW226808   2.435   2.703   8.622
 8292SOL     OW26809   3.149   2.690   8.457
 8292SOL    HW126810   3.055   2.667   8.431
 8292SOL    HW226811   3.211   2.620   8.423
 8293SOL     OW26812   2.976   2.351   7.724
 8293SOL    HW126813   3.023   2.282   7.778
 8293SOL    HW226814   2.958   2.431   7.780
 8294SOL     OW26815   2.167   2.060   8.678
 8294SOL    HW126816   2.148   2.086   8.773
 8294SOL    HW226817   2.133   1.968   8.661
 8295SOL     OW26818   1.946   3.127   8.712
 8295SOL    HW126819   1.968   3.082   8.798
 8295SOL    HW226820   1.930   3.225   8.728
 8296SOL     OW26821   2.542   2.448   8.452
 8296SOL    HW126822   2.632   2.428   8.411
 8296SOL    HW226823   2.538   2.544   8.478
 8297SOL     OW26824   3.611   2.844   9.325
 8297SOL    HW126825   3.559   2.782   9.266
 8297SOL    HW226826   3.552   2.877   9.399
 8298SOL     OW26827   2.183   1.911   8.087
 8298SOL    HW126828   2.141   2.000   8.104
 8298SOL    HW226829   2.185   1.858   8.172
 8299SOL     OW26830   3.472   2.258   7.783
 8299SOL    HW126831   3.527   2.193   7.836
 8299SOL    HW226832   3.441   2.332   7.842
 8300SOL     OW26833   2.887   2.615   8.382
 8300SOL    HW126834   2.856   2.644   8.473
 8300SOL    HW226835   2.854   2.523   8.363
 8301SOL     OW26836   2.858   3.430   9.238
 8301SOL    HW126837   2.819   3.489   9.167
 8301SOL    HW226838   2.888   3.344   9.196
 8302SOL     OW26839   3.724   3.363   9.036
 8302SOL    HW126840   3.759   3.388   8.946
 8302SOL    HW226841   3.796   3.375   9.105
 8303SOL     OW26842   2.259   2.776   9.283
 8303SOL    HW126843   2.329   2.805   9.349
 8303SOL    HW226844   2.295   2.701   9.228
 8304SOL     OW26845   3.384   2.101   7.565
 8304SOL    HW126846   3.327   2.027   7.601
 8304SOL    HW226847   3.409   2.163   7.640
 8305SOL     OW26848   2.928   3.211   8.322
 8305SOL    HW126849   2.939   3.132   8.261
 8305SOL    HW226850   2.981   3.288   8.287
 8306SOL     OW26851   2.233   2.671   8.434
 8306SOL    HW126852   2.330   2.682   8.456
 8306SOL    HW226853   2.208   2.575   8.443
 8307SOL     OW26854   2.178   2.401   8.430
 8307SOL    HW126855   2.137   2.310   8.431
 8307SOL    HW226856   2.239   2.410   8.351
 8308SOL     OW26857   3.005   2.194   9.151
 8308SOL    HW126858   2.947   2.243   9.216
 8308SOL    HW226859   3.086   2.249   9.130
 8309SOL     OW26860   3.047   2.027   8.936
 8309SOL    HW126861   3.023   2.083   9.015
 8309SOL    HW226862   3.073   2.086   8.860
 8310SOL     OW26863   1.886   3.189   7.609
 8310SOL    HW126864   1.792   3.208   7.579
 8310SOL    HW226865   1.889   3.101   7.655
 8311SOL     OW26866   1.987   3.640   8.427
 8311SOL    HW126867   1.961   3.547   8.399
 8311SOL    HW226868   2.077   3.662   8.389
 8312SOL     OW26869   2.355   3.398   8.344
 8312SOL    HW126870   2.433   3.451   8.378
 8312SOL    HW226871   2.383   3.343   8.266
 8313SOL     OW26872   2.778   2.689   8.613
 8313SOL    HW126873   2.817   2.645   8.695
 8313SOL    HW226874   2.678   2.681   8.616
 8314SOL     OW26875   1.915   2.459   8.548
 8314SOL    HW126876   1.997   2.454   8.490
 8314SOL    HW226877   1.941   2.441   8.643
 8315SOL     OW26878   2.098   2.516   9.146
 8315SOL    HW126879   2.195   2.536   9.137
 8315SOL    HW226880   2.046   2.573   9.082
 8316SOL     OW26881   3.233   2.805   9.099
 8316SOL    HW126882   3.253   2.903   9.092
 8316SOL    HW226883   3.221   2.766   9.008
 8317SOL     OW26884   2.653   2.421   7.885
 8317SOL    HW126885   2.662   2.354   7.812
 8317SOL    HW226886   2.581   2.487   7.862
 8318SOL     OW26887   3.495   2.447   8.540
 8318SOL    HW126888   3.478   2.421   8.635
 8318SOL    HW226889   3.590   2.477   8.530
 8319SOL     OW26890   2.080   3.400   9.156
 8319SOL    HW126891   2.059   3.476   9.218
 8319SOL    HW226892   2.094   3.316   9.208
 8320SOL     OW26893   2.592   2.262   8.655
 8320SOL    HW126894   2.535   2.180   8.655
 8320SOL    HW226895   2.560   2.324   8.583
 8321SOL     OW26896   2.729   3.574   9.017
 8321SOL    HW126897   2.702   3.502   8.953
 8321SOL    HW226898   2.756   3.655   8.966
 8322SOL     OW26899   2.015   2.995   8.947
 8322SOL    HW126900   2.022   2.965   9.042
 8322SOL    HW226901   2.051   2.924   8.887
 8323SOL     OW26902   3.188   2.899   8.626
 8323SOL    HW126903   3.177   2.823   8.562
 8323SOL    HW226904   3.129   2.975   8.598
 8324SOL     OW26905   3.662   3.512   8.631
 8324SOL    HW126906   3.709   3.568   8.563
 8324SOL    HW226907   3.609   3.441   8.585
 8325SOL     OW26908   3.056   3.571   8.608
 8325SOL    HW126909   3.135   3.619   8.648
 8325SOL    HW226910   3.084   3.479   8.581
 8326SOL     OW26911   2.016   3.044   8.468
 8326SOL    HW126912   1.985   3.076   8.557
 8326SOL    HW226913   1.940   2.999   8.421
 8327SOL     OW26914   2.538   3.570   9.207
 8327SOL    HW126915   2.467   3.639   9.194
 8327SOL    HW226916   2.612   3.586   9.142
 8328SOL     OW26917   3.638   2.082   7.910
 8328SOL    HW126918   3.690   2.061   7.827
 8328SOL    HW226919   3.589   2.001   7.939
 8329SOL     OW26920   3.247   3.436   7.923
 8329SOL    HW126921   3.324   3.478   7.874
 8329SOL    HW226922   3.189   3.507   7.962
 8330SOL     OW26923   2.003   3.621   9.300
 8330SOL    HW126924   1.952   3.566   9.367
 8330SOL    HW226925   2.040   3.702   9.346
 8331SOL     OW26926   3.156   2.832   8.083
 8331SOL    HW126927   3.229   2.766   8.100
 8331SOL    HW226928   3.172   2.877   7.995
 8332SOL     OW26929   2.635   3.157   8.886
 8332SOL    HW126930   2.612   3.210   8.968
 8332SOL    HW226931   2.561   3.164   8.820
 8333SOL     OW26932   2.513   3.509   7.619
 8333SOL    HW126933   2.537   3.521   7.523
 8333SOL    HW226934   2.447   3.434   7.627
 8334SOL     OW26935   3.478   3.581   8.832
 8334SOL    HW126936   3.544   3.549   8.764
 8334SOL    HW226937   3.518   3.657   8.884
 8335SOL     OW26938   3.711   2.024   8.462
 8335SOL    HW126939   3.739   1.934   8.429
 8335SOL    HW226940   3.626   2.052   8.416
 8336SOL     OW26941   2.084   2.159   8.157
 8336SOL    HW126942   1.991   2.186   8.133
 8336SOL    HW226943   2.094   2.158   8.257
 8337SOL     OW26944   3.096   3.455   7.485
 8337SOL    HW126945   3.077   3.361   7.511
 8337SOL    HW226946   3.044   3.478   7.402
 8338SOL     OW26947   2.672   2.891   8.834
 8338SOL    HW126948   2.701   2.890   8.738
 8338SOL    HW226949   2.657   2.986   8.863
 8339SOL     OW26950   2.820   2.735   7.697
 8339SOL    HW126951   2.903   2.787   7.677
 8339SOL    HW226952   2.841   2.665   7.765
 8340SOL     OW26953   3.361   3.522   7.534
 8340SOL    HW126954   3.267   3.495   7.516
 8340SOL    HW226955   3.412   3.527   7.448
 8341SOL     OW26956   2.231   3.181   8.947
 8341SOL    HW126957   2.219   3.254   8.879
 8341SOL    HW226958   2.152   3.119   8.944
 8342SOL     OW26959   3.438   3.184   8.746
 8342SOL    HW126960   3.492   3.149   8.823
 8342SOL    HW226961   3.371   3.251   8.781
 8343SOL     OW26962   2.947   2.987   8.180
 8343SOL    HW126963   2.874   2.931   8.220
 8343SOL    HW226964   3.017   2.927   8.142
 8344SOL     OW26965   2.906   2.072   8.397
 8344SOL    HW126966   2.892   2.039   8.304
 8344SOL    HW226967   2.905   1.994   8.460
 8345SOL     OW26968   2.464   3.317   7.883
 8345SOL    HW126969   2.536   3.258   7.848
 8345SOL    HW226970   2.395   3.332   7.813
 8346SOL     OW26971   3.733   2.263   8.903
 8346SOL    HW126972   3.759   2.352   8.867
 8346SOL    HW226973   3.723   2.198   8.827
 8347SOL     OW26974   2.085   3.258   7.802
 8347SOL    HW126975   2.005   3.240   7.745
 8347SOL    HW226976   2.057   3.307   7.884
 8348SOL     OW26977   2.029   2.910   9.207
 8348SOL    HW126978   1.945   2.875   9.249
 8348SOL    HW226979   2.107   2.854   9.236
 8349SOL     OW26980   2.584   2.044   8.936
 8349SOL    HW126981   2.668   2.008   8.896
 8349SOL    HW226982   2.603   2.077   9.029
 8350SOL     OW26983   2.012   2.225   7.412
 8350SOL    HW126984   1.937   2.239   7.347
 8350SOL    HW226985   2.071   2.306   7.413
 8351SOL     OW26986   3.243   2.712   8.838
 8351SOL    HW126987   3.196   2.767   8.769
 8351SOL    HW226988   3.342   2.721   8.826
 8352SOL     OW26989   1.905   1.988   7.763
 8352SOL    HW126990   1.877   2.084   7.766
 8352SOL    HW226991   1.985   1.978   7.703
 8353SOL     OW26992   3.029   3.195   7.553
 8353SOL    HW126993   2.932   3.169   7.549
 8353SOL    HW226994   3.060   3.196   7.648
 8354SOL     OW26995   2.521   2.674   8.919
 8354SOL    HW126996   2.575   2.755   8.899
 8354SOL    HW226997   2.577   2.592   8.905
 8355SOL     OW26998   3.377   3.725   8.236
 8355SOL    HW126999   3.399   3.815   8.275
 8355SOL    HW227000   3.315   3.677   8.298
 8356SOL     OW27001   2.587   2.391   9.144
 8356SOL    HW127002   2.652   2.453   9.188
 8356SOL    HW227003   2.609   2.297   9.168
 8357SOL     OW27004   3.299   3.075   9.079
 8357SOL    HW127005   3.297   3.083   9.179
 8357SOL    HW227006   3.390   3.097   9.046
 8358SOL     OW27007   2.205   3.610   9.009
 8358SOL    HW127008   2.115   3.653   8.997
 8358SOL    HW227009   2.193   3.518   9.047
 8359SOL     OW27010   3.067   2.169   7.906
 8359SOL    HW127011   3.138   2.097   7.903
 8359SOL    HW227012   3.086   2.231   7.982
 8360SOL     OW27013   2.451   2.625   8.070
 8360SOL    HW127014   2.503   2.708   8.087
 8360SOL    HW227015   2.442   2.611   7.971
 8361SOL     OW27016   3.593   2.249   9.139
 8361SOL    HW127017   3.648   2.265   9.057
 8361SOL    HW227018   3.515   2.191   9.116
 8362SOL     OW27019   3.561   2.783   8.909
 8362SOL    HW127020   3.643   2.837   8.930
 8362SOL    HW227021   3.526   2.810   8.819
 8363SOL     OW27022   2.753   3.164   7.532
 8363SOL    HW127023   2.712   3.171   7.623
 8363SOL    HW227024   2.701   3.218   7.467
 8364SOL     OW27025   2.562   3.561   8.400
 8364SOL    HW127026   2.537   3.657   8.401
 8364SOL    HW227027   2.658   3.552   8.373
 8365SOL     OW27028   2.746   2.849   8.315
 8365SOL    HW127029   2.793   2.763   8.335
 8365SOL    HW227030   2.703   2.884   8.399
 8366SOL     OW27031   2.087   3.160   9.298
 8366SOL    HW127032   2.067   3.070   9.259
 8366SOL    HW227033   2.018   3.182   9.368
 8367SOL     OW27034   1.957   3.041   8.096
 8367SOL    HW127035   1.964   2.969   8.165
 8367SOL    HW227036   2.035   3.035   8.033
 8368SOL     OW27037   2.552   3.311   9.099
 8368SOL    HW127038   2.476   3.257   9.136
 8368SOL    HW227039   2.552   3.402   9.140
 8369SOL     OW27040   3.726   2.033   8.736
 8369SOL    HW127041   3.794   1.961   8.750
 8369SOL    HW227042   3.708   2.044   8.638
 8370SOL     OW27043   2.259   2.308   8.001
 8370SOL    HW127044   2.308   2.357   8.073
 8370SOL    HW227045   2.193   2.245   8.041
 8371SOL     OW27046   3.515   3.318   8.520
 8371SOL    HW127047   3.447   3.308   8.447
 8371SOL    HW227048   3.490   3.259   8.597
 8372SOL     OW27049   2.249   2.400   8.722
 8372SOL    HW127050   2.298   2.331   8.775
 8372SOL    HW227051   2.247   2.373   8.626
 8373SOL     OW27052   2.688   3.404   8.089
 8373SOL    HW127053   2.654   3.466   8.019
 8373SOL    HW227054   2.615   3.341   8.116
 8374SOL     OW27055   3.281   2.127   8.559
 8374SOL    HW127056   3.300   2.029   8.569
 8374SOL    HW227057   3.224   2.158   8.635
 8375SOL     OW27058   2.893   1.845   8.557
 8375SOL    HW127059   2.825   1.780   8.522
 8375SOL    HW227060   2.985   1.808   8.545
 8376SOL     OW27061   2.657   3.156   7.784
 8376SOL    HW127062   2.647   3.058   7.802
 8376SOL    HW227063   2.739   3.190   7.830
 8377SOL     OW27064   2.474   3.457   8.740
 8377SOL    HW127065   2.466   3.548   8.779
 8377SOL    HW227066   2.561   3.448   8.693
 8378SOL     OW27067   3.244   1.873   7.636
 8378SOL    HW127068   3.302   1.812   7.582
 8378SOL    HW227069   3.152   1.833   7.643
 8379SOL     OW27070   3.103   2.342   8.110
 8379SOL    HW127071   3.071   2.436   8.113
 8379SOL    HW227072   3.117   2.309   8.203
 8380SOL     OW27073   3.471   2.096   8.358
 8380SOL    HW127074   3.407   2.128   8.428
 8380SOL    HW227075   3.475   2.163   8.283
 8381SOL     OW27076   1.923   2.958   7.745
 8381SOL    HW127077   2.020   2.957   7.722
 8381SOL    HW227078   1.898   2.870   7.787
 8382SOL     OW27079   2.752   3.541   7.769
 8382SOL    HW127080   2.668   3.524   7.718
 8382SOL    HW227081   2.737   3.616   7.834
 8383SOL     OW27082   2.071   2.434   9.414
 8383SOL    HW127083   1.979   2.441   9.451
 8383SOL    HW227084   2.074   2.477   9.323
 8384SOL     OW27085   3.705   2.539   9.512
 8384SOL    HW127086   3.635   2.516   9.445
 8384SOL    HW227087   3.667   2.530   9.604
 8385SOL     OW27088   2.066   3.337   9.876
 8385SOL    HW127089   2.144   3.397   9.858
 8385SOL    HW227090   2.014   3.373   9.953
 8386SOL     OW27091   2.452   2.850   9.474
 8386SOL    HW127092   2.497   2.902   9.402
 8386SOL    HW227093   2.495   2.871   9.562
 8387SOL     OW27094   2.011   2.580   9.843
 8387SOL    HW127095   1.989   2.484   9.827
 8387SOL    HW227096   1.940   2.622   9.900
 8388SOL     OW27097   3.667   3.634   9.684
 8388SOL    HW127098   3.756   3.617   9.726
 8388SOL    HW227099   3.671   3.719   9.631
 8389SOL     OW27100   1.888   3.475   9.493
 8389SOL    HW127101   1.881   3.375   9.500
 8389SOL    HW227102   1.852   3.516   9.577
 8390SOL     OW27103   3.556   2.767   9.894
 8390SOL    HW127104   3.553   2.790   9.992
 8390SOL    HW227105   3.539   2.850   9.840
 8391SOL     OW27106   3.535   3.012   9.766
 8391SOL    HW127107   3.630   3.019   9.734
 8391SOL    HW227108   3.516   3.088   9.829
 8392SOL     OW27109   2.444   3.244   9.993
 8392SOL    HW127110   2.394   3.158   0.007
 8392SOL    HW227111   2.446   3.266   9.896
 8393SOL     OW27112   2.664   1.909   9.840
 8393SOL    HW127113   2.715   1.981   9.794
 8393SOL    HW227114   2.567   1.934   9.844
 8394SOL     OW27115   3.426   2.924   9.525
 8394SOL    HW127116   3.354   2.861   9.554
 8394SOL    HW227117   3.469   2.965   9.606
 8395SOL     OW27118   2.443   2.579   9.588
 8395SOL    HW127119   2.453   2.665   9.539
 8395SOL    HW227120   2.385   2.593   9.668
 8396SOL     OW27121   3.424   3.498   9.660
 8396SOL    HW127122   3.511   3.542   9.678
 8396SOL    HW227123   3.408   3.492   9.562
 8397SOL     OW27124   2.909   2.520   9.731
 8397SOL    HW127125   2.946   2.478   9.814
 8397SOL    HW227126   2.815   2.490   9.717
 8398SOL     OW27127   1.849   2.713   0.015
 8398SOL    HW127128   1.859   2.696   0.112
 8398SOL    HW227129   1.883   2.805   9.993
 8399SOL     OW27130   2.698   2.221   9.507
 8399SOL    HW127131   2.756   2.258   9.435
 8399SOL    HW227132   2.633   2.155   9.467
 8400SOL     OW27133   3.122   2.968   9.814
 8400SOL    HW127134   3.186   2.982   9.889
 8400SOL    HW227135   3.092   3.056   9.778
 8401SOL     OW27136   2.804   3.311   9.833
 8401SOL    HW127137   2.770   3.397   9.795
 8401SOL    HW227138   2.776   3.304   9.928
 8402SOL     OW27139   2.224   3.691   0.146
 8402SOL    HW127140   2.229   3.591   0.139
 8402SOL    HW227141   2.316   3.729   0.150
 8403SOL     OW27142   2.200   2.839   9.612
 8403SOL    HW127143   2.279   2.842   9.551
 8403SOL    HW227144   2.133   2.774   9.577
 8404SOL     OW27145   3.053   3.667   9.542
 8404SOL    HW127146   2.960   3.698   9.526
 8404SOL    HW227147   3.068   3.581   9.495
 8405SOL     OW27148   3.497   3.253   9.401
 8405SOL    HW127149   3.465   3.348   9.394
 8405SOL    HW227150   3.423   3.191   9.377
 8406SOL     OW27151   3.298   2.033   9.703
 8406SOL    HW127152   3.277   1.983   9.619
 8406SOL    HW227153   3.397   2.036   9.716
 8407SOL     OW27154   2.286   2.577   9.815
 8407SOL    HW127155   2.293   2.479   9.833
 8407SOL    HW227156   2.189   2.604   9.818
 8408SOL     OW27157   2.523   2.012   9.431
 8408SOL    HW127158   2.586   1.934   9.428
 8408SOL    HW227159   2.441   1.991   9.378
 8409SOL     OW27160   2.390   1.971   9.867
 8409SOL    HW127161   2.300   1.957   9.909
 8409SOL    HW227162   2.383   2.040   9.795
 8410SOL     OW27163   3.282   3.087   9.352
 8410SOL    HW127164   3.329   3.021   9.411
 8410SOL    HW227165   3.195   3.113   9.395
 8411SOL     OW27166   2.123   1.961   9.495
 8411SOL    HW127167   2.161   2.033   9.437
 8411SOL    HW227168   2.197   1.911   9.540
 8412SOL     OW27169   2.807   2.108   9.727
 8412SOL    HW127170   2.768   2.146   9.643
 8412SOL    HW227171   2.906   2.123   9.727
 8413SOL     OW27172   2.281   3.037   0.071
 8413SOL    HW127173   2.222   3.095   0.127
 8413SOL    HW227174   2.238   3.022   9.982
 8414SOL     OW27175   3.154   3.707   9.873
 8414SOL    HW127176   3.216   3.772   9.830
 8414SOL    HW227177   3.062   3.719   9.835
 8415SOL     OW27178   2.876   2.347   9.338
 8415SOL    HW127179   2.845   2.434   9.299
 8415SOL    HW227180   2.946   2.364   9.406
 8416SOL     OW27181   2.719   2.288   9.912
 8416SOL    HW127182   2.676   2.357   9.855
 8416SOL    HW227183   2.747   2.210   9.856
 8417SOL     OW27184   3.861   2.747   9.614
 8417SOL    HW127185   3.883   2.703   9.700
 8417SOL    HW227186   3.801   2.687   9.560
 8418SOL     OW27187   2.337   3.332   9.478
 8418SOL    HW127188   2.267   3.299   9.541
 8418SOL    HW227189   2.328   3.285   9.390
 8419SOL     OW27190   3.242   2.464   9.346
 8419SOL    HW127191   3.190   2.430   9.425
 8419SOL    HW227192   3.340   2.459   9.366
 8420SOL     OW27193   2.398   2.141   9.656
 8420SOL    HW127194   2.450   2.088   9.589
 8420SOL    HW227195   2.357   2.221   9.611
 8421SOL     OW27196   2.585   2.899   9.708
 8421SOL    HW127197   2.538   2.859   9.787
 8421SOL    HW227198   2.671   2.850   9.693
 8422SOL     OW27199   2.176   3.016   9.817
 8422SOL    HW127200   2.170   3.100   9.763
 8422SOL    HW227201   2.200   2.940   9.757
 8423SOL     OW27202   3.046   3.226   9.738
 8423SOL    HW127203   3.111   3.300   9.757
 8423SOL    HW227204   2.956   3.252   9.772
 8424SOL     OW27205   3.627   2.535   9.779
 8424SOL    HW127206   3.568   2.462   9.814
 8424SOL    HW227207   3.596   2.623   9.816
 8425SOL     OW27208   3.059   2.387   9.541
 8425SOL    HW127209   3.070   2.304   9.596
 8425SOL    HW227210   3.015   2.457   9.596
 8426SOL     OW27211   2.152   1.898   0.002
 8426SOL    HW127212   2.059   1.919   0.032
 8426SOL    HW227213   2.201   1.853   0.076
 8427SOL     OW27214   3.354   2.074   9.335
 8427SOL    HW127215   3.295   2.011   9.386
 8427SOL    HW227216   3.427   2.106   9.395
 8428SOL     OW27217   3.137   2.717   9.341
 8428SOL    HW127218   3.173   2.624   9.346
 8428SOL    HW227219   3.166   2.760   9.255
 8429SOL     OW27220   1.890   3.192   9.489
 8429SOL    HW127221   1.802   3.206   9.443
 8429SOL    HW227222   1.891   3.102   9.532
 8430SOL     OW27223   2.654   2.428   9.683
 8430SOL    HW127224   2.663   2.354   9.617
 8430SOL    HW227225   2.582   2.491   9.652
 8431SOL     OW27226   2.306   2.351   9.508
 8431SOL    HW127227   2.365   2.429   9.528
 8431SOL    HW227228   2.215   2.383   9.481
 8432SOL     OW27229   3.212   2.787   9.615
 8432SOL    HW127230   3.161   2.845   9.678
 8432SOL    HW227231   3.157   2.770   9.533
 8433SOL     OW27232   3.205   3.444   9.814
 8433SOL    HW127233   3.285   3.445   9.753
 8433SOL    HW227234   3.177   3.537   9.834
 8434SOL     OW27235   2.534   3.526   9.478
 8434SOL    HW127236   2.552   3.535   9.380
 8434SOL    HW227237   2.463   3.458   9.493
 8435SOL     OW27238   3.091   3.441   9.387
 8435SOL    HW127239   3.090   3.346   9.419
 8435SOL    HW227240   3.014   3.457   9.326
 8436SOL     OW27241   2.812   2.767   9.650
 8436SOL    HW127242   2.837   2.780   9.554
 8436SOL    HW227243   2.858   2.686   9.686
 8437SOL     OW27244   3.364   3.509   9.382
 8437SOL    HW127245   3.267   3.485   9.373
 8437SOL    HW227246   3.407   3.510   9.292
 8438SOL     OW27247   2.483   3.348   9.746
 8438SOL    HW127248   2.512   3.273   9.686
 8438SOL    HW227249   2.554   3.419   9.747
 8439SOL     OW27250   2.124   3.228   9.639
 8439SOL    HW127251   2.044   3.222   9.580
 8439SOL    HW227252   2.100   3.274   9.724
 8440SOL     OW27253   2.032   2.254   9.150
 8440SOL    HW127254   1.933   2.244   9.146
 8440SOL    HW227255   2.056   2.351   9.149
 8441SOL     OW27256   1.884   2.048   9.602
 8441SOL    HW127257   1.834   2.092   9.528
 8441SOL    HW227258   1.974   2.018   9.569
 8442SOL     OW27259   3.044   3.179   9.465
 8442SOL    HW127260   2.951   3.164   9.433
 8442SOL    HW227261   3.045   3.185   9.565
 8443SOL     OW27262   3.070   2.191   9.735
 8443SOL    HW127263   3.157   2.142   9.736
 8443SOL    HW227264   3.062   2.244   9.819
 8444SOL     OW27265   2.454   2.774   9.911
 8444SOL    HW127266   2.448   2.781   0.011
 8444SOL    HW227267   2.391   2.703   9.879
 8445SOL     OW27268   2.760   3.201   9.400
 8445SOL    HW127269   2.720   3.197   9.491
 8445SOL    HW227270   2.766   3.297   9.371
 8446SOL     OW27271   2.883   2.790   9.387
 8446SOL    HW127272   2.862   2.869   9.330
 8446SOL    HW227273   2.978   2.762   9.373
 8447SOL     OW27274   1.948   2.960   9.961
 8447SOL    HW127275   1.924   3.042   0.013
 8447SOL    HW227276   2.028   2.978   9.904
 8448SOL     OW27277   2.281   2.308   9.869
 8448SOL    HW127278   2.346   2.251   9.819
 8448SOL    HW227279   2.302   2.304   9.967
 8449SOL     OW27280   2.658   3.157   9.648
 8449SOL    HW127281   2.632   3.063   9.670
 8449SOL    HW227282   2.717   3.193   9.720
 8450SOL     OW27283   3.222   1.887   9.487
 8450SOL    HW127284   3.266   1.809   9.443
 8450SOL    HW227285   3.132   1.859   9.520
 8451SOL     OW27286   1.929   2.953   9.615
 8451SOL    HW127287   2.024   2.970   9.638
 8451SOL    HW227288   1.916   2.857   9.591
 8452SOL     OW27289   2.677   3.535   9.719
 8452SOL    HW127290   2.641   3.541   9.625
 8452SOL    HW227291   2.676   3.626   9.760
 8453SOL     OW27292   1.997   4.261   0.092
 8453SOL    HW127293   1.912   4.278   0.141
 8453SOL    HW227294   1.998   4.316   0.008
 8454SOL     OW27295   2.069   4.013   0.992
 8454SOL    HW127296   2.116   3.986   1.076
 8454SOL    HW227297   1.978   3.972   0.990
 8455SOL     OW27298   1.849   4.147   0.619
 8455SOL    HW127299   1.759   4.156   0.664
 8455SOL    HW227300   1.843   4.076   0.548
 8456SOL     OW27301   2.425   5.024   1.215
 8456SOL    HW127302   2.338   5.025   1.165
 8456SOL    HW227303   2.452   5.117   1.238
 8457SOL     OW27304   3.463   5.195   0.722
 8457SOL    HW127305   3.411   5.176   0.806
 8457SOL    HW227306   3.402   5.230   0.652
 8458SOL     OW27307   2.993   4.427   0.637
 8458SOL    HW127308   3.044   4.513   0.634
 8458SOL    HW227309   2.928   4.430   0.713
 8459SOL     OW27310   3.566   4.287   0.166
 8459SOL    HW127311   3.487   4.314   0.112
 8459SOL    HW227312   3.539   4.214   0.230
 8460SOL     OW27313   2.566   4.843   1.049
 8460SOL    HW127314   2.510   4.879   1.124
 8460SOL    HW227315   2.606   4.918   0.998
 8461SOL     OW27316   2.738   4.431   1.842
 8461SOL    HW127317   2.728   4.482   1.927
 8461SOL    HW227318   2.758   4.494   1.767
 8462SOL     OW27319   2.563   4.702   0.618
 8462SOL    HW127320   2.628   4.708   0.694
 8462SOL    HW227321   2.485   4.762   0.636
 8463SOL     OW27322   2.589   4.905   1.835
 8463SOL    HW127323   2.643   4.973   1.884
 8463SOL    HW227324   2.512   4.951   1.790
 8464SOL     OW27325   2.196   5.096   1.078
 8464SOL    HW127326   2.122   5.039   1.044
 8464SOL    HW227327   2.237   5.146   1.002
 8465SOL     OW27328   2.354   4.077   1.432
 8465SOL    HW127329   2.436   4.023   1.451
 8465SOL    HW227330   2.275   4.032   1.475
 8466SOL     OW27331   3.436   4.159   0.735
 8466SOL    HW127332   3.357   4.155   0.673
 8466SOL    HW227333   3.429   4.241   0.792
 8467SOL     OW27334   2.118   5.436   0.482
 8467SOL    HW127335   2.129   5.508   0.550
 8467SOL    HW227336   2.204   5.421   0.434
 8468SOL     OW27337   2.963   5.052   1.596
 8468SOL    HW127338   3.039   5.070   1.658
 8468SOL    HW227339   2.906   4.979   1.633
 8469SOL     OW27340   2.067   5.169   0.468
 8469SOL    HW127341   2.080   5.267   0.484
 8469SOL    HW227342   2.049   5.123   0.555
 8470SOL     OW27343   2.167   4.809   0.863
 8470SOL    HW127344   2.181   4.712   0.884
 8470SOL    HW227345   2.108   4.850   0.933
 8471SOL     OW27346   2.391   5.520   1.399
 8471SOL    HW127347   2.321   5.513   1.470
 8471SOL    HW227348   2.458   5.590   1.424
 8472SOL     OW27349   2.419   4.680   0.192
 8472SOL    HW127350   2.366   4.750   0.144
 8472SOL    HW227351   2.494   4.723   0.242
 8473SOL     OW27352   3.457   3.860   1.476
 8473SOL    HW127353   3.523   3.928   1.445
 8473SOL    HW227354   3.410   3.893   1.558
 8474SOL     OW27355   1.955   4.407   0.567
 8474SOL    HW127356   1.920   4.315   0.585
 8474SOL    HW227357   1.954   4.460   0.651
 8475SOL     OW27358   3.756   5.449   0.334
 8475SOL    HW127359   3.832   5.435   0.398
 8475SOL    HW227360   3.762   5.540   0.294
 8476SOL     OW27361   1.896   5.282   0.119
 8476SOL    HW127362   1.859   5.196   0.153
 8476SOL    HW227363   1.896   5.350   0.192
 8477SOL     OW27364   3.547   4.603   0.662
 8477SOL    HW127365   3.639   4.594   0.698
 8477SOL    HW227366   3.545   4.675   0.592
 8478SOL     OW27367   3.543   4.816   0.481
 8478SOL    HW127368   3.622   4.798   0.422
 8478SOL    HW227369   3.569   4.878   0.554
 8479SOL     OW27370   1.960   4.518   1.521
 8479SOL    HW127371   2.022   4.567   1.460
 8479SOL    HW227372   1.871   4.565   1.524
 8480SOL     OW27373   2.474   5.087   0.723
 8480SOL    HW127374   2.428   5.000   0.704
 8480SOL    HW227375   2.492   5.134   0.637
 8481SOL     OW27376   3.236   4.969   1.370
 8481SOL    HW127377   3.188   4.892   1.328
 8481SOL    HW227378   3.256   4.948   1.465
 8482SOL     OW27379   2.683   3.764   0.520
 8482SOL    HW127380   2.732   3.842   0.481
 8482SOL    HW227381   2.585   3.783   0.521
 8483SOL     OW27382   2.092   4.673   1.338
 8483SOL    HW127383   2.179   4.627   1.318
 8483SOL    HW227384   2.047   4.698   1.252
 8484SOL     OW27385   3.363   4.739   0.275
 8484SOL    HW127386   3.312   4.657   0.300
 8484SOL    HW227387   3.427   4.762   0.348
 8485SOL     OW27388   2.969   5.535   1.614
 8485SOL    HW127389   2.992   5.617   1.563
 8485SOL    HW227390   2.980   5.455   1.555
 8486SOL     OW27391   2.216   4.006   1.865
 8486SOL    HW127392   2.248   4.082   1.922
 8486SOL    HW227393   2.140   4.038   1.808
 8487SOL     OW27394   3.335   5.124   0.959
 8487SOL    HW127395   3.276   5.151   1.035
 8487SOL    HW227396   3.306   5.035   0.924
 8488SOL     OW27397   3.492   5.631   0.504
 8488SOL    HW127398   3.494   5.548   0.448
 8488SOL    HW227399   3.507   5.607   0.600
 8489SOL     OW27400   2.421   4.406   0.281
 8489SOL    HW127401   2.433   4.498   0.244
 8489SOL    HW227402   2.365   4.410   0.363
 8490SOL     OW27403   3.136   4.118   0.932
 8490SOL    HW127404   3.046   4.074   0.931
 8490SOL    HW227405   3.195   4.072   0.998
 8491SOL     OW27406   3.484   5.402   0.357
 8491SOL    HW127407   3.584   5.403   0.349
 8491SOL    HW227408   3.444   5.371   0.271
 8492SOL     OW27409   2.646   4.281   1.451
 8492SOL    HW127410   2.611   4.253   1.540
 8492SOL    HW227411   2.621   4.213   1.382
 8493SOL     OW27412   3.226   4.203   1.665
 8493SOL    HW127413   3.229   4.253   1.751
 8493SOL    HW227414   3.279   4.119   1.673
 8494SOL     OW27415   2.793   4.593   1.614
 8494SOL    HW127416   2.846   4.525   1.562
 8494SOL    HW227417   2.734   4.644   1.551
 8495SOL     OW27418   2.866   4.102   1.179
 8495SOL    HW127419   2.771   4.111   1.208
 8495SOL    HW227420   2.870   4.058   1.089
 8496SOL     OW27421   2.920   4.414   0.370
 8496SOL    HW127422   2.942   4.412   0.468
 8496SOL    HW227423   2.830   4.372   0.356
 8497SOL     OW27424   1.956   4.569   0.791
 8497SOL    HW127425   2.048   4.555   0.827
 8497SOL    HW227426   1.903   4.626   0.854
 8498SOL     OW27427   1.947   5.628   1.602
 8498SOL    HW127428   1.954   5.584   1.692
 8498SOL    HW227429   1.850   5.639   1.579
 8499SOL     OW27430   2.721   4.048   0.172
 8499SOL    HW127431   2.715   4.097   0.085
 8499SOL    HW227432   2.729   3.950   0.155
 8500SOL     OW27433   3.505   4.302   1.828
 8500SOL    HW127434   3.498   4.384   1.771
 8500SOL    HW227435   3.538   4.226   1.772
 8501SOL     OW27436   3.277   4.887   0.579
 8501SOL    HW127437   3.363   4.872   0.532
 8501SOL    HW227438   3.224   4.957   0.531
 8502SOL     OW27439   2.410   3.823   0.929
 8502SOL    HW127440   2.421   3.855   1.023
 8502SOL    HW227441   2.414   3.902   0.867
 8503SOL     OW27442   2.874   5.196   0.483
 8503SOL    HW127443   2.849   5.271   0.423
 8503SOL    HW227444   2.840   5.214   0.575
 8504SOL     OW27445   2.207   5.494   0.915
 8504SOL    HW127446   2.243   5.402   0.900
 8504SOL    HW227447   2.283   5.556   0.933
 8505SOL     OW27448   3.671   4.801   0.894
 8505SOL    HW127449   3.645   4.858   0.816
 8505SOL    HW227450   3.590   4.783   0.950
 8506SOL     OW27451   2.998   5.303   1.472
 8506SOL    HW127452   2.978   5.220   1.524
 8506SOL    HW227453   3.002   5.281   1.375
 8507SOL     OW27454   2.195   4.630   0.343
 8507SOL    HW127455   2.271   4.639   0.279
 8507SOL    HW227456   2.198   4.540   0.387
 8508SOL     OW27457   3.325   4.463   0.697
 8508SOL    HW127458   3.313   4.432   0.791
 8508SOL    HW227459   3.411   4.514   0.689
 8509SOL     OW27460   2.357   5.029   1.737
 8509SOL    HW127461   2.332   5.019   1.641
 8509SOL    HW227462   2.274   5.037   1.792
 8510SOL     OW27463   2.946   5.486   0.154
 8510SOL    HW127464   2.889   5.454   0.230
 8510SOL    HW227465   3.001   5.410   0.119
 8511SOL     OW27466   2.112   3.965   1.511
 8511SOL    HW127467   2.079   4.033   1.576
 8511SOL    HW227468   2.067   3.878   1.527
 8512SOL     OW27469   3.488   5.060   0.135
 8512SOL    HW127470   3.447   5.151   0.138
 8512SOL    HW227471   3.422   4.995   0.097
 8513SOL     OW27472   2.366   5.440   0.367
 8513SOL    HW127473   2.399   5.518   0.420
 8513SOL    HW227474   2.431   5.419   0.294
 8514SOL     OW27475   3.234   3.814   0.411
 8514SOL    HW127476   3.223   3.796   0.313
 8514SOL    HW227477   3.329   3.800   0.437
 8515SOL     OW27478   2.120   5.488   1.183
 8515SOL    HW127479   2.161   5.414   1.238
 8515SOL    HW227480   2.151   5.481   1.089
 8516SOL     OW27481   2.794   5.422   0.881
 8516SOL    HW127482   2.882   5.373   0.879
 8516SOL    HW227483   2.739   5.394   0.803
 8517SOL     OW27484   2.219   4.396   0.483
 8517SOL    HW127485   2.241   4.299   0.492
 8517SOL    HW227486   2.124   4.412   0.512
 8518SOL     OW27487   3.337   3.950   1.713
 8518SOL    HW127488   3.349   3.963   1.811
 8518SOL    HW227489   3.263   3.884   1.697
 8519SOL     OW27490   2.467   3.821   0.115
 8519SOL    HW127491   2.561   3.790   0.128
 8519SOL    HW227492   2.457   3.862   0.025
 8520SOL     OW27493   2.629   3.979   1.754
 8520SOL    HW127494   2.716   3.930   1.756
 8520SOL    HW227495   2.568   3.942   1.824
 8521SOL     OW27496   2.706   5.222   1.165
 8521SOL    HW127497   2.685   5.172   1.081
 8521SOL    HW227498   2.760   5.164   1.225
 8522SOL     OW27499   3.143   4.320   1.433
 8522SOL    HW127500   3.181   4.287   1.520
 8522SOL    HW227501   3.179   4.411   1.414
 8523SOL     OW27502   2.660   5.071   0.931
 8523SOL    HW127503   2.753   5.079   0.896
 8523SOL    HW227504   2.595   5.084   0.855
 8524SOL     OW27505   2.778   4.237   0.856
 8524SOL    HW127506   2.756   4.227   0.759
 8524SOL    HW227507   2.813   4.151   0.892
 8525SOL     OW27508   2.410   3.805   0.500
 8525SOL    HW127509   2.327   3.793   0.556
 8525SOL    HW227510   2.393   3.876   0.431
 8526SOL     OW27511   3.288   4.885   0.055
 8526SOL    HW127512   3.320   4.820   0.124
 8526SOL    HW227513   3.209   4.935   0.091
 8527SOL     OW27514   2.820   3.980   0.423
 8527SOL    HW127515   2.784   4.010   0.335
 8527SOL    HW227516   2.918   3.999   0.428
 8528SOL     OW27517   2.885   4.414   1.428
 8528SOL    HW127518   2.810   4.348   1.440
 8528SOL    HW227519   2.972   4.366   1.428
 8529SOL     OW27520   3.051   5.332   0.832
 8529SOL    HW127521   3.088   5.381   0.753
 8529SOL    HW227522   3.095   5.364   0.916
 8530SOL     OW27523   2.338   4.858   0.659
 8530SOL    HW127524   2.283   4.838   0.740
 8530SOL    HW227525   2.279   4.862   0.578
 8531SOL     OW27526   3.120   5.517   0.620
 8531SOL    HW127527   3.159   5.576   0.549
 8531SOL    HW227528   3.041   5.562   0.661
 8532SOL     OW27529   2.985   4.209   9.953
 8532SOL    HW127530   2.887   4.186   9.953
 8532SOL    HW227531   3.017   4.216   0.048
 8533SOL     OW27532   1.968   4.279   1.386
 8533SOL    HW127533   2.064   4.268   1.362
 8533SOL    HW227534   1.957   4.359   1.445
 8534SOL     OW27535   2.433   3.901   1.187
 8534SOL    HW127536   2.457   3.825   1.247
 8534SOL    HW227537   2.339   3.930   1.206
 8535SOL     OW27538   2.736   4.187   0.592
 8535SOL    HW127539   2.695   4.245   0.522
 8535SOL    HW227540   2.770   4.103   0.550
 8536SOL     OW27541   2.882   3.783   0.723
 8536SOL    HW127542   2.812   3.785   0.651
 8536SOL    HW227543   2.859   3.711   0.789
 8537SOL     OW27544   3.257   4.884   0.862
 8537SOL    HW127545   3.163   4.852   0.873
 8537SOL    HW227546   3.281   4.884   0.764
 8538SOL     OW27547   3.289   4.353   0.943
 8538SOL    HW127548   3.227   4.274   0.944
 8538SOL    HW227549   3.360   4.341   1.012
 8539SOL     OW27550   3.695   4.486   0.306
 8539SOL    HW127551   3.728   4.454   0.395
 8539SOL    HW227552   3.641   4.415   0.262
 8540SOL     OW27553   2.352   5.166   0.188
 8540SOL    HW127554   2.261   5.131   0.206
 8540SOL    HW227555   2.392   5.117   0.110
 8541SOL     OW27556   3.625   4.972   0.684
 8541SOL    HW127557   3.722   4.992   0.676
 8541SOL    HW227558   3.574   5.058   0.695
 8542SOL     OW27559   3.291   4.257   0.075
 8542SOL    HW127560   3.210   4.257   0.133
 8542SOL    HW227561   3.323   4.163   0.062
 8543SOL     OW27562   2.350   3.984   0.301
 8543SOL    HW127563   2.397   3.924   0.236
 8543SOL    HW227564   2.316   4.065   0.253
 8544SOL     OW27565   3.601   4.991   1.533
 8544SOL    HW127566   3.689   4.943   1.521
 8544SOL    HW227567   3.618   5.080   1.575
 8545SOL     OW27568   2.838   5.052   1.344
 8545SOL    HW127569   2.746   5.022   1.370
 8545SOL    HW227570   2.898   5.049   1.423
 8546SOL     OW27571   2.983   4.991   1.121
 8546SOL    HW127572   2.919   5.007   1.195
 8546SOL    HW227573   2.941   5.018   1.034
 8547SOL     OW27574   3.449   4.786   1.053
 8547SOL    HW127575   3.459   4.854   1.125
 8547SOL    HW227576   3.373   4.812   0.993
 8548SOL     OW27577   2.797   3.776   1.382
 8548SOL    HW127578   2.811   3.762   1.284
 8548SOL    HW227579   2.877   3.822   1.421
 8549SOL     OW27580   2.828   4.844   1.716
 8549SOL    HW127581   2.738   4.865   1.754
 8549SOL    HW227582   2.827   4.751   1.678
 8550SOL     OW27583   2.626   4.778   0.353
 8550SOL    HW127584   2.609   4.746   0.447
 8550SOL    HW227585   2.710   4.737   0.318
 8551SOL     OW27586   2.311   4.522   1.276
 8551SOL    HW127587   2.379   4.528   1.350
 8551SOL    HW227588   2.272   4.430   1.274
 8552SOL     OW27589   3.106   4.089   1.297
 8552SOL    HW127590   3.125   4.174   1.345
 8552SOL    HW227591   3.016   4.095   1.253
 8553SOL     OW27592   1.928   5.272   1.336
 8553SOL    HW127593   1.897   5.348   1.279
 8553SOL    HW227594   2.028   5.271   1.338
 8554SOL     OW27595   2.137   4.860   0.454
 8554SOL    HW127596   2.144   4.929   0.382
 8554SOL    HW227597   2.162   4.771   0.417
 8555SOL     OW27598   2.371   4.280   0.865
 8555SOL    HW127599   2.389   4.339   0.786
 8555SOL    HW227600   2.449   4.281   0.927
 8556SOL     OW27601   3.132   5.094   0.454
 8556SOL    HW127602   3.194   5.168   0.479
 8556SOL    HW227603   3.037   5.124   0.468
 8557SOL     OW27604   3.175   5.172   1.181
 8557SOL    HW127605   3.218   5.132   1.262
 8557SOL    HW227606   3.102   5.112   1.150
 8558SOL     OW27607   3.354   4.326   0.457
 8558SOL    HW127608   3.347   4.366   0.549
 8558SOL    HW227609   3.308   4.385   0.391
 8559SOL     OW27610   2.200   5.243   1.302
 8559SOL    HW127611   2.189   5.185   1.222
 8559SOL    HW227612   2.297   5.266   1.314
 8560SOL     OW27613   2.350   4.431   1.688
 8560SOL    HW127614   2.389   4.475   1.607
 8560SOL    HW227615   2.409   4.356   1.717
 8561SOL     OW27616   3.486   4.530   1.683
 8561SOL    HW127617   3.393   4.567   1.676
 8561SOL    HW227618   3.537   4.552   1.600
 8562SOL     OW27619   2.858   3.841   1.762
 8562SOL    HW127620   2.915   3.922   1.750
 8562SOL    HW227621   2.910   3.759   1.736
 8563SOL     OW27622   2.355   3.787   1.770
 8563SOL    HW127623   2.308   3.734   1.699
 8563SOL    HW227624   2.303   3.870   1.789
 8564SOL     OW27625   2.455   4.579   1.046
 8564SOL    HW127626   2.494   4.671   1.045
 8564SOL    HW227627   2.404   4.566   1.131
 8565SOL     OW27628   3.123   4.572   1.014
 8565SOL    HW127629   3.033   4.547   0.979
 8565SOL    HW227630   3.189   4.502   0.990
 8566SOL     OW27631   3.060   4.227   0.222
 8566SOL    HW127632   3.076   4.153   0.288
 8566SOL    HW227633   3.009   4.301   0.266
 8567SOL     OW27634   2.166   3.929   1.234
 8567SOL    HW127635   2.143   3.959   1.326
 8567SOL    HW227636   2.141   3.833   1.223
 8568SOL     OW27637   1.933   5.002   1.280
 8568SOL    HW127638   1.958   4.956   1.365
 8568SOL    HW227639   1.922   5.100   1.296
 8569SOL     OW27640   2.580   4.329   1.036
 8569SOL    HW127641   2.651   4.312   0.967
 8569SOL    HW227642   2.547   4.423   1.026
 8570SOL     OW27643   3.619   4.704   1.852
 8570SOL    HW127644   3.569   4.634   1.801
 8570SOL    HW227645   3.565   4.733   1.931
 8571SOL     OW27646   2.172   3.765   0.637
 8571SOL    HW127647   2.131   3.854   0.655
 8571SOL    HW227648   2.183   3.714   0.722
 8572SOL     OW27649   3.457   4.104   0.336
 8572SOL    HW127650   3.523   4.054   0.391
 8572SOL    HW227651   3.417   4.178   0.390
 8573SOL     OW27652   2.864   4.484   0.939
 8573SOL    HW127653   2.839   4.497   1.035
 8573SOL    HW227654   2.842   4.391   0.910
 8574SOL     OW27655   2.909   5.331   1.786
 8574SOL    HW127656   2.926   5.411   1.728
 8574SOL    HW227657   2.825   5.286   1.755
 8575SOL     OW27658   3.694   5.246   1.619
 8575SOL    HW127659   3.726   5.260   1.525
 8575SOL    HW227660   3.771   5.260   1.682
 8576SOL     OW27661   2.243   4.649   1.842
 8576SOL    HW127662   2.320   4.688   1.894
 8576SOL    HW227663   2.275   4.572   1.787
 8577SOL     OW27664   3.351   3.992   0.109
 8577SOL    HW127665   3.289   3.915   0.126
 8577SOL    HW227666   3.390   4.024   0.196
 8578SOL     OW27667   3.235   4.523   0.038
 8578SOL    HW127668   3.251   4.424   0.031
 8578SOL    HW227669   3.309   4.572   9.992
 8579SOL     OW27670   2.921   5.085   0.865
 8579SOL    HW127671   2.957   5.001   0.823
 8579SOL    HW227672   2.981   5.161   0.841
 8580SOL     OW27673   2.197   4.543   0.931
 8580SOL    HW127674   2.295   4.552   0.947
 8580SOL    HW227675   2.166   4.453   0.962
 8581SOL     OW27676   2.145   4.270   1.002
 8581SOL    HW127677   2.105   4.179   0.995
 8581SOL    HW227678   2.228   4.275   0.947
 8582SOL     OW27679   2.989   4.072   1.701
 8582SOL    HW127680   2.937   4.117   1.773
 8582SOL    HW227681   3.071   4.125   1.681
 8583SOL     OW27682   3.017   3.903   1.482
 8583SOL    HW127683   2.998   3.962   1.561
 8583SOL    HW227684   3.060   3.957   1.410
 8584SOL     OW27685   1.848   4.985   0.156
 8584SOL    HW127686   1.755   5.019   0.146
 8584SOL    HW227687   1.849   4.910   0.222
 8585SOL     OW27688   1.930   5.535   0.928
 8585SOL    HW127689   1.885   5.453   0.891
 8585SOL    HW227690   2.029   5.524   0.921
 8586SOL     OW27691   2.336   5.250   0.897
 8586SOL    HW127692   2.409   5.305   0.937
 8586SOL    HW227693   2.376   5.188   0.829
 8587SOL     OW27694   2.771   4.500   1.193
 8587SOL    HW127695   2.824   4.481   1.276
 8587SOL    HW227696   2.695   4.435   1.187
 8588SOL     OW27697   1.898   4.331   1.126
 8588SOL    HW127698   1.982   4.321   1.072
 8588SOL    HW227699   1.919   4.312   1.222
 8589SOL     OW27700   2.082   4.379   1.727
 8589SOL    HW127701   2.181   4.391   1.713
 8589SOL    HW227702   2.032   4.434   1.661
 8590SOL     OW27703   3.250   4.655   1.631
 8590SOL    HW127704   3.277   4.751   1.628
 8590SOL    HW227705   3.232   4.622   1.538
 8591SOL     OW27706   2.675   4.286   0.330
 8591SOL    HW127707   2.685   4.203   0.275
 8591SOL    HW227708   2.586   4.329   0.310
 8592SOL     OW27709   3.485   4.311   1.128
 8592SOL    HW127710   3.458   4.234   1.186
 8592SOL    HW227711   3.584   4.311   1.117
 8593SOL     OW27712   2.061   5.275   1.709
 8593SOL    HW127713   2.038   5.353   1.768
 8593SOL    HW227714   2.087   5.197   1.766
 8594SOL     OW27715   2.598   4.127   1.225
 8594SOL    HW127716   2.537   4.049   1.215
 8594SOL    HW227717   2.576   4.196   1.155
 8595SOL     OW27718   2.692   5.439   1.489
 8595SOL    HW127719   2.682   5.356   1.433
 8595SOL    HW227720   2.743   5.508   1.437
 8596SOL     OW27721   2.267   4.205   0.163
 8596SOL    HW127722   2.317   4.282   0.203
 8596SOL    HW227723   2.171   4.231   0.150
 8597SOL     OW27724   2.006   4.868   1.512
 8597SOL    HW127725   2.014   4.846   1.610
 8597SOL    HW227726   2.041   4.792   1.458
 8598SOL     OW27727   3.119   4.768   1.205
 8598SOL    HW127728   3.124   4.697   1.135
 8598SOL    HW227729   3.066   4.846   1.171
 8599SOL     OW27730   3.206   4.509   0.308
 8599SOL    HW127731   3.110   4.496   0.334
 8599SOL    HW227732   3.213   4.515   0.209
 8600SOL     OW27733   3.614   5.446   1.136
 8600SOL    HW127734   3.687   5.470   1.072
 8600SOL    HW227735   3.593   5.349   1.127
 8601SOL     OW27736   3.146   5.427   1.073
 8601SOL    HW127737   3.230   5.481   1.074
 8601SOL    HW227738   3.160   5.342   1.123
 8602SOL     OW27739   1.987   4.917   1.031
 8602SOL    HW127740   1.962   4.948   1.122
 8602SOL    HW227741   1.912   4.865   0.990
 8603SOL     OW27742   2.579   5.425   1.731
 8603SOL    HW127743   2.513   5.499   1.741
 8603SOL    HW227744   2.630   5.437   1.645
 8604SOL     OW27745   2.742   3.783   0.094
 8604SOL    HW127746   2.725   3.775   9.996
 8604SOL    HW227747   2.821   3.727   0.119
 8605SOL     OW27748   3.649   3.940   0.448
 8605SOL    HW127749   3.713   3.911   0.377
 8605SOL    HW227750   3.589   3.864   0.472
 8606SOL     OW27751   3.292   5.307   0.535
 8606SOL    HW127752   3.358   5.341   0.468
 8606SOL    HW227753   3.230   5.382   0.562
 8607SOL     OW27754   1.993   5.509   1.843
 8607SOL    HW127755   1.970   5.450   1.921
 8607SOL    HW227756   2.042   5.590   1.877
 8608SOL     OW27757   3.142   4.657   0.644
 8608SOL    HW127758   3.212   4.587   0.662
 8608SOL    HW227759   3.186   4.739   0.607
 8609SOL     OW27760   2.593   4.983   1.430
 8609SOL    HW127761   2.582   5.049   1.504
 8609SOL    HW227762   2.516   4.990   1.366
 8610SOL     OW27763   2.554   5.340   0.191
 8610SOL    HW127764   2.621   5.306   0.125
 8610SOL    HW227765   2.474   5.279   0.192
 8611SOL     OW27766   3.664   5.524   1.389
 8611SOL    HW127767   3.650   5.502   1.293
 8611SOL    HW227768   3.581   5.502   1.441
 8612SOL     OW27769   3.703   3.869   1.022
 8612SOL    HW127770   3.734   3.782   0.984
 8612SOL    HW227771   3.620   3.898   0.974
 8613SOL     OW27772   2.081   4.014   0.710
 8613SOL    HW127773   2.000   4.066   0.681
 8613SOL    HW227774   2.089   4.018   0.809
 8614SOL     OW27775   3.101   5.266   0.075
 8614SOL    HW127776   3.083   5.175   0.111
 8614SOL    HW227777   3.131   5.260   9.980
 8615SOL     OW27778   2.661   4.720   1.412
 8615SOL    HW127779   2.704   4.707   1.323
 8615SOL    HW227780   2.636   4.816   1.423
 8616SOL     OW27781   2.853   4.663   0.261
 8616SOL    HW127782   2.907   4.678   0.178
 8616SOL    HW227783   2.877   4.575   0.300
 8617SOL     OW27784   3.371   5.312   0.123
 8617SOL    HW127785   3.271   5.305   0.126
 8617SOL    HW227786   3.400   5.334   0.030
 8618SOL     OW27787   2.237   5.032   1.495
 8618SOL    HW127788   2.223   5.109   1.432
 8618SOL    HW227789   2.153   4.977   1.499
 8619SOL     OW27790   3.482   4.962   1.263
 8619SOL    HW127791   3.546   4.980   1.337
 8619SOL    HW227792   3.388   4.968   1.297
 8620SOL     OW27793   2.982   4.826   0.793
 8620SOL    HW127794   2.890   4.791   0.810
 8620SOL    HW227795   3.032   4.761   0.736
 8621SOL     OW27796   2.897   3.968   0.936
 8621SOL    HW127797   2.896   3.927   0.845
 8621SOL    HW227798   2.894   3.895   1.005
 8622SOL     OW27799   2.518   5.211   0.484
 8622SOL    HW127800   2.567   5.155   0.417
 8622SOL    HW227801   2.445   5.262   0.438
 8623SOL     OW27802   3.665   4.048   1.432
 8623SOL    HW127803   3.723   4.128   1.416
 8623SOL    HW227804   3.703   3.970   1.382
 8624SOL     OW27805   2.108   5.038   0.240
 8624SOL    HW127806   2.020   5.027   0.193
 8624SOL    HW227807   2.095   5.098   0.319
 8625SOL     OW27808   2.021   4.805   1.778
 8625SOL    HW127809   1.934   4.772   1.814
 8625SOL    HW227810   2.093   4.741   1.801
 8626SOL     OW27811   2.575   3.911   1.493
 8626SOL    HW127812   2.659   3.875   1.452
 8626SOL    HW227813   2.594   3.939   1.587
 8627SOL     OW27814   1.952   3.997   0.034
 8627SOL    HW127815   1.899   3.988   9.949
 8627SOL    HW227816   1.965   4.094   0.054
 8628SOL     OW27817   3.233   4.576   1.371
 8628SOL    HW127818   3.173   4.638   1.321
 8628SOL    HW227819   3.320   4.568   1.324
 8629SOL     OW27820   1.984   3.822   0.244
 8629SOL    HW127821   1.964   3.887   0.171
 8629SOL    HW227822   2.074   3.780   0.227
 8630SOL     OW27823   3.082   5.013   0.190
 8630SOL    HW127824   3.020   4.935   0.188
 8630SOL    HW227825   3.106   5.035   0.284
 8631SOL     OW27826   2.497   4.513   1.468
 8631SOL    HW127827   2.554   4.594   1.454
 8631SOL    HW227828   2.554   4.431   1.463
 8632SOL     OW27829   3.377   5.574   1.066
 8632SOL    HW127830   3.403   5.634   0.990
 8632SOL    HW227831   3.459   5.528   1.101
 8633SOL     OW27832   2.568   4.248   1.715
 8633SOL    HW127833   2.629   4.309   1.767
 8633SOL    HW227834   2.591   4.153   1.736
 8634SOL     OW27835   3.344   4.912   1.620
 8634SOL    HW127836   3.331   4.927   1.718
 8634SOL    HW227837   3.438   4.938   1.595
 8635SOL     OW27838   2.197   5.499   1.594
 8635SOL    HW127839   2.114   5.553   1.581
 8635SOL    HW227840   2.172   5.405   1.619
 8636SOL     OW27841   3.465   4.570   1.227
 8636SOL    HW127842   3.474   4.480   1.183
 8636SOL    HW227843   3.460   4.641   1.157
 8637SOL     OW27844   3.085   4.045   0.433
 8637SOL    HW127845   3.144   3.964   0.426
 8637SOL    HW227846   3.111   4.098   0.514
 8638SOL     OW27847   2.422   4.461   0.668
 8638SOL    HW127848   2.477   4.541   0.643
 8638SOL    HW227849   2.349   4.449   0.601
 8639SOL     OW27850   3.592   4.080   1.690
 8639SOL    HW127851   3.617   4.072   1.593
 8639SOL    HW227852   3.511   4.024   1.708
 8640SOL     OW27853   3.606   4.621   1.456
 8640SOL    HW127854   3.617   4.720   1.459
 8640SOL    HW227855   3.558   4.596   1.371
 8641SOL     OW27856   2.700   5.140   0.059
 8641SOL    HW127857   2.618   5.098   0.019
 8641SOL    HW227858   2.712   5.109   0.153
 8642SOL     OW27859   2.525   5.422   0.978
 8642SOL    HW127860   2.499   5.518   0.969
 8642SOL    HW227861   2.624   5.414   0.970
 8643SOL     OW27862   2.731   4.711   0.849
 8643SOL    HW127863   2.776   4.627   0.878
 8643SOL    HW227864   2.675   4.747   0.923
 8644SOL     OW27865   3.017   4.693   0.043
 8644SOL    HW127866   3.002   4.728   9.951
 8644SOL    HW227867   3.096   4.632   0.043
 8645SOL     OW27868   3.681   5.294   0.860
 8645SOL    HW127869   3.614   5.271   0.790
 8645SOL    HW227870   3.661   5.243   0.944
 8646SOL     OW27871   2.120   5.050   1.861
 8646SOL    HW127872   2.074   4.966   1.832
 8646SOL    HW227873   2.121   5.054   1.961
 8647SOL     OW27874   2.027   4.980   0.673
 8647SOL    HW127875   2.063   4.936   0.755
 8647SOL    HW227876   2.061   4.933   0.592
 8648SOL     OW27877   2.561   5.168   1.629
 8648SOL    HW127878   2.483   5.124   1.673
 8648SOL    HW227879   2.569   5.263   1.661
 8649SOL     OW27880   3.751   3.836   1.290
 8649SOL    HW127881   3.822   3.767   1.286
 8649SOL    HW227882   3.722   3.861   1.198
 8650SOL     OW27883   2.247   4.133   0.514
 8650SOL    HW127884   2.283   4.068   0.447
 8650SOL    HW227885   2.197   4.084   0.585
 8651SOL     OW27886   3.571   5.180   1.085
 8651SOL    HW127887   3.485   5.159   1.039
 8651SOL    HW227888   3.592   5.109   1.152
 8652SOL     OW27889   2.222   4.266   1.285
 8652SOL    HW127890   2.278   4.199   1.334
 8652SOL    HW227891   2.214   4.239   1.189
 8653SOL     OW27892   2.679   5.368   0.644
 8653SOL    HW127893   2.684   5.457   0.598
 8653SOL    HW227894   2.617   5.309   0.592
 8654SOL     OW27895   3.287   3.991   1.121
 8654SOL    HW127896   3.310   3.895   1.141
 8654SOL    HW227897   3.227   4.026   1.193
 8655SOL     OW27898   2.886   3.743   1.100
 8655SOL    HW127899   2.840   3.678   1.039
 8655SOL    HW227900   2.980   3.712   1.117
 8656SOL     OW27901   2.687   5.052   0.325
 8656SOL    HW127902   2.665   4.954   0.333
 8656SOL    HW227903   2.765   5.074   0.383
 8657SOL     OW27904   2.469   5.288   1.283
 8657SOL    HW127905   2.453   5.379   1.322
 8657SOL    HW227906   2.554   5.288   1.231
 8658SOL     OW27907   3.180   3.767   0.144
 8658SOL    HW127908   3.194   3.750   0.047
 8658SOL    HW227909   3.094   3.725   0.173
 8659SOL     OW27910   3.146   4.185   0.662
 8659SOL    HW127911   3.101   4.273   0.647
 8659SOL    HW227912   3.141   4.160   0.759
 8660SOL     OW27913   3.465   3.946   0.915
 8660SOL    HW127914   3.402   3.976   0.987
 8660SOL    HW227915   3.461   4.010   0.838
 8661SOL     OW27916   1.886   4.776   0.334
 8661SOL    HW127917   1.970   4.800   0.382
 8661SOL    HW227918   1.877   4.677   0.330
 8662SOL     OW27919   2.769   5.412   0.345
 8662SOL    HW127920   2.687   5.387   0.293
 8662SOL    HW227921   2.749   5.492   0.402
 8663SOL     OW27922   2.053   4.376   2.004
 8663SOL    HW127923   1.961   4.344   2.026
 8663SOL    HW227924   2.062   4.388   1.906
 8664SOL     OW27925   2.075   4.010   2.884
 8664SOL    HW127926   2.124   3.975   2.964
 8664SOL    HW227927   1.988   3.962   2.874
 8665SOL     OW27928   1.854   4.146   2.507
 8665SOL    HW127929   1.768   4.160   2.557
 8665SOL    HW227930   1.839   4.080   2.433
 8666SOL     OW27931   2.429   5.034   3.062
 8666SOL    HW127932   2.348   5.043   3.004
 8666SOL    HW227933   2.465   5.125   3.084
 8667SOL     OW27934   2.967   4.429   2.526
 8667SOL    HW127935   3.015   4.515   2.507
 8667SOL    HW227936   2.922   4.435   2.615
 8668SOL     OW27937   3.646   4.291   2.054
 8668SOL    HW127938   3.600   4.304   1.966
 8668SOL    HW227939   3.592   4.227   2.109
 8669SOL     OW27940   2.558   4.838   2.909
 8669SOL    HW127941   2.510   4.888   2.981
 8669SOL    HW227942   2.605   4.902   2.849
 8670SOL     OW27943   2.762   4.386   3.735
 8670SOL    HW127944   2.686   4.401   3.798
 8670SOL    HW227945   2.813   4.472   3.723
 8671SOL     OW27946   2.537   4.688   2.490
 8671SOL    HW127947   2.599   4.684   2.568
 8671SOL    HW227948   2.468   4.759   2.505
 8672SOL     OW27949   2.525   4.871   3.708
 8672SOL    HW127950   2.588   4.940   3.742
 8672SOL    HW227951   2.451   4.915   3.656
 8673SOL     OW27952   2.216   5.131   2.906
 8673SOL    HW127953   2.140   5.079   2.867
 8673SOL    HW227954   2.257   5.188   2.835
 8674SOL     OW27955   3.319   5.240   3.270
 8674SOL    HW127956   3.342   5.256   3.366
 8674SOL    HW227957   3.221   5.219   3.262
 8675SOL     OW27958   2.326   4.085   3.336
 8675SOL    HW127959   2.407   4.027   3.346
 8675SOL    HW227960   2.244   4.034   3.364
 8676SOL     OW27961   3.394   4.137   2.563
 8676SOL    HW127962   3.313   4.130   2.505
 8676SOL    HW227963   3.382   4.212   2.628
 8677SOL     OW27964   2.041   5.450   2.348
 8677SOL    HW127965   2.082   5.518   2.410
 8677SOL    HW227966   2.108   5.427   2.277
 8678SOL     OW27967   2.945   5.014   3.427
 8678SOL    HW127968   3.020   4.957   3.395
 8678SOL    HW227969   2.877   4.956   3.473
 8679SOL     OW27970   2.099   5.176   2.378
 8679SOL    HW127971   2.067   5.269   2.395
 8679SOL    HW227972   2.064   5.115   2.449
 8680SOL     OW27973   2.163   4.810   2.719
 8680SOL    HW127974   2.173   4.716   2.752
 8680SOL    HW227975   2.110   4.863   2.785
 8681SOL     OW27976   2.428   5.551   3.246
 8681SOL    HW127977   2.351   5.515   3.299
 8681SOL    HW227978   2.464   5.633   3.291
 8682SOL     OW27979   2.441   4.744   2.000
 8682SOL    HW127980   2.499   4.793   1.935
 8682SOL    HW227981   2.482   4.748   2.091
 8683SOL     OW27982   3.575   3.828   3.436
 8683SOL    HW127983   3.607   3.906   3.383
 8683SOL    HW227984   3.508   3.859   3.504
 8684SOL     OW27985   1.942   4.405   2.439
 8684SOL    HW127986   1.920   4.310   2.462
 8684SOL    HW227987   1.952   4.458   2.522
 8685SOL     OW27988   3.756   5.520   2.197
 8685SOL    HW127989   3.833   5.493   2.255
 8685SOL    HW227990   3.785   5.591   2.134
 8686SOL     OW27991   1.960   5.304   2.030
 8686SOL    HW127992   1.924   5.211   2.028
 8686SOL    HW227993   1.900   5.362   2.086
 8687SOL     OW27994   3.511   4.688   2.532
 8687SOL    HW127995   3.599   4.661   2.571
 8687SOL    HW227996   3.525   4.728   2.442
 8688SOL     OW27997   3.581   4.828   2.306
 8688SOL    HW127998   3.671   4.819   2.264
 8688SOL    HW227999   3.581   4.905   2.370
 8689SOL     OW28000   1.993   4.461   3.440
 8689SOL    HW128001   2.082   4.506   3.449
 8689SOL    HW228002   1.924   4.528   3.412
 8690SOL     OW28003   2.470   5.106   2.581
 8690SOL    HW128004   2.419   5.021   2.566
 8690SOL    HW228005   2.488   5.150   2.494
 8691SOL     OW28006   3.142   4.857   3.319
 8691SOL    HW128007   3.179   4.813   3.237
 8691SOL    HW228008   3.217   4.889   3.377
 8692SOL     OW28009   2.683   3.738   2.391
 8692SOL    HW128010   2.734   3.816   2.355
 8692SOL    HW228011   2.586   3.758   2.392
 8693SOL     OW28012   2.078   4.683   3.155
 8693SOL    HW128013   2.164   4.633   3.154
 8693SOL    HW228014   2.036   4.680   3.065
 8694SOL     OW28015   3.445   4.778   2.067
 8694SOL    HW128016   3.366   4.720   2.089
 8694SOL    HW228017   3.496   4.798   2.151
 8695SOL     OW28018   2.933   5.546   3.491
 8695SOL    HW128019   2.968   5.620   3.434
 8695SOL    HW228020   2.854   5.504   3.447
 8696SOL     OW28021   2.198   3.988   3.763
 8696SOL    HW128022   2.237   4.070   3.806
 8696SOL    HW228023   2.100   4.000   3.752
 8697SOL     OW28024   3.361   5.136   2.784
 8697SOL    HW128025   3.269   5.139   2.823
 8697SOL    HW228026   3.376   5.047   2.740
 8698SOL     OW28027   3.404   5.552   2.414
 8698SOL    HW128028   3.435   5.505   2.332
 8698SOL    HW228029   3.316   5.514   2.444
 8699SOL     OW28030   2.421   4.410   2.161
 8699SOL    HW128031   2.439   4.501   2.123
 8699SOL    HW228032   2.344   4.416   2.225
 8700SOL     OW28033   3.124   4.115   2.788
 8700SOL    HW128034   3.035   4.070   2.794
 8700SOL    HW228035   3.187   4.072   2.854
 8701SOL     OW28036   3.490   5.422   2.190
 8701SOL    HW128037   3.584   5.455   2.186
 8701SOL    HW228038   3.449   5.426   2.099
 8702SOL     OW28039   2.592   4.319   3.308
 8702SOL    HW128040   2.651   4.282   3.379
 8702SOL    HW228041   2.594   4.260   3.228
 8703SOL     OW28042   3.238   4.138   3.525
 8703SOL    HW128043   3.234   4.206   3.598
 8703SOL    HW228044   3.223   4.183   3.437
 8704SOL     OW28045   2.871   4.094   3.056
 8704SOL    HW128046   2.778   4.122   3.080
 8704SOL    HW228047   2.870   4.047   2.968
 8705SOL     OW28048   2.881   4.386   2.266
 8705SOL    HW128049   2.909   4.400   2.361
 8705SOL    HW228050   2.793   4.340   2.264
 8706SOL     OW28051   1.953   4.571   2.656
 8706SOL    HW128052   2.043   4.556   2.698
 8706SOL    HW228053   1.904   4.640   2.710
 8707SOL     OW28054   1.971   5.603   3.457
 8707SOL    HW128055   1.983   5.564   3.548
 8707SOL    HW228056   1.873   5.617   3.439
 8708SOL     OW28057   2.697   4.053   2.072
 8708SOL    HW128058   2.756   4.095   2.004
 8708SOL    HW228059   2.639   3.985   2.028
 8709SOL     OW28060   3.510   4.361   3.720
 8709SOL    HW128061   3.539   4.456   3.711
 8709SOL    HW228062   3.556   4.306   3.650
 8710SOL     OW28063   3.157   4.844   2.310
 8710SOL    HW128064   3.177   4.791   2.228
 8710SOL    HW228065   3.132   4.937   2.284
 8711SOL     OW28066   2.437   3.806   2.837
 8711SOL    HW128067   2.445   3.850   2.927
 8711SOL    HW228068   2.452   3.874   2.766
 8712SOL     OW28069   2.863   5.216   2.341
 8712SOL    HW128070   2.837   5.278   2.268
 8712SOL    HW228071   2.826   5.248   2.428
 8713SOL     OW28072   2.203   5.540   2.760
 8713SOL    HW128073   2.261   5.458   2.757
 8713SOL    HW228074   2.261   5.620   2.777
 8714SOL     OW28075   2.124   4.641   2.105
 8714SOL    HW128076   2.178   4.666   2.024
 8714SOL    HW228077   2.100   4.544   2.099
 8715SOL     OW28078   3.320   4.498   2.527
 8715SOL    HW128079   3.318   4.441   2.609
 8715SOL    HW228080   3.393   4.567   2.536
 8716SOL     OW28081   2.321   5.026   3.597
 8716SOL    HW128082   2.301   5.025   3.499
 8716SOL    HW228083   2.235   5.020   3.648
 8717SOL     OW28084   3.046   5.432   2.175
 8717SOL    HW128085   2.946   5.438   2.177
 8717SOL    HW228086   3.074   5.371   2.101
 8718SOL     OW28087   2.082   3.966   3.378
 8718SOL    HW128088   2.002   4.020   3.354
 8718SOL    HW228089   2.053   3.883   3.426
 8719SOL     OW28090   3.519   5.104   1.915
 8719SOL    HW128091   3.503   5.181   1.853
 8719SOL    HW228092   3.441   5.042   1.914
 8720SOL     OW28093   3.255   3.818   2.320
 8720SOL    HW128094   3.251   3.795   2.223
 8720SOL    HW228095   3.343   3.787   2.357
 8721SOL     OW28096   2.090   5.501   3.069
 8721SOL    HW128097   2.147   5.423   3.093
 8721SOL    HW228098   2.057   5.490   2.976
 8722SOL     OW28099   2.209   4.394   2.337
 8722SOL    HW128100   2.220   4.296   2.349
 8722SOL    HW228101   2.115   4.420   2.357
 8723SOL     OW28102   3.423   3.977   3.630
 8723SOL    HW128103   3.382   3.971   3.721
 8723SOL    HW228104   3.361   4.026   3.569
 8724SOL     OW28105   2.519   3.847   1.981
 8724SOL    HW128106   2.570   3.767   2.012
 8724SOL    HW228107   2.451   3.819   1.913
 8725SOL     OW28108   2.651   3.979   3.565
 8725SOL    HW128109   2.723   3.911   3.579
 8725SOL    HW228110   2.586   3.975   3.641
 8726SOL     OW28111   2.674   5.031   2.751
 8726SOL    HW128112   2.752   4.998   2.698
 8726SOL    HW228113   2.602   5.062   2.688
 8727SOL     OW28114   2.780   4.220   2.737
 8727SOL    HW128115   2.757   4.205   2.641
 8727SOL    HW228116   2.810   4.134   2.778
 8728SOL     OW28117   2.420   3.804   2.370
 8728SOL    HW128118   2.343   3.796   2.433
 8728SOL    HW228119   2.406   3.884   2.311
 8729SOL     OW28120   3.302   4.938   1.891
 8729SOL    HW128121   3.346   4.875   1.954
 8729SOL    HW228122   3.210   4.959   1.923
 8730SOL     OW28123   2.133   3.796   2.020
 8730SOL    HW128124   2.172   3.874   1.972
 8730SOL    HW228125   2.204   3.749   2.072
 8731SOL     OW28126   2.816   3.954   2.298
 8731SOL    HW128127   2.774   3.990   2.215
 8731SOL    HW228128   2.914   3.974   2.297
 8732SOL     OW28129   3.150   5.321   2.673
 8732SOL    HW128130   3.126   5.375   2.592
 8732SOL    HW228131   3.249   5.306   2.675
 8733SOL     OW28132   2.338   4.872   2.523
 8733SOL    HW128133   2.280   4.849   2.601
 8733SOL    HW228134   2.285   4.863   2.438
 8734SOL     OW28135   3.134   5.482   2.439
 8734SOL    HW128136   3.117   5.581   2.434
 8734SOL    HW228137   3.106   5.439   2.354
 8735SOL     OW28138   2.868   4.199   1.910
 8735SOL    HW128139   2.826   4.286   1.885
 8735SOL    HW228140   2.939   4.214   1.978
 8736SOL     OW28141   1.980   4.269   3.251
 8736SOL    HW128142   2.073   4.268   3.215
 8736SOL    HW228143   1.973   4.341   3.321
 8737SOL     OW28144   2.446   3.932   3.080
 8737SOL    HW128145   2.494   3.906   3.164
 8737SOL    HW228146   2.348   3.926   3.093
 8738SOL     OW28147   2.728   4.148   2.481
 8738SOL    HW128148   2.678   4.205   2.415
 8738SOL    HW228149   2.766   4.068   2.435
 8739SOL     OW28150   2.876   3.769   2.595
 8739SOL    HW128151   2.806   3.764   2.524
 8739SOL    HW228152   2.863   3.695   2.661
 8740SOL     OW28153   3.390   4.885   2.680
 8740SOL    HW128154   3.291   4.876   2.693
 8740SOL    HW228155   3.425   4.804   2.633
 8741SOL     OW28156   3.324   4.327   2.746
 8741SOL    HW128157   3.239   4.280   2.771
 8741SOL    HW228158   3.381   4.339   2.826
 8742SOL     OW28159   3.677   4.526   2.192
 8742SOL    HW128160   3.751   4.501   2.254
 8742SOL    HW228161   3.661   4.451   2.128
 8743SOL     OW28162   2.392   5.145   2.023
 8743SOL    HW128163   2.308   5.126   2.073
 8743SOL    HW228164   2.397   5.085   1.943
 8744SOL     OW28165   3.229   4.315   1.913
 8744SOL    HW128166   3.179   4.278   1.991
 8744SOL    HW228167   3.327   4.298   1.925
 8745SOL     OW28168   2.368   3.990   2.175
 8745SOL    HW128169   2.424   3.941   2.108
 8745SOL    HW228170   2.330   4.072   2.133
 8746SOL     OW28171   3.603   4.991   3.393
 8746SOL    HW128172   3.679   4.927   3.388
 8746SOL    HW228173   3.636   5.080   3.427
 8747SOL     OW28174   3.468   5.344   3.518
 8747SOL    HW128175   3.461   5.418   3.451
 8747SOL    HW228176   3.556   5.299   3.509
 8748SOL     OW28177   3.122   4.906   2.750
 8748SOL    HW128178   3.043   4.888   2.691
 8748SOL    HW228179   3.108   4.993   2.798
 8749SOL     OW28180   3.506   4.838   2.949
 8749SOL    HW128181   3.482   4.906   3.019
 8749SOL    HW228182   3.459   4.859   2.864
 8750SOL     OW28183   2.786   3.737   3.237
 8750SOL    HW128184   2.806   3.726   3.140
 8750SOL    HW228185   2.864   3.778   3.283
 8751SOL     OW28186   2.774   4.815   3.563
 8751SOL    HW128187   2.702   4.847   3.624
 8751SOL    HW228188   2.734   4.781   3.478
 8752SOL     OW28189   2.594   4.740   2.228
 8752SOL    HW128190   2.575   4.712   2.322
 8752SOL    HW228191   2.654   4.673   2.185
 8753SOL     OW28192   2.305   4.533   3.138
 8753SOL    HW128193   2.370   4.553   3.211
 8753SOL    HW228194   2.276   4.437   3.145
 8754SOL     OW28195   3.108   4.046   3.172
 8754SOL    HW128196   3.141   4.126   3.222
 8754SOL    HW228197   3.018   4.066   3.132
 8755SOL     OW28198   1.946   5.281   3.210
 8755SOL    HW128199   1.915   5.367   3.169
 8755SOL    HW228200   2.045   5.275   3.205
 8756SOL     OW28201   2.170   4.841   2.303
 8756SOL    HW128202   2.169   4.919   2.240
 8756SOL    HW228203   2.163   4.756   2.252
 8757SOL     OW28204   2.342   4.284   2.733
 8757SOL    HW128205   2.356   4.340   2.652
 8757SOL    HW228206   2.425   4.284   2.789
 8758SOL     OW28207   3.090   5.102   2.239
 8758SOL    HW128208   3.172   5.158   2.254
 8758SOL    HW228209   3.012   5.145   2.284
 8759SOL     OW28210   3.457   4.369   2.319
 8759SOL    HW128211   3.398   4.409   2.389
 8759SOL    HW228212   3.520   4.439   2.284
 8760SOL     OW28213   2.214   5.256   3.145
 8760SOL    HW128214   2.204   5.205   3.059
 8760SOL    HW228215   2.311   5.277   3.160
 8761SOL     OW28216   2.271   4.495   3.486
 8761SOL    HW128217   2.346   4.534   3.433
 8761SOL    HW228218   2.285   4.396   3.496
 8762SOL     OW28219   2.841   3.799   3.625
 8762SOL    HW128220   2.913   3.868   3.624
 8762SOL    HW228221   2.878   3.712   3.591
 8763SOL     OW28222   2.342   3.799   3.630
 8763SOL    HW128223   2.291   3.736   3.571
 8763SOL    HW228224   2.280   3.870   3.664
 8764SOL     OW28225   2.451   4.583   2.912
 8764SOL    HW128226   2.483   4.677   2.909
 8764SOL    HW228227   2.398   4.568   2.996
 8765SOL     OW28228   3.098   4.660   2.878
 8765SOL    HW128229   3.106   4.746   2.828
 8765SOL    HW228230   3.031   4.601   2.832
 8766SOL     OW28231   3.052   4.234   2.114
 8766SOL    HW128232   3.072   4.154   2.170
 8766SOL    HW228233   2.996   4.298   2.167
 8767SOL     OW28234   2.179   3.901   3.119
 8767SOL    HW128235   2.147   3.933   3.208
 8767SOL    HW228236   2.150   3.806   3.105
 8768SOL     OW28237   1.934   5.022   3.121
 8768SOL    HW128238   1.944   4.961   3.200
 8768SOL    HW228239   1.927   5.116   3.152
 8769SOL     OW28240   2.564   4.327   2.882
 8769SOL    HW128241   2.641   4.310   2.820
 8769SOL    HW228242   2.542   4.424   2.881
 8770SOL     OW28243   3.568   4.634   3.711
 8770SOL    HW128244   3.499   4.645   3.640
 8770SOL    HW228245   3.536   4.678   3.795
 8771SOL     OW28246   2.194   3.780   2.524
 8771SOL    HW128247   2.149   3.867   2.546
 8771SOL    HW228248   2.203   3.726   2.608
 8772SOL     OW28249   3.469   4.128   2.185
 8772SOL    HW128250   3.511   4.054   2.238
 8772SOL    HW228251   3.453   4.207   2.245
 8773SOL     OW28252   2.867   4.476   2.790
 8773SOL    HW128253   2.850   4.509   2.883
 8773SOL    HW228254   2.844   4.379   2.785
 8774SOL     OW28255   2.887   5.217   3.612
 8774SOL    HW128256   2.858   5.301   3.567
 8774SOL    HW228257   2.907   5.147   3.543
 8775SOL     OW28258   3.717   5.231   3.462
 8775SOL    HW128259   3.746   5.255   3.370
 8775SOL    HW228260   3.795   5.236   3.524
 8776SOL     OW28261   2.218   4.661   3.695
 8776SOL    HW128262   2.298   4.673   3.754
 8776SOL    HW228263   2.241   4.599   3.620
 8777SOL     OW28264   3.362   3.980   1.976
 8777SOL    HW128265   3.315   3.901   2.015
 8777SOL    HW228266   3.396   4.039   2.049
 8778SOL     OW28267   3.150   4.571   1.869
 8778SOL    HW128268   3.174   4.474   1.879
 8778SOL    HW228269   3.181   4.604   1.780
 8779SOL     OW28270   2.182   4.549   2.814
 8779SOL    HW128271   2.282   4.553   2.822
 8779SOL    HW228272   2.150   4.459   2.845
 8780SOL     OW28273   2.118   4.275   2.872
 8780SOL    HW128274   2.089   4.180   2.879
 8780SOL    HW228275   2.199   4.281   2.814
 8781SOL     OW28276   3.011   4.005   3.585
 8781SOL    HW128277   2.968   4.061   3.655
 8781SOL    HW228278   3.100   4.043   3.561
 8782SOL     OW28279   3.007   3.855   3.350
 8782SOL    HW128280   3.002   3.908   3.434
 8782SOL    HW228281   3.052   3.909   3.279
 8783SOL     OW28282   1.868   5.023   2.064
 8783SOL    HW128283   1.783   5.058   2.025
 8783SOL    HW228284   1.857   4.926   2.085
 8784SOL     OW28285   1.945   5.507   2.826
 8784SOL    HW128286   1.902   5.431   2.777
 8784SOL    HW228287   2.037   5.522   2.790
 8785SOL     OW28288   2.368   5.314   2.740
 8785SOL    HW128289   2.434   5.388   2.748
 8785SOL    HW228290   2.405   5.242   2.682
 8786SOL     OW28291   2.804   4.597   3.024
 8786SOL    HW128292   2.874   4.636   3.085
 8786SOL    HW228293   2.714   4.618   3.061
 8787SOL     OW28294   1.864   4.304   3.007
 8787SOL    HW128295   1.939   4.308   2.940
 8787SOL    HW228296   1.902   4.294   3.099
 8788SOL     OW28297   2.058   4.259   3.610
 8788SOL    HW128298   2.101   4.192   3.550
 8788SOL    HW228299   2.023   4.335   3.555
 8789SOL     OW28300   3.366   4.661   3.531
 8789SOL    HW128301   3.356   4.758   3.507
 8789SOL    HW228302   3.396   4.609   3.452
 8790SOL     OW28303   2.640   4.263   2.244
 8790SOL    HW128304   2.649   4.186   2.181
 8790SOL    HW228305   2.560   4.318   2.218
 8791SOL     OW28306   3.489   4.327   2.964
 8791SOL    HW128307   3.452   4.248   3.013
 8791SOL    HW228308   3.589   4.325   2.970
 8792SOL     OW28309   2.106   5.272   3.571
 8792SOL    HW128310   2.083   5.348   3.632
 8792SOL    HW228311   2.102   5.186   3.623
 8793SOL     OW28312   2.604   4.158   3.087
 8793SOL    HW128313   2.545   4.078   3.078
 8793SOL    HW228314   2.585   4.222   3.013
 8794SOL     OW28315   2.705   5.446   3.380
 8794SOL    HW128316   2.661   5.365   3.340
 8794SOL    HW228317   2.703   5.521   3.314
 8795SOL     OW28318   2.274   4.212   2.039
 8795SOL    HW128319   2.345   4.275   2.072
 8795SOL    HW228320   2.187   4.260   2.034
 8796SOL     OW28321   1.979   4.851   3.337
 8796SOL    HW128322   1.997   4.825   3.432
 8796SOL    HW228323   2.025   4.787   3.276
 8797SOL     OW28324   3.215   4.645   2.122
 8797SOL    HW128325   3.190   4.570   2.183
 8797SOL    HW228326   3.186   4.625   2.029
 8798SOL     OW28327   3.671   5.415   3.017
 8798SOL    HW128328   3.739   5.442   2.948
 8798SOL    HW228329   3.632   5.327   2.992
 8799SOL     OW28330   3.165   5.570   3.014
 8799SOL    HW128331   3.257   5.546   2.983
 8799SOL    HW228332   3.145   5.522   3.100
 8800SOL     OW28333   1.991   4.952   2.867
 8800SOL    HW128334   1.969   4.980   2.961
 8800SOL    HW228335   1.916   4.898   2.830
 8801SOL     OW28336   2.553   5.445   3.609
 8801SOL    HW128337   2.482   5.516   3.607
 8801SOL    HW228338   2.617   5.459   3.533
 8802SOL     OW28339   3.608   3.910   2.289
 8802SOL    HW128340   3.662   3.883   2.209
 8802SOL    HW228341   3.566   3.829   2.329
 8803SOL     OW28342   2.016   5.495   3.701
 8803SOL    HW128343   1.954   5.432   3.747
 8803SOL    HW228344   2.064   5.551   3.769
 8804SOL     OW28345   3.102   4.661   2.495
 8804SOL    HW128346   3.183   4.605   2.508
 8804SOL    HW228347   3.122   4.733   2.428
 8805SOL     OW28348   2.585   4.997   3.295
 8805SOL    HW128349   2.568   5.071   3.359
 8805SOL    HW228350   2.520   5.003   3.219
 8806SOL     OW28351   2.608   5.315   1.983
 8806SOL    HW128352   2.599   5.360   1.894
 8806SOL    HW228353   2.526   5.260   2.001
 8807SOL     OW28354   3.456   5.514   3.307
 8807SOL    HW128355   3.417   5.448   3.243
 8807SOL    HW228356   3.528   5.567   3.262
 8808SOL     OW28357   3.710   3.914   2.844
 8808SOL    HW128358   3.739   3.820   2.827
 8808SOL    HW228359   3.623   3.931   2.798
 8809SOL     OW28360   2.085   4.019   2.597
 8809SOL    HW128361   2.003   4.068   2.567
 8809SOL    HW228362   2.095   4.027   2.696
 8810SOL     OW28363   3.116   5.289   1.950
 8810SOL    HW128364   3.113   5.190   1.965
 8810SOL    HW228365   3.042   5.316   1.890
 8811SOL     OW28366   2.680   4.747   3.314
 8811SOL    HW128367   2.776   4.739   3.289
 8811SOL    HW228368   2.650   4.841   3.300
 8812SOL     OW28369   2.757   4.566   2.095
 8812SOL    HW128370   2.820   4.624   2.044
 8812SOL    HW228371   2.810   4.506   2.156
 8813SOL     OW28372   3.359   5.416   1.951
 8813SOL    HW128373   3.271   5.369   1.955
 8813SOL    HW228374   3.410   5.384   1.870
 8814SOL     OW28375   2.221   5.035   3.344
 8814SOL    HW128376   2.223   5.109   3.277
 8814SOL    HW228377   2.143   4.976   3.327
 8815SOL     OW28378   3.475   5.043   3.150
 8815SOL    HW128379   3.528   5.009   3.227
 8815SOL    HW228380   3.410   5.112   3.181
 8816SOL     OW28381   2.905   4.830   2.608
 8816SOL    HW128382   2.825   4.778   2.638
 8816SOL    HW228383   2.965   4.771   2.554
 8817SOL     OW28384   2.888   3.955   2.812
 8817SOL    HW128385   2.885   3.917   2.720
 8817SOL    HW228386   2.885   3.880   2.879
 8818SOL     OW28387   2.518   5.207   2.330
 8818SOL    HW128388   2.575   5.136   2.288
 8818SOL    HW228389   2.446   5.234   2.266
 8819SOL     OW28390   3.648   4.063   3.303
 8819SOL    HW128391   3.712   4.136   3.282
 8819SOL    HW228392   3.638   4.003   3.224
 8820SOL     OW28393   2.126   5.062   2.138
 8820SOL    HW128394   2.030   5.044   2.116
 8820SOL    HW228395   2.131   5.114   2.223
 8821SOL     OW28396   1.996   4.781   3.598
 8821SOL    HW128397   1.912   4.756   3.646
 8821SOL    HW228398   2.073   4.734   3.640
 8822SOL     OW28399   2.566   3.877   3.323
 8822SOL    HW128400   2.645   3.828   3.286
 8822SOL    HW228401   2.592   3.921   3.409
 8823SOL     OW28402   2.009   4.116   1.718
 8823SOL    HW128403   1.910   4.105   1.718
 8823SOL    HW228404   2.032   4.213   1.723
 8824SOL     OW28405   3.227   4.715   3.109
 8824SOL    HW128406   3.174   4.694   3.027
 8824SOL    HW228407   3.317   4.672   3.103
 8825SOL     OW28408   1.880   3.852   2.096
 8825SOL    HW128409   1.831   3.891   2.018
 8825SOL    HW228410   1.976   3.837   2.072
 8826SOL     OW28411   3.052   5.023   1.984
 8826SOL    HW128412   2.955   5.018   1.962
 8826SOL    HW228413   3.063   5.041   2.082
 8827SOL     OW28414   2.485   4.562   3.336
 8827SOL    HW128415   2.554   4.634   3.333
 8827SOL    HW228416   2.529   4.473   3.327
 8828SOL     OW28417   3.424   5.537   2.945
 8828SOL    HW128418   3.441   5.621   2.893
 8828SOL    HW228419   3.511   5.495   2.969
 8829SOL     OW28420   2.760   4.228   3.506
 8829SOL    HW128421   2.754   4.283   3.590
 8829SOL    HW228422   2.728   4.135   3.524
 8830SOL     OW28423   3.351   4.927   3.482
 8830SOL    HW128424   3.344   4.948   3.579
 8830SOL    HW228425   3.440   4.956   3.447
 8831SOL     OW28426   2.222   5.483   3.427
 8831SOL    HW128427   2.135   5.531   3.414
 8831SOL    HW228428   2.205   5.392   3.464
 8832SOL     OW28429   3.473   4.591   3.073
 8832SOL    HW128430   3.486   4.511   3.015
 8832SOL    HW228431   3.502   4.673   3.023
 8833SOL     OW28432   3.081   4.031   2.303
 8833SOL    HW128433   3.145   3.955   2.309
 8833SOL    HW228434   3.090   4.089   2.384
 8834SOL     OW28435   2.391   4.456   2.533
 8834SOL    HW128436   2.448   4.536   2.511
 8834SOL    HW228437   2.326   4.440   2.458
 8835SOL     OW28438   3.620   4.169   3.554
 8835SOL    HW128439   3.631   4.141   3.458
 8835SOL    HW228440   3.559   4.106   3.601
 8836SOL     OW28441   2.750   5.075   1.980
 8836SOL    HW128442   2.727   5.043   2.072
 8836SOL    HW228443   2.724   5.171   1.971
 8837SOL     OW28444   2.513   5.550   2.765
 8837SOL    HW128445   2.467   5.637   2.749
 8837SOL    HW228446   2.607   5.567   2.795
 8838SOL     OW28447   2.700   4.684   2.710
 8838SOL    HW128448   2.755   4.604   2.737
 8838SOL    HW228449   2.652   4.719   2.790
 8839SOL     OW28450   2.923   4.704   1.938
 8839SOL    HW128451   2.898   4.770   1.867
 8839SOL    HW228452   3.006   4.656   1.911
 8840SOL     OW28453   3.802   5.196   2.776
 8840SOL    HW128454   3.794   5.135   2.698
 8840SOL    HW228455   3.725   5.182   2.838
 8841SOL     OW28456   2.067   5.027   3.697
 8841SOL    HW128457   2.041   4.942   3.650
 8841SOL    HW228458   2.012   5.036   3.780
 8842SOL     OW28459   2.012   4.942   2.514
 8842SOL    HW128460   2.052   4.900   2.596
 8842SOL    HW228461   2.054   4.902   2.433
 8843SOL     OW28462   2.521   5.193   3.485
 8843SOL    HW128463   2.452   5.136   3.529
 8843SOL    HW228464   2.532   5.278   3.536
 8844SOL     OW28465   3.628   3.887   3.103
 8844SOL    HW128466   3.614   3.788   3.106
 8844SOL    HW228467   3.659   3.913   3.011
 8845SOL     OW28468   2.227   4.132   2.380
 8845SOL    HW128469   2.274   4.065   2.323
 8845SOL    HW228470   2.187   4.086   2.460
 8846SOL     OW28471   3.579   5.178   2.936
 8846SOL    HW128472   3.501   5.174   2.873
 8846SOL    HW228473   3.559   5.124   3.018
 8847SOL     OW28474   2.233   4.270   3.157
 8847SOL    HW128475   2.282   4.206   3.216
 8847SOL    HW228476   2.238   4.238   3.062
 8848SOL     OW28477   2.679   5.372   2.487
 8848SOL    HW128478   2.678   5.467   2.454
 8848SOL    HW228479   2.615   5.317   2.432
 8849SOL     OW28480   3.282   3.987   2.972
 8849SOL    HW128481   3.309   3.891   2.977
 8849SOL    HW228482   3.223   4.009   3.050
 8850SOL     OW28483   2.881   3.721   2.967
 8850SOL    HW128484   2.845   3.658   2.898
 8850SOL    HW228485   2.977   3.700   2.986
 8851SOL     OW28486   2.676   5.004   2.232
 8851SOL    HW128487   2.648   4.908   2.235
 8851SOL    HW228488   2.756   5.017   2.291
 8852SOL     OW28489   2.488   5.299   3.123
 8852SOL    HW128490   2.485   5.395   3.152
 8852SOL    HW228491   2.561   5.287   3.056
 8853SOL     OW28492   3.243   3.744   2.059
 8853SOL    HW128493   3.291   3.674   2.006
 8853SOL    HW228494   3.149   3.714   2.075
 8854SOL     OW28495   3.110   4.187   2.522
 8854SOL    HW128496   3.061   4.273   2.515
 8854SOL    HW228497   3.114   4.158   2.618
 8855SOL     OW28498   3.454   3.951   2.758
 8855SOL    HW128499   3.396   3.981   2.833
 8855SOL    HW228500   3.434   4.005   2.676
 8856SOL     OW28501   1.873   4.742   2.172
 8856SOL    HW128502   1.968   4.725   2.144
 8856SOL    HW228503   1.827   4.655   2.187
 8857SOL     OW28504   2.773   5.422   2.178
 8857SOL    HW128505   2.711   5.391   2.106
 8857SOL    HW228506   2.727   5.494   2.231
 8858SOL     OW28507   2.061   4.341   3.874
 8858SOL    HW128508   1.968   4.325   3.905
 8858SOL    HW228509   2.065   4.331   3.774
 8859SOL     OW28510   2.073   3.963   4.700
 8859SOL    HW128511   2.085   3.971   4.799
 8859SOL    HW228512   2.047   3.869   4.678
 8860SOL     OW28513   1.863   4.128   4.358
 8860SOL    HW128514   1.789   4.141   4.425
 8860SOL    HW228515   1.833   4.063   4.288
 8861SOL     OW28516   2.459   5.106   4.967
 8861SOL    HW128517   2.398   5.072   4.895
 8861SOL    HW228518   2.475   5.204   4.953
 8862SOL     OW28519   3.022   4.395   4.367
 8862SOL    HW128520   3.061   4.486   4.384
 8862SOL    HW228521   2.937   4.385   4.419
 8863SOL     OW28522   3.554   4.299   3.979
 8863SOL    HW128523   3.533   4.317   3.883
 8863SOL    HW228524   3.521   4.208   4.004
 8864SOL     OW28525   2.491   4.839   4.764
 8864SOL    HW128526   2.544   4.876   4.841
 8864SOL    HW228527   2.412   4.897   4.747
 8865SOL     OW28528   2.730   4.445   5.580
 8865SOL    HW128529   2.732   4.501   5.663
 8865SOL    HW228530   2.739   4.504   5.500
 8866SOL     OW28531   2.543   4.685   4.367
 8866SOL    HW128532   2.601   4.684   4.448
 8866SOL    HW228533   2.471   4.753   4.378
 8867SOL     OW28534   2.609   4.942   5.554
 8867SOL    HW128535   2.668   4.998   5.613
 8867SOL    HW228536   2.570   4.998   5.481
 8868SOL     OW28537   2.283   5.027   4.773
 8868SOL    HW128538   2.188   4.994   4.774
 8868SOL    HW228539   2.287   5.113   4.724
 8869SOL     OW28540   3.295   5.252   5.077
 8869SOL    HW128541   3.356   5.327   5.103
 8869SOL    HW228542   3.220   5.247   5.142
 8870SOL     OW28543   2.316   4.077   5.157
 8870SOL    HW128544   2.404   4.039   5.186
 8870SOL    HW228545   2.242   4.028   5.204
 8871SOL     OW28546   3.434   4.144   4.382
 8871SOL    HW128547   3.335   4.140   4.395
 8871SOL    HW228548   3.459   4.231   4.340
 8872SOL     OW28549   2.108   5.463   4.187
 8872SOL    HW128550   2.129   5.532   4.257
 8872SOL    HW228551   2.178   5.464   4.116
 8873SOL     OW28552   2.961   5.073   5.426
 8873SOL    HW128553   3.001   5.073   5.517
 8873SOL    HW228554   2.920   4.983   5.407
 8874SOL     OW28555   2.135   5.198   4.249
 8874SOL    HW128556   2.115   5.296   4.240
 8874SOL    HW228557   2.084   5.162   4.327
 8875SOL     OW28558   2.160   4.782   4.583
 8875SOL    HW128559   2.162   4.683   4.598
 8875SOL    HW228560   2.120   4.826   4.664
 8876SOL     OW28561   2.407   5.554   5.153
 8876SOL    HW128562   2.348   5.524   5.227
 8876SOL    HW228563   2.469   5.624   5.186
 8877SOL     OW28564   2.432   4.702   3.904
 8877SOL    HW128565   2.464   4.756   3.826
 8877SOL    HW228566   2.486   4.724   3.985
 8878SOL     OW28567   3.533   3.819   5.243
 8878SOL    HW128568   3.555   3.876   5.164
 8878SOL    HW228569   3.468   3.867   5.302
 8879SOL     OW28570   1.974   4.383   4.299
 8879SOL    HW128571   1.941   4.291   4.320
 8879SOL    HW228572   1.959   4.442   4.378
 8880SOL     OW28573   3.734   5.459   4.018
 8880SOL    HW128574   3.813   5.445   4.077
 8880SOL    HW228575   3.730   5.554   3.989
 8881SOL     OW28576   1.871   5.316   3.831
 8881SOL    HW128577   1.804   5.242   3.827
 8881SOL    HW228578   1.868   5.358   3.922
 8882SOL     OW28579   3.556   4.602   4.328
 8882SOL    HW128580   3.645   4.584   4.369
 8882SOL    HW228581   3.565   4.674   4.259
 8883SOL     OW28582   3.599   4.803   4.150
 8883SOL    HW128583   3.666   4.773   4.082
 8883SOL    HW228584   3.644   4.862   4.217
 8884SOL     OW28585   1.964   4.504   5.314
 8884SOL    HW128586   1.993   4.583   5.368
 8884SOL    HW228587   1.876   4.523   5.271
 8885SOL     OW28588   2.478   5.108   4.470
 8885SOL    HW128589   2.434   5.019   4.460
 8885SOL    HW228590   2.489   5.150   4.380
 8886SOL     OW28591   3.139   4.902   5.116
 8886SOL    HW128592   3.111   4.810   5.088
 8886SOL    HW228593   3.234   4.900   5.146
 8887SOL     OW28594   2.713   3.745   4.239
 8887SOL    HW128595   2.765   3.823   4.206
 8887SOL    HW228596   2.616   3.771   4.249
 8888SOL     OW28597   2.036   4.676   5.028
 8888SOL    HW128598   2.125   4.630   5.029
 8888SOL    HW228599   1.990   4.657   4.941
 8889SOL     OW28600   3.443   4.759   3.924
 8889SOL    HW128601   3.360   4.707   3.942
 8889SOL    HW228602   3.490   4.778   4.010
 8890SOL     OW28603   3.058   5.500   5.374
 8890SOL    HW128604   3.062   5.580   5.315
 8890SOL    HW228605   3.071   5.417   5.320
 8891SOL     OW28606   2.208   3.997   5.598
 8891SOL    HW128607   2.246   4.074   5.650
 8891SOL    HW228608   2.130   4.029   5.544
 8892SOL     OW28609   3.268   5.198   4.616
 8892SOL    HW128610   3.199   5.208   4.688
 8892SOL    HW228611   3.270   5.104   4.585
 8893SOL     OW28612   3.450   5.591   4.227
 8893SOL    HW128613   3.452   5.528   4.149
 8893SOL    HW228614   3.414   5.543   4.307
 8894SOL     OW28615   2.441   4.417   4.020
 8894SOL    HW128616   2.442   4.509   3.981
 8894SOL    HW228617   2.373   4.411   4.092
 8895SOL     OW28618   3.157   4.057   4.660
 8895SOL    HW128619   3.072   4.006   4.663
 8895SOL    HW228620   3.191   4.072   4.753
 8896SOL     OW28621   3.463   5.412   4.021
 8896SOL    HW128622   3.563   5.417   4.017
 8896SOL    HW228623   3.426   5.406   3.928
 8897SOL     OW28624   2.627   4.335   5.199
 8897SOL    HW128625   2.606   4.292   5.287
 8897SOL    HW228626   2.615   4.269   5.126
 8898SOL     OW28627   3.301   4.209   5.344
 8898SOL    HW128628   3.277   4.264   5.424
 8898SOL    HW228629   3.331   4.118   5.374
 8899SOL     OW28630   2.746   4.571   5.329
 8899SOL    HW128631   2.735   4.480   5.290
 8899SOL    HW228632   2.711   4.639   5.264
 8900SOL     OW28633   2.754   3.960   5.031
 8900SOL    HW128634   2.696   4.039   5.013
 8900SOL    HW228635   2.810   3.941   4.950
 8901SOL     OW28636   2.934   4.391   4.104
 8901SOL    HW128637   2.968   4.389   4.198
 8901SOL    HW228638   2.842   4.351   4.102
 8902SOL     OW28639   1.931   4.563   4.510
 8902SOL    HW128640   2.016   4.535   4.555
 8902SOL    HW228641   1.896   4.646   4.553
 8903SOL     OW28642   1.960   5.591   5.297
 8903SOL    HW128643   1.952   5.576   5.395
 8903SOL    HW228644   1.882   5.548   5.250
 8904SOL     OW28645   2.716   4.055   3.940
 8904SOL    HW128646   2.787   4.083   3.875
 8904SOL    HW228647   2.652   3.994   3.893
 8905SOL     OW28648   3.518   4.309   5.582
 8905SOL    HW128649   3.517   4.390   5.524
 8905SOL    HW228650   3.549   4.230   5.529
 8906SOL     OW28651   3.243   4.865   4.283
 8906SOL    HW128652   3.315   4.838   4.219
 8906SOL    HW228653   3.183   4.932   4.240
 8907SOL     OW28654   2.440   3.955   4.635
 8907SOL    HW128655   2.424   3.949   4.734
 8907SOL    HW228656   2.433   4.051   4.607
 8908SOL     OW28657   2.865   5.195   4.156
 8908SOL    HW128658   2.853   5.261   4.082
 8908SOL    HW228659   2.829   5.234   4.241
 8909SOL     OW28660   2.219   5.497   4.611
 8909SOL    HW128661   2.260   5.406   4.622
 8909SOL    HW228662   2.285   5.567   4.638
 8910SOL     OW28663   3.629   4.768   4.558
 8910SOL    HW128664   3.549   4.724   4.518
 8910SOL    HW228665   3.600   4.840   4.621
 8911SOL     OW28666   3.068   5.257   5.236
 8911SOL    HW128667   3.044   5.180   5.295
 8911SOL    HW228668   2.986   5.289   5.189
 8912SOL     OW28669   2.172   4.655   4.006
 8912SOL    HW128670   2.259   4.679   3.963
 8912SOL    HW228671   2.140   4.567   3.972
 8913SOL     OW28672   3.020   5.488   3.896
 8913SOL    HW128673   2.929   5.470   3.933
 8913SOL    HW228674   3.055   5.407   3.850
 8914SOL     OW28675   2.091   3.947   5.246
 8914SOL    HW128676   2.058   4.008   5.319
 8914SOL    HW228677   2.048   3.857   5.256
 8915SOL     OW28678   3.521   5.147   3.795
 8915SOL    HW128679   3.470   5.233   3.792
 8915SOL    HW228680   3.459   5.071   3.774
 8916SOL     OW28681   2.328   5.492   4.021
 8916SOL    HW128682   2.375   5.542   4.094
 8916SOL    HW228683   2.395   5.443   3.966
 8917SOL     OW28684   3.292   3.805   4.189
 8917SOL    HW128685   3.284   3.767   4.097
 8917SOL    HW228686   3.388   3.824   4.209
 8918SOL     OW28687   2.054   5.600   4.919
 8918SOL    HW128688   2.154   5.595   4.919
 8918SOL    HW228689   2.019   5.560   4.835
 8919SOL     OW28690   2.804   5.488   4.548
 8919SOL    HW128691   2.891   5.462   4.589
 8919SOL    HW228692   2.780   5.422   4.476
 8920SOL     OW28693   2.247   4.370   4.213
 8920SOL    HW128694   2.258   4.271   4.224
 8920SOL    HW228695   2.151   4.395   4.231
 8921SOL     OW28696   3.355   3.945   5.417
 8921SOL    HW128697   3.358   3.952   5.516
 8921SOL    HW228698   3.274   3.894   5.389
 8922SOL     OW28699   2.538   3.878   3.812
 8922SOL    HW128700   2.603   3.803   3.805
 8922SOL    HW228701   2.457   3.858   3.757
 8923SOL     OW28702   2.624   3.985   5.493
 8923SOL    HW128703   2.707   3.935   5.469
 8923SOL    HW228704   2.575   3.935   5.564
 8924SOL     OW28705   2.771   5.252   4.905
 8924SOL    HW128706   2.721   5.237   4.820
 8924SOL    HW228707   2.824   5.170   4.927
 8925SOL     OW28708   2.838   4.181   4.598
 8925SOL    HW128709   2.807   4.183   4.503
 8925SOL    HW228710   2.859   4.087   4.625
 8926SOL     OW28711   2.458   3.835   4.249
 8926SOL    HW128712   2.431   3.875   4.337
 8926SOL    HW228713   2.438   3.899   4.175
 8927SOL     OW28714   3.340   4.949   3.756
 8927SOL    HW128715   3.380   4.875   3.811
 8927SOL    HW228716   3.250   4.972   3.793
 8928SOL     OW28717   2.149   3.762   3.915
 8928SOL    HW128718   2.190   3.841   3.870
 8928SOL    HW228719   2.216   3.720   3.977
 8929SOL     OW28720   2.848   3.966   4.164
 8929SOL    HW128721   2.805   3.997   4.079
 8929SOL    HW228722   2.947   3.981   4.158
 8930SOL     OW28723   2.348   4.872   4.410
 8930SOL    HW128724   2.285   4.839   4.481
 8930SOL    HW228725   2.301   4.876   4.322
 8931SOL     OW28726   2.912   4.163   3.785
 8931SOL    HW128727   2.866   4.249   3.765
 8931SOL    HW228728   2.990   4.180   3.844
 8932SOL     OW28729   1.984   4.331   5.100
 8932SOL    HW128730   2.077   4.306   5.074
 8932SOL    HW228731   1.987   4.395   5.176
 8933SOL     OW28732   2.400   3.943   4.910
 8933SOL    HW128733   2.423   3.855   4.952
 8933SOL    HW228734   2.313   3.976   4.947
 8934SOL     OW28735   2.777   4.177   4.333
 8934SOL    HW128736   2.722   4.231   4.270
 8934SOL    HW228737   2.806   4.092   4.289
 8935SOL     OW28738   2.901   3.748   4.443
 8935SOL    HW128739   2.834   3.756   4.368
 8935SOL    HW228740   2.873   3.673   4.504
 8936SOL     OW28741   3.323   4.933   4.541
 8936SOL    HW128742   3.289   4.855   4.594
 8936SOL    HW228743   3.297   4.923   4.446
 8937SOL     OW28744   3.781   4.441   4.014
 8937SOL    HW128745   3.806   4.426   4.109
 8937SOL    HW228746   3.698   4.390   3.993
 8938SOL     OW28747   2.363   5.156   3.855
 8938SOL    HW128748   2.287   5.124   3.912
 8938SOL    HW228749   2.360   5.109   3.767
 8939SOL     OW28750   3.239   4.310   3.737
 8939SOL    HW128751   3.206   4.272   3.823
 8939SOL    HW228752   3.338   4.325   3.743
 8940SOL     OW28753   2.391   3.982   4.028
 8940SOL    HW128754   2.447   3.935   3.960
 8940SOL    HW228755   2.354   4.066   3.990
 8941SOL     OW28756   3.595   4.994   5.273
 8941SOL    HW128757   3.679   4.941   5.267
 8941SOL    HW228758   3.615   5.085   5.308
 8942SOL     OW28759   2.930   5.041   5.007
 8942SOL    HW128760   2.845   5.029   5.059
 8942SOL    HW228761   3.007   5.004   5.059
 8943SOL     OW28762   3.499   5.374   5.417
 8943SOL    HW128763   3.469   5.405   5.327
 8943SOL    HW228764   3.583   5.321   5.409
 8944SOL     OW28765   3.048   4.893   4.797
 8944SOL    HW128766   3.009   4.946   4.873
 8944SOL    HW228767   3.032   4.940   4.711
 8945SOL     OW28768   3.548   4.988   4.697
 8945SOL    HW128769   3.523   5.018   4.790
 8945SOL    HW228770   3.465   4.983   4.641
 8946SOL     OW28771   2.828   3.697   5.092
 8946SOL    HW128772   2.837   3.667   4.997
 8946SOL    HW228773   2.794   3.792   5.093
 8947SOL     OW28774   2.826   4.825   5.433
 8947SOL    HW128775   2.740   4.858   5.471
 8947SOL    HW228776   2.811   4.734   5.393
 8948SOL     OW28777   2.613   4.761   4.105
 8948SOL    HW128778   2.594   4.729   4.198
 8948SOL    HW228779   2.689   4.709   4.066
 8949SOL     OW28780   2.270   4.535   5.013
 8949SOL    HW128781   2.335   4.549   5.088
 8949SOL    HW228782   2.251   4.437   5.003
 8950SOL     OW28783   2.194   4.865   4.184
 8950SOL    HW128784   2.192   4.940   4.119
 8950SOL    HW228785   2.187   4.778   4.135
 8951SOL     OW28786   2.414   4.236   4.604
 8951SOL    HW128787   2.419   4.295   4.524
 8951SOL    HW228788   2.479   4.269   4.673
 8952SOL     OW28789   3.105   5.063   4.146
 8952SOL    HW128790   3.174   5.135   4.152
 8952SOL    HW228791   3.014   5.102   4.158
 8953SOL     OW28792   3.120   5.228   4.861
 8953SOL    HW128793   3.193   5.242   4.929
 8953SOL    HW228794   3.047   5.173   4.902
 8954SOL     OW28795   3.482   4.359   4.237
 8954SOL    HW128796   3.499   4.451   4.272
 8954SOL    HW228797   3.507   4.354   4.141
 8955SOL     OW28798   2.357   4.438   5.431
 8955SOL    HW128799   2.383   4.488   5.348
 8955SOL    HW228800   2.424   4.366   5.449
 8956SOL     OW28801   3.498   4.524   5.414
 8956SOL    HW128802   3.435   4.602   5.421
 8956SOL    HW228803   3.500   4.492   5.319
 8957SOL     OW28804   2.842   3.845   5.415
 8957SOL    HW128805   2.875   3.937   5.396
 8957SOL    HW228806   2.909   3.778   5.383
 8958SOL     OW28807   2.360   3.789   5.500
 8958SOL    HW128808   2.317   3.741   5.423
 8958SOL    HW228809   2.306   3.869   5.524
 8959SOL     OW28810   2.410   4.577   4.783
 8959SOL    HW128811   2.438   4.672   4.772
 8959SOL    HW228812   2.358   4.567   4.868
 8960SOL     OW28813   3.215   4.717   4.671
 8960SOL    HW128814   3.156   4.780   4.720
 8960SOL    HW228815   3.223   4.631   4.723
 8961SOL     OW28816   3.105   4.223   3.968
 8961SOL    HW128817   3.125   4.146   4.028
 8961SOL    HW228818   3.050   4.291   4.017
 8962SOL     OW28819   2.093   3.944   4.972
 8962SOL    HW128820   2.095   3.961   5.071
 8962SOL    HW228821   2.125   3.851   4.954
 8963SOL     OW28822   1.903   4.984   5.018
 8963SOL    HW128823   1.913   4.918   5.093
 8963SOL    HW228824   1.933   5.074   5.049
 8964SOL     OW28825   2.574   4.353   4.793
 8964SOL    HW128826   2.672   4.369   4.779
 8964SOL    HW228827   2.525   4.439   4.786
 8965SOL     OW28828   3.638   4.687   5.599
 8965SOL    HW128829   3.596   4.622   5.537
 8965SOL    HW228830   3.575   4.708   5.674
 8966SOL     OW28831   3.447   4.073   4.095
 8966SOL    HW128832   3.498   3.994   4.130
 8966SOL    HW228833   3.411   4.126   4.171
 8967SOL     OW28834   2.795   5.295   5.398
 8967SOL    HW128835   2.807   5.325   5.303
 8967SOL    HW228836   2.849   5.212   5.413
 8968SOL     OW28837   3.722   5.236   5.331
 8968SOL    HW128838   3.740   5.258   5.235
 8968SOL    HW228839   3.808   5.239   5.382
 8969SOL     OW28840   2.253   4.644   5.591
 8969SOL    HW128841   2.329   4.697   5.629
 8969SOL    HW228842   2.289   4.568   5.537
 8970SOL     OW28843   3.323   3.969   3.874
 8970SOL    HW128844   3.285   3.880   3.898
 8970SOL    HW228845   3.362   4.012   3.956
 8971SOL     OW28846   3.161   4.567   3.690
 8971SOL    HW128847   3.180   4.469   3.698
 8971SOL    HW228848   3.231   4.608   3.630
 8972SOL     OW28849   2.173   4.508   4.647
 8972SOL    HW128850   2.265   4.529   4.677
 8972SOL    HW228851   2.155   4.410   4.661
 8973SOL     OW28852   2.167   4.223   4.714
 8973SOL    HW128853   2.126   4.133   4.696
 8973SOL    HW228854   2.256   4.228   4.670
 8974SOL     OW28855   1.902   5.002   3.919
 8974SOL    HW128856   1.812   5.040   3.897
 8974SOL    HW228857   1.891   4.908   3.951
 8975SOL     OW28858   1.960   5.471   4.694
 8975SOL    HW128859   1.904   5.408   4.639
 8975SOL    HW228860   2.052   5.475   4.655
 8976SOL     OW28861   2.358   5.268   4.658
 8976SOL    HW128862   2.429   5.300   4.720
 8976SOL    HW228863   2.400   5.218   4.582
 8977SOL     OW28864   2.789   4.629   4.936
 8977SOL    HW128865   2.884   4.653   4.956
 8977SOL    HW228866   2.785   4.534   4.905
 8978SOL     OW28867   1.925   4.316   4.831
 8978SOL    HW128868   2.007   4.286   4.782
 8978SOL    HW228869   1.946   4.329   4.928
 8979SOL     OW28870   2.105   4.344   5.478
 8979SOL    HW128871   2.201   4.368   5.463
 8979SOL    HW228872   2.047   4.398   5.416
 8980SOL     OW28873   3.334   4.745   5.431
 8980SOL    HW128874   3.333   4.817   5.500
 8980SOL    HW228875   3.349   4.785   5.340
 8981SOL     OW28876   2.680   4.285   4.090
 8981SOL    HW128877   2.681   4.200   4.037
 8981SOL    HW228878   2.595   4.335   4.072
 8982SOL     OW28879   3.379   4.329   4.901
 8982SOL    HW128880   3.345   4.235   4.902
 8982SOL    HW228881   3.478   4.329   4.887
 8983SOL     OW28882   2.097   5.269   5.500
 8983SOL    HW128883   2.042   5.300   5.578
 8983SOL    HW228884   2.114   5.170   5.509
 8984SOL     OW28885   2.577   4.157   4.981
 8984SOL    HW128886   2.507   4.088   4.961
 8984SOL    HW228887   2.573   4.229   4.911
 8985SOL     OW28888   2.836   5.372   5.139
 8985SOL    HW128889   2.804   5.331   5.053
 8985SOL    HW228890   2.823   5.471   5.135
 8986SOL     OW28891   2.294   4.207   3.909
 8986SOL    HW128892   2.363   4.274   3.938
 8986SOL    HW228893   2.204   4.252   3.906
 8987SOL     OW28894   1.917   4.810   5.226
 8987SOL    HW128895   1.955   4.795   5.318
 8987SOL    HW228896   1.970   4.758   5.159
 8988SOL     OW28897   3.059   4.680   4.964
 8988SOL    HW128898   3.112   4.604   4.924
 8988SOL    HW228899   3.059   4.757   4.900
 8989SOL     OW28900   3.213   4.624   3.955
 8989SOL    HW128901   3.151   4.572   4.014
 8989SOL    HW228902   3.189   4.608   3.859
 8990SOL     OW28903   3.651   5.452   4.909
 8990SOL    HW128904   3.723   5.475   4.843
 8990SOL    HW228905   3.577   5.405   4.862
 8991SOL     OW28906   3.040   5.458   4.725
 8991SOL    HW128907   3.127   5.507   4.713
 8991SOL    HW228908   3.056   5.373   4.776
 8992SOL     OW28909   2.022   4.918   4.777
 8992SOL    HW128910   1.985   4.942   4.867
 8992SOL    HW228911   1.949   4.882   4.720
 8993SOL     OW28912   2.565   5.379   5.502
 8993SOL    HW128913   2.532   5.467   5.468
 8993SOL    HW228914   2.655   5.359   5.463
 8994SOL     OW28915   3.576   3.862   4.211
 8994SOL    HW128916   3.667   3.894   4.185
 8994SOL    HW228917   3.581   3.768   4.243
 8995SOL     OW28918   3.284   5.260   4.168
 8995SOL    HW128919   3.342   5.311   4.103
 8995SOL    HW228920   3.304   5.290   4.261
 8996SOL     OW28921   1.957   5.561   5.563
 8996SOL    HW128922   1.913   5.477   5.593
 8996SOL    HW228923   2.034   5.582   5.623
 8997SOL     OW28924   3.121   4.649   4.420
 8997SOL    HW128925   3.161   4.662   4.510
 8997SOL    HW228926   3.162   4.713   4.355
 8998SOL     OW28927   2.670   5.021   5.131
 8998SOL    HW128928   2.647   5.055   5.223
 8998SOL    HW228929   2.603   5.055   5.065
 8999SOL     OW28930   2.528   5.368   3.869
 8999SOL    HW128931   2.545   5.393   3.773
 8999SOL    HW228932   2.474   5.284   3.872
 9000SOL     OW28933   3.476   5.453   5.139
 9000SOL    HW128934   3.540   5.444   5.063
 9000SOL    HW228935   3.483   5.545   5.178
 9001SOL     OW28936   3.644   3.914   4.737
 9001SOL    HW128937   3.683   3.828   4.704
 9001SOL    HW228938   3.563   3.937   4.683
 9002SOL     OW28939   2.091   3.987   4.420
 9002SOL    HW128940   2.009   4.038   4.396
 9002SOL    HW228941   2.098   3.979   4.520
 9003SOL     OW28942   3.109   5.261   3.768
 9003SOL    HW128943   3.118   5.173   3.814
 9003SOL    HW228944   3.033   5.258   3.703
 9004SOL     OW28945   2.651   4.744   5.140
 9004SOL    HW128946   2.698   4.707   5.060
 9004SOL    HW228947   2.659   4.843   5.142
 9005SOL     OW28948   2.812   4.615   3.989
 9005SOL    HW128949   2.841   4.627   3.895
 9005SOL    HW228950   2.861   4.538   4.030
 9006SOL     OW28951   3.360   5.377   3.766
 9006SOL    HW128952   3.267   5.341   3.766
 9006SOL    HW228953   3.397   5.376   3.673
 9007SOL     OW28954   3.494   5.095   4.944
 9007SOL    HW128955   3.575   5.061   4.991
 9007SOL    HW228956   3.425   5.121   5.012
 9008SOL     OW28957   2.899   4.803   4.467
 9008SOL    HW128958   2.818   4.758   4.505
 9008SOL    HW228959   2.965   4.734   4.437
 9009SOL     OW28960   2.920   3.919   4.656
 9009SOL    HW128961   2.919   3.877   4.566
 9009SOL    HW228962   2.904   3.850   4.726
 9010SOL     OW28963   2.499   5.204   4.216
 9010SOL    HW128964   2.547   5.146   4.151
 9010SOL    HW228965   2.406   5.222   4.182
 9011SOL     OW28966   3.700   4.150   5.187
 9011SOL    HW128967   3.725   4.242   5.159
 9011SOL    HW228968   3.663   4.100   5.109
 9012SOL     OW28969   2.152   5.075   4.013
 9012SOL    HW128970   2.060   5.056   3.978
 9012SOL    HW228971   2.145   5.128   4.097
 9013SOL     OW28972   2.017   4.726   5.472
 9013SOL    HW128973   1.938   4.715   5.532
 9013SOL    HW228974   2.100   4.697   5.521
 9014SOL     OW28975   2.553   3.951   5.229
 9014SOL    HW128976   2.637   3.955   5.174
 9014SOL    HW228977   2.576   3.966   5.326
 9015SOL     OW28978   1.929   4.048   3.739
 9015SOL    HW128979   1.845   4.036   3.686
 9015SOL    HW228980   1.969   4.138   3.719
 9016SOL     OW28981   1.905   3.865   3.964
 9016SOL    HW128982   1.889   3.933   3.892
 9016SOL    HW228983   1.997   3.827   3.954
 9017SOL     OW28984   3.101   5.009   3.878
 9017SOL    HW128985   3.018   4.959   3.854
 9017SOL    HW228986   3.106   5.020   3.977
 9018SOL     OW28987   2.462   4.551   5.200
 9018SOL    HW128988   2.516   4.634   5.184
 9018SOL    HW228989   2.522   4.471   5.193
 9019SOL     OW28990   3.301   5.569   4.729
 9019SOL    HW128991   3.352   5.627   4.665
 9019SOL    HW228992   3.358   5.493   4.758
 9020SOL     OW28993   2.568   4.256   5.455
 9020SOL    HW128994   2.626   4.314   5.514
 9020SOL    HW228995   2.589   4.160   5.473
 9021SOL     OW28996   2.219   5.487   5.360
 9021SOL    HW128997   2.136   5.531   5.325
 9021SOL    HW228998   2.195   5.404   5.409
 9022SOL     OW28999   3.120   4.024   4.170
 9022SOL    HW129000   3.179   3.943   4.171
 9022SOL    HW229001   3.131   4.074   4.255
 9023SOL     OW29002   2.431   4.428   4.408
 9023SOL    HW129003   2.475   4.516   4.389
 9023SOL    HW229004   2.362   4.410   4.338
 9024SOL     OW29005   3.592   4.094   5.431
 9024SOL    HW129006   3.628   4.117   5.340
 9024SOL    HW229007   3.514   4.032   5.421
 9025SOL     OW29008   2.708   5.052   3.781
 9025SOL    HW129009   2.691   5.074   3.877
 9025SOL    HW229010   2.766   5.122   3.740
 9026SOL     OW29011   2.609   5.513   4.740
 9026SOL    HW129012   2.536   5.574   4.711
 9026SOL    HW229013   2.671   5.495   4.664
 9027SOL     OW29014   2.680   4.702   4.608
 9027SOL    HW129015   2.717   4.637   4.674
 9027SOL    HW229016   2.610   4.758   4.652
 9028SOL     OW29017   2.895   4.625   3.725
 9028SOL    HW129018   2.859   4.697   3.666
 9028SOL    HW229019   2.993   4.612   3.706
 9029SOL     OW29020   3.742   5.240   4.647
 9029SOL    HW129021   3.739   5.208   4.552
 9029SOL    HW229022   3.675   5.190   4.701
 9030SOL     OW29023   2.068   4.999   5.537
 9030SOL    HW129024   2.070   4.907   5.497
 9030SOL    HW229025   2.011   4.998   5.619
 9031SOL     OW29026   2.014   4.933   4.386
 9031SOL    HW129027   2.053   4.881   4.463
 9031SOL    HW229028   2.067   4.914   4.303
 9032SOL     OW29029   2.529   5.121   5.369
 9032SOL    HW129030   2.449   5.123   5.308
 9032SOL    HW229031   2.537   5.209   5.416
 9033SOL     OW29032   3.643   3.939   5.013
 9033SOL    HW129033   3.730   3.895   5.033
 9033SOL    HW229034   3.628   3.941   4.915
 9034SOL     OW29035   2.266   4.106   4.248
 9034SOL    HW129036   2.293   4.045   4.173
 9034SOL    HW229037   2.205   4.056   4.310
 9035SOL     OW29038   3.451   5.314   4.786
 9035SOL    HW129039   3.390   5.282   4.714
 9035SOL    HW229040   3.466   5.240   4.852
 9036SOL     OW29041   2.224   4.270   4.992
 9036SOL    HW129042   2.267   4.200   5.050
 9036SOL    HW229043   2.218   4.236   4.898
 9037SOL     OW29044   2.707   5.350   4.328
 9037SOL    HW129045   2.707   5.439   4.283
 9037SOL    HW229046   2.629   5.297   4.296
 9038SOL     OW29047   3.270   4.070   4.907
 9038SOL    HW129048   3.304   3.976   4.910
 9038SOL    HW229049   3.228   4.094   4.994
 9039SOL     OW29050   2.884   3.691   4.807
 9039SOL    HW129051   2.844   3.623   4.746
 9039SOL    HW229052   2.980   3.668   4.823
 9040SOL     OW29053   2.654   5.038   4.062
 9040SOL    HW129054   2.642   4.940   4.076
 9040SOL    HW229055   2.741   5.067   4.103
 9041SOL     OW29056   2.473   5.375   4.938
 9041SOL    HW129057   2.452   5.431   5.019
 9041SOL    HW229058   2.535   5.425   4.878
 9042SOL     OW29059   3.250   3.714   3.937
 9042SOL    HW129060   3.296   3.651   3.874
 9042SOL    HW229061   3.158   3.681   3.956
 9043SOL     OW29062   3.162   4.159   4.404
 9043SOL    HW129063   3.113   4.245   4.390
 9043SOL    HW229064   3.150   4.128   4.498
 9044SOL     OW29065   3.411   3.965   4.601
 9044SOL    HW129066   3.317   3.994   4.621
 9044SOL    HW229067   3.443   4.011   4.518
 9045SOL     OW29068   1.905   4.743   4.036
 9045SOL    HW129069   2.004   4.733   4.020
 9045SOL    HW229070   1.864   4.653   4.050
 9046SOL     OW29071   2.770   5.408   3.998
 9046SOL    HW129072   2.687   5.383   3.947
 9046SOL    HW229073   2.747   5.475   4.069
 9047SOL     OW29074   2.061   4.361   5.749
 9047SOL    HW129075   1.968   4.330   5.769
 9047SOL    HW229076   2.074   4.365   5.650
 9048SOL     OW29077   2.085   4.012   6.584
 9048SOL    HW129078   2.130   3.986   6.669
 9048SOL    HW229079   1.991   3.977   6.584
 9049SOL     OW29080   1.869   4.127   6.222
 9049SOL    HW129081   1.789   4.154   6.275
 9049SOL    HW229082   1.844   4.057   6.155
 9050SOL     OW29083   2.434   5.022   6.798
 9050SOL    HW129084   2.343   5.015   6.756
 9050SOL    HW229085   2.452   5.117   6.823
 9051SOL     OW29086   3.456   5.250   6.282
 9051SOL    HW129087   3.415   5.216   6.366
 9051SOL    HW229088   3.385   5.262   6.212
 9052SOL     OW29089   2.985   4.459   6.239
 9052SOL    HW129090   3.044   4.538   6.224
 9052SOL    HW229091   2.937   4.469   6.326
 9053SOL     OW29092   3.621   4.262   5.828
 9053SOL    HW129093   3.587   4.286   5.737
 9053SOL    HW229094   3.559   4.196   5.870
 9054SOL     OW29095   2.585   4.849   6.641
 9054SOL    HW129096   2.525   4.888   6.711
 9054SOL    HW229097   2.628   4.924   6.589
 9055SOL     OW29098   2.767   4.443   7.374
 9055SOL    HW129099   2.790   4.504   7.450
 9055SOL    HW229100   2.773   4.493   7.288
 9056SOL     OW29101   2.578   4.697   6.220
 9056SOL    HW129102   2.647   4.705   6.292
 9056SOL    HW229103   2.500   4.756   6.241
 9057SOL     OW29104   2.555   4.880   7.440
 9057SOL    HW129105   2.581   4.964   7.487
 9057SOL    HW229106   2.484   4.901   7.372
 9058SOL     OW29107   2.196   5.091   6.663
 9058SOL    HW129108   2.123   5.033   6.630
 9058SOL    HW229109   2.237   5.141   6.587
 9059SOL     OW29110   3.279   5.256   6.968
 9059SOL    HW129111   3.335   5.335   6.990
 9059SOL    HW229112   3.202   5.251   7.031
 9060SOL     OW29113   2.345   4.116   7.038
 9060SOL    HW129114   2.416   4.114   7.109
 9060SOL    HW229115   2.267   4.061   7.068
 9061SOL     OW29116   3.470   4.196   6.352
 9061SOL    HW129117   3.443   4.235   6.264
 9061SOL    HW229118   3.431   4.250   6.426
 9062SOL     OW29119   2.121   5.472   6.068
 9062SOL    HW129120   2.145   5.541   6.136
 9062SOL    HW229121   2.195   5.464   6.001
 9063SOL     OW29122   2.955   5.078   7.324
 9063SOL    HW129123   3.046   5.052   7.358
 9063SOL    HW229124   2.898   4.997   7.316
 9064SOL     OW29125   2.115   5.197   6.093
 9064SOL    HW129126   2.108   5.296   6.106
 9064SOL    HW229127   2.087   5.150   6.176
 9065SOL     OW29128   2.172   4.808   6.457
 9065SOL    HW129129   2.187   4.711   6.475
 9065SOL    HW229130   2.109   4.845   6.525
 9066SOL     OW29131   2.395   5.488   7.021
 9066SOL    HW129132   2.318   5.490   7.084
 9066SOL    HW229133   2.454   5.566   7.038
 9067SOL     OW29134   2.461   4.771   5.711
 9067SOL    HW129135   2.518   4.824   5.648
 9067SOL    HW229136   2.503   4.770   5.802
 9068SOL     OW29137   3.551   3.826   7.100
 9068SOL    HW129138   3.580   3.895   7.033
 9068SOL    HW229139   3.483   3.866   7.162
 9069SOL     OW29140   1.973   4.389   6.172
 9069SOL    HW129141   1.948   4.294   6.191
 9069SOL    HW229142   1.971   4.442   6.256
 9070SOL     OW29143   3.731   5.457   5.925
 9070SOL    HW129144   3.813   5.450   5.982
 9070SOL    HW229145   3.724   5.549   5.888
 9071SOL     OW29146   1.899   5.322   5.686
 9071SOL    HW129147   1.831   5.248   5.687
 9071SOL    HW229148   1.902   5.365   5.776
 9072SOL     OW29149   3.566   4.653   6.257
 9072SOL    HW129150   3.638   4.590   6.227
 9072SOL    HW229151   3.546   4.719   6.185
 9073SOL     OW29152   3.542   4.835   6.047
 9073SOL    HW129153   3.623   4.799   6.000
 9073SOL    HW229154   3.568   4.914   6.102
 9074SOL     OW29155   1.961   4.539   7.093
 9074SOL    HW129156   2.020   4.591   7.031
 9074SOL    HW229157   1.870   4.580   7.095
 9075SOL     OW29158   2.486   5.097   6.300
 9075SOL    HW129159   2.449   5.004   6.304
 9075SOL    HW229160   2.471   5.135   6.209
 9076SOL     OW29161   3.096   4.922   7.014
 9076SOL    HW129162   3.119   4.856   6.943
 9076SOL    HW229163   3.172   4.930   7.079
 9077SOL     OW29164   2.697   3.786   6.083
 9077SOL    HW129165   2.734   3.874   6.054
 9077SOL    HW229166   2.598   3.794   6.093
 9078SOL     OW29167   2.096   4.691   6.911
 9078SOL    HW129168   2.185   4.647   6.896
 9078SOL    HW229169   2.060   4.723   6.823
 9079SOL     OW29170   3.436   4.753   5.802
 9079SOL    HW129171   3.364   4.686   5.819
 9079SOL    HW229172   3.473   4.785   5.889
 9080SOL     OW29173   3.044   5.473   7.233
 9080SOL    HW129174   3.053   5.551   7.171
 9080SOL    HW229175   3.035   5.389   7.179
 9081SOL     OW29176   2.211   4.035   7.460
 9081SOL    HW129177   2.246   4.108   7.518
 9081SOL    HW229178   2.136   4.070   7.404
 9082SOL     OW29179   3.359   5.145   6.515
 9082SOL    HW129180   3.296   5.177   6.586
 9082SOL    HW229181   3.328   5.056   6.482
 9083SOL     OW29182   3.497   5.574   6.143
 9083SOL    HW129183   3.489   5.512   6.065
 9083SOL    HW229184   3.520   5.523   6.225
 9084SOL     OW29185   2.424   4.427   5.876
 9084SOL    HW129186   2.427   4.520   5.839
 9084SOL    HW229187   2.357   4.423   5.951
 9085SOL     OW29188   3.134   4.131   6.502
 9085SOL    HW129189   3.041   4.096   6.490
 9085SOL    HW229190   3.184   4.071   6.564
 9086SOL     OW29191   3.465   5.402   5.928
 9086SOL    HW129192   3.565   5.407   5.929
 9086SOL    HW229193   3.434   5.390   5.834
 9087SOL     OW29194   2.679   4.312   7.029
 9087SOL    HW129195   2.640   4.282   7.116
 9087SOL    HW229196   2.654   4.247   6.957
 9088SOL     OW29197   3.233   4.181   7.223
 9088SOL    HW129198   3.229   4.230   7.310
 9088SOL    HW229199   3.288   4.098   7.235
 9089SOL     OW29200   2.818   4.623   7.160
 9089SOL    HW129201   2.881   4.562   7.114
 9089SOL    HW229202   2.762   4.671   7.093
 9090SOL     OW29203   2.877   4.106   6.752
 9090SOL    HW129204   2.784   4.121   6.784
 9090SOL    HW229205   2.875   4.064   6.661
 9091SOL     OW29206   2.906   4.416   5.974
 9091SOL    HW129207   2.932   4.427   6.070
 9091SOL    HW229208   2.817   4.370   5.969
 9092SOL     OW29209   1.961   4.557   6.389
 9092SOL    HW129210   2.054   4.551   6.426
 9092SOL    HW229211   1.905   4.612   6.450
 9093SOL     OW29212   1.945   5.622   7.251
 9093SOL    HW129213   1.942   5.572   7.337
 9093SOL    HW229214   1.852   5.630   7.214
 9094SOL     OW29215   2.706   4.082   5.778
 9094SOL    HW129216   2.764   4.118   5.705
 9094SOL    HW229217   2.649   4.008   5.741
 9095SOL     OW29218   3.492   4.312   7.447
 9095SOL    HW129219   3.493   4.391   7.386
 9095SOL    HW229220   3.533   4.233   7.401
 9096SOL     OW29221   3.276   4.896   6.134
 9096SOL    HW129222   3.367   4.883   6.093
 9096SOL    HW229223   3.223   4.960   6.078
 9097SOL     OW29224   2.437   3.815   6.547
 9097SOL    HW129225   2.445   3.854   6.638
 9097SOL    HW229226   2.445   3.887   6.478
 9098SOL     OW29227   2.860   5.182   6.063
 9098SOL    HW129228   2.840   5.256   5.999
 9098SOL    HW229229   2.825   5.205   6.153
 9099SOL     OW29230   2.221   5.503   6.485
 9099SOL    HW129231   2.254   5.409   6.478
 9099SOL    HW229232   2.290   5.559   6.529
 9100SOL     OW29233   3.651   4.771   6.495
 9100SOL    HW129234   3.610   4.743   6.407
 9100SOL    HW229235   3.578   4.799   6.557
 9101SOL     OW29236   3.029   5.233   7.103
 9101SOL    HW129237   3.007   5.177   7.183
 9101SOL    HW229238   2.981   5.199   7.023
 9102SOL     OW29239   2.147   4.630   5.848
 9102SOL    HW129240   2.186   4.651   5.759
 9102SOL    HW229241   2.123   4.533   5.852
 9103SOL     OW29242   3.345   4.505   6.327
 9103SOL    HW129243   3.344   4.462   6.417
 9103SOL    HW229244   3.428   4.560   6.317
 9104SOL     OW29245   2.361   4.980   7.273
 9104SOL    HW129246   2.323   4.990   7.181
 9104SOL    HW229247   2.288   4.992   7.340
 9105SOL     OW29248   3.019   5.493   5.825
 9105SOL    HW129249   2.931   5.461   5.860
 9105SOL    HW229250   3.046   5.436   5.747
 9106SOL     OW29251   2.115   3.979   7.099
 9106SOL    HW129252   2.082   4.046   7.165
 9106SOL    HW229253   2.068   3.892   7.114
 9107SOL     OW29254   3.517   5.120   5.684
 9107SOL    HW129255   3.470   5.208   5.681
 9107SOL    HW229256   3.454   5.048   5.652
 9108SOL     OW29257   2.344   5.478   5.900
 9108SOL    HW129258   2.389   5.536   5.967
 9108SOL    HW229259   2.413   5.421   5.854
 9109SOL     OW29260   3.287   3.884   5.998
 9109SOL    HW129261   3.261   3.832   5.917
 9109SOL    HW229262   3.330   3.822   6.065
 9110SOL     OW29263   2.077   5.517   6.817
 9110SOL    HW129264   2.133   5.439   6.843
 9110SOL    HW229265   2.047   5.508   6.722
 9111SOL     OW29266   2.800   5.415   6.465
 9111SOL    HW129267   2.893   5.377   6.463
 9111SOL    HW229268   2.745   5.371   6.394
 9112SOL     OW29269   2.243   4.397   6.081
 9112SOL    HW129270   2.259   4.299   6.092
 9112SOL    HW229271   2.148   4.418   6.104
 9113SOL     OW29272   3.365   3.935   7.286
 9113SOL    HW129273   3.363   3.945   7.386
 9113SOL    HW229274   3.306   3.859   7.259
 9114SOL     OW29275   2.523   3.845   5.712
 9114SOL    HW129276   2.569   3.765   5.750
 9114SOL    HW229277   2.456   3.816   5.644
 9115SOL     OW29278   2.588   3.977   7.258
 9115SOL    HW129279   2.671   3.932   7.289
 9115SOL    HW229280   2.508   3.928   7.294
 9116SOL     OW29281   2.714   5.227   6.753
 9116SOL    HW129282   2.695   5.176   6.669
 9116SOL    HW229283   2.782   5.179   6.807
 9117SOL     OW29284   3.206   4.322   6.982
 9117SOL    HW129285   3.220   4.287   7.074
 9117SOL    HW229286   3.229   4.419   6.979
 9118SOL     OW29287   2.676   5.074   6.517
 9118SOL    HW129288   2.770   5.085   6.484
 9118SOL    HW229289   2.613   5.088   6.441
 9119SOL     OW29290   2.778   4.239   6.449
 9119SOL    HW129291   2.753   4.235   6.353
 9119SOL    HW229292   2.811   4.150   6.479
 9120SOL     OW29293   2.418   3.797   6.081
 9120SOL    HW129294   2.341   3.783   6.143
 9120SOL    HW229295   2.402   3.878   6.025
 9121SOL     OW29296   3.319   4.929   5.634
 9121SOL    HW129297   3.358   4.865   5.700
 9121SOL    HW229298   3.227   4.955   5.664
 9122SOL     OW29299   2.112   3.774   5.726
 9122SOL    HW129300   2.152   3.857   5.685
 9122SOL    HW229301   2.181   3.728   5.782
 9123SOL     OW29302   2.826   4.012   6.012
 9123SOL    HW129303   2.786   4.039   5.924
 9123SOL    HW229304   2.924   4.028   6.011
 9124SOL     OW29305   2.925   4.431   6.993
 9124SOL    HW129306   2.846   4.373   7.011
 9124SOL    HW229307   3.008   4.375   6.987
 9125SOL     OW29308   3.059   5.340   6.409
 9125SOL    HW129309   3.086   5.388   6.326
 9125SOL    HW229310   3.101   5.384   6.488
 9126SOL     OW29311   2.361   4.856   6.268
 9126SOL    HW129312   2.299   4.838   6.344
 9126SOL    HW229313   2.310   4.852   6.182
 9127SOL     OW29314   3.107   5.516   6.200
 9127SOL    HW129315   3.161   5.582   6.148
 9127SOL    HW229316   3.024   5.560   6.235
 9128SOL     OW29317   2.877   4.219   5.607
 9128SOL    HW129318   2.829   4.307   5.598
 9128SOL    HW229319   2.952   4.229   5.672
 9129SOL     OW29320   1.984   4.311   6.948
 9129SOL    HW129321   2.082   4.302   6.926
 9129SOL    HW229322   1.971   4.388   7.010
 9130SOL     OW29323   2.447   3.936   6.791
 9130SOL    HW129324   2.493   3.899   6.871
 9130SOL    HW229325   2.349   3.944   6.809
 9131SOL     OW29326   2.728   4.198   6.190
 9131SOL    HW129327   2.677   4.256   6.126
 9131SOL    HW229328   2.769   4.122   6.140
 9132SOL     OW29329   2.901   3.795   6.277
 9132SOL    HW129330   2.838   3.802   6.200
 9132SOL    HW229331   2.873   3.719   6.336
 9133SOL     OW29332   3.267   4.907   6.424
 9133SOL    HW129333   3.172   4.878   6.436
 9133SOL    HW229334   3.290   4.906   6.327
 9134SOL     OW29335   3.320   4.328   6.559
 9134SOL    HW129336   3.246   4.263   6.538
 9134SOL    HW229337   3.361   4.305   6.647
 9135SOL     OW29338   3.645   4.469   6.002
 9135SOL    HW129339   3.716   4.449   6.068
 9135SOL    HW229340   3.645   4.399   5.931
 9136SOL     OW29341   2.385   5.107   5.761
 9136SOL    HW129342   2.292   5.091   5.797
 9136SOL    HW229343   2.411   5.031   5.701
 9137SOL     OW29344   3.615   5.031   6.206
 9137SOL    HW129345   3.711   5.034   6.232
 9137SOL    HW229346   3.570   5.117   6.234
 9138SOL     OW29347   3.240   4.318   5.593
 9138SOL    HW129348   3.185   4.289   5.672
 9138SOL    HW229349   3.337   4.309   5.616
 9139SOL     OW29350   2.375   3.990   5.898
 9139SOL    HW129351   2.431   3.940   5.832
 9139SOL    HW229352   2.338   4.072   5.855
 9140SOL     OW29353   3.573   5.001   7.105
 9140SOL    HW129354   3.651   4.945   7.077
 9140SOL    HW229355   3.606   5.084   7.150
 9141SOL     OW29356   2.885   5.065   6.920
 9141SOL    HW129357   2.795   5.037   6.954
 9141SOL    HW229358   2.956   5.009   6.963
 9142SOL     OW29359   3.550   5.428   7.255
 9142SOL    HW129360   3.504   5.448   7.168
 9142SOL    HW229361   3.607   5.347   7.245
 9143SOL     OW29362   3.025   4.995   6.694
 9143SOL    HW129363   2.963   5.018   6.769
 9143SOL    HW229364   2.984   5.024   6.607
 9144SOL     OW29365   3.447   4.855   6.662
 9144SOL    HW129366   3.432   4.921   6.736
 9144SOL    HW229367   3.374   4.864   6.595
 9145SOL     OW29368   2.832   3.787   6.908
 9145SOL    HW129369   2.858   3.780   6.812
 9145SOL    HW229370   2.905   3.833   6.960
 9146SOL     OW29371   2.808   4.844   7.331
 9146SOL    HW129372   2.713   4.852   7.362
 9146SOL    HW229373   2.815   4.769   7.264
 9147SOL     OW29374   2.605   4.753   5.950
 9147SOL    HW129375   2.595   4.724   6.045
 9147SOL    HW229376   2.669   4.692   5.903
 9148SOL     OW29377   2.324   4.548   6.863
 9148SOL    HW129378   2.392   4.553   6.937
 9148SOL    HW229379   2.288   4.455   6.857
 9149SOL     OW29380   3.112   4.086   6.877
 9149SOL    HW129381   3.144   4.174   6.912
 9149SOL    HW229382   3.024   4.099   6.831
 9150SOL     OW29383   1.922   5.266   6.924
 9150SOL    HW129384   1.878   5.344   6.879
 9150SOL    HW229385   2.021   5.274   6.915
 9151SOL     OW29386   2.196   4.844   6.045
 9151SOL    HW129387   2.189   4.920   5.980
 9151SOL    HW229388   2.189   4.758   5.995
 9152SOL     OW29389   2.391   4.277   6.459
 9152SOL    HW129390   2.410   4.332   6.377
 9152SOL    HW229391   2.467   4.286   6.523
 9153SOL     OW29392   3.115   5.098   5.983
 9153SOL    HW129393   3.176   5.170   6.017
 9153SOL    HW229394   3.022   5.114   6.016
 9154SOL     OW29395   3.191   5.211   6.718
 9154SOL    HW129396   3.224   5.226   6.811
 9154SOL    HW229397   3.135   5.128   6.715
 9155SOL     OW29398   3.425   4.334   6.116
 9155SOL    HW129399   3.366   4.393   6.172
 9155SOL    HW229400   3.492   4.391   6.068
 9156SOL     OW29401   2.191   5.262   6.870
 9156SOL    HW129402   2.186   5.199   6.793
 9156SOL    HW229403   2.287   5.284   6.888
 9157SOL     OW29404   2.355   4.447   7.265
 9157SOL    HW129405   2.398   4.496   7.189
 9157SOL    HW229406   2.412   4.369   7.289
 9158SOL     OW29407   3.484   4.530   7.290
 9158SOL    HW129408   3.395   4.571   7.267
 9158SOL    HW229409   3.549   4.550   7.217
 9159SOL     OW29410   2.815   3.851   7.334
 9159SOL    HW129411   2.886   3.919   7.318
 9159SOL    HW229412   2.856   3.764   7.361
 9160SOL     OW29413   2.371   3.845   7.360
 9160SOL    HW129414   2.319   3.769   7.320
 9160SOL    HW229415   2.308   3.916   7.391
 9161SOL     OW29416   2.464   4.596   6.631
 9161SOL    HW129417   2.505   4.687   6.628
 9161SOL    HW229418   2.413   4.585   6.716
 9162SOL     OW29419   3.142   4.551   6.609
 9162SOL    HW129420   3.057   4.526   6.562
 9162SOL    HW229421   3.209   4.477   6.597
 9163SOL     OW29422   3.061   4.259   5.807
 9163SOL    HW129423   3.085   4.182   5.867
 9163SOL    HW229424   3.012   4.328   5.859
 9164SOL     OW29425   2.176   3.934   6.832
 9164SOL    HW129426   2.154   3.969   6.923
 9164SOL    HW229427   2.140   3.841   6.822
 9165SOL     OW29428   1.918   4.999   6.865
 9165SOL    HW129429   1.940   4.953   6.950
 9165SOL    HW229430   1.910   5.098   6.882
 9166SOL     OW29431   2.595   4.351   6.629
 9166SOL    HW129432   2.659   4.329   6.556
 9166SOL    HW229433   2.556   4.442   6.613
 9167SOL     OW29434   3.580   4.737   7.450
 9167SOL    HW129435   3.546   4.654   7.405
 9167SOL    HW229436   3.518   4.764   7.523
 9168SOL     OW29437   2.186   3.759   6.227
 9168SOL    HW129438   2.148   3.850   6.242
 9168SOL    HW229439   2.197   3.711   6.314
 9169SOL     OW29440   3.432   4.110   5.948
 9169SOL    HW129441   3.381   4.028   5.975
 9169SOL    HW229442   3.409   4.186   6.009
 9170SOL     OW29443   2.885   4.481   6.510
 9170SOL    HW129444   2.862   4.502   6.606
 9170SOL    HW229445   2.854   4.389   6.488
 9171SOL     OW29446   2.791   5.291   7.408
 9171SOL    HW129447   2.765   5.340   7.325
 9171SOL    HW229448   2.852   5.215   7.384
 9172SOL     OW29449   3.722   5.227   7.184
 9172SOL    HW129450   3.743   5.246   7.089
 9172SOL    HW229451   3.805   5.233   7.239
 9173SOL     OW29452   2.248   4.636   7.444
 9173SOL    HW129453   2.321   4.664   7.507
 9173SOL    HW229454   2.284   4.568   7.380
 9174SOL     OW29455   3.351   3.964   5.684
 9174SOL    HW129456   3.302   3.884   5.720
 9174SOL    HW229457   3.387   4.018   5.760
 9175SOL     OW29458   3.169   4.580   5.576
 9175SOL    HW129459   3.192   4.484   5.567
 9175SOL    HW229460   3.226   4.634   5.514
 9176SOL     OW29461   2.937   5.094   6.450
 9176SOL    HW129462   2.970   5.013   6.402
 9176SOL    HW229463   2.992   5.173   6.423
 9177SOL     OW29464   2.207   4.542   6.521
 9177SOL    HW129465   2.304   4.556   6.538
 9177SOL    HW229466   2.181   4.450   6.548
 9178SOL     OW29467   2.157   4.270   6.580
 9178SOL    HW129468   2.119   4.178   6.578
 9178SOL    HW229469   2.242   4.272   6.528
 9179SOL     OW29470   2.990   4.057   7.275
 9179SOL    HW129471   2.942   4.110   7.345
 9179SOL    HW229472   3.076   4.102   7.253
 9180SOL     OW29473   3.030   3.901   7.055
 9180SOL    HW129474   3.004   3.952   7.137
 9180SOL    HW229475   3.070   3.964   6.988
 9181SOL     OW29476   1.907   4.980   5.759
 9181SOL    HW129477   1.822   5.031   5.745
 9181SOL    HW229478   1.885   4.891   5.800
 9182SOL     OW29479   1.961   5.499   6.564
 9182SOL    HW129480   1.911   5.427   6.516
 9182SOL    HW229481   2.054   5.505   6.527
 9183SOL     OW29482   2.336   5.247   6.482
 9183SOL    HW129483   2.409   5.304   6.522
 9183SOL    HW229484   2.375   5.189   6.410
 9184SOL     OW29485   2.797   4.522   6.763
 9184SOL    HW129486   2.853   4.504   6.844
 9184SOL    HW229487   2.718   4.460   6.763
 9185SOL     OW29488   1.904   4.339   6.689
 9185SOL    HW129489   1.986   4.326   6.633
 9185SOL    HW229490   1.928   4.331   6.786
 9186SOL     OW29491   2.083   4.397   7.296
 9186SOL    HW129492   2.181   4.413   7.286
 9186SOL    HW229493   2.032   4.455   7.232
 9187SOL     OW29494   3.257   4.656   7.207
 9187SOL    HW129495   3.272   4.755   7.211
 9187SOL    HW229496   3.257   4.627   7.112
 9188SOL     OW29497   2.661   4.304   5.938
 9188SOL    HW129498   2.667   4.222   5.880
 9188SOL    HW229499   2.576   4.352   5.917
 9189SOL     OW29500   2.065   5.264   7.318
 9189SOL    HW129501   2.035   5.325   7.391
 9189SOL    HW229502   2.094   5.177   7.357
 9190SOL     OW29503   2.615   4.155   6.815
 9190SOL    HW129504   2.549   4.081   6.806
 9190SOL    HW229505   2.595   4.225   6.746
 9191SOL     OW29506   2.718   5.402   7.160
 9191SOL    HW129507   2.680   5.323   7.113
 9191SOL    HW229508   2.755   5.467   7.093
 9192SOL     OW29509   2.288   4.210   5.764
 9192SOL    HW129510   2.358   4.276   5.790
 9192SOL    HW229511   2.198   4.254   5.767
 9193SOL     OW29512   1.995   4.867   7.096
 9193SOL    HW129513   2.007   4.840   7.191
 9193SOL    HW229514   2.038   4.799   7.036
 9194SOL     OW29515   3.134   4.757   6.788
 9194SOL    HW129516   3.136   4.684   6.719
 9194SOL    HW229517   3.100   4.841   6.746
 9195SOL     OW29518   3.225   4.592   5.845
 9195SOL    HW129519   3.151   4.560   5.904
 9195SOL    HW229520   3.196   4.585   5.749
 9196SOL     OW29521   3.604   5.452   6.759
 9196SOL    HW129522   3.682   5.494   6.713
 9196SOL    HW229523   3.594   5.357   6.727
 9197SOL     OW29524   3.146   5.465   6.638
 9197SOL    HW129525   3.232   5.516   6.644
 9197SOL    HW229526   3.160   5.373   6.675
 9198SOL     OW29527   1.987   4.905   6.623
 9198SOL    HW129528   1.956   4.942   6.711
 9198SOL    HW229529   1.912   4.855   6.580
 9199SOL     OW29530   2.501   5.400   7.333
 9199SOL    HW129531   2.444   5.480   7.353
 9199SOL    HW229532   2.577   5.428   7.275
 9200SOL     OW29533   3.264   5.306   6.089
 9200SOL    HW129534   3.331   5.342   6.025
 9200SOL    HW229535   3.203   5.379   6.119
 9201SOL     OW29536   1.977   5.459   7.494
 9201SOL    HW129537   1.920   5.412   7.561
 9201SOL    HW229538   2.037   5.524   7.540
 9202SOL     OW29539   3.154   4.669   6.223
 9202SOL    HW129540   3.225   4.610   6.263
 9202SOL    HW229541   3.196   4.747   6.178
 9203SOL     OW29542   2.629   5.003   6.994
 9203SOL    HW129543   2.607   5.059   7.074
 9203SOL    HW229544   2.554   5.006   6.928
 9204SOL     OW29545   2.540   5.328   5.765
 9204SOL    HW129546   2.545   5.355   5.668
 9204SOL    HW229547   2.485   5.245   5.773
 9205SOL     OW29548   3.454   5.481   6.996
 9205SOL    HW129549   3.509   5.462   6.915
 9205SOL    HW229550   3.437   5.580   7.002
 9206SOL     OW29551   3.722   3.908   6.515
 9206SOL    HW129552   3.732   3.841   6.441
 9206SOL    HW229553   3.627   3.937   6.522
 9207SOL     OW29554   2.103   4.007   6.302
 9207SOL    HW129555   2.020   4.054   6.273
 9207SOL    HW229556   2.110   4.011   6.402
 9208SOL     OW29557   3.115   5.352   5.612
 9208SOL    HW129558   3.080   5.259   5.619
 9208SOL    HW229559   3.086   5.393   5.526
 9209SOL     OW29560   2.675   4.737   6.961
 9209SOL    HW129561   2.709   4.721   6.868
 9209SOL    HW229562   2.658   4.834   6.974
 9210SOL     OW29563   2.781   4.598   5.811
 9210SOL    HW129564   2.846   4.653   5.759
 9210SOL    HW229565   2.831   4.536   5.872
 9211SOL     OW29566   3.381   5.378   5.665
 9211SOL    HW129567   3.284   5.363   5.646
 9211SOL    HW229568   3.430   5.386   5.578
 9212SOL     OW29569   2.218   5.037   7.053
 9212SOL    HW129570   2.203   5.117   6.995
 9212SOL    HW229571   2.131   4.989   7.067
 9213SOL     OW29572   3.418   5.028   6.876
 9213SOL    HW129573   3.480   5.007   6.952
 9213SOL    HW229574   3.362   5.107   6.901
 9214SOL     OW29575   2.996   4.838   6.371
 9214SOL    HW129576   2.906   4.801   6.394
 9214SOL    HW229577   3.044   4.774   6.312
 9215SOL     OW29578   2.897   3.979   6.499
 9215SOL    HW129579   2.896   3.945   6.405
 9215SOL    HW229580   2.908   3.902   6.562
 9216SOL     OW29581   2.462   5.187   6.051
 9216SOL    HW129582   2.526   5.130   5.999
 9216SOL    HW229583   2.376   5.196   6.000
 9217SOL     OW29584   2.144   5.053   5.874
 9217SOL    HW129585   2.057   5.032   5.828
 9217SOL    HW229586   2.128   5.114   5.951
 9218SOL     OW29587   2.023   4.783   7.355
 9218SOL    HW129588   1.937   4.755   7.396
 9218SOL    HW229589   2.096   4.721   7.385
 9219SOL     OW29590   2.584   3.849   7.010
 9219SOL    HW129591   2.674   3.827   6.973
 9219SOL    HW229592   2.594   3.906   7.091
 9220SOL     OW29593   1.997   4.098   5.451
 9220SOL    HW129594   1.899   4.104   5.435
 9220SOL    HW229595   2.034   4.190   5.462
 9221SOL     OW29596   3.283   4.585   6.946
 9221SOL    HW129597   3.221   4.642   6.892
 9221SOL    HW229598   3.377   4.602   6.916
 9222SOL     OW29599   1.860   3.819   5.818
 9222SOL    HW129600   1.801   3.856   5.746
 9222SOL    HW229601   1.954   3.812   5.785
 9223SOL     OW29602   3.030   5.096   5.700
 9223SOL    HW129603   2.930   5.092   5.706
 9223SOL    HW229604   3.070   5.091   5.791
 9224SOL     OW29605   2.515   4.536   7.052
 9224SOL    HW129606   2.567   4.618   7.029
 9224SOL    HW229607   2.575   4.456   7.046
 9225SOL     OW29608   3.387   5.594   6.655
 9225SOL    HW129609   3.422   5.650   6.580
 9225SOL    HW229610   3.461   5.540   6.695
 9226SOL     OW29611   2.571   4.255   7.273
 9226SOL    HW129612   2.635   4.305   7.329
 9226SOL    HW229613   2.584   4.156   7.286
 9227SOL     OW29614   3.312   4.925   7.203
 9227SOL    HW129615   3.303   4.951   7.299
 9227SOL    HW229616   3.402   4.952   7.169
 9228SOL     OW29617   2.179   5.487   7.198
 9228SOL    HW129618   2.097   5.543   7.197
 9228SOL    HW229619   2.156   5.394   7.226
 9229SOL     OW29620   3.533   4.664   6.849
 9229SOL    HW129621   3.605   4.611   6.806
 9229SOL    HW229622   3.500   4.734   6.785
 9230SOL     OW29623   3.092   4.074   6.010
 9230SOL    HW129624   3.160   4.000   6.008
 9230SOL    HW229625   3.104   4.128   6.093
 9231SOL     OW29626   2.447   4.452   6.259
 9231SOL    HW129627   2.498   4.536   6.239
 9231SOL    HW229628   2.374   4.440   6.192
 9232SOL     OW29629   3.599   4.087   7.334
 9232SOL    HW129630   3.666   4.073   7.261
 9232SOL    HW229631   3.521   4.026   7.320
 9233SOL     OW29632   3.649   4.624   7.098
 9233SOL    HW129633   3.683   4.706   7.145
 9233SOL    HW229634   3.608   4.649   7.011
 9234SOL     OW29635   2.754   5.113   5.712
 9234SOL    HW129636   2.716   5.078   5.798
 9234SOL    HW229637   2.719   5.205   5.695
 9235SOL     OW29638   2.528   5.420   6.554
 9235SOL    HW129639   2.500   5.515   6.569
 9235SOL    HW229640   2.628   5.414   6.553
 9236SOL     OW29641   2.753   4.718   6.440
 9236SOL    HW129642   2.796   4.631   6.465
 9236SOL    HW229643   2.699   4.751   6.517
 9237SOL     OW29644   2.954   4.724   5.652
 9237SOL    HW129645   2.916   4.773   5.574
 9237SOL    HW229646   3.034   4.672   5.623
 9238SOL     OW29647   3.664   5.338   6.434
 9238SOL    HW129648   3.598   5.314   6.363
 9238SOL    HW229649   3.649   5.281   6.515
 9239SOL     OW29650   2.140   5.021   7.423
 9239SOL    HW129651   2.090   4.937   7.401
 9239SOL    HW229652   2.135   5.038   7.521
 9240SOL     OW29653   2.051   4.973   6.257
 9240SOL    HW129654   2.082   4.923   6.338
 9240SOL    HW229655   2.088   4.930   6.175
 9241SOL     OW29656   2.552   5.159   7.207
 9241SOL    HW129657   2.484   5.090   7.232
 9241SOL    HW229658   2.530   5.245   7.253
 9242SOL     OW29659   2.267   4.134   6.115
 9242SOL    HW129660   2.305   4.070   6.048
 9242SOL    HW229661   2.217   4.083   6.185
 9243SOL     OW29662   3.589   5.201   6.657
 9243SOL    HW129663   3.506   5.167   6.613
 9243SOL    HW229664   3.630   5.128   6.711
 9244SOL     OW29665   2.240   4.292   6.858
 9244SOL    HW129666   2.287   4.225   6.915
 9244SOL    HW229667   2.230   4.256   6.766
 9245SOL     OW29668   2.678   5.296   6.255
 9245SOL    HW129669   2.642   5.354   6.182
 9245SOL    HW229670   2.610   5.225   6.277
 9246SOL     OW29671   3.253   3.967   6.679
 9246SOL    HW129672   3.280   3.872   6.698
 9246SOL    HW229673   3.209   4.005   6.760
 9247SOL     OW29674   2.919   3.742   6.641
 9247SOL    HW129675   2.862   3.687   6.579
 9247SOL    HW229676   3.008   3.697   6.652
 9248SOL     OW29677   2.658   5.023   5.946
 9248SOL    HW129678   2.640   4.925   5.953
 9248SOL    HW229679   2.736   5.046   6.003
 9249SOL     OW29680   2.470   5.281   6.868
 9249SOL    HW129681   2.457   5.362   6.924
 9249SOL    HW229682   2.559   5.285   6.824
 9250SOL     OW29683   3.227   3.733   5.781
 9250SOL    HW129684   3.279   3.662   5.734
 9250SOL    HW229685   3.140   3.695   5.813
 9251SOL     OW29686   3.121   4.218   6.236
 9251SOL    HW129687   3.071   4.304   6.235
 9251SOL    HW229688   3.135   4.188   6.330
 9252SOL     OW29689   3.459   3.966   6.503
 9252SOL    HW129690   3.382   3.980   6.566
 9252SOL    HW229691   3.462   4.041   6.437
 9253SOL     OW29692   1.896   4.729   5.904
 9253SOL    HW129693   1.993   4.713   5.883
 9253SOL    HW229694   1.850   4.642   5.921
 9254SOL     OW29695   2.766   5.400   5.917
 9254SOL    HW129696   2.682   5.376   5.867
 9254SOL    HW229697   2.747   5.477   5.977
 9255SOL     OW29698   2.052   4.321   7.568
 9255SOL    HW129699   1.958   4.310   7.601
 9255SOL    HW229700   2.051   4.362   7.476
 9256SOL     OW29701   2.084   4.003   8.453
 9256SOL    HW129702   2.125   3.972   8.538
 9256SOL    HW229703   1.991   3.969   8.445
 9257SOL     OW29704   1.863   4.110   8.095
 9257SOL    HW129705   1.784   4.143   8.147
 9257SOL    HW229706   1.833   4.043   8.028
 9258SOL     OW29707   2.376   4.981   8.491
 9258SOL    HW129708   2.284   5.017   8.507
 9258SOL    HW229709   2.444   5.049   8.520
 9259SOL     OW29710   3.433   5.237   8.160
 9259SOL    HW129711   3.372   5.229   8.239
 9259SOL    HW229712   3.381   5.269   8.081
 9260SOL     OW29713   2.944   4.462   8.100
 9260SOL    HW129714   3.012   4.535   8.087
 9260SOL    HW229715   2.870   4.496   8.158
 9261SOL     OW29716   3.657   4.300   7.659
 9261SOL    HW129717   3.599   4.322   7.580
 9261SOL    HW229718   3.619   4.220   7.707
 9262SOL     OW29719   2.591   4.810   8.472
 9262SOL    HW129720   2.503   4.851   8.499
 9262SOL    HW229721   2.651   4.881   8.435
 9263SOL     OW29722   2.762   4.443   9.278
 9263SOL    HW129723   2.791   4.506   9.349
 9263SOL    HW229724   2.765   4.488   9.189
 9264SOL     OW29725   2.536   4.712   8.130
 9264SOL    HW129726   2.610   4.684   8.191
 9264SOL    HW229727   2.469   4.765   8.181
 9265SOL     OW29728   2.574   4.891   9.298
 9265SOL    HW129729   2.639   4.956   9.338
 9265SOL    HW229730   2.505   4.941   9.246
 9266SOL     OW29731   2.158   5.146   8.490
 9266SOL    HW129732   2.070   5.120   8.452
 9266SOL    HW229733   2.208   5.203   8.424
 9267SOL     OW29734   3.314   5.264   8.843
 9267SOL    HW129735   3.372   5.343   8.862
 9267SOL    HW229736   3.239   5.260   8.909
 9268SOL     OW29737   2.334   4.067   8.900
 9268SOL    HW129738   2.418   4.018   8.924
 9268SOL    HW229739   2.256   4.021   8.943
 9269SOL     OW29740   3.486   4.199   8.196
 9269SOL    HW129741   3.475   4.237   8.105
 9269SOL    HW229742   3.444   4.261   8.263
 9270SOL     OW29743   2.994   5.049   9.170
 9270SOL    HW129744   3.049   5.038   9.253
 9270SOL    HW229745   2.934   4.970   9.159
 9271SOL     OW29746   2.074   5.104   7.942
 9271SOL    HW129747   2.015   5.180   7.972
 9271SOL    HW229748   2.048   5.021   7.991
 9272SOL     OW29749   2.020   4.706   8.531
 9272SOL    HW129750   2.083   4.646   8.481
 9272SOL    HW229751   1.961   4.753   8.466
 9273SOL     OW29752   2.490   5.487   8.907
 9273SOL    HW129753   2.399   5.478   8.949
 9273SOL    HW229754   2.507   5.583   8.886
 9274SOL     OW29755   2.443   4.721   7.641
 9274SOL    HW129756   2.486   4.769   7.566
 9274SOL    HW229757   2.490   4.743   7.727
 9275SOL     OW29758   3.576   3.802   8.957
 9275SOL    HW129759   3.603   3.861   8.881
 9275SOL    HW229760   3.527   3.856   9.025
 9276SOL     OW29761   1.973   4.361   8.046
 9276SOL    HW129762   1.948   4.265   8.054
 9276SOL    HW229763   1.970   4.404   8.137
 9277SOL     OW29764   3.750   5.461   7.817
 9277SOL    HW129765   3.829   5.439   7.874
 9277SOL    HW229766   3.759   5.553   7.781
 9278SOL     OW29767   1.856   5.326   7.704
 9278SOL    HW129768   1.853   5.229   7.679
 9278SOL    HW229769   1.901   5.336   7.793
 9279SOL     OW29770   3.564   4.655   8.126
 9279SOL    HW129771   3.655   4.614   8.129
 9279SOL    HW229772   3.553   4.705   8.040
 9280SOL     OW29773   3.510   4.839   7.899
 9280SOL    HW129774   3.597   4.821   7.855
 9280SOL    HW229775   3.524   4.899   7.978
 9281SOL     OW29776   1.963   4.537   8.987
 9281SOL    HW129777   2.025   4.586   8.926
 9281SOL    HW229778   1.872   4.579   8.982
 9282SOL     OW29779   2.478   5.099   8.193
 9282SOL    HW129780   2.431   5.011   8.183
 9282SOL    HW229781   2.490   5.140   8.102
 9283SOL     OW29782   3.165   4.964   8.862
 9283SOL    HW129783   3.187   4.900   8.788
 9283SOL    HW229784   3.224   4.946   8.940
 9284SOL     OW29785   2.701   3.746   7.943
 9284SOL    HW129786   2.748   3.827   7.908
 9284SOL    HW229787   2.604   3.765   7.952
 9285SOL     OW29788   2.096   4.672   8.787
 9285SOL    HW129789   2.184   4.626   8.777
 9285SOL    HW229790   2.057   4.689   8.696
 9286SOL     OW29791   3.393   4.799   7.646
 9286SOL    HW129792   3.319   4.733   7.658
 9286SOL    HW229793   3.437   4.817   7.734
 9287SOL     OW29794   2.953   5.506   9.027
 9287SOL    HW129795   2.993   5.583   8.977
 9287SOL    HW229796   3.009   5.424   9.014
 9288SOL     OW29797   2.231   4.015   9.277
 9288SOL    HW129798   2.279   4.087   9.327
 9288SOL    HW229799   2.153   4.054   9.228
 9289SOL     OW29800   3.271   5.192   8.384
 9289SOL    HW129801   3.218   5.203   8.469
 9289SOL    HW229802   3.289   5.095   8.368
 9290SOL     OW29803   3.508   5.609   7.984
 9290SOL    HW129804   3.501   5.539   7.913
 9290SOL    HW229805   3.543   5.567   8.068
 9291SOL     OW29806   2.422   4.446   7.745
 9291SOL    HW129807   2.427   4.539   7.707
 9291SOL    HW229808   2.354   4.445   7.819
 9292SOL     OW29809   3.482   5.419   7.784
 9292SOL    HW129810   3.581   5.419   7.794
 9292SOL    HW229811   3.458   5.413   7.687
 9293SOL     OW29812   2.615   4.288   8.931
 9293SOL    HW129813   2.584   4.255   9.020
 9293SOL    HW229814   2.595   4.221   8.860
 9294SOL     OW29815   3.244   4.150   9.125
 9294SOL    HW129816   3.247   4.218   9.198
 9294SOL    HW229817   3.321   4.086   9.135
 9295SOL     OW29818   2.801   4.591   9.050
 9295SOL    HW129819   2.844   4.519   8.994
 9295SOL    HW229820   2.742   4.647   8.992
 9296SOL     OW29821   2.848   4.073   8.616
 9296SOL    HW129822   2.759   4.092   8.657
 9296SOL    HW229823   2.837   4.008   8.541
 9297SOL     OW29824   2.889   4.397   7.841
 9297SOL    HW129825   2.910   4.412   7.937
 9297SOL    HW229826   2.798   4.356   7.833
 9298SOL     OW29827   1.949   4.484   8.290
 9298SOL    HW129828   2.043   4.515   8.308
 9298SOL    HW229829   1.913   4.438   8.371
 9299SOL     OW29830   1.996   5.587   9.031
 9299SOL    HW129831   2.001   5.562   9.127
 9299SOL    HW229832   1.901   5.580   8.999
 9300SOL     OW29833   2.698   4.086   7.638
 9300SOL    HW129834   2.758   4.120   7.566
 9300SOL    HW229835   2.642   4.011   7.602
 9301SOL     OW29836   3.521   4.326   9.297
 9301SOL    HW129837   3.515   4.413   9.247
 9301SOL    HW229838   3.557   4.255   9.236
 9302SOL     OW29839   3.232   4.869   7.944
 9302SOL    HW129840   3.328   4.863   7.919
 9302SOL    HW229841   3.194   4.956   7.911
 9303SOL     OW29842   2.456   3.816   8.397
 9303SOL    HW129843   2.450   3.851   8.491
 9303SOL    HW229844   2.488   3.890   8.337
 9304SOL     OW29845   2.863   5.172   7.975
 9304SOL    HW129846   2.800   5.122   7.915
 9304SOL    HW229847   2.821   5.258   8.003
 9305SOL     OW29848   2.201   5.515   8.385
 9305SOL    HW129849   2.245   5.430   8.356
 9305SOL    HW229850   2.265   5.591   8.372
 9306SOL     OW29851   3.656   4.751   8.375
 9306SOL    HW129852   3.603   4.738   8.291
 9306SOL    HW229853   3.595   4.782   8.448
 9307SOL     OW29854   3.067   5.251   8.984
 9307SOL    HW129855   3.060   5.184   9.057
 9307SOL    HW229856   3.017   5.218   8.903
 9308SOL     OW29857   2.151   4.705   7.700
 9308SOL    HW129858   2.243   4.740   7.714
 9308SOL    HW229859   2.146   4.660   7.611
 9309SOL     OW29860   3.350   4.494   8.143
 9309SOL    HW129861   3.345   4.446   8.230
 9309SOL    HW229862   3.429   4.554   8.143
 9310SOL     OW29863   2.358   5.039   9.176
 9310SOL    HW129864   2.324   5.041   9.082
 9310SOL    HW229865   2.281   5.027   9.239
 9311SOL     OW29866   2.087   3.941   8.963
 9311SOL    HW129867   2.061   4.016   9.024
 9311SOL    HW229868   2.040   3.858   8.992
 9312SOL     OW29869   3.498   5.132   7.546
 9312SOL    HW129870   3.483   5.230   7.534
 9312SOL    HW229871   3.420   5.081   7.509
 9313SOL     OW29872   2.331   5.607   7.810
 9313SOL    HW129873   2.284   5.607   7.899
 9313SOL    HW229874   2.389   5.526   7.803
 9314SOL     OW29875   3.255   3.830   7.921
 9314SOL    HW129876   3.256   3.802   7.825
 9314SOL    HW229877   3.349   3.840   7.954
 9315SOL     OW29878   2.143   5.505   8.652
 9315SOL    HW129879   2.172   5.418   8.692
 9315SOL    HW229880   2.163   5.504   8.554
 9316SOL     OW29881   2.818   5.443   8.309
 9316SOL    HW129882   2.910   5.403   8.309
 9316SOL    HW229883   2.768   5.412   8.228
 9317SOL     OW29884   2.240   4.403   7.949
 9317SOL    HW129885   2.260   4.305   7.957
 9317SOL    HW229886   2.142   4.418   7.967
 9318SOL     OW29887   3.425   3.931   9.171
 9318SOL    HW129888   3.444   3.946   9.268
 9318SOL    HW229889   3.350   3.865   9.161
 9319SOL     OW29890   2.541   3.868   7.575
 9319SOL    HW129891   2.597   3.786   7.587
 9319SOL    HW229892   2.478   3.855   7.498
 9320SOL     OW29893   2.619   3.962   9.257
 9320SOL    HW129894   2.705   3.918   9.231
 9320SOL    HW229895   2.564   3.898   9.312
 9321SOL     OW29896   2.693   5.158   8.618
 9321SOL    HW129897   2.691   5.126   8.523
 9321SOL    HW229898   2.788   5.173   8.646
 9322SOL     OW29899   2.685   5.052   8.366
 9322SOL    HW129900   2.768   5.051   8.310
 9322SOL    HW229901   2.606   5.076   8.308
 9323SOL     OW29902   2.789   4.154   8.287
 9323SOL    HW129903   2.744   4.147   8.198
 9323SOL    HW229904   2.787   4.064   8.332
 9324SOL     OW29905   2.436   3.807   7.944
 9324SOL    HW129906   2.359   3.796   8.008
 9324SOL    HW229907   2.424   3.891   7.892
 9325SOL     OW29908   3.278   4.980   7.473
 9325SOL    HW129909   3.318   4.908   7.530
 9325SOL    HW229910   3.205   5.026   7.523
 9326SOL     OW29911   2.129   3.824   7.612
 9326SOL    HW129912   2.166   3.903   7.564
 9326SOL    HW229913   2.203   3.773   7.655
 9327SOL     OW29914   2.820   3.971   7.854
 9327SOL    HW129915   2.781   4.013   7.772
 9327SOL    HW229916   2.918   3.992   7.859
 9328SOL     OW29917   2.865   4.379   8.890
 9328SOL    HW129918   2.777   4.336   8.908
 9328SOL    HW229919   2.938   4.312   8.904
 9329SOL     OW29920   3.072   5.362   8.259
 9329SOL    HW129921   3.108   5.410   8.179
 9329SOL    HW229922   3.145   5.307   8.300
 9330SOL     OW29923   3.098   5.551   8.013
 9330SOL    HW129924   3.162   5.622   7.982
 9330SOL    HW229925   3.027   5.593   8.069
 9331SOL     OW29926   2.875   4.209   7.468
 9331SOL    HW129927   2.843   4.297   7.435
 9331SOL    HW229928   2.942   4.222   7.542
 9332SOL     OW29929   1.970   4.336   8.802
 9332SOL    HW129930   2.065   4.308   8.790
 9332SOL    HW229931   1.964   4.405   8.874
 9333SOL     OW29932   2.428   3.904   8.653
 9333SOL    HW129933   2.455   3.829   8.714
 9333SOL    HW229934   2.332   3.927   8.669
 9334SOL     OW29935   2.697   4.133   8.037
 9334SOL    HW129936   2.656   4.203   7.979
 9334SOL    HW229937   2.743   4.065   7.980
 9335SOL     OW29938   2.865   3.751   8.169
 9335SOL    HW129939   2.806   3.755   8.089
 9335SOL    HW229940   2.844   3.669   8.222
 9336SOL     OW29941   3.350   4.938   8.329
 9336SOL    HW129942   3.276   4.875   8.307
 9336SOL    HW229943   3.416   4.940   8.254
 9337SOL     OW29944   3.353   4.367   8.388
 9337SOL    HW129945   3.277   4.316   8.427
 9337SOL    HW229946   3.428   4.372   8.454
 9338SOL     OW29947   3.688   4.490   7.851
 9338SOL    HW129948   3.749   4.450   7.920
 9338SOL    HW229949   3.683   4.430   7.772
 9339SOL     OW29950   2.355   5.226   7.578
 9339SOL    HW129951   2.272   5.185   7.615
 9339SOL    HW229952   2.336   5.264   7.488
 9340SOL     OW29953   3.544   4.983   8.129
 9340SOL    HW129954   3.643   4.973   8.132
 9340SOL    HW229955   3.521   5.081   8.134
 9341SOL     OW29956   3.218   4.299   7.469
 9341SOL    HW129957   3.170   4.270   7.552
 9341SOL    HW229958   3.316   4.298   7.485
 9342SOL     OW29959   2.390   4.006   7.765
 9342SOL    HW129960   2.446   3.957   7.699
 9342SOL    HW229961   2.352   4.089   7.723
 9343SOL     OW29962   3.611   4.960   8.980
 9343SOL    HW129963   3.701   4.921   8.962
 9343SOL    HW229964   3.621   5.051   9.021
 9344SOL     OW29965   2.949   5.097   8.778
 9344SOL    HW129966   2.863   5.057   8.810
 9344SOL    HW229967   3.026   5.044   8.812
 9345SOL     OW29968   3.477   5.359   9.141
 9345SOL    HW129969   3.467   5.410   9.056
 9345SOL    HW229970   3.554   5.296   9.133
 9346SOL     OW29971   3.483   4.854   8.560
 9346SOL    HW129972   3.483   4.922   8.632
 9346SOL    HW229973   3.425   4.884   8.484
 9347SOL     OW29974   2.775   3.794   8.845
 9347SOL    HW129975   2.777   3.755   8.753
 9347SOL    HW229976   2.856   3.850   8.859
 9348SOL     OW29977   2.831   4.821   9.195
 9348SOL    HW129978   2.738   4.846   9.219
 9348SOL    HW229979   2.830   4.739   9.138
 9349SOL     OW29980   2.595   4.782   7.865
 9349SOL    HW129981   2.572   4.756   7.959
 9349SOL    HW229982   2.676   4.731   7.835
 9350SOL     OW29983   2.321   4.523   8.749
 9350SOL    HW129984   2.378   4.533   8.830
 9350SOL    HW229985   2.285   4.430   8.745
 9351SOL     OW29986   3.095   4.141   8.689
 9351SOL    HW129987   3.111   4.239   8.680
 9351SOL    HW229988   3.000   4.121   8.662
 9352SOL     OW29989   1.931   5.282   8.789
 9352SOL    HW129990   1.894   5.356   8.733
 9352SOL    HW229991   2.031   5.283   8.784
 9353SOL     OW29992   2.410   4.266   8.338
 9353SOL    HW129993   2.416   4.328   8.260
 9353SOL    HW229994   2.491   4.278   8.396
 9354SOL     OW29995   3.120   5.122   7.877
 9354SOL    HW129996   3.182   5.196   7.905
 9354SOL    HW229997   3.030   5.138   7.917
 9355SOL     OW29998   3.152   5.223   8.627
 9355SOL    HW129999   3.218   5.235   8.701
 9355SOL    HW230000   3.069   5.180   8.663
 9356SOL     OW30001   3.469   4.329   7.952
 9356SOL    HW130002   3.401   4.386   7.998
 9356SOL    HW230003   3.538   4.388   7.909
 9357SOL     OW30004   2.203   5.245   8.736
 9357SOL    HW130005   2.179   5.201   8.649
 9357SOL    HW230006   2.302   5.256   8.741
 9358SOL     OW30007   2.341   4.426   9.174
 9358SOL    HW130008   2.381   4.474   9.096
 9358SOL    HW230009   2.401   4.352   9.202
 9359SOL     OW30010   3.494   4.558   9.158
 9359SOL    HW130011   3.396   4.576   9.149
 9359SOL    HW230012   3.541   4.588   9.075
 9360SOL     OW30013   2.854   3.857   9.177
 9360SOL    HW130014   2.904   3.941   9.158
 9360SOL    HW230015   2.905   3.779   9.142
 9361SOL     OW30016   2.337   3.768   9.193
 9361SOL    HW130017   2.280   3.714   9.130
 9361SOL    HW230018   2.294   3.857   9.208
 9362SOL     OW30019   2.450   4.575   8.513
 9362SOL    HW130020   2.503   4.659   8.508
 9362SOL    HW230021   2.402   4.570   8.600
 9363SOL     OW30022   3.281   4.637   8.455
 9363SOL    HW130023   3.225   4.678   8.383
 9363SOL    HW230024   3.303   4.543   8.430
 9364SOL     OW30025   3.048   4.238   7.683
 9364SOL    HW130026   3.073   4.162   7.743
 9364SOL    HW230027   2.997   4.306   7.736
 9365SOL     OW30028   2.154   3.911   8.700
 9365SOL    HW130029   2.143   3.938   8.795
 9365SOL    HW230030   2.141   3.812   8.691
 9366SOL     OW30031   1.913   5.025   8.695
 9366SOL    HW130032   1.947   4.965   8.768
 9366SOL    HW230033   1.909   5.119   8.729
 9367SOL     OW30034   2.600   4.350   8.524
 9367SOL    HW130035   2.688   4.362   8.478
 9367SOL    HW230036   2.543   4.431   8.508
 9368SOL     OW30037   3.646   4.705   9.334
 9368SOL    HW130038   3.600   4.641   9.272
 9368SOL    HW230039   3.579   4.745   9.397
 9369SOL     OW30040   2.208   3.776   8.096
 9369SOL    HW130041   2.168   3.865   8.117
 9369SOL    HW230042   2.220   3.724   8.180
 9370SOL     OW30043   3.506   4.104   7.783
 9370SOL    HW130044   3.551   4.032   7.836
 9370SOL    HW230045   3.472   4.175   7.845
 9371SOL     OW30046   2.855   5.271   9.249
 9371SOL    HW130047   2.801   5.319   9.180
 9371SOL    HW230048   2.894   5.188   9.209
 9372SOL     OW30049   3.698   5.211   9.048
 9372SOL    HW130050   3.715   5.235   8.953
 9372SOL    HW230051   3.780   5.230   9.102
 9373SOL     OW30052   2.243   4.657   9.297
 9373SOL    HW130053   2.310   4.689   9.364
 9373SOL    HW230054   2.277   4.574   9.252
 9374SOL     OW30055   3.372   3.975   7.556
 9374SOL    HW130056   3.321   3.899   7.598
 9374SOL    HW230057   3.419   4.028   7.626
 9375SOL     OW30058   3.126   4.551   7.424
 9375SOL    HW130059   3.156   4.456   7.432
 9375SOL    HW230060   3.168   4.592   7.343
 9376SOL     OW30061   2.193   4.529   8.405
 9376SOL    HW130062   2.288   4.559   8.414
 9376SOL    HW230063   2.186   4.432   8.429
 9377SOL     OW30064   2.176   4.253   8.461
 9377SOL    HW130065   2.138   4.161   8.453
 9377SOL    HW230066   2.263   4.257   8.411
 9378SOL     OW30067   2.985   4.090   9.114
 9378SOL    HW130068   2.946   4.139   9.191
 9378SOL    HW230069   3.083   4.110   9.107
 9379SOL     OW30070   3.006   3.939   8.884
 9379SOL    HW130071   2.994   3.992   8.968
 9379SOL    HW230072   3.046   3.998   8.814
 9380SOL     OW30073   1.843   5.065   7.639
 9380SOL    HW130074   1.776   5.075   7.565
 9380SOL    HW230075   1.809   5.001   7.707
 9381SOL     OW30076   1.928   5.500   8.391
 9381SOL    HW130077   1.897   5.418   8.343
 9381SOL    HW230078   2.027   5.508   8.384
 9382SOL     OW30079   2.343   5.285   8.338
 9382SOL    HW130080   2.415   5.350   8.362
 9382SOL    HW230081   2.381   5.213   8.280
 9383SOL     OW30082   2.714   4.530   8.714
 9383SOL    HW130083   2.779   4.482   8.772
 9383SOL    HW230084   2.661   4.464   8.660
 9384SOL     OW30085   1.924   4.347   8.531
 9384SOL    HW130086   2.009   4.308   8.496
 9384SOL    HW230087   1.931   4.359   8.630
 9385SOL     OW30088   2.070   4.387   9.205
 9385SOL    HW130089   2.169   4.401   9.196
 9385SOL    HW230090   2.022   4.445   9.140
 9386SOL     OW30091   3.243   4.646   9.082
 9386SOL    HW130092   3.270   4.742   9.074
 9386SOL    HW230093   3.220   4.610   8.991
 9387SOL     OW30094   2.641   4.292   7.812
 9387SOL    HW130095   2.649   4.217   7.746
 9387SOL    HW230096   2.562   4.349   7.789
 9388SOL     OW30097   3.542   4.371   8.581
 9388SOL    HW130098   3.527   4.306   8.655
 9388SOL    HW230099   3.639   4.372   8.556
 9389SOL     OW30100   2.088   5.270   9.162
 9389SOL    HW130101   2.068   5.348   9.221
 9389SOL    HW230102   2.100   5.188   9.217
 9390SOL     OW30103   2.592   4.133   8.700
 9390SOL    HW130104   2.529   4.057   8.681
 9390SOL    HW230105   2.579   4.205   8.632
 9391SOL     OW30106   2.704   5.397   9.049
 9391SOL    HW130107   2.633   5.428   8.985
 9391SOL    HW230108   2.791   5.441   9.026
 9392SOL     OW30109   2.294   4.229   7.636
 9392SOL    HW130110   2.352   4.303   7.668
 9392SOL    HW230111   2.201   4.263   7.621
 9393SOL     OW30112   2.002   4.875   8.937
 9393SOL    HW130113   2.012   4.850   9.033
 9393SOL    HW230114   2.039   4.802   8.880
 9394SOL     OW30115   3.171   4.798   8.643
 9394SOL    HW130116   3.226   4.743   8.579
 9394SOL    HW230117   3.096   4.842   8.594
 9395SOL     OW30118   3.187   4.630   7.678
 9395SOL    HW130119   3.110   4.612   7.739
 9395SOL    HW230120   3.165   4.599   7.586
 9396SOL     OW30121   3.613   5.440   8.631
 9396SOL    HW130122   3.687   5.468   8.569
 9396SOL    HW230123   3.573   5.355   8.598
 9397SOL     OW30124   3.138   5.499   8.578
 9397SOL    HW130125   3.232   5.531   8.563
 9397SOL    HW230126   3.140   5.400   8.594
 9398SOL     OW30127   1.910   5.048   8.421
 9398SOL    HW130128   1.903   5.039   8.521
 9398SOL    HW230129   1.858   4.974   8.377
 9399SOL     OW30130   2.560   5.454   9.271
 9399SOL    HW130131   2.487   5.516   9.242
 9399SOL    HW230132   2.619   5.434   9.193
 9400SOL     OW30133   3.643   3.912   7.925
 9400SOL    HW130134   3.703   3.885   7.850
 9400SOL    HW230135   3.612   3.830   7.974
 9401SOL     OW30136   3.279   5.337   7.954
 9401SOL    HW130137   3.347   5.362   7.886
 9401SOL    HW230138   3.215   5.414   7.967
 9402SOL     OW30139   2.023   5.508   9.291
 9402SOL    HW130140   1.952   5.450   9.330
 9402SOL    HW230141   2.068   5.560   9.364
 9403SOL     OW30142   3.142   4.649   8.070
 9403SOL    HW130143   3.218   4.585   8.081
 9403SOL    HW230144   3.168   4.723   8.009
 9404SOL     OW30145   2.699   5.002   8.850
 9404SOL    HW130146   2.663   5.042   8.934
 9404SOL    HW230147   2.664   5.052   8.771
 9405SOL     OW30148   2.493   5.393   7.745
 9405SOL    HW130149   2.577   5.420   7.699
 9405SOL    HW230150   2.438   5.336   7.684
 9406SOL     OW30151   3.489   5.478   8.883
 9406SOL    HW130152   3.535   5.469   8.795
 9406SOL    HW230153   3.516   5.564   8.926
 9407SOL     OW30154   3.674   3.898   8.467
 9407SOL    HW130155   3.706   3.806   8.445
 9407SOL    HW230156   3.591   3.917   8.415
 9408SOL     OW30157   2.107   4.013   8.173
 9408SOL    HW130158   2.019   4.050   8.143
 9408SOL    HW230159   2.112   4.014   8.273
 9409SOL     OW30160   3.170   5.336   7.446
 9409SOL    HW130161   3.116   5.266   7.492
 9409SOL    HW230162   3.114   5.383   7.378
 9410SOL     OW30163   2.647   4.734   8.883
 9410SOL    HW130164   2.669   4.683   8.800
 9410SOL    HW230165   2.663   4.831   8.869
 9411SOL     OW30166   2.808   4.649   7.769
 9411SOL    HW130167   2.835   4.660   7.673
 9411SOL    HW230168   2.836   4.558   7.800
 9412SOL     OW30169   3.418   5.409   7.510
 9412SOL    HW130170   3.327   5.378   7.483
 9412SOL    HW230171   3.473   5.426   7.427
 9413SOL     OW30172   2.224   5.050   8.940
 9413SOL    HW130173   2.216   5.123   8.873
 9413SOL    HW230174   2.143   4.992   8.936
 9414SOL     OW30175   3.470   5.052   8.753
 9414SOL    HW130176   3.526   5.016   8.827
 9414SOL    HW230177   3.405   5.119   8.790
 9415SOL     OW30178   2.810   3.890   8.409
 9415SOL    HW130179   2.840   3.852   8.321
 9415SOL    HW230180   2.802   3.816   8.476
 9416SOL     OW30181   2.530   5.219   7.953
 9416SOL    HW130182   2.579   5.146   7.906
 9416SOL    HW230183   2.499   5.287   7.886
 9417SOL     OW30184   3.678   4.164   8.881
 9417SOL    HW130185   3.747   4.231   8.856
 9417SOL    HW230186   3.683   4.086   8.819
 9418SOL     OW30187   2.112   5.107   7.676
 9418SOL    HW130188   2.016   5.091   7.653
 9418SOL    HW230189   2.123   5.107   7.775
 9419SOL     OW30190   2.026   4.797   9.201
 9419SOL    HW130191   1.941   4.761   9.240
 9419SOL    HW230192   2.103   4.741   9.232
 9420SOL     OW30193   2.555   3.909   8.977
 9420SOL    HW130194   2.640   3.880   8.932
 9420SOL    HW230195   2.574   3.931   9.073
 9421SOL     OW30196   2.014   4.136   7.296
 9421SOL    HW130197   1.915   4.125   7.292
 9421SOL    HW230198   2.037   4.233   7.297
 9422SOL     OW30199   3.226   4.582   8.799
 9422SOL    HW130200   3.188   4.665   8.759
 9422SOL    HW230201   3.324   4.577   8.779
 9423SOL     OW30202   1.871   3.876   7.683
 9423SOL    HW130203   1.823   3.911   7.603
 9423SOL    HW230204   1.969   3.869   7.664
 9424SOL     OW30205   3.073   5.104   7.606
 9424SOL    HW130206   2.980   5.068   7.599
 9424SOL    HW230207   3.099   5.113   7.702
 9425SOL     OW30208   2.482   4.529   8.964
 9425SOL    HW130209   2.535   4.612   8.948
 9425SOL    HW230210   2.540   4.449   8.949
 9426SOL     OW30211   3.394   5.593   8.534
 9426SOL    HW130212   3.426   5.641   8.453
 9426SOL    HW230213   3.471   5.546   8.578
 9427SOL     OW30214   2.562   4.242   9.199
 9427SOL    HW130215   2.629   4.303   9.242
 9427SOL    HW230216   2.579   4.148   9.228
 9428SOL     OW30217   3.341   4.904   9.073
 9428SOL    HW130218   3.324   4.926   9.169
 9428SOL    HW230219   3.436   4.927   9.049
 9429SOL     OW30220   2.248   5.471   9.039
 9429SOL    HW130221   2.166   5.521   9.012
 9429SOL    HW230222   2.223   5.381   9.072
 9430SOL     OW30223   3.483   4.613   8.701
 9430SOL    HW130224   3.506   4.532   8.648
 9430SOL    HW230225   3.478   4.693   8.641
 9431SOL     OW30226   3.082   4.049   7.887
 9431SOL    HW130227   3.145   3.973   7.904
 9431SOL    HW230228   3.070   4.102   7.971
 9432SOL     OW30229   2.423   4.457   8.146
 9432SOL    HW130230   2.466   4.546   8.132
 9432SOL    HW230231   2.357   4.440   8.073
 9433SOL     OW30232   3.612   4.127   9.137
 9433SOL    HW130233   3.630   4.147   9.041
 9433SOL    HW230234   3.546   4.053   9.144
 9434SOL     OW30235   3.599   4.673   8.937
 9434SOL    HW130236   3.588   4.772   8.951
 9434SOL    HW230237   3.560   4.647   8.849
 9435SOL     OW30238   2.611   5.122   7.557
 9435SOL    HW130239   2.519   5.160   7.566
 9435SOL    HW230240   2.666   5.183   7.500
 9436SOL     OW30241   2.537   5.466   8.375
 9436SOL    HW130242   2.501   5.560   8.372
 9436SOL    HW230243   2.636   5.468   8.372
 9437SOL     OW30244   2.731   4.619   8.313
 9437SOL    HW130245   2.768   4.535   8.352
 9437SOL    HW230246   2.690   4.674   8.385
 9438SOL     OW30247   2.892   4.655   7.512
 9438SOL    HW130248   2.866   4.733   7.455
 9438SOL    HW230249   2.978   4.617   7.478
 9439SOL     OW30250   3.651   5.302   8.315
 9439SOL    HW130251   3.586   5.287   8.241
 9439SOL    HW230252   3.618   5.255   8.398
 9440SOL     OW30253   2.109   5.037   9.309
 9440SOL    HW130254   2.086   4.953   9.260
 9440SOL    HW230255   2.040   5.053   9.381
 9441SOL     OW30256   2.599   5.130   9.064
 9441SOL    HW130257   2.512   5.113   9.109
 9441SOL    HW230258   2.621   5.228   9.070
 9442SOL     OW30259   3.688   3.932   8.737
 9442SOL    HW130260   3.783   3.908   8.759
 9442SOL    HW230261   3.673   3.922   8.639
 9443SOL     OW30262   2.272   4.141   7.983
 9443SOL    HW130263   2.312   4.079   7.916
 9443SOL    HW230264   2.222   4.089   8.052
 9444SOL     OW30265   3.510   5.212   8.534
 9444SOL    HW130266   3.423   5.209   8.484
 9444SOL    HW230267   3.507   5.147   8.610
 9445SOL     OW30268   2.228   4.267   8.744
 9445SOL    HW130269   2.273   4.196   8.798
 9445SOL    HW230270   2.226   4.241   8.648
 9446SOL     OW30271   2.715   5.393   8.059
 9446SOL    HW130272   2.699   5.486   8.027
 9446SOL    HW230273   2.636   5.336   8.035
 9447SOL     OW30274   2.805   3.671   8.595
 9447SOL    HW130275   2.747   3.589   8.587
 9447SOL    HW230276   2.901   3.643   8.598
 9448SOL     OW30277   2.679   5.041   7.814
 9448SOL    HW130278   2.652   4.946   7.832
 9448SOL    HW230279   2.660   5.064   7.718
 9449SOL     OW30280   2.468   5.276   8.729
 9449SOL    HW130281   2.488   5.354   8.788
 9449SOL    HW230282   2.553   5.244   8.685
 9450SOL     OW30283   3.246   3.751   7.660
 9450SOL    HW130284   3.298   3.680   7.614
 9450SOL    HW230285   3.150   3.725   7.664
 9451SOL     OW30286   3.022   4.196   8.112
 9451SOL    HW130287   3.004   4.294   8.103
 9451SOL    HW230288   2.955   4.155   8.174
 9452SOL     OW30289   3.440   3.971   8.340
 9452SOL    HW130290   3.368   3.992   8.406
 9452SOL    HW230291   3.456   4.050   8.281
 9453SOL     OW30292   1.937   4.705   7.863
 9453SOL    HW130293   2.014   4.707   7.799
 9453SOL    HW230294   1.887   4.619   7.852
 9454SOL     OW30295   3.684   4.242   9.495
 9454SOL    HW130296   3.627   4.281   9.422
 9454SOL    HW230297   3.625   4.203   9.566
 9455SOL     OW30298   1.922   5.245   9.852
 9455SOL    HW130299   1.921   5.275   9.947
 9455SOL    HW230300   1.886   5.152   9.846
 9456SOL     OW30301   2.449   4.725   9.484
 9456SOL    HW130302   2.491   4.777   9.410
 9456SOL    HW230303   2.501   4.740   9.569
 9457SOL     OW30304   1.927   4.417   9.874
 9457SOL    HW130305   1.841   4.369   9.855
 9457SOL    HW230306   1.909   4.495   9.934
 9458SOL     OW30307   3.662   5.520   9.660
 9458SOL    HW130308   3.749   5.504   9.706
 9458SOL    HW230309   3.668   5.604   9.606
 9459SOL     OW30310   1.857   5.339   9.406
 9459SOL    HW130311   1.794   5.263   9.389
 9459SOL    HW230312   1.854   5.365   9.502
 9460SOL     OW30313   3.461   4.616   9.913
 9460SOL    HW130314   3.540   4.603   9.973
 9460SOL    HW230315   3.479   4.692   9.851
 9461SOL     OW30316   3.608   4.803   9.753
 9461SOL    HW130317   3.676   4.794   9.681
 9461SOL    HW230318   3.653   4.824   9.840
 9462SOL     OW30319   2.463   5.034   9.978
 9462SOL    HW130320   2.413   4.949   9.993
 9462SOL    HW230321   2.448   5.065   9.883
 9463SOL     OW30322   2.665   3.789   9.828
 9463SOL    HW130323   2.729   3.851   9.783
 9463SOL    HW230324   2.575   3.832   9.834
 9464SOL     OW30325   3.455   4.789   9.518
 9464SOL    HW130326   3.389   4.717   9.539
 9464SOL    HW230327   3.500   4.819   9.602
 9465SOL     OW30328   2.472   4.434   9.545
 9465SOL    HW130329   2.477   4.526   9.505
 9465SOL    HW230330   2.436   4.441   9.638
 9466SOL     OW30331   3.432   5.365   9.648
 9466SOL    HW130332   3.514   5.421   9.662
 9466SOL    HW230333   3.406   5.369   9.552
 9467SOL     OW30334   2.919   4.378   9.734
 9467SOL    HW130335   2.952   4.335   9.819
 9467SOL    HW230336   2.828   4.344   9.713
 9468SOL     OW30337   1.859   4.605   0.062
 9468SOL    HW130338   1.863   4.566   0.154
 9468SOL    HW230339   1.895   4.699   0.064
 9469SOL     OW30340   2.739   4.077   9.482
 9469SOL    HW130341   2.810   4.127   9.432
 9469SOL    HW230342   2.680   4.029   9.418
 9470SOL     OW30343   3.189   4.820   9.791
 9470SOL    HW130344   3.235   4.831   9.879
 9470SOL    HW230345   3.151   4.908   9.762
 9471SOL     OW30346   2.845   5.172   9.824
 9471SOL    HW130347   2.819   5.259   9.782
 9471SOL    HW230348   2.804   5.166   9.915
 9472SOL     OW30349   2.201   5.619   0.212
 9472SOL    HW130350   2.228   5.536   0.261
 9472SOL    HW230351   2.281   5.656   0.164
 9473SOL     OW30352   2.192   4.719   9.625
 9473SOL    HW130353   2.280   4.726   9.578
 9473SOL    HW230354   2.173   4.623   9.647
 9474SOL     OW30355   3.022   5.484   9.599
 9474SOL    HW130356   2.930   5.463   9.631
 9474SOL    HW230357   3.049   5.420   9.528
 9475SOL     OW30358   3.517   5.118   9.375
 9475SOL    HW130359   3.490   5.214   9.370
 9475SOL    HW230360   3.436   5.060   9.360
 9476SOL     OW30361   2.336   5.505   9.625
 9476SOL    HW130362   2.300   5.444   9.696
 9476SOL    HW230363   2.416   5.463   9.583
 9477SOL     OW30364   3.313   3.885   9.749
 9477SOL    HW130365   3.316   3.840   9.659
 9477SOL    HW230366   3.406   3.905   9.780
 9478SOL     OW30367   2.364   4.435   9.794
 9478SOL    HW130368   2.378   4.348   9.840
 9478SOL    HW230369   2.270   4.441   9.761
 9479SOL     OW30370   2.474   3.794   9.425
 9479SOL    HW130371   2.500   3.706   9.462
 9479SOL    HW230372   2.411   3.781   9.347
 9480SOL     OW30373   2.421   3.924   9.856
 9480SOL    HW130374   2.328   3.908   9.888
 9480SOL    HW230375   2.420   3.951   9.760
 9481SOL     OW30376   3.302   4.947   9.347
 9481SOL    HW130377   3.354   4.886   9.407
 9481SOL    HW230378   3.214   4.969   9.390
 9482SOL     OW30379   2.095   3.834   9.435
 9482SOL    HW130380   2.152   3.904   9.393
 9482SOL    HW230381   2.110   3.834   9.534
 9483SOL     OW30382   2.829   3.974   9.717
 9483SOL    HW130383   2.794   4.005   9.629
 9483SOL    HW230384   2.926   3.994   9.724
 9484SOL     OW30385   2.255   4.866   0.069
 9484SOL    HW130386   2.204   4.926   0.131
 9484SOL    HW230387   2.216   4.872   9.977
 9485SOL     OW30388   3.166   5.561   9.884
 9485SOL    HW130389   3.219   5.637   9.847
 9485SOL    HW230390   3.077   5.557   9.839
 9486SOL     OW30391   2.912   4.225   9.339
 9486SOL    HW130392   2.864   4.310   9.317
 9486SOL    HW230393   2.984   4.243   9.406
 9487SOL     OW30394   2.723   4.140   9.912
 9487SOL    HW130395   2.665   4.207   9.867
 9487SOL    HW230396   2.755   4.073   9.845
 9488SOL     OW30397   3.939   4.467   9.668
 9488SOL    HW130398   3.858   4.447   9.724
 9488SOL    HW230399   3.936   4.414   9.584
 9489SOL     OW30400   2.308   5.191   9.499
 9489SOL    HW130401   2.225   5.185   9.554
 9489SOL    HW230402   2.289   5.156   9.407
 9490SOL     OW30403   3.250   4.315   9.345
 9490SOL    HW130404   3.208   4.285   9.431
 9490SOL    HW230405   3.350   4.315   9.355
 9491SOL     OW30406   2.406   3.993   9.599
 9491SOL    HW130407   2.431   3.922   9.534
 9491SOL    HW230408   2.377   4.075   9.550
 9492SOL     OW30409   2.608   4.765   9.705
 9492SOL    HW130410   2.561   4.732   9.787
 9492SOL    HW230411   2.694   4.715   9.694
 9493SOL     OW30412   2.143   4.914   9.816
 9493SOL    HW130413   2.153   5.001   9.767
 9493SOL    HW230414   2.163   4.839   9.753
 9494SOL     OW30415   3.087   5.082   9.727
 9494SOL    HW130416   3.153   5.152   9.756
 9494SOL    HW230417   2.997   5.104   9.763
 9495SOL     OW30418   3.439   4.422   9.723
 9495SOL    HW130419   3.443   4.479   9.804
 9495SOL    HW230420   3.380   4.464   9.654
 9496SOL     OW30421   3.086   4.251   9.556
 9496SOL    HW130422   3.099   4.168   9.610
 9496SOL    HW230423   3.036   4.319   9.611
 9497SOL     OW30424   2.173   3.871   9.950
 9497SOL    HW130425   2.098   3.929   9.982
 9497SOL    HW230426   2.190   3.798   0.017
 9498SOL     OW30427   3.486   4.154   9.661
 9498SOL    HW130428   3.503   4.101   9.744
 9498SOL    HW230429   3.457   4.246   9.686
 9499SOL     OW30430   3.461   3.975   9.438
 9499SOL    HW130431   3.400   3.900   9.466
 9499SOL    HW230432   3.460   4.046   9.508
 9500SOL     OW30433   3.155   4.569   9.333
 9500SOL    HW130434   3.185   4.474   9.337
 9500SOL    HW230435   3.178   4.608   9.244
 9501SOL     OW30436   1.902   5.039   9.492
 9501SOL    HW130437   1.810   5.069   9.464
 9501SOL    HW230438   1.898   4.943   9.519
 9502SOL     OW30439   2.676   4.280   9.657
 9502SOL    HW130440   2.690   4.201   9.596
 9502SOL    HW230441   2.607   4.341   9.618
 9503SOL     OW30442   2.321   4.216   9.453
 9503SOL    HW130443   2.386   4.289   9.474
 9503SOL    HW230444   2.227   4.251   9.461
 9504SOL     OW30445   3.264   4.614   9.597
 9504SOL    HW130446   3.222   4.673   9.666
 9504SOL    HW230447   3.203   4.605   9.519
 9505SOL     OW30448   3.587   3.907   9.804
 9505SOL    HW130449   3.634   3.912   9.716
 9505SOL    HW230450   3.587   3.813   9.837
 9506SOL     OW30451   3.237   5.302   9.827
 9506SOL    HW130452   3.312   5.306   9.762
 9506SOL    HW230453   3.206   5.394   9.849
 9507SOL     OW30454   2.540   5.350   9.517
 9507SOL    HW130455   2.557   5.383   9.424
 9507SOL    HW230456   2.467   5.281   9.514
 9508SOL     OW30457   3.086   5.305   9.396
 9508SOL    HW130458   3.091   5.210   9.426
 9508SOL    HW230459   3.006   5.318   9.338
 9509SOL     OW30460   2.837   4.631   9.663
 9509SOL    HW130461   2.864   4.644   9.568
 9509SOL    HW230462   2.874   4.546   9.698
 9510SOL     OW30463   3.350   5.394   9.384
 9510SOL    HW130464   3.255   5.361   9.377
 9510SOL    HW230465   3.393   5.390   9.294
 9511SOL     OW30466   2.436   5.109   9.723
 9511SOL    HW130467   2.528   5.081   9.695
 9511SOL    HW230468   2.383   5.135   9.643
 9512SOL     OW30469   2.090   5.150   9.655
 9512SOL    HW130470   2.020   5.112   9.594
 9512SOL    HW230471   2.045   5.201   9.729
 9513SOL     OW30472   2.014   4.130   9.142
 9513SOL    HW130473   1.915   4.122   9.128
 9513SOL    HW230474   2.037   4.225   9.160
 9514SOL     OW30475   1.859   3.926   9.770
 9514SOL    HW130476   1.838   4.010   9.720
 9514SOL    HW230477   1.941   3.883   9.732
 9515SOL     OW30478   3.054   5.034   9.455
 9515SOL    HW130479   2.957   5.018   9.439
 9515SOL    HW230480   3.071   5.040   9.554
 9516SOL     OW30481   3.090   4.051   9.748
 9516SOL    HW130482   3.174   3.999   9.759
 9516SOL    HW230483   3.074   4.107   9.830
 9517SOL     OW30484   2.475   4.654   9.912
 9517SOL    HW130485   2.468   4.647   0.011
 9517SOL    HW230486   2.435   4.572   9.870
 9518SOL     OW30487   2.771   5.055   9.408
 9518SOL    HW130488   2.734   5.055   9.501
 9518SOL    HW230489   2.778   5.149   9.375
 9519SOL     OW30490   2.906   4.651   9.402
 9519SOL    HW130491   2.880   4.725   9.340
 9519SOL    HW230492   2.999   4.620   9.379
 9520SOL     OW30493   1.880   4.969   9.883
 9520SOL    HW130494   1.870   4.975   9.982
 9520SOL    HW230495   1.973   4.942   9.860
 9521SOL     OW30496   2.393   4.199   9.920
 9521SOL    HW130497   2.419   4.106   9.894
 9521SOL    HW230498   2.349   4.197   0.010
 9522SOL     OW30499   2.683   5.023   9.659
 9522SOL    HW130500   2.663   4.928   9.680
 9522SOL    HW230501   2.747   5.060   9.727
 9523SOL     OW30502   3.306   3.760   9.505
 9523SOL    HW130503   3.349   3.680   9.463
 9523SOL    HW230504   3.209   3.741   9.520
 9524SOL     OW30505   1.929   4.772   9.552
 9524SOL    HW130506   2.026   4.752   9.569
 9524SOL    HW230507   1.900   4.727   9.467
 9525SOL     OW30508   2.759   5.404   9.688
 9525SOL    HW130509   2.688   5.373   9.625
 9525SOL    HW230510   2.728   5.485   9.738
 9526SOL     OW30511   2.110   6.116   0.112
 9526SOL    HW130512   2.038   6.048   0.126
 9526SOL    HW230513   2.089   6.169   0.029
 9527SOL     OW30514   2.079   5.877   1.002
 9527SOL    HW130515   2.116   5.832   1.083
 9527SOL    HW230516   1.984   5.848   0.988
 9528SOL     OW30517   1.921   5.995   0.617
 9528SOL    HW130518   1.851   6.034   0.677
 9528SOL    HW230519   1.880   5.924   0.560
 9529SOL     OW30520   2.362   6.906   1.207
 9529SOL    HW130521   2.285   6.926   1.147
 9529SOL    HW230522   2.408   6.991   1.233
 9530SOL     OW30523   3.003   6.292   0.643
 9530SOL    HW130524   3.060   6.372   0.630
 9530SOL    HW230525   2.942   6.307   0.721
 9531SOL     OW30526   3.620   6.225   0.177
 9531SOL    HW130527   3.558   6.279   0.121
 9531SOL    HW230528   3.570   6.149   0.219
 9532SOL     OW30529   2.522   6.706   1.108
 9532SOL    HW130530   2.460   6.776   1.145
 9532SOL    HW230531   2.578   6.747   1.035
 9533SOL     OW30532   2.791   6.258   1.779
 9533SOL    HW130533   2.814   6.341   1.831
 9533SOL    HW230534   2.791   6.279   1.681
 9534SOL     OW30535   2.550   6.533   0.597
 9534SOL    HW130536   2.626   6.535   0.662
 9534SOL    HW230537   2.483   6.602   0.623
 9535SOL     OW30538   2.463   6.833   1.823
 9535SOL    HW130539   2.543   6.893   1.820
 9535SOL    HW230540   2.393   6.867   1.760
 9536SOL     OW30541   2.163   6.996   1.042
 9536SOL    HW130542   2.097   6.928   1.009
 9536SOL    HW230543   2.219   7.028   0.966
 9537SOL     OW30544   3.307   7.042   1.376
 9537SOL    HW130545   3.358   7.123   1.404
 9537SOL    HW230546   3.225   7.033   1.432
 9538SOL     OW30547   2.351   5.926   1.452
 9538SOL    HW130548   2.428   5.862   1.456
 9538SOL    HW230549   2.268   5.881   1.483
 9539SOL     OW30550   3.443   6.028   0.738
 9539SOL    HW130551   3.370   6.030   0.669
 9539SOL    HW230552   3.427   6.099   0.806
 9540SOL     OW30553   2.142   7.306   0.488
 9540SOL    HW130554   2.148   7.381   0.554
 9540SOL    HW230555   2.232   7.291   0.447
 9541SOL     OW30556   2.983   6.896   1.742
 9541SOL    HW130557   3.024   6.879   1.832
 9541SOL    HW230558   2.913   6.826   1.724
 9542SOL     OW30559   2.089   7.040   0.469
 9542SOL    HW130560   2.104   7.136   0.491
 9542SOL    HW230561   2.071   6.989   0.554
 9543SOL     OW30562   2.156   6.658   0.847
 9543SOL    HW130563   2.149   6.559   0.854
 9543SOL    HW230564   2.102   6.701   0.920
 9544SOL     OW30565   2.434   7.344   1.448
 9544SOL    HW130566   2.338   7.362   1.471
 9544SOL    HW230567   2.484   7.430   1.441
 9545SOL     OW30568   2.418   6.557   0.166
 9545SOL    HW130569   2.372   6.634   0.122
 9545SOL    HW230570   2.494   6.592   0.221
 9546SOL     OW30571   3.408   5.723   1.442
 9546SOL    HW130572   3.473   5.769   1.381
 9546SOL    HW230573   3.419   5.759   1.535
 9547SOL     OW30574   1.957   6.257   0.520
 9547SOL    HW130575   1.949   6.162   0.550
 9547SOL    HW230576   1.929   6.318   0.593
 9548SOL     OW30577   3.629   7.354   0.326
 9548SOL    HW130578   3.584   7.396   0.405
 9548SOL    HW230579   3.702   7.414   0.293
 9549SOL     OW30580   1.912   7.123   0.125
 9549SOL    HW130581   1.881   7.033   0.156
 9549SOL    HW230582   1.914   7.187   0.201
 9550SOL     OW30583   3.580   6.504   0.679
 9550SOL    HW130584   3.670   6.465   0.662
 9550SOL    HW230585   3.558   6.569   0.605
 9551SOL     OW30586   3.534   6.686   0.480
 9551SOL    HW130587   3.617   6.701   0.426
 9551SOL    HW230588   3.510   6.771   0.528
 9552SOL     OW30589   2.076   6.289   1.591
 9552SOL    HW130590   2.175   6.297   1.594
 9552SOL    HW230591   2.034   6.378   1.610
 9553SOL     OW30592   2.491   6.930   0.738
 9553SOL    HW130593   2.442   6.845   0.718
 9553SOL    HW230594   2.506   6.980   0.653
 9554SOL     OW30595   2.699   5.620   0.517
 9554SOL    HW130596   2.746   5.700   0.480
 9554SOL    HW230597   2.600   5.637   0.521
 9555SOL     OW30598   2.012   6.446   1.287
 9555SOL    HW130599   2.110   6.430   1.283
 9555SOL    HW230600   1.965   6.381   1.228
 9556SOL     OW30601   3.370   6.595   0.275
 9556SOL    HW130602   3.314   6.518   0.304
 9556SOL    HW230603   3.426   6.627   0.351
 9557SOL     OW30604   3.133   7.500   1.620
 9557SOL    HW130605   3.087   7.561   1.555
 9557SOL    HW230606   3.117   7.405   1.594
 9558SOL     OW30607   2.118   5.741   1.916
 9558SOL    HW130608   2.195   5.789   1.959
 9558SOL    HW230609   2.049   5.808   1.888
 9559SOL     OW30610   3.322   6.945   0.892
 9559SOL    HW130611   3.273   6.986   0.969
 9559SOL    HW230612   3.297   6.848   0.885
 9560SOL     OW30613   3.495   7.482   0.527
 9560SOL    HW130614   3.417   7.503   0.468
 9560SOL    HW230615   3.462   7.453   0.616
 9561SOL     OW30616   2.459   6.310   0.298
 9561SOL    HW130617   2.457   6.396   0.247
 9561SOL    HW230618   2.387   6.311   0.368
 9562SOL     OW30619   3.145   5.984   0.935
 9562SOL    HW130620   3.055   5.939   0.929
 9562SOL    HW230621   3.201   5.937   1.003
 9563SOL     OW30622   3.390   7.210   0.340
 9563SOL    HW130623   3.478   7.256   0.330
 9563SOL    HW230624   3.351   7.194   0.249
 9564SOL     OW30625   2.648   6.148   1.444
 9564SOL    HW130626   2.606   6.116   1.529
 9564SOL    HW230627   2.627   6.084   1.370
 9565SOL     OW30628   3.234   6.085   1.663
 9565SOL    HW130629   3.233   6.141   1.745
 9565SOL    HW230630   3.328   6.066   1.636
 9566SOL     OW30631   2.796   6.531   1.526
 9566SOL    HW130632   2.845   6.448   1.500
 9566SOL    HW230633   2.744   6.564   1.447
 9567SOL     OW30634   2.871   5.963   1.171
 9567SOL    HW130635   2.775   5.974   1.197
 9567SOL    HW230636   2.877   5.912   1.085
 9568SOL     OW30637   2.933   6.280   0.376
 9568SOL    HW130638   2.955   6.279   0.473
 9568SOL    HW230639   2.843   6.239   0.362
 9569SOL     OW30640   1.887   6.433   0.741
 9569SOL    HW130641   1.978   6.413   0.777
 9569SOL    HW230642   1.848   6.511   0.789
 9570SOL     OW30643   1.951   7.539   1.584
 9570SOL    HW130644   1.952   7.480   1.664
 9570SOL    HW230645   1.858   7.542   1.546
 9571SOL     OW30646   2.721   5.900   0.182
 9571SOL    HW130647   2.716   5.955   0.099
 9571SOL    HW230648   2.719   5.803   0.159
 9572SOL     OW30649   3.535   6.211   1.836
 9572SOL    HW130650   3.526   6.300   1.793
 9572SOL    HW230651   3.538   6.140   1.766
 9573SOL     OW30652   3.232   6.761   0.583
 9573SOL    HW130653   3.317   6.813   0.595
 9573SOL    HW230654   3.171   6.811   0.521
 9574SOL     OW30655   2.414   5.673   0.946
 9574SOL    HW130656   2.426   5.715   1.036
 9574SOL    HW230657   2.425   5.742   0.875
 9575SOL     OW30658   2.829   7.018   0.479
 9575SOL    HW130659   2.814   7.104   0.430
 9575SOL    HW230660   2.804   7.029   0.575
 9576SOL     OW30661   2.232   7.362   0.899
 9576SOL    HW130662   2.267   7.269   0.889
 9576SOL    HW230663   2.302   7.421   0.939
 9577SOL     OW30664   3.649   6.608   0.921
 9577SOL    HW130665   3.612   6.568   0.837
 9577SOL    HW230666   3.576   6.617   0.988
 9578SOL     OW30667   3.053   7.029   1.504
 9578SOL    HW130668   3.042   6.975   1.588
 9578SOL    HW230669   3.008   7.117   1.516
 9579SOL     OW30670   2.183   6.505   0.312
 9579SOL    HW130671   2.257   6.516   0.245
 9579SOL    HW230672   2.191   6.416   0.356
 9580SOL     OW30673   3.363   6.344   0.701
 9580SOL    HW130674   3.350   6.304   0.792
 9580SOL    HW230675   3.445   6.401   0.701
 9581SOL     OW30676   2.932   7.319   0.153
 9581SOL    HW130677   2.878   7.292   0.233
 9581SOL    HW230678   2.970   7.237   0.110
 9582SOL     OW30679   2.095   5.827   1.485
 9582SOL    HW130680   2.045   5.914   1.486
 9582SOL    HW230681   2.042   5.757   1.532
 9583SOL     OW30682   3.459   6.960   0.063
 9583SOL    HW130683   3.405   7.044   0.072
 9583SOL    HW230684   3.399   6.881   0.065
 9584SOL     OW30685   2.403   7.286   0.407
 9584SOL    HW130686   2.423   7.375   0.447
 9584SOL    HW230687   2.454   7.275   0.322
 9585SOL     OW30688   3.233   5.676   0.424
 9585SOL    HW130689   3.222   5.658   0.327
 9585SOL    HW230690   3.330   5.673   0.448
 9586SOL     OW30691   2.053   7.433   1.207
 9586SOL    HW130692   2.107   7.353   1.233
 9586SOL    HW230693   2.020   7.421   1.113
 9587SOL     OW30694   2.801   7.282   0.890
 9587SOL    HW130695   2.886   7.231   0.877
 9587SOL    HW230696   2.743   7.271   0.809
 9588SOL     OW30697   2.224   6.267   0.457
 9588SOL    HW130698   2.255   6.173   0.472
 9588SOL    HW230699   2.125   6.272   0.473
 9589SOL     OW30700   3.435   5.786   1.709
 9589SOL    HW130701   3.498   5.763   1.783
 9589SOL    HW230702   3.341   5.776   1.742
 9590SOL     OW30703   2.444   5.698   0.104
 9590SOL    HW130704   2.539   5.667   0.097
 9590SOL    HW230705   2.414   5.732   0.014
 9591SOL     OW30706   2.589   5.818   1.693
 9591SOL    HW130707   2.676   5.785   1.729
 9591SOL    HW230708   2.516   5.754   1.719
 9592SOL     OW30709   3.134   6.193   1.435
 9592SOL    HW130710   3.171   6.156   1.520
 9592SOL    HW230711   3.175   6.282   1.416
 9593SOL     OW30712   2.673   6.807   0.904
 9593SOL    HW130713   2.762   6.853   0.903
 9593SOL    HW230714   2.610   6.857   0.846
 9594SOL     OW30715   2.785   6.109   0.849
 9594SOL    HW130716   2.765   6.094   0.753
 9594SOL    HW230717   2.819   6.025   0.890
 9595SOL     OW30718   2.430   5.660   0.512
 9595SOL    HW130719   2.350   5.652   0.571
 9595SOL    HW230720   2.418   5.738   0.450
 9596SOL     OW30721   3.300   6.739   0.056
 9596SOL    HW130722   3.334   6.679   0.129
 9596SOL    HW230723   3.214   6.780   0.084
 9597SOL     OW30724   2.827   5.839   0.426
 9597SOL    HW130725   2.789   5.866   0.338
 9597SOL    HW230726   2.924   5.862   0.429
 9598SOL     OW30727   2.880   6.289   1.429
 9598SOL    HW130728   2.807   6.221   1.438
 9598SOL    HW230729   2.968   6.243   1.432
 9599SOL     OW30730   2.356   6.707   0.669
 9599SOL    HW130731   2.291   6.686   0.742
 9599SOL    HW230732   2.307   6.722   0.583
 9600SOL     OW30733   2.960   6.093   9.951
 9600SOL    HW130734   2.863   6.069   9.952
 9600SOL    HW230735   2.996   6.092   0.044
 9601SOL     OW30736   2.003   6.100   1.407
 9601SOL    HW130737   2.090   6.093   1.359
 9601SOL    HW230738   2.010   6.171   1.477
 9602SOL     OW30739   2.432   5.788   1.191
 9602SOL    HW130740   2.482   5.757   1.271
 9602SOL    HW230741   2.334   5.778   1.207
 9603SOL     OW30742   2.742   6.046   0.591
 9603SOL    HW130743   2.709   6.107   0.518
 9603SOL    HW230744   2.774   5.960   0.551
 9604SOL     OW30745   2.887   5.633   0.726
 9604SOL    HW130746   2.824   5.639   0.648
 9604SOL    HW230747   2.853   5.563   0.790
 9605SOL     OW30748   3.260   6.680   0.865
 9605SOL    HW130749   3.213   6.597   0.893
 9605SOL    HW230750   3.241   6.699   0.769
 9606SOL     OW30751   3.318   6.210   0.941
 9606SOL    HW130752   3.251   6.136   0.949
 9606SOL    HW230753   3.378   6.210   1.020
 9607SOL     OW30754   3.770   6.413   0.315
 9607SOL    HW130755   3.796   6.381   0.406
 9607SOL    HW230756   3.710   6.345   0.272
 9608SOL     OW30757   2.277   7.142   0.124
 9608SOL    HW130758   2.209   7.082   0.168
 9608SOL    HW230759   2.322   7.093   0.050
 9609SOL     OW30760   3.458   6.895   0.655
 9609SOL    HW130761   3.551   6.877   0.688
 9609SOL    HW230762   3.403   6.934   0.729
 9610SOL     OW30763   3.268   6.119   0.056
 9610SOL    HW130764   3.189   6.110   0.116
 9610SOL    HW230765   3.316   6.031   0.049
 9611SOL     OW30766   2.404   5.855   0.324
 9611SOL    HW130767   2.424   5.788   0.253
 9611SOL    HW230768   2.392   5.946   0.283
 9612SOL     OW30769   3.626   6.867   1.609
 9612SOL    HW130770   3.661   6.960   1.595
 9612SOL    HW230771   3.532   6.872   1.643
 9613SOL     OW30772   3.466   7.219   1.700
 9613SOL    HW130773   3.449   7.227   1.602
 9613SOL    HW230774   3.559   7.185   1.715
 9614SOL     OW30775   3.023   6.829   1.119
 9614SOL    HW130776   2.966   6.858   1.196
 9614SOL    HW230777   2.978   6.854   1.033
 9615SOL     OW30778   3.439   6.652   1.084
 9615SOL    HW130779   3.442   6.731   1.145
 9615SOL    HW230780   3.367   6.665   1.016
 9616SOL     OW30781   2.808   5.644   1.340
 9616SOL    HW130782   2.842   5.623   1.248
 9616SOL    HW230783   2.877   5.695   1.391
 9617SOL     OW30784   2.789   6.701   1.731
 9617SOL    HW130785   2.693   6.721   1.750
 9617SOL    HW230786   2.795   6.639   1.653
 9618SOL     OW30787   2.622   6.622   0.338
 9618SOL    HW130788   2.602   6.585   0.429
 9618SOL    HW230789   2.709   6.585   0.306
 9619SOL     OW30790   2.276   6.364   1.267
 9619SOL    HW130791   2.352   6.384   1.329
 9619SOL    HW230792   2.257   6.266   1.267
 9620SOL     OW30793   3.107   5.956   1.299
 9620SOL    HW130794   3.126   6.043   1.345
 9620SOL    HW230795   3.019   5.962   1.251
 9621SOL     OW30796   1.948   7.125   1.346
 9621SOL    HW130797   1.880   7.192   1.316
 9621SOL    HW230798   2.037   7.149   1.310
 9622SOL     OW30799   2.208   6.739   0.443
 9622SOL    HW130800   2.200   6.809   0.373
 9622SOL    HW230801   2.200   6.649   0.401
 9623SOL     OW30802   2.367   6.153   0.884
 9623SOL    HW130803   2.374   6.212   0.804
 9623SOL    HW230804   2.450   6.161   0.939
 9624SOL     OW30805   3.074   6.917   0.414
 9624SOL    HW130806   3.129   6.998   0.433
 9624SOL    HW230807   2.979   6.934   0.439
 9625SOL     OW30808   3.205   7.031   1.124
 9625SOL    HW130809   3.248   7.038   1.214
 9625SOL    HW230810   3.138   6.957   1.123
 9626SOL     OW30811   3.373   6.204   0.462
 9626SOL    HW130812   3.374   6.246   0.553
 9626SOL    HW230813   3.314   6.258   0.402
 9627SOL     OW30814   2.182   7.192   1.228
 9627SOL    HW130815   2.163   7.124   1.157
 9627SOL    HW230816   2.279   7.189   1.252
 9628SOL     OW30817   2.356   6.286   1.637
 9628SOL    HW130818   2.400   6.335   1.562
 9628SOL    HW230819   2.416   6.211   1.668
 9629SOL     OW30820   3.486   6.429   1.690
 9629SOL    HW130821   3.397   6.473   1.675
 9629SOL    HW230822   3.550   6.461   1.621
 9630SOL     OW30823   2.832   5.725   1.776
 9630SOL    HW130824   2.901   5.796   1.759
 9630SOL    HW230825   2.864   5.638   1.738
 9631SOL     OW30826   2.399   5.630   1.747
 9631SOL    HW130827   2.316   5.594   1.706
 9631SOL    HW230828   2.385   5.640   1.846
 9632SOL     OW30829   2.463   6.438   1.067
 9632SOL    HW130830   2.482   6.536   1.071
 9632SOL    HW230831   2.384   6.417   1.124
 9633SOL     OW30832   3.148   6.442   0.952
 9633SOL    HW130833   3.055   6.412   0.930
 9633SOL    HW230834   3.209   6.362   0.951
 9634SOL     OW30835   3.051   6.085   0.219
 9634SOL    HW130836   3.070   6.012   0.283
 9634SOL    HW230837   3.007   6.161   0.267
 9635SOL     OW30838   2.164   5.752   1.230
 9635SOL    HW130839   2.137   5.780   1.322
 9635SOL    HW230840   2.146   5.654   1.219
 9636SOL     OW30841   1.906   6.869   1.261
 9636SOL    HW130842   1.934   6.799   1.326
 9636SOL    HW230843   1.921   6.959   1.301
 9637SOL     OW30844   2.593   6.203   1.034
 9637SOL    HW130845   2.656   6.194   0.957
 9637SOL    HW230846   2.555   6.296   1.035
 9638SOL     OW30847   2.202   5.626   0.666
 9638SOL    HW130848   2.175   5.721   0.682
 9638SOL    HW230849   2.199   5.575   0.752
 9639SOL     OW30850   3.490   6.016   0.304
 9639SOL    HW130851   3.552   5.956   0.354
 9639SOL    HW230852   3.444   6.078   0.368
 9640SOL     OW30853   2.886   6.351   0.918
 9640SOL    HW130854   2.866   6.367   1.015
 9640SOL    HW230855   2.855   6.260   0.893
 9641SOL     OW30856   2.903   7.153   1.784
 9641SOL    HW130857   2.894   7.211   1.703
 9641SOL    HW230858   2.926   7.060   1.756
 9642SOL     OW30859   3.728   7.115   1.584
 9642SOL    HW130860   3.733   7.133   1.486
 9642SOL    HW230861   3.818   7.127   1.625
 9643SOL     OW30862   2.233   6.475   1.799
 9643SOL    HW130863   2.293   6.528   1.858
 9643SOL    HW230864   2.287   6.408   1.747
 9644SOL     OW30865   3.368   5.868   0.103
 9644SOL    HW130866   3.307   5.796   0.137
 9644SOL    HW230867   3.413   5.913   0.180
 9645SOL     OW30868   3.266   6.388   0.049
 9645SOL    HW130869   3.263   6.289   0.034
 9645SOL    HW230870   3.359   6.421   0.033
 9646SOL     OW30871   2.925   6.916   0.876
 9646SOL    HW130872   2.950   6.845   0.810
 9646SOL    HW230873   2.970   7.002   0.851
 9647SOL     OW30874   2.136   6.384   0.842
 9647SOL    HW130875   2.221   6.372   0.791
 9647SOL    HW230876   2.124   6.307   0.905
 9648SOL     OW30877   2.126   6.142   0.991
 9648SOL    HW130878   2.097   6.046   0.992
 9648SOL    HW230879   2.217   6.149   0.952
 9649SOL     OW30880   3.012   5.928   1.716
 9649SOL    HW130881   2.971   5.973   1.796
 9649SOL    HW230882   3.095   5.978   1.690
 9650SOL     OW30883   3.003   5.777   1.484
 9650SOL    HW130884   3.000   5.831   1.568
 9650SOL    HW230885   3.053   5.828   1.414
 9651SOL     OW30886   1.876   6.828   0.180
 9651SOL    HW130887   1.780   6.850   0.160
 9651SOL    HW230888   1.880   6.743   0.231
 9652SOL     OW30889   1.961   7.373   0.957
 9652SOL    HW130890   1.906   7.305   0.909
 9652SOL    HW230891   2.057   7.364   0.928
 9653SOL     OW30892   2.365   7.118   0.892
 9653SOL    HW130893   2.436   7.165   0.944
 9653SOL    HW230894   2.406   7.050   0.833
 9654SOL     OW30895   2.797   6.357   1.175
 9654SOL    HW130896   2.843   6.339   1.262
 9654SOL    HW230897   2.725   6.288   1.160
 9655SOL     OW30898   1.923   6.212   1.162
 9655SOL    HW130899   1.997   6.194   1.098
 9655SOL    HW230900   1.944   6.171   1.251
 9656SOL     OW30901   2.102   6.123   1.806
 9656SOL    HW130902   2.201   6.111   1.809
 9656SOL    HW230903   2.078   6.183   1.730
 9657SOL     OW30904   2.690   6.159   0.340
 9657SOL    HW130905   2.684   6.076   0.284
 9657SOL    HW230906   2.609   6.216   0.322
 9658SOL     OW30907   3.501   6.207   1.149
 9658SOL    HW130908   3.511   6.144   1.226
 9658SOL    HW230909   3.591   6.225   1.109
 9659SOL     OW30910   2.603   6.003   1.215
 9659SOL    HW130911   2.537   5.930   1.201
 9659SOL    HW230912   2.589   6.075   1.147
 9660SOL     OW30913   2.890   7.253   1.529
 9660SOL    HW130914   2.815   7.186   1.529
 9660SOL    HW230915   2.864   7.332   1.474
 9661SOL     OW30916   2.363   6.084   0.188
 9661SOL    HW130917   2.401   6.169   0.225
 9661SOL    HW230918   2.266   6.097   0.168
 9662SOL     OW30919   2.009   6.674   1.433
 9662SOL    HW130920   2.000   6.641   1.527
 9662SOL    HW230921   2.011   6.596   1.370
 9663SOL     OW30922   3.119   6.580   1.188
 9663SOL    HW130923   3.130   6.531   1.102
 9663SOL    HW230924   3.084   6.672   1.170
 9664SOL     OW30925   3.208   6.368   0.315
 9664SOL    HW130926   3.112   6.351   0.336
 9664SOL    HW230927   3.220   6.371   0.216
 9665SOL     OW30928   3.604   7.272   1.136
 9665SOL    HW130929   3.679   7.309   1.082
 9665SOL    HW230930   3.576   7.184   1.098
 9666SOL     OW30931   3.165   7.275   1.011
 9666SOL    HW130932   3.242   7.337   1.027
 9666SOL    HW230933   3.182   7.189   1.060
 9667SOL     OW30934   1.980   6.783   1.011
 9667SOL    HW130935   1.955   6.808   1.105
 9667SOL    HW230936   1.903   6.738   0.967
 9668SOL     OW30937   2.469   7.295   1.730
 9668SOL    HW130938   2.400   7.366   1.737
 9668SOL    HW230939   2.488   7.275   1.634
 9669SOL     OW30940   2.720   5.642   0.076
 9669SOL    HW130941   2.705   5.633   9.977
 9669SOL    HW230942   2.803   5.591   0.101
 9670SOL     OW30943   3.659   5.836   0.426
 9670SOL    HW130944   3.726   5.796   0.364
 9670SOL    HW230945   3.596   5.765   0.458
 9671SOL     OW30946   1.953   7.390   1.802
 9671SOL    HW130947   1.903   7.307   1.827
 9671SOL    HW230948   1.993   7.431   1.884
 9672SOL     OW30949   3.159   6.507   0.620
 9672SOL    HW130950   3.237   6.449   0.645
 9672SOL    HW230951   3.193   6.595   0.587
 9673SOL     OW30952   2.541   7.202   0.184
 9673SOL    HW130953   2.600   7.145   0.128
 9673SOL    HW230954   2.445   7.185   0.160
 9674SOL     OW30955   3.467   7.267   1.412
 9674SOL    HW130956   3.504   7.264   1.319
 9674SOL    HW230957   3.501   7.349   1.459
 9675SOL     OW30958   3.690   5.746   1.015
 9675SOL    HW130959   3.730   5.661   0.982
 9675SOL    HW230960   3.604   5.764   0.966
 9676SOL     OW30961   2.143   5.883   0.727
 9676SOL    HW130962   2.065   5.929   0.684
 9676SOL    HW230963   2.135   5.889   0.827
 9677SOL     OW30964   3.029   7.078   0.042
 9677SOL    HW130965   3.036   6.989   0.087
 9677SOL    HW230966   2.972   7.070   9.961
 9678SOL     OW30967   2.658   6.565   1.295
 9678SOL    HW130968   2.716   6.505   1.241
 9678SOL    HW230969   2.607   6.626   1.234
 9679SOL     OW30970   2.857   6.518   0.249
 9679SOL    HW130971   2.916   6.532   0.169
 9679SOL    HW230972   2.885   6.435   0.297
 9680SOL     OW30973   3.284   7.171   0.084
 9680SOL    HW130974   3.192   7.130   0.081
 9680SOL    HW230975   3.284   7.257   0.034
 9681SOL     OW30976   2.235   6.835   1.444
 9681SOL    HW130977   2.281   6.850   1.357
 9681SOL    HW230978   2.156   6.776   1.430
 9682SOL     OW30979   3.478   6.865   1.248
 9682SOL    HW130980   3.570   6.862   1.287
 9682SOL    HW230981   3.418   6.918   1.308
 9683SOL     OW30982   2.959   6.701   0.713
 9683SOL    HW130983   2.875   6.648   0.726
 9683SOL    HW230984   3.028   6.642   0.671
 9684SOL     OW30985   2.913   5.819   0.938
 9684SOL    HW130986   2.906   5.781   0.845
 9684SOL    HW230987   2.919   5.744   1.004
 9685SOL     OW30988   2.522   7.060   0.503
 9685SOL    HW130989   2.553   7.005   0.426
 9685SOL    HW230990   2.463   7.134   0.469
 9686SOL     OW30991   3.608   6.044   1.361
 9686SOL    HW130992   3.694   6.094   1.352
 9686SOL    HW230993   3.621   5.949   1.331
 9687SOL     OW30994   2.128   6.917   0.237
 9687SOL    HW130995   2.038   6.888   0.205
 9687SOL    HW230996   2.117   6.971   0.321
 9688SOL     OW30997   1.997   6.544   1.682
 9688SOL    HW130998   1.921   6.554   1.746
 9688SOL    HW230999   2.082   6.529   1.732
 9689SOL     OW31000   2.566   5.739   1.432
 9689SOL    HW131001   2.652   5.706   1.393
 9689SOL    HW231002   2.581   5.769   1.526
 9690SOL     OW31003   1.900   5.934   0.095
 9690SOL    HW131004   1.823   5.998   0.099
 9690SOL    HW231005   1.917   5.908  10.000
 9691SOL     OW31006   3.237   6.447   1.390
 9691SOL    HW131007   3.180   6.495   1.324
 9691SOL    HW231008   3.331   6.443   1.357
 9692SOL     OW31009   1.954   5.723   0.263
 9692SOL    HW131010   1.935   5.801   0.202
 9692SOL    HW231011   2.047   5.691   0.246
 9693SOL     OW31012   3.065   6.830   0.155
 9693SOL    HW131013   3.027   6.738   0.145
 9693SOL    HW231014   3.069   6.854   0.252
 9694SOL     OW31015   2.499   6.380   1.423
 9694SOL    HW131016   2.551   6.458   1.387
 9694SOL    HW231017   2.559   6.300   1.428
 9695SOL     OW31018   3.383   7.430   1.057
 9695SOL    HW131019   3.411   7.503   0.994
 9695SOL    HW231020   3.465   7.382   1.090
 9696SOL     OW31021   2.556   6.096   1.699
 9696SOL    HW131022   2.629   6.137   1.754
 9696SOL    HW231023   2.562   5.996   1.705
 9697SOL     OW31024   2.166   7.367   1.523
 9697SOL    HW131025   2.088   7.429   1.524
 9697SOL    HW231026   2.134   7.273   1.516
 9698SOL     OW31027   3.485   6.457   1.272
 9698SOL    HW131028   3.492   6.367   1.228
 9698SOL    HW231029   3.468   6.527   1.203
 9699SOL     OW31030   3.090   5.911   0.435
 9699SOL    HW131031   3.145   5.827   0.433
 9699SOL    HW231032   3.116   5.965   0.515
 9700SOL     OW31033   2.361   6.343   0.684
 9700SOL    HW131034   2.436   6.404   0.659
 9700SOL    HW231035   2.312   6.314   0.601
 9701SOL     OW31036   3.499   6.038   1.619
 9701SOL    HW131037   3.540   6.045   1.529
 9701SOL    HW231038   3.494   5.941   1.646
 9702SOL     OW31039   3.644   6.527   1.487
 9702SOL    HW131040   3.660   6.625   1.486
 9702SOL    HW231041   3.589   6.501   1.408
 9703SOL     OW31042   2.681   7.002   0.049
 9703SOL    HW131043   2.590   6.986   0.011
 9703SOL    HW231044   2.688   6.957   0.137
 9704SOL     OW31045   2.555   7.272   1.024
 9704SOL    HW131046   2.519   7.364   1.012
 9704SOL    HW231047   2.647   7.266   0.985
 9705SOL     OW31048   2.739   6.558   0.792
 9705SOL    HW131049   2.786   6.490   0.849
 9705SOL    HW231050   2.711   6.635   0.849
 9706SOL     OW31051   3.043   6.558   0.045
 9706SOL    HW131052   3.035   6.592   9.951
 9706SOL    HW231053   3.121   6.495   0.051
 9707SOL     OW31054   3.788   7.092   0.936
 9707SOL    HW131055   3.845   7.026   0.885
 9707SOL    HW231056   3.703   7.048   0.963
 9708SOL     OW31057   2.058   6.828   0.652
 9708SOL    HW131058   2.087   6.775   0.731
 9708SOL    HW231059   2.106   6.796   0.571
 9709SOL     OW31060   3.636   5.784   1.284
 9709SOL    HW131061   3.662   5.699   1.329
 9709SOL    HW231062   3.657   5.778   1.187
 9710SOL     OW31063   2.290   6.016   0.524
 9710SOL    HW131064   2.331   5.950   0.461
 9710SOL    HW231065   2.251   5.968   0.602
 9711SOL     OW31066   3.540   7.026   1.036
 9711SOL    HW131067   3.472   7.006   0.966
 9711SOL    HW231068   3.525   6.966   1.115
 9712SOL     OW31069   2.239   6.094   1.276
 9712SOL    HW131070   2.292   6.038   1.339
 9712SOL    HW231071   2.252   6.060   1.183
 9713SOL     OW31072   2.668   7.240   0.660
 9713SOL    HW131073   2.679   7.324   0.606
 9713SOL    HW231074   2.611   7.175   0.610
 9714SOL     OW31075   3.281   5.840   1.122
 9714SOL    HW131076   3.302   5.745   1.143
 9714SOL    HW231077   3.229   5.881   1.197
 9715SOL     OW31078   2.913   5.580   1.086
 9715SOL    HW131079   2.850   5.525   1.031
 9715SOL    HW231080   3.001   5.534   1.093
 9716SOL     OW31081   2.656   6.895   0.306
 9716SOL    HW131082   2.641   6.797   0.316
 9716SOL    HW231083   2.730   6.924   0.368
 9717SOL     OW31084   2.456   7.158   1.254
 9717SOL    HW131085   2.463   7.221   1.331
 9717SOL    HW231086   2.501   7.198   1.174
 9718SOL     OW31087   3.182   5.638   0.157
 9718SOL    HW131088   3.207   5.615   0.062
 9718SOL    HW231089   3.090   5.602   0.176
 9719SOL     OW31090   3.151   6.053   0.664
 9719SOL    HW131091   3.102   6.139   0.651
 9719SOL    HW231092   3.150   6.027   0.761
 9720SOL     OW31093   3.449   5.802   0.905
 9720SOL    HW131094   3.390   5.831   0.980
 9720SOL    HW231095   3.450   5.872   0.834
 9721SOL     OW31096   1.914   6.583   0.304
 9721SOL    HW131097   2.013   6.571   0.308
 9721SOL    HW231098   1.870   6.494   0.290
 9722SOL     OW31099   2.757   7.247   0.347
 9722SOL    HW131100   2.677   7.230   0.290
 9722SOL    HW231101   2.740   7.328   0.404
 9723SOL     OW31102   2.025   6.206   2.056
 9723SOL    HW131103   1.925   6.195   2.061
 9723SOL    HW231104   2.054   6.190   1.962
 9724SOL     OW31105   2.051   5.893   2.864
 9724SOL    HW131106   2.097   5.849   2.942
 9724SOL    HW231107   1.959   5.854   2.855
 9725SOL     OW31108   1.813   5.999   2.510
 9725SOL    HW131109   1.727   6.022   2.557
 9725SOL    HW231110   1.794   5.934   2.437
 9726SOL     OW31111   2.426   6.904   3.085
 9726SOL    HW131112   2.344   6.910   3.028
 9726SOL    HW231113   2.454   6.996   3.113
 9727SOL     OW31114   3.407   7.082   2.575
 9727SOL    HW131115   3.359   7.058   2.658
 9727SOL    HW231116   3.342   7.093   2.500
 9728SOL     OW31117   3.021   6.352   2.577
 9728SOL    HW131118   3.066   6.438   2.553
 9728SOL    HW231119   2.963   6.365   2.657
 9729SOL     OW31120   3.657   6.201   2.085
 9729SOL    HW131121   3.616   6.220   1.996
 9729SOL    HW231122   3.617   6.117   2.122
 9730SOL     OW31123   2.578   6.735   2.930
 9730SOL    HW131124   2.516   6.773   2.998
 9730SOL    HW231125   2.628   6.809   2.885
 9731SOL     OW31126   2.726   6.307   3.716
 9731SOL    HW131127   2.729   6.365   3.797
 9731SOL    HW231128   2.745   6.361   3.635
 9732SOL     OW31129   2.598   6.591   2.517
 9732SOL    HW131130   2.656   6.603   2.597
 9732SOL    HW231131   2.512   6.640   2.530
 9733SOL     OW31132   2.541   6.738   3.697
 9733SOL    HW131133   2.587   6.816   3.739
 9733SOL    HW231134   2.459   6.770   3.648
 9734SOL     OW31135   2.210   6.975   2.930
 9734SOL    HW131136   2.136   6.915   2.899
 9734SOL    HW231137   2.243   7.029   2.852
 9735SOL     OW31138   2.320   5.946   3.288
 9735SOL    HW131139   2.398   5.889   3.313
 9735SOL    HW231140   2.236   5.905   3.324
 9736SOL     OW31141   3.483   5.998   2.648
 9736SOL    HW131142   3.451   6.025   2.557
 9736SOL    HW231143   3.458   6.068   2.715
 9737SOL     OW31144   2.103   7.300   2.328
 9737SOL    HW131145   2.104   7.385   2.382
 9737SOL    HW231146   2.190   7.291   2.280
 9738SOL     OW31147   2.975   6.872   3.545
 9738SOL    HW131148   3.063   6.851   3.588
 9738SOL    HW231149   2.908   6.803   3.571
 9739SOL     OW31150   2.149   7.037   2.398
 9739SOL    HW131151   2.114   7.130   2.389
 9739SOL    HW231152   2.088   6.984   2.456
 9740SOL     OW31153   2.174   6.659   2.722
 9740SOL    HW131154   2.189   6.564   2.748
 9740SOL    HW231155   2.120   6.705   2.793
 9741SOL     OW31156   2.473   7.371   3.335
 9741SOL    HW131157   2.384   7.357   3.379
 9741SOL    HW231158   2.499   7.467   3.343
 9742SOL     OW31159   2.381   6.619   1.975
 9742SOL    HW131160   2.406   6.692   1.912
 9742SOL    HW231161   2.442   6.621   2.054
 9743SOL     OW31162   1.955   6.234   2.467
 9743SOL    HW131163   1.906   6.148   2.485
 9743SOL    HW231164   1.961   6.286   2.551
 9744SOL     OW31165   3.671   7.310   2.176
 9744SOL    HW131166   3.749   7.294   2.236
 9744SOL    HW231167   3.675   7.403   2.140
 9745SOL     OW31168   1.845   7.169   1.914
 9745SOL    HW131169   1.889   7.082   1.890
 9745SOL    HW231170   1.864   7.192   2.009
 9746SOL     OW31171   3.540   6.511   2.536
 9746SOL    HW131172   3.563   6.446   2.463
 9746SOL    HW231173   3.526   6.601   2.496
 9747SOL     OW31174   1.952   6.374   3.377
 9747SOL    HW131175   2.011   6.428   3.317
 9747SOL    HW231176   1.864   6.420   3.387
 9748SOL     OW31177   2.392   6.985   2.518
 9748SOL    HW131178   2.392   6.885   2.527
 9748SOL    HW231179   2.314   7.012   2.461
 9749SOL     OW31180   3.227   6.822   3.249
 9749SOL    HW131181   3.187   6.742   3.204
 9749SOL    HW231182   3.257   6.797   3.341
 9750SOL     OW31183   2.659   5.622   2.346
 9750SOL    HW131184   2.718   5.703   2.341
 9750SOL    HW231185   2.567   5.650   2.373
 9751SOL     OW31186   2.075   6.532   3.189
 9751SOL    HW131187   2.165   6.493   3.173
 9751SOL    HW231188   2.030   6.551   3.101
 9752SOL     OW31189   3.005   7.351   3.406
 9752SOL    HW131190   3.090   7.390   3.371
 9752SOL    HW231191   3.010   7.251   3.399
 9753SOL     OW31192   2.227   5.858   3.733
 9753SOL    HW131193   2.264   5.935   3.786
 9753SOL    HW231194   2.142   5.886   3.689
 9754SOL     OW31195   3.298   6.995   2.815
 9754SOL    HW131196   3.238   7.002   2.895
 9754SOL    HW231197   3.303   6.899   2.786
 9755SOL     OW31198   3.407   7.373   2.576
 9755SOL    HW131199   3.379   7.415   2.490
 9755SOL    HW231200   3.427   7.276   2.561
 9756SOL     OW31201   2.360   6.194   2.155
 9756SOL    HW131202   2.425   6.269   2.140
 9756SOL    HW231203   2.308   6.211   2.239
 9757SOL     OW31204   3.150   6.040   2.784
 9757SOL    HW131205   3.054   6.064   2.795
 9757SOL    HW231206   3.170   5.956   2.835
 9758SOL     OW31207   3.413   7.220   2.193
 9758SOL    HW131208   3.508   7.250   2.204
 9758SOL    HW231209   3.382   7.242   2.100
 9759SOL     OW31210   2.625   6.151   3.322
 9759SOL    HW131211   2.595   6.126   3.414
 9759SOL    HW231212   2.591   6.083   3.257
 9760SOL     OW31213   3.216   6.089   3.518
 9760SOL    HW131214   3.219   6.114   3.615
 9760SOL    HW231215   3.302   6.044   3.493
 9761SOL     OW31216   2.794   6.444   3.479
 9761SOL    HW131217   2.860   6.384   3.435
 9761SOL    HW231218   2.745   6.497   3.410
 9762SOL     OW31219   2.834   6.047   3.037
 9762SOL    HW131220   2.846   6.134   3.085
 9762SOL    HW231221   2.743   6.011   3.056
 9763SOL     OW31222   1.968   6.394   2.687
 9763SOL    HW131223   2.062   6.395   2.720
 9763SOL    HW231224   1.914   6.460   2.739
 9764SOL     OW31225   1.965   7.450   3.464
 9764SOL    HW131226   1.963   7.409   3.556
 9764SOL    HW231227   1.873   7.476   3.438
 9765SOL     OW31228   2.771   5.845   2.031
 9765SOL    HW131229   2.817   5.929   2.001
 9765SOL    HW231230   2.782   5.774   1.962
 9766SOL     OW31231   3.566   6.118   3.627
 9766SOL    HW131232   3.550   6.214   3.607
 9766SOL    HW231233   3.528   6.061   3.554
 9767SOL     OW31234   3.243   6.735   2.352
 9767SOL    HW131235   3.300   6.732   2.270
 9767SOL    HW231236   3.173   6.805   2.343
 9768SOL     OW31237   2.362   5.777   2.779
 9768SOL    HW131238   2.385   5.783   2.876
 9768SOL    HW231239   2.373   5.867   2.737
 9769SOL     OW31240   2.802   7.007   2.277
 9769SOL    HW131241   2.782   7.087   2.220
 9769SOL    HW231242   2.754   7.017   2.364
 9770SOL     OW31243   2.224   7.383   2.705
 9770SOL    HW131244   2.261   7.291   2.712
 9770SOL    HW231245   2.273   7.443   2.768
 9771SOL     OW31246   3.667   6.571   2.779
 9771SOL    HW131247   3.622   6.553   2.691
 9771SOL    HW231248   3.599   6.599   2.846
 9772SOL     OW31249   3.007   7.084   3.370
 9772SOL    HW131250   3.017   7.013   3.440
 9772SOL    HW231251   2.946   7.052   3.298
 9773SOL     OW31252   2.153   6.489   2.121
 9773SOL    HW131253   2.219   6.523   2.054
 9773SOL    HW231254   2.129   6.395   2.099
 9774SOL     OW31255   3.347   6.404   2.695
 9774SOL    HW131256   3.370   6.319   2.743
 9774SOL    HW231257   3.426   6.435   2.642
 9775SOL     OW31258   2.321   6.871   3.601
 9775SOL    HW131259   2.291   6.878   3.506
 9775SOL    HW231260   2.241   6.879   3.662
 9776SOL     OW31261   2.976   7.311   2.129
 9776SOL    HW131262   2.878   7.292   2.134
 9776SOL    HW231263   3.021   7.237   2.079
 9777SOL     OW31264   2.078   5.828   3.346
 9777SOL    HW131265   2.006   5.896   3.358
 9777SOL    HW231266   2.051   5.743   3.391
 9778SOL     OW31267   3.429   6.986   1.958
 9778SOL    HW131268   3.386   7.073   1.982
 9778SOL    HW231269   3.399   6.915   2.023
 9779SOL     OW31270   2.359   7.329   2.208
 9779SOL    HW131271   2.316   7.417   2.188
 9779SOL    HW231272   2.394   7.289   2.124
 9780SOL     OW31273   3.224   5.747   2.326
 9780SOL    HW131274   3.221   5.714   2.232
 9780SOL    HW231275   3.302   5.707   2.373
 9781SOL     OW31276   2.152   7.366   3.052
 9781SOL    HW131277   2.177   7.280   3.096
 9781SOL    HW231278   2.090   7.348   2.976
 9782SOL     OW31279   2.808   7.239   2.661
 9782SOL    HW131280   2.902   7.208   2.676
 9782SOL    HW231281   2.765   7.180   2.592
 9783SOL     OW31282   2.227   6.206   2.398
 9783SOL    HW131283   2.234   6.106   2.401
 9783SOL    HW231284   2.132   6.233   2.413
 9784SOL     OW31285   2.598   5.855   3.620
 9784SOL    HW131286   2.689   5.817   3.631
 9784SOL    HW231287   2.537   5.816   3.689
 9785SOL     OW31288   2.748   7.121   3.077
 9785SOL    HW131289   2.730   7.074   2.991
 9785SOL    HW231290   2.782   7.056   3.144
 9786SOL     OW31291   3.104   6.204   3.300
 9786SOL    HW131292   3.142   6.166   3.384
 9786SOL    HW231293   3.158   6.283   3.271
 9787SOL     OW31294   2.696   6.974   2.848
 9787SOL    HW131295   2.784   6.976   2.802
 9787SOL    HW231296   2.639   7.050   2.815
 9788SOL     OW31297   2.782   6.138   2.770
 9788SOL    HW131298   2.763   6.096   2.682
 9788SOL    HW231299   2.803   6.068   2.838
 9789SOL     OW31300   2.409   5.713   2.413
 9789SOL    HW131301   2.332   5.660   2.450
 9789SOL    HW231302   2.381   5.809   2.404
 9790SOL     OW31303   3.337   6.757   2.090
 9790SOL    HW131304   3.423   6.716   2.060
 9790SOL    HW231305   3.261   6.706   2.050
 9791SOL     OW31306   2.799   5.869   2.307
 9791SOL    HW131307   2.779   5.858   2.209
 9791SOL    HW231308   2.893   5.902   2.318
 9792SOL     OW31309   2.849   6.259   3.217
 9792SOL    HW131310   2.777   6.214   3.270
 9792SOL    HW231311   2.939   6.235   3.255
 9793SOL     OW31312   3.087   7.205   2.692
 9793SOL    HW131313   3.096   7.262   2.610
 9793SOL    HW231314   3.162   7.225   2.755
 9794SOL     OW31315   2.356   6.715   2.529
 9794SOL    HW131316   2.298   6.695   2.608
 9794SOL    HW231317   2.305   6.698   2.445
 9795SOL     OW31318   3.102   7.384   2.485
 9795SOL    HW131319   3.170   7.440   2.438
 9795SOL    HW231320   3.031   7.443   2.523
 9796SOL     OW31321   2.907   6.065   1.935
 9796SOL    HW131322   2.877   6.142   1.878
 9796SOL    HW231323   2.994   6.088   1.979
 9797SOL     OW31324   1.975   6.155   3.218
 9797SOL    HW131325   2.072   6.148   3.195
 9797SOL    HW231326   1.962   6.229   3.283
 9798SOL     OW31327   2.412   5.771   3.047
 9798SOL    HW131328   2.445   5.688   3.092
 9798SOL    HW231329   2.315   5.784   3.068
 9799SOL     OW31330   2.706   6.033   2.530
 9799SOL    HW131331   2.628   6.088   2.501
 9799SOL    HW231332   2.734   5.972   2.456
 9800SOL     OW31333   3.341   6.743   2.728
 9800SOL    HW131334   3.268   6.691   2.683
 9800SOL    HW231335   3.413   6.763   2.662
 9801SOL     OW31336   3.385   6.171   2.840
 9801SOL    HW131337   3.295   6.129   2.827
 9801SOL    HW231338   3.411   6.163   2.937
 9802SOL     OW31339   3.617   6.309   2.338
 9802SOL    HW131340   3.684   6.272   2.402
 9802SOL    HW231341   3.634   6.272   2.247
 9803SOL     OW31342   2.385   6.982   2.043
 9803SOL    HW131343   2.299   6.954   2.084
 9803SOL    HW231344   2.410   6.919   1.969
 9804SOL     OW31345   3.534   6.815   2.549
 9804SOL    HW131346   3.632   6.816   2.529
 9804SOL    HW231347   3.494   6.904   2.527
 9805SOL     OW31348   3.265   6.220   1.893
 9805SOL    HW131349   3.231   6.173   1.974
 9805SOL    HW231350   3.365   6.218   1.893
 9806SOL     OW31351   3.592   6.858   3.392
 9806SOL    HW131352   3.678   6.807   3.388
 9806SOL    HW231353   3.610   6.950   3.426
 9807SOL     OW31354   2.828   6.910   3.236
 9807SOL    HW131355   2.734   6.892   3.264
 9807SOL    HW231356   2.892   6.859   3.295
 9808SOL     OW31357   2.957   6.829   2.998
 9808SOL    HW131358   2.884   6.855   3.062
 9808SOL    HW231359   2.938   6.869   2.908
 9809SOL     OW31360   3.476   6.658   2.953
 9809SOL    HW131361   3.483   6.733   3.019
 9809SOL    HW231362   3.415   6.684   2.878
 9810SOL     OW31363   2.748   5.678   3.226
 9810SOL    HW131364   2.757   5.679   3.127
 9810SOL    HW231365   2.829   5.719   3.268
 9811SOL     OW31366   2.804   6.674   3.624
 9811SOL    HW131367   2.710   6.698   3.650
 9811SOL    HW231368   2.803   6.588   3.572
 9812SOL     OW31369   2.551   6.646   2.190
 9812SOL    HW131370   2.523   6.711   2.260
 9812SOL    HW231371   2.571   6.558   2.232
 9813SOL     OW31372   2.307   6.402   3.144
 9813SOL    HW131373   2.370   6.406   3.222
 9813SOL    HW231374   2.274   6.308   3.133
 9814SOL     OW31375   3.070   5.969   3.152
 9814SOL    HW131376   3.097   6.052   3.202
 9814SOL    HW231377   2.985   5.986   3.102
 9815SOL     OW31378   1.937   7.134   3.207
 9815SOL    HW131379   1.896   7.211   3.158
 9815SOL    HW231380   2.037   7.143   3.204
 9816SOL     OW31381   2.198   6.687   2.311
 9816SOL    HW131382   2.192   6.765   2.249
 9816SOL    HW231383   2.186   6.602   2.259
 9817SOL     OW31384   2.405   6.052   2.707
 9817SOL    HW131385   2.431   6.084   2.616
 9817SOL    HW231386   2.461   6.098   2.776
 9818SOL     OW31387   3.072   6.941   2.285
 9818SOL    HW131388   3.128   7.017   2.319
 9818SOL    HW231389   2.975   6.964   2.294
 9819SOL     OW31390   3.157   7.004   3.053
 9819SOL    HW131391   3.194   6.965   3.137
 9819SOL    HW231392   3.080   6.948   3.022
 9820SOL     OW31393   3.412   6.095   2.397
 9820SOL    HW131394   3.318   6.114   2.425
 9820SOL    HW231395   3.459   6.180   2.375
 9821SOL     OW31396   2.211   7.118   3.159
 9821SOL    HW131397   2.202   7.062   3.077
 9821SOL    HW231398   2.307   7.139   3.176
 9822SOL     OW31399   2.337   6.288   3.544
 9822SOL    HW131400   2.376   6.338   3.467
 9822SOL    HW231401   2.400   6.217   3.574
 9823SOL     OW31402   3.515   6.377   3.560
 9823SOL    HW131403   3.421   6.411   3.552
 9823SOL    HW231404   3.569   6.412   3.484
 9824SOL     OW31405   2.835   5.740   3.661
 9824SOL    HW131406   2.900   5.814   3.642
 9824SOL    HW231407   2.872   5.654   3.628
 9825SOL     OW31408   2.351   5.634   3.627
 9825SOL    HW131409   2.301   5.584   3.557
 9825SOL    HW231410   2.302   5.719   3.649
 9826SOL     OW31411   2.477   6.463   2.941
 9826SOL    HW131412   2.504   6.558   2.929
 9826SOL    HW231413   2.412   6.455   3.016
 9827SOL     OW31414   3.152   6.457   2.885
 9827SOL    HW131415   3.064   6.423   2.852
 9827SOL    HW231416   3.222   6.441   2.816
 9828SOL     OW31417   3.125   6.109   2.099
 9828SOL    HW131418   3.105   6.049   2.176
 9828SOL    HW231419   3.119   6.205   2.129
 9829SOL     OW31420   2.143   5.766   3.088
 9829SOL    HW131421   2.118   5.797   3.180
 9829SOL    HW231422   2.124   5.668   3.081
 9830SOL     OW31423   1.941   6.870   3.137
 9830SOL    HW131424   1.956   6.819   3.221
 9830SOL    HW231425   1.929   6.967   3.157
 9831SOL     OW31426   2.544   6.198   2.891
 9831SOL    HW131427   2.631   6.190   2.844
 9831SOL    HW231428   2.519   6.294   2.901
 9832SOL     OW31429   3.626   6.581   3.720
 9832SOL    HW131430   3.592   6.498   3.675
 9832SOL    HW231431   3.572   6.597   3.803
 9833SOL     OW31432   2.153   5.633   2.511
 9833SOL    HW131433   2.112   5.723   2.528
 9833SOL    HW231434   2.173   5.589   2.599
 9834SOL     OW31435   2.886   6.382   2.821
 9834SOL    HW131436   2.852   6.409   2.911
 9834SOL    HW231437   2.850   6.291   2.798
 9835SOL     OW31438   2.853   7.101   3.655
 9835SOL    HW131439   2.812   7.166   3.591
 9835SOL    HW231440   2.882   7.019   3.605
 9836SOL     OW31441   3.673   7.119   3.442
 9836SOL    HW131442   3.699   7.126   3.346
 9836SOL    HW231443   3.756   7.124   3.499
 9837SOL     OW31444   2.233   6.495   3.696
 9837SOL    HW131445   2.304   6.523   3.760
 9837SOL    HW231446   2.266   6.417   3.642
 9838SOL     OW31447   3.150   6.464   1.859
 9838SOL    HW131448   3.195   6.376   1.873
 9838SOL    HW231449   3.182   6.505   1.774
 9839SOL     OW31450   2.951   6.974   2.761
 9839SOL    HW131451   2.963   6.895   2.701
 9839SOL    HW231452   3.013   7.047   2.734
 9840SOL     OW31453   2.221   6.396   2.806
 9840SOL    HW131454   2.314   6.419   2.833
 9840SOL    HW231455   2.203   6.300   2.824
 9841SOL     OW31456   2.184   6.123   2.847
 9841SOL    HW131457   2.124   6.044   2.854
 9841SOL    HW231458   2.262   6.102   2.788
 9842SOL     OW31459   2.978   5.956   3.565
 9842SOL    HW131460   2.931   6.003   3.639
 9842SOL    HW231461   3.066   6.000   3.548
 9843SOL     OW31462   2.967   5.792   3.342
 9843SOL    HW131463   2.964   5.847   3.425
 9843SOL    HW231464   3.017   5.842   3.271
 9844SOL     OW31465   1.897   6.832   2.073
 9844SOL    HW131466   1.806   6.872   2.065
 9844SOL    HW231467   1.889   6.738   2.107
 9845SOL     OW31468   1.988   7.331   2.838
 9845SOL    HW131469   1.930   7.265   2.791
 9845SOL    HW231470   2.062   7.360   2.778
 9846SOL     OW31471   2.340   7.136   2.739
 9846SOL    HW131472   2.428   7.169   2.773
 9846SOL    HW231473   2.356   7.080   2.657
 9847SOL     OW31474   2.749   6.445   3.048
 9847SOL    HW131475   2.784   6.379   3.115
 9847SOL    HW231476   2.653   6.427   3.031
 9848SOL     OW31477   1.880   6.197   2.965
 9848SOL    HW131478   1.954   6.196   2.898
 9848SOL    HW231479   1.918   6.180   3.056
 9849SOL     OW31480   2.072   6.221   3.577
 9849SOL    HW131481   2.170   6.238   3.564
 9849SOL    HW231482   2.020   6.278   3.514
 9850SOL     OW31483   3.273   6.494   3.500
 9850SOL    HW131484   3.299   6.591   3.501
 9850SOL    HW231485   3.258   6.465   3.406
 9851SOL     OW31486   2.074   7.129   3.587
 9851SOL    HW131487   2.046   7.203   3.648
 9851SOL    HW231488   2.085   7.045   3.640
 9852SOL     OW31489   2.570   5.999   3.087
 9852SOL    HW131490   2.512   5.918   3.079
 9852SOL    HW231491   2.542   6.068   3.020
 9853SOL     OW31492   2.742   7.287   3.452
 9853SOL    HW131493   2.675   7.312   3.382
 9853SOL    HW231494   2.832   7.322   3.425
 9854SOL     OW31495   2.181   5.984   2.124
 9854SOL    HW131496   2.267   6.034   2.125
 9854SOL    HW231497   2.106   6.047   2.107
 9855SOL     OW31498   1.997   6.724   3.366
 9855SOL    HW131499   2.006   6.696   3.461
 9855SOL    HW231500   2.030   6.651   3.306
 9856SOL     OW31501   3.116   6.627   3.088
 9856SOL    HW131502   3.136   6.564   3.013
 9856SOL    HW231503   3.053   6.698   3.057
 9857SOL     OW31504   3.088   6.376   2.130
 9857SOL    HW131505   2.992   6.349   2.135
 9857SOL    HW231506   3.103   6.433   2.049
 9858SOL     OW31507   3.555   7.324   2.982
 9858SOL    HW131508   3.638   7.342   2.929
 9858SOL    HW231509   3.540   7.226   2.990
 9859SOL     OW31510   3.164   7.277   3.058
 9859SOL    HW131511   3.211   7.308   2.976
 9859SOL    HW231512   3.158   7.177   3.058
 9860SOL     OW31513   2.004   6.779   2.892
 9860SOL    HW131514   1.977   6.814   2.982
 9860SOL    HW231515   1.929   6.724   2.854
 9861SOL     OW31516   2.550   7.290   3.639
 9861SOL    HW131517   2.485   7.364   3.625
 9861SOL    HW231518   2.624   7.298   3.573
 9862SOL     OW31519   3.644   5.694   2.402
 9862SOL    HW131520   3.689   5.635   2.336
 9862SOL    HW231521   3.555   5.655   2.427
 9863SOL     OW31522   3.227   7.152   2.377
 9863SOL    HW131523   3.294   7.176   2.306
 9863SOL    HW231524   3.174   7.233   2.401
 9864SOL     OW31525   1.981   7.345   3.728
 9864SOL    HW131526   1.923   7.300   3.796
 9864SOL    HW231527   2.034   7.418   3.772
 9865SOL     OW31528   3.176   6.581   2.564
 9865SOL    HW131529   3.243   6.513   2.591
 9865SOL    HW231530   3.206   6.627   2.480
 9866SOL     OW31531   2.578   6.850   3.311
 9866SOL    HW131532   2.560   6.913   3.387
 9866SOL    HW231533   2.505   6.858   3.243
 9867SOL     OW31534   2.488   7.224   1.989
 9867SOL    HW131535   2.486   7.240   1.890
 9867SOL    HW231536   2.453   7.133   2.009
 9868SOL     OW31537   3.711   5.728   2.903
 9868SOL    HW131538   3.740   5.647   2.852
 9868SOL    HW231539   3.619   5.755   2.873
 9869SOL     OW31540   2.050   5.878   2.580
 9869SOL    HW131541   1.963   5.922   2.559
 9869SOL    HW231542   2.066   5.884   2.679
 9870SOL     OW31543   3.094   7.125   1.966
 9870SOL    HW131544   3.084   7.029   1.992
 9870SOL    HW231545   3.024   7.148   1.898
 9871SOL     OW31546   2.669   6.591   3.288
 9871SOL    HW131547   2.705   6.583   3.195
 9871SOL    HW231548   2.634   6.684   3.302
 9872SOL     OW31549   3.328   7.254   1.936
 9872SOL    HW131550   3.240   7.207   1.928
 9872SOL    HW231551   3.376   7.250   1.849
 9873SOL     OW31552   2.218   6.900   3.355
 9873SOL    HW131553   2.207   6.978   3.292
 9873SOL    HW231554   2.135   6.844   3.353
 9874SOL     OW31555   3.473   6.856   3.145
 9874SOL    HW131556   3.531   6.858   3.226
 9874SOL    HW231557   3.377   6.849   3.172
 9875SOL     OW31558   2.964   6.745   2.629
 9875SOL    HW131559   2.884   6.692   2.657
 9875SOL    HW231560   3.036   6.683   2.598
 9876SOL     OW31561   2.150   6.907   2.159
 9876SOL    HW131562   2.057   6.890   2.125
 9876SOL    HW231563   2.147   6.966   2.239
 9877SOL     OW31564   2.012   6.642   3.624
 9877SOL    HW131565   1.928   6.614   3.670
 9877SOL    HW231566   2.087   6.582   3.652
 9878SOL     OW31567   2.531   5.780   3.362
 9878SOL    HW131568   2.616   5.756   3.315
 9878SOL    HW231569   2.551   5.808   3.456
 9879SOL     OW31570   1.923   5.925   1.863
 9879SOL    HW131571   1.842   5.936   1.805
 9879SOL    HW231572   1.986   6.000   1.847
 9880SOL     OW31573   3.250   6.434   3.233
 9880SOL    HW131574   3.192   6.499   3.185
 9880SOL    HW231575   3.338   6.426   3.185
 9881SOL     OW31576   1.899   5.771   2.108
 9881SOL    HW131577   1.872   5.824   2.028
 9881SOL    HW231578   1.999   5.770   2.115
 9882SOL     OW31579   3.024   6.865   2.022
 9882SOL    HW131580   2.929   6.837   2.026
 9882SOL    HW231581   3.060   6.874   2.115
 9883SOL     OW31582   2.490   6.390   3.338
 9883SOL    HW131583   2.551   6.469   3.332
 9883SOL    HW231584   2.544   6.306   3.333
 9884SOL     OW31585   3.317   7.331   2.833
 9884SOL    HW131586   3.340   7.357   2.740
 9884SOL    HW231587   3.399   7.335   2.890
 9885SOL     OW31588   2.555   6.123   3.586
 9885SOL    HW131589   2.613   6.180   3.645
 9885SOL    HW231590   2.571   6.027   3.607
 9886SOL     OW31591   3.349   6.757   3.489
 9886SOL    HW131592   3.339   6.773   3.587
 9886SOL    HW231593   3.439   6.791   3.459
 9887SOL     OW31594   2.223   7.335   3.460
 9887SOL    HW131595   2.138   7.383   3.438
 9887SOL    HW231596   2.201   7.244   3.495
 9888SOL     OW31597   3.516   6.431   3.098
 9888SOL    HW131598   3.606   6.397   3.072
 9888SOL    HW231599   3.493   6.511   3.043
 9889SOL     OW31600   3.061   5.962   2.325
 9889SOL    HW131601   3.120   5.881   2.326
 9889SOL    HW231602   3.090   6.025   2.396
 9890SOL     OW31603   2.488   6.205   2.479
 9890SOL    HW131604   2.537   6.280   2.435
 9890SOL    HW231605   2.391   6.210   2.454
 9891SOL     OW31606   3.646   6.480   3.347
 9891SOL    HW131607   3.693   6.568   3.344
 9891SOL    HW231608   3.597   6.465   3.262
 9892SOL     OW31609   2.689   6.984   1.835
 9892SOL    HW131610   2.711   6.928   1.915
 9892SOL    HW231611   2.744   7.067   1.836
 9893SOL     OW31612   2.584   7.230   2.816
 9893SOL    HW131613   2.589   7.289   2.897
 9893SOL    HW231614   2.663   7.248   2.758
 9894SOL     OW31615   2.750   6.609   2.742
 9894SOL    HW131616   2.800   6.527   2.769
 9894SOL    HW231617   2.696   6.642   2.819
 9895SOL     OW31618   2.882   6.490   1.883
 9895SOL    HW131619   2.849   6.575   1.841
 9895SOL    HW231620   2.981   6.486   1.876
 9896SOL     OW31621   3.644   7.124   2.723
 9896SOL    HW131622   3.572   7.110   2.654
 9896SOL    HW231623   3.614   7.085   2.810
 9897SOL     OW31624   2.073   6.889   3.722
 9897SOL    HW131625   2.052   6.800   3.681
 9897SOL    HW231626   2.012   6.905   3.799
 9898SOL     OW31627   2.035   6.801   2.515
 9898SOL    HW131628   2.071   6.757   2.597
 9898SOL    HW231629   2.075   6.758   2.434
 9899SOL     OW31630   2.523   7.031   3.509
 9899SOL    HW131631   2.451   6.979   3.554
 9899SOL    HW231632   2.537   7.117   3.556
 9900SOL     OW31633   3.673   5.633   3.181
 9900SOL    HW131634   3.680   5.546   3.132
 9900SOL    HW231635   3.690   5.708   3.117
 9901SOL     OW31636   2.241   5.938   2.391
 9901SOL    HW131637   2.207   5.933   2.298
 9901SOL    HW231638   2.169   5.911   2.455
 9902SOL     OW31639   3.518   7.055   2.960
 9902SOL    HW131640   3.436   7.041   2.903
 9902SOL    HW231641   3.522   6.985   3.031
 9903SOL     OW31642   2.231   6.144   3.126
 9903SOL    HW131643   2.273   6.071   3.179
 9903SOL    HW231644   2.228   6.118   3.029
 9904SOL     OW31645   2.640   7.102   2.486
 9904SOL    HW131646   2.616   7.186   2.436
 9904SOL    HW231647   2.558   7.049   2.503
 9905SOL     OW31648   3.204   5.833   2.955
 9905SOL    HW131649   3.185   5.735   2.967
 9905SOL    HW231650   3.169   5.884   3.033
 9906SOL     OW31651   2.747   6.836   2.066
 9906SOL    HW131652   2.687   6.760   2.090
 9906SOL    HW231653   2.763   6.893   2.147
 9907SOL     OW31654   2.488   7.162   3.162
 9907SOL    HW131655   2.481   7.237   3.228
 9907SOL    HW231656   2.583   7.154   3.132
 9908SOL     OW31657   3.224   5.619   2.088
 9908SOL    HW131658   3.285   5.568   2.028
 9908SOL    HW231659   3.150   5.560   2.120
 9909SOL     OW31660   3.165   6.128   2.518
 9909SOL    HW131661   3.111   6.212   2.525
 9909SOL    HW231662   3.171   6.086   2.609
 9910SOL     OW31663   3.453   5.790   2.831
 9910SOL    HW131664   3.367   5.811   2.877
 9910SOL    HW231665   3.467   5.855   2.755
 9911SOL     OW31666   1.904   6.582   2.196
 9911SOL    HW131667   1.996   6.561   2.164
 9911SOL    HW231668   1.854   6.497   2.215
 9912SOL     OW31669   2.714   7.230   2.147
 9912SOL    HW131670   2.646   7.223   2.073
 9912SOL    HW231671   2.670   7.269   2.228
 9913SOL     OW31672   2.063   6.203   3.855
 9913SOL    HW131673   1.970   6.186   3.887
 9913SOL    HW231674   2.061   6.221   3.757
 9914SOL     OW31675   2.064   5.901   4.732
 9914SOL    HW131676   2.087   5.895   4.829
 9914SOL    HW231677   1.986   5.842   4.712
 9915SOL     OW31678   1.865   6.015   4.363
 9915SOL    HW131679   1.781   6.033   4.414
 9915SOL    HW231680   1.846   5.948   4.291
 9916SOL     OW31681   2.392   6.924   4.998
 9916SOL    HW131682   2.324   6.924   4.926
 9916SOL    HW231683   2.414   7.019   5.023
 9917SOL     OW31684   3.455   7.107   4.430
 9917SOL    HW131685   3.413   7.057   4.506
 9917SOL    HW231686   3.386   7.126   4.360
 9918SOL     OW31687   2.965   6.334   4.392
 9918SOL    HW131688   3.023   6.413   4.374
 9918SOL    HW231689   2.923   6.344   4.483
 9919SOL     OW31690   3.648   6.153   3.887
 9919SOL    HW131691   3.616   6.149   3.792
 9919SOL    HW231692   3.592   6.093   3.944
 9920SOL     OW31693   2.532   6.748   4.808
 9920SOL    HW131694   2.482   6.789   4.884
 9920SOL    HW231695   2.582   6.820   4.760
 9921SOL     OW31696   2.796   6.313   5.562
 9921SOL    HW131697   2.810   6.379   5.636
 9921SOL    HW231698   2.793   6.361   5.475
 9922SOL     OW31699   2.564   6.555   4.362
 9922SOL    HW131700   2.629   6.565   4.437
 9922SOL    HW231701   2.487   6.617   4.375
 9923SOL     OW31702   2.593   6.738   5.580
 9923SOL    HW131703   2.649   6.809   5.623
 9923SOL    HW231704   2.508   6.778   5.545
 9924SOL     OW31705   2.210   6.974   4.799
 9924SOL    HW131706   2.135   6.911   4.781
 9924SOL    HW231707   2.238   7.018   4.714
 9925SOL     OW31708   3.312   7.084   5.113
 9925SOL    HW131709   3.369   7.165   5.131
 9925SOL    HW231710   3.228   7.090   5.167
 9926SOL     OW31711   3.469   6.047   4.467
 9926SOL    HW131712   3.454   6.083   4.375
 9926SOL    HW231713   3.426   6.107   4.534
 9927SOL     OW31714   2.997   6.912   5.440
 9927SOL    HW131715   3.060   6.901   5.516
 9927SOL    HW231716   2.939   6.831   5.433
 9928SOL     OW31717   2.076   7.088   4.290
 9928SOL    HW131718   2.098   7.163   4.353
 9928SOL    HW231719   2.053   7.006   4.342
 9929SOL     OW31720   2.155   6.685   4.580
 9929SOL    HW131721   2.159   6.586   4.593
 9929SOL    HW231722   2.108   6.727   4.658
 9930SOL     OW31723   2.424   7.451   5.150
 9930SOL    HW131724   2.343   7.407   5.190
 9930SOL    HW231725   2.449   7.531   5.205
 9931SOL     OW31726   2.424   6.581   3.892
 9931SOL    HW131727   2.465   6.629   3.815
 9931SOL    HW231728   2.478   6.598   3.974
 9932SOL     OW31729   3.521   5.696   5.249
 9932SOL    HW131730   3.565   5.772   5.200
 9932SOL    HW231731   3.466   5.732   5.324
 9933SOL     OW31732   1.966   6.277   4.303
 9933SOL    HW131733   1.936   6.184   4.324
 9933SOL    HW231734   1.948   6.336   4.381
 9934SOL     OW31735   3.732   7.299   4.076
 9934SOL    HW131736   3.815   7.296   4.132
 9934SOL    HW231737   3.722   7.391   4.037
 9935SOL     OW31738   1.853   7.212   3.935
 9935SOL    HW131739   1.867   7.114   3.942
 9935SOL    HW231740   1.875   7.255   4.023
 9936SOL     OW31741   3.569   6.529   4.401
 9936SOL    HW131742   3.658   6.484   4.397
 9936SOL    HW231743   3.558   6.588   4.321
 9937SOL     OW31744   3.551   6.701   4.182
 9937SOL    HW131745   3.631   6.665   4.134
 9937SOL    HW231746   3.577   6.784   4.233
 9938SOL     OW31747   1.996   6.298   5.291
 9938SOL    HW131748   2.077   6.345   5.326
 9938SOL    HW231749   1.925   6.365   5.270
 9939SOL     OW31750   2.480   6.953   4.477
 9939SOL    HW131751   2.439   6.864   4.458
 9939SOL    HW231752   2.501   6.999   4.390
 9940SOL     OW31753   3.096   6.789   5.154
 9940SOL    HW131754   3.119   6.724   5.081
 9940SOL    HW231755   3.167   6.786   5.224
 9941SOL     OW31756   2.685   5.586   4.191
 9941SOL    HW131757   2.740   5.670   4.185
 9941SOL    HW231758   2.590   5.610   4.208
 9942SOL     OW31759   2.054   6.517   5.039
 9942SOL    HW131760   2.148   6.483   5.028
 9942SOL    HW231761   1.997   6.482   4.966
 9943SOL     OW31762   3.447   6.625   3.934
 9943SOL    HW131763   3.377   6.556   3.953
 9943SOL    HW231764   3.481   6.661   4.020
 9944SOL     OW31765   2.957   7.374   5.250
 9944SOL    HW131766   2.993   7.451   5.197
 9944SOL    HW231767   3.018   7.296   5.241
 9945SOL     OW31768   2.236   5.845   5.624
 9945SOL    HW131769   2.275   5.928   5.664
 9945SOL    HW231770   2.138   5.857   5.611
 9946SOL     OW31771   3.357   6.966   4.642
 9946SOL    HW131772   3.295   7.001   4.712
 9946SOL    HW231773   3.331   6.873   4.617
 9947SOL     OW31774   3.487   7.426   4.279
 9947SOL    HW131775   3.484   7.361   4.202
 9947SOL    HW231776   3.489   7.375   4.365
 9948SOL     OW31777   2.421   6.288   4.018
 9948SOL    HW131778   2.425   6.378   3.975
 9948SOL    HW231779   2.354   6.289   4.092
 9949SOL     OW31780   3.133   6.017   4.659
 9949SOL    HW131781   3.038   5.987   4.656
 9949SOL    HW231782   3.186   5.954   4.716
 9950SOL     OW31783   3.463   7.247   4.069
 9950SOL    HW131784   3.563   7.248   4.069
 9950SOL    HW231785   3.431   7.225   3.977
 9951SOL     OW31786   2.597   6.179   5.193
 9951SOL    HW131787   2.603   6.155   5.290
 9951SOL    HW231788   2.559   6.103   5.142
 9952SOL     OW31789   3.229   6.056   5.378
 9952SOL    HW131790   3.229   6.110   5.462
 9952SOL    HW231791   3.297   5.984   5.384
 9953SOL     OW31792   2.799   6.458   5.323
 9953SOL    HW131793   2.841   6.390   5.263
 9953SOL    HW231794   2.735   6.514   5.269
 9954SOL     OW31795   2.864   6.293   4.139
 9954SOL    HW131796   2.894   6.304   4.233
 9954SOL    HW231797   2.780   6.238   4.137
 9955SOL     OW31798   1.918   6.455   4.514
 9955SOL    HW131799   2.009   6.438   4.552
 9955SOL    HW231800   1.875   6.531   4.562
 9956SOL     OW31801   1.966   7.448   5.326
 9956SOL    HW131802   1.976   7.417   5.421
 9956SOL    HW231803   1.869   7.461   5.306
 9957SOL     OW31804   2.693   5.917   3.948
 9957SOL    HW131805   2.752   5.959   3.879
 9957SOL    HW231806   2.637   5.846   3.904
 9958SOL     OW31807   3.509   6.173   5.559
 9958SOL    HW131808   3.499   6.258   5.508
 9958SOL    HW231809   3.550   6.103   5.500
 9959SOL     OW31810   3.284   6.758   4.305
 9959SOL    HW131811   3.372   6.748   4.257
 9959SOL    HW231812   3.229   6.827   4.258
 9960SOL     OW31813   2.402   5.685   4.683
 9960SOL    HW131814   2.374   5.695   4.779
 9960SOL    HW231815   2.411   5.775   4.641
 9961SOL     OW31816   2.866   7.048   4.198
 9961SOL    HW131817   2.848   7.122   4.133
 9961SOL    HW231818   2.840   7.077   4.290
 9962SOL     OW31819   3.658   6.627   4.645
 9962SOL    HW131820   3.613   6.613   4.557
 9962SOL    HW231821   3.590   6.640   4.717
 9963SOL     OW31822   3.058   7.100   5.232
 9963SOL    HW131823   3.054   7.040   5.312
 9963SOL    HW231824   2.998   7.064   5.161
 9964SOL     OW31825   2.163   6.564   3.993
 9964SOL    HW131826   2.253   6.580   3.953
 9964SOL    HW231827   2.129   6.475   3.963
 9965SOL     OW31828   3.343   6.378   4.420
 9965SOL    HW131829   3.336   6.326   4.505
 9965SOL    HW231830   3.425   6.434   4.422
 9966SOL     OW31831   2.350   6.846   5.483
 9966SOL    HW131832   2.324   6.825   5.389
 9966SOL    HW231833   2.268   6.854   5.540
 9967SOL     OW31834   3.032   7.325   3.947
 9967SOL    HW131835   2.941   7.313   3.988
 9967SOL    HW231836   3.055   7.243   3.893
 9968SOL     OW31837   1.974   5.859   5.246
 9968SOL    HW131838   1.882   5.895   5.265
 9968SOL    HW231839   1.975   5.761   5.265
 9969SOL     OW31840   3.519   6.959   3.832
 9969SOL    HW131841   3.476   7.049   3.831
 9969SOL    HW231842   3.454   6.891   3.798
 9970SOL     OW31843   2.463   7.322   4.156
 9970SOL    HW131844   2.464   7.418   4.185
 9970SOL    HW231845   2.484   7.316   4.059
 9971SOL     OW31846   3.261   5.758   4.117
 9971SOL    HW131847   3.249   5.717   4.026
 9971SOL    HW231848   3.330   5.707   4.168
 9972SOL     OW31849   2.000   7.378   4.878
 9972SOL    HW131850   2.067   7.310   4.908
 9972SOL    HW231851   1.994   7.378   4.778
 9973SOL     OW31852   2.813   7.298   4.606
 9973SOL    HW131853   2.902   7.252   4.608
 9973SOL    HW231854   2.759   7.264   4.529
 9974SOL     OW31855   2.239   6.261   4.224
 9974SOL    HW131856   2.249   6.161   4.231
 9974SOL    HW231857   2.144   6.286   4.242
 9975SOL     OW31858   3.369   5.818   5.451
 9975SOL    HW131859   3.383   5.830   5.549
 9975SOL    HW231860   3.288   5.760   5.436
 9976SOL     OW31861   2.513   5.701   3.845
 9976SOL    HW131862   2.580   5.629   3.866
 9976SOL    HW231863   2.448   5.666   3.778
 9977SOL     OW31864   2.651   5.836   5.460
 9977SOL    HW131865   2.733   5.778   5.470
 9977SOL    HW231866   2.584   5.810   5.528
 9978SOL     OW31867   2.681   7.095   4.935
 9978SOL    HW131868   2.671   7.059   4.842
 9978SOL    HW231869   2.757   7.050   4.981
 9979SOL     OW31870   3.114   6.168   5.154
 9979SOL    HW131871   3.159   6.135   5.237
 9979SOL    HW231872   3.148   6.260   5.132
 9980SOL     OW31873   2.659   6.961   4.687
 9980SOL    HW131874   2.754   6.965   4.655
 9980SOL    HW231875   2.598   6.964   4.608
 9981SOL     OW31876   2.814   6.132   4.597
 9981SOL    HW131877   2.785   6.119   4.502
 9981SOL    HW231878   2.823   6.043   4.642
 9982SOL     OW31879   2.422   5.654   4.220
 9982SOL    HW131880   2.349   5.647   4.288
 9982SOL    HW231881   2.408   5.735   4.163
 9983SOL     OW31882   3.316   6.783   3.758
 9983SOL    HW131883   3.366   6.717   3.813
 9983SOL    HW231884   3.236   6.815   3.808
 9984SOL     OW31885   2.142   5.647   3.888
 9984SOL    HW131886   2.184   5.725   3.840
 9984SOL    HW231887   2.213   5.594   3.934
 9985SOL     OW31888   2.816   5.829   4.182
 9985SOL    HW131889   2.768   5.861   4.100
 9985SOL    HW231890   2.911   5.859   4.179
 9986SOL     OW31891   2.855   6.274   5.129
 9986SOL    HW131892   2.774   6.220   5.154
 9986SOL    HW231893   2.937   6.218   5.138
 9987SOL     OW31894   3.056   7.188   4.532
 9987SOL    HW131895   3.072   7.239   4.447
 9987SOL    HW231896   3.119   7.219   4.603
 9988SOL     OW31897   2.354   6.724   4.400
 9988SOL    HW131898   2.288   6.707   4.473
 9988SOL    HW231899   2.306   6.738   4.314
 9989SOL     OW31900   3.104   7.386   4.336
 9989SOL    HW131901   3.152   7.448   4.274
 9989SOL    HW231902   3.040   7.438   4.392
 9990SOL     OW31903   2.852   6.073   3.778
 9990SOL    HW131904   2.806   6.159   3.755
 9990SOL    HW231905   2.917   6.090   3.852
 9991SOL     OW31906   1.980   6.142   5.069
 9991SOL    HW131907   2.074   6.118   5.046
 9991SOL    HW231908   1.979   6.197   5.152
 9992SOL     OW31909   2.320   5.695   4.938
 9992SOL    HW131910   2.358   5.643   5.015
 9992SOL    HW231911   2.268   5.773   4.973
 9993SOL     OW31912   2.735   6.061   4.349
 9993SOL    HW131913   2.682   6.102   4.275
 9993SOL    HW231914   2.769   5.971   4.321
 9994SOL     OW31915   2.822   5.753   4.454
 9994SOL    HW131916   2.823   5.766   4.355
 9994SOL    HW231917   2.811   5.656   4.475
 9995SOL     OW31918   3.293   6.705   4.591
 9995SOL    HW131919   3.235   6.627   4.615
 9995SOL    HW231920   3.291   6.719   4.492
 9996SOL     OW31921   3.311   6.231   4.650
 9996SOL    HW131922   3.242   6.159   4.657
 9996SOL    HW231923   3.375   6.224   4.726
 9997SOL     OW31924   3.660   6.331   4.095
 9997SOL    HW131925   3.728   6.299   4.161
 9997SOL    HW231926   3.663   6.274   4.014
 9998SOL     OW31927   2.378   7.058   3.940
 9998SOL    HW131928   2.287   7.038   3.977
 9998SOL    HW231929   2.408   6.982   3.883
 9999SOL     OW31930   3.626   6.906   4.332
 9999SOL    HW131931   3.721   6.907   4.363
 9999SOL    HW231932   3.578   6.986   4.367
10000SOL     OW31933   3.199   6.140   3.785
10000SOL    HW131934   3.133   6.142   3.859
10000SOL    HW231935   3.261   6.062   3.798
10001SOL     OW31936   2.373   5.847   4.037
10001SOL    HW131937   2.424   5.795   3.969
10001SOL    HW231938   2.340   5.932   3.995
10002SOL     OW31939   3.608   6.801   5.257
10002SOL    HW131940   3.699   6.759   5.251
10002SOL    HW231941   3.617   6.894   5.294
10003SOL     OW31942   2.876   6.935   5.081
10003SOL    HW131943   2.788   6.903   5.116
10003SOL    HW231944   2.950   6.877   5.116
10004SOL     OW31945   3.473   7.203   5.415
10004SOL    HW131946   3.457   7.250   5.328
10004SOL    HW231947   3.551   7.141   5.405
10005SOL     OW31948   3.010   6.869   4.847
10005SOL    HW131949   2.948   6.895   4.920
10005SOL    HW231950   2.972   6.897   4.759
10006SOL     OW31951   3.454   6.675   4.822
10006SOL    HW131952   3.451   6.749   4.889
10006SOL    HW231953   3.390   6.695   4.748
10007SOL     OW31954   2.814   5.644   5.108
10007SOL    HW131955   2.828   5.646   5.009
10007SOL    HW231956   2.895   5.681   5.154
10008SOL     OW31957   2.840   6.684   5.470
10008SOL    HW131958   2.747   6.704   5.500
10008SOL    HW231959   2.840   6.602   5.413
10009SOL     OW31960   2.607   6.622   4.095
10009SOL    HW131961   2.597   6.590   4.189
10009SOL    HW231962   2.672   6.563   4.046
10010SOL     OW31963   2.299   6.403   5.002
10010SOL    HW131964   2.356   6.417   5.083
10010SOL    HW231965   2.278   6.305   4.994
10011SOL     OW31966   3.074   5.928   5.024
10011SOL    HW131967   3.099   6.016   5.066
10011SOL    HW231968   2.981   5.933   4.990
10012SOL     OW31969   1.923   7.135   5.083
10012SOL    HW131970   1.857   7.195   5.039
10012SOL    HW231971   2.016   7.159   5.054
10013SOL     OW31972   2.193   6.760   4.181
10013SOL    HW131973   2.186   6.844   4.127
10013SOL    HW231974   2.183   6.681   4.121
10014SOL     OW31975   2.409   6.140   4.623
10014SOL    HW131976   2.417   6.183   4.533
10014SOL    HW231977   2.477   6.179   4.685
10015SOL     OW31978   3.123   6.945   4.171
10015SOL    HW131979   3.181   7.024   4.194
10015SOL    HW231980   3.027   6.969   4.186
10016SOL     OW31981   3.217   7.045   4.861
10016SOL    HW131982   3.252   7.057   4.954
10016SOL    HW231983   3.143   6.978   4.861
10017SOL     OW31984   3.451   6.204   4.233
10017SOL    HW131985   3.393   6.266   4.286
10017SOL    HW231986   3.518   6.258   4.182
10018SOL     OW31987   2.170   7.185   4.964
10018SOL    HW131988   2.175   7.105   4.905
10018SOL    HW231989   2.260   7.204   5.004
10019SOL     OW31990   2.255   6.365   5.398
10019SOL    HW131991   2.326   6.395   5.334
10019SOL    HW231992   2.277   6.273   5.431
10020SOL     OW31993   3.472   6.404   5.425
10020SOL    HW131994   3.375   6.429   5.417
10020SOL    HW231995   3.521   6.437   5.344
10021SOL     OW31996   2.868   5.678   5.497
10021SOL    HW131997   2.929   5.757   5.493
10021SOL    HW231998   2.917   5.595   5.471
10022SOL     OW31999   2.388   5.644   5.517
10022SOL    HW132000   2.330   5.581   5.464
10022SOL    HW232001   2.334   5.724   5.542
10023SOL     OW32002   2.401   6.505   4.769
10023SOL    HW132003   2.443   6.596   4.777
10023SOL    HW232004   2.362   6.478   4.857
10024SOL     OW32005   3.159   6.473   4.694
10024SOL    HW132006   3.064   6.446   4.680
10024SOL    HW232007   3.218   6.393   4.681
10025SOL     OW32008   3.017   6.129   3.987
10025SOL    HW132009   3.042   6.052   4.046
10025SOL    HW232010   2.967   6.197   4.040
10026SOL     OW32011   2.100   5.852   5.002
10026SOL    HW132012   2.062   5.877   5.091
10026SOL    HW232013   2.071   5.759   4.978
10027SOL     OW32014   1.952   6.868   5.021
10027SOL    HW132015   1.950   6.808   5.101
10027SOL    HW232016   1.935   6.963   5.050
10028SOL     OW32017   2.589   6.311   4.744
10028SOL    HW132018   2.631   6.304   4.653
10028SOL    HW232019   2.519   6.383   4.742
10029SOL     OW32020   3.623   6.549   5.604
10029SOL    HW132021   3.572   6.491   5.541
10029SOL    HW232022   3.566   6.570   5.684
10030SOL     OW32023   2.194   5.640   4.378
10030SOL    HW132024   2.153   5.728   4.400
10030SOL    HW232025   2.199   5.584   4.460
10031SOL     OW32026   3.492   6.001   4.049
10031SOL    HW132027   3.537   5.926   4.099
10031SOL    HW232028   3.459   6.068   4.115
10032SOL     OW32029   2.893   6.379   4.678
10032SOL    HW132030   2.866   6.401   4.771
10032SOL    HW232031   2.870   6.284   4.658
10033SOL     OW32032   2.848   7.127   5.518
10033SOL    HW132033   2.794   7.175   5.448
10033SOL    HW232034   2.890   7.046   5.477
10034SOL     OW32035   3.694   7.054   5.329
10034SOL    HW132036   3.717   7.085   5.236
10034SOL    HW232037   3.773   7.068   5.388
10035SOL     OW32038   2.229   6.518   5.628
10035SOL    HW132039   2.319   6.535   5.667
10035SOL    HW232040   2.238   6.461   5.547
10036SOL     OW32041   3.340   5.914   3.834
10036SOL    HW132042   3.304   5.821   3.842
10036SOL    HW232043   3.392   5.936   3.916
10037SOL     OW32044   3.149   6.408   3.731
10037SOL    HW132045   3.167   6.311   3.742
10037SOL    HW232046   3.192   6.440   3.647
10038SOL     OW32047   2.920   6.957   4.605
10038SOL    HW132048   2.936   6.877   4.547
10038SOL    HW232049   2.973   7.035   4.570
10039SOL     OW32050   2.174   6.419   4.633
10039SOL    HW132051   2.262   6.450   4.669
10039SOL    HW232052   2.164   6.321   4.649
10040SOL     OW32053   2.159   6.153   4.711
10040SOL    HW132054   2.113   6.064   4.707
10040SOL    HW232055   2.250   6.145   4.670
10041SOL     OW32056   3.011   5.909   5.447
10041SOL    HW132057   2.959   5.961   5.515
10041SOL    HW232058   3.088   5.963   5.415
10042SOL     OW32059   3.040   5.744   5.229
10042SOL    HW132060   3.021   5.803   5.308
10042SOL    HW232061   3.068   5.801   5.151
10043SOL     OW32062   1.887   6.915   3.925
10043SOL    HW132063   1.807   6.938   3.870
10043SOL    HW232064   1.877   6.823   3.963
10044SOL     OW32065   1.952   7.361   4.610
10044SOL    HW132066   1.880   7.293   4.596
10044SOL    HW232067   2.029   7.342   4.549
10045SOL     OW32068   2.329   7.138   4.603
10045SOL    HW132069   2.390   7.184   4.667
10045SOL    HW232070   2.380   7.070   4.551
10046SOL     OW32071   2.769   6.428   4.920
10046SOL    HW132072   2.804   6.376   4.998
10046SOL    HW232073   2.694   6.378   4.877
10047SOL     OW32074   1.939   6.282   4.841
10047SOL    HW132075   2.012   6.254   4.779
10047SOL    HW232076   1.950   6.236   4.929
10048SOL     OW32077   2.019   6.064   5.426
10048SOL    HW132078   2.025   5.993   5.355
10048SOL    HW232079   2.003   6.153   5.383
10049SOL     OW32080   3.224   6.504   5.362
10049SOL    HW132081   3.252   6.600   5.359
10049SOL    HW232082   3.204   6.471   5.269
10050SOL     OW32083   2.639   6.143   4.103
10050SOL    HW132084   2.648   6.061   4.047
10050SOL    HW232085   2.559   6.196   4.074
10051SOL     OW32086   3.487   6.203   4.857
10051SOL    HW132087   3.463   6.128   4.919
10051SOL    HW232088   3.586   6.205   4.842
10052SOL     OW32089   2.111   7.122   5.450
10052SOL    HW132090   2.088   7.201   5.507
10052SOL    HW232091   2.108   7.039   5.506
10053SOL     OW32092   2.725   7.248   5.296
10053SOL    HW132093   2.700   7.189   5.220
10053SOL    HW232094   2.807   7.300   5.273
10054SOL     OW32095   2.294   6.071   3.901
10054SOL    HW132096   2.357   6.141   3.934
10054SOL    HW232097   2.203   6.111   3.888
10055SOL     OW32098   1.969   6.687   5.231
10055SOL    HW132099   1.998   6.667   5.325
10055SOL    HW232100   2.013   6.623   5.168
10056SOL     OW32101   3.122   6.629   4.921
10056SOL    HW132102   3.144   6.572   4.842
10056SOL    HW232103   3.080   6.715   4.890
10057SOL     OW32104   3.245   6.456   3.985
10057SOL    HW132105   3.197   6.401   4.053
10057SOL    HW232106   3.206   6.437   3.894
10058SOL     OW32107   3.622   7.279   4.900
10058SOL    HW132108   3.691   7.316   4.838
10058SOL    HW232109   3.592   7.189   4.867
10059SOL     OW32110   3.220   7.280   4.722
10059SOL    HW132111   3.287   7.348   4.753
10059SOL    HW232112   3.223   7.201   4.783
10060SOL     OW32113   2.002   6.801   4.768
10060SOL    HW132114   1.979   6.821   4.863
10060SOL    HW232115   1.924   6.757   4.723
10061SOL     OW32116   2.526   7.270   5.478
10061SOL    HW132117   2.461   7.345   5.471
10061SOL    HW232118   2.599   7.282   5.410
10062SOL     OW32119   3.630   5.800   4.176
10062SOL    HW132120   3.686   5.772   4.098
10062SOL    HW232121   3.570   5.725   4.203
10063SOL     OW32122   3.264   7.171   4.241
10063SOL    HW132123   3.329   7.201   4.171
10063SOL    HW232124   3.203   7.247   4.266
10064SOL     OW32125   2.023   7.354   5.576
10064SOL    HW132126   1.962   7.287   5.619
10064SOL    HW232127   2.059   7.415   5.647
10065SOL     OW32128   3.135   6.542   4.364
10065SOL    HW132129   3.206   6.474   4.383
10065SOL    HW232130   3.177   6.625   4.327
10066SOL     OW32131   2.621   6.868   5.157
10066SOL    HW132132   2.601   6.913   5.244
10066SOL    HW232133   2.545   6.882   5.093
10067SOL     OW32134   2.548   7.263   3.904
10067SOL    HW132135   2.559   7.271   3.805
10067SOL    HW232136   2.487   7.187   3.925
10068SOL     OW32137   3.480   7.306   5.147
10068SOL    HW132138   3.528   7.298   5.060
10068SOL    HW232139   3.505   7.393   5.191
10069SOL     OW32140   3.698   5.734   4.686
10069SOL    HW132141   3.728   5.642   4.663
10069SOL    HW232142   3.607   5.750   4.648
10070SOL     OW32143   2.092   5.883   4.451
10070SOL    HW132144   2.012   5.932   4.417
10070SOL    HW232145   2.096   5.892   4.551
10071SOL     OW32146   3.093   7.103   3.798
10071SOL    HW132147   3.095   7.013   3.840
10071SOL    HW232148   3.010   7.113   3.743
10072SOL     OW32149   2.651   6.594   5.138
10072SOL    HW132150   2.692   6.569   5.050
10072SOL    HW232151   2.643   6.694   5.144
10073SOL     OW32152   2.782   6.466   3.947
10073SOL    HW132153   2.857   6.524   3.914
10073SOL    HW232154   2.817   6.404   4.017
10074SOL     OW32155   3.361   7.195   3.812
10074SOL    HW132156   3.266   7.163   3.806
10074SOL    HW232157   3.399   7.204   3.720
10075SOL     OW32158   2.266   6.813   5.227
10075SOL    HW132159   2.311   6.849   5.145
10075SOL    HW232160   2.171   6.792   5.206
10076SOL     OW32161   3.469   6.873   5.022
10076SOL    HW132162   3.527   6.841   5.097
10076SOL    HW232163   3.406   6.942   5.057
10077SOL     OW32164   2.943   6.721   4.474
10077SOL    HW132165   2.860   6.672   4.502
10077SOL    HW232166   3.006   6.656   4.432
10078SOL     OW32167   2.881   5.853   4.694
10078SOL    HW132168   2.862   5.831   4.598
10078SOL    HW232169   2.882   5.769   4.748
10079SOL     OW32170   2.523   7.072   4.241
10079SOL    HW132171   2.552   7.012   4.166
10079SOL    HW232172   2.482   7.155   4.203
10080SOL     OW32173   3.656   5.922   5.145
10080SOL    HW132174   3.720   5.997   5.132
10080SOL    HW232175   3.665   5.857   5.070
10081SOL     OW32176   2.130   6.990   4.045
10081SOL    HW132177   2.042   6.970   4.001
10081SOL    HW232178   2.114   7.040   4.130
10082SOL     OW32179   2.016   6.640   5.497
10082SOL    HW132180   1.928   6.618   5.540
10082SOL    HW232181   2.089   6.593   5.547
10083SOL     OW32182   2.588   5.767   5.199
10083SOL    HW132183   2.669   5.721   5.165
10083SOL    HW232184   2.604   5.799   5.293
10084SOL     OW32185   1.997   5.963   3.631
10084SOL    HW132186   1.899   5.956   3.613
10084SOL    HW232187   2.028   6.056   3.612
10085SOL     OW32188   3.206   6.428   5.097
10085SOL    HW132189   3.151   6.492   5.044
10085SOL    HW232190   3.300   6.428   5.063
10086SOL     OW32191   1.894   5.726   3.957
10086SOL    HW132192   1.855   5.780   3.882
10086SOL    HW232193   1.989   5.703   3.937
10087SOL     OW32194   3.099   6.852   3.908
10087SOL    HW132195   3.050   6.766   3.898
10087SOL    HW232196   3.108   6.874   4.005
10088SOL     OW32197   2.461   6.414   5.218
10088SOL    HW132198   2.522   6.491   5.200
10088SOL    HW232199   2.512   6.328   5.212
10089SOL     OW32200   3.420   7.457   4.800
10089SOL    HW132201   3.460   7.513   4.728
10089SOL    HW232202   3.491   7.403   4.844
10090SOL     OW32203   2.623   6.114   5.448
10090SOL    HW132204   2.678   6.171   5.509
10090SOL    HW232205   2.644   6.018   5.464
10091SOL     OW32206   3.324   6.758   5.356
10091SOL    HW132207   3.319   6.778   5.454
10091SOL    HW232208   3.416   6.779   5.322
10092SOL     OW32209   2.209   7.331   5.283
10092SOL    HW132210   2.119   7.375   5.280
10092SOL    HW232211   2.199   7.239   5.322
10093SOL     OW32212   3.453   6.450   4.979
10093SOL    HW132213   3.470   6.366   4.928
10093SOL    HW232214   3.454   6.528   4.916
10094SOL     OW32215   3.066   5.935   4.172
10094SOL    HW132216   3.141   5.871   4.154
10094SOL    HW232217   3.087   5.989   4.253
10095SOL     OW32218   2.439   6.309   4.410
10095SOL    HW132219   2.489   6.392   4.387
10095SOL    HW232220   2.366   6.294   4.343
10096SOL     OW32221   3.604   5.967   5.407
10096SOL    HW132222   3.623   5.957   5.309
10096SOL    HW232223   3.527   5.907   5.432
10097SOL     OW32224   3.583   6.519   5.208
10097SOL    HW132225   3.576   6.618   5.221
10097SOL    HW232226   3.538   6.493   5.122
10098SOL     OW32227   2.661   6.948   3.804
10098SOL    HW132228   2.668   6.943   3.904
10098SOL    HW232229   2.726   7.015   3.769
10099SOL     OW32230   2.726   6.583   4.586
10099SOL    HW132231   2.787   6.513   4.622
10099SOL    HW232232   2.676   6.626   4.661
10100SOL     OW32233   2.981   6.612   3.824
10100SOL    HW132234   2.918   6.639   3.751
10100SOL    HW232235   3.043   6.541   3.789
10101SOL     OW32236   3.661   7.171   4.597
10101SOL    HW132237   3.594   7.159   4.524
10101SOL    HW232238   3.644   7.106   4.671
10102SOL     OW32239   2.094   6.886   5.596
10102SOL    HW132240   2.067   6.803   5.547
10102SOL    HW232241   2.036   6.898   5.676
10103SOL     OW32242   2.029   6.835   4.388
10103SOL    HW132243   2.064   6.784   4.467
10103SOL    HW232244   2.076   6.806   4.305
10104SOL     OW32245   2.541   7.008   5.376
10104SOL    HW132246   2.469   6.951   5.417
10104SOL    HW232247   2.536   7.100   5.413
10105SOL     OW32248   3.666   5.732   4.957
10105SOL    HW132249   3.661   5.633   4.970
10105SOL    HW232250   3.680   5.753   4.860
10106SOL     OW32251   2.256   5.995   4.252
10106SOL    HW132252   2.294   5.929   4.187
10106SOL    HW232253   2.205   5.947   4.323
10107SOL     OW32254   3.559   7.030   4.812
10107SOL    HW132255   3.488   7.007   4.744
10107SOL    HW232256   3.550   6.969   4.891
10108SOL     OW32257   2.251   6.135   4.979
10108SOL    HW132258   2.324   6.070   5.001
10108SOL    HW232259   2.231   6.130   4.881
10109SOL     OW32260   2.706   7.228   4.370
10109SOL    HW132261   2.715   7.315   4.322
10109SOL    HW232262   2.636   7.172   4.326
10110SOL     OW32263   3.251   5.836   4.824
10110SOL    HW132264   3.253   5.736   4.818
10110SOL    HW232265   3.197   5.863   4.904
10111SOL     OW32266   2.848   5.619   4.837
10111SOL    HW132267   2.759   5.581   4.814
10111SOL    HW232268   2.920   5.559   4.802
10112SOL     OW32269   2.663   6.898   4.073
10112SOL    HW132270   2.646   6.800   4.085
10112SOL    HW232271   2.744   6.925   4.124
10113SOL     OW32272   2.446   7.195   5.030
10113SOL    HW132273   2.452   7.284   5.076
10113SOL    HW232274   2.536   7.170   4.994
10114SOL     OW32275   3.244   5.644   3.868
10114SOL    HW132276   3.304   5.578   3.822
10114SOL    HW232277   3.153   5.604   3.879
10115SOL     OW32278   3.103   6.091   4.389
10115SOL    HW132279   3.051   6.176   4.388
10115SOL    HW232280   3.122   6.065   4.484
10116SOL     OW32281   3.440   5.800   4.616
10116SOL    HW132282   3.382   5.830   4.691
10116SOL    HW232283   3.448   5.873   4.548
10117SOL     OW32284   1.897   6.641   4.040
10117SOL    HW132285   1.995   6.635   4.020
10117SOL    HW232286   1.858   6.549   4.047
10118SOL     OW32287   2.783   7.273   4.054
10118SOL    HW132288   2.702   7.262   3.996
10118SOL    HW232289   2.767   7.347   4.119
10119SOL     OW32290   2.067   6.142   5.687
10119SOL    HW132291   1.978   6.150   5.732
10119SOL    HW232292   2.053   6.118   5.590
10120SOL     OW32293   2.092   5.884   6.627
10120SOL    HW132294   2.132   5.845   6.710
10120SOL    HW232295   2.002   5.843   6.611
10121SOL     OW32296   1.901   6.000   6.227
10121SOL    HW132297   1.818   6.022   6.279
10121SOL    HW232298   1.879   5.935   6.154
10122SOL     OW32299   3.455   7.108   6.281
10122SOL    HW132300   3.412   7.079   6.366
10122SOL    HW232301   3.385   7.125   6.212
10123SOL     OW32302   3.026   6.332   6.273
10123SOL    HW132303   3.079   6.417   6.272
10123SOL    HW232304   2.966   6.330   6.353
10124SOL     OW32305   3.659   6.157   5.781
10124SOL    HW132306   3.608   6.172   5.697
10124SOL    HW232307   3.611   6.089   5.837
10125SOL     OW32308   2.617   6.711   6.666
10125SOL    HW132309   2.527   6.677   6.638
10125SOL    HW232310   2.630   6.803   6.628
10126SOL     OW32311   2.699   6.250   7.444
10126SOL    HW132312   2.682   6.285   7.536
10126SOL    HW232313   2.727   6.326   7.384
10127SOL     OW32314   2.530   6.558   6.256
10127SOL    HW132315   2.591   6.542   6.333
10127SOL    HW232316   2.466   6.631   6.278
10128SOL     OW32317   2.611   6.643   7.406
10128SOL    HW132318   2.670   6.706   7.457
10128SOL    HW232319   2.535   6.694   7.366
10129SOL     OW32320   2.184   6.979   6.669
10129SOL    HW132321   2.095   6.961   6.627
10129SOL    HW232322   2.247   7.016   6.600
10130SOL     OW32323   3.323   7.090   6.961
10130SOL    HW132324   3.389   7.164   6.969
10130SOL    HW232325   3.242   7.111   7.016
10131SOL     OW32326   2.280   6.068   7.198
10131SOL    HW132327   2.378   6.058   7.215
10131SOL    HW232328   2.241   5.980   7.171
10132SOL     OW32329   3.455   6.043   6.339
10132SOL    HW132330   3.400   6.050   6.256
10132SOL    HW232331   3.423   6.110   6.406
10133SOL     OW32332   3.018   6.940   7.242
10133SOL    HW132333   3.033   6.896   7.331
10133SOL    HW232334   3.046   6.878   7.169
10134SOL     OW32335   2.024   7.188   6.126
10134SOL    HW132336   2.100   7.249   6.147
10134SOL    HW232337   1.984   7.153   6.211
10135SOL     OW32338   2.118   6.741   6.451
10135SOL    HW132339   2.121   6.647   6.486
10135SOL    HW232340   2.059   6.796   6.510
10136SOL     OW32341   2.481   7.337   7.115
10136SOL    HW132342   2.388   7.346   7.151
10136SOL    HW232343   2.506   7.422   7.069
10137SOL     OW32344   2.474   6.554   5.753
10137SOL    HW132345   2.522   6.607   5.683
10137SOL    HW232346   2.501   6.585   5.844
10138SOL     OW32347   3.442   5.759   7.016
10138SOL    HW132348   3.421   5.846   6.971
10138SOL    HW232349   3.416   5.765   7.112
10139SOL     OW32350   1.974   6.259   6.151
10139SOL    HW132351   1.959   6.162   6.170
10139SOL    HW232352   1.966   6.312   6.236
10140SOL     OW32353   3.721   7.249   5.937
10140SOL    HW132354   3.775   7.197   6.003
10140SOL    HW232355   3.752   7.344   5.937
10141SOL     OW32356   1.882   7.161   5.689
10141SOL    HW132357   1.815   7.088   5.673
10141SOL    HW232358   1.872   7.195   5.782
10142SOL     OW32359   3.583   6.520   6.268
10142SOL    HW132360   3.675   6.481   6.274
10142SOL    HW232361   3.571   6.564   6.179
10143SOL     OW32362   3.549   6.694   6.038
10143SOL    HW132363   3.638   6.675   5.996
10143SOL    HW232364   3.560   6.758   6.114
10144SOL     OW32365   2.457   6.998   6.269
10144SOL    HW132366   2.425   6.905   6.285
10144SOL    HW232367   2.447   7.021   6.173
10145SOL     OW32368   3.111   6.781   7.034
10145SOL    HW132369   3.121   6.729   6.949
10145SOL    HW232370   3.195   6.774   7.087
10146SOL     OW32371   2.706   5.611   6.083
10146SOL    HW132372   2.753   5.696   6.058
10146SOL    HW232373   2.608   5.629   6.091
10147SOL     OW32374   3.417   6.607   5.808
10147SOL    HW132375   3.342   6.545   5.830
10147SOL    HW232376   3.466   6.631   5.892
10148SOL     OW32377   3.196   7.449   7.171
10148SOL    HW132378   3.129   7.504   7.121
10148SOL    HW232379   3.177   7.352   7.155
10149SOL     OW32380   2.208   5.843   7.471
10149SOL    HW132381   2.251   5.917   7.522
10149SOL    HW232382   2.114   5.868   7.448
10150SOL     OW32383   3.353   7.001   6.506
10150SOL    HW132384   3.288   7.023   6.579
10150SOL    HW232385   3.344   6.905   6.481
10151SOL     OW32386   3.484   7.422   6.138
10151SOL    HW132387   3.475   7.360   6.061
10151SOL    HW232388   3.490   7.369   6.223
10152SOL     OW32389   2.451   6.296   5.866
10152SOL    HW132390   2.462   6.383   5.819
10152SOL    HW232391   2.378   6.304   5.934
10153SOL     OW32392   3.149   5.987   6.522
10153SOL    HW132393   3.062   5.939   6.511
10153SOL    HW232394   3.204   5.941   6.592
10154SOL     OW32395   3.450   7.254   5.922
10154SOL    HW132396   3.549   7.240   5.924
10154SOL    HW232397   3.416   7.245   5.829
10155SOL     OW32398   2.625   6.172   6.995
10155SOL    HW132399   2.607   6.141   7.088
10155SOL    HW232400   2.626   6.094   6.933
10156SOL     OW32401   3.207   6.008   7.197
10156SOL    HW132402   3.213   6.070   7.275
10156SOL    HW232403   3.266   5.929   7.212
10157SOL     OW32404   2.905   5.941   6.791
10157SOL    HW132405   2.809   5.958   6.812
10157SOL    HW232406   2.914   5.912   6.696
10158SOL     OW32407   2.977   6.293   5.996
10158SOL    HW132408   2.991   6.303   6.095
10158SOL    HW232409   2.880   6.277   5.977
10159SOL     OW32410   1.930   6.386   6.388
10159SOL    HW132411   2.007   6.430   6.435
10159SOL    HW232412   1.886   6.322   6.451
10160SOL     OW32413   2.004   7.508   7.168
10160SOL    HW132414   1.987   7.485   7.264
10160SOL    HW232415   1.924   7.486   7.114
10161SOL     OW32416   2.724   5.950   5.803
10161SOL    HW132417   2.785   5.987   5.732
10161SOL    HW232418   2.660   5.885   5.761
10162SOL     OW32419   3.269   6.758   6.092
10162SOL    HW132420   3.358   6.755   6.047
10162SOL    HW232421   3.214   6.832   6.052
10163SOL     OW32422   2.420   5.673   6.579
10163SOL    HW132423   2.429   5.707   6.673
10163SOL    HW232424   2.427   5.749   6.515
10164SOL     OW32425   2.842   7.061   6.062
10164SOL    HW132426   2.822   7.136   6.000
10164SOL    HW232427   2.805   7.082   6.153
10165SOL     OW32428   2.217   7.353   6.472
10165SOL    HW132429   2.254   7.260   6.481
10165SOL    HW232430   2.287   7.420   6.494
10166SOL     OW32431   3.663   6.621   6.517
10166SOL    HW132432   3.620   6.607   6.428
10166SOL    HW232433   3.593   6.631   6.587
10167SOL     OW32434   3.106   7.172   7.099
10167SOL    HW132435   3.086   7.097   7.162
10167SOL    HW232436   3.021   7.200   7.053
10168SOL     OW32437   2.153   6.532   5.897
10168SOL    HW132438   2.170   6.525   5.799
10168SOL    HW232439   2.181   6.447   5.942
10169SOL     OW32440   3.357   6.371   6.297
10169SOL    HW132441   3.345   6.319   6.381
10169SOL    HW232442   3.445   6.419   6.299
10170SOL     OW32443   2.331   6.865   7.338
10170SOL    HW132444   2.331   6.883   7.240
10170SOL    HW232445   2.238   6.844   7.369
10171SOL     OW32446   3.013   7.345   5.838
10171SOL    HW132447   2.920   7.335   5.872
10171SOL    HW232448   3.033   7.271   5.773
10172SOL     OW32449   2.082   5.843   7.123
10172SOL    HW132450   2.003   5.893   7.087
10172SOL    HW232451   2.050   5.770   7.184
10173SOL     OW32452   3.514   6.986   5.684
10173SOL    HW132453   3.460   7.070   5.684
10173SOL    HW232454   3.456   6.909   5.659
10174SOL     OW32455   3.263   5.689   6.057
10174SOL    HW132456   3.264   5.666   5.960
10174SOL    HW232457   3.351   5.664   6.098
10175SOL     OW32458   2.155   7.402   6.743
10175SOL    HW132459   2.190   7.324   6.795
10175SOL    HW232460   2.162   7.383   6.645
10176SOL     OW32461   2.800   7.285   6.456
10176SOL    HW132462   2.892   7.245   6.450
10176SOL    HW232463   2.743   7.247   6.384
10177SOL     OW32464   2.226   6.282   6.043
10177SOL    HW132465   2.258   6.188   6.055
10177SOL    HW232466   2.131   6.290   6.073
10178SOL     OW32467   3.343   5.782   7.274
10178SOL    HW132468   3.366   5.818   7.364
10178SOL    HW232469   3.290   5.697   7.285
10179SOL     OW32470   2.562   5.724   5.713
10179SOL    HW132471   2.639   5.662   5.726
10179SOL    HW232472   2.495   5.682   5.652
10180SOL     OW32473   2.628   5.804   7.297
10180SOL    HW132474   2.714   5.753   7.297
10180SOL    HW232475   2.575   5.782   7.379
10181SOL     OW32476   2.717   7.075   6.811
10181SOL    HW132477   2.695   7.052   6.716
10181SOL    HW232478   2.775   7.004   6.850
10182SOL     OW32479   2.675   6.962   6.552
10182SOL    HW132480   2.765   6.953   6.509
10182SOL    HW232481   2.609   6.992   6.484
10183SOL     OW32482   2.801   6.070   6.453
10183SOL    HW132483   2.784   6.071   6.354
10183SOL    HW232484   2.834   5.979   6.480
10184SOL     OW32485   2.436   5.658   6.084
10184SOL    HW132486   2.363   5.655   6.153
10184SOL    HW232487   2.424   5.739   6.027
10185SOL     OW32488   3.314   6.795   5.634
10185SOL    HW132489   3.351   6.721   5.690
10185SOL    HW232490   3.225   6.822   5.671
10186SOL     OW32491   2.161   5.610   5.746
10186SOL    HW132492   2.205   5.692   5.710
10186SOL    HW232493   2.228   5.555   5.795
10187SOL     OW32494   2.836   5.842   6.026
10187SOL    HW132495   2.799   5.883   5.942
10187SOL    HW232496   2.934   5.860   6.031
10188SOL     OW32497   3.050   7.194   6.405
10188SOL    HW132498   3.077   7.244   6.323
10188SOL    HW232499   3.101   7.227   6.484
10189SOL     OW32500   2.340   6.754   6.284
10189SOL    HW132501   2.268   6.744   6.353
10189SOL    HW232502   2.298   6.753   6.193
10190SOL     OW32503   3.100   7.381   6.202
10190SOL    HW132504   3.152   7.445   6.145
10190SOL    HW232505   3.021   7.428   6.241
10191SOL     OW32506   2.901   6.072   5.637
10191SOL    HW132507   2.871   6.162   5.608
10191SOL    HW232508   2.972   6.081   5.707
10192SOL     OW32509   2.438   5.784   6.828
10192SOL    HW132510   2.486   5.749   6.908
10192SOL    HW232511   2.339   5.784   6.845
10193SOL     OW32512   2.762   6.056   6.187
10193SOL    HW132513   2.733   6.122   6.118
10193SOL    HW232514   2.787   5.970   6.142
10194SOL     OW32515   2.874   5.629   6.308
10194SOL    HW132516   2.815   5.629   6.227
10194SOL    HW232517   2.843   5.558   6.372
10195SOL     OW32518   3.367   6.741   6.428
10195SOL    HW132519   3.296   6.687   6.384
10195SOL    HW232520   3.438   6.764   6.360
10196SOL     OW32521   3.315   6.217   6.523
10196SOL    HW132522   3.249   6.142   6.533
10196SOL    HW232523   3.379   6.214   6.599
10197SOL     OW32524   3.668   6.360   5.962
10197SOL    HW132525   3.727   6.327   6.036
10197SOL    HW232526   3.669   6.295   5.887
10198SOL     OW32527   2.308   7.087   5.778
10198SOL    HW132528   2.227   7.062   5.831
10198SOL    HW232529   2.298   7.054   5.684
10199SOL     OW32530   3.575   6.854   6.255
10199SOL    HW132531   3.674   6.854   6.266
10199SOL    HW232532   3.541   6.948   6.258
10200SOL     OW32533   3.238   6.168   5.625
10200SOL    HW132534   3.199   6.133   5.710
10200SOL    HW232535   3.338   6.165   5.630
10201SOL     OW32536   2.406   5.859   5.905
10201SOL    HW132537   2.464   5.809   5.840
10201SOL    HW232538   2.368   5.940   5.861
10202SOL     OW32539   3.602   6.816   7.125
10202SOL    HW132540   3.694   6.776   7.124
10202SOL    HW232541   3.606   6.908   7.162
10203SOL     OW32542   2.869   6.882   6.927
10203SOL    HW132543   2.791   6.869   6.988
10203SOL    HW232544   2.952   6.848   6.971
10204SOL     OW32545   3.474   7.218   7.265
10204SOL    HW132546   3.461   7.263   7.177
10204SOL    HW232547   3.553   7.157   7.259
10205SOL     OW32548   3.007   6.864   6.690
10205SOL    HW132549   2.936   6.868   6.760
10205SOL    HW232550   2.966   6.884   6.601
10206SOL     OW32551   3.456   6.670   6.688
10206SOL    HW132552   3.453   6.744   6.754
10206SOL    HW232553   3.404   6.696   6.606
10207SOL     OW32554   2.816   5.589   6.965
10207SOL    HW132555   2.832   5.583   6.867
10207SOL    HW232556   2.895   5.633   7.009
10208SOL     OW32557   2.580   6.631   5.993
10208SOL    HW132558   2.556   6.599   6.085
10208SOL    HW232559   2.675   6.609   5.974
10209SOL     OW32560   2.310   6.387   6.780
10209SOL    HW132561   2.364   6.393   6.864
10209SOL    HW232562   2.270   6.295   6.773
10210SOL     OW32563   3.141   5.917   6.931
10210SOL    HW132564   3.155   5.976   7.010
10210SOL    HW232565   3.053   5.939   6.888
10211SOL     OW32566   1.974   7.183   6.934
10211SOL    HW132567   1.934   7.251   6.871
10211SOL    HW232568   2.073   7.182   6.922
10212SOL     OW32569   2.209   6.764   6.041
10212SOL    HW132570   2.192   6.846   5.987
10212SOL    HW232571   2.198   6.683   5.983
10213SOL     OW32572   2.335   6.214   6.526
10213SOL    HW132573   2.337   6.258   6.436
10213SOL    HW232574   2.429   6.197   6.556
10214SOL     OW32575   3.101   6.970   5.995
10214SOL    HW132576   3.162   7.040   6.032
10214SOL    HW232577   3.007   6.990   6.024
10215SOL     OW32578   3.199   7.051   6.722
10215SOL    HW132579   3.240   7.057   6.813
10215SOL    HW232580   3.129   6.979   6.721
10216SOL     OW32581   3.446   6.219   6.075
10216SOL    HW132582   3.393   6.269   6.144
10216SOL    HW232583   3.511   6.282   6.032
10217SOL     OW32584   2.239   7.170   6.855
10217SOL    HW132585   2.220   7.096   6.791
10217SOL    HW232586   2.329   7.157   6.896
10218SOL     OW32587   2.266   6.342   7.152
10218SOL    HW132588   2.343   6.374   7.097
10218SOL    HW232589   2.274   6.243   7.167
10219SOL     OW32590   3.498   6.403   7.274
10219SOL    HW132591   3.402   6.426   7.263
10219SOL    HW232592   3.551   6.442   7.199
10220SOL     OW32593   2.850   5.653   7.328
10220SOL    HW132594   2.907   5.735   7.327
10220SOL    HW232595   2.906   5.573   7.306
10221SOL     OW32596   2.338   5.620   7.377
10221SOL    HW132597   2.280   5.574   7.310
10221SOL    HW232598   2.295   5.706   7.404
10222SOL     OW32599   2.410   6.540   6.584
10222SOL    HW132600   2.484   6.492   6.536
10222SOL    HW232601   2.379   6.484   6.661
10223SOL     OW32602   3.134   6.431   6.604
10223SOL    HW132603   3.044   6.394   6.582
10223SOL    HW232604   3.204   6.365   6.576
10224SOL     OW32605   3.083   6.095   5.842
10224SOL    HW132606   3.099   6.018   5.904
10224SOL    HW232607   3.051   6.174   5.895
10225SOL     OW32608   2.168   5.768   6.870
10225SOL    HW132609   2.145   5.798   6.963
10225SOL    HW232610   2.136   5.675   6.856
10226SOL     OW32611   1.829   6.980   6.826
10226SOL    HW132612   1.792   6.919   6.896
10226SOL    HW232613   1.888   7.048   6.870
10227SOL     OW32614   2.600   6.176   6.612
10227SOL    HW132615   2.663   6.140   6.542
10227SOL    HW232616   2.647   6.244   6.667
10228SOL     OW32617   3.597   6.577   7.462
10228SOL    HW132618   3.559   6.506   7.403
10228SOL    HW232619   3.534   6.597   7.537
10229SOL     OW32620   2.219   5.652   6.254
10229SOL    HW132621   2.186   5.744   6.276
10229SOL    HW232622   2.217   5.595   6.336
10230SOL     OW32623   3.491   5.993   5.927
10230SOL    HW132624   3.536   5.927   5.987
10230SOL    HW232625   3.460   6.071   5.982
10231SOL     OW32626   2.885   6.314   6.546
10231SOL    HW132627   2.857   6.317   6.642
10231SOL    HW232628   2.864   6.223   6.508
10232SOL     OW32629   2.857   7.159   7.267
10232SOL    HW132630   2.850   7.199   7.175
10232SOL    HW232631   2.895   7.067   7.260
10233SOL     OW32632   3.699   7.067   7.201
10233SOL    HW132633   3.732   7.090   7.109
10233SOL    HW232634   3.777   7.063   7.264
10234SOL     OW32635   2.077   6.499   7.257
10234SOL    HW132636   2.108   6.533   7.346
10234SOL    HW232637   2.152   6.451   7.212
10235SOL     OW32638   3.399   5.841   5.715
10235SOL    HW132639   3.344   5.766   5.753
10235SOL    HW232640   3.426   5.903   5.789
10236SOL     OW32641   3.128   6.415   5.602
10236SOL    HW132642   3.162   6.321   5.607
10236SOL    HW232643   3.153   6.455   5.514
10237SOL     OW32644   2.923   6.939   6.436
10237SOL    HW132645   2.943   6.867   6.370
10237SOL    HW232646   2.977   7.021   6.414
10238SOL     OW32647   2.121   6.491   6.554
10238SOL    HW132648   2.220   6.478   6.552
10238SOL    HW232649   2.088   6.483   6.648
10239SOL     OW32650   2.121   6.149   6.681
10239SOL    HW132651   2.109   6.051   6.661
10239SOL    HW232652   2.192   6.186   6.621
10240SOL     OW32653   2.984   5.884   7.290
10240SOL    HW132654   2.933   5.937   7.357
10240SOL    HW232655   3.061   5.937   7.256
10241SOL     OW32656   3.038   5.708   7.083
10241SOL    HW132657   3.008   5.767   7.157
10241SOL    HW232658   3.086   5.762   7.014
10242SOL     OW32659   1.901   6.862   5.802
10242SOL    HW132660   1.815   6.896   5.765
10242SOL    HW232661   1.888   6.769   5.837
10243SOL     OW32662   1.940   7.354   6.496
10243SOL    HW132663   1.906   7.273   6.448
10243SOL    HW232664   2.038   7.364   6.479
10244SOL     OW32665   2.345   7.112   6.491
10244SOL    HW132666   2.421   7.168   6.526
10244SOL    HW232667   2.374   7.067   6.407
10245SOL     OW32668   2.779   6.307   6.802
10245SOL    HW132669   2.848   6.357   6.855
10245SOL    HW232670   2.721   6.256   6.865
10246SOL     OW32671   2.074   6.154   7.358
10246SOL    HW132672   2.155   6.126   7.305
10246SOL    HW232673   2.014   6.209   7.299
10247SOL     OW32674   3.250   6.494   7.223
10247SOL    HW132675   3.272   6.592   7.226
10247SOL    HW232676   3.225   6.469   7.129
10248SOL     OW32677   2.705   6.191   5.946
10248SOL    HW132678   2.709   6.105   5.895
10248SOL    HW232679   2.619   6.238   5.925
10249SOL     OW32680   3.504   6.209   6.716
10249SOL    HW132681   3.512   6.138   6.786
10249SOL    HW232682   3.595   6.232   6.682
10250SOL     OW32683   2.092   7.126   7.345
10250SOL    HW132684   2.036   7.155   7.423
10250SOL    HW232685   2.111   7.028   7.352
10251SOL     OW32686   2.628   5.980   6.802
10251SOL    HW132687   2.559   5.908   6.807
10251SOL    HW232688   2.605   6.043   6.727
10252SOL     OW32689   2.851   7.236   7.003
10252SOL    HW132690   2.806   7.181   6.933
10252SOL    HW232691   2.840   7.333   6.980
10253SOL     OW32692   2.317   6.073   5.761
10253SOL    HW132693   2.375   6.150   5.788
10253SOL    HW232694   2.224   6.106   5.743
10254SOL     OW32695   3.127   6.640   6.781
10254SOL    HW132696   3.133   6.568   6.713
10254SOL    HW232697   3.086   6.722   6.741
10255SOL     OW32698   3.195   6.451   5.865
10255SOL    HW132699   3.128   6.404   5.922
10255SOL    HW232700   3.171   6.441   5.769
10256SOL     OW32701   3.643   7.269   6.767
10256SOL    HW132702   3.706   7.312   6.702
10256SOL    HW232703   3.612   7.182   6.730
10257SOL     OW32704   3.164   7.301   6.630
10257SOL    HW132705   3.253   7.347   6.627
10257SOL    HW232706   3.175   7.211   6.672
10258SOL     OW32707   1.932   6.911   6.582
10258SOL    HW132708   1.897   6.938   6.672
10258SOL    HW232709   1.868   6.848   6.538
10259SOL     OW32710   2.606   7.233   7.340
10259SOL    HW132711   2.563   7.278   7.262
10259SOL    HW232712   2.704   7.222   7.323
10260SOL     OW32713   3.632   5.804   6.066
10260SOL    HW132714   3.682   5.775   5.985
10260SOL    HW232715   3.585   5.725   6.107
10261SOL     OW32716   3.257   7.171   6.098
10261SOL    HW132717   3.318   7.206   6.027
10261SOL    HW232718   3.195   7.245   6.127
10262SOL     OW32719   1.971   7.422   7.418
10262SOL    HW132720   1.928   7.336   7.445
10262SOL    HW232721   2.034   7.452   7.490
10263SOL     OW32722   3.187   6.577   6.266
10263SOL    HW132723   3.250   6.499   6.274
10263SOL    HW232724   3.218   6.638   6.194
10264SOL     OW32725   2.639   6.879   7.072
10264SOL    HW132726   2.636   6.895   7.171
10264SOL    HW232727   2.571   6.936   7.027
10265SOL     OW32728   2.540   7.244   5.749
10265SOL    HW132729   2.550   7.246   5.650
10265SOL    HW232730   2.460   7.190   5.774
10266SOL     OW32731   3.484   7.308   6.989
10266SOL    HW132732   3.548   7.297   6.913
10266SOL    HW232733   3.447   7.401   6.988
10267SOL     OW32734   3.702   5.735   6.619
10267SOL    HW132735   3.745   5.655   6.576
10267SOL    HW232736   3.623   5.763   6.565
10268SOL     OW32737   2.137   5.901   6.331
10268SOL    HW132738   2.053   5.941   6.294
10268SOL    HW232739   2.138   5.912   6.430
10269SOL     OW32740   3.086   7.155   5.653
10269SOL    HW132741   3.089   7.061   5.687
10269SOL    HW232742   3.005   7.168   5.597
10270SOL     OW32743   2.600   6.638   6.934
10270SOL    HW132744   2.616   6.660   6.838
10270SOL    HW232745   2.611   6.720   6.990
10271SOL     OW32746   3.354   7.225   5.662
10271SOL    HW132747   3.258   7.201   5.652
10271SOL    HW232748   3.397   7.227   5.571
10272SOL     OW32749   2.327   6.924   7.079
10272SOL    HW132750   2.376   7.000   7.036
10272SOL    HW232751   2.271   6.878   7.010
10273SOL     OW32752   3.473   6.875   6.876
10273SOL    HW132753   3.531   6.847   6.951
10273SOL    HW232754   3.410   6.947   6.906
10274SOL     OW32755   2.916   5.815   6.522
10274SOL    HW132756   2.910   5.773   6.432
10274SOL    HW232757   2.910   5.744   6.593
10275SOL     OW32758   2.453   7.047   6.008
10275SOL    HW132759   2.530   6.992   5.975
10275SOL    HW232760   2.391   7.067   5.931
10276SOL     OW32761   3.595   6.031   6.905
10276SOL    HW132762   3.669   6.095   6.925
10276SOL    HW232763   3.633   5.938   6.896
10277SOL     OW32764   2.101   7.000   5.930
10277SOL    HW132765   2.021   6.957   5.888
10277SOL    HW232766   2.071   7.063   6.002
10278SOL     OW32767   1.874   6.688   7.262
10278SOL    HW132768   1.811   6.657   7.333
10278SOL    HW232769   1.942   6.616   7.245
10279SOL     OW32770   2.573   5.695   7.048
10279SOL    HW132771   2.661   5.660   7.016
10279SOL    HW232772   2.585   5.741   7.135
10280SOL     OW32773   1.960   5.851   5.596
10280SOL    HW132774   1.924   5.771   5.549
10280SOL    HW232775   1.953   5.931   5.536
10281SOL     OW32776   3.206   6.455   6.957
10281SOL    HW132777   3.172   6.525   6.895
10281SOL    HW232778   3.299   6.429   6.931
10282SOL     OW32779   1.937   5.729   5.842
10282SOL    HW132780   1.920   5.792   5.766
10282SOL    HW232781   2.025   5.684   5.828
10283SOL     OW32782   3.065   6.893   5.732
10283SOL    HW132783   2.968   6.876   5.717
10283SOL    HW232784   3.083   6.909   5.829
10284SOL     OW32785   2.476   6.404   6.994
10284SOL    HW132786   2.525   6.490   6.976
10284SOL    HW232787   2.541   6.328   6.995
10285SOL     OW32788   3.416   7.401   6.628
10285SOL    HW132789   3.438   7.489   6.585
10285SOL    HW232790   3.494   7.370   6.682
10286SOL     OW32791   2.564   6.072   7.248
10286SOL    HW132792   2.601   6.131   7.320
10286SOL    HW232793   2.594   5.978   7.264
10287SOL     OW32794   3.328   6.756   7.209
10287SOL    HW132795   3.313   6.777   7.306
10287SOL    HW232796   3.422   6.781   7.185
10288SOL     OW32797   2.233   7.356   7.233
10288SOL    HW132798   2.157   7.410   7.199
10288SOL    HW232799   2.199   7.272   7.276
10289SOL     OW32800   3.462   6.448   6.850
10289SOL    HW132801   3.477   6.362   6.800
10289SOL    HW232802   3.458   6.524   6.785
10290SOL     OW32803   3.101   5.910   6.048
10290SOL    HW132804   3.162   5.831   6.053
10290SOL    HW232805   3.122   5.973   6.123
10291SOL     OW32806   2.355   6.346   6.288
10291SOL    HW132807   2.422   6.418   6.271
10291SOL    HW232808   2.309   6.322   6.202
10292SOL     OW32809   3.608   6.533   7.065
10292SOL    HW132810   3.590   6.630   7.076
10292SOL    HW232811   3.560   6.499   6.984
10293SOL     OW32812   2.782   6.915   5.692
10293SOL    HW132813   2.733   6.919   5.779
10293SOL    HW232814   2.783   7.005   5.650
10294SOL     OW32815   2.536   7.289   6.551
10294SOL    HW132816   2.503   7.383   6.548
10294SOL    HW232817   2.636   7.288   6.539
10295SOL     OW32818   2.680   6.506   6.483
10295SOL    HW132819   2.756   6.443   6.496
10295SOL    HW232820   2.683   6.577   6.554
10296SOL     OW32821   2.913   6.549   5.703
10296SOL    HW132822   2.885   6.612   5.631
10296SOL    HW232823   2.993   6.498   5.674
10297SOL     OW32824   3.687   7.153   6.432
10297SOL    HW132825   3.611   7.147   6.366
10297SOL    HW232826   3.668   7.094   6.510
10298SOL     OW32827   2.063   6.846   7.393
10298SOL    HW132828   2.001   6.801   7.330
10298SOL    HW232829   2.021   6.851   7.484
10299SOL     OW32830   2.008   6.817   6.218
10299SOL    HW132831   2.048   6.786   6.304
10299SOL    HW232832   2.073   6.800   6.143
10300SOL     OW32833   2.588   6.959   7.332
10300SOL    HW132834   2.493   6.928   7.338
10300SOL    HW232835   2.591   7.058   7.337
10301SOL     OW32836   3.689   5.775   6.887
10301SOL    HW132837   3.602   5.743   6.923
10301SOL    HW232838   3.694   5.755   6.789
10302SOL     OW32839   2.281   6.024   6.107
10302SOL    HW132840   2.328   5.956   6.051
10302SOL    HW232841   2.243   5.981   6.188
10303SOL     OW32842   3.572   7.031   6.663
10303SOL    HW132843   3.493   7.024   6.603
10303SOL    HW232844   3.564   6.966   6.737
10304SOL     OW32845   2.661   7.189   6.251
10304SOL    HW132846   2.628   7.272   6.206
10304SOL    HW232847   2.587   7.121   6.253
10305SOL     OW32848   3.287   5.849   6.712
10305SOL    HW132849   3.306   5.751   6.716
10305SOL    HW232850   3.238   5.877   6.795
10306SOL     OW32851   2.899   5.580   6.680
10306SOL    HW132852   2.841   5.521   6.625
10306SOL    HW232853   2.993   5.546   6.677
10307SOL     OW32854   2.659   6.894   5.931
10307SOL    HW132855   2.633   6.801   5.957
10307SOL    HW232856   2.731   6.927   5.992
10308SOL     OW32857   2.489   7.113   6.962
10308SOL    HW132858   2.496   7.194   7.020
10308SOL    HW232859   2.568   7.110   6.901
10309SOL     OW32860   3.260   5.616   5.795
10309SOL    HW132861   3.313   5.545   5.748
10309SOL    HW232862   3.166   5.585   5.806
10310SOL     OW32863   3.157   6.078   6.257
10310SOL    HW132864   3.115   6.169   6.255
10310SOL    HW232865   3.156   6.044   6.351
10311SOL     OW32866   3.471   5.819   6.506
10311SOL    HW132867   3.409   5.850   6.578
10311SOL    HW232868   3.471   5.887   6.432
10312SOL     OW32869   1.888   6.606   5.930
10312SOL    HW132870   1.986   6.590   5.921
10312SOL    HW232871   1.840   6.518   5.929
10313SOL     OW32872   2.749   7.286   5.925
10313SOL    HW132873   2.679   7.264   5.857
10313SOL    HW232874   2.715   7.354   5.989
10314SOL     OW32875   2.072   6.229   7.618
10314SOL    HW132876   1.979   6.203   7.646
10314SOL    HW232877   2.082   6.213   7.519
10315SOL     OW32878   2.087   5.867   8.441
10315SOL    HW132879   2.125   5.833   8.526
10315SOL    HW232880   1.994   5.832   8.429
10316SOL     OW32881   1.857   5.983   8.072
10316SOL    HW132882   1.770   6.003   8.118
10316SOL    HW232883   1.839   5.926   7.992
10317SOL     OW32884   2.414   6.875   8.653
10317SOL    HW132885   2.324   6.879   8.611
10317SOL    HW232886   2.439   6.966   8.687
10318SOL     OW32887   3.458   7.125   8.135
10318SOL    HW132888   3.404   7.096   8.214
10318SOL    HW232889   3.398   7.135   8.055
10319SOL     OW32890   2.994   6.303   8.110
10319SOL    HW132891   3.047   6.385   8.087
10319SOL    HW232892   2.946   6.318   8.196
10320SOL     OW32893   3.653   6.177   7.615
10320SOL    HW132894   3.620   6.183   7.520
10320SOL    HW232895   3.596   6.113   7.666
10321SOL     OW32896   2.565   6.707   8.489
10321SOL    HW132897   2.505   6.747   8.558
10321SOL    HW232898   2.607   6.781   8.435
10322SOL     OW32899   2.742   6.287   9.298
10322SOL    HW132900   2.741   6.336   9.385
10322SOL    HW232901   2.754   6.351   9.223
10323SOL     OW32902   2.587   6.552   8.093
10323SOL    HW132903   2.652   6.561   8.168
10323SOL    HW232904   2.508   6.612   8.110
10324SOL     OW32905   2.534   6.760   9.286
10324SOL    HW132906   2.582   6.838   9.327
10324SOL    HW232907   2.458   6.794   9.229
10325SOL     OW32908   2.191   6.984   8.522
10325SOL    HW132909   2.117   6.926   8.487
10325SOL    HW232910   2.232   7.035   8.446
10326SOL     OW32911   3.260   7.094   8.827
10326SOL    HW132912   3.307   7.174   8.863
10326SOL    HW232913   3.180   7.074   8.884
10327SOL     OW32914   2.351   5.947   8.876
10327SOL    HW132915   2.431   5.888   8.878
10327SOL    HW232916   2.272   5.899   8.915
10328SOL     OW32917   3.442   6.030   8.184
10328SOL    HW132918   3.373   6.027   8.111
10328SOL    HW232919   3.420   6.104   8.248
10329SOL     OW32920   2.103   7.318   7.908
10329SOL    HW132921   2.119   7.386   7.979
10329SOL    HW232922   2.178   7.321   7.841
10330SOL     OW32923   2.969   6.917   9.209
10330SOL    HW132924   3.032   6.895   9.284
10330SOL    HW232925   2.902   6.844   9.200
10331SOL     OW32926   2.187   7.056   7.950
10331SOL    HW132927   2.145   7.147   7.950
10331SOL    HW232928   2.143   7.000   8.019
10332SOL     OW32929   2.171   6.672   8.310
10332SOL    HW132930   2.178   6.575   8.333
10332SOL    HW232931   2.112   6.718   8.376
10333SOL     OW32932   2.438   6.519   7.639
10333SOL    HW132933   2.484   6.537   7.551
10333SOL    HW232934   2.489   6.564   7.713
10334SOL     OW32935   3.571   5.709   9.007
10334SOL    HW132936   3.608   5.784   8.953
10334SOL    HW232937   3.509   5.746   9.077
10335SOL     OW32938   1.965   6.250   8.028
10335SOL    HW132939   1.938   6.156   8.050
10335SOL    HW232940   1.962   6.306   8.111
10336SOL     OW32941   3.728   7.338   7.766
10336SOL    HW132942   3.806   7.323   7.827
10336SOL    HW232943   3.731   7.431   7.729
10337SOL     OW32944   1.901   7.182   7.534
10337SOL    HW132945   1.830   7.112   7.533
10337SOL    HW232946   1.898   7.233   7.620
10338SOL     OW32947   3.575   6.521   8.102
10338SOL    HW132948   3.662   6.474   8.088
10338SOL    HW232949   3.558   6.584   8.025
10339SOL     OW32950   3.540   6.709   7.893
10339SOL    HW132951   3.621   6.684   7.839
10339SOL    HW232952   3.562   6.786   7.952
10340SOL     OW32953   1.963   6.371   8.973
10340SOL    HW132954   2.022   6.420   8.909
10340SOL    HW232955   1.875   6.418   8.980
10341SOL     OW32956   2.464   6.954   8.180
10341SOL    HW132957   2.429   6.861   8.169
10341SOL    HW232958   2.471   6.997   8.090
10342SOL     OW32959   3.097   6.771   8.867
10342SOL    HW132960   3.121   6.704   8.796
10342SOL    HW232961   3.178   6.791   8.922
10343SOL     OW32962   2.676   5.656   7.986
10343SOL    HW132963   2.737   5.720   7.938
10343SOL    HW232964   2.581   5.686   7.975
10344SOL     OW32965   2.085   6.520   8.776
10344SOL    HW132966   2.177   6.483   8.758
10344SOL    HW232967   2.035   6.528   8.690
10345SOL     OW32968   3.402   6.625   7.661
10345SOL    HW132969   3.350   6.542   7.684
10345SOL    HW232970   3.447   6.659   7.743
10346SOL     OW32971   2.227   5.845   9.326
10346SOL    HW132972   2.269   5.917   9.381
10346SOL    HW232973   2.153   5.883   9.271
10347SOL     OW32974   3.307   7.040   8.349
10347SOL    HW132975   3.254   7.060   8.432
10347SOL    HW232976   3.294   6.944   8.325
10348SOL     OW32977   3.496   7.447   7.965
10348SOL    HW132978   3.489   7.383   7.889
10348SOL    HW232979   3.516   7.398   8.049
10349SOL     OW32980   2.430   6.262   7.748
10349SOL    HW132981   2.438   6.352   7.705
10349SOL    HW232982   2.363   6.266   7.822
10350SOL     OW32983   3.150   5.999   8.381
10350SOL    HW132984   3.058   5.959   8.379
10350SOL    HW232985   3.207   5.948   8.446
10351SOL     OW32986   3.458   7.274   7.754
10351SOL    HW132987   3.557   7.282   7.747
10351SOL    HW232988   3.420   7.260   7.663
10352SOL     OW32989   2.657   6.145   8.905
10352SOL    HW132990   2.616   6.114   8.991
10352SOL    HW232991   2.631   6.083   8.831
10353SOL     OW32992   3.234   6.057   9.116
10353SOL    HW132993   3.232   6.115   9.198
10353SOL    HW232994   3.301   5.985   9.129
10354SOL     OW32995   2.796   6.457   9.073
10354SOL    HW132996   2.848   6.387   9.025
10354SOL    HW232997   2.743   6.511   9.007
10355SOL     OW32998   2.875   5.973   8.625
10355SOL    HW132999   2.780   5.983   8.654
10355SOL    HW233000   2.878   5.927   8.536
10356SOL     OW33001   2.889   6.249   7.855
10356SOL    HW133002   2.919   6.261   7.950
10356SOL    HW233003   2.804   6.197   7.854
10357SOL     OW33004   1.951   6.425   8.242
10357SOL    HW133005   2.044   6.414   8.278
10357SOL    HW233006   1.901   6.491   8.299
10358SOL     OW33007   2.011   7.461   9.057
10358SOL    HW133008   2.028   7.429   9.150
10358SOL    HW233009   1.918   7.434   9.030
10359SOL     OW33010   2.701   5.892   7.656
10359SOL    HW133011   2.753   5.932   7.581
10359SOL    HW233012   2.639   5.822   7.620
10360SOL     OW33013   3.512   6.222   9.295
10360SOL    HW133014   3.516   6.316   9.261
10360SOL    HW233015   3.536   6.158   9.222
10361SOL     OW33016   3.270   6.759   7.990
10361SOL    HW133017   3.360   6.749   7.948
10361SOL    HW233018   3.214   6.822   7.936
10362SOL     OW33019   2.406   5.710   8.373
10362SOL    HW133020   2.422   5.742   8.466
10362SOL    HW233021   2.395   5.789   8.312
10363SOL     OW33022   2.854   7.052   7.877
10363SOL    HW133023   2.837   7.121   7.807
10363SOL    HW233024   2.811   7.080   7.963
10364SOL     OW33025   2.222   7.386   8.343
10364SOL    HW133026   2.277   7.302   8.347
10364SOL    HW233027   2.280   7.465   8.362
10365SOL     OW33028   3.646   6.618   8.351
10365SOL    HW133029   3.607   6.593   8.263
10365SOL    HW233030   3.573   6.645   8.414
10366SOL     OW33031   3.013   7.062   8.965
10366SOL    HW133032   3.010   7.008   9.049
10366SOL    HW233033   2.963   7.014   8.893
10367SOL     OW33034   2.166   6.485   7.700
10367SOL    HW133035   2.261   6.498   7.671
10367SOL    HW233036   2.138   6.391   7.679
10368SOL     OW33037   3.358   6.355   8.122
10368SOL    HW133038   3.349   6.311   8.211
10368SOL    HW233039   3.440   6.413   8.122
10369SOL     OW33040   2.327   6.887   9.155
10369SOL    HW133041   2.290   6.894   9.062
10369SOL    HW233042   2.252   6.884   9.220
10370SOL     OW33043   2.954   7.388   7.572
10370SOL    HW133044   2.884   7.357   7.636
10370SOL    HW233045   2.999   7.309   7.531
10371SOL     OW33046   2.126   5.813   8.954
10371SOL    HW133047   2.095   5.878   9.023
10371SOL    HW233048   2.080   5.725   8.968
10372SOL     OW33049   3.459   6.980   7.546
10372SOL    HW133050   3.423   7.071   7.530
10372SOL    HW233051   3.393   6.912   7.515
10373SOL     OW33052   2.327   7.346   7.749
10373SOL    HW133053   2.373   7.395   7.823
10373SOL    HW233054   2.395   7.295   7.696
10374SOL     OW33055   3.277   5.715   7.890
10374SOL    HW133056   3.279   5.689   7.794
10374SOL    HW233057   3.364   5.693   7.933
10375SOL     OW33058   2.051   7.416   8.699
10375SOL    HW133059   2.112   7.351   8.744
10375SOL    HW233060   2.031   7.385   8.606
10376SOL     OW33061   2.835   7.277   8.253
10376SOL    HW133062   2.917   7.220   8.262
10376SOL    HW233063   2.771   7.232   8.190
10377SOL     OW33064   2.246   6.258   7.953
10377SOL    HW133065   2.263   6.163   7.979
10377SOL    HW233066   2.148   6.279   7.963
10378SOL     OW33067   3.387   5.830   9.183
10378SOL    HW133068   3.394   5.845   9.281
10378SOL    HW233069   3.313   5.765   9.164
10379SOL     OW33070   2.555   5.684   7.538
10379SOL    HW133071   2.613   5.605   7.558
10379SOL    HW233072   2.469   5.653   7.497
10380SOL     OW33073   2.589   5.822   9.137
10380SOL    HW133074   2.675   5.778   9.162
10380SOL    HW233075   2.512   5.764   9.167
10381SOL     OW33076   2.688   7.037   8.619
10381SOL    HW133077   2.682   6.998   8.527
10381SOL    HW233078   2.762   6.993   8.669
10382SOL     OW33079   3.147   6.175   8.885
10382SOL    HW133080   3.189   6.144   8.971
10382SOL    HW233081   3.187   6.263   8.859
10383SOL     OW33082   2.665   6.930   8.367
10383SOL    HW133083   2.758   6.937   8.331
10383SOL    HW233084   2.599   6.945   8.293
10384SOL     OW33085   2.787   6.103   8.317
10384SOL    HW133086   2.763   6.088   8.222
10384SOL    HW233087   2.823   6.018   8.356
10385SOL     OW33088   3.275   6.789   7.477
10385SOL    HW133089   3.315   6.724   7.541
10385SOL    HW233090   3.186   6.819   7.511
10386SOL     OW33091   2.127   5.640   7.632
10386SOL    HW133092   2.160   5.712   7.570
10386SOL    HW233093   2.198   5.619   7.699
10387SOL     OW33094   2.844   5.838   7.882
10387SOL    HW133095   2.798   5.861   7.796
10387SOL    HW233096   2.940   5.867   7.877
10388SOL     OW33097   2.893   6.279   8.888
10388SOL    HW133098   2.817   6.214   8.897
10388SOL    HW233099   2.980   6.229   8.884
10389SOL     OW33100   3.080   7.145   8.216
10389SOL    HW133101   3.095   7.223   8.154
10389SOL    HW233102   3.166   7.119   8.258
10390SOL     OW33103   2.364   6.705   8.123
10390SOL    HW133104   2.299   6.690   8.198
10390SOL    HW233105   2.317   6.697   8.035
10391SOL     OW33106   3.118   7.374   8.062
10391SOL    HW133107   3.163   7.435   7.997
10391SOL    HW233108   3.051   7.425   8.116
10392SOL     OW33109   2.860   6.033   7.481
10392SOL    HW133110   2.803   6.113   7.461
10392SOL    HW233111   2.926   6.056   7.552
10393SOL     OW33112   1.975   6.135   8.835
10393SOL    HW133113   2.071   6.129   8.809
10393SOL    HW233114   1.962   6.213   8.896
10394SOL     OW33115   2.436   5.796   8.628
10394SOL    HW133116   2.487   5.765   8.709
10394SOL    HW233117   2.338   5.794   8.648
10395SOL     OW33118   2.742   6.026   8.063
10395SOL    HW133119   2.682   6.073   7.999
10395SOL    HW233120   2.788   5.951   8.015
10396SOL     OW33121   2.893   5.664   8.163
10396SOL    HW133122   2.816   5.676   8.100
10396SOL    HW233123   2.872   5.590   8.227
10397SOL     OW33124   3.259   6.782   8.279
10397SOL    HW133125   3.170   6.740   8.294
10397SOL    HW233126   3.284   6.774   8.182
10398SOL     OW33127   3.324   6.220   8.362
10398SOL    HW133128   3.257   6.148   8.380
10398SOL    HW233129   3.387   6.228   8.440
10399SOL     OW33130   3.733   6.379   7.786
10399SOL    HW133131   3.760   6.334   7.871
10399SOL    HW233132   3.697   6.311   7.722
10400SOL     OW33133   2.371   6.993   7.582
10400SOL    HW133134   2.298   6.960   7.643
10400SOL    HW233135   2.362   6.949   7.493
10401SOL     OW33136   3.610   6.905   8.058
10401SOL    HW133137   3.702   6.905   8.096
10401SOL    HW233138   3.563   6.989   8.085
10402SOL     OW33139   3.209   6.095   7.466
10402SOL    HW133140   3.144   6.100   7.542
10402SOL    HW233141   3.275   6.023   7.484
10403SOL     OW33142   2.399   5.870   7.819
10403SOL    HW133143   2.379   5.773   7.802
10403SOL    HW233144   2.361   5.925   7.745
10404SOL     OW33145   3.611   6.831   8.948
10404SOL    HW133146   3.698   6.785   8.935
10404SOL    HW233147   3.626   6.922   8.986
10405SOL     OW33148   2.872   6.891   8.778
10405SOL    HW133149   2.784   6.861   8.815
10405SOL    HW233150   2.946   6.838   8.819
10406SOL     OW33151   3.015   6.855   8.546
10406SOL    HW133152   2.951   6.867   8.622
10406SOL    HW233153   2.970   6.878   8.460
10407SOL     OW33154   3.442   6.706   8.515
10407SOL    HW133155   3.443   6.780   8.583
10407SOL    HW233156   3.369   6.722   8.450
10408SOL     OW33157   2.799   5.683   8.772
10408SOL    HW133158   2.829   5.656   8.681
10408SOL    HW233159   2.879   5.708   8.827
10409SOL     OW33160   2.798   6.692   9.220
10409SOL    HW133161   2.702   6.713   9.240
10409SOL    HW233162   2.802   6.608   9.166
10410SOL     OW33163   2.618   6.615   7.827
10410SOL    HW133164   2.609   6.589   7.923
10410SOL    HW233165   2.678   6.550   7.780
10411SOL     OW33166   2.318   6.390   8.719
10411SOL    HW133167   2.387   6.395   8.792
10411SOL    HW233168   2.279   6.298   8.717
10412SOL     OW33169   3.112   5.947   8.745
10412SOL    HW133170   3.132   6.031   8.795
10412SOL    HW233171   3.023   5.957   8.700
10413SOL     OW33172   1.910   7.127   8.786
10413SOL    HW133173   1.859   7.197   8.734
10413SOL    HW233174   2.008   7.145   8.778
10414SOL     OW33175   2.206   6.688   7.897
10414SOL    HW133176   2.203   6.763   7.830
10414SOL    HW233177   2.191   6.601   7.850
10415SOL     OW33178   2.391   6.137   8.336
10415SOL    HW133179   2.408   6.190   8.253
10415SOL    HW233180   2.468   6.148   8.398
10416SOL     OW33181   3.112   6.954   7.843
10416SOL    HW133182   3.175   7.027   7.870
10416SOL    HW233183   3.018   6.980   7.865
10417SOL     OW33184   3.166   7.079   8.574
10417SOL    HW133185   3.203   7.088   8.667
10417SOL    HW233186   3.112   6.995   8.568
10418SOL     OW33187   3.371   6.214   7.879
10418SOL    HW133188   3.367   6.255   7.971
10418SOL    HW233189   3.333   6.278   7.812
10419SOL     OW33190   2.181   7.145   8.740
10419SOL    HW133191   2.182   7.087   8.658
10419SOL    HW233192   2.274   7.172   8.763
10420SOL     OW33193   2.358   6.288   9.126
10420SOL    HW133194   2.397   6.334   9.046
10420SOL    HW233195   2.418   6.213   9.154
10421SOL     OW33196   2.826   5.703   9.184
10421SOL    HW133197   2.893   5.777   9.182
10421SOL    HW233198   2.866   5.620   9.144
10422SOL     OW33199   2.377   5.652   9.210
10422SOL    HW133200   2.326   5.591   9.148
10422SOL    HW233201   2.315   5.722   9.245
10423SOL     OW33202   2.455   6.451   8.487
10423SOL    HW133203   2.491   6.544   8.483
10423SOL    HW233204   2.404   6.438   8.572
10424SOL     OW33205   3.150   6.435   8.436
10424SOL    HW133206   3.057   6.402   8.414
10424SOL    HW233207   3.217   6.367   8.406
10425SOL     OW33208   3.035   6.095   7.682
10425SOL    HW133209   3.072   6.027   7.744
10425SOL    HW233210   2.986   6.165   7.734
10426SOL     OW33211   2.170   5.770   8.683
10426SOL    HW133212   2.144   5.801   8.774
10426SOL    HW233213   2.154   5.672   8.674
10427SOL     OW33214   1.930   6.860   8.720
10427SOL    HW133215   1.950   6.810   8.805
10427SOL    HW233216   1.914   6.957   8.742
10428SOL     OW33217   2.602   6.218   8.495
10428SOL    HW133218   2.664   6.195   8.419
10428SOL    HW233219   2.557   6.306   8.475
10429SOL     OW33220   3.484   6.003   7.746
10429SOL    HW133221   3.538   5.946   7.808
10429SOL    HW233222   3.439   6.075   7.799
10430SOL     OW33223   2.890   6.342   8.393
10430SOL    HW133224   2.869   6.358   8.490
10430SOL    HW233225   2.860   6.250   8.368
10431SOL     OW33226   2.881   7.174   9.252
10431SOL    HW133227   2.837   7.211   9.171
10431SOL    HW233228   2.908   7.079   9.235
10432SOL     OW33229   3.717   7.078   9.013
10432SOL    HW133230   3.750   7.096   8.921
10432SOL    HW233231   3.793   7.089   9.078
10433SOL     OW33232   2.243   6.498   9.270
10433SOL    HW133233   2.307   6.525   9.342
10433SOL    HW233234   2.283   6.422   9.218
10434SOL     OW33235   3.360   5.870   7.537
10434SOL    HW133236   3.322   5.786   7.576
10434SOL    HW233237   3.412   5.919   7.607
10435SOL     OW33238   3.186   6.368   7.456
10435SOL    HW133239   3.203   6.269   7.449
10435SOL    HW233240   3.211   6.412   7.370
10436SOL     OW33241   2.926   6.933   8.296
10436SOL    HW133242   2.955   6.846   8.257
10436SOL    HW233243   2.980   7.007   8.257
10437SOL     OW33244   2.195   6.402   8.376
10437SOL    HW133245   2.293   6.414   8.388
10437SOL    HW233246   2.169   6.310   8.405
10438SOL     OW33247   2.154   6.127   8.450
10438SOL    HW133248   2.117   6.034   8.442
10438SOL    HW233249   2.241   6.132   8.402
10439SOL     OW33250   3.001   5.915   9.145
10439SOL    HW133251   2.950   5.964   9.215
10439SOL    HW233252   3.085   5.965   9.123
10440SOL     OW33253   3.023   5.755   8.921
10440SOL    HW133254   3.007   5.810   9.003
10440SOL    HW233255   3.066   5.812   8.851
10441SOL     OW33256   1.915   6.845   7.626
10441SOL    HW133257   1.829   6.893   7.612
10441SOL    HW233258   1.897   6.753   7.661
10442SOL     OW33259   1.969   7.352   8.438
10442SOL    HW133260   1.929   7.272   8.393
10442SOL    HW233261   2.059   7.370   8.400
10443SOL     OW33262   2.363   7.139   8.359
10443SOL    HW133263   2.438   7.150   8.424
10443SOL    HW233264   2.391   7.077   8.286
10444SOL     OW33265   2.794   6.376   8.649
10444SOL    HW133266   2.839   6.349   8.733
10444SOL    HW233267   2.717   6.315   8.631
10445SOL     OW33268   1.911   6.194   8.576
10445SOL    HW133269   1.993   6.180   8.520
10445SOL    HW233270   1.932   6.173   8.671
10446SOL     OW33271   2.095   6.221   9.166
10446SOL    HW133272   2.192   6.242   9.154
10446SOL    HW233273   2.040   6.281   9.108
10447SOL     OW33274   2.653   6.119   7.816
10447SOL    HW133275   2.652   6.034   7.763
10447SOL    HW233276   2.570   6.172   7.795
10448SOL     OW33277   3.499   6.232   8.571
10448SOL    HW133278   3.474   6.169   8.645
10448SOL    HW233279   3.598   6.228   8.556
10449SOL     OW33280   2.039   7.116   9.162
10449SOL    HW133281   2.060   7.200   9.212
10449SOL    HW233282   2.071   7.038   9.214
10450SOL     OW33283   2.606   6.012   8.670
10450SOL    HW133284   2.540   5.940   8.648
10450SOL    HW233285   2.595   6.088   8.607
10451SOL     OW33286   2.804   7.296   9.014
10451SOL    HW133287   2.875   7.245   8.965
10451SOL    HW233288   2.797   7.388   8.975
10452SOL     OW33289   2.288   6.052   7.636
10452SOL    HW133290   2.361   6.115   7.663
10452SOL    HW233291   2.200   6.099   7.640
10453SOL     OW33292   2.004   6.718   8.947
10453SOL    HW133293   2.015   6.692   9.043
10453SOL    HW233294   2.039   6.645   8.888
10454SOL     OW33295   3.130   6.618   8.636
10454SOL    HW133296   3.142   6.550   8.563
10454SOL    HW233297   3.092   6.702   8.597
10455SOL     OW33298   3.242   6.408   7.720
10455SOL    HW133299   3.156   6.418   7.769
10455SOL    HW233300   3.224   6.390   7.624
10456SOL     OW33301   3.667   7.313   8.620
10456SOL    HW133302   3.727   7.343   8.547
10456SOL    HW233303   3.607   7.240   8.587
10457SOL     OW33304   3.057   7.339   8.565
10457SOL    HW133305   3.138   7.391   8.537
10457SOL    HW233306   3.078   7.242   8.566
10458SOL     OW33307   1.990   6.794   8.467
10458SOL    HW133308   1.964   6.818   8.561
10458SOL    HW233309   1.916   6.742   8.425
10459SOL     OW33310   3.642   5.832   7.896
10459SOL    HW133311   3.713   5.796   7.835
10459SOL    HW233312   3.591   5.755   7.935
10460SOL     OW33313   3.274   7.168   7.931
10460SOL    HW133314   3.334   7.205   7.861
10460SOL    HW233315   3.214   7.241   7.965
10461SOL     OW33316   2.060   7.361   9.303
10461SOL    HW133317   2.002   7.301   9.358
10461SOL    HW233318   2.101   7.432   9.361
10462SOL     OW33319   3.152   6.522   8.065
10462SOL    HW133320   3.228   6.460   8.083
10462SOL    HW233321   3.188   6.608   8.028
10463SOL     OW33322   2.611   6.830   8.846
10463SOL    HW133323   2.587   6.895   8.919
10463SOL    HW233324   2.539   6.829   8.777
10464SOL     OW33325   2.522   7.217   7.598
10464SOL    HW133326   2.551   7.232   7.504
10464SOL    HW233327   2.470   7.132   7.603
10465SOL     OW33328   3.416   7.305   8.921
10465SOL    HW133329   3.501   7.255   8.904
10465SOL    HW233330   3.428   7.401   8.896
10466SOL     OW33331   3.706   5.737   8.461
10466SOL    HW133332   3.734   5.647   8.429
10466SOL    HW233333   3.623   5.766   8.413
10467SOL     OW33334   2.094   5.856   8.162
10467SOL    HW133335   2.012   5.905   8.134
10467SOL    HW233336   2.103   5.859   8.261
10468SOL     OW33337   3.066   7.164   7.462
10468SOL    HW133338   3.059   7.073   7.501
10468SOL    HW233339   3.000   7.174   7.388
10469SOL     OW33340   2.682   6.570   8.853
10469SOL    HW133341   2.728   6.545   8.768
10469SOL    HW233342   2.657   6.667   8.851
10470SOL     OW33343   2.767   6.432   7.694
10470SOL    HW133344   2.835   6.466   7.628
10470SOL    HW233345   2.811   6.368   7.756
10471SOL     OW33346   3.335   7.235   7.500
10471SOL    HW133347   3.240   7.209   7.481
10471SOL    HW233348   3.386   7.240   7.415
10472SOL     OW33349   2.205   6.917   8.919
10472SOL    HW133350   2.180   6.997   8.866
10472SOL    HW233351   2.128   6.853   8.921
10473SOL     OW33352   3.456   6.916   8.715
10473SOL    HW133353   3.517   6.878   8.785
10473SOL    HW233354   3.379   6.962   8.760
10474SOL     OW33355   2.997   6.680   8.231
10474SOL    HW133356   2.908   6.642   8.257
10474SOL    HW233357   3.044   6.617   8.169
10475SOL     OW33358   2.909   5.847   8.380
10475SOL    HW133359   2.906   5.814   8.286
10475SOL    HW233360   2.909   5.768   8.442
10476SOL     OW33361   2.470   7.053   7.927
10476SOL    HW133362   2.508   6.999   7.852
10476SOL    HW233363   2.371   7.059   7.918
10477SOL     OW33364   3.700   5.946   8.888
10477SOL    HW133365   3.746   6.029   8.856
10477SOL    HW233366   3.712   5.873   8.820
10478SOL     OW33367   2.163   6.901   7.731
10478SOL    HW133368   2.070   6.891   7.696
10478SOL    HW233369   2.163   6.967   7.806
10479SOL     OW33370   2.018   6.639   9.209
10479SOL    HW133371   1.936   6.603   9.253
10479SOL    HW233372   2.096   6.581   9.231
10480SOL     OW33373   2.562   5.753   8.874
10480SOL    HW133374   2.651   5.731   8.833
10480SOL    HW233375   2.576   5.786   8.968
10481SOL     OW33376   1.948   5.927   7.440
10481SOL    HW133377   1.870   5.914   7.379
10481SOL    HW233378   1.989   6.017   7.424
10482SOL     OW33379   3.241   6.416   8.801
10482SOL    HW133380   3.178   6.480   8.757
10482SOL    HW233381   3.335   6.438   8.775
10483SOL     OW33382   1.895   5.784   7.681
10483SOL    HW133383   1.898   5.846   7.603
10483SOL    HW233384   1.973   5.722   7.677
10484SOL     OW33385   3.034   6.905   7.564
10484SOL    HW133386   2.938   6.877   7.554
10484SOL    HW233387   3.057   6.911   7.661
10485SOL     OW33388   2.507   6.375   8.910
10485SOL    HW133389   2.566   6.454   8.896
10485SOL    HW233390   2.562   6.291   8.909
10486SOL     OW33391   3.308   7.445   8.497
10486SOL    HW133392   3.348   7.492   8.418
10486SOL    HW233393   3.372   7.376   8.530
10487SOL     OW33394   2.563   6.101   9.160
10487SOL    HW133395   2.625   6.148   9.223
10487SOL    HW233396   2.573   6.002   9.169
10488SOL     OW33397   3.330   6.828   9.015
10488SOL    HW133398   3.321   6.813   9.114
10488SOL    HW233399   3.427   6.830   8.991
10489SOL     OW33400   3.484   6.485   8.689
10489SOL    HW133401   3.495   6.401   8.637
10489SOL    HW233402   3.469   6.562   8.627
10490SOL     OW33403   3.104   5.925   7.886
10490SOL    HW133404   3.171   5.851   7.884
10490SOL    HW233405   3.120   5.982   7.966
10491SOL     OW33406   2.447   6.313   8.136
10491SOL    HW133407   2.502   6.394   8.114
10491SOL    HW233408   2.375   6.303   8.067
10492SOL     OW33409   3.579   6.020   9.126
10492SOL    HW133410   3.622   6.002   9.037
10492SOL    HW233411   3.511   5.949   9.145
10493SOL     OW33412   3.570   6.542   8.947
10493SOL    HW133413   3.572   6.642   8.947
10493SOL    HW233414   3.543   6.510   8.856
10494SOL     OW33415   2.756   6.859   7.524
10494SOL    HW133416   2.712   6.873   7.612
10494SOL    HW233417   2.704   6.906   7.452
10495SOL     OW33418   2.755   6.571   8.315
10495SOL    HW133419   2.798   6.487   8.346
10495SOL    HW233420   2.694   6.607   8.386
10496SOL     OW33421   2.951   6.495   7.509
10496SOL    HW133422   2.894   6.490   7.427
10496SOL    HW233423   3.039   6.452   7.490
10497SOL     OW33424   3.668   7.200   8.303
10497SOL    HW133425   3.609   7.181   8.225
10497SOL    HW233426   3.634   7.151   8.383
10498SOL     OW33427   2.098   6.885   9.305
10498SOL    HW133428   2.073   6.796   9.267
10498SOL    HW233429   2.032   6.910   9.376
10499SOL     OW33430   2.076   6.839   8.095
10499SOL    HW133431   2.097   6.794   8.181
10499SOL    HW233432   2.108   6.782   8.019
10500SOL     OW33433   2.519   7.026   9.012
10500SOL    HW133434   2.456   6.977   9.072
10500SOL    HW233435   2.537   7.117   9.050
10501SOL     OW33436   3.739   5.734   8.730
10501SOL    HW133437   3.803   5.659   8.743
10501SOL    HW233438   3.717   5.743   8.632
10502SOL     OW33439   2.283   6.005   8.022
10502SOL    HW133440   2.333   5.951   7.955
10502SOL    HW233441   2.222   5.946   8.074
10503SOL     OW33442   3.521   7.101   8.519
10503SOL    HW133443   3.448   7.084   8.453
10503SOL    HW233444   3.515   7.033   8.593
10504SOL     OW33445   2.226   6.136   8.727
10504SOL    HW133446   2.280   6.069   8.777
10504SOL    HW233447   2.216   6.108   8.632
10505SOL     OW33448   2.677   7.187   8.048
10505SOL    HW133449   2.679   7.282   8.016
10505SOL    HW233450   2.598   7.140   8.009
10506SOL     OW33451   3.289   5.852   8.564
10506SOL    HW133452   3.310   5.755   8.581
10506SOL    HW233453   3.230   5.886   8.637
10507SOL     OW33454   2.901   5.612   8.522
10507SOL    HW133455   2.857   5.548   8.459
10507SOL    HW233456   2.991   5.576   8.548
10508SOL     OW33457   2.649   6.884   7.774
10508SOL    HW133458   2.637   6.788   7.800
10508SOL    HW233459   2.727   6.922   7.824
10509SOL     OW33460   2.482   7.135   8.756
10509SOL    HW133461   2.489   7.106   8.851
10509SOL    HW233462   2.564   7.107   8.707
10510SOL     OW33463   3.267   5.623   7.632
10510SOL    HW133464   3.323   5.555   7.587
10510SOL    HW233465   3.181   5.581   7.662
10511SOL     OW33466   3.147   6.069   8.113
10511SOL    HW133467   3.095   6.153   8.105
10511SOL    HW233468   3.150   6.040   8.208
10512SOL     OW33469   3.466   5.809   8.357
10512SOL    HW133470   3.404   5.839   8.429
10512SOL    HW233471   3.464   5.876   8.282
10513SOL     OW33472   1.908   6.585   7.740
10513SOL    HW133473   2.004   6.565   7.720
10513SOL    HW233474   1.861   6.501   7.763
10514SOL     OW33475   2.757   7.274   7.732
10514SOL    HW133476   2.673   7.243   7.686
10514SOL    HW233477   2.732   7.333   7.809
10515SOL     OW33478   2.077   6.115   9.425
10515SOL    HW133479   1.987   6.125   9.469
10515SOL    HW233480   2.078   6.165   9.339
10516SOL     OW33481   3.661   6.055   9.455
10516SOL    HW133482   3.612   6.118   9.395
10516SOL    HW233483   3.609   6.042   9.540
10517SOL     OW33484   2.067   7.360   9.773
10517SOL    HW133485   2.083   7.436   9.835
10517SOL    HW233486   2.144   7.352   9.709
10518SOL     OW33487   2.030   7.112   9.879
10518SOL    HW133488   2.043   7.206   9.847
10518SOL    HW233489   1.985   7.114   9.968
10519SOL     OW33490   2.429   6.575   9.468
10519SOL    HW133491   2.462   6.636   9.395
10519SOL    HW233492   2.486   6.585   9.549
10520SOL     OW33493   2.032   6.235   9.868
10520SOL    HW133494   1.973   6.164   9.829
10520SOL    HW233495   1.977   6.302   9.916
10521SOL     OW33496   3.691   7.335   9.645
10521SOL    HW133497   3.767   7.320   9.708
10521SOL    HW233498   3.699   7.426   9.604
10522SOL     OW33499   1.919   7.198   9.456
10522SOL    HW133500   1.904   7.099   9.464
10522SOL    HW233501   1.871   7.245   9.530
10523SOL     OW33502   3.551   6.443   9.990
10523SOL    HW133503   3.644   6.449   0.024
10523SOL    HW233504   3.525   6.530   9.948
10524SOL     OW33505   3.509   6.690   9.879
10524SOL    HW133506   3.565   6.773   9.876
10524SOL    HW233507   3.427   6.708   9.934
10525SOL     OW33508   2.425   6.973   9.968
10525SOL    HW133509   2.381   6.887   9.994
10525SOL    HW233510   2.438   6.976   9.869
10526SOL     OW33511   2.661   5.636   9.806
10526SOL    HW133512   2.718   5.713   9.780
10526SOL    HW233513   2.567   5.652   9.775
10527SOL     OW33514   3.544   6.543   9.642
10527SOL    HW133515   3.450   6.533   9.610
10527SOL    HW233516   3.545   6.598   9.726
10528SOL     OW33517   2.436   6.284   9.571
10528SOL    HW133518   2.435   6.373   9.525
10528SOL    HW233519   2.388   6.290   9.658
10529SOL     OW33520   3.425   7.300   9.566
10529SOL    HW133521   3.518   7.310   9.602
10529SOL    HW233522   3.427   7.253   9.478
10530SOL     OW33523   2.899   6.244   9.716
10530SOL    HW133524   2.932   6.212   9.805
10530SOL    HW233525   2.809   6.206   9.697
10531SOL     OW33526   1.881   6.406   0.009
10531SOL    HW133527   1.876   6.385   0.106
10531SOL    HW233528   1.902   6.503   9.997
10532SOL     OW33529   2.707   5.919   9.493
10532SOL    HW133530   2.769   5.955   9.424
10532SOL    HW233531   2.656   5.842   9.455
10533SOL     OW33532   3.158   6.698   9.806
10533SOL    HW133533   3.211   6.716   9.890
10533SOL    HW233534   3.130   6.785   9.766
10534SOL     OW33535   2.849   7.042   9.829
10534SOL    HW133536   2.816   7.120   9.776
10534SOL    HW233537   2.786   7.025   9.906
10535SOL     OW33538   2.212   7.414   0.162
10535SOL    HW133539   2.215   7.315   0.151
10535SOL    HW233540   2.304   7.450   0.173
10536SOL     OW33541   2.177   6.577   9.605
10536SOL    HW133542   2.263   6.573   9.553
10536SOL    HW233543   2.133   6.488   9.601
10537SOL     OW33544   3.001   7.405   9.605
10537SOL    HW133545   2.924   7.354   9.644
10537SOL    HW233546   2.994   7.405   9.505
10538SOL     OW33547   3.544   6.929   9.358
10538SOL    HW133548   3.519   7.024   9.342
10538SOL    HW233549   3.466   6.870   9.336
10539SOL     OW33550   2.314   7.392   9.647
10539SOL    HW133551   2.352   7.430   9.731
10539SOL    HW233552   2.384   7.340   9.598
10540SOL     OW33553   3.302   5.761   9.765
10540SOL    HW133554   3.298   5.712   9.677
10540SOL    HW233555   3.397   5.784   9.786
10541SOL     OW33556   2.313   6.268   9.818
10541SOL    HW133557   2.360   6.187   9.854
10541SOL    HW233558   2.215   6.261   9.835
10542SOL     OW33559   2.556   5.697   9.430
10542SOL    HW133560   2.620   5.621   9.419
10542SOL    HW233561   2.480   5.686   9.365
10543SOL     OW33562   2.140   5.649   9.499
10543SOL    HW133563   2.176   5.724   9.443
10543SOL    HW233564   2.215   5.601   9.544
10544SOL     OW33565   2.808   5.851   9.735
10544SOL    HW133566   2.773   5.878   9.645
10544SOL    HW233567   2.906   5.869   9.740
10545SOL     OW33568   2.274   6.761   0.057
10545SOL    HW133569   2.220   6.818   0.119
10545SOL    HW233570   2.226   6.751   9.970
10546SOL     OW33571   3.247   7.385   9.921
10546SOL    HW133572   3.323   7.444   9.892
10546SOL    HW233573   3.185   7.371   9.844
10547SOL     OW33574   2.887   6.060   9.342
10547SOL    HW133575   2.838   6.146   9.324
10547SOL    HW233576   2.956   6.076   9.412
10548SOL     OW33577   2.702   6.010   9.935
10548SOL    HW133578   2.608   6.042   9.918
10548SOL    HW233579   2.732   5.954   9.858
10549SOL     OW33580   2.318   7.048   9.501
10549SOL    HW133581   2.240   7.032   9.561
10549SOL    HW233582   2.301   7.007   9.412
10550SOL     OW33583   3.235   6.197   9.347
10550SOL    HW133584   3.193   6.160   9.429
10550SOL    HW233585   3.334   6.204   9.360
10551SOL     OW33586   2.421   5.825   9.633
10551SOL    HW133587   2.473   5.771   9.567
10551SOL    HW233588   2.388   5.909   9.590
10552SOL     OW33589   2.610   6.593   9.673
10552SOL    HW133590   2.568   6.555   9.755
10552SOL    HW233591   2.674   6.527   9.635
10553SOL     OW33592   2.146   6.751   9.814
10553SOL    HW133593   2.138   6.839   9.767
10553SOL    HW233594   2.167   6.679   9.747
10554SOL     OW33595   3.082   6.943   9.694
10554SOL    HW133596   3.150   7.016   9.700
10554SOL    HW233597   2.996   6.974   9.734
10555SOL     OW33598   3.580   6.284   9.763
10555SOL    HW133599   3.553   6.322   9.852
10555SOL    HW233600   3.566   6.354   9.693
10556SOL     OW33601   3.066   6.105   9.549
10556SOL    HW133602   3.084   6.025   9.607
10556SOL    HW233603   3.013   6.172   9.600
10557SOL     OW33604   3.507   6.025   9.674
10557SOL    HW133605   3.528   5.956   9.743
10557SOL    HW233606   3.520   6.116   9.713
10558SOL     OW33607   3.382   5.863   9.449
10558SOL    HW133608   3.333   5.784   9.485
10558SOL    HW233609   3.412   5.921   9.525
10559SOL     OW33610   3.085   6.407   9.266
10559SOL    HW133611   3.140   6.330   9.296
10559SOL    HW233612   3.070   6.402   9.167
10560SOL     OW33613   1.890   6.926   9.485
10560SOL    HW133614   1.799   6.945   9.450
10560SOL    HW233615   1.895   6.830   9.513
10561SOL     OW33616   2.663   6.144   9.641
10561SOL    HW133617   2.666   6.060   9.587
10561SOL    HW233618   2.582   6.197   9.615
10562SOL     OW33619   2.321   6.042   9.501
10562SOL    HW133620   2.376   6.124   9.518
10562SOL    HW233621   2.227   6.069   9.481
10563SOL     OW33622   3.271   6.538   9.610
10563SOL    HW133623   3.231   6.593   9.683
10563SOL    HW233624   3.198   6.493   9.558
10564SOL     OW33625   3.590   5.783   9.794
10564SOL    HW133626   3.642   5.790   9.709
10564SOL    HW233627   3.587   5.688   9.824
10565SOL     OW33628   3.260   7.147   9.727
10565SOL    HW133629   3.317   7.198   9.664
10565SOL    HW233630   3.290   7.164   9.821
10566SOL     OW33631   2.515   7.251   9.517
10566SOL    HW133632   2.526   7.298   9.429
10566SOL    HW233633   2.455   7.173   9.506
10567SOL     OW33634   2.794   6.433   9.543
10567SOL    HW133635   2.862   6.497   9.507
10567SOL    HW233636   2.838   6.371   9.607
10568SOL     OW33637   3.410   7.173   9.319
10568SOL    HW133638   3.334   7.110   9.304
10568SOL    HW233639   3.402   7.251   9.257
10569SOL     OW33640   2.477   6.974   9.709
10569SOL    HW133641   2.560   6.929   9.675
10569SOL    HW233642   2.420   7.000   9.631
10570SOL     OW33643   2.102   6.979   9.660
10570SOL    HW133644   2.021   6.965   9.603
10570SOL    HW233645   2.077   7.030   9.742
10571SOL     OW33646   2.033   5.958   9.161
10571SOL    HW133647   1.933   5.950   9.164
10571SOL    HW233648   2.059   6.055   9.163
10572SOL     OW33649   1.914   5.703   9.640
10572SOL    HW133650   1.841   5.730   9.578
10572SOL    HW233651   1.997   5.682   9.588
10573SOL     OW33652   3.121   6.825   9.435
10573SOL    HW133653   3.066   6.741   9.437
10573SOL    HW233654   3.112   6.872   9.523
10574SOL     OW33655   3.073   5.922   9.758
10574SOL    HW133656   3.158   5.872   9.774
10574SOL    HW233657   3.056   5.983   9.835
10575SOL     OW33658   2.476   6.483   9.885
10575SOL    HW133659   2.466   6.504   9.982
10575SOL    HW233660   2.415   6.407   9.861
10576SOL     OW33661   2.676   6.963   9.391
10576SOL    HW133662   2.696   6.927   9.482
10576SOL    HW233663   2.728   7.047   9.376
10577SOL     OW33664   2.970   6.600   9.410
10577SOL    HW133665   2.901   6.642   9.351
10577SOL    HW233666   3.017   6.527   9.360
10578SOL     OW33667   1.927   6.671   9.958
10578SOL    HW133668   1.909   6.739   0.030
10578SOL    HW233669   2.006   6.700   9.904
10579SOL     OW33670   2.425   6.043   9.928
10579SOL    HW133671   2.397   5.951   9.903
10579SOL    HW233672   2.410   6.057   0.026
10580SOL     OW33673   2.709   6.849   9.637
10580SOL    HW133674   2.678   6.755   9.651
10580SOL    HW233675   2.772   6.875   9.711
10581SOL     OW33676   3.260   5.624   9.532
10581SOL    HW133677   3.307   5.553   9.480
10581SOL    HW233678   3.169   5.592   9.558
10582SOL     OW33679   1.924   6.666   9.545
10582SOL    HW133680   2.017   6.636   9.566
10582SOL    HW233681   1.887   6.610   9.471
10583SOL     OW33682   2.751   7.267   9.690
10583SOL    HW133683   2.676   7.247   9.626
10583SOL    HW233684   2.727   7.346   9.746
10584SOL     OW33685   2.034   8.004   0.088
10584SOL    HW133686   1.943   8.019   0.128
10584SOL    HW233687   2.051   8.073   0.018
10585SOL     OW33688   2.089   7.796   1.011
10585SOL    HW133689   2.139   7.754   1.088
10585SOL    HW233690   2.003   7.746   0.997
10586SOL     OW33691   1.853   7.859   0.631
10586SOL    HW133692   1.765   7.877   0.674
10586SOL    HW233693   1.841   7.795   0.555
10587SOL     OW33694   2.384   8.774   1.260
10587SOL    HW133695   2.316   8.797   1.190
10587SOL    HW233696   2.421   8.859   1.299
10588SOL     OW33697   3.468   8.928   0.690
10588SOL    HW133698   3.417   8.903   0.773
10588SOL    HW233699   3.405   8.957   0.619
10589SOL     OW33700   2.984   8.155   0.684
10589SOL    HW133701   3.030   8.240   0.661
10589SOL    HW233702   2.932   8.167   0.768
10590SOL     OW33703   3.619   7.992   0.190
10590SOL    HW133704   3.553   8.048   0.140
10590SOL    HW233705   3.574   7.910   0.224
10591SOL     OW33706   2.533   8.621   1.084
10591SOL    HW133707   2.471   8.667   1.147
10591SOL    HW233708   2.589   8.689   1.036
10592SOL     OW33709   2.515   8.445   0.640
10592SOL    HW133710   2.585   8.441   0.711
10592SOL    HW233711   2.449   8.517   0.662
10593SOL     OW33712   2.603   8.599   1.836
10593SOL    HW133713   2.664   8.667   1.878
10593SOL    HW233714   2.524   8.645   1.795
10594SOL     OW33715   2.215   8.878   1.073
10594SOL    HW133716   2.133   8.832   1.038
10594SOL    HW233717   2.260   8.928   0.999
10595SOL     OW33718   3.313   8.969   1.376
10595SOL    HW133719   3.382   9.040   1.390
10595SOL    HW233720   3.238   8.982   1.441
10596SOL     OW33721   2.319   7.915   1.457
10596SOL    HW133722   2.396   7.910   1.521
10596SOL    HW233723   2.253   7.843   1.477
10597SOL     OW33724   3.460   7.892   0.766
10597SOL    HW133725   3.370   7.914   0.729
10597SOL    HW233726   3.471   7.936   0.856
10598SOL     OW33727   2.132   9.226   0.424
10598SOL    HW133728   2.146   9.288   0.501
10598SOL    HW233729   2.213   9.168   0.412
10599SOL     OW33730   2.992   8.816   1.713
10599SOL    HW133731   3.037   8.797   1.800
10599SOL    HW233732   2.943   8.735   1.682
10600SOL     OW33733   2.131   8.817   0.577
10600SOL    HW133734   2.116   8.905   0.622
10600SOL    HW233735   2.056   8.755   0.599
10601SOL     OW33736   2.109   8.576   0.862
10601SOL    HW133737   2.122   8.486   0.902
10601SOL    HW233738   2.059   8.635   0.926
10602SOL     OW33739   2.553   8.462   0.145
10602SOL    HW133740   2.484   8.532   0.127
10602SOL    HW233741   2.589   8.474   0.237
10603SOL     OW33742   3.562   7.501   1.520
10603SOL    HW133743   3.589   7.552   1.438
10603SOL    HW233744   3.497   7.554   1.573
10604SOL     OW33745   1.968   8.102   0.556
10604SOL    HW133746   1.934   8.014   0.588
10604SOL    HW233747   1.970   8.168   0.631
10605SOL     OW33748   3.762   9.185   0.296
10605SOL    HW133749   3.827   9.175   0.372
10605SOL    HW233750   3.774   9.275   0.254
10606SOL     OW33751   1.839   9.109   0.068
10606SOL    HW133752   1.785   9.025   0.076
10606SOL    HW233753   1.860   9.143   0.160
10607SOL     OW33754   3.412   8.251   0.431
10607SOL    HW133755   3.506   8.222   0.412
10607SOL    HW233756   3.411   8.347   0.458
10608SOL     OW33757   3.507   8.523   0.429
10608SOL    HW133758   3.590   8.490   0.384
10608SOL    HW233759   3.532   8.587   0.502
10609SOL     OW33760   1.948   8.216   1.587
10609SOL    HW133761   2.040   8.254   1.601
10609SOL    HW233762   1.886   8.288   1.557
10610SOL     OW33763   2.497   8.836   0.760
10610SOL    HW133764   2.439   8.754   0.752
10610SOL    HW233765   2.517   8.871   0.669
10611SOL     OW33766   3.111   8.659   1.448
10611SOL    HW133767   3.128   8.585   1.383
10611SOL    HW233768   3.185   8.661   1.516
10612SOL     OW33769   2.695   7.461   0.500
10612SOL    HW133770   2.761   7.530   0.469
10612SOL    HW233771   2.606   7.504   0.516
10613SOL     OW33772   2.047   8.354   1.327
10613SOL    HW133773   2.119   8.286   1.335
10613SOL    HW233774   1.978   8.322   1.262
10614SOL     OW33775   3.316   8.535   0.228
10614SOL    HW133776   3.247   8.466   0.248
10614SOL    HW233777   3.391   8.527   0.294
10615SOL     OW33778   3.215   9.303   1.595
10615SOL    HW133779   3.153   9.368   1.552
10615SOL    HW233780   3.181   9.210   1.581
10616SOL     OW33781   2.087   7.682   1.790
10616SOL    HW133782   2.072   7.779   1.810
10616SOL    HW233783   2.023   7.654   1.718
10617SOL     OW33784   3.345   8.849   0.921
10617SOL    HW133785   3.283   8.878   0.993
10617SOL    HW233786   3.310   8.766   0.878
10618SOL     OW33787   3.546   9.353   0.523
10618SOL    HW133788   3.529   9.275   0.462
10618SOL    HW233789   3.568   9.320   0.615
10619SOL     OW33790   2.427   8.056   0.309
10619SOL    HW133791   2.442   8.124   0.237
10619SOL    HW233792   2.364   8.093   0.377
10620SOL     OW33793   3.494   9.147   0.354
10620SOL    HW133794   3.593   9.142   0.335
10620SOL    HW233795   3.444   9.143   0.267
10621SOL     OW33796   2.678   7.959   1.385
10621SOL    HW133797   2.631   7.940   1.471
10621SOL    HW233798   2.612   7.956   1.310
10622SOL     OW33799   3.214   7.899   1.665
10622SOL    HW133800   3.220   7.949   1.751
10622SOL    HW233801   3.265   7.814   1.672
10623SOL     OW33802   2.849   8.412   1.476
10623SOL    HW133803   2.872   8.315   1.465
10623SOL    HW233804   2.794   8.442   1.398
10624SOL     OW33805   2.871   7.872   1.197
10624SOL    HW133806   2.806   7.895   1.268
10624SOL    HW233807   2.835   7.901   1.108
10625SOL     OW33808   2.902   8.067   0.430
10625SOL    HW133809   2.928   8.090   0.524
10625SOL    HW233810   2.812   8.023   0.430
10626SOL     OW33811   1.997   8.319   0.722
10626SOL    HW133812   2.072   8.315   0.788
10626SOL    HW233813   1.915   8.355   0.766
10627SOL     OW33814   1.965   9.285   1.615
10627SOL    HW133815   1.983   9.284   1.713
10627SOL    HW233816   1.874   9.247   1.597
10628SOL     OW33817   2.739   7.769   0.207
10628SOL    HW133818   2.716   7.844   0.146
10628SOL    HW233819   2.738   7.683   0.156
10629SOL     OW33820   3.506   8.005   1.882
10629SOL    HW133821   3.503   8.089   1.828
10629SOL    HW233822   3.532   7.929   1.823
10630SOL     OW33823   3.228   8.614   0.520
10630SOL    HW133824   3.317   8.600   0.476
10630SOL    HW233825   3.178   8.686   0.473
10631SOL     OW33826   2.448   7.521   0.979
10631SOL    HW133827   2.454   7.578   1.062
10631SOL    HW233828   2.480   7.573   0.901
10632SOL     OW33829   2.866   8.933   0.488
10632SOL    HW133830   2.838   9.003   0.423
10632SOL    HW233831   2.840   8.961   0.581
10633SOL     OW33832   2.221   9.267   0.873
10633SOL    HW133833   2.267   9.178   0.876
10633SOL    HW233834   2.283   9.337   0.908
10634SOL     OW33835   3.102   9.021   1.540
10634SOL    HW133836   3.083   8.937   1.592
10634SOL    HW233837   3.020   9.048   1.490
10635SOL     OW33838   2.372   8.699   1.732
10635SOL    HW133839   2.344   8.682   1.637
10635SOL    HW233840   2.292   8.698   1.791
10636SOL     OW33841   2.956   9.263   0.189
10636SOL    HW133842   2.891   9.207   0.241
10636SOL    HW233843   3.005   9.206   0.124
10637SOL     OW33844   2.088   7.754   1.471
10637SOL    HW133845   2.031   7.836   1.475
10637SOL    HW233846   2.039   7.677   1.513
10638SOL     OW33847   3.549   8.743   0.037
10638SOL    HW133848   3.591   8.833   0.044
10638SOL    HW233849   3.450   8.752   0.047
10639SOL     OW33850   2.395   9.143   0.387
10639SOL    HW133851   2.418   9.238   0.412
10639SOL    HW233852   2.442   9.119   0.303
10640SOL     OW33853   3.306   7.560   0.350
10640SOL    HW133854   3.236   7.537   0.283
10640SOL    HW233855   3.355   7.643   0.322
10641SOL     OW33856   2.056   9.264   1.197
10641SOL    HW133857   2.119   9.195   1.232
10641SOL    HW233858   2.031   9.241   1.102
10642SOL     OW33859   2.794   9.160   0.889
10642SOL    HW133860   2.880   9.109   0.889
10642SOL    HW233861   2.737   9.130   0.813
10643SOL     OW33862   2.241   8.101   0.507
10643SOL    HW133863   2.259   8.003   0.516
10643SOL    HW233864   2.142   8.117   0.511
10644SOL     OW33865   3.345   7.652   1.712
10644SOL    HW133866   3.353   7.648   1.812
10644SOL    HW233867   3.271   7.591   1.682
10645SOL     OW33868   2.471   7.519   0.132
10645SOL    HW133869   2.570   7.506   0.138
10645SOL    HW233870   2.444   7.526   0.036
10646SOL     OW33871   2.604   7.648   1.702
10646SOL    HW133872   2.700   7.622   1.713
10646SOL    HW233873   2.552   7.619   1.783
10647SOL     OW33874   2.714   8.940   1.240
10647SOL    HW133875   2.695   8.919   1.144
10647SOL    HW233876   2.771   8.869   1.280
10648SOL     OW33877   3.132   8.047   1.448
10648SOL    HW133878   3.169   8.002   1.530
10648SOL    HW233879   3.178   8.135   1.435
10649SOL     OW33880   2.670   8.829   0.976
10649SOL    HW133881   2.765   8.824   0.946
10649SOL    HW233882   2.611   8.843   0.897
10650SOL     OW33883   2.429   7.530   0.519
10650SOL    HW133884   2.353   7.525   0.583
10650SOL    HW233885   2.409   7.598   0.449
10651SOL     OW33886   3.282   8.747   0.069
10651SOL    HW133887   3.291   8.666   0.127
10651SOL    HW233888   3.190   8.785   0.080
10652SOL     OW33889   2.879   8.147   1.400
10652SOL    HW133890   2.808   8.077   1.406
10652SOL    HW233891   2.968   8.106   1.418
10653SOL     OW33892   3.042   9.054   0.831
10653SOL    HW133893   3.075   9.096   0.746
10653SOL    HW233894   3.093   9.092   0.908
10654SOL     OW33895   2.318   8.641   0.700
10654SOL    HW133896   2.251   8.609   0.767
10654SOL    HW233897   2.274   8.702   0.634
10655SOL     OW33898   3.112   9.220   0.617
10655SOL    HW133899   3.172   9.280   0.565
10655SOL    HW233900   3.032   9.271   0.649
10656SOL     OW33901   2.885   8.173   9.999
10656SOL    HW133902   2.828   8.255   9.997
10656SOL    HW233903   2.979   8.198   0.024
10657SOL     OW33904   1.976   8.011   1.418
10657SOL    HW133905   2.070   8.033   1.391
10657SOL    HW233906   1.948   8.072   1.492
10658SOL     OW33907   2.455   7.681   1.204
10658SOL    HW133908   2.505   7.648   1.284
10658SOL    HW233909   2.357   7.678   1.222
10659SOL     OW33910   3.263   8.629   0.795
10659SOL    HW133911   3.285   8.534   0.818
10659SOL    HW233912   3.244   8.636   0.697
10660SOL     OW33913   3.284   8.131   0.912
10660SOL    HW133914   3.239   8.065   0.851
10660SOL    HW233915   3.351   8.083   0.969
10661SOL     OW33916   3.670   8.183   0.379
10661SOL    HW133917   3.727   8.150   0.454
10661SOL    HW233918   3.663   8.112   0.308
10662SOL     OW33919   2.334   8.851   0.189
10662SOL    HW133920   2.245   8.861   0.233
10662SOL    HW233921   2.334   8.770   0.131
10663SOL     OW33922   3.597   8.694   0.616
10663SOL    HW133923   3.693   8.695   0.645
10663SOL    HW233924   3.554   8.781   0.640
10664SOL     OW33925   3.331   8.017   0.076
10664SOL    HW133926   3.274   8.022   0.158
10664SOL    HW233927   3.347   7.922   0.051
10665SOL     OW33928   2.353   7.685   0.311
10665SOL    HW133929   2.404   7.624   0.250
10665SOL    HW233930   2.315   7.760   0.257
10666SOL     OW33931   3.592   8.708   1.551
10666SOL    HW133932   3.672   8.647   1.553
10666SOL    HW233933   3.619   8.799   1.581
10667SOL     OW33934   2.867   8.749   1.360
10667SOL    HW133935   2.789   8.718   1.414
10667SOL    HW233936   2.952   8.722   1.404
10668SOL     OW33937   3.478   9.087   1.698
10668SOL    HW133938   3.441   9.132   1.617
10668SOL    HW233939   3.560   9.035   1.674
10669SOL     OW33940   3.019   8.712   1.135
10669SOL    HW133941   2.952   8.726   1.208
10669SOL    HW233942   2.979   8.739   1.047
10670SOL     OW33943   3.419   8.517   1.215
10670SOL    HW133944   3.446   8.609   1.242
10670SOL    HW233945   3.320   8.511   1.207
10671SOL     OW33946   2.837   7.473   1.366
10671SOL    HW133947   2.866   7.443   1.275
10671SOL    HW233948   2.895   7.548   1.396
10672SOL     OW33949   2.849   8.585   1.682
10672SOL    HW133950   2.755   8.585   1.717
10672SOL    HW233951   2.855   8.522   1.604
10673SOL     OW33952   2.651   8.489   0.398
10673SOL    HW133953   2.604   8.466   0.483
10673SOL    HW233954   2.733   8.433   0.389
10674SOL     OW33955   3.126   7.845   1.269
10674SOL    HW133956   3.139   7.922   1.331
10674SOL    HW233957   3.035   7.851   1.227
10675SOL     OW33958   1.950   9.003   1.357
10675SOL    HW133959   1.893   9.056   1.294
10675SOL    HW233960   2.046   9.028   1.344
10676SOL     OW33961   2.407   8.119   0.971
10676SOL    HW133962   2.409   8.131   0.871
10676SOL    HW233963   2.427   8.206   1.015
10677SOL     OW33964   3.108   8.838   0.406
10677SOL    HW133965   3.180   8.901   0.436
10677SOL    HW233966   3.020   8.867   0.445
10678SOL     OW33967   3.197   8.918   1.139
10678SOL    HW133968   3.238   8.933   1.228
10678SOL    HW233969   3.134   8.840   1.144
10679SOL     OW33970   3.350   7.984   0.405
10679SOL    HW133971   3.372   8.078   0.432
10679SOL    HW233972   3.256   7.980   0.372
10680SOL     OW33973   2.209   9.055   1.276
10680SOL    HW133974   2.207   8.990   1.201
10680SOL    HW233975   2.300   9.055   1.318
10681SOL     OW33976   2.227   8.267   1.589
10681SOL    HW133977   2.318   8.304   1.602
10681SOL    HW233978   2.226   8.208   1.509
10682SOL     OW33979   3.496   8.230   1.724
10682SOL    HW133980   3.409   8.274   1.707
10682SOL    HW233981   3.558   8.245   1.647
10683SOL     OW33982   2.864   7.585   1.734
10683SOL    HW133983   2.895   7.679   1.716
10683SOL    HW233984   2.943   7.524   1.737
10684SOL     OW33985   2.275   7.491   1.743
10684SOL    HW133986   2.236   7.439   1.666
10684SOL    HW233987   2.216   7.568   1.765
10685SOL     OW33988   2.412   8.369   1.090
10685SOL    HW133989   2.450   8.459   1.069
10685SOL    HW233990   2.428   8.348   1.187
10686SOL     OW33991   3.096   8.285   1.039
10686SOL    HW133992   3.007   8.256   1.004
10686SOL    HW233993   3.168   8.228   1.000
10687SOL     OW33994   3.117   7.983   0.267
10687SOL    HW133995   3.091   7.904   0.211
10687SOL    HW233996   3.037   8.016   0.317
10688SOL     OW33997   2.186   7.667   1.234
10688SOL    HW133998   2.156   7.706   1.321
10688SOL    HW233999   2.145   7.577   1.222
10689SOL     OW34000   1.996   8.740   1.293
10689SOL    HW134001   2.001   8.675   1.369
10689SOL    HW234002   1.976   8.831   1.328
10690SOL     OW34003   3.607   8.407   1.901
10690SOL    HW134004   3.568   8.335   1.843
10690SOL    HW234005   3.537   8.439   1.965
10691SOL     OW34006   2.200   7.506   0.670
10691SOL    HW134007   2.153   7.592   0.690
10691SOL    HW234008   2.207   7.452   0.753
10692SOL     OW34009   3.475   7.777   0.293
10692SOL    HW134010   3.551   7.740   0.347
10692SOL    HW234011   3.430   7.850   0.345
10693SOL     OW34012   2.841   8.194   0.933
10693SOL    HW134013   2.822   8.234   1.023
10693SOL    HW234014   2.813   8.098   0.933
10694SOL     OW34015   2.846   9.047   1.701
10694SOL    HW134016   2.845   9.076   1.605
10694SOL    HW234017   2.883   8.955   1.708
10695SOL     OW34018   3.701   8.953   1.598
10695SOL    HW134019   3.727   8.971   1.503
10695SOL    HW234020   3.782   8.962   1.657
10696SOL     OW34021   2.209   8.364   1.854
10696SOL    HW134022   2.301   8.380   1.890
10696SOL    HW234023   2.216   8.316   1.767
10697SOL     OW34024   3.360   7.750   0.044
10697SOL    HW134025   3.262   7.750   0.067
10697SOL    HW234026   3.414   7.743   0.128
10698SOL     OW34027   3.164   8.230   0.014
10698SOL    HW134028   3.221   8.148   0.028
10698SOL    HW234029   3.210   8.292   9.951
10699SOL     OW34030   2.926   8.805   0.894
10699SOL    HW134031   2.936   8.727   0.832
10699SOL    HW234032   2.980   8.882   0.859
10700SOL     OW34033   2.168   8.326   0.953
10700SOL    HW134034   2.256   8.349   0.994
10700SOL    HW234035   2.138   8.236   0.986
10701SOL     OW34036   2.160   8.056   1.058
10701SOL    HW134037   2.130   7.963   1.035
10701SOL    HW234038   2.251   8.072   1.019
10702SOL     OW34039   2.949   7.833   1.669
10702SOL    HW134040   2.899   7.886   1.738
10702SOL    HW234041   3.043   7.865   1.666
10703SOL     OW34042   3.005   7.673   1.451
10703SOL    HW134043   2.969   7.735   1.521
10703SOL    HW234044   3.051   7.726   1.380
10704SOL     OW34045   1.963   9.201   0.945
10704SOL    HW134046   1.920   9.129   0.890
10704SOL    HW234047   2.053   9.223   0.907
10705SOL     OW34048   2.356   9.027   0.894
10705SOL    HW134049   2.423   9.091   0.932
10705SOL    HW234050   2.404   8.958   0.839
10706SOL     OW34051   2.787   8.280   1.177
10706SOL    HW134052   2.829   8.226   1.250
10706SOL    HW234053   2.740   8.359   1.217
10707SOL     OW34054   1.922   8.135   1.173
10707SOL    HW134055   2.002   8.108   1.119
10707SOL    HW234056   1.928   8.095   1.264
10708SOL     OW34057   3.278   8.374   1.647
10708SOL    HW134058   3.295   8.472   1.643
10708SOL    HW234059   3.258   8.340   1.555
10709SOL     OW34060   2.652   7.936   0.409
10709SOL    HW134061   2.681   7.870   0.339
10709SOL    HW234062   2.569   7.983   0.378
10710SOL     OW34063   3.472   7.978   1.034
10710SOL    HW134064   3.436   7.904   1.091
10710SOL    HW234065   3.560   8.008   1.071
10711SOL     OW34066   2.063   8.937   1.767
10711SOL    HW134067   2.010   8.976   1.842
10711SOL    HW234068   2.103   8.850   1.796
10712SOL     OW34069   2.544   7.931   1.127
10712SOL    HW134070   2.502   7.843   1.151
10712SOL    HW234071   2.478   7.987   1.078
10713SOL     OW34072   2.856   9.095   1.432
10713SOL    HW134073   2.806   9.043   1.363
10713SOL    HW234074   2.863   9.191   1.403
10714SOL     OW34075   2.272   7.893   0.156
10714SOL    HW134076   2.328   7.952   0.215
10714SOL    HW234077   2.182   7.934   0.143
10715SOL     OW34078   2.012   8.563   1.499
10715SOL    HW134079   2.009   8.536   1.596
10715SOL    HW234080   2.022   8.481   1.442
10716SOL     OW34081   3.146   8.485   1.213
10716SOL    HW134082   3.125   8.410   1.150
10716SOL    HW234083   3.102   8.569   1.181
10717SOL     OW34084   3.142   8.328   0.273
10717SOL    HW134085   3.197   8.268   0.332
10717SOL    HW234086   3.143   8.291   0.180
10718SOL     OW34087   3.622   9.127   1.150
10718SOL    HW134088   3.690   9.164   1.087
10718SOL    HW234089   3.596   9.035   1.120
10719SOL     OW34090   3.158   9.171   1.050
10719SOL    HW134091   3.245   9.221   1.058
10719SOL    HW234092   3.169   9.080   1.091
10720SOL     OW34093   1.977   8.743   1.028
10720SOL    HW134094   1.990   8.729   1.126
10720SOL    HW234095   1.883   8.770   1.011
10721SOL     OW34096   2.591   9.117   1.766
10721SOL    HW134097   2.544   9.166   1.693
10721SOL    HW234098   2.689   9.111   1.743
10722SOL     OW34099   2.749   7.521   0.081
10722SOL    HW134100   2.732   7.511   9.983
10722SOL    HW234101   2.816   7.452   0.110
10723SOL     OW34102   3.676   7.669   0.444
10723SOL    HW134103   3.747   7.626   0.388
10723SOL    HW234104   3.619   7.599   0.486
10724SOL     OW34105   3.288   9.027   0.504
10724SOL    HW134106   3.358   9.073   0.449
10724SOL    HW234107   3.226   9.096   0.542
10725SOL     OW34108   2.008   9.255   1.874
10725SOL    HW134109   1.966   9.171   1.906
10725SOL    HW234110   2.056   9.300   1.950
10726SOL     OW34111   3.119   8.393   0.650
10726SOL    HW134112   3.199   8.373   0.706
10726SOL    HW234113   3.142   8.464   0.584
10727SOL     OW34114   2.604   8.695   1.458
10727SOL    HW134115   2.608   8.757   1.536
10727SOL    HW234116   2.520   8.712   1.406
10728SOL     OW34117   2.551   9.013   0.194
10728SOL    HW134118   2.622   8.970   0.138
10728SOL    HW234119   2.468   8.958   0.190
10729SOL     OW34120   3.505   9.156   1.401
10729SOL    HW134121   3.547   9.154   1.310
10729SOL    HW234122   3.549   9.227   1.457
10730SOL     OW34123   3.701   7.595   1.012
10730SOL    HW134124   3.739   7.509   0.978
10730SOL    HW234125   3.616   7.615   0.964
10731SOL     OW34126   2.090   7.748   0.731
10731SOL    HW134127   2.004   7.788   0.698
10731SOL    HW234128   2.103   7.773   0.827
10732SOL     OW34129   3.107   9.090   0.039
10732SOL    HW134130   3.078   8.998   0.068
10732SOL    HW234131   3.142   9.085   9.946
10733SOL     OW34132   2.664   8.496   1.286
10733SOL    HW134133   2.628   8.536   1.202
10733SOL    HW234134   2.645   8.557   1.363
10734SOL     OW34135   2.872   8.335   0.359
10734SOL    HW134136   2.963   8.362   0.328
10734SOL    HW234137   2.871   8.237   0.379
10735SOL     OW34138   3.363   9.149   0.115
10735SOL    HW134139   3.271   9.113   0.096
10735SOL    HW234140   3.423   9.128   0.039
10736SOL     OW34141   2.278   8.655   1.486
10736SOL    HW134142   2.300   8.693   1.396
10736SOL    HW234143   2.184   8.622   1.485
10737SOL     OW34144   3.483   8.768   1.307
10737SOL    HW134145   3.529   8.739   1.390
10737SOL    HW234146   3.414   8.837   1.329
10738SOL     OW34147   2.921   8.574   0.750
10738SOL    HW134148   2.839   8.520   0.771
10738SOL    HW234149   2.993   8.513   0.717
10739SOL     OW34150   2.937   7.559   0.881
10739SOL    HW134151   2.880   7.482   0.855
10739SOL    HW234152   2.953   7.557   0.980
10740SOL     OW34153   2.528   8.929   0.507
10740SOL    HW134154   2.569   8.868   0.438
10740SOL    HW234155   2.464   8.991   0.462
10741SOL     OW34156   3.688   7.811   1.453
10741SOL    HW134157   3.730   7.892   1.413
10741SOL    HW234158   3.684   7.738   1.384
10742SOL     OW34159   2.090   8.856   0.306
10742SOL    HW134160   1.991   8.853   0.294
10742SOL    HW234161   2.113   8.840   0.403
10743SOL     OW34162   1.992   8.503   1.766
10743SOL    HW134163   1.905   8.484   1.811
10743SOL    HW234164   2.062   8.441   1.802
10744SOL     OW34165   2.584   7.573   1.431
10744SOL    HW134166   2.674   7.538   1.405
10744SOL    HW234167   2.587   7.607   1.524
10745SOL     OW34168   1.954   7.744   0.031
10745SOL    HW134169   1.867   7.755   9.982
10745SOL    HW234170   1.991   7.835   0.052
10746SOL     OW34171   3.248   8.288   1.391
10746SOL    HW134172   3.198   8.351   1.332
10746SOL    HW234173   3.338   8.271   1.352
10747SOL     OW34174   1.980   7.569   0.245
10747SOL    HW134175   1.967   7.634   0.171
10747SOL    HW234176   2.070   7.525   0.236
10748SOL     OW34177   3.030   8.849   0.136
10748SOL    HW134178   2.933   8.832   0.122
10748SOL    HW234179   3.053   8.834   0.233
10749SOL     OW34180   3.397   9.299   1.078
10749SOL    HW134181   3.430   9.369   1.014
10749SOL    HW234182   3.474   9.244   1.109
10750SOL     OW34183   2.527   7.906   1.632
10750SOL    HW134184   2.499   7.957   1.714
10750SOL    HW234185   2.562   7.816   1.660
10751SOL     OW34186   3.330   8.642   1.632
10751SOL    HW134187   3.318   8.663   1.729
10751SOL    HW234188   3.422   8.668   1.602
10752SOL     OW34189   2.205   9.136   1.642
10752SOL    HW134190   2.129   9.193   1.613
10752SOL    HW234191   2.170   9.053   1.686
10753SOL     OW34192   3.500   8.267   1.275
10753SOL    HW134193   3.543   8.213   1.203
10753SOL    HW234194   3.480   8.358   1.240
10754SOL     OW34195   2.402   8.197   0.710
10754SOL    HW134196   2.446   8.281   0.678
10754SOL    HW234197   2.345   8.159   0.636
10755SOL     OW34198   3.571   7.803   1.702
10755SOL    HW134199   3.606   7.813   1.609
10755SOL    HW234200   3.487   7.748   1.700
10756SOL     OW34201   3.637   8.317   1.505
10756SOL    HW134202   3.660   8.415   1.499
10756SOL    HW234203   3.585   8.291   1.423
10757SOL     OW34204   2.749   8.830   0.094
10757SOL    HW134205   2.730   8.799   0.187
10757SOL    HW234206   2.677   8.797   0.033
10758SOL     OW34207   2.527   9.216   0.971
10758SOL    HW134208   2.503   9.312   0.965
10758SOL    HW234209   2.627   9.206   0.963
10759SOL     OW34210   2.703   8.423   0.842
10759SOL    HW134211   2.748   8.336   0.861
10759SOL    HW234212   2.675   8.465   0.928
10760SOL     OW34213   3.676   9.013   0.851
10760SOL    HW134214   3.614   8.995   0.775
10760SOL    HW234215   3.656   8.951   0.927
10761SOL     OW34216   2.147   8.702   1.873
10761SOL    HW134217   2.083   8.633   1.839
10761SOL    HW234218   2.127   8.722   1.969
10762SOL     OW34219   1.952   8.622   0.640
10762SOL    HW134220   2.001   8.597   0.724
10762SOL    HW234221   1.973   8.555   0.569
10763SOL     OW34222   2.575   8.864   1.665
10763SOL    HW134223   2.490   8.819   1.693
10763SOL    HW234224   2.578   8.957   1.702
10764SOL     OW34225   3.689   7.591   1.288
10764SOL    HW134226   3.763   7.525   1.302
10764SOL    HW234227   3.677   7.607   1.190
10765SOL     OW34228   2.260   7.839   0.527
10765SOL    HW134229   2.292   7.772   0.460
10765SOL    HW234230   2.207   7.792   0.598
10766SOL     OW34231   3.572   8.865   1.064
10766SOL    HW134232   3.490   8.857   1.008
10766SOL    HW234233   3.554   8.825   1.154
10767SOL     OW34234   2.214   8.122   1.329
10767SOL    HW134235   2.268   8.050   1.373
10767SOL    HW234236   2.209   8.104   1.231
10768SOL     OW34237   2.680   9.101   0.652
10768SOL    HW134238   2.679   9.188   0.603
10768SOL    HW234239   2.622   9.035   0.605
10769SOL     OW34240   3.351   7.749   1.152
10769SOL    HW134241   3.361   7.658   1.190
10769SOL    HW234242   3.268   7.791   1.188
10770SOL     OW34243   2.928   7.388   1.118
10770SOL    HW134244   2.863   7.349   1.052
10770SOL    HW234245   3.020   7.353   1.098
10771SOL     OW34246   2.695   8.757   0.352
10771SOL    HW134247   2.683   8.660   0.373
10771SOL    HW234248   2.767   8.795   0.411
10772SOL     OW34249   2.474   9.011   1.358
10772SOL    HW134250   2.479   9.077   1.434
10772SOL    HW234251   2.564   9.000   1.317
10773SOL     OW34252   3.123   7.514   0.131
10773SOL    HW134253   3.177   7.469   0.060
10773SOL    HW234254   3.049   7.453   0.160
10774SOL     OW34255   3.174   7.952   0.738
10774SOL    HW134256   3.106   8.018   0.706
10774SOL    HW234257   3.137   7.859   0.730
10775SOL     OW34258   3.456   7.658   0.916
10775SOL    HW134259   3.409   7.699   0.995
10775SOL    HW234260   3.457   7.724   0.841
10776SOL     OW34261   1.932   8.453   0.221
10776SOL    HW134262   1.952   8.434   0.317
10776SOL    HW234263   1.836   8.435   0.203
10777SOL     OW34264   2.761   9.131   0.328
10777SOL    HW134265   2.683   9.091   0.280
10777SOL    HW234266   2.730   9.202   0.391
10778SOL     OW34267   2.141   7.711   2.846
10778SOL    HW134268   2.164   7.673   2.936
10778SOL    HW234269   2.041   7.717   2.838
10779SOL     OW34270   2.415   8.771   3.083
10779SOL    HW134271   2.342   8.777   3.015
10779SOL    HW234272   2.431   8.860   3.124
10780SOL     OW34273   3.482   8.965   2.579
10780SOL    HW134274   3.430   8.944   2.662
10780SOL    HW234275   3.420   8.993   2.506
10781SOL     OW34276   3.005   8.237   2.544
10781SOL    HW134277   3.060   8.321   2.537
10781SOL    HW234278   2.953   8.239   2.629
10782SOL     OW34279   3.623   8.037   2.126
10782SOL    HW134280   3.578   8.022   2.038
10782SOL    HW234281   3.555   8.055   2.197
10783SOL     OW34282   2.565   8.581   2.929
10783SOL    HW134283   2.503   8.617   2.999
10783SOL    HW234284   2.604   8.657   2.877
10784SOL     OW34285   2.717   8.191   3.664
10784SOL    HW134286   2.730   8.221   3.759
10784SOL    HW234287   2.748   8.264   3.602
10785SOL     OW34288   2.562   8.420   2.518
10785SOL    HW134289   2.633   8.428   2.588
10785SOL    HW234290   2.488   8.484   2.537
10786SOL     OW34291   2.505   8.594   3.723
10786SOL    HW134292   2.545   8.669   3.776
10786SOL    HW234293   2.434   8.630   3.662
10787SOL     OW34294   2.212   8.857   2.910
10787SOL    HW134295   2.144   8.797   2.867
10787SOL    HW234296   2.254   8.914   2.840
10788SOL     OW34297   3.295   8.957   3.251
10788SOL    HW134298   3.353   9.037   3.265
10788SOL    HW234299   3.209   8.969   3.301
10789SOL     OW34300   2.348   7.797   3.307
10789SOL    HW134301   2.432   7.746   3.326
10789SOL    HW234302   2.269   7.747   3.342
10790SOL     OW34303   2.098   9.172   2.316
10790SOL    HW134304   2.108   9.250   2.379
10790SOL    HW234305   2.177   9.169   2.254
10791SOL     OW34306   2.103   8.903   2.370
10791SOL    HW134307   2.099   9.003   2.363
10791SOL    HW234308   2.058   8.874   2.454
10792SOL     OW34309   2.216   8.528   2.786
10792SOL    HW134310   2.208   8.431   2.809
10792SOL    HW234311   2.133   8.576   2.814
10793SOL     OW34312   2.477   9.195   3.416
10793SOL    HW134313   2.381   9.200   3.443
10793SOL    HW234314   2.506   9.285   3.383
10794SOL     OW34315   2.455   8.471   2.042
10794SOL    HW134316   2.508   8.506   1.965
10794SOL    HW234317   2.505   8.487   2.127
10795SOL     OW34318   3.574   7.595   3.379
10795SOL    HW134319   3.524   7.549   3.306
10795SOL    HW234320   3.608   7.683   3.347
10796SOL     OW34321   2.017   8.146   2.406
10796SOL    HW134322   2.002   8.049   2.426
10796SOL    HW234323   2.017   8.199   2.490
10797SOL     OW34324   3.723   9.224   2.178
10797SOL    HW134325   3.791   9.212   2.250
10797SOL    HW234326   3.733   9.315   2.137
10798SOL     OW34327   1.902   9.021   1.970
10798SOL    HW134328   1.869   8.928   1.985
10798SOL    HW234329   1.881   9.077   2.051
10799SOL     OW34330   3.594   8.396   2.531
10799SOL    HW134331   3.690   8.381   2.552
10799SOL    HW234332   3.586   8.444   2.443
10800SOL     OW34333   3.522   8.577   2.299
10800SOL    HW134334   3.613   8.582   2.258
10800SOL    HW234335   3.521   8.629   2.384
10801SOL     OW34336   1.956   8.238   3.411
10801SOL    HW134337   2.004   8.312   3.459
10801SOL    HW234338   1.872   8.274   3.372
10802SOL     OW34339   2.476   8.842   2.571
10802SOL    HW134340   2.441   8.749   2.583
10802SOL    HW234341   2.464   8.870   2.476
10803SOL     OW34342   3.083   8.662   3.312
10803SOL    HW134343   3.104   8.593   3.243
10803SOL    HW234344   3.159   8.670   3.376
10804SOL     OW34345   2.095   8.409   3.122
10804SOL    HW134346   2.178   8.358   3.143
10804SOL    HW234347   2.062   8.386   3.031
10805SOL     OW34348   3.396   8.483   2.073
10805SOL    HW134349   3.321   8.422   2.097
10805SOL    HW234350   3.443   8.513   2.156
10806SOL     OW34351   3.018   9.250   3.460
10806SOL    HW134352   3.040   9.323   3.396
10806SOL    HW234353   3.035   9.161   3.418
10807SOL     OW34354   2.234   7.725   3.709
10807SOL    HW134355   2.263   7.798   3.770
10807SOL    HW234356   2.152   7.753   3.659
10808SOL     OW34357   3.351   8.879   2.798
10808SOL    HW134358   3.283   8.905   2.866
10808SOL    HW234359   3.339   8.782   2.774
10809SOL     OW34360   3.499   9.354   2.397
10809SOL    HW134361   3.507   9.260   2.365
10809SOL    HW234362   3.504   9.356   2.497
10810SOL     OW34363   2.433   8.193   2.076
10810SOL    HW134364   2.441   8.292   2.066
10810SOL    HW234365   2.374   8.172   2.154
10811SOL     OW34366   3.263   7.864   2.737
10811SOL    HW134367   3.198   7.791   2.717
10811SOL    HW234368   3.305   7.848   2.826
10812SOL     OW34369   3.461   9.142   2.195
10812SOL    HW134370   3.558   9.165   2.185
10812SOL    HW234371   3.421   9.126   2.105
10813SOL     OW34372   2.660   8.036   3.319
10813SOL    HW134373   2.629   7.999   3.406
10813SOL    HW234374   2.640   7.971   3.246
10814SOL     OW34375   2.818   8.383   3.477
10814SOL    HW134376   2.876   8.312   3.437
10814SOL    HW234377   2.759   8.421   3.406
10815SOL     OW34378   2.865   7.836   2.997
10815SOL    HW134379   2.783   7.841   3.054
10815SOL    HW234380   2.879   7.742   2.966
10816SOL     OW34381   2.945   8.198   2.264
10816SOL    HW134382   2.960   8.204   2.363
10816SOL    HW234383   2.852   8.166   2.247
10817SOL     OW34384   2.011   8.271   2.649
10817SOL    HW134385   2.089   8.269   2.711
10817SOL    HW234386   1.945   8.339   2.680
10818SOL     OW34387   1.982   9.300   3.391
10818SOL    HW134388   1.940   9.292   3.482
10818SOL    HW234389   1.949   9.226   3.333
10819SOL     OW34390   2.693   7.858   2.087
10819SOL    HW134391   2.724   7.889   1.997
10819SOL    HW234392   2.770   7.815   2.135
10820SOL     OW34393   3.514   8.088   3.726
10820SOL    HW134394   3.515   8.176   3.679
10820SOL    HW234395   3.547   8.016   3.664
10821SOL     OW34396   3.242   8.632   2.354
10821SOL    HW134397   3.333   8.620   2.313
10821SOL    HW234398   3.196   8.709   2.311
10822SOL     OW34399   2.504   7.704   2.783
10822SOL    HW134400   2.492   7.687   2.880
10822SOL    HW234401   2.468   7.795   2.761
10823SOL     OW34402   2.867   8.942   2.335
10823SOL    HW134403   2.836   9.014   2.273
10823SOL    HW234404   2.832   8.960   2.427
10824SOL     OW34405   2.186   9.255   2.716
10824SOL    HW134406   2.228   9.164   2.713
10824SOL    HW234407   2.254   9.322   2.745
10825SOL     OW34408   3.662   8.523   2.788
10825SOL    HW134409   3.617   8.510   2.700
10825SOL    HW234410   3.595   8.520   2.861
10826SOL     OW34411   3.047   8.982   3.372
10826SOL    HW134412   3.015   8.949   3.461
10826SOL    HW234413   2.990   8.943   3.299
10827SOL     OW34414   2.175   8.488   2.119
10827SOL    HW134415   2.274   8.501   2.115
10827SOL    HW234416   2.146   8.430   2.043
10828SOL     OW34417   3.358   8.268   2.556
10828SOL    HW134418   3.345   8.219   2.643
10828SOL    HW234419   3.447   8.312   2.556
10829SOL     OW34420   2.297   8.748   3.595
10829SOL    HW134421   2.272   8.768   3.500
10829SOL    HW234422   2.217   8.719   3.645
10830SOL     OW34423   2.970   9.240   2.040
10830SOL    HW134424   2.894   9.208   2.096
10830SOL    HW234425   3.008   9.164   1.987
10831SOL     OW34426   2.112   7.667   3.369
10831SOL    HW134427   2.082   7.736   3.434
10831SOL    HW234428   2.064   7.581   3.388
10832SOL     OW34429   3.497   8.857   1.967
10832SOL    HW134430   3.457   8.948   1.957
10832SOL    HW234431   3.430   8.788   1.939
10833SOL     OW34432   2.332   9.218   2.178
10833SOL    HW134433   2.375   9.283   2.241
10833SOL    HW234434   2.402   9.176   2.120
10834SOL     OW34435   3.316   7.492   2.334
10834SOL    HW134436   3.267   7.465   2.251
10834SOL    HW234437   3.396   7.547   2.309
10835SOL     OW34438   2.070   9.250   3.064
10835SOL    HW134439   2.123   9.169   3.087
10835SOL    HW234440   2.029   9.239   2.973
10836SOL     OW34441   2.768   9.175   2.724
10836SOL    HW134442   2.860   9.135   2.731
10836SOL    HW234443   2.715   9.126   2.655
10837SOL     OW34444   2.275   8.132   2.292
10837SOL    HW134445   2.289   8.033   2.298
10837SOL    HW234446   2.182   8.155   2.320
10838SOL     OW34447   3.391   7.707   3.562
10838SOL    HW134448   3.403   7.684   3.659
10838SOL    HW234449   3.449   7.647   3.507
10839SOL     OW34450   2.466   7.537   1.932
10839SOL    HW134451   2.513   7.450   1.947
10839SOL    HW234452   2.390   7.523   1.869
10840SOL     OW34453   2.654   7.699   3.605
10840SOL    HW134454   2.742   7.657   3.583
10840SOL    HW234455   2.615   7.654   3.685
10841SOL     OW34456   2.676   8.956   3.047
10841SOL    HW134457   2.663   8.907   2.961
10841SOL    HW234458   2.755   8.918   3.095
10842SOL     OW34459   3.131   8.041   3.314
10842SOL    HW134460   3.161   7.995   3.397
10842SOL    HW234461   3.180   8.127   3.303
10843SOL     OW34462   2.650   8.809   2.804
10843SOL    HW134463   2.746   8.822   2.780
10843SOL    HW234464   2.593   8.823   2.723
10844SOL     OW34465   2.239   7.569   2.204
10844SOL    HW134466   2.216   7.569   2.301
10844SOL    HW234467   2.311   7.636   2.187
10845SOL     OW34468   3.296   8.677   1.905
10845SOL    HW134469   3.331   8.601   1.960
10845SOL    HW234470   3.207   8.705   1.940
10846SOL     OW34471   2.045   7.543   2.015
10846SOL    HW134472   2.069   7.603   1.938
10846SOL    HW234473   2.115   7.550   2.086
10847SOL     OW34474   2.915   7.771   2.218
10847SOL    HW134475   2.952   7.679   2.229
10847SOL    HW234476   2.902   7.812   2.308
10848SOL     OW34477   2.892   8.175   3.299
10848SOL    HW134478   2.813   8.116   3.316
10848SOL    HW234479   2.976   8.121   3.305
10849SOL     OW34480   3.024   9.084   2.689
10849SOL    HW134481   3.061   9.126   2.605
10849SOL    HW234482   3.071   9.123   2.768
10850SOL     OW34483   2.362   8.596   2.573
10850SOL    HW134484   2.315   8.570   2.657
10850SOL    HW234485   2.296   8.601   2.498
10851SOL     OW34486   3.098   9.244   2.473
10851SOL    HW134487   3.151   9.302   2.411
10851SOL    HW234488   3.015   9.292   2.500
10852SOL     OW34489   2.842   7.972   1.879
10852SOL    HW134490   2.805   8.060   1.851
10852SOL    HW234491   2.913   7.987   1.948
10853SOL     OW34492   1.980   8.005   3.261
10853SOL    HW134493   2.078   7.997   3.241
10853SOL    HW234494   1.965   8.086   3.317
10854SOL     OW34495   2.462   7.659   3.052
10854SOL    HW134496   2.514   7.611   3.123
10854SOL    HW234497   2.364   7.653   3.073
10855SOL     OW34498   2.884   7.500   2.632
10855SOL    HW134499   2.802   7.553   2.610
10855SOL    HW234500   2.859   7.404   2.645
10856SOL     OW34501   3.341   8.615   2.716
10856SOL    HW134502   3.266   8.563   2.675
10856SOL    HW234503   3.410   8.636   2.646
10857SOL     OW34504   3.310   8.130   2.785
10857SOL    HW134505   3.279   8.037   2.765
10857SOL    HW234506   3.381   8.127   2.855
10858SOL     OW34507   3.709   8.280   2.239
10858SOL    HW134508   3.773   8.252   2.311
10858SOL    HW234509   3.692   8.203   2.177
10859SOL     OW34510   2.351   8.885   2.052
10859SOL    HW134511   2.253   8.875   2.073
10859SOL    HW234512   2.380   8.810   1.993
10860SOL     OW34513   3.534   8.701   2.538
10860SOL    HW134514   3.633   8.683   2.536
10860SOL    HW234515   3.519   8.799   2.544
10861SOL     OW34516   3.224   8.020   1.905
10861SOL    HW134517   3.165   7.998   1.982
10861SOL    HW234518   3.320   8.005   1.931
10862SOL     OW34519   2.461   7.720   2.138
10862SOL    HW134520   2.460   7.655   2.061
10862SOL    HW234521   2.540   7.780   2.129
10863SOL     OW34522   3.615   8.629   3.327
10863SOL    HW134523   3.691   8.657   3.269
10863SOL    HW234524   3.613   8.687   3.409
10864SOL     OW34525   2.875   8.807   3.214
10864SOL    HW134526   2.784   8.776   3.241
10864SOL    HW234527   2.944   8.752   3.260
10865SOL     OW34528   3.376   9.079   3.532
10865SOL    HW134529   3.422   9.114   3.451
10865SOL    HW234530   3.321   8.999   3.507
10866SOL     OW34531   3.011   8.736   2.988
10866SOL    HW134532   2.951   8.761   3.064
10866SOL    HW234533   2.970   8.764   2.901
10867SOL     OW34534   3.451   8.538   2.963
10867SOL    HW134535   3.445   8.613   3.027
10867SOL    HW234536   3.395   8.558   2.882
10868SOL     OW34537   2.798   7.577   3.214
10868SOL    HW134538   2.832   7.500   3.160
10868SOL    HW234539   2.875   7.626   3.254
10869SOL     OW34540   2.825   8.629   3.612
10869SOL    HW134541   2.729   8.639   3.637
10869SOL    HW234542   2.838   8.546   3.558
10870SOL     OW34543   2.613   8.509   2.261
10870SOL    HW134544   2.598   8.469   2.351
10870SOL    HW234545   2.697   8.472   2.221
10871SOL     OW34546   2.315   8.254   3.161
10871SOL    HW134547   2.382   8.267   3.235
10871SOL    HW234548   2.280   8.161   3.163
10872SOL     OW34549   3.117   7.859   3.110
10872SOL    HW134550   3.121   7.933   3.177
10872SOL    HW234551   3.029   7.862   3.063
10873SOL     OW34552   1.923   9.004   3.204
10873SOL    HW134553   1.870   9.061   3.141
10873SOL    HW234554   2.020   9.014   3.185
10874SOL     OW34555   2.174   8.630   2.378
10874SOL    HW134556   2.163   8.727   2.356
10874SOL    HW234557   2.167   8.576   2.295
10875SOL     OW34558   2.408   7.974   2.699
10875SOL    HW134559   2.414   8.039   2.623
10875SOL    HW234560   2.471   8.002   2.772
10876SOL     OW34561   3.118   8.861   2.254
10876SOL    HW134562   3.186   8.919   2.298
10876SOL    HW234563   3.027   8.883   2.289
10877SOL     OW34564   3.186   8.943   3.003
10877SOL    HW134565   3.231   8.946   3.092
10877SOL    HW234566   3.124   8.864   2.999
10878SOL     OW34567   3.477   8.144   2.331
10878SOL    HW134568   3.412   8.176   2.400
10878SOL    HW234569   3.544   8.216   2.314
10879SOL     OW34570   2.188   9.008   3.132
10879SOL    HW134571   2.190   8.950   3.050
10879SOL    HW234572   2.282   9.027   3.161
10880SOL     OW34573   2.364   8.141   3.538
10880SOL    HW134574   2.407   8.197   3.468
10880SOL    HW234575   2.425   8.067   3.564
10881SOL     OW34576   3.511   8.314   3.572
10881SOL    HW134577   3.416   8.338   3.555
10881SOL    HW234578   3.562   8.319   3.486
10882SOL     OW34579   2.881   7.578   3.521
10882SOL    HW134580   2.924   7.638   3.454
10882SOL    HW234581   2.920   7.486   3.513
10883SOL     OW34582   2.362   7.498   3.636
10883SOL    HW134583   2.306   7.442   3.575
10883SOL    HW234584   2.313   7.583   3.657
10884SOL     OW34585   2.471   8.316   2.943
10884SOL    HW134586   2.502   8.410   2.933
10884SOL    HW234587   2.418   8.306   3.027
10885SOL     OW34588   3.131   8.312   2.889
10885SOL    HW134589   3.041   8.284   2.857
10885SOL    HW234590   3.201   8.252   2.852
10886SOL     OW34591   3.024   7.990   2.092
10886SOL    HW134592   2.994   7.905   2.135
10886SOL    HW234593   3.006   8.067   2.155
10887SOL     OW34594   2.193   7.624   3.099
10887SOL    HW134595   2.159   7.652   3.190
10887SOL    HW234596   2.178   7.526   3.086
10888SOL     OW34597   1.942   8.744   3.097
10888SOL    HW134598   1.967   8.681   3.170
10888SOL    HW234599   1.924   8.835   3.136
10889SOL     OW34600   2.568   8.063   2.894
10889SOL    HW134601   2.656   8.051   2.850
10889SOL    HW234602   2.546   8.160   2.901
10890SOL     OW34603   3.617   8.508   3.734
10890SOL    HW134604   3.585   8.436   3.673
10890SOL    HW234605   3.563   8.507   3.819
10891SOL     OW34606   2.186   7.532   2.475
10891SOL    HW134607   2.201   7.625   2.508
10891SOL    HW234608   2.196   7.468   2.552
10892SOL     OW34609   2.877   8.226   2.813
10892SOL    HW134610   2.850   8.247   2.908
10892SOL    HW234611   2.857   8.130   2.794
10893SOL     OW34612   2.262   8.354   3.679
10893SOL    HW134613   2.317   8.377   3.759
10893SOL    HW234614   2.303   8.276   3.631
10894SOL     OW34615   3.362   7.649   1.988
10894SOL    HW134616   3.292   7.585   2.020
10894SOL    HW234617   3.423   7.672   2.063
10895SOL     OW34618   3.149   8.276   1.862
10895SOL    HW134619   3.173   8.179   1.870
10895SOL    HW234620   3.195   8.315   1.783
10896SOL     OW34621   2.913   8.839   2.752
10896SOL    HW134622   2.934   8.761   2.693
10896SOL    HW234623   2.962   8.920   2.719
10897SOL     OW34624   2.212   8.258   2.845
10897SOL    HW134625   2.308   8.277   2.863
10897SOL    HW234626   2.193   8.161   2.865
10898SOL     OW34627   2.200   7.974   2.877
10898SOL    HW134628   2.171   7.879   2.872
10898SOL    HW234629   2.273   7.990   2.810
10899SOL     OW34630   3.015   7.719   3.327
10899SOL    HW134631   3.068   7.758   3.403
10899SOL    HW234632   3.054   7.749   3.240
10900SOL     OW34633   1.845   8.754   2.028
10900SOL    HW134634   1.756   8.770   1.985
10900SOL    HW234635   1.848   8.661   2.065
10901SOL     OW34636   1.937   9.222   2.820
10901SOL    HW134637   1.879   9.159   2.767
10901SOL    HW234638   2.024   9.234   2.773
10902SOL     OW34639   2.339   9.024   2.731
10902SOL    HW134640   2.401   9.101   2.748
10902SOL    HW234641   2.384   8.959   2.670
10903SOL     OW34642   2.781   8.263   3.064
10903SOL    HW134643   2.837   8.240   3.144
10903SOL    HW234644   2.687   8.235   3.080
10904SOL     OW34645   1.937   7.981   2.995
10904SOL    HW134646   2.023   8.007   2.952
10904SOL    HW234647   1.944   7.989   3.094
10905SOL     OW34648   2.100   8.083   3.591
10905SOL    HW134649   2.196   8.099   3.570
10905SOL    HW234650   2.043   8.136   3.527
10906SOL     OW34651   3.261   8.397   3.501
10906SOL    HW134652   3.272   8.496   3.490
10906SOL    HW234653   3.243   8.356   3.411
10907SOL     OW34654   2.694   8.113   2.191
10907SOL    HW134655   2.694   8.017   2.164
10907SOL    HW234656   2.613   8.158   2.155
10908SOL     OW34657   3.490   8.069   2.975
10908SOL    HW134658   3.445   7.981   2.991
10908SOL    HW234659   3.588   8.054   2.958
10909SOL     OW34660   2.053   8.976   3.610
10909SOL    HW134661   2.003   9.017   3.686
10909SOL    HW234662   2.069   8.879   3.630
10910SOL     OW34663   2.610   7.886   3.097
10910SOL    HW134664   2.552   7.805   3.088
10910SOL    HW234665   2.586   7.952   3.026
10911SOL     OW34666   2.013   8.577   3.314
10911SOL    HW134667   2.029   8.538   3.405
10911SOL    HW234668   2.043   8.513   3.244
10912SOL     OW34669   3.116   8.497   3.087
10912SOL    HW134670   3.127   8.428   3.015
10912SOL    HW234671   3.084   8.583   3.046
10913SOL     OW34672   3.180   8.327   2.129
10913SOL    HW134673   3.109   8.285   2.185
10913SOL    HW234674   3.163   8.307   2.032
10914SOL     OW34675   3.673   9.188   3.032
10914SOL    HW134676   3.739   9.211   2.961
10914SOL    HW234677   3.626   9.103   3.009
10915SOL     OW34678   3.131   9.195   2.914
10915SOL    HW134679   3.217   9.247   2.908
10915SOL    HW234680   3.149   9.106   2.955
10916SOL     OW34681   1.987   8.666   2.840
10916SOL    HW134682   1.963   8.696   2.932
10916SOL    HW234683   1.921   8.598   2.809
10917SOL     OW34684   3.291   9.044   2.386
10917SOL    HW134685   3.348   9.081   2.313
10917SOL    HW234686   3.224   9.113   2.414
10918SOL     OW34687   3.168   8.459   2.542
10918SOL    HW134688   3.238   8.388   2.544
10918SOL    HW234689   3.187   8.523   2.468
10919SOL     OW34690   2.619   8.724   3.266
10919SOL    HW134691   2.590   8.764   3.353
10919SOL    HW234692   2.547   8.735   3.198
10920SOL     OW34693   2.529   9.093   2.029
10920SOL    HW134694   2.546   9.112   1.933
10920SOL    HW234695   2.465   9.015   2.037
10921SOL     OW34696   3.483   9.162   3.287
10921SOL    HW134697   3.543   9.143   3.209
10921SOL    HW234698   3.511   9.247   3.331
10922SOL     OW34699   3.670   7.588   2.796
10922SOL    HW134700   3.706   7.495   2.792
10922SOL    HW234701   3.614   7.606   2.715
10923SOL     OW34702   2.249   7.770   2.595
10923SOL    HW134703   2.310   7.847   2.615
10923SOL    HW234704   2.207   7.738   2.680
10924SOL     OW34705   3.087   9.044   1.893
10924SOL    HW134706   3.076   8.952   1.930
10924SOL    HW234707   3.038   9.052   1.807
10925SOL     OW34708   2.677   8.462   3.258
10925SOL    HW134709   2.728   8.442   3.174
10925SOL    HW234710   2.656   8.560   3.261
10926SOL     OW34711   2.835   8.423   2.141
10926SOL    HW134712   2.861   8.425   2.045
10926SOL    HW234713   2.883   8.348   2.187
10927SOL     OW34714   3.352   9.103   1.936
10927SOL    HW134715   3.258   9.077   1.918
10927SOL    HW234716   3.403   9.107   1.850
10928SOL     OW34717   2.196   8.791   3.350
10928SOL    HW134718   2.198   8.858   3.275
10928SOL    HW234719   2.133   8.717   3.327
10929SOL     OW34720   3.451   8.751   3.144
10929SOL    HW134721   3.503   8.701   3.213
10929SOL    HW234722   3.388   8.814   3.189
10930SOL     OW34723   2.944   8.608   2.622
10930SOL    HW134724   2.870   8.548   2.651
10930SOL    HW234725   3.022   8.553   2.592
10931SOL     OW34726   2.905   7.588   2.895
10931SOL    HW134727   2.907   7.561   2.799
10931SOL    HW234728   2.902   7.507   2.953
10932SOL     OW34729   2.472   8.914   2.311
10932SOL    HW134730   2.550   8.863   2.274
10932SOL    HW234731   2.403   8.926   2.240
10933SOL     OW34732   3.642   7.836   3.267
10933SOL    HW134733   3.708   7.910   3.251
10933SOL    HW234734   3.608   7.802   3.179
10934SOL     OW34735   2.092   8.816   2.117
10934SOL    HW134736   1.998   8.799   2.090
10934SOL    HW234737   2.094   8.852   2.210
10935SOL     OW34738   2.040   8.455   3.563
10935SOL    HW134739   1.962   8.433   3.622
10935SOL    HW234740   2.124   8.421   3.606
10936SOL     OW34741   2.570   7.630   3.348
10936SOL    HW134742   2.655   7.615   3.299
10936SOL    HW234743   2.589   7.660   3.442
10937SOL     OW34744   3.235   8.296   3.250
10937SOL    HW134745   3.176   8.358   3.198
10937SOL    HW234746   3.325   8.292   3.207
10938SOL     OW34747   1.786   7.542   2.085
10938SOL    HW134748   1.723   7.573   2.014
10938SOL    HW234749   1.880   7.552   2.053
10939SOL     OW34750   3.049   8.790   1.993
10939SOL    HW134751   2.952   8.765   1.990
10939SOL    HW234752   3.077   8.806   2.088
10940SOL     OW34753   2.512   8.263   3.341
10940SOL    HW134754   2.568   8.344   3.323
10940SOL    HW234755   2.571   8.182   3.338
10941SOL     OW34756   3.375   9.322   2.893
10941SOL    HW134757   3.411   9.346   2.803
10941SOL    HW234758   3.446   9.275   2.946
10942SOL     OW34759   2.582   7.969   3.570
10942SOL    HW134760   2.638   8.038   3.617
10942SOL    HW234761   2.612   7.878   3.597
10943SOL     OW34762   3.308   8.667   3.492
10943SOL    HW134763   3.301   8.667   3.591
10943SOL    HW234764   3.399   8.699   3.465
10944SOL     OW34765   2.213   9.190   3.508
10944SOL    HW134766   2.142   9.239   3.458
10944SOL    HW234767   2.175   9.106   3.546
10945SOL     OW34768   3.475   8.304   3.117
10945SOL    HW134769   3.483   8.221   3.063
10945SOL    HW234770   3.468   8.384   3.057
10946SOL     OW34771   2.434   8.171   2.516
10946SOL    HW134772   2.486   8.256   2.516
10946SOL    HW234773   2.383   8.162   2.431
10947SOL     OW34774   3.586   7.896   3.539
10947SOL    HW134775   3.610   7.893   3.442
10947SOL    HW234776   3.507   7.836   3.556
10948SOL     OW34777   3.639   8.358   3.332
10948SOL    HW134778   3.634   8.458   3.336
10948SOL    HW234779   3.585   8.325   3.254
10949SOL     OW34780   2.758   8.794   1.959
10949SOL    HW134781   2.726   8.788   2.054
10949SOL    HW234782   2.741   8.886   1.924
10950SOL     OW34783   2.487   9.253   2.755
10950SOL    HW134784   2.463   9.350   2.748
10950SOL    HW234785   2.586   9.245   2.767
10951SOL     OW34786   2.738   8.450   2.729
10951SOL    HW134787   2.787   8.369   2.761
10951SOL    HW234788   2.684   8.488   2.805
10952SOL     OW34789   2.914   8.404   1.879
10952SOL    HW134790   2.908   8.478   1.812
10952SOL    HW234791   3.004   8.361   1.873
10953SOL     OW34792   3.759   8.902   2.663
10953SOL    HW134793   3.664   8.932   2.651
10953SOL    HW234794   3.769   8.858   2.752
10954SOL     OW34795   2.047   8.705   3.681
10954SOL    HW134796   2.036   8.618   3.633
10954SOL    HW234797   1.990   8.705   3.763
10955SOL     OW34798   1.995   8.756   2.577
10955SOL    HW134799   1.992   8.733   2.674
10955SOL    HW234800   2.043   8.684   2.527
10956SOL     OW34801   2.533   8.836   3.494
10956SOL    HW134802   2.448   8.802   3.534
10956SOL    HW234803   2.558   8.923   3.536
10957SOL     OW34804   3.530   7.607   3.038
10957SOL    HW134805   3.516   7.509   3.048
10957SOL    HW234806   3.587   7.624   2.957
10958SOL     OW34807   2.314   7.869   2.326
10958SOL    HW134808   2.374   7.818   2.265
10958SOL    HW234809   2.300   7.817   2.410
10959SOL     OW34810   3.536   8.965   2.982
10959SOL    HW134811   3.478   8.944   2.903
10959SOL    HW234812   3.530   8.889   3.047
10960SOL     OW34813   2.235   7.994   3.160
10960SOL    HW134814   2.285   7.926   3.214
10960SOL    HW234815   2.242   7.971   3.063
10961SOL     OW34816   2.661   9.038   2.518
10961SOL    HW134817   2.624   9.081   2.435
10961SOL    HW234818   2.603   8.962   2.546
10962SOL     OW34819   3.361   7.824   2.990
10962SOL    HW134820   3.411   7.741   3.016
10962SOL    HW234821   3.275   7.828   3.041
10963SOL     OW34822   2.896   7.363   3.061
10963SOL    HW134823   2.841   7.280   3.067
10963SOL    HW234824   2.993   7.340   3.067
10964SOL     OW34825   2.681   8.770   2.217
10964SOL    HW134826   2.662   8.675   2.239
10964SOL    HW234827   2.759   8.802   2.270
10965SOL     OW34828   2.454   9.027   3.189
10965SOL    HW134829   2.471   9.081   3.271
10965SOL    HW234830   2.539   9.019   3.136
10966SOL     OW34831   3.203   7.449   2.087
10966SOL    HW134832   3.253   7.387   2.026
10966SOL    HW234833   3.112   7.413   2.105
10967SOL     OW34834   3.119   7.983   2.521
10967SOL    HW134835   3.103   8.082   2.525
10967SOL    HW234836   3.188   7.958   2.588
10968SOL     OW34837   1.897   8.516   2.174
10968SOL    HW134838   1.996   8.516   2.162
10968SOL    HW234839   1.865   8.422   2.189
10969SOL     OW34840   2.751   9.143   2.186
10969SOL    HW134841   2.671   9.120   2.131
10969SOL    HW234842   2.730   9.222   2.244
10970SOL     OW34843   2.072   8.109   3.866
10970SOL    HW134844   1.985   8.066   3.890
10970SOL    HW234845   2.082   8.111   3.767
10971SOL     OW34846   2.081   7.723   4.710
10971SOL    HW134847   2.122   7.688   4.795
10971SOL    HW234848   1.989   7.686   4.700
10972SOL     OW34849   1.865   7.875   4.369
10972SOL    HW134850   1.784   7.895   4.423
10972SOL    HW234851   1.846   7.800   4.306
10973SOL     OW34852   2.431   8.748   4.965
10973SOL    HW134853   2.346   8.746   4.913
10973SOL    HW234854   2.456   8.843   4.984
10974SOL     OW34855   3.468   9.003   4.433
10974SOL    HW134856   3.412   8.973   4.510
10974SOL    HW234857   3.411   9.008   4.351
10975SOL     OW34858   2.988   8.176   4.380
10975SOL    HW134859   3.039   8.260   4.361
10975SOL    HW234860   2.947   8.182   4.471
10976SOL     OW34861   3.568   8.067   3.993
10976SOL    HW134862   3.554   8.090   3.897
10976SOL    HW234863   3.561   7.968   4.005
10977SOL     OW34864   2.587   8.558   4.836
10977SOL    HW134865   2.520   8.606   4.894
10977SOL    HW234866   2.627   8.622   4.772
10978SOL     OW34867   2.794   8.155   5.506
10978SOL    HW134868   2.815   8.220   5.579
10978SOL    HW234869   2.786   8.204   5.419
10979SOL     OW34870   2.564   8.402   4.388
10979SOL    HW134871   2.635   8.411   4.457
10979SOL    HW234872   2.497   8.475   4.399
10980SOL     OW34873   2.567   8.616   5.572
10980SOL    HW134874   2.627   8.684   5.614
10980SOL    HW234875   2.489   8.663   5.529
10981SOL     OW34876   2.213   8.830   4.811
10981SOL    HW134877   2.145   8.770   4.769
10981SOL    HW234878   2.257   8.885   4.739
10982SOL     OW34879   3.273   8.955   5.106
10982SOL    HW134880   3.330   9.022   5.153
10982SOL    HW234881   3.185   8.947   5.153
10983SOL     OW34882   2.263   7.837   5.257
10983SOL    HW134883   2.349   7.788   5.276
10983SOL    HW234884   2.189   7.771   5.244
10984SOL     OW34885   3.472   7.909   4.466
10984SOL    HW134886   3.444   7.930   4.373
10984SOL    HW234887   3.426   7.971   4.530
10985SOL     OW34888   2.130   9.164   4.225
10985SOL    HW134889   2.143   9.241   4.287
10985SOL    HW234890   2.212   9.151   4.170
10986SOL     OW34891   2.972   8.770   5.427
10986SOL    HW134892   3.061   8.743   5.465
10986SOL    HW234893   2.909   8.692   5.431
10987SOL     OW34894   2.084   8.896   4.230
10987SOL    HW134895   2.097   8.992   4.253
10987SOL    HW234896   2.070   8.843   4.314
10988SOL     OW34897   2.183   8.519   4.583
10988SOL    HW134898   2.184   8.420   4.596
10988SOL    HW234899   2.133   8.562   4.659
10989SOL     OW34900   2.452   9.220   5.188
10989SOL    HW134901   2.364   9.216   5.235
10989SOL    HW234902   2.491   9.312   5.198
10990SOL     OW34903   2.416   8.420   3.913
10990SOL    HW134904   2.453   8.476   3.839
10990SOL    HW234905   2.465   8.441   3.998
10991SOL     OW34906   3.554   7.539   5.272
10991SOL    HW134907   3.590   7.617   5.221
10991SOL    HW234908   3.489   7.571   5.341
10992SOL     OW34909   1.971   8.124   4.297
10992SOL    HW134910   1.943   8.033   4.325
10992SOL    HW234911   1.955   8.189   4.371
10993SOL     OW34912   3.750   9.214   4.023
10993SOL    HW134913   3.817   9.218   4.097
10993SOL    HW234914   3.749   9.302   3.975
10994SOL     OW34915   1.876   9.060   3.803
10994SOL    HW134916   1.812   8.983   3.797
10994SOL    HW234917   1.894   9.080   3.900
10995SOL     OW34918   3.554   8.377   4.340
10995SOL    HW134919   3.613   8.319   4.284
10995SOL    HW234920   3.540   8.464   4.294
10996SOL     OW34921   3.567   8.597   4.173
10996SOL    HW134922   3.653   8.568   4.129
10996SOL    HW234923   3.584   8.677   4.230
10997SOL     OW34924   2.010   8.215   5.260
10997SOL    HW134925   2.091   8.272   5.275
10997SOL    HW234926   1.929   8.274   5.251
10998SOL     OW34927   2.489   8.819   4.465
10998SOL    HW134928   2.447   8.730   4.446
10998SOL    HW234929   2.481   8.878   4.385
10999SOL     OW34930   3.090   8.641   5.147
10999SOL    HW134931   3.112   8.575   5.075
10999SOL    HW234932   3.165   8.645   5.213
11000SOL     OW34933   2.735   7.477   4.242
11000SOL    HW134934   2.792   7.552   4.207
11000SOL    HW234935   2.640   7.509   4.249
11001SOL     OW34936   2.103   8.402   5.018
11001SOL    HW134937   2.180   8.340   5.011
11001SOL    HW234938   2.053   8.404   4.931
11002SOL     OW34939   3.445   8.504   3.947
11002SOL    HW134940   3.365   8.449   3.970
11002SOL    HW234941   3.487   8.540   4.031
11003SOL     OW34942   3.129   9.235   5.263
11003SOL    HW134943   3.081   9.319   5.238
11003SOL    HW234944   3.068   9.157   5.250
11004SOL     OW34945   2.220   7.703   5.575
11004SOL    HW134946   2.262   7.775   5.631
11004SOL    HW234947   2.132   7.736   5.539
11005SOL     OW34948   3.296   8.902   4.627
11005SOL    HW134949   3.244   8.922   4.710
11005SOL    HW234950   3.285   8.806   4.603
11006SOL     OW34951   3.504   9.301   4.243
11006SOL    HW134952   3.501   9.233   4.169
11006SOL    HW234953   3.517   9.256   4.330
11007SOL     OW34954   2.432   8.143   4.009
11007SOL    HW134955   2.435   8.234   3.967
11007SOL    HW234956   2.361   8.141   4.079
11008SOL     OW34957   3.151   7.864   4.657
11008SOL    HW134958   3.059   7.824   4.661
11008SOL    HW234959   3.214   7.810   4.713
11009SOL     OW34960   3.490   9.121   4.039
11009SOL    HW134961   3.588   9.140   4.027
11009SOL    HW234962   3.448   9.102   3.950
11010SOL     OW34963   2.668   8.028   5.167
11010SOL    HW134964   2.661   7.988   5.259
11010SOL    HW234965   2.642   7.959   5.099
11011SOL     OW34966   3.239   7.912   5.375
11011SOL    HW134967   3.233   7.963   5.461
11011SOL    HW234968   3.303   7.836   5.386
11012SOL     OW34969   2.800   8.336   5.285
11012SOL    HW134970   2.857   8.275   5.230
11012SOL    HW234971   2.742   8.390   5.224
11013SOL     OW34972   2.875   7.880   4.907
11013SOL    HW134973   2.784   7.870   4.947
11013SOL    HW234974   2.880   7.829   4.822
11014SOL     OW34975   2.904   8.139   4.121
11014SOL    HW134976   2.929   8.147   4.217
11014SOL    HW234977   2.815   8.094   4.113
11015SOL     OW34978   1.925   8.309   4.497
11015SOL    HW134979   2.016   8.287   4.534
11015SOL    HW234980   1.888   8.388   4.546
11016SOL     OW34981   1.973   9.340   5.347
11016SOL    HW134982   1.979   9.293   5.435
11016SOL    HW234983   1.877   9.343   5.317
11017SOL     OW34984   2.720   7.787   3.939
11017SOL    HW134985   2.787   7.824   3.875
11017SOL    HW234986   2.662   7.721   3.892
11018SOL     OW34987   3.515   8.040   5.559
11018SOL    HW134988   3.511   8.122   5.503
11018SOL    HW234989   3.548   7.963   5.504
11019SOL     OW34990   3.290   8.625   4.289
11019SOL    HW134991   3.377   8.627   4.240
11019SOL    HW234992   3.227   8.691   4.249
11020SOL     OW34993   2.420   7.699   4.477
11020SOL    HW134994   2.435   7.658   4.567
11020SOL    HW234995   2.407   7.798   4.487
11021SOL     OW34996   2.861   8.909   4.189
11021SOL    HW134997   2.833   8.979   4.124
11021SOL    HW234998   2.832   8.935   4.281
11022SOL     OW34999   2.232   9.244   4.638
11022SOL    HW135000   2.274   9.153   4.635
11022SOL    HW235001   2.298   9.310   4.673
11023SOL     OW35002   3.608   8.432   4.609
11023SOL    HW135003   3.575   8.420   4.515
11023SOL    HW235004   3.537   8.474   4.664
11024SOL     OW35005   3.025   8.954   5.222
11024SOL    HW135006   3.016   8.893   5.301
11024SOL    HW235007   2.961   8.925   5.151
11025SOL     OW35008   2.146   8.362   3.986
11025SOL    HW135009   2.238   8.387   3.955
11025SOL    HW235010   2.123   8.271   3.952
11026SOL     OW35011   3.337   8.220   4.396
11026SOL    HW135012   3.336   8.177   4.486
11026SOL    HW235013   3.420   8.275   4.387
11027SOL     OW35014   2.333   8.754   5.477
11027SOL    HW135015   2.313   8.756   5.379
11027SOL    HW235016   2.250   8.736   5.529
11028SOL     OW35017   3.006   9.165   3.931
11028SOL    HW135018   2.915   9.149   3.969
11028SOL    HW235019   3.037   9.082   3.883
11029SOL     OW35020   2.060   7.668   5.201
11029SOL    HW135021   1.980   7.727   5.189
11029SOL    HW235022   2.035   7.588   5.255
11030SOL     OW35023   3.519   8.833   3.776
11030SOL    HW135024   3.478   8.922   3.795
11030SOL    HW235025   3.448   8.763   3.778
11031SOL     OW35026   2.366   9.168   4.075
11031SOL    HW135027   2.395   9.253   4.119
11031SOL    HW235028   2.426   9.150   3.997
11032SOL     OW35029   3.262   7.544   4.174
11032SOL    HW135030   3.264   7.516   4.078
11032SOL    HW235031   3.347   7.517   4.218
11033SOL     OW35032   2.067   9.240   4.958
11033SOL    HW135033   2.125   9.164   4.988
11033SOL    HW235034   2.040   9.226   4.863
11034SOL     OW35035   2.809   9.165   4.601
11034SOL    HW135036   2.895   9.150   4.650
11034SOL    HW235037   2.792   9.088   4.539
11035SOL     OW35038   2.238   8.111   4.204
11035SOL    HW135039   2.249   8.011   4.211
11035SOL    HW235040   2.143   8.135   4.221
11036SOL     OW35041   3.369   7.665   5.446
11036SOL    HW135042   3.380   7.678   5.544
11036SOL    HW235043   3.283   7.618   5.428
11037SOL     OW35044   2.542   7.569   3.832
11037SOL    HW135045   2.578   7.484   3.871
11037SOL    HW235046   2.471   7.546   3.765
11038SOL     OW35047   2.612   7.673   5.541
11038SOL    HW135048   2.690   7.623   5.503
11038SOL    HW235049   2.562   7.613   5.603
11039SOL     OW35050   2.701   8.925   4.903
11039SOL    HW135051   2.684   8.873   4.819
11039SOL    HW235052   2.765   8.874   4.961
11040SOL     OW35053   3.167   8.051   5.148
11040SOL    HW135054   3.200   8.016   5.235
11040SOL    HW235055   3.203   8.143   5.133
11041SOL     OW35056   2.668   8.763   4.675
11041SOL    HW135057   2.758   8.778   4.636
11041SOL    HW235058   2.598   8.781   4.606
11042SOL     OW35059   2.780   7.937   4.591
11042SOL    HW135060   2.758   7.929   4.494
11042SOL    HW235061   2.823   7.853   4.623
11043SOL     OW35062   2.485   7.582   4.240
11043SOL    HW135063   2.464   7.628   4.326
11043SOL    HW235064   2.455   7.639   4.164
11044SOL     OW35065   3.312   8.657   3.765
11044SOL    HW135066   3.363   8.589   3.817
11044SOL    HW235067   3.229   8.682   3.815
11045SOL     OW35068   2.856   7.703   4.162
11045SOL    HW135069   2.811   7.735   4.079
11045SOL    HW235070   2.953   7.728   4.160
11046SOL     OW35071   2.908   8.154   5.116
11046SOL    HW135072   2.832   8.091   5.132
11046SOL    HW235073   2.994   8.104   5.121
11047SOL     OW35074   3.074   8.993   4.479
11047SOL    HW135075   3.086   9.070   4.416
11047SOL    HW235076   3.162   8.972   4.522
11048SOL     OW35077   2.365   8.587   4.396
11048SOL    HW135078   2.302   8.562   4.470
11048SOL    HW235079   2.316   8.584   4.309
11049SOL     OW35080   3.124   9.210   4.303
11049SOL    HW135081   3.171   9.287   4.260
11049SOL    HW235082   3.029   9.235   4.323
11050SOL     OW35083   1.992   8.029   5.062
11050SOL    HW135084   2.086   8.004   5.041
11050SOL    HW235085   1.991   8.101   5.131
11051SOL     OW35086   2.738   7.894   4.329
11051SOL    HW135087   2.695   7.950   4.258
11051SOL    HW235088   2.784   7.816   4.287
11052SOL     OW35089   2.896   7.523   4.481
11052SOL    HW135090   2.839   7.527   4.399
11052SOL    HW235091   2.866   7.447   4.539
11053SOL     OW35092   3.253   8.639   4.565
11053SOL    HW135093   3.161   8.602   4.576
11053SOL    HW235094   3.281   8.633   4.469
11054SOL     OW35095   3.322   8.085   4.636
11054SOL    HW135096   3.255   8.012   4.653
11054SOL    HW235097   3.382   8.093   4.715
11055SOL     OW35098   3.711   8.252   4.141
11055SOL    HW135099   3.763   8.195   4.206
11055SOL    HW235100   3.660   8.192   4.079
11056SOL     OW35101   2.312   8.915   3.826
11056SOL    HW135102   2.252   8.870   3.892
11056SOL    HW235103   2.310   8.863   3.740
11057SOL     OW35104   3.619   8.796   4.338
11057SOL    HW135105   3.711   8.794   4.378
11057SOL    HW235106   3.569   8.875   4.374
11058SOL     OW35107   3.241   8.102   3.803
11058SOL    HW135108   3.202   8.043   3.874
11058SOL    HW235109   3.338   8.079   3.790
11059SOL     OW35110   2.388   7.715   4.022
11059SOL    HW135111   2.439   7.662   3.954
11059SOL    HW235112   2.347   7.794   3.978
11060SOL     OW35113   3.616   8.725   5.186
11060SOL    HW135114   3.702   8.679   5.165
11060SOL    HW235115   3.635   8.818   5.216
11061SOL     OW35116   2.863   8.770   5.069
11061SOL    HW135117   2.779   8.751   5.120
11061SOL    HW235118   2.939   8.719   5.108
11062SOL     OW35119   3.504   9.025   5.460
11062SOL    HW135120   3.454   9.104   5.423
11062SOL    HW235121   3.576   8.999   5.396
11063SOL     OW35122   3.005   8.719   4.835
11063SOL    HW135123   2.940   8.734   4.910
11063SOL    HW235124   2.963   8.745   4.748
11064SOL     OW35125   3.429   8.566   4.776
11064SOL    HW135126   3.434   8.638   4.844
11064SOL    HW235127   3.358   8.588   4.709
11065SOL     OW35128   2.813   8.546   5.459
11065SOL    HW135129   2.719   8.565   5.490
11065SOL    HW235130   2.812   8.471   5.393
11066SOL     OW35131   2.587   8.477   4.124
11066SOL    HW135132   2.582   8.440   4.217
11066SOL    HW235133   2.662   8.432   4.074
11067SOL     OW35134   2.309   8.221   4.993
11067SOL    HW135135   2.374   8.235   5.068
11067SOL    HW235136   2.282   8.125   4.989
11068SOL     OW35137   3.123   7.831   4.998
11068SOL    HW135138   3.153   7.910   5.053
11068SOL    HW235139   3.033   7.851   4.958
11069SOL     OW35140   1.926   8.991   5.077
11069SOL    HW135141   1.883   9.067   5.028
11069SOL    HW235142   2.025   9.000   5.073
11070SOL     OW35143   2.193   8.573   4.173
11070SOL    HW135144   2.191   8.649   4.108
11070SOL    HW235145   2.175   8.487   4.125
11071SOL     OW35146   2.390   7.963   4.563
11071SOL    HW135147   2.395   8.042   4.502
11071SOL    HW235148   2.456   7.974   4.637
11072SOL     OW35149   3.122   8.811   4.180
11072SOL    HW135150   3.185   8.888   4.194
11072SOL    HW235151   3.028   8.843   4.191
11073SOL     OW35152   3.159   8.942   4.857
11073SOL    HW135153   3.204   8.953   4.946
11073SOL    HW235154   3.107   8.857   4.856
11074SOL     OW35155   3.407   8.019   4.219
11074SOL    HW135156   3.358   8.089   4.271
11074SOL    HW235157   3.456   8.063   4.143
11075SOL     OW35158   2.198   8.995   5.022
11075SOL    HW135159   2.190   8.933   4.944
11075SOL    HW235160   2.294   9.017   5.038
11076SOL     OW35161   2.288   8.257   5.352
11076SOL    HW135162   2.369   8.257   5.294
11076SOL    HW235163   2.272   8.165   5.388
11077SOL     OW35164   3.498   8.259   5.402
11077SOL    HW135165   3.406   8.296   5.390
11077SOL    HW235166   3.554   8.281   5.322
11078SOL     OW35167   2.829   7.561   5.425
11078SOL    HW135168   2.894   7.637   5.419
11078SOL    HW235169   2.866   7.482   5.376
11079SOL     OW35170   2.336   7.474   5.482
11079SOL    HW135171   2.282   7.425   5.414
11079SOL    HW235172   2.293   7.562   5.503
11080SOL     OW35173   2.534   8.280   4.842
11080SOL    HW135174   2.542   8.379   4.828
11080SOL    HW235175   2.445   8.260   4.884
11081SOL     OW35176   3.138   8.292   4.716
11081SOL    HW135177   3.050   8.255   4.688
11081SOL    HW235178   3.211   8.230   4.687
11082SOL     OW35179   3.071   7.971   3.984
11082SOL    HW135180   3.097   7.898   4.048
11082SOL    HW235181   3.017   8.040   4.032
11083SOL     OW35182   2.148   7.610   4.946
11083SOL    HW135183   2.129   7.635   5.041
11083SOL    HW235184   2.105   7.522   4.926
11084SOL     OW35185   1.931   8.733   4.989
11084SOL    HW135186   1.966   8.679   5.065
11084SOL    HW235187   1.920   8.828   5.018
11085SOL     OW35188   2.573   8.009   4.760
11085SOL    HW135189   2.653   7.992   4.703
11085SOL    HW235190   2.568   8.106   4.784
11086SOL     OW35191   3.609   8.459   5.557
11086SOL    HW135192   3.571   8.378   5.512
11086SOL    HW235193   3.556   8.478   5.640
11087SOL     OW35194   3.482   7.807   4.056
11087SOL    HW135195   3.539   7.748   4.113
11087SOL    HW235196   3.426   7.866   4.115
11088SOL     OW35197   2.889   8.181   4.640
11088SOL    HW135198   2.867   8.206   4.734
11088SOL    HW235199   2.855   8.089   4.620
11089SOL     OW35200   2.846   8.997   5.510
11089SOL    HW135201   2.809   9.055   5.437
11089SOL    HW235202   2.876   8.910   5.471
11090SOL     OW35203   3.688   8.986   5.254
11090SOL    HW135204   3.680   9.067   5.197
11090SOL    HW235205   3.779   8.983   5.295
11091SOL     OW35206   2.232   8.417   5.563
11091SOL    HW135207   2.310   8.434   5.624
11091SOL    HW235208   2.262   8.362   5.485
11092SOL     OW35209   3.423   7.660   3.828
11092SOL    HW135210   3.361   7.587   3.858
11092SOL    HW235211   3.442   7.721   3.905
11093SOL     OW35212   3.139   8.337   3.738
11093SOL    HW135213   3.169   8.244   3.759
11093SOL    HW235214   3.177   8.365   3.650
11094SOL     OW35215   2.919   8.796   4.584
11094SOL    HW135216   2.949   8.709   4.543
11094SOL    HW235217   2.966   8.872   4.540
11095SOL     OW35218   2.174   8.245   4.591
11095SOL    HW135219   2.252   8.233   4.530
11095SOL    HW235220   2.155   8.159   4.637
11096SOL     OW35221   2.143   7.982   4.673
11096SOL    HW135222   2.110   7.889   4.691
11096SOL    HW235223   2.233   7.977   4.630
11097SOL     OW35224   3.000   7.774   5.390
11097SOL    HW135225   2.956   7.822   5.467
11097SOL    HW235226   3.084   7.821   5.365
11098SOL     OW35227   3.000   7.633   5.139
11098SOL    HW135228   2.978   7.676   5.227
11098SOL    HW235229   3.057   7.695   5.085
11099SOL     OW35230   1.895   8.700   3.904
11099SOL    HW135231   1.811   8.752   3.886
11099SOL    HW235232   1.871   8.610   3.941
11100SOL     OW35233   1.969   9.206   4.702
11100SOL    HW135234   1.929   9.129   4.653
11100SOL    HW235235   2.062   9.223   4.668
11101SOL     OW35236   2.360   8.993   4.640
11101SOL    HW135237   2.432   9.058   4.666
11101SOL    HW235238   2.397   8.927   4.574
11102SOL     OW35239   2.807   8.254   4.880
11102SOL    HW135240   2.848   8.226   4.966
11102SOL    HW235241   2.708   8.258   4.890
11103SOL     OW35242   1.907   8.051   4.806
11103SOL    HW135243   1.985   8.035   4.745
11103SOL    HW235244   1.937   8.048   4.901
11104SOL     OW35245   2.131   8.023   5.413
11104SOL    HW135246   2.183   7.961   5.355
11104SOL    HW235247   2.079   8.086   5.356
11105SOL     OW35248   3.260   8.378   5.349
11105SOL    HW135249   3.273   8.477   5.351
11105SOL    HW235250   3.244   8.348   5.255
11106SOL     OW35251   2.663   8.013   4.090
11106SOL    HW135252   2.674   7.932   4.033
11106SOL    HW235253   2.581   8.063   4.061
11107SOL     OW35254   3.493   8.102   4.847
11107SOL    HW135255   3.477   8.034   4.918
11107SOL    HW235256   3.591   8.119   4.837
11108SOL     OW35257   2.087   8.985   5.436
11108SOL    HW135258   2.063   9.059   5.499
11108SOL    HW235259   2.094   8.899   5.487
11109SOL     OW35260   2.608   7.842   4.980
11109SOL    HW135261   2.586   7.745   4.967
11109SOL    HW235262   2.580   7.893   4.898
11110SOL     OW35263   2.736   9.154   5.305
11110SOL    HW135264   2.671   9.104   5.248
11110SOL    HW235265   2.775   9.229   5.252
11111SOL     OW35266   2.290   7.935   3.890
11111SOL    HW135267   2.362   7.998   3.918
11111SOL    HW235268   2.203   7.984   3.888
11112SOL     OW35269   2.021   8.584   5.199
11112SOL    HW135270   2.020   8.550   5.293
11112SOL    HW235271   2.055   8.513   5.138
11113SOL     OW35272   3.118   8.480   4.916
11113SOL    HW135273   3.126   8.412   4.843
11113SOL    HW235274   3.080   8.565   4.879
11114SOL     OW35275   3.216   8.378   4.004
11114SOL    HW135276   3.152   8.339   4.070
11114SOL    HW235277   3.183   8.360   3.911
11115SOL     OW35278   3.048   9.181   4.767
11115SOL    HW135279   3.134   9.228   4.748
11115SOL    HW235280   3.067   9.090   4.802
11116SOL     OW35281   2.016   8.643   4.753
11116SOL    HW135282   1.983   8.677   4.841
11116SOL    HW235283   1.939   8.606   4.700
11117SOL     OW35284   2.554   9.178   5.507
11117SOL    HW135285   2.484   9.247   5.489
11117SOL    HW235286   2.627   9.185   5.439
11118SOL     OW35287   3.641   7.644   4.209
11118SOL    HW135288   3.686   7.613   4.126
11118SOL    HW235289   3.588   7.569   4.248
11119SOL     OW35290   3.300   9.020   4.217
11119SOL    HW135291   3.362   9.053   4.146
11119SOL    HW235292   3.234   9.092   4.239
11120SOL     OW35293   2.010   9.206   5.580
11120SOL    HW135294   1.962   9.137   5.635
11120SOL    HW235295   2.066   9.264   5.640
11121SOL     OW35296   3.144   8.397   4.336
11121SOL    HW135297   3.214   8.328   4.356
11121SOL    HW235298   3.189   8.480   4.304
11122SOL     OW35299   2.612   8.735   5.183
11122SOL    HW135300   2.595   8.799   5.258
11122SOL    HW235301   2.536   8.739   5.118
11123SOL     OW35302   2.524   9.074   3.854
11123SOL    HW135303   2.559   9.092   3.763
11123SOL    HW235304   2.438   9.024   3.847
11124SOL     OW35305   3.753   7.625   4.717
11124SOL    HW135306   3.771   7.530   4.691
11124SOL    HW235307   3.665   7.654   4.681
11125SOL     OW35308   2.083   7.724   4.433
11125SOL    HW135309   2.012   7.792   4.415
11125SOL    HW235310   2.104   7.722   4.530
11126SOL     OW35311   3.114   8.948   3.793
11126SOL    HW135312   3.112   8.864   3.848
11126SOL    HW235313   3.056   8.937   3.712
11127SOL     OW35314   2.644   8.474   5.110
11127SOL    HW135315   2.652   8.484   5.011
11127SOL    HW235316   2.631   8.564   5.152
11128SOL     OW35317   2.788   8.357   3.992
11128SOL    HW135318   2.849   8.412   3.936
11128SOL    HW235319   2.840   8.281   4.033
11129SOL     OW35320   3.359   9.070   3.801
11129SOL    HW135321   3.269   9.026   3.810
11129SOL    HW235322   3.377   9.090   3.705
11130SOL     OW35323   2.236   8.768   5.226
11130SOL    HW135324   2.225   8.846   5.164
11130SOL    HW235325   2.162   8.703   5.211
11131SOL     OW35326   3.441   8.768   4.977
11131SOL    HW135327   3.510   8.740   5.044
11131SOL    HW235328   3.371   8.824   5.022
11132SOL     OW35329   2.989   8.545   4.509
11132SOL    HW135330   2.903   8.502   4.536
11132SOL    HW235331   3.036   8.488   4.443
11133SOL     OW35332   2.911   7.710   4.686
11133SOL    HW135333   2.914   7.651   4.606
11133SOL    HW235334   2.897   7.654   4.768
11134SOL     OW35335   2.485   8.965   4.236
11134SOL    HW135336   2.525   8.891   4.182
11134SOL    HW235337   2.432   9.025   4.177
11135SOL     OW35338   3.674   7.771   5.153
11135SOL    HW135339   3.709   7.859   5.123
11135SOL    HW235340   3.692   7.702   5.083
11136SOL     OW35341   2.139   8.784   3.997
11136SOL    HW135342   2.051   8.755   3.958
11136SOL    HW235343   2.123   8.835   4.081
11137SOL     OW35344   2.000   8.502   5.455
11137SOL    HW135345   1.916   8.478   5.504
11137SOL    HW235346   2.079   8.462   5.502
11138SOL     OW35347   2.495   7.684   5.281
11138SOL    HW135348   2.564   7.734   5.228
11138SOL    HW235349   2.525   7.678   5.377
11139SOL     OW35350   2.017   7.827   3.571
11139SOL    HW135351   1.918   7.823   3.577
11139SOL    HW235352   2.048   7.922   3.581
11140SOL     OW35353   3.249   8.308   5.088
11140SOL    HW135354   3.181   8.358   5.034
11140SOL    HW235355   3.340   8.322   5.050
11141SOL     OW35356   3.101   8.715   3.924
11141SOL    HW135357   3.040   8.637   3.910
11141SOL    HW235358   3.105   8.736   4.022
11142SOL     OW35359   2.501   8.247   5.180
11142SOL    HW135360   2.550   8.332   5.161
11142SOL    HW235361   2.565   8.171   5.179
11143SOL     OW35362   3.314   9.275   4.756
11143SOL    HW135363   3.377   9.325   4.696
11143SOL    HW235364   3.359   9.192   4.789
11144SOL     OW35365   2.651   7.927   5.414
11144SOL    HW135366   2.693   8.001   5.466
11144SOL    HW235367   2.636   7.849   5.475
11145SOL     OW35368   3.310   8.647   5.341
11145SOL    HW135369   3.308   8.667   5.439
11145SOL    HW235370   3.396   8.679   5.302
11146SOL     OW35371   2.213   9.206   5.321
11146SOL    HW135372   2.129   9.259   5.310
11146SOL    HW235373   2.190   9.112   5.349
11147SOL     OW35374   3.483   8.358   4.956
11147SOL    HW135375   3.488   8.273   4.905
11147SOL    HW235376   3.467   8.434   4.894
11148SOL     OW35377   3.118   7.778   4.169
11148SOL    HW135378   3.175   7.697   4.174
11148SOL    HW235379   3.128   7.832   4.252
11149SOL     OW35380   2.382   8.196   4.420
11149SOL    HW135381   2.454   8.262   4.402
11149SOL    HW235382   2.337   8.171   4.333
11150SOL     OW35383   3.591   7.823   5.411
11150SOL    HW135384   3.622   7.813   5.317
11150SOL    HW235385   3.513   7.763   5.427
11151SOL     OW35386   3.635   8.361   5.188
11151SOL    HW135387   3.648   8.456   5.217
11151SOL    HW235388   3.586   8.359   5.101
11152SOL     OW35389   2.604   8.800   3.862
11152SOL    HW135390   2.614   8.776   3.959
11152SOL    HW235391   2.576   8.896   3.854
11153SOL     OW35392   2.543   9.187   4.678
11153SOL    HW135393   2.514   9.281   4.694
11153SOL    HW235394   2.641   9.184   4.661
11154SOL     OW35395   2.754   8.420   4.593
11154SOL    HW135396   2.797   8.330   4.605
11154SOL    HW235397   2.715   8.450   4.680
11155SOL     OW35398   2.949   8.505   3.829
11155SOL    HW135399   2.904   8.555   3.755
11155SOL    HW235400   3.016   8.442   3.791
11156SOL     OW35401   3.727   9.037   4.641
11156SOL    HW135402   3.691   9.030   4.548
11156SOL    HW235403   3.655   9.014   4.706
11157SOL     OW35404   2.072   8.742   5.564
11157SOL    HW135405   2.047   8.660   5.512
11157SOL    HW235406   2.014   8.748   5.646
11158SOL     OW35407   2.048   8.669   4.390
11158SOL    HW135408   2.087   8.621   4.469
11158SOL    HW235409   2.091   8.635   4.306
11159SOL     OW35410   2.541   8.913   5.385
11159SOL    HW135411   2.462   8.862   5.420
11159SOL    HW235412   2.548   9.001   5.431
11160SOL     OW35413   3.751   7.581   4.984
11160SOL    HW135414   3.818   7.508   4.997
11160SOL    HW235415   3.745   7.605   4.887
11161SOL     OW35416   2.251   7.845   4.234
11161SOL    HW135417   2.294   7.784   4.167
11161SOL    HW235418   2.209   7.791   4.307
11162SOL     OW35419   3.511   8.964   4.789
11162SOL    HW135420   3.438   8.942   4.724
11162SOL    HW235421   3.510   8.897   4.863
11163SOL     OW35422   2.248   7.955   5.013
11163SOL    HW135423   2.266   7.914   5.103
11163SOL    HW235424   2.272   7.890   4.941
11164SOL     OW35425   2.714   8.988   4.410
11164SOL    HW135426   2.653   9.035   4.346
11164SOL    HW235427   2.664   8.914   4.454
11165SOL     OW35428   3.303   7.716   4.829
11165SOL    HW135429   3.318   7.618   4.846
11165SOL    HW235430   3.243   7.753   4.900
11166SOL     OW35431   2.626   8.753   4.127
11166SOL    HW135432   2.613   8.654   4.133
11166SOL    HW235433   2.720   8.776   4.154
11167SOL     OW35434   2.473   9.012   5.022
11167SOL    HW135435   2.476   9.093   5.080
11167SOL    HW235436   2.560   9.003   4.972
11168SOL     OW35437   3.267   7.450   3.914
11168SOL    HW135438   3.320   7.374   3.875
11168SOL    HW235439   3.172   7.423   3.925
11169SOL     OW35440   3.125   7.932   4.389
11169SOL    HW135441   3.076   8.019   4.383
11169SOL    HW235442   3.138   7.908   4.485
11170SOL     OW35443   3.501   7.691   4.642
11170SOL    HW135444   3.431   7.711   4.710
11170SOL    HW235445   3.493   7.755   4.566
11171SOL     OW35446   1.877   8.434   4.008
11171SOL    HW135447   1.976   8.424   3.998
11171SOL    HW235448   1.838   8.347   4.038
11172SOL     OW35449   2.748   9.117   4.032
11172SOL    HW135450   2.672   9.099   3.970
11172SOL    HW235451   2.728   9.197   4.088
11173SOL     OW35452   2.087   8.059   5.692
11173SOL    HW135453   1.990   8.048   5.714
11173SOL    HW235454   2.098   8.061   5.592
11174SOL     OW35455   2.057   7.790   6.590
11174SOL    HW135456   2.110   7.752   6.666
11174SOL    HW235457   1.980   7.728   6.570
11175SOL     OW35458   1.829   7.865   6.220
11175SOL    HW135459   1.743   7.888   6.266
11175SOL    HW235460   1.812   7.794   6.152
11176SOL     OW35461   3.477   8.947   6.280
11176SOL    HW135462   3.430   8.927   6.366
11176SOL    HW235463   3.410   8.966   6.208
11177SOL     OW35464   2.978   8.136   6.277
11177SOL    HW135465   3.028   8.222   6.270
11177SOL    HW235466   2.913   8.142   6.353
11178SOL     OW35467   3.664   8.017   5.781
11178SOL    HW135468   3.613   8.033   5.697
11178SOL    HW235469   3.623   7.940   5.831
11179SOL     OW35470   2.783   8.127   7.355
11179SOL    HW135471   2.809   8.187   7.430
11179SOL    HW235472   2.779   8.179   7.270
11180SOL     OW35473   2.558   8.393   6.271
11180SOL    HW135474   2.633   8.410   6.335
11180SOL    HW235475   2.487   8.463   6.283
11181SOL     OW35476   2.556   8.552   7.455
11181SOL    HW135477   2.619   8.621   7.490
11181SOL    HW235478   2.475   8.598   7.418
11182SOL     OW35479   2.150   9.035   6.571
11182SOL    HW135480   2.069   8.996   6.525
11182SOL    HW235481   2.228   8.974   6.558
11183SOL     OW35482   2.350   7.860   7.000
11183SOL    HW135483   2.436   7.826   7.039
11183SOL    HW235484   2.274   7.803   7.031
11184SOL     OW35485   3.422   7.869   6.351
11184SOL    HW135486   3.349   7.865   6.282
11184SOL    HW235487   3.400   7.939   6.418
11185SOL     OW35488   2.116   9.192   6.055
11185SOL    HW135489   2.135   9.261   6.125
11185SOL    HW235490   2.188   9.195   5.985
11186SOL     OW35491   2.910   8.734   7.295
11186SOL    HW135492   2.986   8.721   7.231
11186SOL    HW235493   2.859   8.648   7.303
11187SOL     OW35494   2.188   8.931   6.106
11187SOL    HW135495   2.151   9.024   6.104
11187SOL    HW235496   2.138   8.877   6.173
11188SOL     OW35497   2.154   8.554   6.454
11188SOL    HW135498   2.170   8.457   6.471
11188SOL    HW235499   2.086   8.589   6.519
11189SOL     OW35500   2.465   9.190   7.094
11189SOL    HW135501   2.365   9.186   7.085
11189SOL    HW235502   2.496   9.283   7.079
11190SOL     OW35503   2.433   8.469   5.766
11190SOL    HW135504   2.485   8.515   5.694
11190SOL    HW235505   2.482   8.475   5.852
11191SOL     OW35506   3.432   7.579   6.971
11191SOL    HW135507   3.527   7.606   6.955
11191SOL    HW235508   3.404   7.610   7.062
11192SOL     OW35509   1.984   8.099   6.178
11192SOL    HW135510   1.930   8.016   6.194
11192SOL    HW235511   1.974   8.160   6.256
11193SOL     OW35512   3.722   9.206   5.915
11193SOL    HW135513   3.803   9.202   5.974
11193SOL    HW235514   3.723   9.292   5.863
11194SOL     OW35515   1.913   9.011   5.733
11194SOL    HW135516   1.895   8.915   5.752
11194SOL    HW235517   1.893   9.065   5.815
11195SOL     OW35518   3.577   8.369   6.257
11195SOL    HW135519   3.666   8.324   6.250
11195SOL    HW235520   3.558   8.419   6.173
11196SOL     OW35521   3.537   8.550   6.035
11196SOL    HW135522   3.620   8.528   5.984
11196SOL    HW235523   3.559   8.615   6.108
11197SOL     OW35524   1.998   8.168   7.146
11197SOL    HW135525   2.079   8.226   7.157
11197SOL    HW235526   1.921   8.224   7.116
11198SOL     OW35527   2.517   8.812   6.339
11198SOL    HW135528   2.475   8.724   6.321
11198SOL    HW235529   2.512   8.869   6.257
11199SOL     OW35530   3.093   8.668   7.095
11199SOL    HW135531   3.103   8.601   7.021
11199SOL    HW235532   3.179   8.673   7.146
11200SOL     OW35533   3.429   8.506   5.776
11200SOL    HW135534   3.352   8.444   5.792
11200SOL    HW235535   3.472   8.528   5.864
11201SOL     OW35536   3.153   9.340   7.236
11201SOL    HW135537   3.088   9.392   7.180
11201SOL    HW235538   3.109   9.257   7.270
11202SOL     OW35539   2.192   7.725   7.464
11202SOL    HW135540   2.225   7.799   7.522
11202SOL    HW235541   2.092   7.729   7.457
11203SOL     OW35542   3.349   8.868   6.508
11203SOL    HW135543   3.262   8.915   6.493
11203SOL    HW235544   3.341   8.773   6.477
11204SOL     OW35545   3.486   9.330   6.122
11204SOL    HW135546   3.478   9.253   6.059
11204SOL    HW235547   3.504   9.295   6.214
11205SOL     OW35548   2.431   8.088   5.921
11205SOL    HW135549   2.440   8.184   5.892
11205SOL    HW235550   2.371   8.083   6.001
11206SOL     OW35551   3.165   7.826   6.542
11206SOL    HW135552   3.077   7.779   6.537
11206SOL    HW235553   3.223   7.782   6.611
11207SOL     OW35554   3.460   9.130   5.934
11207SOL    HW135555   3.558   9.147   5.924
11207SOL    HW235556   3.419   9.116   5.844
11208SOL     OW35557   2.596   8.046   6.923
11208SOL    HW135558   2.629   8.000   7.005
11208SOL    HW235559   2.589   7.981   6.848
11209SOL     OW35560   3.224   7.900   7.237
11209SOL    HW135561   3.231   7.948   7.325
11209SOL    HW235562   3.279   7.816   7.241
11210SOL     OW35563   2.792   8.287   7.133
11210SOL    HW135564   2.846   8.218   7.086
11210SOL    HW235565   2.740   8.340   7.065
11211SOL     OW35566   2.869   7.847   6.733
11211SOL    HW135567   2.772   7.870   6.731
11211SOL    HW235568   2.891   7.787   6.656
11212SOL     OW35569   2.917   8.122   6.004
11212SOL    HW135570   2.936   8.121   6.102
11212SOL    HW235571   2.832   8.073   5.986
11213SOL     OW35572   1.957   8.278   6.389
11213SOL    HW135573   2.048   8.283   6.430
11213SOL    HW235574   1.892   8.327   6.447
11214SOL     OW35575   1.964   9.261   7.147
11214SOL    HW135576   1.976   9.221   7.238
11214SOL    HW235577   1.868   9.285   7.133
11215SOL     OW35578   2.744   7.794   5.756
11215SOL    HW135579   2.815   7.841   5.704
11215SOL    HW235580   2.683   7.746   5.693
11216SOL     OW35581   3.512   8.025   7.409
11216SOL    HW135582   3.514   8.110   7.357
11216SOL    HW235583   3.539   7.949   7.349
11217SOL     OW35584   3.254   8.582   6.135
11217SOL    HW135585   3.336   8.571   6.079
11217SOL    HW235586   3.195   8.652   6.094
11218SOL     OW35587   2.412   7.535   6.525
11218SOL    HW135588   2.430   7.577   6.614
11218SOL    HW235589   2.405   7.607   6.456
11219SOL     OW35590   2.860   8.932   6.020
11219SOL    HW135591   2.861   8.999   5.946
11219SOL    HW235592   2.810   8.970   6.098
11220SOL     OW35593   2.203   9.291   6.490
11220SOL    HW135594   2.205   9.196   6.522
11220SOL    HW235595   2.281   9.341   6.528
11221SOL     OW35596   3.645   8.461   6.513
11221SOL    HW135597   3.617   8.448   6.418
11221SOL    HW235598   3.563   8.470   6.570
11222SOL     OW35599   2.185   8.386   5.866
11222SOL    HW135600   2.269   8.421   5.825
11222SOL    HW235601   2.155   8.305   5.815
11223SOL     OW35602   3.368   8.196   6.294
11223SOL    HW135603   3.366   8.149   6.382
11223SOL    HW235604   3.447   8.257   6.291
11224SOL     OW35605   2.315   8.651   7.368
11224SOL    HW135606   2.286   8.555   7.370
11224SOL    HW235607   2.241   8.709   7.403
11225SOL     OW35608   2.977   9.260   5.713
11225SOL    HW135609   2.901   9.237   5.773
11225SOL    HW235610   3.020   9.176   5.680
11226SOL     OW35611   2.121   7.727   7.058
11226SOL    HW135612   2.051   7.797   7.044
11226SOL    HW235613   2.081   7.648   7.105
11227SOL     OW35614   3.545   8.825   5.642
11227SOL    HW135615   3.537   8.898   5.574
11227SOL    HW235616   3.462   8.770   5.642
11228SOL     OW35617   2.341   9.229   5.893
11228SOL    HW135618   2.383   9.280   5.967
11228SOL    HW235619   2.409   9.170   5.849
11229SOL     OW35620   3.256   7.547   6.049
11229SOL    HW135621   3.255   7.521   5.952
11229SOL    HW235622   3.342   7.519   6.090
11230SOL     OW35623   2.122   9.188   6.797
11230SOL    HW135624   2.176   9.159   6.876
11230SOL    HW235625   2.141   9.128   6.719
11231SOL     OW35626   2.729   9.126   6.428
11231SOL    HW135627   2.730   9.042   6.483
11231SOL    HW235628   2.706   9.104   6.334
11232SOL     OW35629   2.266   8.058   6.141
11232SOL    HW135630   2.278   7.958   6.145
11232SOL    HW235631   2.169   8.080   6.146
11233SOL     OW35632   3.355   7.654   7.261
11233SOL    HW135633   3.360   7.663   7.361
11233SOL    HW235634   3.300   7.574   7.238
11234SOL     OW35635   2.470   7.511   5.718
11234SOL    HW135636   2.505   7.423   5.750
11234SOL    HW235637   2.409   7.495   5.640
11235SOL     OW35638   2.612   7.672   7.245
11235SOL    HW135639   2.689   7.632   7.294
11235SOL    HW235640   2.526   7.639   7.286
11236SOL     OW35641   2.719   8.933   6.816
11236SOL    HW135642   2.712   8.928   6.716
11236SOL    HW235643   2.777   8.860   6.850
11237SOL     OW35644   3.177   8.044   7.009
11237SOL    HW135645   3.207   8.002   7.094
11237SOL    HW235646   3.216   8.136   7.002
11238SOL     OW35647   2.718   8.878   6.537
11238SOL    HW135648   2.809   8.838   6.521
11238SOL    HW235649   2.654   8.843   6.469
11239SOL     OW35650   3.297   8.684   5.616
11239SOL    HW135651   3.343   8.612   5.669
11239SOL    HW235652   3.214   8.712   5.663
11240SOL     OW35653   2.111   7.540   5.763
11240SOL    HW135654   2.142   7.598   5.687
11240SOL    HW235655   2.170   7.554   5.842
11241SOL     OW35656   2.842   7.682   5.988
11241SOL    HW135657   2.807   7.714   5.900
11241SOL    HW235658   2.937   7.710   5.998
11242SOL     OW35659   2.912   8.087   7.000
11242SOL    HW135660   2.864   8.003   7.026
11242SOL    HW235661   3.011   8.072   7.002
11243SOL     OW35662   3.118   9.006   6.436
11243SOL    HW135663   3.123   9.065   6.355
11243SOL    HW235664   3.100   9.062   6.517
11244SOL     OW35665   2.366   8.589   6.284
11244SOL    HW135666   2.294   8.581   6.353
11244SOL    HW235667   2.324   8.589   6.193
11245SOL     OW35668   3.116   9.206   6.219
11245SOL    HW135669   3.157   9.277   6.162
11245SOL    HW235670   3.032   9.241   6.261
11246SOL     OW35671   2.922   7.930   5.605
11246SOL    HW135672   2.886   8.016   5.569
11246SOL    HW235673   2.986   7.949   5.679
11247SOL     OW35674   1.984   7.961   6.972
11247SOL    HW135675   2.066   7.978   6.918
11247SOL    HW235676   1.974   8.033   7.040
11248SOL     OW35677   2.453   7.661   6.762
11248SOL    HW135678   2.499   7.626   6.844
11248SOL    HW235679   2.355   7.673   6.781
11249SOL     OW35680   2.884   7.512   6.316
11249SOL    HW135681   2.816   7.566   6.267
11249SOL    HW235682   2.839   7.436   6.364
11250SOL     OW35683   3.376   8.620   6.386
11250SOL    HW135684   3.312   8.601   6.312
11250SOL    HW235685   3.466   8.641   6.348
11251SOL     OW35686   3.324   8.054   6.534
11251SOL    HW135687   3.255   7.982   6.546
11251SOL    HW235688   3.384   8.054   6.614
11252SOL     OW35689   3.658   8.211   5.969
11252SOL    HW135690   3.717   8.178   6.043
11252SOL    HW235691   3.663   8.147   5.892
11253SOL     OW35692   2.378   8.875   5.728
11253SOL    HW135693   2.302   8.842   5.784
11253SOL    HW235694   2.371   8.837   5.636
11254SOL     OW35695   3.603   8.703   6.248
11254SOL    HW135696   3.703   8.697   6.250
11254SOL    HW235697   3.576   8.799   6.253
11255SOL     OW35698   3.242   8.031   5.620
11255SOL    HW135699   3.202   8.003   5.707
11255SOL    HW235700   3.342   8.030   5.627
11256SOL     OW35701   2.323   7.664   5.904
11256SOL    HW135702   2.388   7.609   5.850
11256SOL    HW235703   2.310   7.752   5.859
11257SOL     OW35704   3.567   8.771   7.128
11257SOL    HW135705   3.628   8.696   7.102
11257SOL    HW235706   3.621   8.845   7.167
11258SOL     OW35707   2.866   8.725   6.925
11258SOL    HW135708   2.777   8.706   6.966
11258SOL    HW235709   2.936   8.725   6.996
11259SOL     OW35710   3.493   9.050   7.328
11259SOL    HW135711   3.431   9.026   7.254
11259SOL    HW235712   3.587   9.052   7.294
11260SOL     OW35713   2.914   8.595   6.688
11260SOL    HW135714   2.892   8.644   6.773
11260SOL    HW235715   2.935   8.662   6.616
11261SOL     OW35716   3.395   8.488   6.632
11261SOL    HW135717   3.307   8.481   6.680
11261SOL    HW235718   3.382   8.534   6.544
11262SOL     OW35719   2.828   7.493   6.915
11262SOL    HW135720   2.861   7.475   6.823
11262SOL    HW235721   2.897   7.545   6.966
11263SOL     OW35722   2.785   8.494   7.314
11263SOL    HW135723   2.692   8.503   7.350
11263SOL    HW235724   2.788   8.421   7.245
11264SOL     OW35725   2.594   8.487   5.998
11264SOL    HW135726   2.577   8.454   6.090
11264SOL    HW235727   2.676   8.443   5.961
11265SOL     OW35728   2.233   8.291   6.910
11265SOL    HW135729   2.313   8.281   6.969
11265SOL    HW235730   2.200   8.201   6.882
11266SOL     OW35731   3.098   7.823   6.874
11266SOL    HW135732   3.130   7.907   6.916
11266SOL    HW235733   3.014   7.840   6.824
11267SOL     OW35734   1.983   8.968   6.907
11267SOL    HW135735   1.996   9.057   6.862
11267SOL    HW235736   2.072   8.928   6.927
11268SOL     OW35737   2.215   8.587   6.053
11268SOL    HW135738   2.212   8.660   5.984
11268SOL    HW235739   2.204   8.499   6.007
11269SOL     OW35740   3.110   8.802   6.020
11269SOL    HW135741   3.176   8.872   6.049
11269SOL    HW235742   3.017   8.837   6.034
11270SOL     OW35743   3.441   8.058   6.060
11270SOL    HW135744   3.397   8.097   6.141
11270SOL    HW235745   3.506   8.124   6.023
11271SOL     OW35746   2.290   8.205   7.237
11271SOL    HW135747   2.358   8.230   7.168
11271SOL    HW235748   2.312   8.115   7.274
11272SOL     OW35749   3.513   8.260   7.272
11272SOL    HW135750   3.421   8.298   7.261
11272SOL    HW235751   3.569   8.283   7.192
11273SOL     OW35752   2.827   7.564   7.380
11273SOL    HW135753   2.896   7.627   7.343
11273SOL    HW235754   2.870   7.503   7.446
11274SOL     OW35755   2.379   7.566   7.353
11274SOL    HW135756   2.335   7.484   7.315
11274SOL    HW235757   2.310   7.630   7.384
11275SOL     OW35758   2.412   8.351   6.713
11275SOL    HW135759   2.485   8.282   6.717
11275SOL    HW235760   2.344   8.330   6.783
11276SOL     OW35761   3.161   8.282   6.533
11276SOL    HW135762   3.155   8.318   6.439
11276SOL    HW235763   3.215   8.198   6.533
11277SOL     OW35764   3.075   7.968   5.836
11277SOL    HW135765   3.096   7.890   5.894
11277SOL    HW235766   3.024   8.036   5.888
11278SOL     OW35767   2.181   7.663   6.797
11278SOL    HW135768   2.157   7.685   6.892
11278SOL    HW235769   2.165   7.566   6.780
11279SOL     OW35770   1.840   8.751   6.833
11279SOL    HW135771   1.793   8.715   6.914
11279SOL    HW235772   1.898   8.829   6.860
11280SOL     OW35773   3.614   8.451   7.447
11280SOL    HW135774   3.577   8.373   7.396
11280SOL    HW235775   3.558   8.468   7.527
11281SOL     OW35776   3.506   7.833   5.920
11281SOL    HW135777   3.547   7.766   5.983
11281SOL    HW235778   3.470   7.910   5.972
11282SOL     OW35779   2.787   8.145   6.491
11282SOL    HW135780   2.791   8.155   6.590
11282SOL    HW235781   2.726   8.070   6.467
11283SOL     OW35782   2.941   9.008   7.255
11283SOL    HW135783   2.902   9.042   7.170
11283SOL    HW235784   2.916   8.911   7.267
11284SOL     OW35785   3.728   8.993   7.185
11284SOL    HW135786   3.750   8.996   7.088
11284SOL    HW235787   3.812   8.990   7.239
11285SOL     OW35788   2.233   8.394   7.422
11285SOL    HW135789   2.290   8.377   7.503
11285SOL    HW235790   2.251   8.324   7.353
11286SOL     OW35791   3.386   7.695   5.709
11286SOL    HW135792   3.332   7.621   5.749
11286SOL    HW235793   3.427   7.750   5.782
11287SOL     OW35794   3.142   8.278   5.573
11287SOL    HW135795   3.175   8.184   5.584
11287SOL    HW235796   3.180   8.318   5.490
11288SOL     OW35797   2.964   8.778   6.486
11288SOL    HW135798   2.975   8.706   6.418
11288SOL    HW235799   3.022   8.856   6.461
11289SOL     OW35800   2.206   8.289   6.525
11289SOL    HW135801   2.283   8.325   6.578
11289SOL    HW235802   2.203   8.189   6.535
11290SOL     OW35803   2.227   8.011   6.556
11290SOL    HW135804   2.160   7.936   6.556
11290SOL    HW235805   2.287   8.001   6.477
11291SOL     OW35806   2.985   7.771   7.280
11291SOL    HW135807   2.938   7.816   7.355
11291SOL    HW235808   3.070   7.820   7.260
11292SOL     OW35809   3.021   7.628   7.050
11292SOL    HW135810   2.998   7.676   7.135
11292SOL    HW235811   3.057   7.693   6.983
11293SOL     OW35812   1.898   8.730   5.781
11293SOL    HW135813   1.806   8.753   5.750
11293SOL    HW235814   1.899   8.637   5.817
11294SOL     OW35815   1.929   9.263   6.521
11294SOL    HW135816   1.907   9.174   6.481
11294SOL    HW235817   2.027   9.280   6.512
11295SOL     OW35818   2.772   8.189   6.765
11295SOL    HW135819   2.859   8.176   6.811
11295SOL    HW235820   2.699   8.146   6.818
11296SOL     OW35821   1.860   7.952   6.723
11296SOL    HW135822   1.925   7.907   6.662
11296SOL    HW235823   1.900   7.962   6.814
11297SOL     OW35824   2.052   7.983   7.336
11297SOL    HW135825   2.116   7.921   7.292
11297SOL    HW235826   2.025   8.055   7.272
11298SOL     OW35827   3.273   8.380   7.225
11298SOL    HW135828   3.292   8.478   7.230
11298SOL    HW235829   3.255   8.354   7.130
11299SOL     OW35830   2.690   7.992   5.941
11299SOL    HW135831   2.702   7.916   5.877
11299SOL    HW235832   2.596   8.024   5.937
11300SOL     OW35833   3.500   8.044   6.744
11300SOL    HW135834   3.494   7.988   6.826
11300SOL    HW235835   3.593   8.039   6.707
11301SOL     OW35836   2.072   8.950   7.276
11301SOL    HW135837   2.088   9.037   7.323
11301SOL    HW235838   2.077   8.875   7.342
11302SOL     OW35839   2.597   7.888   6.702
11302SOL    HW135840   2.543   7.805   6.718
11302SOL    HW235841   2.594   7.910   6.605
11303SOL     OW35842   2.852   9.101   6.996
11303SOL    HW135843   2.794   9.049   6.935
11303SOL    HW235844   2.824   9.197   6.995
11304SOL     OW35845   2.293   7.900   5.769
11304SOL    HW135846   2.359   7.959   5.816
11304SOL    HW235847   2.212   7.954   5.744
11305SOL     OW35848   1.907   8.536   7.134
11305SOL    HW135849   1.930   8.531   7.232
11305SOL    HW235850   1.991   8.532   7.080
11306SOL     OW35851   3.135   8.440   6.746
11306SOL    HW135852   3.140   8.374   6.671
11306SOL    HW235853   3.055   8.499   6.733
11307SOL     OW35854   3.211   8.357   5.825
11307SOL    HW135855   3.144   8.324   5.892
11307SOL    HW235856   3.182   8.329   5.733
11308SOL     OW35857   3.590   9.207   6.739
11308SOL    HW135858   3.671   9.232   6.687
11308SOL    HW235859   3.573   9.109   6.730
11309SOL     OW35860   3.094   9.168   6.656
11309SOL    HW135861   3.184   9.207   6.636
11309SOL    HW235862   3.096   9.127   6.747
11310SOL     OW35863   1.951   8.621   6.617
11310SOL    HW135864   1.914   8.666   6.697
11310SOL    HW235865   1.883   8.558   6.580
11311SOL     OW35866   2.502   9.048   7.328
11311SOL    HW135867   2.436   9.098   7.384
11311SOL    HW235868   2.512   9.094   7.239
11312SOL     OW35869   3.630   7.647   6.083
11312SOL    HW135870   3.717   7.610   6.052
11312SOL    HW235871   3.571   7.573   6.114
11313SOL     OW35872   3.276   9.010   6.101
11313SOL    HW135873   3.337   9.054   6.034
11313SOL    HW235874   3.214   9.079   6.140
11314SOL     OW35875   2.083   9.190   7.404
11314SOL    HW135876   2.015   9.153   7.469
11314SOL    HW235877   2.076   9.289   7.402
11315SOL     OW35878   3.155   8.358   6.258
11315SOL    HW135879   3.230   8.291   6.259
11315SOL    HW235880   3.183   8.438   6.204
11316SOL     OW35881   2.607   8.679   6.993
11316SOL    HW135882   2.569   8.724   7.074
11316SOL    HW235883   2.541   8.684   6.918
11317SOL     OW35884   2.539   9.089   5.761
11317SOL    HW135885   2.551   9.120   5.666
11317SOL    HW235886   2.487   9.004   5.761
11318SOL     OW35887   3.716   7.605   6.633
11318SOL    HW135888   3.743   7.514   6.602
11318SOL    HW235889   3.629   7.631   6.589
11319SOL     OW35890   2.073   7.773   6.310
11319SOL    HW135891   1.985   7.807   6.276
11319SOL    HW235892   2.073   7.775   6.410
11320SOL     OW35893   3.083   9.015   5.643
11320SOL    HW135894   3.089   8.925   5.688
11320SOL    HW235895   3.002   9.017   5.584
11321SOL     OW35896   2.661   8.422   6.942
11321SOL    HW135897   2.707   8.412   6.854
11321SOL    HW235898   2.642   8.519   6.960
11322SOL     OW35899   2.811   8.358   5.905
11322SOL    HW135900   2.841   8.367   5.810
11322SOL    HW235901   2.850   8.275   5.945
11323SOL     OW35902   3.342   9.105   5.685
11323SOL    HW135903   3.251   9.068   5.665
11323SOL    HW235904   3.405   9.079   5.613
11324SOL     OW35905   2.967   8.555   6.334
11324SOL    HW135906   2.884   8.510   6.367
11324SOL    HW235907   3.031   8.486   6.300
11325SOL     OW35908   2.943   7.666   6.538
11325SOL    HW135909   2.931   7.632   6.445
11325SOL    HW235910   2.941   7.590   6.603
11326SOL     OW35911   2.467   8.934   6.095
11326SOL    HW135912   2.506   8.873   6.025
11326SOL    HW235913   2.367   8.932   6.089
11327SOL     OW35914   3.611   7.893   6.977
11327SOL    HW135915   3.692   7.952   6.966
11327SOL    HW235916   3.632   7.802   6.943
11328SOL     OW35917   2.162   8.791   5.877
11328SOL    HW135918   2.067   8.781   5.847
11328SOL    HW235919   2.166   8.853   5.955
11329SOL     OW35920   1.984   8.507   7.392
11329SOL    HW135921   1.904   8.462   7.432
11329SOL    HW235922   2.066   8.454   7.412
11330SOL     OW35923   2.579   7.573   6.993
11330SOL    HW135924   2.667   7.542   6.957
11330SOL    HW235925   2.593   7.616   7.082
11331SOL     OW35926   1.987   7.807   5.493
11331SOL    HW135927   1.890   7.813   5.469
11331SOL    HW235928   2.033   7.893   5.470
11332SOL     OW35929   3.255   8.311   6.960
11332SOL    HW135930   3.196   8.354   6.892
11332SOL    HW235931   3.348   8.308   6.925
11333SOL     OW35932   1.852   7.542   5.848
11333SOL    HW135933   1.788   7.579   5.780
11333SOL    HW235934   1.946   7.549   5.813
11334SOL     OW35935   3.064   8.762   5.748
11334SOL    HW135936   2.968   8.738   5.732
11334SOL    HW235937   3.082   8.763   5.846
11335SOL     OW35938   2.467   8.254   7.035
11335SOL    HW135939   2.529   8.330   7.016
11335SOL    HW235940   2.507   8.169   7.001
11336SOL     OW35941   3.346   9.256   6.597
11336SOL    HW135942   3.367   9.338   6.545
11336SOL    HW235943   3.425   9.230   6.653
11337SOL     OW35944   2.684   7.931   7.157
11337SOL    HW135945   2.712   7.989   7.233
11337SOL    HW235946   2.665   7.839   7.191
11338SOL     OW35947   3.333   8.649   7.231
11338SOL    HW135948   3.330   8.667   7.329
11338SOL    HW235949   3.417   8.687   7.193
11339SOL     OW35950   2.199   9.142   7.063
11339SOL    HW135951   2.113   9.185   7.091
11339SOL    HW235952   2.194   9.044   7.083
11340SOL     OW35953   3.494   8.308   6.827
11340SOL    HW135954   3.498   8.215   6.790
11340SOL    HW235955   3.471   8.372   6.754
11341SOL     OW35956   3.100   7.772   6.035
11341SOL    HW135957   3.158   7.691   6.038
11341SOL    HW235958   3.112   7.825   6.119
11342SOL     OW35959   2.477   8.123   6.305
11342SOL    HW135960   2.510   8.217   6.293
11342SOL    HW235961   2.400   8.106   6.243
11343SOL     OW35962   3.578   7.815   7.243
11343SOL    HW135963   3.587   7.849   7.149
11343SOL    HW235964   3.503   7.750   7.248
11344SOL     OW35965   3.653   8.343   7.050
11344SOL    HW135966   3.689   8.436   7.047
11344SOL    HW235967   3.599   8.325   6.968
11345SOL     OW35968   2.741   8.793   5.690
11345SOL    HW135969   2.694   8.805   5.778
11345SOL    HW235970   2.758   8.883   5.649
11346SOL     OW35971   2.651   9.310   6.608
11346SOL    HW135972   2.562   9.353   6.591
11346SOL    HW235973   2.667   9.240   6.539
11347SOL     OW35974   2.765   8.420   6.463
11347SOL    HW135975   2.774   8.321   6.473
11347SOL    HW235976   2.795   8.464   6.548
11348SOL     OW35977   2.899   8.368   5.649
11348SOL    HW135978   2.871   8.444   5.591
11348SOL    HW235979   2.990   8.337   5.622
11349SOL     OW35980   3.676   9.035   6.447
11349SOL    HW135981   3.616   9.013   6.370
11349SOL    HW235982   3.638   8.996   6.531
11350SOL     OW35983   2.076   8.753   7.461
11350SOL    HW135984   2.041   8.666   7.425
11350SOL    HW235985   2.029   8.775   7.546
11351SOL     OW35986   2.061   8.721   6.242
11351SOL    HW135987   2.080   8.677   6.330
11351SOL    HW235988   2.104   8.668   6.169
11352SOL     OW35989   2.505   8.788   7.223
11352SOL    HW135990   2.431   8.740   7.270
11352SOL    HW235991   2.511   8.881   7.259
11353SOL     OW35992   3.688   7.646   6.899
11353SOL    HW135993   3.768   7.607   6.944
11353SOL    HW235994   3.696   7.635   6.800
11354SOL     OW35995   2.296   7.789   6.155
11354SOL    HW135996   2.301   7.733   6.072
11354SOL    HW235997   2.211   7.768   6.204
11355SOL     OW35998   3.556   8.942   6.675
11355SOL    HW135999   3.473   8.911   6.628
11355SOL    HW236000   3.595   8.866   6.726
11356SOL     OW36001   2.209   8.026   6.834
11356SOL    HW136002   2.275   7.969   6.885
11356SOL    HW236003   2.227   8.019   6.736
11357SOL     OW36004   2.678   9.084   6.170
11357SOL    HW136005   2.679   9.178   6.135
11357SOL    HW236006   2.595   9.038   6.139
11358SOL     OW36007   3.306   7.704   6.752
11358SOL    HW136008   3.353   7.644   6.816
11358SOL    HW236009   3.229   7.748   6.797
11359SOL     OW36010   2.925   7.426   6.669
11359SOL    HW136011   2.865   7.375   6.607
11359SOL    HW236012   3.017   7.387   6.666
11360SOL     OW36013   2.635   8.765   5.950
11360SOL    HW136014   2.622   8.667   5.967
11360SOL    HW236015   2.723   8.794   5.988
11361SOL     OW36016   2.469   8.960   6.945
11361SOL    HW136017   2.475   9.043   7.000
11361SOL    HW236018   2.555   8.945   6.896
11362SOL     OW36019   3.249   7.468   5.789
11362SOL    HW136020   3.298   7.397   5.738
11362SOL    HW236021   3.155   7.437   5.806
11363SOL     OW36022   3.137   7.907   6.273
11363SOL    HW136023   3.081   7.989   6.270
11363SOL    HW236024   3.144   7.875   6.368
11364SOL     OW36025   3.469   7.660   6.536
11364SOL    HW136026   3.409   7.684   6.612
11364SOL    HW236027   3.455   7.724   6.460
11365SOL     OW36028   1.916   8.468   5.898
11365SOL    HW136029   2.015   8.460   5.884
11365SOL    HW236030   1.878   8.377   5.913
11366SOL     OW36031   2.774   9.176   5.874
11366SOL    HW136032   2.689   9.138   5.837
11366SOL    HW236033   2.752   9.238   5.949
11367SOL     OW36034   2.033   8.035   7.605
11367SOL    HW136035   1.937   8.037   7.633
11367SOL    HW236036   2.039   8.036   7.505
11368SOL     OW36037   2.069   7.750   8.480
11368SOL    HW136038   2.121   7.716   8.558
11368SOL    HW236039   1.981   7.701   8.474
11369SOL     OW36040   1.845   7.870   8.097
11369SOL    HW136041   1.761   7.891   8.147
11369SOL    HW236042   1.824   7.810   8.020
11370SOL     OW36043   2.484   8.777   8.661
11370SOL    HW136044   2.402   8.752   8.611
11370SOL    HW236045   2.486   8.876   8.675
11371SOL     OW36046   3.459   8.936   8.165
11371SOL    HW136047   3.397   8.893   8.230
11371SOL    HW236048   3.406   8.978   8.091
11372SOL     OW36049   3.011   8.135   8.105
11372SOL    HW136050   3.063   8.215   8.074
11372SOL    HW236051   2.971   8.154   8.194
11373SOL     OW36052   3.654   8.003   7.636
11373SOL    HW136053   3.608   8.022   7.549
11373SOL    HW236054   3.602   7.934   7.686
11374SOL     OW36055   2.611   8.548   8.501
11374SOL    HW136056   2.564   8.591   8.579
11374SOL    HW236057   2.619   8.614   8.426
11375SOL     OW36058   2.746   8.178   9.244
11375SOL    HW136059   2.711   8.229   9.323
11375SOL    HW236060   2.772   8.241   9.172
11376SOL     OW36061   2.510   8.404   8.125
11376SOL    HW136062   2.594   8.398   8.180
11376SOL    HW236063   2.456   8.482   8.157
11377SOL     OW36064   2.576   8.577   9.270
11377SOL    HW136065   2.601   8.666   9.308
11377SOL    HW236066   2.487   8.585   9.224
11378SOL     OW36067   2.246   8.781   8.510
11378SOL    HW136068   2.197   8.711   8.458
11378SOL    HW236069   2.267   8.858   8.450
11379SOL     OW36070   3.317   8.954   8.821
11379SOL    HW136071   3.370   9.039   8.826
11379SOL    HW236072   3.234   8.963   8.876
11380SOL     OW36073   2.325   7.869   8.966
11380SOL    HW136074   2.411   7.818   8.962
11380SOL    HW236075   2.249   7.805   8.977
11381SOL     OW36076   3.443   7.888   8.192
11381SOL    HW136077   3.369   7.885   8.124
11381SOL    HW236078   3.434   7.969   8.248
11382SOL     OW36079   2.012   9.188   7.959
11382SOL    HW136080   2.062   9.255   8.014
11382SOL    HW236081   2.009   9.100   8.007
11383SOL     OW36082   2.982   8.814   9.165
11383SOL    HW136083   3.025   8.829   9.254
11383SOL    HW236084   2.939   8.724   9.163
11384SOL     OW36085   1.998   8.952   8.100
11384SOL    HW136086   1.937   8.990   8.170
11384SOL    HW236087   2.011   8.855   8.117
11385SOL     OW36088   2.104   8.532   8.375
11385SOL    HW136089   2.148   8.443   8.389
11385SOL    HW236090   2.016   8.533   8.423
11386SOL     OW36091   2.475   9.187   8.942
11386SOL    HW136092   2.384   9.200   8.980
11386SOL    HW236093   2.512   9.274   8.912
11387SOL     OW36094   2.423   8.395   7.637
11387SOL    HW136095   2.472   8.442   7.563
11387SOL    HW236096   2.470   8.412   7.724
11388SOL     OW36097   3.462   7.566   8.887
11388SOL    HW136098   3.530   7.595   8.819
11388SOL    HW236099   3.428   7.646   8.936
11389SOL     OW36100   1.957   8.108   8.004
11389SOL    HW136101   1.923   8.021   8.039
11389SOL    HW236102   1.979   8.169   8.080
11390SOL     OW36103   3.718   9.223   7.771
11390SOL    HW136104   3.800   9.214   7.829
11390SOL    HW236105   3.717   9.315   7.731
11391SOL     OW36106   1.910   9.069   7.568
11391SOL    HW136107   1.854   8.987   7.579
11391SOL    HW236108   1.889   9.134   7.641
11392SOL     OW36109   3.583   8.374   8.117
11392SOL    HW136110   3.675   8.335   8.124
11392SOL    HW236111   3.577   8.432   8.037
11393SOL     OW36112   3.567   8.552   7.908
11393SOL    HW136113   3.645   8.522   7.853
11393SOL    HW236114   3.591   8.635   7.958
11394SOL     OW36115   2.433   8.855   8.180
11394SOL    HW136116   2.390   8.765   8.185
11394SOL    HW236117   2.452   8.878   8.084
11395SOL     OW36118   3.111   8.649   8.819
11395SOL    HW136119   3.110   8.558   8.776
11395SOL    HW236120   3.158   8.644   8.907
11396SOL     OW36121   2.678   7.440   7.938
11396SOL    HW136122   2.733   7.522   7.924
11396SOL    HW236123   2.582   7.465   7.951
11397SOL     OW36124   2.081   8.371   8.742
11397SOL    HW136125   2.177   8.345   8.734
11397SOL    HW236126   2.037   8.365   8.653
11398SOL     OW36127   3.440   8.505   7.662
11398SOL    HW136128   3.358   8.449   7.677
11398SOL    HW236129   3.483   8.524   7.750
11399SOL     OW36130   3.031   9.241   9.041
11399SOL    HW136131   3.038   9.319   8.978
11399SOL    HW236132   3.042   9.156   8.990
11400SOL     OW36133   3.291   8.812   8.355
11400SOL    HW136134   3.257   8.817   8.449
11400SOL    HW236135   3.294   8.716   8.325
11401SOL     OW36136   3.448   9.357   7.979
11401SOL    HW136137   3.451   9.289   7.906
11401SOL    HW236138   3.430   9.312   8.066
11402SOL     OW36139   2.425   8.127   7.728
11402SOL    HW136140   2.437   8.217   7.685
11402SOL    HW236141   2.354   8.133   7.798
11403SOL     OW36142   3.165   7.876   8.385
11403SOL    HW136143   3.071   7.842   8.376
11403SOL    HW236144   3.214   7.822   8.452
11404SOL     OW36145   3.449   9.176   7.778
11404SOL    HW136146   3.549   9.181   7.769
11404SOL    HW236147   3.409   9.170   7.686
11405SOL     OW36148   2.675   8.027   8.886
11405SOL    HW136149   2.661   7.988   8.977
11405SOL    HW236150   2.643   7.963   8.816
11406SOL     OW36151   3.283   7.891   9.133
11406SOL    HW136152   3.291   7.946   9.216
11406SOL    HW236153   3.333   7.804   9.145
11407SOL     OW36154   2.836   8.343   9.040
11407SOL    HW136155   2.881   8.269   8.989
11407SOL    HW236156   2.795   8.407   8.975
11408SOL     OW36157   2.870   7.917   8.633
11408SOL    HW136158   2.779   7.879   8.653
11408SOL    HW236159   2.862   8.015   8.617
11409SOL     OW36160   2.901   8.097   7.853
11409SOL    HW136161   2.930   8.099   7.949
11409SOL    HW236162   2.810   8.056   7.846
11410SOL     OW36163   2.026   8.288   8.189
11410SOL    HW136164   2.096   8.272   8.259
11410SOL    HW236165   2.002   8.384   8.187
11411SOL     OW36166   1.993   9.341   9.115
11411SOL    HW136167   2.030   9.316   9.204
11411SOL    HW236168   1.902   9.301   9.105
11412SOL     OW36169   2.712   7.763   7.666
11412SOL    HW136170   2.769   7.803   7.594
11412SOL    HW236171   2.651   7.694   7.626
11413SOL     OW36172   3.561   8.047   9.286
11413SOL    HW136173   3.549   8.132   9.234
11413SOL    HW236174   3.589   7.974   9.224
11414SOL     OW36175   3.306   8.586   8.023
11414SOL    HW136176   3.395   8.570   7.981
11414SOL    HW236177   3.261   8.663   7.977
11415SOL     OW36178   2.362   7.620   8.377
11415SOL    HW136179   2.399   7.631   8.469
11415SOL    HW236180   2.359   7.709   8.331
11416SOL     OW36181   2.195   9.259   8.365
11416SOL    HW136182   2.239   9.170   8.366
11416SOL    HW236183   2.258   9.329   8.398
11417SOL     OW36184   3.661   8.489   8.356
11417SOL    HW136185   3.611   8.464   8.273
11417SOL    HW236186   3.596   8.502   8.431
11418SOL     OW36187   3.066   8.976   8.945
11418SOL    HW136188   3.050   8.922   9.028
11418SOL    HW236189   3.007   8.943   8.872
11419SOL     OW36190   2.188   8.398   7.795
11419SOL    HW136191   2.265   8.407   7.731
11419SOL    HW236192   2.186   8.305   7.832
11420SOL     OW36193   3.370   8.207   8.128
11420SOL    HW136194   3.356   8.171   8.220
11420SOL    HW236195   3.449   8.269   8.128
11421SOL     OW36196   2.324   8.608   9.162
11421SOL    HW136197   2.305   8.640   9.069
11421SOL    HW236198   2.253   8.642   9.224
11422SOL     OW36199   2.936   9.245   7.589
11422SOL    HW136200   2.872   9.201   7.651
11422SOL    HW236201   2.991   9.176   7.542
11423SOL     OW36202   2.104   7.713   8.978
11423SOL    HW136203   2.020   7.767   8.975
11423SOL    HW236204   2.083   7.622   9.016
11424SOL     OW36205   3.558   8.854   7.513
11424SOL    HW136206   3.536   8.928   7.449
11424SOL    HW236207   3.484   8.788   7.515
11425SOL     OW36208   3.247   7.531   7.883
11425SOL    HW136209   3.241   7.510   7.785
11425SOL    HW236210   3.341   7.519   7.914
11426SOL     OW36211   2.086   9.193   8.682
11426SOL    HW136212   2.135   9.107   8.702
11426SOL    HW236213   2.039   9.185   8.594
11427SOL     OW36214   2.760   9.206   8.408
11427SOL    HW136215   2.807   9.139   8.466
11427SOL    HW236216   2.712   9.158   8.334
11428SOL     OW36217   2.215   8.122   7.910
11428SOL    HW136218   2.244   8.028   7.927
11428SOL    HW236219   2.117   8.131   7.929
11429SOL     OW36220   3.412   7.658   9.212
11429SOL    HW136221   3.400   7.678   9.309
11429SOL    HW236222   3.391   7.562   9.194
11430SOL     OW36223   2.533   7.567   7.582
11430SOL    HW136224   2.578   7.478   7.593
11430SOL    HW236225   2.481   7.567   7.497
11431SOL     OW36226   2.677   7.749   9.339
11431SOL    HW136227   2.738   7.683   9.296
11431SOL    HW236228   2.722   7.789   9.419
11432SOL     OW36229   3.170   8.018   8.915
11432SOL    HW136230   3.219   7.978   8.993
11432SOL    HW236231   3.206   8.109   8.897
11433SOL     OW36232   2.637   8.727   8.311
11433SOL    HW136233   2.709   8.725   8.242
11433SOL    HW236234   2.560   8.781   8.276
11434SOL     OW36235   2.787   7.961   8.300
11434SOL    HW136236   2.757   7.942   8.206
11434SOL    HW236237   2.836   7.882   8.336
11435SOL     OW36238   2.414   7.508   7.951
11435SOL    HW136239   2.339   7.505   8.016
11435SOL    HW236240   2.404   7.589   7.892
11436SOL     OW36241   3.336   8.694   7.499
11436SOL    HW136242   3.370   8.620   7.557
11436SOL    HW236243   3.255   8.735   7.541
11437SOL     OW36244   2.145   7.498   7.616
11437SOL    HW136245   2.189   7.576   7.571
11437SOL    HW236246   2.214   7.442   7.661
11438SOL     OW36247   2.825   7.669   7.900
11438SOL    HW136248   2.783   7.701   7.816
11438SOL    HW236249   2.922   7.694   7.901
11439SOL     OW36250   2.924   8.140   8.884
11439SOL    HW136251   2.842   8.082   8.888
11439SOL    HW236252   3.005   8.083   8.899
11440SOL     OW36253   2.318   8.604   8.195
11440SOL    HW136254   2.253   8.574   8.265
11440SOL    HW236255   2.274   8.603   8.106
11441SOL     OW36256   3.140   9.245   8.058
11441SOL    HW136257   3.153   9.328   8.003
11441SOL    HW236258   3.051   9.250   8.104
11442SOL     OW36259   2.873   7.902   7.489
11442SOL    HW136260   2.841   7.986   7.446
11442SOL    HW236261   2.944   7.923   7.556
11443SOL     OW36262   1.980   8.081   8.831
11443SOL    HW136263   2.077   8.065   8.814
11443SOL    HW236264   1.967   8.172   8.869
11444SOL     OW36265   2.444   7.642   8.639
11444SOL    HW136266   2.481   7.551   8.654
11444SOL    HW236267   2.353   7.648   8.679
11445SOL     OW36268   2.726   7.883   8.050
11445SOL    HW136269   2.680   7.935   7.978
11445SOL    HW236270   2.762   7.798   8.013
11446SOL     OW36271   2.912   7.526   8.188
11446SOL    HW136272   2.859   7.557   8.110
11446SOL    HW236273   2.876   7.439   8.221
11447SOL     OW36274   3.292   8.545   8.305
11447SOL    HW136275   3.236   8.467   8.332
11447SOL    HW236276   3.297   8.549   8.205
11448SOL     OW36277   3.330   8.097   8.374
11448SOL    HW136278   3.266   8.021   8.385
11448SOL    HW236279   3.399   8.094   8.447
11449SOL     OW36280   3.681   8.209   7.812
11449SOL    HW136281   3.735   8.176   7.889
11449SOL    HW236282   3.678   8.139   7.740
11450SOL     OW36283   2.332   8.929   7.686
11450SOL    HW136284   2.261   8.895   7.747
11450SOL    HW236285   2.295   8.943   7.594
11451SOL     OW36286   3.640   8.762   8.051
11451SOL    HW136287   3.735   8.782   8.075
11451SOL    HW236288   3.580   8.830   8.093
11452SOL     OW36289   3.236   8.019   7.482
11452SOL    HW136290   3.191   7.984   7.564
11452SOL    HW236291   3.335   8.011   7.492
11453SOL     OW36292   2.381   7.706   7.769
11453SOL    HW136293   2.440   7.659   7.704
11453SOL    HW236294   2.338   7.784   7.724
11454SOL     OW36295   3.644   8.661   8.935
11454SOL    HW136296   3.735   8.630   8.907
11454SOL    HW236297   3.652   8.747   8.985
11455SOL     OW36298   2.918   8.837   8.745
11455SOL    HW136299   2.830   8.821   8.790
11455SOL    HW236300   2.985   8.769   8.776
11456SOL     OW36301   3.563   9.136   9.078
11456SOL    HW136302   3.516   9.157   8.992
11456SOL    HW236303   3.612   9.049   9.069
11457SOL     OW36304   2.860   8.568   8.618
11457SOL    HW136305   2.885   8.665   8.615
11457SOL    HW236306   2.776   8.554   8.565
11458SOL     OW36307   3.456   8.535   8.539
11458SOL    HW136308   3.455   8.613   8.601
11458SOL    HW236309   3.390   8.550   8.465
11459SOL     OW36310   2.770   7.537   8.888
11459SOL    HW136311   2.779   7.507   8.793
11459SOL    HW236312   2.851   7.588   8.915
11460SOL     OW36313   2.850   8.559   9.206
11460SOL    HW136314   2.753   8.571   9.228
11460SOL    HW236315   2.859   8.482   9.142
11461SOL     OW36316   2.566   8.440   7.858
11461SOL    HW136317   2.550   8.423   7.955
11461SOL    HW236318   2.653   8.399   7.831
11462SOL     OW36319   2.338   8.270   8.716
11462SOL    HW136320   2.431   8.276   8.752
11462SOL    HW236321   2.301   8.179   8.734
11463SOL     OW36322   3.103   7.827   8.736
11463SOL    HW136323   3.132   7.900   8.799
11463SOL    HW236324   3.017   7.854   8.693
11464SOL     OW36325   1.922   8.941   8.773
11464SOL    HW136326   1.881   9.023   8.734
11464SOL    HW236327   2.021   8.945   8.763
11465SOL     OW36328   2.173   8.611   7.967
11465SOL    HW136329   2.167   8.694   7.912
11465SOL    HW236330   2.182   8.532   7.906
11466SOL     OW36331   2.365   7.945   8.306
11466SOL    HW136332   2.364   8.009   8.230
11466SOL    HW236333   2.445   7.963   8.364
11467SOL     OW36334   3.194   8.808   7.896
11467SOL    HW136335   3.254   8.886   7.914
11467SOL    HW236336   3.103   8.826   7.933
11468SOL     OW36337   3.215   8.807   8.613
11468SOL    HW136338   3.254   8.878   8.671
11468SOL    HW236339   3.175   8.735   8.670
11469SOL     OW36340   3.447   8.070   7.898
11469SOL    HW136341   3.405   8.111   7.979
11469SOL    HW236342   3.517   8.132   7.862
11470SOL     OW36343   2.197   8.937   8.727
11470SOL    HW136344   2.198   8.872   8.651
11470SOL    HW236345   2.287   8.979   8.737
11471SOL     OW36346   3.501   8.282   9.161
11471SOL    HW136347   3.403   8.303   9.163
11471SOL    HW236348   3.540   8.315   9.075
11472SOL     OW36349   2.867   7.596   9.239
11472SOL    HW136350   2.933   7.663   9.207
11472SOL    HW236351   2.915   7.515   9.272
11473SOL     OW36352   2.472   8.300   8.478
11473SOL    HW136353   2.523   8.387   8.480
11473SOL    HW236354   2.422   8.289   8.564
11474SOL     OW36355   3.158   8.316   8.411
11474SOL    HW136356   3.067   8.279   8.388
11474SOL    HW236357   3.226   8.244   8.400
11475SOL     OW36358   3.059   7.943   7.691
11475SOL    HW136359   3.080   7.865   7.750
11475SOL    HW236360   3.009   8.012   7.743
11476SOL     OW36361   2.182   7.654   8.718
11476SOL    HW136362   2.167   7.685   8.811
11476SOL    HW236363   2.146   7.561   8.707
11477SOL     OW36364   1.905   8.675   8.689
11477SOL    HW136365   1.941   8.630   8.771
11477SOL    HW236366   1.890   8.772   8.707
11478SOL     OW36367   2.572   8.036   8.457
11478SOL    HW136368   2.650   8.019   8.397
11478SOL    HW236369   2.547   8.133   8.453
11479SOL     OW36370   3.728   8.422   9.252
11479SOL    HW136371   3.644   8.371   9.235
11479SOL    HW236372   3.742   8.433   9.350
11480SOL     OW36373   2.179   7.503   8.098
11480SOL    HW136374   2.142   7.594   8.117
11480SOL    HW236375   2.191   7.454   8.184
11481SOL     OW36376   3.464   7.837   7.755
11481SOL    HW136377   3.519   7.776   7.812
11481SOL    HW236378   3.440   7.919   7.807
11482SOL     OW36379   2.907   8.188   8.373
11482SOL    HW136380   2.889   8.200   8.470
11482SOL    HW236381   2.866   8.102   8.342
11483SOL     OW36382   2.790   9.006   9.225
11483SOL    HW136383   2.720   9.009   9.154
11483SOL    HW236384   2.871   8.960   9.190
11484SOL     OW36385   3.714   8.916   9.013
11484SOL    HW136386   3.733   8.943   8.919
11484SOL    HW236387   3.797   8.931   9.068
11485SOL     OW36388   2.216   8.309   9.232
11485SOL    HW136389   2.276   8.369   9.180
11485SOL    HW236390   2.233   8.214   9.207
11486SOL     OW36391   3.360   7.694   7.531
11486SOL    HW136392   3.306   7.619   7.570
11486SOL    HW236393   3.397   7.750   7.605
11487SOL     OW36394   3.151   8.275   7.448
11487SOL    HW136395   3.180   8.179   7.456
11487SOL    HW236396   3.192   8.316   7.367
11488SOL     OW36397   2.814   8.728   8.114
11488SOL    HW136398   2.854   8.637   8.101
11488SOL    HW236399   2.868   8.795   8.063
11489SOL     OW36400   2.202   8.275   8.402
11489SOL    HW136401   2.302   8.280   8.402
11489SOL    HW236402   2.173   8.183   8.429
11490SOL     OW36403   2.151   8.003   8.456
11490SOL    HW136404   2.107   7.913   8.469
11490SOL    HW236405   2.230   7.992   8.397
11491SOL     OW36406   3.026   7.812   9.169
11491SOL    HW136407   2.984   7.882   9.227
11491SOL    HW236408   3.121   7.837   9.151
11492SOL     OW36409   2.999   7.669   8.938
11492SOL    HW136410   3.003   7.726   9.020
11492SOL    HW236411   3.040   7.717   8.861
11493SOL     OW36412   1.913   8.753   7.683
11493SOL    HW136413   1.823   8.783   7.651
11493SOL    HW236414   1.909   8.655   7.705
11494SOL     OW36415   1.945   9.193   8.449
11494SOL    HW136416   1.900   9.133   8.383
11494SOL    HW236417   2.030   9.229   8.409
11495SOL     OW36418   2.333   9.016   8.377
11495SOL    HW136419   2.405   9.073   8.417
11495SOL    HW236420   2.369   8.967   8.298
11496SOL     OW36421   2.832   8.199   8.631
11496SOL    HW136422   2.885   8.194   8.716
11496SOL    HW236423   2.737   8.223   8.652
11497SOL     OW36424   1.901   8.065   8.572
11497SOL    HW136425   1.982   8.053   8.516
11497SOL    HW236426   1.928   8.073   8.668
11498SOL     OW36427   3.235   8.350   9.123
11498SOL    HW136428   3.239   8.450   9.113
11498SOL    HW236429   3.225   8.308   9.032
11499SOL     OW36430   2.652   7.992   7.811
11499SOL    HW136431   2.662   7.910   7.754
11499SOL    HW236432   2.572   8.043   7.781
11500SOL     OW36433   3.527   8.084   8.566
11500SOL    HW136434   3.520   8.000   8.619
11500SOL    HW236435   3.623   8.107   8.552
11501SOL     OW36436   2.077   8.984   9.173
11501SOL    HW136437   2.054   9.034   9.256
11501SOL    HW236438   2.093   8.888   9.196
11502SOL     OW36439   2.603   7.868   8.671
11502SOL    HW136440   2.549   7.784   8.669
11502SOL    HW236441   2.579   7.926   8.593
11503SOL     OW36442   2.274   7.919   7.634
11503SOL    HW136443   2.342   7.988   7.658
11503SOL    HW236444   2.183   7.960   7.639
11504SOL     OW36445   1.997   8.556   8.921
11504SOL    HW136446   1.996   8.525   9.016
11504SOL    HW236447   2.026   8.482   8.862
11505SOL     OW36448   3.086   8.418   8.665
11505SOL    HW136449   3.125   8.384   8.579
11505SOL    HW236450   2.998   8.461   8.646
11506SOL     OW36451   3.213   8.369   7.700
11506SOL    HW136452   3.151   8.332   7.770
11506SOL    HW236453   3.185   8.334   7.610
11507SOL     OW36454   3.601   9.143   8.583
11507SOL    HW136455   3.670   9.176   8.519
11507SOL    HW236456   3.568   9.054   8.553
11508SOL     OW36457   3.634   7.675   7.896
11508SOL    HW136458   3.693   7.652   7.818
11508SOL    HW236459   3.587   7.593   7.928
11509SOL     OW36460   3.308   9.048   7.971
11509SOL    HW136461   3.357   9.089   7.894
11509SOL    HW236462   3.240   9.112   8.005
11510SOL     OW36463   2.091   9.245   9.349
11510SOL    HW136464   2.047   9.170   9.398
11510SOL    HW236465   2.142   9.301   9.414
11511SOL     OW36466   3.160   8.352   8.041
11511SOL    HW136467   3.237   8.292   8.065
11511SOL    HW236468   3.195   8.443   8.019
11512SOL     OW36469   2.674   8.786   8.864
11512SOL    HW136470   2.646   8.851   8.934
11512SOL    HW236471   2.602   8.778   8.795
11513SOL     OW36472   2.592   8.981   7.581
11513SOL    HW136473   2.572   9.011   7.488
11513SOL    HW236474   2.506   8.959   7.628
11514SOL     OW36475   3.467   9.185   8.824
11514SOL    HW136476   3.517   9.171   8.738
11514SOL    HW236477   3.446   9.282   8.835
11515SOL     OW36478   3.691   7.609   8.436
11515SOL    HW136479   3.735   7.525   8.405
11515SOL    HW236480   3.602   7.619   8.391
11516SOL     OW36481   2.088   7.752   8.176
11516SOL    HW136482   2.003   7.797   8.149
11516SOL    HW236483   2.099   7.758   8.276
11517SOL     OW36484   3.089   9.042   7.482
11517SOL    HW136485   3.098   8.955   7.531
11517SOL    HW236486   3.038   9.027   7.397
11518SOL     OW36487   2.734   8.511   8.856
11518SOL    HW136488   2.788   8.519   8.772
11518SOL    HW236489   2.702   8.601   8.883
11519SOL     OW36490   2.791   8.329   7.759
11519SOL    HW136491   2.823   8.341   7.665
11519SOL    HW236492   2.835   8.249   7.800
11520SOL     OW36493   3.329   9.166   7.530
11520SOL    HW136494   3.243   9.119   7.513
11520SOL    HW236495   3.395   9.140   7.459
11521SOL     OW36496   2.221   8.723   8.931
11521SOL    HW136497   2.215   8.800   8.867
11521SOL    HW236498   2.138   8.668   8.925
11522SOL     OW36499   3.481   8.742   8.732
11522SOL    HW136500   3.544   8.708   8.802
11522SOL    HW236501   3.421   8.811   8.771
11523SOL     OW36502   2.921   8.485   8.100
11523SOL    HW136503   2.856   8.435   8.157
11523SOL    HW236504   2.998   8.425   8.077
11524SOL     OW36505   2.930   7.737   8.369
11524SOL    HW136506   2.929   7.661   8.305
11524SOL    HW236507   2.905   7.703   8.460
11525SOL     OW36508   2.493   8.907   7.923
11525SOL    HW136509   2.547   8.832   7.887
11525SOL    HW236510   2.436   8.946   7.851
11526SOL     OW36511   3.711   7.808   8.888
11526SOL    HW136512   3.752   7.894   8.856
11526SOL    HW236513   3.700   7.745   8.811
11527SOL     OW36514   2.114   8.849   7.841
11527SOL    HW136515   2.037   8.823   7.783
11527SOL    HW236516   2.081   8.908   7.915
11528SOL     OW36517   1.998   8.481   9.182
11528SOL    HW136518   1.913   8.472   9.233
11528SOL    HW236519   2.061   8.408   9.209
11529SOL     OW36520   2.563   7.732   8.971
11529SOL    HW136521   2.624   7.659   8.939
11529SOL    HW236522   2.612   7.790   9.037
11530SOL     OW36523   1.916   7.772   7.451
11530SOL    HW136524   1.832   7.757   7.400
11530SOL    HW236525   1.954   7.862   7.429
11531SOL     OW36526   3.238   8.276   8.854
11531SOL    HW136527   3.166   8.318   8.798
11531SOL    HW236528   3.326   8.289   8.809
11532SOL     OW36529   1.910   7.614   7.685
11532SOL    HW136530   1.892   7.674   7.607
11532SOL    HW236531   2.001   7.574   7.676
11533SOL     OW36532   3.116   8.801   7.629
11533SOL    HW136533   3.036   8.741   7.623
11533SOL    HW236534   3.150   8.803   7.723
11534SOL     OW36535   2.601   8.272   8.783
11534SOL    HW136536   2.642   8.353   8.826
11534SOL    HW236537   2.626   8.191   8.835
11535SOL     OW36538   3.389   9.321   8.506
11535SOL    HW136539   3.421   9.367   8.423
11535SOL    HW236540   3.459   9.257   8.537
11536SOL     OW36541   2.662   7.934   9.142
11536SOL    HW136542   2.684   8.024   9.180
11536SOL    HW236543   2.662   7.866   9.216
11537SOL     OW36544   3.273   8.619   9.060
11537SOL    HW136545   3.260   8.650   9.154
11537SOL    HW236546   3.362   8.649   9.027
11538SOL     OW36547   2.226   9.199   9.056
11538SOL    HW136548   2.153   9.267   9.051
11538SOL    HW236549   2.189   9.113   9.089
11539SOL     OW36550   3.463   8.317   8.703
11539SOL    HW136551   3.486   8.234   8.651
11539SOL    HW236552   3.461   8.396   8.641
11540SOL     OW36553   3.087   7.752   7.898
11540SOL    HW136554   3.148   7.673   7.890
11540SOL    HW236555   3.117   7.810   7.974
11541SOL     OW36556   2.370   8.165   8.140
11541SOL    HW136557   2.425   8.248   8.134
11541SOL    HW236558   2.312   8.157   8.059
11542SOL     OW36559   3.625   7.822   9.145
11542SOL    HW136560   3.651   7.816   9.048
11542SOL    HW236561   3.555   7.754   9.165
11543SOL     OW36562   3.596   8.385   8.931
11543SOL    HW136563   3.606   8.485   8.937
11543SOL    HW236564   3.552   8.361   8.845
11544SOL     OW36565   2.732   8.749   7.532
11544SOL    HW136566   2.687   8.837   7.548
11544SOL    HW236567   2.797   8.758   7.456
11545SOL     OW36568   2.498   9.206   8.496
11545SOL    HW136569   2.456   9.295   8.478
11545SOL    HW236570   2.595   9.210   8.474
11546SOL     OW36571   2.736   8.386   8.286
11546SOL    HW136572   2.793   8.311   8.319
11546SOL    HW236573   2.703   8.441   8.363
11547SOL     OW36574   2.893   8.332   7.506
11547SOL    HW136575   2.861   8.404   7.444
11547SOL    HW236576   2.989   8.313   7.488
11548SOL     OW36577   3.681   9.011   8.309
11548SOL    HW136578   3.612   9.001   8.237
11548SOL    HW236579   3.660   8.949   8.384
11549SOL     OW36580   2.087   8.724   9.264
11549SOL    HW136581   2.054   8.640   9.223
11549SOL    HW236582   2.033   8.745   9.346
11550SOL     OW36583   1.997   8.683   8.160
11550SOL    HW136584   2.027   8.639   8.244
11550SOL    HW236585   2.052   8.650   8.083
11551SOL     OW36586   3.665   7.601   8.706
11551SOL    HW136587   3.682   7.503   8.717
11551SOL    HW236588   3.671   7.625   8.609
11552SOL     OW36589   2.262   7.867   7.976
11552SOL    HW136590   2.307   7.796   7.921
11552SOL    HW236591   2.211   7.824   8.051
11553SOL     OW36592   3.525   8.894   8.508
11553SOL    HW136593   3.450   8.869   8.447
11553SOL    HW236594   3.524   8.834   8.588
11554SOL     OW36595   2.236   8.023   8.758
11554SOL    HW136596   2.278   7.965   8.828
11554SOL    HW236597   2.237   7.974   8.670
11555SOL     OW36598   2.634   9.089   8.200
11555SOL    HW136599   2.637   9.145   8.118
11555SOL    HW236600   2.591   9.001   8.179
11556SOL     OW36601   3.281   7.714   8.569
11556SOL    HW136602   3.277   7.614   8.572
11556SOL    HW236603   3.221   7.751   8.639
11557SOL     OW36604   2.614   8.704   7.790
11557SOL    HW136605   2.598   8.610   7.819
11557SOL    HW236606   2.666   8.704   7.705
11558SOL     OW36607   2.447   9.045   8.711
11558SOL    HW136608   2.466   9.095   8.796
11558SOL    HW236609   2.467   9.104   8.633
11559SOL     OW36610   3.219   7.470   7.619
11559SOL    HW136611   3.268   7.396   7.573
11559SOL    HW236612   3.121   7.459   7.604
11560SOL     OW36613   3.168   7.908   8.109
11560SOL    HW136614   3.113   7.990   8.094
11560SOL    HW236615   3.169   7.885   8.207
11561SOL     OW36616   3.438   7.657   8.348
11561SOL    HW136617   3.387   7.690   8.428
11561SOL    HW236618   3.442   7.728   8.278
11562SOL     OW36619   1.918   8.484   7.762
11562SOL    HW136620   2.017   8.470   7.765
11562SOL    HW236621   1.872   8.395   7.769
11563SOL     OW36622   3.707   8.015   9.509
11563SOL    HW136623   3.656   8.028   9.424
11563SOL    HW236624   3.655   7.954   9.569
11564SOL     OW36625   2.535   8.414   9.488
11564SOL    HW136626   2.543   8.464   9.402
11564SOL    HW236627   2.614   8.434   9.546
11565SOL     OW36628   2.034   8.195   9.885
11565SOL    HW136629   1.948   8.148   9.870
11565SOL    HW236630   2.016   8.292   9.903
11566SOL     OW36631   3.698   9.213   9.623
11566SOL    HW136632   3.781   9.202   9.677
11566SOL    HW236633   3.709   9.288   9.558
11567SOL     OW36634   1.961   9.033   9.454
11567SOL    HW136635   1.941   8.936   9.467
11567SOL    HW236636   1.906   9.087   9.518
11568SOL     OW36637   2.533   8.767   9.946
11568SOL    HW136638   2.458   8.702   9.961
11568SOL    HW236639   2.498   8.849   9.901
11569SOL     OW36640   2.669   7.498   9.819
11569SOL    HW136641   2.683   7.570   9.751
11569SOL    HW236642   2.571   7.493   9.842
11570SOL     OW36643   2.460   8.177   9.622
11570SOL    HW136644   2.476   8.261   9.570
11570SOL    HW236645   2.410   8.198   9.706
11571SOL     OW36646   3.439   9.116   9.595
11571SOL    HW136647   3.532   9.148   9.611
11571SOL    HW236648   3.428   9.095   9.498
11572SOL     OW36649   2.952   8.106   9.745
11572SOL    HW136650   2.928   8.131   9.839
11572SOL    HW236651   2.873   8.117   9.686
11573SOL     OW36652   2.833   7.866   9.526
11573SOL    HW136653   2.890   7.914   9.459
11573SOL    HW236654   2.888   7.841   9.605
11574SOL     OW36655   2.840   8.916   9.790
11574SOL    HW136656   2.802   9.005   9.765
11574SOL    HW236657   2.814   8.895   9.884
11575SOL     OW36658   2.185   9.373   0.197
11575SOL    HW136659   2.163   9.314   0.274
11575SOL    HW236660   2.283   9.370   0.178
11576SOL     OW36661   2.255   8.412   9.492
11576SOL    HW136662   2.354   8.425   9.492
11576SOL    HW236663   2.227   8.367   9.407
11577SOL     OW36664   3.504   8.801   9.364
11577SOL    HW136665   3.486   8.898   9.351
11577SOL    HW236666   3.420   8.749   9.350
11578SOL     OW36667   3.417   7.580   9.836
11578SOL    HW136668   3.355   7.587   9.758
11578SOL    HW236669   3.393   7.651   9.903
11579SOL     OW36670   2.312   8.172   9.860
11579SOL    HW136671   2.332   8.076   9.876
11579SOL    HW236672   2.213   8.187   9.864
11580SOL     OW36673   2.463   7.598   9.410
11580SOL    HW136674   2.544   7.642   9.370
11580SOL    HW236675   2.383   7.657   9.397
11581SOL     OW36676   2.397   7.544   9.868
11581SOL    HW136677   2.300   7.558   9.890
11581SOL    HW236678   2.425   7.609   9.798
11582SOL     OW36679   3.262   8.662   9.333
11582SOL    HW136680   3.271   8.580   9.390
11582SOL    HW236681   3.188   8.720   9.368
11583SOL     OW36682   2.151   7.546   9.485
11583SOL    HW136683   2.190   7.635   9.464
11583SOL    HW236684   2.217   7.493   9.538
11584SOL     OW36685   2.303   8.620   0.016
11584SOL    HW136686   2.259   8.565   0.086
11584SOL    HW236687   2.295   8.575   9.927
11585SOL     OW36688   3.230   9.369   9.878
11585SOL    HW136689   3.211   9.442   9.812
11585SOL    HW236690   3.214   9.401   9.971
11586SOL     OW36691   2.952   8.023   9.333
11586SOL    HW136692   2.872   8.072   9.299
11586SOL    HW236693   3.026   8.089   9.351
11587SOL     OW36694   2.671   7.998   0.058
11587SOL    HW136695   2.597   8.062   0.078
11587SOL    HW236696   2.754   8.048   0.036
11588SOL     OW36697   3.716   8.246   9.651
11588SOL    HW136698   3.739   8.218   9.744
11588SOL    HW236699   3.710   8.166   9.592
11589SOL     OW36700   2.357   8.939   9.594
11589SOL    HW136701   2.288   8.868   9.587
11589SOL    HW236702   2.396   8.957   9.503
11590SOL     OW36703   3.312   8.004   9.381
11590SOL    HW136704   3.310   7.918   9.431
11590SOL    HW236705   3.407   8.028   9.361
11591SOL     OW36706   2.493   7.686   9.664
11591SOL    HW136707   2.491   7.637   9.577
11591SOL    HW236708   2.459   7.779   9.651
11592SOL     OW36709   2.272   8.531   9.759
11592SOL    HW136710   2.244   8.613   9.710
11592SOL    HW236711   2.269   8.452   9.697
11593SOL     OW36712   3.068   8.984   9.649
11593SOL    HW136713   3.139   9.017   9.710
11593SOL    HW236714   2.989   8.953   9.703
11594SOL     OW36715   3.481   8.078   9.849
11594SOL    HW136716   3.429   8.054   9.931
11594SOL    HW236717   3.454   8.169   9.818
11595SOL     OW36718   2.137   7.558   9.946
11595SOL    HW136719   2.073   7.631   9.969
11595SOL    HW236720   2.155   7.503   0.027
11596SOL     OW36721   3.542   7.865   9.676
11596SOL    HW136722   3.593   7.800   9.731
11596SOL    HW236723   3.513   7.942   9.733
11597SOL     OW36724   3.376   7.741   9.483
11597SOL    HW136725   3.324   7.667   9.527
11597SOL    HW236726   3.437   7.783   9.549
11598SOL     OW36727   3.151   8.225   9.361
11598SOL    HW136728   3.213   8.148   9.375
11598SOL    HW236729   3.175   8.273   9.277
11599SOL     OW36730   1.918   8.751   9.479
11599SOL    HW136731   1.826   8.777   9.450
11599SOL    HW236732   1.921   8.653   9.499
11600SOL     OW36733   2.726   8.108   9.598
11600SOL    HW136734   2.741   8.014   9.568
11600SOL    HW236735   2.628   8.125   9.607
11601SOL     OW36736   2.354   7.924   9.633
11601SOL    HW136737   2.390   8.015   9.613
11601SOL    HW236738   2.344   7.913   9.732
11602SOL     OW36739   3.171   8.252   9.651
11602SOL    HW136740   3.095   8.200   9.689
11602SOL    HW236741   3.164   8.253   9.551
11603SOL     OW36742   3.675   7.658   9.808
11603SOL    HW136743   3.712   7.626   9.721
11603SOL    HW236744   3.587   7.613   9.825
11604SOL     OW36745   3.256   9.112   9.800
11604SOL    HW136746   3.326   9.103   9.729
11604SOL    HW236747   3.249   9.208   9.827
11605SOL     OW36748   2.672   9.164   9.442
11605SOL    HW136749   2.747   9.140   9.381
11605SOL    HW236750   2.593   9.105   9.422
11606SOL     OW36751   3.163   9.110   9.248
11606SOL    HW136752   3.112   9.128   9.332
11606SOL    HW236753   3.119   9.158   9.172
11607SOL     OW36754   3.423   9.065   9.315
11607SOL    HW136755   3.327   9.076   9.292
11607SOL    HW236756   3.480   9.096   9.239
11608SOL     OW36757   2.158   8.750   9.631
11608SOL    HW136758   2.075   8.749   9.575
11608SOL    HW236759   2.134   8.764   9.727
11609SOL     OW36760   1.840   7.821   9.418
11609SOL    HW136761   1.810   7.829   9.323
11609SOL    HW236762   1.816   7.904   9.468
11610SOL     OW36763   1.890   7.596   9.553
11610SOL    HW136764   1.866   7.676   9.498
11610SOL    HW236765   1.985   7.570   9.534
11611SOL     OW36766   3.054   8.802   9.438
11611SOL    HW136767   2.971   8.761   9.475
11611SOL    HW236768   3.083   8.877   9.497
11612SOL     OW36769   2.473   8.205   0.087
11612SOL    HW136770   2.506   8.297   0.106
11612SOL    HW236771   2.417   8.206   0.003
11613SOL     OW36772   2.676   8.810   9.371
11613SOL    HW136773   2.726   8.781   9.452
11613SOL    HW236774   2.730   8.878   9.321
11614SOL     OW36775   2.929   8.406   9.424
11614SOL    HW136776   2.913   8.467   9.346
11614SOL    HW236777   3.002   8.342   9.401
11615SOL     OW36778   1.912   8.608   9.968
11615SOL    HW136779   1.926   8.571   0.060
11615SOL    HW236780   1.986   8.672   9.946
11616SOL     OW36781   2.387   7.914   9.909
11616SOL    HW136782   2.486   7.906   9.923
11616SOL    HW236783   2.339   7.891   9.993
11617SOL     OW36784   2.826   8.734   9.579
11617SOL    HW136785   2.801   8.640   9.604
11617SOL    HW236786   2.826   8.791   9.661
11618SOL     OW36787   3.259   7.520   9.615
11618SOL    HW136788   3.317   7.442   9.594
11618SOL    HW236789   3.163   7.492   9.613
11619SOL     OW36790   1.988   8.490   9.552
11619SOL    HW136791   2.086   8.486   9.533
11619SOL    HW236792   1.951   8.397   9.553
11620SOL     OW36793   2.752   9.163   9.712
11620SOL    HW136794   2.728   9.165   9.615
11620SOL    HW236795   2.723   9.248   9.755
11621SOL     OW36796   2.032   9.621   1.017
11621SOL    HW136797   2.080   9.585   1.097
11621SOL    HW236798   1.957   9.560   0.993
11622SOL     OW36799   1.837   9.703   0.646
11622SOL    HW136800   1.755   9.693   0.701
11622SOL    HW236801   1.826   9.652   0.560
11623SOL     OW36802   3.595   9.910   0.132
11623SOL    HW136803   3.645   9.871   0.055
11623SOL    HW236804   3.555   9.836   0.187
11624SOL     OW36805   2.271   9.696   1.497
11624SOL    HW136806   2.360   9.652   1.485
11624SOL    HW236807   2.200   9.626   1.507
11625SOL     OW36808   3.488   9.741   0.759
11625SOL    HW136809   3.393   9.731   0.729
11625SOL    HW236810   3.509   9.838   0.769
11626SOL     OW36811   3.611   9.364   1.542
11626SOL    HW136812   3.633   9.417   1.460
11626SOL    HW236813   3.535   9.407   1.591
11627SOL     OW36814   1.873   9.975   0.597
11627SOL    HW136815   1.869   9.877   0.615
11627SOL    HW236816   1.968   0.007   0.607
11628SOL     OW36817   2.693   9.333   0.505
11628SOL    HW136818   2.756   9.391   0.453
11628SOL    HW236819   2.601   9.371   0.499
11629SOL     OW36820   2.201   9.537   1.856
11629SOL    HW136821   2.244   9.621   1.821
11629SOL    HW236822   2.102   9.551   1.863
11630SOL     OW36823   3.132   9.732   0.970
11630SOL    HW136824   3.048   9.686   0.942
11630SOL    HW236825   3.187   9.671   1.025
11631SOL     OW36826   2.656   9.751   1.428
11631SOL    HW136827   2.642   9.812   1.506
11631SOL    HW236828   2.620   9.795   1.345
11632SOL     OW36829   3.297   9.745   1.704
11632SOL    HW136830   3.336   9.793   1.782
11632SOL    HW236831   3.340   9.655   1.695
11633SOL     OW36832   2.862   9.770   1.235
11633SOL    HW136833   2.818   9.761   1.324
11633SOL    HW236834   2.795   9.753   1.163
11634SOL     OW36835   3.002   9.943   0.399
11634SOL    HW136836   3.037   0.035   0.414
11634SOL    HW236837   2.906   9.948   0.371
11635SOL     OW36838   2.677   9.680   0.193
11635SOL    HW136839   2.660   9.728   0.107
11635SOL    HW236840   2.709   9.588   0.174
11636SOL     OW36841   3.659   9.915   1.748
11636SOL    HW136842   3.616   9.973   1.679
11636SOL    HW236843   3.637   9.819   1.730
11637SOL     OW36844   2.407   9.467   0.952
11637SOL    HW136845   2.412   9.495   1.048
11637SOL    HW236846   2.418   9.548   0.893
11638SOL     OW36847   3.423   0.009   0.716
11638SOL    HW136848   3.338   9.957   0.726
11638SOL    HW236849   3.424   0.084   0.781
11639SOL     OW36850   2.068   9.515   1.503
11639SOL    HW136851   1.988   9.574   1.495
11639SOL    HW236852   2.042   9.429   1.548
11640SOL     OW36853   3.274   9.369   0.466
11640SOL    HW136854   3.261   9.381   0.367
11640SOL    HW236855   3.369   9.387   0.490
11641SOL     OW36856   3.402   9.481   1.694
11641SOL    HW136857   3.392   9.493   1.793
11641SOL    HW236858   3.335   9.414   1.662
11642SOL     OW36859   2.450   9.383   0.121
11642SOL    HW136860   2.549   9.385   0.128
11642SOL    HW236861   2.423   9.366   0.026
11643SOL     OW36862   2.622   9.617   1.803
11643SOL    HW136863   2.701   9.561   1.776
11643SOL    HW236864   2.559   9.562   1.857
11644SOL     OW36865   3.216   9.889   1.486
11644SOL    HW136866   3.240   9.835   1.567
11644SOL    HW236867   3.281   9.964   1.476
11645SOL     OW36868   2.780   9.777   0.823
11645SOL    HW136869   2.716   9.756   0.749
11645SOL    HW236870   2.828   9.694   0.849
11646SOL     OW36871   2.430   9.404   0.476
11646SOL    HW136872   2.352   9.408   0.539
11646SOL    HW236873   2.428   9.485   0.416
11647SOL     OW36874   2.940   9.925   1.516
11647SOL    HW136875   2.899   9.987   1.448
11647SOL    HW236876   3.038   9.919   1.500
11648SOL     OW36877   2.936   9.846   0.002
11648SOL    HW136878   2.842   9.849   0.036
11648SOL    HW236879   2.998   9.880   0.073
11649SOL     OW36880   1.938   9.912   1.354
11649SOL    HW136881   2.038   9.909   1.342
11649SOL    HW236882   1.913   9.999   1.397
11650SOL     OW36883   2.403   9.578   1.199
11650SOL    HW136884   2.449   9.565   1.287
11650SOL    HW236885   2.305   9.564   1.210
11651SOL     OW36886   2.594   9.785   0.614
11651SOL    HW136887   2.607   9.881   0.591
11651SOL    HW236888   2.498   9.760   0.603
11652SOL     OW36889   2.886   9.350   0.711
11652SOL    HW136890   2.819   9.355   0.636
11652SOL    HW236891   2.852   9.288   0.782
11653SOL     OW36892   3.216   9.968   1.099
11653SOL    HW136893   3.189   9.888   1.046
11653SOL    HW236894   3.305   9.951   1.141
11654SOL     OW36895   2.433   9.601   0.284
11654SOL    HW136896   2.422   9.527   0.218
11654SOL    HW236897   2.519   9.648   0.268
11655SOL     OW36898   2.883   9.346   1.346
11655SOL    HW136899   2.901   9.357   1.248
11655SOL    HW236900   2.940   9.409   1.398
11656SOL     OW36901   3.120   9.699   1.310
11656SOL    HW136902   3.158   9.774   1.366
11656SOL    HW236903   3.030   9.726   1.275
11657SOL     OW36904   2.416   9.741   0.870
11657SOL    HW136905   2.389   9.746   0.774
11657SOL    HW236906   2.475   9.818   0.892
11658SOL     OW36907   3.449   9.968   0.448
11658SOL    HW136908   3.449   9.986   0.546
11658SOL    HW236909   3.512   0.031   0.403
11659SOL     OW36910   2.844   9.465   1.777
11659SOL    HW136911   2.919   9.528   1.757
11659SOL    HW236912   2.881   9.379   1.812
11660SOL     OW36913   2.332   9.305   1.836
11660SOL    HW136914   2.287   9.233   1.783
11660SOL    HW236915   2.277   9.388   1.832
11661SOL     OW36916   3.146   9.884   0.176
11661SOL    HW136917   3.198   9.798   0.182
11661SOL    HW236918   3.104   9.903   0.265
11662SOL     OW36919   2.144   9.513   1.240
11662SOL    HW136920   2.123   9.528   1.337
11662SOL    HW236921   2.122   9.418   1.216
11663SOL     OW36922   2.535   9.977   0.956
11663SOL    HW136923   2.620   9.997   0.907
11663SOL    HW236924   2.481   0.061   0.964
11664SOL     OW36925   2.197   9.396   0.632
11664SOL    HW136926   2.157   9.485   0.655
11664SOL    HW236927   2.207   9.341   0.715
11665SOL     OW36928   3.491   9.731   0.314
11665SOL    HW136929   3.562   9.674   0.356
11665SOL    HW236930   3.471   9.809   0.373
11666SOL     OW36931   3.272   9.642   0.181
11666SOL    HW136932   3.260   9.543   0.192
11666SOL    HW236933   3.356   9.671   0.229
11667SOL     OW36934   2.188   0.048   0.915
11667SOL    HW136935   2.261   0.113   0.936
11667SOL    HW236936   2.200   9.966   0.970
11668SOL     OW36937   2.225   9.812   1.048
11668SOL    HW136938   2.148   9.750   1.032
11668SOL    HW236939   2.302   9.784   0.992
11669SOL     OW36940   3.040   9.650   1.730
11669SOL    HW136941   2.998   9.715   1.793
11669SOL    HW236942   3.136   9.676   1.715
11670SOL     OW36943   3.055   9.507   1.492
11670SOL    HW136944   3.034   9.555   1.576
11670SOL    HW236945   3.083   9.572   1.422
11671SOL     OW36946   1.831   9.773   1.149
11671SOL    HW136947   1.899   9.730   1.089
11671SOL    HW236948   1.877   9.832   1.214
11672SOL     OW36949   2.192   9.792   1.746
11672SOL    HW136950   2.217   9.771   1.651
11672SOL    HW236951   2.253   9.864   1.780
11673SOL     OW36952   2.744   9.918   0.320
11673SOL    HW136953   2.715   9.827   0.289
11673SOL    HW236954   2.690   9.945   0.399
11674SOL     OW36955   3.459   9.943   1.223
11674SOL    HW136956   3.448   9.943   1.323
11674SOL    HW236957   3.538   9.888   1.199
11675SOL     OW36958   2.564   9.810   1.177
11675SOL    HW136959   2.502   9.733   1.163
11675SOL    HW236960   2.554   9.875   1.101
11676SOL     OW36961   2.724   9.414   0.094
11676SOL    HW136962   2.706   9.409   9.996
11676SOL    HW236963   2.808   9.365   0.115
11677SOL     OW36964   3.687   9.562   0.416
11677SOL    HW136965   3.745   9.525   0.344
11677SOL    HW236966   3.635   9.488   0.458
11678SOL     OW36967   3.717   9.463   1.020
11678SOL    HW136968   3.745   9.375   0.981
11678SOL    HW236969   3.628   9.489   0.983
11679SOL     OW36970   2.089   9.632   0.734
11679SOL    HW136971   2.001   9.661   0.697
11679SOL    HW236972   2.084   9.631   0.834
11680SOL     OW36973   2.927   9.552   0.900
11680SOL    HW136974   2.926   9.497   0.817
11680SOL    HW236975   2.929   9.492   0.980
11681SOL     OW36976   3.732   9.670   1.452
11681SOL    HW136977   3.764   9.758   1.417
11681SOL    HW236978   3.718   9.607   1.375
11682SOL     OW36979   1.905   9.608   9.964
11682SOL    HW136980   1.844   9.567   9.897
11682SOL    HW236981   1.898   9.707   9.960
11683SOL     OW36982   1.931   9.478   0.209
11683SOL    HW136983   1.909   9.526   0.125
11683SOL    HW236984   2.026   9.449   0.207
11684SOL     OW36985   2.602   9.865   1.678
11684SOL    HW136986   2.683   9.918   1.702
11684SOL    HW236987   2.608   9.775   1.721
11685SOL     OW36988   3.613   9.657   1.691
11685SOL    HW136989   3.653   9.656   1.599
11685SOL    HW236990   3.538   9.591   1.694
11686SOL     OW36991   2.978   0.196   0.077
11686SOL    HW136992   2.969   0.292   0.049
11686SOL    HW236993   3.075   0.171   0.081
11687SOL     OW36994   3.722   9.443   1.293
11687SOL    HW136995   3.788   9.368   1.301
11687SOL    HW236996   3.705   9.462   1.196
11688SOL     OW36997   2.315   9.740   0.614
11688SOL    HW136998   2.292   9.772   0.521
11688SOL    HW236999   2.233   9.704   0.658
11689SOL     OW37000   2.203   9.893   1.309
11689SOL    HW137001   2.242   9.831   1.376
11689SOL    HW237002   2.226   9.862   1.217
11690SOL     OW37003   3.275   9.564   1.131
11690SOL    HW137004   3.288   9.467   1.153
11690SOL    HW237005   3.225   9.609   1.205
11691SOL     OW37006   2.935   9.330   1.071
11691SOL    HW137007   2.865   9.275   1.025
11691SOL    HW237008   3.022   9.281   1.070
11692SOL     OW37009   3.223   9.373   0.191
11692SOL    HW137010   3.284   9.299   0.163
11692SOL    HW237011   3.128   9.339   0.193
11693SOL     OW37012   3.222   9.815   0.727
11693SOL    HW137013   3.160   9.786   0.654
11693SOL    HW237014   3.183   9.791   0.816
11694SOL     OW37015   3.471   9.534   0.941
11694SOL    HW137016   3.401   9.562   1.006
11694SOL    HW237017   3.481   9.605   0.871
11695SOL     OW37018   2.138   9.555   2.843
11695SOL    HW137019   2.168   9.546   2.937
11695SOL    HW237020   2.039   9.542   2.838
11696SOL     OW37021   1.823   9.709   2.469
11696SOL    HW137022   1.760   9.736   2.542
11696SOL    HW237023   1.781   9.638   2.413
11697SOL     OW37024   3.431   9.876   1.917
11697SOL    HW137025   3.519   9.904   1.879
11697SOL    HW237026   3.445   9.823   2.000
11698SOL     OW37027   2.253   9.780   3.262
11698SOL    HW137028   2.337   9.733   3.236
11698SOL    HW237029   2.188   9.713   3.299
11699SOL     OW37030   3.433   9.655   2.597
11699SOL    HW137031   3.367   9.658   2.521
11699SOL    HW237032   3.412   9.727   2.662
11700SOL     OW37033   3.569   9.386   3.416
11700SOL    HW137034   3.603   9.465   3.365
11700SOL    HW237035   3.502   9.417   3.483
11701SOL     OW37036   1.842   9.972   2.366
11701SOL    HW137037   1.850   9.880   2.404
11701SOL    HW237038   1.927   9.997   2.319
11702SOL     OW37039   2.685   9.361   2.337
11702SOL    HW137040   2.730   9.441   2.297
11702SOL    HW237041   2.588   9.381   2.350
11703SOL     OW37042   2.248   9.612   3.641
11703SOL    HW137043   2.310   9.687   3.617
11703SOL    HW237044   2.154   9.645   3.636
11704SOL     OW37045   3.140   9.672   2.761
11704SOL    HW137046   3.051   9.626   2.762
11704SOL    HW237047   3.199   9.632   2.830
11705SOL     OW37048   3.317   9.786   3.524
11705SOL    HW137049   3.379   9.848   3.572
11705SOL    HW237050   3.345   9.692   3.541
11706SOL     OW37051   2.912   9.724   3.003
11706SOL    HW137052   2.819   9.724   3.040
11706SOL    HW237053   2.912   9.681   2.913
11707SOL     OW37054   2.923   9.979   2.348
11707SOL    HW137055   3.005   0.032   2.369
11707SOL    HW237056   2.842   0.033   2.370
11708SOL     OW37057   2.753   9.723   2.016
11708SOL    HW137058   2.834   9.769   1.980
11708SOL    HW237059   2.701   9.684   1.940
11709SOL     OW37060   3.536   9.914   3.643
11709SOL    HW137061   3.604   9.988   3.647
11709SOL    HW237062   3.581   9.829   3.614
11710SOL     OW37063   3.354   0.061   2.578
11710SOL    HW137064   3.343   9.983   2.640
11710SOL    HW237065   3.394   0.138   2.628
11711SOL     OW37066   2.075   9.571   3.327
11711SOL    HW137067   1.996   9.633   3.331
11711SOL    HW237068   2.052   9.485   3.373
11712SOL     OW37069   3.248   9.390   2.302
11712SOL    HW137070   3.245   9.366   2.205
11712SOL    HW237071   3.342   9.386   2.334
11713SOL     OW37072   3.382   9.520   3.581
11713SOL    HW137073   3.380   9.525   3.681
11713SOL    HW237074   3.296   9.481   3.548
11714SOL     OW37075   2.503   9.448   1.988
11714SOL    HW137076   2.581   9.394   2.019
11714SOL    HW237077   2.441   9.390   1.934
11715SOL     OW37078   2.645   9.592   3.558
11715SOL    HW137079   2.736   9.551   3.558
11715SOL    HW237080   2.594   9.557   3.637
11716SOL     OW37081   3.223   9.882   3.287
11716SOL    HW137082   3.263   9.849   3.371
11716SOL    HW237083   3.275   9.961   3.254
11717SOL     OW37084   2.767   9.796   2.679
11717SOL    HW137085   2.745   9.786   2.582
11717SOL    HW237086   2.806   9.710   2.714
11718SOL     OW37087   2.416   9.418   2.344
11718SOL    HW137088   2.334   9.407   2.401
11718SOL    HW237089   2.409   9.503   2.292
11719SOL     OW37090   2.143   9.385   2.076
11719SOL    HW137091   2.185   9.450   2.013
11719SOL    HW237092   2.213   9.323   2.112
11720SOL     OW37093   2.817   9.574   2.237
11720SOL    HW137094   2.798   9.619   2.150
11720SOL    HW237095   2.915   9.575   2.254
11721SOL     OW37096   3.018   0.015   3.415
11721SOL    HW137097   3.004   0.101   3.366
11721SOL    HW237098   3.080   9.956   3.362
11722SOL     OW37099   2.976   9.838   1.919
11722SOL    HW137100   2.991   9.929   1.882
11722SOL    HW237101   3.020   9.831   2.009
11723SOL     OW37102   2.438   9.601   3.167
11723SOL    HW137103   2.490   9.540   3.227
11723SOL    HW237104   2.359   9.551   3.130
11724SOL     OW37105   2.746   9.776   2.406
11724SOL    HW137106   2.816   9.846   2.389
11724SOL    HW237107   2.767   9.694   2.354
11725SOL     OW37108   2.859   9.369   2.555
11725SOL    HW137109   2.799   9.371   2.474
11725SOL    HW237110   2.823   9.303   2.620
11726SOL     OW37111   3.337   9.860   2.754
11726SOL    HW137112   3.252   9.810   2.768
11726SOL    HW237113   3.390   9.860   2.839
11727SOL     OW37114   2.409   9.635   2.176
11727SOL    HW137115   2.435   9.576   2.100
11727SOL    HW237116   2.464   9.718   2.175
11728SOL     OW37117   2.816   9.405   3.204
11728SOL    HW137118   2.838   9.384   3.109
11728SOL    HW237119   2.898   9.436   3.251
11729SOL     OW37120   3.136   9.670   3.142
11729SOL    HW137121   3.167   9.751   3.193
11729SOL    HW237122   3.051   9.693   3.094
11730SOL     OW37123   3.465   9.936   2.356
11730SOL    HW137124   3.424   9.981   2.435
11730SOL    HW237125   3.564   9.953   2.355
11731SOL     OW37126   2.874   9.447   3.588
11731SOL    HW137127   2.947   9.514   3.600
11731SOL    HW237128   2.912   9.362   3.552
11732SOL     OW37129   2.317   9.362   3.700
11732SOL    HW137130   2.285   9.297   3.632
11732SOL    HW237131   2.291   9.454   3.673
11733SOL     OW37132   3.074   9.841   2.169
11733SOL    HW137133   3.089   9.750   2.206
11733SOL    HW237134   3.013   9.892   2.230
11734SOL     OW37135   2.196   9.487   3.100
11734SOL    HW137136   2.157   9.526   3.184
11734SOL    HW237137   2.160   9.395   3.086
11735SOL     OW37138   2.625   9.940   2.877
11735SOL    HW137139   2.652   9.891   2.794
11735SOL    HW237140   2.581   0.027   2.852
11736SOL     OW37141   2.172   9.385   2.474
11736SOL    HW137142   2.135   9.477   2.483
11736SOL    HW237143   2.173   9.340   2.563
11737SOL     OW37144   3.449   9.743   2.155
11737SOL    HW137145   3.512   9.675   2.192
11737SOL    HW237146   3.438   9.817   2.221
11738SOL     OW37147   3.369   9.548   1.955
11738SOL    HW137148   3.312   9.475   1.993
11738SOL    HW237149   3.388   9.616   2.025
11739SOL     OW37150   2.311   9.993   2.822
11739SOL    HW137151   2.373   0.069   2.838
11739SOL    HW237152   2.353   9.928   2.759
11740SOL     OW37153   3.073   9.646   3.560
11740SOL    HW137154   3.014   9.685   3.631
11740SOL    HW237155   3.149   9.709   3.543
11741SOL     OW37156   3.054   9.491   3.328
11741SOL    HW137157   3.049   9.544   3.412
11741SOL    HW237158   3.089   9.548   3.254
11742SOL     OW37159   2.120   9.913   3.476
11742SOL    HW137160   2.184   9.896   3.401
11742SOL    HW237161   2.142   0.001   3.519
11743SOL     OW37162   2.584   9.855   2.182
11743SOL    HW137163   2.649   9.811   2.119
11743SOL    HW237164   2.620   9.851   2.275
11744SOL     OW37165   3.484   9.805   2.974
11744SOL    HW137166   3.429   9.722   2.980
11744SOL    HW237167   3.579   9.782   2.957
11745SOL     OW37168   2.651   9.734   3.057
11745SOL    HW137169   2.571   9.690   3.097
11745SOL    HW237170   2.622   9.810   2.999
11746SOL     OW37171   3.616   9.563   2.271
11746SOL    HW137172   3.682   9.533   2.202
11746SOL    HW237173   3.573   9.484   2.313
11747SOL     OW37174   2.080   9.640   2.515
11747SOL    HW137175   1.986   9.665   2.493
11747SOL    HW237176   2.100   9.664   2.610
11748SOL     OW37177   2.895   9.550   2.766
11748SOL    HW137178   2.886   9.502   2.679
11748SOL    HW237179   2.887   9.484   2.841
11749SOL     OW37180   3.683   9.622   3.300
11749SOL    HW137181   3.703   9.716   3.275
11749SOL    HW237182   3.676   9.566   3.218
11750SOL     OW37183   2.580   9.438   3.336
11750SOL    HW137184   2.665   9.422   3.285
11750SOL    HW237185   2.599   9.500   3.413
11751SOL     OW37186   1.960   9.660   1.871
11751SOL    HW137187   1.882   9.669   1.810
11751SOL    HW237188   2.030   9.727   1.846
11752SOL     OW37189   1.888   9.463   2.111
11752SOL    HW137190   1.873   9.533   2.041
11752SOL    HW237191   1.985   9.439   2.114
11753SOL     OW37192   2.613   9.874   3.582
11753SOL    HW137193   2.704   9.912   3.596
11753SOL    HW237194   2.620   9.776   3.563
11754SOL     OW37195   3.081   9.603   2.300
11754SOL    HW137196   3.139   9.521   2.294
11754SOL    HW237197   3.109   9.657   2.379
11755SOL     OW37198   3.619   9.670   3.560
11755SOL    HW137199   3.643   9.658   3.464
11755SOL    HW237200   3.542   9.610   3.582
11756SOL     OW37201   3.039   0.104   1.868
11756SOL    HW137202   3.055   0.190   1.820
11756SOL    HW237203   3.111   0.090   1.936
11757SOL     OW37204   3.687   9.462   3.089
11757SOL    HW137205   3.679   9.363   3.078
11757SOL    HW237206   3.756   9.497   3.025
11758SOL     OW37207   2.195   9.781   2.293
11758SOL    HW137208   2.261   9.723   2.244
11758SOL    HW237209   2.156   9.729   2.369
11759SOL     OW37210   2.179   9.953   3.062
11759SOL    HW137211   2.218   9.887   3.125
11759SOL    HW237212   2.230   9.950   2.975
11760SOL     OW37213   3.313   9.587   2.957
11760SOL    HW137214   3.331   9.489   2.951
11760SOL    HW237215   3.252   9.606   3.034
11761SOL     OW37216   2.892   9.333   2.938
11761SOL    HW137217   2.824   9.273   2.895
11761SOL    HW237218   2.981   9.288   2.940
11762SOL     OW37219   3.227   9.332   2.041
11762SOL    HW137220   3.277   9.257   1.998
11762SOL    HW237221   3.129   9.312   2.038
11763SOL     OW37222   3.169   9.753   2.503
11763SOL    HW137223   3.164   9.853   2.497
11763SOL    HW237224   3.153   9.725   2.597
11764SOL     OW37225   2.040   9.606   4.768
11764SOL    HW137226   2.098   9.570   4.842
11764SOL    HW237227   1.963   9.544   4.752
11765SOL     OW37228   1.868   9.717   4.351
11765SOL    HW137229   1.779   9.720   4.395
11765SOL    HW237230   1.865   9.654   4.272
11766SOL     OW37231   3.430   9.916   3.894
11766SOL    HW137232   3.474   9.910   3.805
11766SOL    HW237233   3.446   9.831   3.945
11767SOL     OW37234   2.287   9.753   5.203
11767SOL    HW137235   2.372   9.717   5.164
11767SOL    HW237236   2.223   9.678   5.219
11768SOL     OW37237   3.472   9.686   4.474
11768SOL    HW137238   3.451   9.739   4.392
11768SOL    HW237239   3.436   9.733   4.555
11769SOL     OW37240   3.380   9.237   5.353
11769SOL    HW137241   3.287   9.232   5.318
11769SOL    HW237242   3.398   9.329   5.389
11770SOL     OW37243   1.898   0.011   4.366
11770SOL    HW137244   1.890   9.912   4.355
11770SOL    HW237245   1.994   0.037   4.363
11771SOL     OW37246   2.675   9.341   4.181
11771SOL    HW137247   2.724   9.427   4.163
11771SOL    HW237248   2.579   9.360   4.200
11772SOL     OW37249   2.206   9.585   5.580
11772SOL    HW137250   2.248   9.670   5.548
11772SOL    HW237251   2.108   9.600   5.595
11773SOL     OW37252   2.726   9.868   5.103
11773SOL    HW137253   2.703   9.847   5.198
11773SOL    HW237254   2.651   9.839   5.044
11774SOL     OW37255   3.318   9.764   5.399
11774SOL    HW137256   3.385   9.824   5.443
11774SOL    HW237257   3.342   9.669   5.416
11775SOL     OW37258   2.937   9.821   4.932
11775SOL    HW137259   2.856   9.828   4.991
11775SOL    HW237260   2.914   9.764   4.853
11776SOL     OW37261   2.957   0.009   4.149
11776SOL    HW137262   3.036   0.054   4.189
11776SOL    HW237263   2.884   0.076   4.133
11777SOL     OW37264   2.700   9.660   3.896
11777SOL    HW137265   2.773   9.688   3.833
11777SOL    HW237266   2.648   9.585   3.855
11778SOL     OW37267   3.559   9.872   5.491
11778SOL    HW137268   3.636   9.936   5.485
11778SOL    HW237269   3.588   9.782   5.459
11779SOL     OW37270   2.421   9.434   4.722
11779SOL    HW137271   2.435   9.457   4.818
11779SOL    HW237272   2.422   9.518   4.668
11780SOL     OW37273   3.372   9.988   4.496
11780SOL    HW137274   3.351   9.932   4.576
11780SOL    HW237275   3.407   0.077   4.527
11781SOL     OW37276   2.088   9.563   5.235
11781SOL    HW137277   2.008   9.622   5.221
11781SOL    HW237278   2.061   9.483   5.287
11782SOL     OW37279   3.258   9.406   4.167
11782SOL    HW137280   3.251   9.370   4.074
11782SOL    HW237281   3.351   9.390   4.201
11783SOL     OW37282   3.362   9.500   5.459
11783SOL    HW137283   3.377   9.516   5.557
11783SOL    HW237284   3.266   9.478   5.444
11784SOL     OW37285   2.566   9.448   3.779
11784SOL    HW137286   2.632   9.374   3.772
11784SOL    HW237287   2.474   9.413   3.760
11785SOL     OW37288   2.648   9.564   5.455
11785SOL    HW137289   2.737   9.525   5.476
11785SOL    HW237290   2.583   9.540   5.527
11786SOL     OW37291   3.337   9.861   5.145
11786SOL    HW137292   3.327   9.823   5.237
11786SOL    HW237293   3.347   9.960   5.151
11787SOL     OW37294   2.766   9.835   4.583
11787SOL    HW137295   2.755   9.805   4.488
11787SOL    HW237296   2.815   9.765   4.635
11788SOL     OW37297   2.407   9.401   4.206
11788SOL    HW137298   2.343   9.393   4.283
11788SOL    HW237299   2.398   9.492   4.166
11789SOL     OW37300   2.179   9.326   3.931
11789SOL    HW137301   2.231   9.342   3.846
11789SOL    HW237302   2.230   9.264   3.990
11790SOL     OW37303   2.801   9.579   4.135
11790SOL    HW137304   2.768   9.611   4.046
11790SOL    HW237305   2.901   9.584   4.136
11791SOL     OW37306   2.935   9.987   5.253
11791SOL    HW137307   2.876   9.930   5.196
11791SOL    HW237308   2.962   0.068   5.202
11792SOL     OW37309   2.916   9.756   3.752
11792SOL    HW137310   2.889   9.841   3.707
11792SOL    HW237311   2.966   9.777   3.836
11793SOL     OW37312   1.919   9.921   5.042
11793SOL    HW137313   2.018   9.932   5.040
11793SOL    HW237314   1.876   0.006   5.009
11794SOL     OW37315   2.435   9.536   4.978
11794SOL    HW137316   2.483   9.504   5.060
11794SOL    HW237317   2.337   9.516   4.986
11795SOL     OW37318   2.744   9.774   4.325
11795SOL    HW137319   2.711   9.856   4.278
11795SOL    HW237320   2.757   9.700   4.259
11796SOL     OW37321   2.876   9.286   4.363
11796SOL    HW137322   2.799   9.306   4.303
11796SOL    HW237323   2.841   9.257   4.453
11797SOL     OW37324   3.364   9.792   4.703
11797SOL    HW137325   3.322   9.709   4.740
11797SOL    HW237326   3.416   9.838   4.775
11798SOL     OW37327   2.355   9.652   4.097
11798SOL    HW137328   2.288   9.641   4.024
11798SOL    HW237329   2.420   9.724   4.072
11799SOL     OW37330   2.823   9.361   5.145
11799SOL    HW137331   2.836   9.344   5.048
11799SOL    HW237332   2.896   9.420   5.179
11800SOL     OW37333   3.157   9.688   5.030
11800SOL    HW137334   3.223   9.751   5.071
11800SOL    HW237335   3.078   9.740   4.997
11801SOL     OW37336   2.417   9.693   4.623
11801SOL    HW137337   2.393   9.690   4.526
11801SOL    HW237338   2.473   9.773   4.641
11802SOL     OW37339   3.457   9.877   4.269
11802SOL    HW137340   3.418   9.925   4.348
11802SOL    HW237341   3.548   9.915   4.249
11803SOL     OW37342   2.881   9.458   5.542
11803SOL    HW137343   2.957   9.515   5.512
11803SOL    HW237344   2.915   9.384   5.600
11804SOL     OW37345   2.353   9.372   5.492
11804SOL    HW137346   2.302   9.310   5.433
11804SOL    HW237347   2.298   9.454   5.509
11805SOL     OW37348   3.040   9.821   3.982
11805SOL    HW137349   3.066   9.738   4.031
11805SOL    HW237350   2.998   9.886   4.045
11806SOL     OW37351   2.167   9.488   4.987
11806SOL    HW137352   2.138   9.520   5.078
11806SOL    HW237353   2.140   9.393   4.975
11807SOL     OW37354   2.539   9.922   4.705
11807SOL    HW137355   2.627   9.905   4.661
11807SOL    HW237356   2.514   0.018   4.693
11808SOL     OW37357   2.199   9.368   4.395
11808SOL    HW137358   2.155   9.455   4.414
11808SOL    HW237359   2.216   9.318   4.480
11809SOL     OW37360   3.451   9.697   4.059
11809SOL    HW137361   3.521   9.632   4.088
11809SOL    HW237362   3.434   9.763   4.132
11810SOL     OW37363   3.364   9.538   3.845
11810SOL    HW137364   3.312   9.460   3.878
11810SOL    HW237365   3.386   9.598   3.922
11811SOL     OW37366   2.212   0.049   4.637
11811SOL    HW137367   2.296   0.098   4.660
11811SOL    HW237368   2.209   9.963   4.687
11812SOL     OW37369   2.219   9.811   4.773
11812SOL    HW137370   2.143   9.746   4.770
11812SOL    HW237371   2.298   9.772   4.725
11813SOL     OW37372   3.068   9.649   5.450
11813SOL    HW137373   3.005   9.700   5.509
11813SOL    HW237374   3.148   9.705   5.430
11814SOL     OW37375   3.043   9.508   5.214
11814SOL    HW137376   3.042   9.559   5.300
11814SOL    HW237377   3.084   9.563   5.142
11815SOL     OW37378   1.810   9.765   4.850
11815SOL    HW137379   1.880   9.715   4.799
11815SOL    HW237380   1.855   9.823   4.919
11816SOL     OW37381   2.299   9.820   5.473
11816SOL    HW137382   2.299   9.804   5.374
11816SOL    HW237383   2.325   9.915   5.491
11817SOL     OW37384   2.534   9.844   4.013
11817SOL    HW137385   2.600   9.784   3.968
11817SOL    HW237386   2.580   9.897   4.085
11818SOL     OW37387   3.500   9.875   4.924
11818SOL    HW137388   3.444   9.859   5.005
11818SOL    HW237389   3.589   9.833   4.936
11819SOL     OW37390   2.526   9.793   4.948
11819SOL    HW137391   2.491   9.700   4.939
11819SOL    HW237392   2.521   9.839   4.858
11820SOL     OW37393   3.639   9.523   4.147
11820SOL    HW137394   3.694   9.502   4.066
11820SOL    HW237395   3.598   9.438   4.181
11821SOL     OW37396   3.754   9.485   4.710
11821SOL    HW137397   3.798   9.395   4.713
11821SOL    HW237398   3.658   9.474   4.683
11822SOL     OW37399   2.082   9.603   4.476
11822SOL    HW137400   2.005   9.650   4.433
11822SOL    HW237401   2.075   9.614   4.576
11823SOL     OW37402   2.576   9.464   5.205
11823SOL    HW137403   2.664   9.429   5.174
11823SOL    HW237404   2.587   9.510   5.293
11824SOL     OW37405   2.000   9.718   3.614
11824SOL    HW137406   1.904   9.712   3.589
11824SOL    HW237407   2.042   9.796   3.566
11825SOL     OW37408   2.670   9.823   5.360
11825SOL    HW137409   2.707   9.885   5.429
11825SOL    HW237410   2.660   9.732   5.400
11826SOL     OW37411   3.076   9.612   4.159
11826SOL    HW137412   3.142   9.537   4.158
11826SOL    HW237413   3.083   9.660   4.246
11827SOL     OW37414   3.611   9.621   5.398
11827SOL    HW137415   3.631   9.613   5.301
11827SOL    HW237416   3.533   9.562   5.421
11828SOL     OW37417   2.947   0.210   3.768
11828SOL    HW137418   2.980   0.269   3.695
11828SOL    HW237419   3.021   0.193   3.833
11829SOL     OW37420   2.325   9.684   4.372
11829SOL    HW137421   2.335   9.681   4.272
11829SOL    HW237422   2.231   9.660   4.397
11830SOL     OW37423   2.189   9.934   5.018
11830SOL    HW137424   2.232   9.879   5.090
11830SOL    HW237425   2.211   9.894   4.929
11831SOL     OW37426   3.292   9.553   4.831
11831SOL    HW137427   3.274   9.455   4.831
11831SOL    HW237428   3.244   9.596   4.908
11832SOL     OW37429   3.238   9.303   3.918
11832SOL    HW137430   3.294   9.235   3.871
11832SOL    HW237431   3.144   9.270   3.923
11833SOL     OW37432   3.483   9.472   4.648
11833SOL    HW137433   3.427   9.514   4.719
11833SOL    HW237434   3.485   9.532   4.568
11834SOL     OW37435   2.043   9.622   6.630
11834SOL    HW137436   2.089   9.562   6.695
11834SOL    HW237437   1.959   9.577   6.599
11835SOL     OW37438   1.853   9.714   6.196
11835SOL    HW137439   1.774   9.732   6.255
11835SOL    HW237440   1.827   9.648   6.126
11836SOL     OW37441   3.423   9.909   5.726
11836SOL    HW137442   3.478   9.898   5.643
11836SOL    HW237443   3.449   9.839   5.792
11837SOL     OW37444   2.255   9.709   7.062
11837SOL    HW137445   2.348   9.681   7.036
11837SOL    HW237446   2.197   9.629   7.069
11838SOL     OW37447   3.467   9.724   6.342
11838SOL    HW137448   3.448   9.765   6.253
11838SOL    HW237449   3.427   9.781   6.414
11839SOL     OW37450   1.957   9.947   6.085
11839SOL    HW137451   1.923   9.861   6.120
11839SOL    HW237452   2.033   9.979   6.142
11840SOL     OW37453   2.700   9.350   6.084
11840SOL    HW137454   2.742   9.439   6.064
11840SOL    HW237455   2.601   9.363   6.096
11841SOL     OW37456   2.092   9.454   7.366
11841SOL    HW137457   2.112   9.473   7.269
11841SOL    HW237458   2.056   9.536   7.409
11842SOL     OW37459   3.157   9.672   6.527
11842SOL    HW137460   3.074   9.618   6.513
11842SOL    HW237461   3.210   9.631   6.602
11843SOL     OW37462   2.721   9.872   6.956
11843SOL    HW137463   2.684   9.870   7.048
11843SOL    HW237464   2.652   9.838   6.891
11844SOL     OW37465   3.237   9.692   7.344
11844SOL    HW137466   3.248   9.683   7.443
11844SOL    HW237467   3.286   9.618   7.298
11845SOL     OW37468   2.932   9.844   6.777
11845SOL    HW137469   2.849   9.845   6.834
11845SOL    HW237470   2.907   9.824   6.682
11846SOL     OW37471   2.894   0.005   6.016
11846SOL    HW137472   2.980   0.044   6.049
11846SOL    HW237473   2.819   0.033   6.077
11847SOL     OW37474   2.711   9.669   5.773
11847SOL    HW137475   2.783   9.693   5.707
11847SOL    HW237476   2.653   9.598   5.733
11848SOL     OW37477   3.479   9.909   7.419
11848SOL    HW137478   3.541   9.988   7.422
11848SOL    HW237479   3.505   9.849   7.343
11849SOL     OW37480   2.412   9.447   6.577
11849SOL    HW137481   2.418   9.477   6.672
11849SOL    HW237482   2.418   9.527   6.517
11850SOL     OW37483   3.329   0.058   6.314
11850SOL    HW137484   3.322   9.991   6.388
11850SOL    HW237485   3.371   0.142   6.348
11851SOL     OW37486   2.071   9.502   7.084
11851SOL    HW137487   1.993   9.563   7.070
11851SOL    HW237488   2.038   9.410   7.103
11852SOL     OW37489   3.228   9.396   6.053
11852SOL    HW137490   3.226   9.374   5.956
11852SOL    HW237491   3.322   9.394   6.086
11853SOL     OW37492   2.527   9.458   5.690
11853SOL    HW137493   2.583   9.380   5.718
11853SOL    HW237494   2.456   9.427   5.627
11854SOL     OW37495   2.609   9.582   7.299
11854SOL    HW137496   2.684   9.531   7.340
11854SOL    HW237497   2.541   9.605   7.369
11855SOL     OW37498   3.204   9.861   7.117
11855SOL    HW137499   3.225   9.813   7.202
11855SOL    HW237500   3.269   9.936   7.105
11856SOL     OW37501   2.834   9.782   6.474
11856SOL    HW137502   2.804   9.785   6.379
11856SOL    HW237503   2.870   9.691   6.494
11857SOL     OW37504   2.432   9.390   6.090
11857SOL    HW137505   2.356   9.388   6.155
11857SOL    HW237506   2.433   9.478   6.043
11858SOL     OW37507   2.158   9.363   5.746
11858SOL    HW137508   2.197   9.442   5.698
11858SOL    HW237509   2.231   9.315   5.795
11859SOL     OW37510   2.800   9.599   6.025
11859SOL    HW137511   2.774   9.626   5.932
11859SOL    HW237512   2.899   9.606   6.035
11860SOL     OW37513   2.934   9.928   7.133
11860SOL    HW137514   2.884   9.897   7.052
11860SOL    HW237515   3.031   9.907   7.121
11861SOL     OW37516   2.909   9.789   5.622
11861SOL    HW137517   2.879   9.877   5.584
11861SOL    HW237518   2.960   9.806   5.707
11862SOL     OW37519   1.937   9.910   6.946
11862SOL    HW137520   2.033   9.911   6.921
11862SOL    HW237521   1.915   9.990   7.001
11863SOL     OW37522   2.409   9.537   6.837
11863SOL    HW137523   2.461   9.495   6.912
11863SOL    HW237524   2.315   9.504   6.838
11864SOL     OW37525   2.743   9.796   6.224
11864SOL    HW137526   2.702   9.877   6.183
11864SOL    HW237527   2.755   9.725   6.154
11865SOL     OW37528   2.880   9.322   6.312
11865SOL    HW137529   2.824   9.343   6.232
11865SOL    HW237530   2.834   9.254   6.369
11866SOL     OW37531   3.332   9.880   6.523
11866SOL    HW137532   3.258   9.813   6.532
11866SOL    HW237533   3.374   9.895   6.613
11867SOL     OW37534   2.440   9.609   5.925
11867SOL    HW137535   2.448   9.561   5.838
11867SOL    HW237536   2.500   9.689   5.924
11868SOL     OW37537   2.806   9.374   6.969
11868SOL    HW137538   2.831   9.372   6.872
11868SOL    HW237539   2.874   9.426   7.020
11869SOL     OW37540   3.126   9.698   6.911
11869SOL    HW137541   3.162   9.760   6.982
11869SOL    HW237542   3.060   9.747   6.855
11870SOL     OW37543   2.421   9.685   6.444
11870SOL    HW137544   2.402   9.686   6.346
11870SOL    HW237545   2.490   9.755   6.465
11871SOL     OW37546   3.468   9.907   6.129
11871SOL    HW137547   3.414   9.968   6.187
11871SOL    HW237548   3.563   9.939   6.126
11872SOL     OW37549   2.807   9.462   7.461
11872SOL    HW137550   2.879   9.514   7.415
11872SOL    HW237551   2.847   9.381   7.504
11873SOL     OW37552   3.026   9.825   5.866
11873SOL    HW137553   3.055   9.747   5.921
11873SOL    HW237554   2.971   9.887   5.923
11874SOL     OW37555   2.148   9.456   6.824
11874SOL    HW137556   2.116   9.473   6.917
11874SOL    HW237557   2.136   9.360   6.801
11875SOL     OW37558   2.587   9.878   6.540
11875SOL    HW137559   2.679   9.843   6.522
11875SOL    HW237560   2.585   9.977   6.524
11876SOL     OW37561   2.196   9.381   6.236
11876SOL    HW137562   2.155   9.472   6.245
11876SOL    HW237563   2.202   9.338   6.327
11877SOL     OW37564   3.468   9.724   5.923
11877SOL    HW137565   3.533   9.656   5.956
11877SOL    HW237566   3.453   9.794   5.993
11878SOL     OW37567   3.382   9.553   5.719
11878SOL    HW137568   3.325   9.480   5.758
11878SOL    HW237569   3.405   9.618   5.791
11879SOL     OW37570   2.210   0.040   6.488
11879SOL    HW137571   2.277   0.109   6.516
11879SOL    HW237572   2.225   9.956   6.540
11880SOL     OW37573   2.243   9.800   6.615
11880SOL    HW137574   2.165   9.737   6.619
11880SOL    HW237575   2.313   9.760   6.556
11881SOL     OW37576   2.968   9.644   7.330
11881SOL    HW137577   2.913   9.718   7.369
11881SOL    HW237578   3.065   9.666   7.338
11882SOL     OW37579   3.000   9.518   7.090
11882SOL    HW137580   2.980   9.572   7.172
11882SOL    HW237581   3.045   9.577   7.022
11883SOL     OW37582   1.843   9.807   6.713
11883SOL    HW137583   1.914   9.750   6.673
11883SOL    HW237584   1.879   9.853   6.794
11884SOL     OW37585   2.182   9.828   7.306
11884SOL    HW137586   2.200   9.786   7.217
11884SOL    HW237587   2.248   9.901   7.322
11885SOL     OW37588   2.685   9.942   5.830
11885SOL    HW137589   2.693   9.844   5.810
11885SOL    HW237590   2.762   9.971   5.888
11886SOL     OW37591   3.475   9.899   6.761
11886SOL    HW137592   3.472   9.840   6.842
11886SOL    HW237593   3.564   9.889   6.716
11887SOL     OW37594   2.534   9.778   6.792
11887SOL    HW137595   2.487   9.690   6.795
11887SOL    HW237596   2.538   9.811   6.698
11888SOL     OW37597   3.638   9.535   6.019
11888SOL    HW137598   3.690   9.504   5.940
11888SOL    HW237599   3.586   9.459   6.057
11889SOL     OW37600   3.709   9.478   6.542
11889SOL    HW137601   3.744   9.384   6.537
11889SOL    HW237602   3.610   9.478   6.524
11890SOL     OW37603   2.090   9.627   6.296
11890SOL    HW137604   2.004   9.660   6.259
11890SOL    HW237605   2.089   9.635   6.395
11891SOL     OW37606   2.932   9.526   6.501
11891SOL    HW137607   2.919   9.464   6.424
11891SOL    HW237608   2.918   9.476   6.587
11892SOL     OW37609   3.619   9.740   6.967
11892SOL    HW137610   3.693   9.806   6.954
11892SOL    HW237611   3.640   9.656   6.916
11893SOL     OW37612   2.556   9.449   7.055
11893SOL    HW137613   2.645   9.422   7.018
11893SOL    HW237614   2.570   9.500   7.140
11894SOL     OW37615   1.939   9.648   5.631
11894SOL    HW137616   1.876   9.650   5.553
11894SOL    HW237617   1.940   9.738   5.675
11895SOL     OW37618   1.911   9.440   5.815
11895SOL    HW137619   1.894   9.512   5.747
11895SOL    HW237620   2.004   9.406   5.804
11896SOL     OW37621   2.618   9.855   7.214
11896SOL    HW137622   2.684   9.913   7.262
11896SOL    HW237623   2.629   9.760   7.242
11897SOL     OW37624   3.071   9.624   6.051
11897SOL    HW137625   3.127   9.541   6.051
11897SOL    HW237626   3.095   9.680   6.130
11898SOL     OW37627   3.571   9.728   7.238
11898SOL    HW137628   3.584   9.739   7.139
11898SOL    HW237629   3.521   9.643   7.256
11899SOL     OW37630   3.002   0.145   5.660
11899SOL    HW137631   2.991   0.244   5.661
11899SOL    HW237632   3.079   0.120   5.719
11900SOL     OW37633   2.339   9.685   6.186
11900SOL    HW137634   2.350   9.671   6.088
11900SOL    HW237635   2.243   9.672   6.211
11901SOL     OW37636   2.194   9.900   6.865
11901SOL    HW137637   2.230   9.841   6.937
11901SOL    HW237638   2.226   9.866   6.776
11902SOL     OW37639   3.307   9.575   6.735
11902SOL    HW137640   3.367   9.510   6.781
11902SOL    HW237641   3.243   9.615   6.801
11903SOL     OW37642   2.893   9.354   6.711
11903SOL    HW137643   2.803   9.330   6.675
11903SOL    HW237644   2.958   9.282   6.687
11904SOL     OW37645   3.229   9.336   5.789
11904SOL    HW137646   3.281   9.259   5.752
11904SOL    HW237647   3.132   9.325   5.764
11905SOL     OW37648   3.137   9.773   6.266
11905SOL    HW137649   3.130   9.872   6.274
11905SOL    HW237650   3.147   9.733   6.357
11906SOL     OW37651   3.440   9.499   6.501
11906SOL    HW137652   3.393   9.534   6.582
11906SOL    HW237653   3.443   9.570   6.431
11907SOL     OW37654   2.044   9.580   8.451
11907SOL    HW137655   2.078   9.528   8.530
11907SOL    HW237656   1.944   9.585   8.456
11908SOL     OW37657   1.839   9.763   8.068
11908SOL    HW137658   1.746   9.784   8.098
11908SOL    HW237659   1.835   9.709   7.984
11909SOL     OW37660   3.585   9.693   7.576
11909SOL    HW137661   3.554   9.766   7.515
11909SOL    HW237662   3.531   9.694   7.660
11910SOL     OW37663   2.258   9.721   8.889
11910SOL    HW137664   2.323   9.676   8.828
11910SOL    HW237665   2.186   9.656   8.914
11911SOL     OW37666   3.479   9.778   8.185
11911SOL    HW137667   3.418   9.811   8.113
11911SOL    HW237668   3.462   9.830   8.269
11912SOL     OW37669   3.453   9.454   8.840
11912SOL    HW137670   3.539   9.473   8.793
11912SOL    HW237671   3.410   9.541   8.867
11913SOL     OW37672   1.920   0.023   8.112
11913SOL    HW137673   1.895   9.928   8.093
11913SOL    HW237674   2.018   0.036   8.093
11914SOL     OW37675   2.662   9.350   8.022
11914SOL    HW137676   2.697   9.408   7.949
11914SOL    HW237677   2.562   9.359   8.026
11915SOL     OW37678   2.180   9.582   9.278
11915SOL    HW137679   2.220   9.664   9.235
11915SOL    HW237680   2.083   9.598   9.296
11916SOL     OW37681   3.162   9.800   8.454
11916SOL    HW137682   3.078   9.770   8.407
11916SOL    HW237683   3.208   9.720   8.492
11917SOL     OW37684   2.712   9.875   8.849
11917SOL    HW137685   2.689   9.837   8.938
11917SOL    HW237686   2.646   9.843   8.781
11918SOL     OW37687   3.285   9.714   9.118
11918SOL    HW137688   3.328   9.791   9.164
11918SOL    HW237689   3.333   9.629   9.141
11919SOL     OW37690   2.918   9.808   8.684
11919SOL    HW137691   2.848   9.829   8.752
11919SOL    HW237692   2.877   9.754   8.610
11920SOL     OW37693   2.859   9.966   7.787
11920SOL    HW137694   2.877   0.058   7.823
11920SOL    HW237695   2.764   9.960   7.757
11921SOL     OW37696   2.659   9.656   7.592
11921SOL    HW137697   2.710   9.735   7.557
11921SOL    HW237698   2.705   9.572   7.563
11922SOL     OW37699   3.472   9.916   9.184
11922SOL    HW137700   3.468   9.981   9.109
11922SOL    HW237701   3.540   9.845   9.163
11923SOL     OW37702   2.382   9.449   8.446
11923SOL    HW137703   2.387   9.488   8.538
11923SOL    HW237704   2.398   9.521   8.378
11924SOL     OW37705   2.053   9.544   8.941
11924SOL    HW137706   1.976   9.608   8.941
11924SOL    HW237707   2.039   9.475   9.012
11925SOL     OW37708   3.207   9.463   7.903
11925SOL    HW137709   3.189   9.434   7.809
11925SOL    HW237710   3.301   9.441   7.927
11926SOL     OW37711   3.447   9.505   9.192
11926SOL    HW137712   3.443   9.527   9.290
11926SOL    HW237713   3.441   9.406   9.180
11927SOL     OW37714   2.600   9.511   9.110
11927SOL    HW137715   2.686   9.469   9.140
11927SOL    HW237716   2.524   9.467   9.157
11928SOL     OW37717   3.358   9.833   8.881
11928SOL    HW137718   3.327   9.785   8.963
11928SOL    HW237719   3.376   9.929   8.902
11929SOL     OW37720   2.777   9.858   8.299
11929SOL    HW137721   2.765   9.856   8.200
11929SOL    HW237722   2.840   9.786   8.327
11930SOL     OW37723   2.388   9.404   8.007
11930SOL    HW137724   2.306   9.365   8.049
11930SOL    HW237725   2.394   9.501   8.028
11931SOL     OW37726   2.915   0.007   9.005
11931SOL    HW137727   2.856   9.945   8.952
11931SOL    HW237728   2.936   0.088   8.951
11932SOL     OW37729   2.828   9.837   7.470
11932SOL    HW137730   2.809   9.924   7.425
11932SOL    HW237731   2.908   9.846   7.528
11933SOL     OW37732   1.915   9.930   8.771
11933SOL    HW137733   2.015   9.930   8.758
11933SOL    HW237734   1.884   0.025   8.780
11934SOL     OW37735   2.385   9.557   8.699
11934SOL    HW137736   2.448   9.504   8.756
11934SOL    HW237737   2.294   9.514   8.702
11935SOL     OW37738   2.756   9.873   8.034
11935SOL    HW137739   2.709   9.961   8.031
11935SOL    HW237740   2.813   9.862   7.952
11936SOL     OW37741   2.889   9.287   8.166
11936SOL    HW137742   2.811   9.312   8.108
11936SOL    HW237743   2.855   9.259   8.255
11937SOL     OW37744   3.421   9.891   8.423
11937SOL    HW137745   3.323   9.875   8.435
11937SOL    HW237746   3.463   9.909   8.511
11938SOL     OW37747   2.453   9.665   7.766
11938SOL    HW137748   2.398   9.582   7.756
11938SOL    HW237749   2.532   9.660   7.705
11939SOL     OW37750   2.808   9.460   8.736
11939SOL    HW137751   2.844   9.459   8.642
11939SOL    HW237752   2.883   9.469   8.801
11940SOL     OW37753   3.156   9.687   8.758
11940SOL    HW137754   3.225   9.749   8.795
11940SOL    HW237755   3.075   9.738   8.732
11941SOL     OW37756   2.419   9.684   8.307
11941SOL    HW137757   2.406   9.683   8.208
11941SOL    HW237758   2.472   9.765   8.333
11942SOL     OW37759   2.848   9.418   9.172
11942SOL    HW137760   2.909   9.497   9.172
11942SOL    HW237761   2.898   9.337   9.142
11943SOL     OW37762   2.374   9.394   9.221
11943SOL    HW137763   2.331   9.314   9.181
11943SOL    HW237764   2.306   9.465   9.238
11944SOL     OW37765   3.051   9.851   7.620
11944SOL    HW137766   3.106   9.770   7.643
11944SOL    HW237767   2.998   9.879   7.701
11945SOL     OW37768   2.128   9.457   8.695
11945SOL    HW137769   2.098   9.491   8.784
11945SOL    HW237770   2.119   9.358   8.692
11946SOL     OW37771   2.535   9.912   8.408
11946SOL    HW137772   2.628   9.900   8.373
11946SOL    HW237773   2.507   0.007   8.397
11947SOL     OW37774   2.143   9.364   8.121
11947SOL    HW137775   2.112   9.459   8.130
11947SOL    HW237776   2.156   9.324   8.211
11948SOL     OW37777   3.435   9.692   7.804
11948SOL    HW137778   3.507   9.641   7.850
11948SOL    HW237779   3.395   9.758   7.868
11949SOL     OW37780   3.235   9.643   7.620
11949SOL    HW137781   3.211   9.546   7.623
11949SOL    HW237782   3.310   9.660   7.685
11950SOL     OW37783   2.224   0.011   8.330
11950SOL    HW137784   2.297   0.073   8.359
11950SOL    HW237785   2.221   9.931   8.389
11951SOL     OW37786   2.225   9.780   8.477
11951SOL    HW137787   2.151   9.713   8.472
11951SOL    HW237788   2.303   9.748   8.423
11952SOL     OW37789   3.017   9.637   9.145
11952SOL    HW137790   2.971   9.700   9.208
11952SOL    HW237791   3.112   9.665   9.134
11953SOL     OW37792   3.025   9.495   8.905
11953SOL    HW137793   3.009   9.540   8.993
11953SOL    HW237794   3.082   9.553   8.847
11954SOL     OW37795   1.819   9.871   8.526
11954SOL    HW137796   1.839   9.946   8.463
11954SOL    HW237797   1.861   9.891   8.615
11955SOL     OW37798   2.270   9.801   9.150
11955SOL    HW137799   2.276   9.777   9.053
11955SOL    HW237800   2.296   9.897   9.162
11956SOL     OW37801   2.577   9.947   7.736
11956SOL    HW137802   2.551   9.851   7.739
11956SOL    HW237803   2.522  10.000   7.801
11957SOL     OW37804   3.545   9.926   8.671
11957SOL    HW137805   3.502   9.868   8.740
11957SOL    HW237806   3.643   9.907   8.667
11958SOL     OW37807   2.545   9.788   8.657
11958SOL    HW137808   2.486   9.707   8.659
11958SOL    HW237809   2.534   9.835   8.569
11959SOL     OW37810   3.635   9.547   7.917
11959SOL    HW137811   3.681   9.517   7.833
11959SOL    HW237812   3.575   9.474   7.950
11960SOL     OW37813   3.691   9.470   8.438
11960SOL    HW137814   3.726   9.384   8.401
11960SOL    HW237815   3.608   9.496   8.389
11961SOL     OW37816   2.066   9.623   8.169
11961SOL    HW137817   1.988   9.677   8.138
11961SOL    HW237818   2.066   9.617   8.269
11962SOL     OW37819   3.738   9.695   8.881
11962SOL    HW137820   3.800   9.768   8.853
11962SOL    HW237821   3.720   9.635   8.803
11963SOL     OW37822   2.567   9.430   8.855
11963SOL    HW137823   2.653   9.437   8.804
11963SOL    HW237824   2.578   9.469   8.946
11964SOL     OW37825   1.987   9.688   7.451
11964SOL    HW137826   1.902   9.689   7.399
11964SOL    HW237827   2.054   9.748   7.408
11965SOL     OW37828   1.983   9.517   7.680
11965SOL    HW137829   1.975   9.581   7.603
11965SOL    HW237830   2.079   9.503   7.702
11966SOL     OW37831   2.664   9.776   9.091
11966SOL    HW137832   2.698   9.803   9.181
11966SOL    HW237833   2.633   9.681   9.095
11967SOL     OW37834   3.624   9.699   9.126
11967SOL    HW137835   3.663   9.698   9.034
11967SOL    HW237836   3.565   9.620   9.139
11968SOL     OW37837   2.993   0.167   7.467
11968SOL    HW137838   3.009   0.243   7.404
11968SOL    HW237839   3.077   0.115   7.478
11969SOL     OW37840   3.693   9.482   8.709
11969SOL    HW137841   3.756   9.407   8.731
11969SOL    HW237842   3.682   9.489   8.610
11970SOL     OW37843   2.358   9.671   8.039
11970SOL    HW137844   2.390   9.697   7.948
11970SOL    HW237845   2.260   9.691   8.046
11971SOL     OW37846   2.180   9.917   8.711
11971SOL    HW137847   2.218   9.862   8.786
11971SOL    HW237848   2.204   9.875   8.624
11972SOL     OW37849   3.272   9.565   8.544
11972SOL    HW137850   3.304   9.471   8.552
11972SOL    HW237851   3.234   9.595   8.632
11973SOL     OW37852   2.914   9.432   8.472
11973SOL    HW137853   2.847   9.362   8.450
11973SOL    HW237854   3.003   9.390   8.488
11974SOL     OW37855   3.175   9.376   7.644
11974SOL    HW137856   3.241   9.314   7.602
11974SOL    HW237857   3.083   9.340   7.630
11975SOL     OW37858   3.453   9.541   8.330
11975SOL    HW137859   3.386   9.567   8.399
11975SOL    HW237860   3.466   9.616   8.266
11976SOL     OW37861   3.464   9.869   9.454
11976SOL    HW137862   3.476   9.906   9.362
11976SOL    HW237863   3.449   9.770   9.449
11977SOL     OW37864   1.870   9.884   9.937
11977SOL    HW137865   1.809   9.935   9.876
11977SOL    HW237866   1.959   9.929   9.939
11978SOL     OW37867   2.646   9.402   9.831
11978SOL    HW137868   2.675   9.489   9.792
11978SOL    HW237869   2.546   9.395   9.826
11979SOL     OW37870   2.871   9.882   9.745
11979SOL    HW137871   2.903   9.876   9.839
11979SOL    HW237872   2.802   9.953   9.737
11980SOL     OW37873   2.706   9.657   9.462
11980SOL    HW137874   2.781   9.692   9.406
11980SOL    HW237875   2.674   9.570   9.425
11981SOL     OW37876   2.564   9.418   9.422
11981SOL    HW137877   2.612   9.332   9.437
11981SOL    HW237878   2.492   9.405   9.354
11982SOL     OW37879   2.204   9.443   9.509
11982SOL    HW137880   2.199   9.494   9.424
11982SOL    HW237881   2.281   9.477   9.564
11983SOL     OW37882   2.731   9.643   9.733
11983SOL    HW137883   2.715   9.632   9.635
11983SOL    HW237884   2.793   9.720   9.748
11984SOL     OW37885   2.906   9.808   9.338
11984SOL    HW137886   2.890   9.902   9.311
11984SOL    HW237887   2.971   9.805   9.415
11985SOL     OW37888   2.652   9.804   9.956
11985SOL    HW137889   2.623   9.889   9.913
11985SOL    HW237890   2.650   9.730   9.888
11986SOL     OW37891   2.426   9.585   9.596
11986SOL    HW137892   2.484   9.525   9.540
11986SOL    HW237893   2.448   9.680   9.576
11987SOL     OW37894   3.551   9.907   9.718
11987SOL    HW137895   3.483   9.971   9.753
11987SOL    HW237896   3.545   9.902   9.619
11988SOL     OW37897   3.064   9.823   9.569
11988SOL    HW137898   3.108   9.741   9.605
11988SOL    HW237899   2.989   9.850   9.629
11989SOL     OW37900   2.156   9.480   9.942
11989SOL    HW137901   2.069   9.528   9.933
11989SOL    HW237902   2.161   9.438   0.033
11990SOL     OW37903   3.458   9.644   9.714
11990SOL    HW137904   3.525   9.576   9.744
11990SOL    HW237905   3.495   9.736   9.729
11991SOL     OW37906   3.411   9.598   9.446
11991SOL    HW137907   3.315   9.571   9.443
11991SOL    HW237908   3.443   9.598   9.540
11992SOL     OW37909   2.235   9.774   0.349
11992SOL    HW137910   2.149   9.741   0.310
11992SOL    HW237911   2.310   9.715   0.320
11993SOL     OW37912   2.534   9.850   9.554
11993SOL    HW137913   2.607   9.790   9.521
11993SOL    HW237914   2.565   9.898   9.636
11994SOL     OW37915   3.654   9.461   9.758
11994SOL    HW137916   3.703   9.483   9.674
11994SOL    HW237917   3.634   9.363   9.760
11995SOL     OW37918   1.922   9.653   9.357
11995SOL    HW137919   1.854   9.657   9.285
11995SOL    HW237920   1.939   9.745   9.392
11996SOL     OW37921   1.938   9.467   9.564
11996SOL    HW137922   1.914   9.527   9.488
11996SOL    HW237923   2.036   9.451   9.565
11997SOL     OW37924   3.190   9.606   9.712
11997SOL    HW137925   3.288   9.624   9.714
11997SOL    HW237926   3.150   9.624   9.802
11998SOL     OW37927   3.070   0.257   9.324
11998SOL    HW137928   3.020   0.344   9.326
11998SOL    HW237929   3.149   0.263   9.385
11999SOL     OW37930   2.328   9.675   9.837
11999SOL    HW137931   2.363   9.637   9.752
11999SOL    HW237932   2.263   9.611   9.878
12000SOL     OW37933   3.111   9.642   9.961
12000SOL    HW137934   3.039   9.710   9.973
12000SOL    HW237935   3.173   9.645   0.040
12001SOL     OW37936   3.828   0.584   0.105
12001SOL    HW137937   3.740   0.577   0.153
12001SOL    HW237938   3.819   0.540   0.015
12002SOL     OW37939   3.887   0.342   1.046
12002SOL    HW137940   3.930   0.286   1.116
12002SOL    HW237941   3.822   0.287   0.995
12003SOL     OW37942   3.691   0.449   0.679
12003SOL    HW137943   3.600   0.465   0.717
12003SOL    HW237944   3.689   0.366   0.623
12004SOL     OW37945   4.285   1.314   1.300
12004SOL    HW137946   4.202   1.300   1.354
12004SOL    HW237947   4.293   1.411   1.276
12005SOL     OW37948   5.326   1.464   0.695
12005SOL    HW137949   5.263   1.458   0.772
12005SOL    HW237950   5.278   1.498   0.614
12006SOL     OW37951   4.849   0.718   0.650
12006SOL    HW137952   4.909   0.798   0.650
12006SOL    HW237953   4.804   0.710   0.740
12007SOL     OW37954   5.492   0.513   0.184
12007SOL    HW137955   5.426   0.545   0.116
12007SOL    HW237956   5.449   0.444   0.242
12008SOL     OW37957   4.410   1.137   1.129
12008SOL    HW137958   4.349   1.191   1.187
12008SOL    HW237959   4.465   1.198   1.073
12009SOL     OW37960   4.620   0.734   1.754
12009SOL    HW137961   4.659   0.790   1.827
12009SOL    HW237962   4.627   0.782   1.667
12010SOL     OW37963   4.487   1.194   1.843
12010SOL    HW137964   4.550   1.237   1.908
12010SOL    HW237965   4.447   1.263   1.784
12011SOL     OW37966   5.167   1.469   1.382
12011SOL    HW137967   5.208   1.558   1.365
12011SOL    HW237968   5.090   1.480   1.445
12012SOL     OW37969   5.253   0.500   0.686
12012SOL    HW137970   5.155   0.480   0.685
12012SOL    HW237971   5.278   0.551   0.604
12013SOL     OW37972   4.015   1.651   0.494
12013SOL    HW137973   4.001   1.737   0.542
12013SOL    HW237974   4.109   1.646   0.461
12014SOL     OW37975   4.878   1.321   1.736
12014SOL    HW137976   4.925   1.313   1.823
12014SOL    HW237977   4.823   1.238   1.720
12015SOL     OW37978   3.972   1.057   1.019
12015SOL    HW137979   4.008   0.975   0.976
12015SOL    HW237980   3.961   1.129   0.950
12016SOL     OW37981   4.289   1.828   1.371
12016SOL    HW137982   4.220   1.801   1.438
12016SOL    HW237983   4.349   1.898   1.411
12017SOL     OW37984   4.251   0.955   0.169
12017SOL    HW137985   4.226   1.038   0.120
12017SOL    HW237986   4.335   0.972   0.222
12018SOL     OW37987   5.242   0.124   1.413
12018SOL    HW137988   5.317   0.156   1.356
12018SOL    HW237989   5.252   0.160   1.506
12019SOL     OW37990   3.804   0.692   0.602
12019SOL    HW137991   3.763   0.604   0.627
12019SOL    HW237992   3.812   0.750   0.683
12020SOL     OW37993   5.638   1.698   0.280
12020SOL    HW137994   5.712   1.692   0.347
12020SOL    HW237995   5.643   1.785   0.232
12021SOL     OW37996   3.737   1.560   0.078
12021SOL    HW137997   3.746   1.460   0.081
12021SOL    HW237998   3.776   1.599   0.162
12022SOL     OW37999   5.416   0.883   0.702
12022SOL    HW138000   5.510   0.878   0.734
12022SOL    HW238001   5.411   0.939   0.619
12023SOL     OW38002   5.429   1.042   0.478
12023SOL    HW138003   5.513   1.009   0.434
12023SOL    HW238004   5.451   1.123   0.534
12024SOL     OW38005   3.791   0.790   1.576
12024SOL    HW138006   3.850   0.863   1.611
12024SOL    HW238007   3.711   0.831   1.531
12025SOL     OW38008   4.445   1.306   0.730
12025SOL    HW138009   4.463   1.209   0.716
12025SOL    HW238010   4.406   1.345   0.646
12026SOL     OW38011   4.963   1.155   1.444
12026SOL    HW138012   4.978   1.090   1.369
12026SOL    HW238013   5.050   1.180   1.484
12027SOL     OW38014   4.512   0.053   0.535
12027SOL    HW138015   4.568   0.129   0.502
12027SOL    HW238016   4.415   0.074   0.523
12028SOL     OW38017   3.966   0.981   1.277
12028SOL    HW138018   4.027   0.902   1.276
12028SOL    HW238019   3.961   1.020   1.185
12029SOL     OW38020   5.200   1.041   0.337
12029SOL    HW138021   5.158   0.951   0.339
12029SOL    HW238022   5.289   1.038   0.382
12030SOL     OW38023   4.851   1.756   1.616
12030SOL    HW138024   4.879   1.836   1.563
12030SOL    HW238025   4.891   1.673   1.577
12031SOL     OW38026   3.993   0.285   1.695
12031SOL    HW138027   4.017   0.365   1.640
12031SOL    HW238028   3.917   0.308   1.756
12032SOL     OW38029   5.126   1.431   0.887
12032SOL    HW138030   5.097   1.440   0.982
12032SOL    HW238031   5.138   1.334   0.865
12033SOL     OW38032   5.352   1.906   0.527
12033SOL    HW138033   5.360   1.830   0.462
12033SOL    HW238034   5.372   1.873   0.619
12034SOL     OW38035   4.247   0.684   0.271
12034SOL    HW138036   4.255   0.774   0.228
12034SOL    HW238037   4.179   0.687   0.343
12035SOL     OW38038   4.925   0.336   0.896
12035SOL    HW138039   4.841   0.285   0.912
12035SOL    HW238040   4.995   0.307   0.961
12036SOL     OW38041   5.372   1.702   0.353
12036SOL    HW138042   5.470   1.691   0.335
12036SOL    HW238043   5.323   1.711   0.267
12037SOL     OW38044   4.532   0.558   1.431
12037SOL    HW138045   4.497   0.543   1.523
12037SOL    HW238046   4.523   0.474   1.377
12038SOL     OW38047   5.112   0.428   1.674
12038SOL    HW138048   5.125   0.473   1.762
12038SOL    HW238049   5.164   0.342   1.672
12039SOL     OW38050   4.664   0.899   1.535
12039SOL    HW138051   4.719   0.830   1.487
12039SOL    HW238052   4.599   0.941   1.472
12040SOL     OW38053   4.728   0.439   1.177
12040SOL    HW138054   4.711   0.350   1.219
12040SOL    HW238055   4.682   0.443   1.088
12041SOL     OW38056   4.752   0.695   0.395
12041SOL    HW138057   4.779   0.701   0.492
12041SOL    HW238058   4.659   0.660   0.388
12042SOL     OW38059   3.813   0.867   0.814
12042SOL    HW138060   3.906   0.843   0.842
12042SOL    HW238061   3.777   0.938   0.874
12043SOL     OW38062   3.852   1.885   1.567
12043SOL    HW138063   3.849   1.856   1.663
12043SOL    HW238064   3.781   1.837   1.516
12044SOL     OW38065   4.575   0.369   0.206
12044SOL    HW138066   4.570   0.418   0.120
12044SOL    HW238067   4.578   0.270   0.189
12045SOL     OW38068   5.373   0.599   1.800
12045SOL    HW138069   5.380   0.684   1.748
12045SOL    HW238070   5.412   0.524   1.747
12046SOL     OW38071   5.111   1.165   0.567
12046SOL    HW138072   5.150   1.127   0.483
12046SOL    HW238073   5.053   1.244   0.544
12047SOL     OW38074   4.275   0.200   1.117
12047SOL    HW138075   4.282   0.223   1.214
12047SOL    HW238076   4.279   0.284   1.062
12048SOL     OW38077   4.737   1.525   0.497
12048SOL    HW138078   4.706   1.599   0.438
12048SOL    HW238079   4.685   1.527   0.583
12049SOL     OW38080   4.928   1.488   1.523
12049SOL    HW138081   4.926   1.431   1.605
12049SOL    HW238082   4.859   1.456   1.458
12050SOL     OW38083   4.057   0.949   0.367
12050SOL    HW138084   4.126   0.952   0.295
12050SOL    HW238085   4.047   0.855   0.399
12051SOL     OW38086   5.194   0.761   0.785
12051SOL    HW138087   5.204   0.663   0.768
12051SOL    HW238088   5.278   0.808   0.759
12052SOL     OW38089   4.129   1.324   1.719
12052SOL    HW138090   4.124   1.320   1.620
12052SOL    HW238091   4.037   1.313   1.758
12053SOL     OW38092   4.846   1.776   0.152
12053SOL    HW138093   4.785   1.746   0.225
12053SOL    HW238094   4.898   1.698   0.117
12054SOL     OW38095   3.852   0.150   1.496
12054SOL    HW138096   3.774   0.212   1.484
12054SOL    HW238097   3.908   0.182   1.573
12055SOL     OW38098   5.321   1.360   0.197
12055SOL    HW138099   5.265   1.417   0.257
12055SOL    HW238100   5.262   1.298   0.146
12056SOL     OW38101   4.284   1.674   0.441
12056SOL    HW138102   4.284   1.771   0.467
12056SOL    HW238103   4.338   1.663   0.357
12057SOL     OW38104   5.127   0.125   0.418
12057SOL    HW138105   5.115   0.095   0.324
12057SOL    HW238106   5.196   0.068   0.463
12058SOL     OW38107   4.724   1.714   0.881
12058SOL    HW138108   4.821   1.701   0.861
12058SOL    HW238109   4.670   1.646   0.832
12059SOL     OW38110   4.042   0.688   0.457
12059SOL    HW138111   4.076   0.597   0.480
12059SOL    HW238112   3.954   0.703   0.502
12060SOL     OW38113   5.258   0.182   1.695
12060SOL    HW138114   5.286   0.205   1.789
12060SOL    HW238115   5.226   0.087   1.693
12061SOL     OW38116   4.342   0.148   0.090
12061SOL    HW138117   4.441   0.134   0.101
12061SOL    HW238118   4.313   0.112   0.001
12062SOL     OW38119   4.463   0.298   1.763
12062SOL    HW138120   4.537   0.234   1.744
12062SOL    HW238121   4.377   0.247   1.773
12063SOL     OW38122   4.585   1.488   1.230
12063SOL    HW138123   4.566   1.446   1.142
12063SOL    HW238124   4.651   1.432   1.281
12064SOL     OW38125   5.028   0.589   1.461
12064SOL    HW138126   5.067   0.541   1.540
12064SOL    HW238127   5.084   0.669   1.439
12065SOL     OW38128   4.544   1.334   0.990
12065SOL    HW138129   4.640   1.339   0.962
12065SOL    HW238130   4.486   1.331   0.909
12066SOL     OW38131   4.607   0.461   0.873
12066SOL    HW138132   4.589   0.465   0.775
12066SOL    HW238133   4.632   0.368   0.899
12067SOL     OW38134   4.251   0.114   0.498
12067SOL    HW138135   4.176   0.105   0.563
12067SOL    HW238136   4.216   0.155   0.413
12068SOL     OW38137   5.130   1.180   0.105
12068SOL    HW138138   5.154   1.118   0.180
12068SOL    HW238139   5.047   1.231   0.129
12069SOL     OW38140   4.048   9.987   0.195
12069SOL    HW138141   4.081   0.075   0.230
12069SOL    HW238142   4.080   9.913   0.254
12070SOL     OW38143   4.680   0.259   0.443
12070SOL    HW138144   4.644   0.301   0.359
12070SOL    HW238145   4.777   0.281   0.452
12071SOL     OW38146   4.777   0.692   1.404
12071SOL    HW138147   4.703   0.626   1.412
12071SOL    HW238148   4.864   0.648   1.426
12072SOL     OW38149   4.987   1.660   0.826
12072SOL    HW138150   4.996   1.699   0.735
12072SOL    HW238151   5.044   1.579   0.835
12073SOL     OW38152   4.985   1.751   0.567
12073SOL    HW138153   5.018   1.841   0.538
12073SOL    HW238154   4.890   1.739   0.537
12074SOL     OW38155   4.857   0.417   0.031
12074SOL    HW138156   4.762   0.440   0.010
12074SOL    HW238157   4.884   0.459   0.118
12075SOL     OW38158   3.815   0.552   1.434
12075SOL    HW138159   3.908   0.523   1.460
12075SOL    HW238160   3.796   0.641   1.477
12076SOL     OW38161   4.567   0.458   0.606
12076SOL    HW138162   4.527   0.516   0.535
12076SOL    HW238163   4.607   0.377   0.564
12077SOL     OW38164   4.534   0.023   0.809
12077SOL    HW138165   4.519   0.037   0.711
12077SOL    HW238166   4.556   9.927   0.826
12078SOL     OW38167   5.175   1.168   0.845
12078SOL    HW138168   5.112   1.098   0.878
12078SOL    HW238169   5.178   1.168   0.745
12079SOL     OW38170   5.543   0.702   0.377
12079SOL    HW138171   5.601   0.674   0.454
12079SOL    HW238172   5.541   0.629   0.309
12080SOL     OW38173   4.157   1.533   0.158
12080SOL    HW138174   4.076   1.484   0.190
12080SOL    HW238175   4.206   1.477   0.091
12081SOL     OW38176   5.489   1.250   0.633
12081SOL    HW138177   5.580   1.263   0.672
12081SOL    HW238178   5.431   1.328   0.656
12082SOL     OW38179   5.150   0.538   0.121
12082SOL    HW138180   5.071   0.536   0.182
12082SOL    HW238181   5.182   0.445   0.104
12083SOL     OW38182   4.162   0.237   0.268
12083SOL    HW138183   4.235   0.206   0.206
12083SOL    HW238184   4.125   0.324   0.235
12084SOL     OW38185   4.749   1.313   1.377
12084SOL    HW138186   4.661   1.291   1.420
12084SOL    HW238187   4.820   1.253   1.413
12085SOL     OW38188   5.346   1.752   1.697
12085SOL    HW138189   5.315   1.768   1.603
12085SOL    HW238190   5.424   1.690   1.696
12086SOL     OW38191   4.868   1.221   1.141
12086SOL    HW138192   4.806   1.248   1.215
12086SOL    HW238193   4.833   1.255   1.054
12087SOL     OW38194   5.380   1.226   1.035
12087SOL    HW138195   5.339   1.223   1.126
12087SOL    HW238196   5.310   1.207   0.967
12088SOL     OW38197   4.706   0.197   1.295
12088SOL    HW138198   4.710   0.117   1.235
12088SOL    HW238199   4.788   0.199   1.353
12089SOL     OW38200   4.717   1.096   1.720
12089SOL    HW138201   4.629   1.124   1.757
12089SOL    HW238202   4.703   1.029   1.647
12090SOL     OW38203   4.144   0.775   1.229
12090SOL    HW138204   4.220   0.757   1.292
12090SOL    HW238205   4.117   0.691   1.183
12091SOL     OW38206   4.990   0.418   1.256
12091SOL    HW138207   5.011   0.487   1.325
12091SOL    HW238208   4.898   0.436   1.219
12092SOL     OW38209   3.727   1.612   1.428
12092SOL    HW138210   3.678   1.637   1.345
12092SOL    HW238211   3.815   1.572   1.404
12093SOL     OW38212   4.293   0.433   0.975
12093SOL    HW138213   4.320   0.410   0.881
12093SOL    HW238214   4.355   0.501   1.012
12094SOL     OW38215   4.976   1.389   0.464
12094SOL    HW138216   5.053   1.452   0.473
12094SOL    HW238217   4.891   1.437   0.485
12095SOL     OW38218   5.039   1.432   1.145
12095SOL    HW138219   5.087   1.439   1.232
12095SOL    HW238220   4.980   1.351   1.147
12096SOL     OW38221   5.287   0.633   0.455
12096SOL    HW138222   5.213   0.688   0.416
12096SOL    HW238223   5.375   0.673   0.428
12097SOL     OW38224   4.206   0.693   1.618
12097SOL    HW138225   4.242   0.743   1.540
12097SOL    HW238226   4.280   0.643   1.663
12098SOL     OW38227   5.352   0.856   1.686
12098SOL    HW138228   5.252   0.852   1.689
12098SOL    HW238229   5.380   0.929   1.622
12099SOL     OW38230   4.674   0.140   1.681
12099SOL    HW138231   4.740   0.215   1.690
12099SOL    HW238232   4.720   0.057   1.650
12100SOL     OW38233   4.226   0.161   1.791
12100SOL    HW138234   4.212   0.063   1.776
12100SOL    HW238235   4.143   0.211   1.766
12101SOL     OW38236   4.319   0.887   1.045
12101SOL    HW138237   4.347   0.981   1.063
12101SOL    HW238238   4.249   0.859   1.111
12102SOL     OW38239   5.092   0.813   1.041
12102SOL    HW138240   5.107   0.791   0.944
12102SOL    HW238241   5.169   0.781   1.095
12103SOL     OW38242   4.923   0.518   0.275
12103SOL    HW138243   4.935   0.442   0.338
12103SOL    HW238244   4.857   0.583   0.313
12104SOL     OW38245   3.974   0.176   1.245
12104SOL    HW138246   3.930   0.170   1.335
12104SOL    HW238247   4.034   0.098   1.232
12105SOL     OW38248   3.774   1.305   1.220
12105SOL    HW138249   3.767   1.225   1.279
12105SOL    HW238250   3.683   1.336   1.194
12106SOL     OW38251   4.449   0.643   1.045
12106SOL    HW138252   4.508   0.622   0.967
12106SOL    HW238253   4.408   0.733   1.034
12107SOL     OW38254   5.477   0.896   1.933
12107SOL    HW138255   5.434   0.872   1.846
12107SOL    HW238256   5.407   0.928   1.997
12108SOL     OW38257   4.043   0.119   0.686
12108SOL    HW138258   4.007   0.212   0.700
12108SOL    HW238259   4.084   0.086   0.771
12109SOL     OW38260   5.339   0.373   0.359
12109SOL    HW138261   5.381   0.314   0.428
12109SOL    HW238262   5.303   0.456   0.403
12110SOL     OW38263   4.739   0.697   0.897
12110SOL    HW138264   4.750   0.720   0.993
12110SOL    HW238265   4.706   0.603   0.888
12111SOL     OW38266   4.743   1.556   1.802
12111SOL    HW138267   4.741   1.629   1.734
12111SOL    HW238268   4.775   1.472   1.759
12112SOL     OW38269   5.566   1.587   1.632
12112SOL    HW138270   5.596   1.578   1.537
12112SOL    HW238271   5.637   1.550   1.692
12113SOL     OW38272   4.090   0.910   1.782
12113SOL    HW138273   4.155   0.947   1.849
12113SOL    HW238274   4.134   0.838   1.729
12114SOL     OW38275   5.222   0.279   0.130
12114SOL    HW138276   5.187   0.186   0.130
12114SOL    HW238277   5.266   0.299   0.217
12115SOL     OW38278   5.109   0.797   0.068
12115SOL    HW138279   5.127   0.698   0.071
12115SOL    HW238280   5.178   0.841   0.010
12116SOL     OW38281   4.800   1.334   0.902
12116SOL    HW138282   4.814   1.247   0.855
12116SOL    HW238283   4.835   1.409   0.846
12117SOL     OW38284   4.061   0.812   0.921
12117SOL    HW138285   4.157   0.837   0.913
12117SOL    HW238286   4.053   0.725   0.968
12118SOL     OW38287   4.069   0.563   1.060
12118SOL    HW138288   3.992   0.499   1.061
12118SOL    HW238289   4.151   0.515   1.029
12119SOL     OW38290   4.859   0.340   1.700
12119SOL    HW138291   4.802   0.400   1.757
12119SOL    HW238292   4.949   0.382   1.688
12120SOL     OW38293   4.920   0.224   1.450
12120SOL    HW138294   4.905   0.266   1.539
12120SOL    HW238295   4.973   0.286   1.392
12121SOL     OW38296   3.739   1.249   0.120
12121SOL    HW138297   3.642   1.272   0.120
12121SOL    HW238298   3.754   1.164   0.171
12122SOL     OW38299   3.750   1.751   0.989
12122SOL    HW138300   3.762   1.678   0.922
12122SOL    HW238301   3.838   1.774   1.030
12123SOL     OW38302   4.681   0.766   1.154
12123SOL    HW138303   4.730   0.748   1.240
12123SOL    HW238304   4.597   0.711   1.152
12124SOL     OW38305   3.713   0.521   1.178
12124SOL    HW138306   3.771   0.460   1.124
12124SOL    HW238307   3.760   0.544   1.263
12125SOL     OW38308   3.902   0.614   1.765
12125SOL    HW138309   3.991   0.605   1.721
12125SOL    HW238310   3.845   0.677   1.711
12126SOL     OW38311   5.078   0.876   1.637
12126SOL    HW138312   5.012   0.951   1.632
12126SOL    HW238313   5.109   0.853   1.545
12127SOL     OW38314   4.500   0.583   0.364
12127SOL    HW138315   4.520   0.503   0.307
12127SOL    HW238316   4.412   0.622   0.336
12128SOL     OW38317   3.948   1.559   1.660
12128SOL    HW138318   3.915   1.634   1.718
12128SOL    HW238319   3.922   1.472   1.702
12129SOL     OW38320   4.569   1.674   1.468
12129SOL    HW138321   4.571   1.608   1.393
12129SOL    HW238322   4.606   1.761   1.436
12130SOL     OW38323   4.091   0.481   0.147
12130SOL    HW138324   4.154   0.548   0.188
12130SOL    HW238325   3.999   0.519   0.145
12131SOL     OW38326   3.831   1.129   1.451
12131SOL    HW138327   3.845   1.097   1.545
12131SOL    HW238328   3.877   1.068   1.387
12132SOL     OW38329   5.006   0.998   1.220
12132SOL    HW138330   5.023   0.929   1.150
12132SOL    HW238331   4.952   1.073   1.181
12133SOL     OW38332   5.088   0.792   0.339
12133SOL    HW138333   4.996   0.764   0.368
12133SOL    HW238334   5.094   0.791   0.239
12134SOL     OW38335   5.007   1.703   1.099
12134SOL    HW138336   5.000   1.711   0.999
12134SOL    HW238337   4.994   1.608   1.126
12135SOL     OW38338   3.818   1.297   0.941
12135SOL    HW138339   3.826   1.296   1.041
12135SOL    HW238340   3.753   1.226   0.913
12136SOL     OW38341   4.434   1.677   1.709
12136SOL    HW138342   4.379   1.761   1.716
12136SOL    HW238343   4.487   1.679   1.624
12137SOL     OW38344   4.611   0.110   0.135
12137SOL    HW138345   4.707   0.116   0.108
12137SOL    HW238346   4.596   0.024   0.184
12138SOL     OW38347   5.522   0.219   0.504
12138SOL    HW138348   5.536   0.201   0.406
12138SOL    HW238349   5.536   0.134   0.555
12139SOL     OW38350   5.177   1.573   0.491
12139SOL    HW138351   5.252   1.616   0.441
12139SOL    HW238352   5.111   1.642   0.519
12140SOL     OW38353   3.866   1.770   1.815
12140SOL    HW138354   3.804   1.707   1.862
12140SOL    HW238355   3.926   1.813   1.882
12141SOL     OW38356   5.014   0.932   0.676
12141SOL    HW138357   5.085   0.873   0.711
12141SOL    HW238358   5.055   1.010   0.627
12142SOL     OW38359   4.495   1.271   1.469
12142SOL    HW138360   4.472   1.316   1.555
12142SOL    HW238361   4.424   1.290   1.401
12143SOL     OW38362   4.419   1.612   0.210
12143SOL    HW138363   4.479   1.568   0.143
12143SOL    HW238364   4.323   1.594   0.186
12144SOL     OW38365   5.291   1.808   1.435
12144SOL    HW138366   5.279   1.766   1.345
12144SOL    HW238367   5.299   1.907   1.425
12145SOL     OW38368   5.522   0.214   0.965
12145SOL    HW138369   5.587   0.152   0.922
12145SOL    HW238370   5.441   0.222   0.907
12146SOL     OW38371   3.947   0.368   0.751
12146SOL    HW138372   3.857   0.403   0.725
12146SOL    HW238373   3.955   0.367   0.851
12147SOL     OW38374   5.007   1.565   0.065
12147SOL    HW138375   4.978   1.477   0.101
12147SOL    HW238376   5.027   1.557   9.968
12148SOL     OW38377   4.482   1.015   1.370
12148SOL    HW138378   4.467   1.036   1.273
12148SOL    HW238379   4.485   1.100   1.423
12149SOL     OW38380   4.702   0.927   0.249
12149SOL    HW138381   4.758   0.937   0.167
12149SOL    HW238382   4.728   0.843   0.297
12150SOL     OW38383   5.235   1.710   0.120
12150SOL    HW138384   5.154   1.658   0.092
12150SOL    HW238385   5.317   1.670   0.078
12151SOL     OW38386   4.056   1.309   1.452
12151SOL    HW138387   4.020   1.392   1.410
12151SOL    HW238388   3.986   1.238   1.450
12152SOL     OW38389   5.345   1.268   1.322
12152SOL    HW138390   5.437   1.305   1.336
12152SOL    HW238391   5.277   1.337   1.345
12153SOL     OW38392   4.832   1.091   0.801
12153SOL    HW138393   4.751   1.039   0.829
12153SOL    HW238394   4.894   1.031   0.750
12154SOL     OW38395   4.685   0.206   0.943
12154SOL    HW138396   4.629   0.153   0.879
12154SOL    HW238397   4.709   0.149   1.021
12155SOL     OW38398   4.382   1.423   0.492
12155SOL    HW138399   4.422   1.402   0.403
12155SOL    HW238400   4.340   1.514   0.489
12156SOL     OW38401   5.585   0.317   1.426
12156SOL    HW138402   5.607   0.411   1.401
12156SOL    HW238403   5.541   0.271   1.349
12157SOL     OW38404   3.938   1.397   0.243
12157SOL    HW138405   3.871   1.337   0.200
12157SOL    HW238406   3.924   1.397   0.342
12158SOL     OW38407   3.862   1.043   1.708
12158SOL    HW138408   3.782   1.020   1.764
12158SOL    HW238409   3.943   1.000   1.746
12159SOL     OW38410   4.509   0.147   1.464
12159SOL    HW138411   4.578   0.169   1.395
12159SOL    HW238412   4.551   0.144   1.555
12160SOL     OW38413   3.842   0.481   9.849
12160SOL    HW138414   3.785   0.410   9.807
12160SOL    HW238415   3.938   0.455   9.843
12161SOL     OW38416   5.156   0.821   1.376
12161SOL    HW138417   5.096   0.884   1.326
12161SOL    HW238418   5.238   0.803   1.322
12162SOL     OW38419   4.924   1.336   0.198
12162SOL    HW138420   4.825   1.322   0.190
12162SOL    HW238421   4.948   1.347   0.295
12163SOL     OW38422   4.357   0.770   1.399
12163SOL    HW138423   4.400   0.859   1.390
12163SOL    HW238424   4.427   0.699   1.401
12164SOL     OW38425   4.427   0.553   1.687
12164SOL    HW138426   4.496   0.615   1.725
12164SOL    HW238427   4.442   0.461   1.724
12165SOL     OW38428   4.103   1.770   1.567
12165SOL    HW138429   4.021   1.826   1.555
12165SOL    HW238430   4.077   1.677   1.591
12166SOL     OW38431   4.943   0.319   0.460
12166SOL    HW138432   5.012   0.247   0.447
12166SOL    HW238433   4.965   0.370   0.543
12167SOL     OW38434   5.470   0.376   1.664
12167SOL    HW138435   5.510   0.354   1.575
12167SOL    HW238436   5.400   0.308   1.687
12168SOL     OW38437   4.572   1.437   0.061
12168SOL    HW138438   4.482   1.404   0.033
12168SOL    HW238439   4.598   1.394   0.148
12169SOL     OW38440   4.615   0.937   0.881
12169SOL    HW138441   4.661   0.849   0.880
12169SOL    HW238442   4.575   0.953   0.971
12170SOL     OW38443   4.875   0.934   0.032
12170SOL    HW138444   4.896   1.000   9.960
12170SOL    HW238445   4.956   0.877   0.049
12171SOL     OW38446   5.541   1.593   0.811
12171SOL    HW138447   5.479   1.547   0.747
12171SOL    HW238448   5.538   1.545   0.899
12172SOL     OW38449   3.860   1.313   1.781
12172SOL    HW138450   3.857   1.219   1.745
12172SOL    HW238451   3.805   1.319   1.865
12173SOL     OW38452   4.396   1.401   1.686
12173SOL    HW138453   4.298   1.383   1.697
12173SOL    HW238454   4.414   1.498   1.696
12174SOL     OW38455   5.448   0.164   1.228
12174SOL    HW138456   5.423   0.067   1.221
12174SOL    HW238457   5.479   0.197   1.139
12175SOL     OW38458   4.105   0.436   0.527
12175SOL    HW138459   4.133   0.354   0.477
12175SOL    HW238460   4.054   0.410   0.609
12176SOL     OW38461   4.585   1.538   0.724
12176SOL    HW138462   4.513   1.606   0.741
12176SOL    HW238463   4.546   1.446   0.728
12177SOL     OW38464   5.129   0.271   1.077
12177SOL    HW138465   5.172   0.196   1.127
12177SOL    HW238466   5.085   0.334   1.141
12178SOL     OW38467   4.697   9.994   1.124
12178SOL    HW138468   4.600   9.984   1.105
12178SOL    HW238469   4.736   9.904   1.145
12179SOL     OW38470   4.647   1.340   0.307
12179SOL    HW138471   4.640   1.247   0.343
12179SOL    HW238472   4.678   1.402   0.380
12180SOL     OW38473   4.329   1.579   1.255
12180SOL    HW138474   4.318   1.670   1.296
12180SOL    HW238475   4.426   1.560   1.242
12181SOL     OW38476   5.121   0.018   0.165
12181SOL    HW138477   5.214   9.989   0.145
12181SOL    HW238478   5.068   9.940   0.199
12182SOL     OW38479   4.986   0.476   0.677
12182SOL    HW138480   4.933   0.561   0.668
12182SOL    HW238481   4.958   0.428   0.759
12183SOL     OW38482   5.280   0.271   0.844
12183SOL    HW138483   5.224   0.281   0.926
12183SOL    HW238484   5.271   0.354   0.788
12184SOL     OW38485   3.804   1.020   0.261
12184SOL    HW138486   3.899   1.022   0.291
12184SOL    HW238487   3.758   0.940   0.301
12185SOL     OW38488   4.642   1.720   0.338
12185SOL    HW138489   4.567   1.679   0.286
12185SOL    HW238490   4.614   1.810   0.371
12186SOL     OW38491   3.927   0.611   2.044
12186SOL    HW138492   3.837   0.578   2.072
12186SOL    HW238493   3.930   0.618   1.944
12187SOL     OW38494   3.888   0.315   2.978
12187SOL    HW138495   3.949   0.262   3.037
12187SOL    HW238496   3.824   0.254   2.932
12188SOL     OW38497   3.710   0.349   2.551
12188SOL    HW138498   3.631   0.397   2.589
12188SOL    HW238499   3.684   0.307   2.464
12189SOL     OW38500   4.332   1.349   3.084
12189SOL    HW138501   4.244   1.338   3.038
12189SOL    HW238502   4.346   1.445   3.106
12190SOL     OW38503   5.332   1.500   2.600
12190SOL    HW138504   5.270   1.456   2.666
12190SOL    HW238505   5.280   1.528   2.519
12191SOL     OW38506   4.810   0.809   2.527
12191SOL    HW138507   4.884   0.876   2.521
12191SOL    HW238508   4.780   0.801   2.622
12192SOL     OW38509   4.491   1.190   2.915
12192SOL    HW138510   4.430   1.229   2.984
12192SOL    HW238511   4.543   1.263   2.871
12193SOL     OW38512   4.636   0.721   3.659
12193SOL    HW138513   4.653   0.788   3.731
12193SOL    HW238514   4.643   0.765   3.570
12194SOL     OW38515   4.404   1.005   2.501
12194SOL    HW138516   4.471   1.012   2.575
12194SOL    HW238517   4.321   1.056   2.526
12195SOL     OW38518   4.443   1.170   3.715
12195SOL    HW138519   4.503   1.239   3.756
12195SOL    HW238520   4.361   1.214   3.680
12196SOL     OW38521   4.091   1.375   2.950
12196SOL    HW138522   4.013   1.319   2.923
12196SOL    HW238523   4.123   1.427   2.871
12197SOL     OW38524   5.191   1.518   3.249
12197SOL    HW138525   5.259   1.587   3.276
12197SOL    HW238526   5.115   1.520   3.313
12198SOL     OW38527   4.191   0.390   3.327
12198SOL    HW138528   4.264   0.338   3.372
12198SOL    HW238529   4.102   0.351   3.353
12199SOL     OW38530   3.982   1.711   2.290
12199SOL    HW138531   3.990   1.774   2.367
12199SOL    HW238532   4.064   1.719   2.233
12200SOL     OW38533   4.847   1.344   3.587
12200SOL    HW138534   4.888   1.333   3.677
12200SOL    HW238535   4.793   1.263   3.564
12201SOL     OW38536   3.974   1.063   2.735
12201SOL    HW138537   3.969   0.966   2.759
12201SOL    HW238538   3.936   1.117   2.810
12202SOL     OW38539   4.272   1.845   3.278
12202SOL    HW138540   4.200   1.816   3.341
12202SOL    HW238541   4.329   1.914   3.323
12203SOL     OW38542   4.275   1.058   2.002
12203SOL    HW138543   4.334   1.100   1.933
12203SOL    HW238544   4.323   1.055   2.090
12204SOL     OW38545   5.272   0.140   3.358
12204SOL    HW138546   5.348   0.199   3.330
12204SOL    HW238547   5.231   0.176   3.442
12205SOL     OW38548   5.603   1.734   2.208
12205SOL    HW138549   5.685   1.722   2.264
12205SOL    HW238550   5.600   1.828   2.174
12206SOL     OW38551   3.730   1.585   1.953
12206SOL    HW138552   3.718   1.488   1.976
12206SOL    HW238553   3.727   1.639   2.037
12207SOL     OW38554   5.443   0.942   2.537
12207SOL    HW138555   5.528   0.890   2.528
12207SOL    HW238556   5.429   0.997   2.455
12208SOL     OW38557   5.404   1.117   2.316
12208SOL    HW138558   5.482   1.109   2.254
12208SOL    HW238559   5.425   1.184   2.387
12209SOL     OW38560   3.963   0.777   3.464
12209SOL    HW138561   4.061   0.764   3.479
12209SOL    HW238562   3.936   0.866   3.500
12210SOL     OW38563   4.271   1.376   2.545
12210SOL    HW138564   4.239   1.282   2.537
12210SOL    HW238565   4.272   1.419   2.455
12211SOL     OW38566   4.949   1.205   3.314
12211SOL    HW138567   4.970   1.136   3.244
12211SOL    HW238568   5.021   1.204   3.384
12212SOL     OW38569   4.535   0.120   2.412
12212SOL    HW138570   4.527   0.218   2.392
12212SOL    HW238571   4.445   0.077   2.406
12213SOL     OW38572   3.919   0.959   3.161
12213SOL    HW138573   4.006   0.909   3.158
12213SOL    HW238574   3.890   0.981   3.068
12214SOL     OW38575   5.264   0.980   2.110
12214SOL    HW138576   5.182   0.927   2.132
12214SOL    HW238577   5.301   1.020   2.194
12215SOL     OW38578   4.915   1.800   3.492
12215SOL    HW138579   4.927   1.869   3.421
12215SOL    HW238580   4.930   1.709   3.454
12216SOL     OW38581   4.082   0.293   3.712
12216SOL    HW138582   4.125   0.358   3.775
12216SOL    HW238583   3.982   0.298   3.722
12217SOL     OW38584   5.158   1.386   2.772
12217SOL    HW138585   5.139   1.433   2.858
12217SOL    HW238586   5.153   1.287   2.787
12218SOL     OW38587   5.361   1.879   2.409
12218SOL    HW138588   5.348   1.818   2.331
12218SOL    HW238589   5.404   1.830   2.484
12219SOL     OW38590   4.404   0.693   2.193
12219SOL    HW138591   4.464   0.764   2.157
12219SOL    HW238592   4.385   0.712   2.290
12220SOL     OW38593   5.028   0.379   2.807
12220SOL    HW138594   4.933   0.349   2.803
12220SOL    HW238595   5.074   0.333   2.884
12221SOL     OW38596   5.327   1.703   2.204
12221SOL    HW138597   5.426   1.693   2.200
12221SOL    HW238598   5.289   1.705   2.112
12222SOL     OW38599   4.500   0.594   3.315
12222SOL    HW138600   4.468   0.555   3.402
12222SOL    HW238601   4.472   0.535   3.240
12223SOL     OW38602   5.051   0.495   3.531
12223SOL    HW138603   5.056   0.543   3.619
12223SOL    HW238604   5.104   0.410   3.536
12224SOL     OW38605   4.672   0.885   3.435
12224SOL    HW138606   4.720   0.819   3.377
12224SOL    HW238607   4.618   0.947   3.377
12225SOL     OW38608   4.716   0.421   3.041
12225SOL    HW138609   4.620   0.437   3.065
12225SOL    HW238610   4.720   0.368   2.956
12226SOL     OW38611   4.793   0.725   2.271
12226SOL    HW138612   4.800   0.750   2.368
12226SOL    HW238613   4.747   0.637   2.262
12227SOL     OW38614   3.692   0.860   2.686
12227SOL    HW138615   3.778   0.822   2.719
12227SOL    HW238616   3.658   0.928   2.750
12228SOL     OW38617   3.818   1.882   3.502
12228SOL    HW138618   3.834   1.833   3.588
12228SOL    HW238619   3.741   1.839   3.454
12229SOL     OW38620   4.564   0.313   2.049
12229SOL    HW138621   4.584   0.348   1.957
12229SOL    HW238622   4.506   0.233   2.042
12230SOL     OW38623   5.358   0.568   3.736
12230SOL    HW138624   5.351   0.655   3.686
12230SOL    HW238625   5.384   0.495   3.673
12231SOL     OW38626   5.119   1.178   2.363
12231SOL    HW138627   5.214   1.184   2.334
12231SOL    HW238628   5.069   1.260   2.333
12232SOL     OW38629   4.263   0.156   2.821
12232SOL    HW138630   4.285   0.173   2.916
12232SOL    HW238631   4.262   0.243   2.771
12233SOL     OW38632   4.698   1.486   2.358
12233SOL    HW138633   4.671   1.558   2.294
12233SOL    HW238634   4.647   1.497   2.444
12234SOL     OW38635   4.081   1.775   2.723
12234SOL    HW138636   4.115   1.681   2.730
12234SOL    HW238637   4.149   1.838   2.759
12235SOL     OW38638   5.544   1.067   2.764
12235SOL    HW138639   5.494   1.043   2.680
12235SOL    HW238640   5.479   1.072   2.840
12236SOL     OW38641   4.947   1.528   3.394
12236SOL    HW138642   4.935   1.465   3.471
12236SOL    HW238643   4.885   1.502   3.319
12237SOL     OW38644   4.011   1.053   2.120
12237SOL    HW138645   4.097   1.060   2.069
12237SOL    HW238646   3.993   0.957   2.142
12238SOL     OW38647   5.202   0.820   2.583
12238SOL    HW138648   5.191   0.760   2.662
12238SOL    HW238649   5.294   0.858   2.583
12239SOL     OW38650   4.209   1.314   3.630
12239SOL    HW138651   4.191   1.327   3.533
12239SOL    HW238652   4.124   1.295   3.678
12240SOL     OW38653   4.869   1.762   2.119
12240SOL    HW138654   4.776   1.732   2.140
12240SOL    HW238655   4.913   1.696   2.059
12241SOL     OW38656   3.959   0.263   3.397
12241SOL    HW138657   3.868   0.297   3.372
12241SOL    HW238658   3.963   0.246   3.495
12242SOL     OW38659   4.220   1.735   2.146
12242SOL    HW138660   4.259   1.801   2.210
12242SOL    HW238661   4.293   1.702   2.085
12243SOL     OW38662   3.999   1.802   3.041
12243SOL    HW138663   4.038   1.718   3.080
12243SOL    HW238664   3.944   1.780   2.961
12244SOL     OW38665   4.673   1.664   2.878
12244SOL    HW138666   4.726   1.704   2.803
12244SOL    HW238667   4.659   1.567   2.861
12245SOL     OW38668   5.166   0.246   3.593
12245SOL    HW138669   5.185   0.250   3.691
12245SOL    HW238670   5.073   0.211   3.578
12246SOL     OW38671   4.374   0.109   2.019
12246SOL    HW138672   4.364   0.015   2.049
12246SOL    HW238673   4.321   0.124   1.936
12247SOL     OW38674   4.492   0.228   3.701
12247SOL    HW138675   4.579   0.181   3.688
12247SOL    HW238676   4.427   0.167   3.746
12248SOL     OW38677   4.625   1.599   3.154
12248SOL    HW138678   4.652   1.631   3.064
12248SOL    HW238679   4.677   1.517   3.178
12249SOL     OW38680   5.009   0.606   3.285
12249SOL    HW138681   5.031   0.575   3.378
12249SOL    HW238682   5.045   0.698   3.271
12250SOL     OW38683   4.623   1.405   2.799
12250SOL    HW138684   4.719   1.385   2.779
12250SOL    HW238685   4.576   1.433   2.715
12251SOL     OW38686   4.653   0.538   2.740
12251SOL    HW138687   4.620   0.537   2.646
12251SOL    HW238688   4.698   0.451   2.760
12252SOL     OW38689   4.271   0.033   2.369
12252SOL    HW138690   4.191   0.011   2.424
12252SOL    HW238691   4.254   0.115   2.315
12253SOL     OW38692   5.162   1.189   1.960
12253SOL    HW138693   5.187   1.109   2.014
12253SOL    HW238694   5.077   1.227   1.994
12254SOL     OW38695   4.007   0.115   2.111
12254SOL    HW138696   4.084   0.166   2.150
12254SOL    HW238697   4.027   0.017   2.113
12255SOL     OW38698   4.747   0.701   3.251
12255SOL    HW138699   4.671   0.640   3.274
12255SOL    HW238700   4.833   0.651   3.256
12256SOL     OW38701   4.155   1.116   2.542
12256SOL    HW138702   4.098   1.110   2.623
12256SOL    HW238703   4.102   1.153   2.466
12257SOL     OW38704   5.031   1.805   2.550
12257SOL    HW138705   5.045   1.872   2.477
12257SOL    HW238706   5.093   1.825   2.626
12258SOL     OW38707   4.721   0.502   1.864
12258SOL    HW138708   4.687   0.586   1.822
12258SOL    HW238709   4.753   0.522   1.957
12259SOL     OW38710   3.852   0.607   3.271
12259SOL    HW138711   3.939   0.594   3.223
12259SOL    HW238712   3.864   0.679   3.340
12260SOL     OW38713   4.313   0.212   3.082
12260SOL    HW138714   4.381   0.174   3.145
12260SOL    HW238715   4.222   0.200   3.121
12261SOL     OW38716   4.548   0.540   2.493
12261SOL    HW138717   4.477   0.610   2.486
12261SOL    HW238718   4.583   0.519   2.402
12262SOL     OW38719   4.658   0.079   2.658
12262SOL    HW138720   4.614   0.092   2.569
12262SOL    HW238721   4.660   9.982   2.681
12263SOL     OW38722   5.134   1.108   2.780
12263SOL    HW138723   5.079   1.034   2.819
12263SOL    HW238724   5.127   1.106   2.680
12264SOL     OW38725   5.145   0.660   2.811
12264SOL    HW138726   5.093   0.575   2.802
12264SOL    HW238727   5.221   0.646   2.875
12265SOL     OW38728   5.537   0.816   2.220
12265SOL    HW138729   5.609   0.768   2.269
12265SOL    HW238730   5.534   0.783   2.125
12266SOL     OW38731   5.485   1.282   2.506
12266SOL    HW138732   5.583   1.280   2.527
12266SOL    HW238733   5.445   1.365   2.545
12267SOL     OW38734   5.141   0.534   1.925
12267SOL    HW138735   5.141   0.466   1.998
12267SOL    HW238736   5.235   0.558   1.901
12268SOL     OW38737   4.231   0.243   2.205
12268SOL    HW138738   4.294   0.210   2.135
12268SOL    HW238739   4.221   0.342   2.197
12269SOL     OW38740   5.417   1.249   3.428
12269SOL    HW138741   5.495   1.186   3.434
12269SOL    HW238742   5.447   1.342   3.450
12270SOL     OW38743   4.755   1.372   3.233
12270SOL    HW138744   4.665   1.342   3.265
12270SOL    HW238745   4.825   1.310   3.270
12271SOL     OW38746   5.318   1.653   3.602
12271SOL    HW138747   5.293   1.704   3.520
12271SOL    HW238748   5.388   1.585   3.580
12272SOL     OW38749   4.902   1.291   3.008
12272SOL    HW138750   4.828   1.320   3.069
12272SOL    HW238751   4.876   1.311   2.913
12273SOL     OW38752   5.346   1.098   2.960
12273SOL    HW138753   5.345   1.171   3.028
12273SOL    HW238754   5.268   1.107   2.898
12274SOL     OW38755   4.526   0.135   3.249
12274SOL    HW138756   4.545   0.037   3.254
12274SOL    HW238757   4.613   0.185   3.244
12275SOL     OW38758   4.688   1.113   3.591
12275SOL    HW138759   4.594   1.131   3.618
12275SOL    HW238760   4.691   1.033   3.531
12276SOL     OW38761   4.444   1.068   2.234
12276SOL    HW138762   4.430   1.047   2.331
12276SOL    HW238763   4.510   1.003   2.195
12277SOL     OW38764   4.163   0.833   3.149
12277SOL    HW138765   4.232   0.844   3.220
12277SOL    HW238766   4.133   0.738   3.146
12278SOL     OW38767   4.966   0.388   3.133
12278SOL    HW138768   4.994   0.468   3.187
12278SOL    HW238769   4.879   0.407   3.088
12279SOL     OW38770   3.827   1.584   3.237
12279SOL    HW138771   3.775   1.641   3.174
12279SOL    HW238772   3.924   1.591   3.215
12280SOL     OW38773   4.002   1.214   2.341
12280SOL    HW138774   3.994   1.308   2.309
12280SOL    HW238775   4.006   1.152   2.263
12281SOL     OW38776   4.239   0.427   2.727
12281SOL    HW138777   4.232   0.447   2.629
12281SOL    HW238778   4.306   0.487   2.769
12282SOL     OW38779   4.969   1.407   2.294
12282SOL    HW138780   5.034   1.473   2.331
12282SOL    HW238781   4.877   1.428   2.327
12283SOL     OW38782   5.076   1.500   3.008
12283SOL    HW138783   5.124   1.512   3.095
12283SOL    HW238784   5.012   1.423   3.015
12284SOL     OW38785   5.307   0.709   2.340
12284SOL    HW138786   5.247   0.764   2.398
12284SOL    HW238787   5.370   0.769   2.291
12285SOL     OW38788   4.087   1.558   3.150
12285SOL    HW138789   4.078   1.487   3.080
12285SOL    HW238790   4.183   1.582   3.162
12286SOL     OW38791   4.228   0.738   3.541
12286SOL    HW138792   4.274   0.787   3.466
12286SOL    HW238793   4.284   0.660   3.569
12287SOL     OW38794   5.327   0.793   3.586
12287SOL    HW138795   5.236   0.833   3.579
12287SOL    HW238796   5.378   0.812   3.503
12288SOL     OW38797   4.726   0.091   3.673
12288SOL    HW138798   4.798   0.151   3.707
12288SOL    HW238799   4.748   0.060   3.580
12289SOL     OW38800   4.171   0.071   3.594
12289SOL    HW138801   4.235   0.102   3.524
12289SOL    HW238802   4.130   0.149   3.641
12290SOL     OW38803   4.378   0.858   2.971
12290SOL    HW138804   4.389   0.952   2.939
12290SOL    HW238805   4.295   0.850   3.026
12291SOL     OW38806   4.992   0.884   2.863
12291SOL    HW138807   4.899   0.862   2.834
12291SOL    HW238808   5.052   0.806   2.848
12292SOL     OW38809   4.043   0.161   3.154
12292SOL    HW138810   4.016   0.193   3.245
12292SOL    HW238811   4.039   0.061   3.151
12293SOL     OW38812   3.845   1.318   3.166
12293SOL    HW138813   3.875   1.263   3.244
12293SOL    HW238814   3.827   1.412   3.197
12294SOL     OW38815   4.410   0.600   2.857
12294SOL    HW138816   4.500   0.588   2.815
12294SOL    HW238817   4.400   0.696   2.886
12295SOL     OW38818   5.469   0.964   3.751
12295SOL    HW138819   5.428   0.895   3.691
12295SOL    HW238820   5.399   0.999   3.813
12296SOL     OW38821   4.001   0.051   2.496
12296SOL    HW138822   3.996   0.151   2.492
12296SOL    HW238823   4.013   0.023   2.592
12297SOL     OW38824   4.733   0.795   2.797
12297SOL    HW138825   4.709   0.816   2.892
12297SOL    HW238826   4.712   0.699   2.778
12298SOL     OW38827   4.712   1.575   3.646
12298SOL    HW138828   4.680   1.634   3.571
12298SOL    HW238829   4.748   1.490   3.609
12299SOL     OW38830   5.509   1.507   3.454
12299SOL    HW138831   5.484   1.578   3.389
12299SOL    HW238832   5.604   1.519   3.482
12300SOL     OW38833   4.132   0.905   3.752
12300SOL    HW138834   4.209   0.939   3.805
12300SOL    HW238835   4.164   0.838   3.685
12301SOL     OW38836   5.345   0.260   1.936
12301SOL    HW138837   5.277   0.276   2.007
12301SOL    HW238838   5.432   0.235   1.978
12302SOL     OW38839   5.000   0.766   1.881
12302SOL    HW138840   5.044   0.678   1.901
12302SOL    HW238841   5.032   0.800   1.793
12303SOL     OW38842   4.878   1.358   2.745
12303SOL    HW138843   4.854   1.282   2.684
12303SOL    HW238844   4.972   1.386   2.726
12304SOL     OW38845   3.956   0.785   2.773
12304SOL    HW138846   4.011   0.788   2.690
12304SOL    HW238847   3.976   0.701   2.823
12305SOL     OW38848   4.035   0.526   2.882
12305SOL    HW138849   3.975   0.450   2.909
12305SOL    HW238850   4.109   0.491   2.824
12306SOL     OW38851   4.792   0.405   3.495
12306SOL    HW138852   4.747   0.422   3.583
12306SOL    HW238853   4.884   0.443   3.496
12307SOL     OW38854   4.799   0.235   3.284
12307SOL    HW138855   4.780   0.290   3.366
12307SOL    HW238856   4.865   0.283   3.226
12308SOL     OW38857   3.695   1.314   1.997
12308SOL    HW138858   3.598   1.338   1.986
12308SOL    HW238859   3.703   1.236   2.059
12309SOL     OW38860   3.827   1.769   2.821
12309SOL    HW138861   3.765   1.705   2.776
12309SOL    HW238862   3.913   1.773   2.772
12310SOL     OW38863   4.203   1.531   2.754
12310SOL    HW138864   4.286   1.585   2.774
12310SOL    HW238865   4.221   1.470   2.677
12311SOL     OW38866   4.648   0.852   3.044
12311SOL    HW138867   4.686   0.798   3.120
12311SOL    HW238868   4.549   0.838   3.039
12312SOL     OW38869   3.693   0.501   3.061
12312SOL    HW138870   3.761   0.443   3.016
12312SOL    HW238871   3.739   0.561   3.126
12313SOL     OW38872   3.949   0.558   3.626
12313SOL    HW138873   4.038   0.519   3.603
12313SOL    HW238874   3.932   0.639   3.568
12314SOL     OW38875   5.096   0.921   3.514
12314SOL    HW138876   5.114   1.020   3.514
12314SOL    HW238877   5.090   0.889   3.419
12315SOL     OW38878   4.610   0.514   2.225
12315SOL    HW138879   4.604   0.432   2.168
12315SOL    HW238880   4.533   0.574   2.205
12316SOL     OW38881   5.335   0.610   3.004
12316SOL    HW138882   5.282   0.551   3.065
12316SOL    HW238883   5.428   0.574   2.995
12317SOL     OW38884   3.970   1.550   3.612
12317SOL    HW138885   3.937   1.619   3.677
12317SOL    HW238886   3.972   1.460   3.657
12318SOL     OW38887   4.444   0.453   3.086
12318SOL    HW138888   4.391   0.368   3.085
12318SOL    HW238889   4.422   0.507   3.005
12319SOL     OW38890   4.604   1.725   3.412
12319SOL    HW138891   4.603   1.664   3.333
12319SOL    HW238892   4.633   1.816   3.384
12320SOL     OW38893   4.194   0.510   2.181
12320SOL    HW138894   4.269   0.576   2.168
12320SOL    HW238895   4.116   0.538   2.125
12321SOL     OW38896   3.947   1.141   3.358
12321SOL    HW138897   3.959   1.097   3.447
12321SOL    HW238898   3.947   1.072   3.286
12322SOL     OW38899   4.984   1.044   3.087
12322SOL    HW138900   4.982   0.980   3.010
12322SOL    HW238901   4.958   1.135   3.055
12323SOL     OW38902   5.027   0.845   2.146
12323SOL    HW138903   4.952   0.807   2.200
12323SOL    HW238904   5.018   0.816   2.051
12324SOL     OW38905   5.472   1.712   3.022
12324SOL    HW138906   5.562   1.747   3.045
12324SOL    HW238907   5.479   1.648   2.945
12325SOL     OW38908   5.025   1.776   2.986
12325SOL    HW138909   5.114   1.817   2.968
12325SOL    HW238910   5.034   1.676   2.987
12326SOL     OW38911   3.853   1.205   2.926
12326SOL    HW138912   3.851   1.248   3.017
12326SOL    HW238913   3.759   1.186   2.897
12327SOL     OW38914   4.418   1.720   3.616
12327SOL    HW138915   4.351   1.794   3.608
12327SOL    HW238916   4.489   1.733   3.546
12328SOL     OW38917   5.601   0.194   2.286
12328SOL    HW138918   5.594   0.196   2.186
12328SOL    HW238919   5.600   0.100   2.318
12329SOL     OW38920   5.156   1.591   2.396
12329SOL    HW138921   5.210   1.630   2.322
12329SOL    HW238922   5.103   1.664   2.441
12330SOL     OW38923   3.860   1.768   3.742
12330SOL    HW138924   3.799   1.712   3.798
12330SOL    HW238925   3.899   1.841   3.798
12331SOL     OW38926   5.009   0.995   2.523
12331SOL    HW138927   5.078   0.926   2.542
12331SOL    HW238928   5.043   1.060   2.455
12332SOL     OW38929   4.499   1.303   3.302
12332SOL    HW138930   4.475   1.355   3.384
12332SOL    HW238931   4.428   1.316   3.232
12333SOL     OW38932   4.407   1.615   1.980
12333SOL    HW138933   4.437   1.643   1.889
12333SOL    HW238934   4.344   1.537   1.972
12334SOL     OW38935   5.392   1.706   3.291
12334SOL    HW138936   5.415   1.706   3.193
12334SOL    HW238937   5.396   1.800   3.325
12335SOL     OW38938   5.611   0.120   2.877
12335SOL    HW138939   5.633   0.031   2.838
12335SOL    HW238940   5.524   0.153   2.840
12336SOL     OW38941   3.976   0.321   2.557
12336SOL    HW138942   3.878   0.337   2.551
12336SOL    HW238943   4.005   0.328   2.653
12337SOL     OW38944   4.979   1.583   1.943
12337SOL    HW138945   4.983   1.490   1.980
12337SOL    HW238946   4.899   1.592   1.884
12338SOL     OW38947   4.539   1.037   3.256
12338SOL    HW138948   4.588   1.028   3.169
12338SOL    HW238949   4.525   1.134   3.276
12339SOL     OW38950   4.609   0.873   2.136
12339SOL    HW138951   4.653   0.895   2.049
12339SOL    HW238952   4.674   0.828   2.197
12340SOL     OW38953   5.219   1.723   1.947
12340SOL    HW138954   5.137   1.666   1.935
12340SOL    HW238955   5.267   1.730   1.860
12341SOL     OW38956   4.134   1.347   3.373
12341SOL    HW138957   4.115   1.421   3.309
12341SOL    HW238958   4.068   1.273   3.358
12342SOL     OW38959   5.354   1.302   3.170
12342SOL    HW138960   5.369   1.265   3.262
12342SOL    HW238961   5.289   1.378   3.176
12343SOL     OW38962   4.797   1.148   2.607
12343SOL    HW138963   4.715   1.095   2.627
12343SOL    HW238964   4.867   1.087   2.570
12344SOL     OW38965   4.771   0.264   2.822
12344SOL    HW138966   4.728   0.209   2.751
12344SOL    HW238967   4.798   0.204   2.898
12345SOL     OW38968   4.313   1.505   2.315
12345SOL    HW138969   4.383   1.453   2.267
12345SOL    HW238970   4.277   1.576   2.254
12346SOL     OW38971   5.505   0.314   3.310
12346SOL    HW138972   5.572   0.385   3.292
12346SOL    HW238973   5.512   0.243   3.240
12347SOL     OW38974   3.937   1.023   3.603
12347SOL    HW138975   3.846   0.995   3.633
12347SOL    HW238976   4.006   0.986   3.664
12348SOL     OW38977   4.365   0.215   3.452
12348SOL    HW138978   4.426   0.185   3.380
12348SOL    HW238979   4.417   0.228   3.537
12349SOL     OW38980   3.772   0.379   1.825
12349SOL    HW138981   3.681   0.375   1.784
12349SOL    HW238982   3.810   0.471   1.814
12350SOL     OW38983   5.105   0.858   3.246
12350SOL    HW138984   5.048   0.923   3.197
12350SOL    HW238985   5.197   0.857   3.207
12351SOL     OW38986   3.785   0.264   2.081
12351SOL    HW138987   3.778   0.303   1.989
12351SOL    HW238988   3.867   0.208   2.087
12352SOL     OW38989   4.929   1.324   2.034
12352SOL    HW138990   4.831   1.319   2.019
12352SOL    HW238991   4.948   1.345   2.130
12353SOL     OW38992   4.368   0.835   3.326
12353SOL    HW138993   4.425   0.914   3.305
12353SOL    HW238994   4.423   0.751   3.319
12354SOL     OW38995   5.271   1.886   2.934
12354SOL    HW138996   5.310   1.939   2.858
12354SOL    HW238997   5.342   1.826   2.972
12355SOL     OW38998   4.432   0.544   3.587
12355SOL    HW138999   4.502   0.605   3.621
12355SOL    HW239000   4.440   0.455   3.633
12356SOL     OW39001   5.158   1.186   3.497
12356SOL    HW139002   5.142   1.209   3.593
12356SOL    HW239003   5.251   1.210   3.472
12357SOL     OW39004   4.076   1.764   3.463
12357SOL    HW139005   3.988   1.809   3.450
12357SOL    HW239006   4.061   1.673   3.504
12358SOL     OW39007   5.345   0.867   3.113
12358SOL    HW139008   5.348   0.782   3.060
12358SOL    HW239009   5.350   0.945   3.050
12359SOL     OW39010   4.360   0.739   2.457
12359SOL    HW139011   4.382   0.835   2.476
12359SOL    HW239012   4.272   0.716   2.498
12360SOL     OW39013   5.419   0.364   3.563
12360SOL    HW139014   5.452   0.350   3.469
12360SOL    HW239015   5.331   0.317   3.575
12361SOL     OW39016   5.450   0.873   3.362
12361SOL    HW139017   5.498   0.959   3.379
12361SOL    HW239018   5.411   0.874   3.270
12362SOL     OW39019   4.659   1.357   1.986
12362SOL    HW139020   4.599   1.368   2.065
12362SOL    HW239021   4.665   1.443   1.936
12363SOL     OW39022   4.420   1.699   2.767
12363SOL    HW139023   4.377   1.789   2.777
12363SOL    HW239024   4.505   1.696   2.820
12364SOL     OW39025   4.575   1.015   2.714
12364SOL    HW139026   4.626   0.936   2.747
12364SOL    HW239027   4.548   1.072   2.792
12365SOL     OW39028   4.761   0.901   1.913
12365SOL    HW139029   4.762   0.982   1.854
12365SOL    HW239030   4.850   0.857   1.910
12366SOL     OW39031   5.534   1.560   2.785
12366SOL    HW139032   5.461   1.546   2.718
12366SOL    HW239033   5.579   1.473   2.803
12367SOL     OW39034   3.944   1.284   3.707
12367SOL    HW139035   3.935   1.196   3.661
12367SOL    HW239036   3.876   1.291   3.780
12368SOL     OW39037   3.810   1.174   2.538
12368SOL    HW139038   3.863   1.128   2.609
12368SOL    HW239039   3.869   1.195   2.460
12369SOL     OW39040   4.426   1.452   3.521
12369SOL    HW139041   4.349   1.405   3.565
12369SOL    HW239042   4.431   1.546   3.554
12370SOL     OW39043   5.502   0.116   3.126
12370SOL    HW139044   5.410   0.079   3.114
12370SOL    HW239045   5.546   0.125   3.036
12371SOL     OW39046   4.176   0.481   2.463
12371SOL    HW139047   4.189   0.488   2.364
12371SOL    HW239048   4.098   0.421   2.482
12372SOL     OW39049   4.092   0.575   3.149
12372SOL    HW139050   4.141   0.505   3.202
12372SOL    HW239051   4.087   0.546   3.053
12373SOL     OW39052   4.510   1.514   2.577
12373SOL    HW139053   4.481   1.595   2.628
12373SOL    HW239054   4.431   1.459   2.552
12374SOL     OW39055   5.161   0.237   3.005
12374SOL    HW139056   5.176   0.142   3.030
12374SOL    HW239057   5.095   0.278   3.067
12375SOL     OW39058   4.826   0.102   3.034
12375SOL    HW139059   4.819   0.002   3.038
12375SOL    HW239060   4.814   0.141   3.125
12376SOL     OW39061   4.508   1.340   2.214
12376SOL    HW139062   4.487   1.242   2.222
12376SOL    HW239063   4.582   1.363   2.276
12377SOL     OW39064   4.354   1.615   3.161
12377SOL    HW139065   4.327   1.702   3.203
12377SOL    HW239066   4.454   1.608   3.159
12378SOL     OW39067   5.005   9.934   1.932
12378SOL    HW139068   5.094   9.913   1.972
12378SOL    HW239069   4.933   9.888   1.984
12379SOL     OW39070   5.364   0.212   2.816
12379SOL    HW139071   5.301   0.224   2.893
12379SOL    HW239072   5.321   0.247   2.732
12380SOL     OW39073   3.728   1.086   2.159
12380SOL    HW139074   3.826   1.088   2.140
12380SOL    HW239075   3.700   0.991   2.175
12381SOL     OW39076   4.608   1.673   2.171
12381SOL    HW139077   4.546   1.638   2.100
12381SOL    HW239078   4.581   1.766   2.196
12382SOL     OW39079   3.922   0.581   3.898
12382SOL    HW139080   3.827   0.563   3.924
12382SOL    HW239081   3.927   0.592   3.799
12383SOL     OW39082   3.856   0.367   4.851
12383SOL    HW139083   3.917   0.311   4.908
12383SOL    HW239084   3.803   0.307   4.791
12384SOL     OW39085   3.742   0.407   4.358
12384SOL    HW139086   3.662   0.433   4.412
12384SOL    HW239087   3.715   0.340   4.288
12385SOL     OW39088   4.296   1.311   4.917
12385SOL    HW139089   4.223   1.308   4.849
12385SOL    HW239090   4.312   1.406   4.945
12386SOL     OW39091   5.266   1.522   4.428
12386SOL    HW139092   5.227   1.486   4.512
12386SOL    HW239093   5.193   1.541   4.362
12387SOL     OW39094   4.838   0.744   4.395
12387SOL    HW139095   4.884   0.826   4.361
12387SOL    HW239096   4.805   0.761   4.488
12388SOL     OW39097   5.528   0.555   3.951
12388SOL    HW139098   5.460   0.562   3.878
12388SOL    HW239099   5.552   0.459   3.965
12389SOL     OW39100   4.451   1.110   4.786
12389SOL    HW139101   4.382   1.146   4.849
12389SOL    HW239102   4.490   1.186   4.733
12390SOL     OW39103   4.606   0.751   5.583
12390SOL    HW139104   4.599   0.809   5.664
12390SOL    HW239105   4.614   0.809   5.502
12391SOL     OW39106   4.400   0.972   4.388
12391SOL    HW139107   4.477   0.974   4.451
12391SOL    HW239108   4.340   1.050   4.407
12392SOL     OW39109   4.395   1.159   5.555
12392SOL    HW139110   4.424   1.242   5.603
12392SOL    HW239111   4.335   1.184   5.479
12393SOL     OW39112   4.095   1.400   4.738
12393SOL    HW139113   4.027   1.344   4.691
12393SOL    HW239114   4.126   1.473   4.678
12394SOL     OW39115   5.124   1.540   5.121
12394SOL    HW139116   5.173   1.627   5.112
12394SOL    HW239117   5.053   1.549   5.191
12395SOL     OW39118   4.159   0.504   5.222
12395SOL    HW139119   4.245   0.454   5.233
12395SOL    HW239120   4.082   0.442   5.235
12396SOL     OW39121   5.330   0.481   4.463
12396SOL    HW139122   5.294   0.502   4.372
12396SOL    HW239123   5.290   0.544   4.530
12397SOL     OW39124   3.942   1.732   4.196
12397SOL    HW139125   3.976   1.758   4.286
12397SOL    HW239126   4.005   1.765   4.125
12398SOL     OW39127   4.821   1.306   5.390
12398SOL    HW139128   4.878   1.268   5.317
12398SOL    HW239129   4.766   1.234   5.431
12399SOL     OW39130   4.040   1.484   4.231
12399SOL    HW139131   3.997   1.574   4.221
12399SOL    HW239132   3.993   1.432   4.303
12400SOL     OW39133   4.082   1.078   4.627
12400SOL    HW139134   4.074   0.978   4.637
12400SOL    HW239135   3.994   1.120   4.646
12401SOL     OW39136   4.281   1.787   5.154
12401SOL    HW139137   4.206   1.759   5.215
12401SOL    HW239138   4.351   1.834   5.208
12402SOL     OW39139   4.347   0.983   3.900
12402SOL    HW139140   4.388   1.038   3.828
12402SOL    HW239141   4.377   1.016   3.989
12403SOL     OW39142   5.285   0.073   5.253
12403SOL    HW139143   5.339   0.138   5.199
12403SOL    HW239144   5.237   0.121   5.326
12404SOL     OW39145   3.843   0.664   4.301
12404SOL    HW139146   3.815   0.570   4.322
12404SOL    HW239147   3.830   0.722   4.381
12405SOL     OW39148   5.644   1.750   4.053
12405SOL    HW139149   5.706   1.718   4.125
12405SOL    HW239150   5.691   1.815   3.994
12406SOL     OW39151   3.708   1.617   3.900
12406SOL    HW139152   3.640   1.544   3.893
12406SOL    HW239153   3.698   1.664   3.987
12407SOL     OW39154   5.395   0.907   4.290
12407SOL    HW139155   5.448   0.847   4.230
12407SOL    HW239156   5.369   0.990   4.240
12408SOL     OW39157   5.381   1.132   4.133
12408SOL    HW139158   5.471   1.107   4.099
12408SOL    HW239159   5.390   1.209   4.197
12409SOL     OW39160   3.900   0.808   5.355
12409SOL    HW139161   3.998   0.800   5.338
12409SOL    HW239162   3.881   0.891   5.406
12410SOL     OW39163   4.361   1.414   4.448
12410SOL    HW139164   4.316   1.325   4.452
12410SOL    HW239165   4.346   1.455   4.357
12411SOL     OW39166   4.969   1.209   5.183
12411SOL    HW139167   4.975   1.144   5.107
12411SOL    HW239168   5.058   1.214   5.229
12412SOL     OW39169   4.553   0.052   4.317
12412SOL    HW139170   4.591   0.137   4.281
12412SOL    HW239171   4.460   0.040   4.282
12413SOL     OW39172   5.254   1.037   3.915
12413SOL    HW139173   5.188   0.969   3.949
12413SOL    HW239174   5.300   1.079   3.993
12414SOL     OW39175   5.014   1.857   5.378
12414SOL    HW139176   4.976   1.913   5.304
12414SOL    HW239177   4.999   1.760   5.358
12415SOL     OW39178   4.073   0.274   5.506
12415SOL    HW139179   4.135   0.335   5.556
12415SOL    HW239180   3.979   0.288   5.538
12416SOL     OW39181   5.177   1.409   4.655
12416SOL    HW139182   5.116   1.431   4.730
12416SOL    HW239183   5.141   1.330   4.604
12417SOL     OW39184   5.485   1.640   4.330
12417SOL    HW139185   5.457   1.667   4.238
12417SOL    HW239186   5.406   1.603   4.379
12418SOL     OW39187   4.293   0.713   3.994
12418SOL    HW139188   4.310   0.806   3.960
12418SOL    HW239189   4.222   0.715   4.064
12419SOL     OW39190   5.006   0.434   4.649
12419SOL    HW139191   4.915   0.393   4.653
12419SOL    HW239192   5.067   0.386   4.713
12420SOL     OW39193   5.363   1.700   4.078
12420SOL    HW139194   5.455   1.732   4.059
12420SOL    HW239195   5.317   1.677   3.993
12421SOL     OW39196   4.479   0.593   5.201
12421SOL    HW139197   4.469   0.597   5.300
12421SOL    HW239198   4.449   0.504   5.167
12422SOL     OW39199   5.110   0.488   5.396
12422SOL    HW139200   5.156   0.548   5.462
12422SOL    HW239201   5.173   0.417   5.366
12423SOL     OW39202   4.647   0.893   5.339
12423SOL    HW139203   4.696   0.819   5.293
12423SOL    HW239204   4.601   0.950   5.270
12424SOL     OW39205   4.707   0.392   4.940
12424SOL    HW139206   4.655   0.330   5.000
12424SOL    HW239207   4.657   0.479   4.931
12425SOL     OW39208   4.756   0.697   4.139
12425SOL    HW139209   4.776   0.704   4.236
12425SOL    HW239210   4.666   0.656   4.126
12426SOL     OW39211   3.806   0.832   4.521
12426SOL    HW139212   3.898   0.819   4.556
12426SOL    HW239213   3.760   0.904   4.572
12427SOL     OW39214   3.816   1.833   5.293
12427SOL    HW139215   3.820   1.833   5.393
12427SOL    HW239216   3.726   1.803   5.263
12428SOL     OW39217   4.580   0.370   3.928
12428SOL    HW139218   4.654   0.417   3.880
12428SOL    HW239219   4.530   0.312   3.864
12429SOL     OW39220   5.335   0.592   5.518
12429SOL    HW139221   5.359   0.683   5.485
12429SOL    HW239222   5.365   0.523   5.451
12430SOL     OW39223   5.100   1.188   4.218
12430SOL    HW139224   5.191   1.187   4.175
12430SOL    HW239225   5.047   1.264   4.180
12431SOL     OW39226   4.224   0.242   4.612
12431SOL    HW139227   4.277   0.254   4.696
12431SOL    HW239228   4.219   0.329   4.564
12432SOL     OW39229   4.701   1.489   4.210
12432SOL    HW139230   4.671   1.563   4.150
12432SOL    HW239231   4.687   1.517   4.305
12433SOL     OW39232   5.508   1.024   4.509
12433SOL    HW139233   5.465   0.980   4.430
12433SOL    HW239234   5.440   1.040   4.580
12434SOL     OW39235   4.928   1.578   5.314
12434SOL    HW139236   4.925   1.490   5.360
12434SOL    HW239237   4.835   1.608   5.291
12435SOL     OW39238   3.994   0.925   4.010
12435SOL    HW139239   4.035   0.931   3.919
12435SOL    HW239240   3.990   0.830   4.039
12436SOL     OW39241   5.170   0.810   4.411
12436SOL    HW139242   5.183   0.755   4.494
12436SOL    HW239243   5.259   0.839   4.376
12437SOL     OW39244   4.219   1.283   5.373
12437SOL    HW139245   4.174   1.280   5.284
12437SOL    HW239246   4.151   1.273   5.446
12438SOL     OW39247   4.857   1.774   3.989
12438SOL    HW139248   4.763   1.757   4.018
12438SOL    HW239249   4.886   1.704   3.924
12439SOL     OW39250   3.979   0.299   5.247
12439SOL    HW139251   3.880   0.293   5.246
12439SOL    HW239252   4.012   0.280   5.340
12440SOL     OW39253   5.319   1.378   3.862
12440SOL    HW139254   5.293   1.475   3.863
12440SOL    HW239255   5.247   1.325   3.817
12441SOL     OW39256   4.148   1.826   4.040
12441SOL    HW139257   4.184   1.884   4.113
12441SOL    HW239258   4.223   1.773   3.999
12442SOL     OW39259   5.112   0.150   4.177
12442SOL    HW139260   5.093   0.092   4.098
12442SOL    HW239261   5.187   0.212   4.154
12443SOL     OW39262   3.922   1.752   4.877
12443SOL    HW139263   3.981   1.680   4.913
12443SOL    HW239264   3.914   1.742   4.777
12444SOL     OW39265   4.610   1.699   4.689
12444SOL    HW139266   4.610   1.626   4.757
12444SOL    HW239267   4.602   1.660   4.598
12445SOL     OW39268   4.099   0.668   4.194
12445SOL    HW139269   4.126   0.572   4.198
12445SOL    HW239270   4.004   0.677   4.224
12446SOL     OW39271   5.163   0.200   5.461
12446SOL    HW139272   5.199   0.215   5.553
12446SOL    HW239273   5.064   0.213   5.462
12447SOL     OW39274   4.320   0.060   3.824
12447SOL    HW139275   4.331   9.974   3.875
12447SOL    HW239276   4.260   0.045   3.746
12448SOL     OW39277   4.424   0.287   5.523
12448SOL    HW139278   4.504   0.231   5.503
12448SOL    HW239279   4.376   0.250   5.603
12449SOL     OW39280   4.576   1.500   4.874
12449SOL    HW139281   4.550   1.434   4.804
12449SOL    HW239282   4.639   1.457   4.939
12450SOL     OW39283   4.993   0.602   5.178
12450SOL    HW139284   5.034   0.566   5.261
12450SOL    HW239285   5.033   0.690   5.155
12451SOL     OW39286   4.531   1.339   4.657
12451SOL    HW139287   4.627   1.346   4.628
12451SOL    HW239288   4.472   1.365   4.581
12452SOL     OW39289   4.632   0.526   4.596
12452SOL    HW139290   4.604   0.517   4.501
12452SOL    HW239291   4.682   0.444   4.624
12453SOL     OW39292   4.310   0.030   4.189
12453SOL    HW139293   4.223   9.999   4.226
12453SOL    HW239294   4.295   0.113   4.136
12454SOL     OW39295   5.118   1.219   3.765
12454SOL    HW139296   5.162   1.145   3.815
12454SOL    HW239297   5.032   1.243   3.810
12455SOL     OW39298   4.004   0.101   4.023
12455SOL    HW139299   4.087   0.155   4.011
12455SOL    HW239300   4.008   0.052   4.110
12456SOL     OW39301   4.654   0.269   4.184
12456SOL    HW139302   4.620   0.294   4.093
12456SOL    HW239303   4.752   0.284   4.188
12457SOL     OW39304   4.734   0.700   5.166
12457SOL    HW139305   4.658   0.638   5.184
12457SOL    HW239306   4.821   0.650   5.174
12458SOL     OW39307   4.908   1.601   4.536
12458SOL    HW139308   4.944   1.658   4.462
12458SOL    HW239309   4.931   1.642   4.624
12459SOL     OW39310   4.225   1.178   4.424
12459SOL    HW139311   4.176   1.144   4.505
12459SOL    HW239312   4.167   1.168   4.343
12460SOL     OW39313   4.992   1.808   4.364
12460SOL    HW139314   5.040   1.878   4.312
12460SOL    HW239315   4.908   1.845   4.401
12461SOL     OW39316   4.764   0.502   3.770
12461SOL    HW139317   4.724   0.585   3.729
12461SOL    HW239318   4.824   0.528   3.846
12462SOL     OW39319   3.790   0.689   5.138
12462SOL    HW139320   3.872   0.677   5.081
12462SOL    HW239321   3.818   0.721   5.229
12463SOL     OW39322   4.568   0.481   4.340
12463SOL    HW139323   4.529   0.537   4.267
12463SOL    HW239324   4.599   0.394   4.302
12464SOL     OW39325   4.652   0.053   4.628
12464SOL    HW139326   4.603   0.066   4.542
12464SOL    HW239327   4.697   9.964   4.628
12465SOL     OW39328   5.078   1.216   4.495
12465SOL    HW139329   4.989   1.171   4.508
12465SOL    HW239330   5.103   1.211   4.398
12466SOL     OW39331   5.186   0.648   4.639
12466SOL    HW139332   5.115   0.578   4.647
12466SOL    HW239333   5.247   0.643   4.718
12467SOL     OW39334   5.552   0.773   4.112
12467SOL    HW139335   5.622   0.745   4.176
12467SOL    HW239336   5.533   0.699   4.048
12468SOL     OW39337   4.227   1.456   3.879
12468SOL    HW139338   4.155   1.409   3.929
12468SOL    HW239339   4.235   1.416   3.787
12469SOL     OW39340   5.409   1.317   4.318
12469SOL    HW139341   5.497   1.308   4.364
12469SOL    HW239342   5.358   1.393   4.358
12470SOL     OW39343   5.086   0.585   3.786
12470SOL    HW139344   5.044   0.560   3.873
12470SOL    HW239345   5.185   0.574   3.792
12471SOL     OW39346   4.242   0.240   4.012
12471SOL    HW139347   4.277   0.179   3.941
12471SOL    HW239348   4.223   0.330   3.973
12472SOL     OW39349   5.470   1.265   5.261
12472SOL    HW139350   5.529   1.185   5.262
12472SOL    HW239351   5.525   1.347   5.276
12473SOL     OW39352   4.723   1.338   5.050
12473SOL    HW139353   4.635   1.318   5.092
12473SOL    HW239354   4.797   1.318   5.114
12474SOL     OW39355   4.871   1.257   4.839
12474SOL    HW139356   4.804   1.284   4.908
12474SOL    HW239357   4.840   1.287   4.749
12475SOL     OW39358   4.588   0.213   5.107
12475SOL    HW139359   4.571   0.130   5.054
12475SOL    HW239360   4.667   0.199   5.166
12476SOL     OW39361   4.664   1.107   5.499
12476SOL    HW139362   4.569   1.128   5.523
12476SOL    HW239363   4.666   1.027   5.439
12477SOL     OW39364   4.463   1.072   4.135
12477SOL    HW139365   4.435   1.034   4.224
12477SOL    HW239366   4.549   1.031   4.107
12478SOL     OW39367   4.087   0.929   5.064
12478SOL    HW139368   4.180   0.931   5.100
12478SOL    HW239369   4.061   0.835   5.043
12479SOL     OW39370   4.968   0.372   5.032
12479SOL    HW139371   4.986   0.458   5.078
12479SOL    HW239372   4.879   0.377   4.986
12480SOL     OW39373   3.801   1.543   5.066
12480SOL    HW139374   3.763   1.629   5.032
12480SOL    HW239375   3.899   1.540   5.048
12481SOL     OW39376   4.046   1.139   4.210
12481SOL    HW139377   4.050   1.209   4.138
12481SOL    HW239378   4.035   1.050   4.168
12482SOL     OW39379   4.226   0.525   4.583
12482SOL    HW139380   4.232   0.592   4.509
12482SOL    HW239381   4.304   0.537   4.645
12483SOL     OW39382   4.950   1.403   4.128
12483SOL    HW139383   5.014   1.476   4.151
12483SOL    HW239384   4.859   1.426   4.163
12484SOL     OW39385   5.030   1.475   4.874
12484SOL    HW139386   5.063   1.493   4.967
12484SOL    HW239387   4.977   1.391   4.874
12485SOL     OW39388   5.205   0.553   4.229
12485SOL    HW139389   5.120   0.540   4.280
12485SOL    HW239390   5.207   0.646   4.191
12486SOL     OW39391   4.061   1.528   4.975
12486SOL    HW139392   4.058   1.475   4.890
12486SOL    HW239393   4.156   1.553   4.995
12487SOL     OW39394   4.169   0.754   5.341
12487SOL    HW139395   4.235   0.803   5.284
12487SOL    HW239396   4.166   0.658   5.314
12488SOL     OW39397   5.387   0.843   5.441
12488SOL    HW139398   5.297   0.882   5.424
12488SOL    HW239399   5.441   0.848   5.357
12489SOL     OW39400   4.190   0.024   5.497
12489SOL    HW139401   4.270   0.017   5.436
12489SOL    HW239402   4.150   0.115   5.488
12490SOL     OW39403   4.412   0.830   4.867
12490SOL    HW139404   4.409   0.921   4.825
12490SOL    HW239405   4.360   0.832   4.953
12491SOL     OW39406   5.003   0.838   4.760
12491SOL    HW139407   4.915   0.815   4.718
12491SOL    HW239408   5.076   0.788   4.714
12492SOL     OW39409   4.916   0.529   3.996
12492SOL    HW139410   4.924   0.450   4.056
12492SOL    HW239411   4.867   0.603   4.044
12493SOL     OW39412   3.826   1.319   4.899
12493SOL    HW139413   3.848   1.237   4.952
12493SOL    HW239414   3.798   1.392   4.961
12494SOL     OW39415   4.428   0.566   4.772
12494SOL    HW139416   4.505   0.557   4.708
12494SOL    HW239417   4.421   0.661   4.802
12495SOL     OW39418   5.593   0.893   5.617
12495SOL    HW139419   5.511   0.873   5.562
12495SOL    HW239420   5.584   0.850   5.707
12496SOL     OW39421   4.027   0.012   4.282
12496SOL    HW139422   4.011   0.104   4.318
12496SOL    HW239423   4.044   9.950   4.358
12497SOL     OW39424   5.298   0.332   4.098
12497SOL    HW139425   5.387   0.306   4.135
12497SOL    HW239426   5.269   0.418   4.139
12498SOL     OW39427   4.747   0.762   4.659
12498SOL    HW139428   4.731   0.777   4.756
12498SOL    HW239429   4.709   0.674   4.631
12499SOL     OW39430   4.688   1.504   5.523
12499SOL    HW139431   4.662   1.572   5.454
12499SOL    HW239432   4.732   1.427   5.477
12500SOL     OW39433   5.656   1.472   5.273
12500SOL    HW139434   5.634   1.560   5.232
12500SOL    HW239435   5.729   1.483   5.340
12501SOL     OW39436   4.105   0.859   5.595
12501SOL    HW139437   4.177   0.900   5.651
12501SOL    HW239438   4.145   0.827   5.509
12502SOL     OW39439   5.171   0.250   3.864
12502SOL    HW139440   5.142   0.158   3.891
12502SOL    HW239441   5.225   0.291   3.937
12503SOL     OW39442   4.986   0.833   3.747
12503SOL    HW139443   5.022   0.740   3.757
12503SOL    HW239444   5.020   0.872   3.661
12504SOL     OW39445   4.791   1.359   4.596
12504SOL    HW139446   4.812   1.284   4.533
12504SOL    HW239447   4.838   1.443   4.565
12505SOL     OW39448   4.055   0.805   4.623
12505SOL    HW139449   4.124   0.784   4.553
12505SOL    HW239450   4.045   0.726   4.684
12506SOL     OW39451   4.027   0.568   4.766
12506SOL    HW139452   3.958   0.498   4.782
12506SOL    HW239453   4.091   0.535   4.697
12507SOL     OW39454   4.900   0.346   5.489
12507SOL    HW139455   4.837   0.403   5.540
12507SOL    HW239456   4.978   0.401   5.458
12508SOL     OW39457   4.837   0.224   5.238
12508SOL    HW139458   4.844   0.264   5.330
12508SOL    HW239459   4.894   0.277   5.175
12509SOL     OW39460   3.756   1.278   3.913
12509SOL    HW139461   3.673   1.330   3.896
12509SOL    HW239462   3.732   1.190   3.955
12510SOL     OW39463   3.884   1.722   4.617
12510SOL    HW139464   3.799   1.684   4.580
12510SOL    HW239465   3.945   1.746   4.542
12511SOL     OW39466   4.214   1.601   4.590
12511SOL    HW139467   4.268   1.670   4.639
12511SOL    HW239468   4.276   1.538   4.543
12512SOL     OW39469   4.677   0.788   4.914
12512SOL    HW139470   4.704   0.765   5.007
12512SOL    HW239471   4.578   0.801   4.910
12513SOL     OW39472   3.664   0.479   5.013
12513SOL    HW139473   3.730   0.449   4.944
12513SOL    HW239474   3.702   0.559   5.061
12514SOL     OW39475   3.942   0.599   5.527
12514SOL    HW139476   4.038   0.617   5.549
12514SOL    HW239477   3.909   0.670   5.465
12515SOL     OW39478   5.142   0.940   5.376
12515SOL    HW139479   5.158   1.038   5.363
12515SOL    HW239480   5.119   0.899   5.288
12516SOL     OW39481   4.514   0.585   4.089
12516SOL    HW139482   4.528   0.503   4.032
12516SOL    HW239483   4.434   0.635   4.055
12517SOL     OW39484   5.349   0.621   4.855
12517SOL    HW139485   5.303   0.577   4.932
12517SOL    HW239486   5.434   0.572   4.834
12518SOL     OW39487   3.936   1.503   5.469
12518SOL    HW139488   3.879   1.532   5.546
12518SOL    HW239489   3.973   1.412   5.487
12519SOL     OW39490   4.663   1.640   5.272
12519SOL    HW139491   4.578   1.591   5.254
12519SOL    HW239492   4.669   1.720   5.212
12520SOL     OW39493   4.172   0.479   3.899
12520SOL    HW139494   4.234   0.555   3.919
12520SOL    HW239495   4.078   0.509   3.912
12521SOL     OW39496   4.976   1.031   4.953
12521SOL    HW139497   4.989   0.959   4.886
12521SOL    HW239498   4.944   1.114   4.907
12522SOL     OW39499   5.060   0.874   4.012
12522SOL    HW139500   4.989   0.886   4.081
12522SOL    HW239501   5.018   0.860   3.922
12523SOL     OW39502   5.470   1.738   4.729
12523SOL    HW139503   5.563   1.726   4.696
12523SOL    HW239504   5.435   1.651   4.763
12524SOL     OW39505   4.985   1.722   4.773
12524SOL    HW139506   5.073   1.768   4.757
12524SOL    HW239507   5.001   1.634   4.817
12525SOL     OW39508   3.848   1.218   4.651
12525SOL    HW139509   3.835   1.264   4.739
12525SOL    HW239510   3.774   1.152   4.636
12526SOL     OW39511   4.403   1.722   5.469
12526SOL    HW139512   4.317   1.770   5.486
12526SOL    HW239513   4.459   1.776   5.405
12527SOL     OW39514   5.543   0.257   4.202
12527SOL    HW139515   5.582   0.261   4.110
12527SOL    HW239516   5.577   0.175   4.248
12528SOL     OW39517   5.116   1.608   4.212
12528SOL    HW139518   5.197   1.643   4.165
12528SOL    HW239519   5.066   1.683   4.253
12529SOL     OW39520   3.831   1.815   5.558
12529SOL    HW139521   3.793   1.728   5.587
12529SOL    HW239522   3.867   1.864   5.637
12530SOL     OW39523   4.977   0.960   4.303
12530SOL    HW139524   5.051   0.905   4.342
12530SOL    HW239525   5.016   1.042   4.261
12531SOL     OW39526   4.470   1.288   5.135
12531SOL    HW139527   4.448   1.356   5.206
12531SOL    HW239528   4.399   1.289   5.065
12532SOL     OW39529   4.380   1.683   3.889
12532SOL    HW139530   4.405   1.694   3.793
12532SOL    HW239531   4.325   1.601   3.901
12533SOL     OW39532   5.532   0.140   4.592
12533SOL    HW139533   5.568   0.097   4.509
12533SOL    HW239534   5.437   0.169   4.576
12534SOL     OW39535   3.973   0.259   4.386
12534SOL    HW139536   3.893   0.319   4.381
12534SOL    HW239537   3.976   0.213   4.474
12535SOL     OW39538   4.940   1.587   3.808
12535SOL    HW139539   4.931   1.491   3.835
12535SOL    HW239540   4.871   1.610   3.740
12536SOL     OW39541   4.544   1.028   5.125
12536SOL    HW139542   4.607   1.022   5.048
12536SOL    HW239543   4.514   1.123   5.136
12537SOL     OW39544   4.686   0.948   4.057
12537SOL    HW139545   4.704   0.953   3.959
12537SOL    HW239546   4.715   0.859   4.092
12538SOL     OW39547   5.208   1.650   3.848
12538SOL    HW139548   5.112   1.626   3.834
12538SOL    HW239549   5.254   1.657   3.760
12539SOL     OW39550   4.065   1.288   5.148
12539SOL    HW139551   4.063   1.367   5.088
12539SOL    HW239552   4.002   1.218   5.114
12540SOL     OW39553   5.313   1.342   5.043
12540SOL    HW139554   5.367   1.313   5.122
12540SOL    HW239555   5.239   1.402   5.072
12541SOL     OW39556   4.818   1.116   4.470
12541SOL    HW139557   4.735   1.073   4.504
12541SOL    HW239558   4.859   1.059   4.398
12542SOL     OW39559   4.764   0.305   4.688
12542SOL    HW139560   4.730   0.214   4.666
12542SOL    HW239561   4.745   0.325   4.784
12543SOL     OW39562   4.317   1.516   4.207
12543SOL    HW139563   4.362   1.461   4.136
12543SOL    HW239564   4.218   1.506   4.198
12544SOL     OW39565   5.425   0.259   5.102
12544SOL    HW139566   5.503   0.323   5.096
12544SOL    HW239567   5.411   0.215   5.013
12545SOL     OW39568   4.016   1.333   4.013
12545SOL    HW139569   3.922   1.324   3.978
12545SOL    HW239570   4.017   1.398   4.089
12546SOL     OW39571   3.882   1.014   5.537
12546SOL    HW139572   3.793   1.001   5.581
12546SOL    HW239573   3.950   0.955   5.581
12547SOL     OW39574   4.378   0.334   5.243
12547SOL    HW139575   4.444   0.279   5.193
12547SOL    HW239576   4.385   0.313   5.341
12548SOL     OW39577   3.815   0.333   3.699
12548SOL    HW139578   3.728   0.317   3.653
12548SOL    HW239579   3.846   0.426   3.680
12549SOL     OW39580   5.105   0.849   5.120
12549SOL    HW139581   5.046   0.910   5.067
12549SOL    HW239582   5.198   0.851   5.082
12550SOL     OW39583   3.772   0.215   3.945
12550SOL    HW139584   3.782   0.263   3.858
12550SOL    HW239585   3.858   0.167   3.967
12551SOL     OW39586   4.885   1.324   3.872
12551SOL    HW139587   4.786   1.317   3.861
12551SOL    HW239588   4.907   1.339   3.968
12552SOL     OW39589   4.352   0.836   5.145
12552SOL    HW139590   4.420   0.910   5.146
12552SOL    HW239591   4.397   0.749   5.162
12553SOL     OW39592   5.218   1.845   4.697
12553SOL    HW139593   5.204   1.842   4.598
12553SOL    HW239594   5.306   1.803   4.720
12554SOL     OW39595   4.445   0.563   5.463
12554SOL    HW139596   4.497   0.621   5.525
12554SOL    HW239597   4.441   0.470   5.500
12555SOL     OW39598   5.202   1.205   5.347
12555SOL    HW139599   5.189   1.218   5.445
12555SOL    HW239600   5.296   1.229   5.323
12556SOL     OW39601   4.064   1.715   5.329
12556SOL    HW139602   3.980   1.760   5.299
12556SOL    HW239603   4.040   1.630   5.376
12557SOL     OW39604   5.351   0.869   4.999
12557SOL    HW139605   5.359   0.797   4.929
12557SOL    HW239606   5.361   0.958   4.955
12558SOL     OW39607   4.917   0.336   4.192
12558SOL    HW139608   4.982   0.259   4.192
12558SOL    HW239609   4.938   0.397   4.268
12559SOL     OW39610   4.233   0.750   4.420
12559SOL    HW139611   4.299   0.824   4.405
12559SOL    HW239612   4.191   0.726   4.333
12560SOL     OW39613   5.369   0.374   5.351
12560SOL    HW139614   5.395   0.338   5.261
12560SOL    HW239615   5.354   0.297   5.414
12561SOL     OW39616   5.526   0.851   5.210
12561SOL    HW139617   5.583   0.933   5.218
12561SOL    HW239618   5.467   0.860   5.130
12562SOL     OW39619   4.610   1.361   3.828
12562SOL    HW139620   4.561   1.370   3.915
12562SOL    HW239621   4.615   1.450   3.783
12563SOL     OW39622   4.362   1.811   4.706
12563SOL    HW139623   4.338   1.863   4.787
12563SOL    HW239624   4.455   1.777   4.714
12564SOL     OW39625   4.599   0.984   4.581
12564SOL    HW139626   4.651   0.903   4.609
12564SOL    HW239627   4.549   1.021   4.659
12565SOL     OW39628   4.745   0.938   3.795
12565SOL    HW139629   4.727   1.014   3.732
12565SOL    HW239630   4.836   0.901   3.777
12566SOL     OW39631   5.683   1.525   4.473
12566SOL    HW139632   5.613   1.571   4.419
12566SOL    HW239633   5.658   1.428   4.484
12567SOL     OW39634   4.022   1.253   5.555
12567SOL    HW139635   3.966   1.172   5.541
12567SOL    HW239636   4.015   1.283   5.650
12568SOL     OW39637   3.906   1.310   4.396
12568SOL    HW139638   3.887   1.277   4.488
12568SOL    HW239639   3.945   1.236   4.341
12569SOL     OW39640   4.409   1.480   5.326
12569SOL    HW139641   4.338   1.414   5.351
12569SOL    HW239642   4.402   1.561   5.384
12570SOL     OW39643   5.385   0.139   4.857
12570SOL    HW139644   5.355   0.044   4.868
12570SOL    HW239645   5.448   0.145   4.780
12571SOL     OW39646   4.149   0.404   4.227
12571SOL    HW139647   4.192   0.341   4.163
12571SOL    HW239648   4.090   0.354   4.289
12572SOL     OW39649   5.378   1.498   4.816
12572SOL    HW139650   5.314   1.465   4.746
12572SOL    HW239651   5.364   1.446   4.900
12573SOL     OW39652   4.035   0.664   5.022
12573SOL    HW139653   4.090   0.605   5.082
12573SOL    HW239654   4.040   0.629   4.928
12574SOL     OW39655   4.563   1.617   4.434
12574SOL    HW139656   4.543   1.693   4.372
12574SOL    HW239657   4.491   1.548   4.425
12575SOL     OW39658   5.160   0.300   4.826
12575SOL    HW139659   5.241   0.246   4.851
12575SOL    HW239660   5.102   0.312   4.907
12576SOL     OW39661   4.542   0.000   4.922
12576SOL    HW139662   4.542   0.048   4.834
12576SOL    HW239663   4.608   9.925   4.919
12577SOL     OW39664   4.500   1.343   4.079
12577SOL    HW139665   4.482   1.246   4.099
12577SOL    HW239666   4.575   1.375   4.136
12578SOL     OW39667   4.334   1.571   4.993
12578SOL    HW139668   4.327   1.650   5.054
12578SOL    HW239669   4.426   1.566   4.955
12579SOL     OW39670   5.089   0.006   3.947
12579SOL    HW139671   5.174   9.955   3.937
12579SOL    HW239672   5.012   9.943   3.949
12580SOL     OW39673   4.985   0.514   4.386
12580SOL    HW139674   4.929   0.597   4.388
12580SOL    HW239675   4.996   0.479   4.479
12581SOL     OW39676   5.271   0.226   4.565
12581SOL    HW139677   5.224   0.246   4.651
12581SOL    HW239678   5.290   0.312   4.517
12582SOL     OW39679   3.725   1.007   4.033
12582SOL    HW139680   3.824   1.005   4.019
12582SOL    HW239681   3.694   0.914   4.055
12583SOL     OW39682   4.598   1.701   4.068
12583SOL    HW139683   4.519   1.689   4.007
12583SOL    HW239684   4.572   1.763   4.143
12584SOL     OW39685   3.892   0.585   5.795
12584SOL    HW139686   3.796   0.568   5.818
12584SOL    HW239687   3.900   0.605   5.697
12585SOL     OW39688   3.913   0.302   6.649
12585SOL    HW139689   3.972   0.256   6.715
12585SOL    HW239690   3.835   0.242   6.628
12586SOL     OW39691   3.727   0.429   6.221
12586SOL    HW139692   3.648   0.455   6.276
12586SOL    HW239693   3.702   0.357   6.157
12587SOL     OW39694   4.327   1.268   6.900
12587SOL    HW139695   4.249   1.245   6.959
12587SOL    HW239696   4.329   1.367   6.886
12588SOL     OW39697   5.295   1.516   6.307
12588SOL    HW139698   5.245   1.487   6.389
12588SOL    HW239699   5.230   1.542   6.236
12589SOL     OW39700   4.857   0.728   6.260
12589SOL    HW139701   4.914   0.810   6.247
12589SOL    HW239702   4.813   0.732   6.349
12590SOL     OW39703   5.457   0.609   5.757
12590SOL    HW139704   5.409   0.603   5.670
12590SOL    HW239705   5.430   0.532   5.815
12591SOL     OW39706   4.450   1.124   6.696
12591SOL    HW139707   4.399   1.162   6.772
12591SOL    HW239708   4.480   1.197   6.636
12592SOL     OW39709   4.611   0.706   7.443
12592SOL    HW139710   4.603   0.764   7.524
12592SOL    HW239711   4.616   0.764   7.361
12593SOL     OW39712   4.431   0.986   6.242
12593SOL    HW139713   4.500   0.985   6.315
12593SOL    HW239714   4.358   1.050   6.267
12594SOL     OW39715   4.382   1.169   7.490
12594SOL    HW139716   4.407   1.230   7.564
12594SOL    HW239717   4.319   1.216   7.427
12595SOL     OW39718   4.019   1.547   6.669
12595SOL    HW139719   3.958   1.472   6.642
12595SOL    HW239720   4.092   1.557   6.600
12596SOL     OW39721   5.245   1.483   6.962
12596SOL    HW139722   5.280   1.572   6.991
12596SOL    HW239723   5.243   1.421   7.040
12597SOL     OW39724   4.194   0.332   7.052
12597SOL    HW139725   4.275   0.277   7.070
12597SOL    HW239726   4.164   0.375   7.137
12598SOL     OW39727   5.310   0.481   6.283
12598SOL    HW139728   5.255   0.489   6.201
12598SOL    HW239729   5.274   0.541   6.354
12599SOL     OW39730   3.934   1.727   6.026
12599SOL    HW139731   3.948   1.794   6.099
12599SOL    HW239732   4.010   1.732   5.961
12600SOL     OW39733   4.814   1.267   7.271
12600SOL    HW139734   4.868   1.267   7.355
12600SOL    HW239735   4.732   1.210   7.285
12601SOL     OW39736   3.902   1.449   6.052
12601SOL    HW139737   3.916   1.548   6.053
12601SOL    HW239738   3.805   1.429   6.067
12602SOL     OW39739   4.226   1.786   7.006
12602SOL    HW139740   4.158   1.761   7.075
12602SOL    HW239741   4.281   1.863   7.039
12603SOL     OW39742   4.292   0.988   5.759
12603SOL    HW139743   4.326   1.041   5.682
12603SOL    HW239744   4.342   1.014   5.842
12604SOL     OW39745   5.257   0.117   7.037
12604SOL    HW139746   5.305   0.142   6.953
12604SOL    HW239747   5.264   0.191   7.103
12605SOL     OW39748   3.848   0.669   6.151
12605SOL    HW139749   3.813   0.579   6.174
12605SOL    HW239750   3.849   0.727   6.234
12606SOL     OW39751   5.581   1.725   5.921
12606SOL    HW139752   5.659   1.697   5.978
12606SOL    HW239753   5.597   1.819   5.888
12607SOL     OW39754   3.743   1.570   5.651
12607SOL    HW139755   3.672   1.499   5.644
12607SOL    HW239756   3.731   1.621   5.737
12608SOL     OW39757   5.455   0.935   6.227
12608SOL    HW139758   5.529   0.878   6.192
12608SOL    HW239759   5.424   0.997   6.155
12609SOL     OW39760   5.384   1.109   6.012
12609SOL    HW139761   5.467   1.094   5.958
12609SOL    HW239762   5.396   1.190   6.070
12610SOL     OW39763   3.801   0.757   7.117
12610SOL    HW139764   3.857   0.797   7.190
12610SOL    HW239765   3.729   0.821   7.091
12611SOL     OW39766   4.336   1.392   6.313
12611SOL    HW139767   4.298   1.300   6.325
12611SOL    HW239768   4.326   1.420   6.218
12612SOL     OW39769   5.025   1.240   6.996
12612SOL    HW139770   5.030   1.167   6.928
12612SOL    HW239771   5.089   1.221   7.070
12613SOL     OW39772   4.541   0.024   6.087
12613SOL    HW139773   4.595   0.106   6.068
12613SOL    HW239774   4.445   0.050   6.102
12614SOL     OW39775   3.950   0.936   6.905
12614SOL    HW139776   4.039   0.894   6.886
12614SOL    HW239777   3.878   0.868   6.893
12615SOL     OW39778   5.189   1.023   5.826
12615SOL    HW139779   5.108   1.000   5.880
12615SOL    HW239780   5.265   1.045   5.888
12616SOL     OW39781   5.179   1.428   6.537
12616SOL    HW139782   5.115   1.455   6.608
12616SOL    HW239783   5.143   1.350   6.486
12617SOL     OW39784   5.362   1.879   6.130
12617SOL    HW139785   5.346   1.809   6.060
12617SOL    HW239786   5.387   1.835   6.217
12618SOL     OW39787   4.295   0.710   5.861
12618SOL    HW139788   4.302   0.801   5.819
12618SOL    HW239789   4.229   0.714   5.937
12619SOL     OW39790   5.005   0.412   6.500
12619SOL    HW139791   4.919   0.361   6.503
12619SOL    HW239792   5.070   0.371   6.564
12620SOL     OW39793   5.310   1.689   5.938
12620SOL    HW139794   5.410   1.686   5.930
12620SOL    HW239795   5.268   1.667   5.850
12621SOL     OW39796   4.525   0.579   7.043
12621SOL    HW139797   4.516   0.524   7.126
12621SOL    HW239798   4.497   0.524   6.964
12622SOL     OW39799   5.080   0.506   7.255
12622SOL    HW139800   5.085   0.555   7.342
12622SOL    HW239801   5.129   0.419   7.263
12623SOL     OW39802   4.641   0.865   7.215
12623SOL    HW139803   4.707   0.808   7.166
12623SOL    HW239804   4.588   0.920   7.150
12624SOL     OW39805   4.731   0.416   6.747
12624SOL    HW139806   4.639   0.441   6.775
12624SOL    HW239807   4.727   0.361   6.664
12625SOL     OW39808   4.743   0.756   6.011
12625SOL    HW139809   4.780   0.739   6.103
12625SOL    HW239810   4.672   0.688   5.991
12626SOL     OW39811   3.848   0.822   6.370
12626SOL    HW139812   3.925   0.815   6.432
12626SOL    HW239813   3.785   0.893   6.402
12627SOL     OW39814   3.799   1.897   7.169
12627SOL    HW139815   3.808   1.876   7.267
12627SOL    HW239816   3.703   1.905   7.145
12628SOL     OW39817   4.643   0.372   5.803
12628SOL    HW139818   4.688   0.443   5.747
12628SOL    HW239819   4.668   0.282   5.768
12629SOL     OW39820   5.373   0.586   7.448
12629SOL    HW139821   5.365   0.669   7.393
12629SOL    HW239822   5.401   0.510   7.390
12630SOL     OW39823   5.117   1.174   6.119
12630SOL    HW139824   5.204   1.168   6.072
12630SOL    HW239825   5.062   1.247   6.079
12631SOL     OW39826   4.334   0.165   6.500
12631SOL    HW139827   4.343   0.184   6.597
12631SOL    HW239828   4.319   0.251   6.450
12632SOL     OW39829   4.709   1.475   6.076
12632SOL    HW139830   4.688   1.551   6.014
12632SOL    HW239831   4.670   1.495   6.166
12633SOL     OW39832   4.068   1.819   6.462
12633SOL    HW139833   4.113   1.730   6.463
12633SOL    HW239834   4.131   1.889   6.495
12634SOL     OW39835   5.593   1.051   6.450
12634SOL    HW139836   5.521   1.019   6.388
12634SOL    HW239837   5.555   1.062   6.542
12635SOL     OW39838   4.961   1.476   7.192
12635SOL    HW139839   4.900   1.399   7.212
12635SOL    HW239840   4.997   1.467   7.099
12636SOL     OW39841   4.026   0.988   5.938
12636SOL    HW139842   4.091   1.000   5.863
12636SOL    HW239843   4.042   0.899   5.981
12637SOL     OW39844   5.230   0.775   6.248
12637SOL    HW139845   5.215   0.735   6.338
12637SOL    HW239846   5.312   0.832   6.250
12638SOL     OW39847   4.193   1.306   7.339
12638SOL    HW139848   4.184   1.295   7.241
12638SOL    HW239849   4.107   1.280   7.384
12639SOL     OW39850   4.861   1.760   5.825
12639SOL    HW139851   4.773   1.745   5.870
12639SOL    HW239852   4.883   1.681   5.768
12640SOL     OW39853   5.319   1.399   5.724
12640SOL    HW139854   5.274   1.488   5.719
12640SOL    HW239855   5.261   1.329   5.680
12641SOL     OW39856   4.159   1.779   5.878
12641SOL    HW139857   4.211   1.823   5.952
12641SOL    HW239858   4.221   1.721   5.825
12642SOL     OW39859   5.135   0.107   5.914
12642SOL    HW139860   5.056   0.048   5.897
12642SOL    HW239861   5.205   0.054   5.961
12643SOL     OW39862   4.024   1.782   6.811
12643SOL    HW139863   4.100   1.772   6.875
12643SOL    HW239864   4.019   1.701   6.752
12644SOL     OW39865   4.656   1.714   6.468
12644SOL    HW139866   4.747   1.673   6.472
12644SOL    HW239867   4.600   1.664   6.402
12645SOL     OW39868   4.111   0.694   6.068
12645SOL    HW139869   4.149   0.605   6.091
12645SOL    HW239870   4.012   0.693   6.084
12646SOL     OW39871   5.198   0.256   7.304
12646SOL    HW139872   5.196   0.258   7.404
12646SOL    HW239873   5.131   0.190   7.271
12647SOL     OW39874   4.321   0.095   5.728
12647SOL    HW139875   4.364   0.019   5.776
12647SOL    HW239876   4.268   0.059   5.651
12648SOL     OW39877   4.509   0.223   7.421
12648SOL    HW139878   4.591   0.167   7.411
12648SOL    HW239879   4.434   0.166   7.454
12649SOL     OW39880   4.571   1.474   6.794
12649SOL    HW139881   4.555   1.430   6.705
12649SOL    HW239882   4.643   1.424   6.842
12650SOL     OW39883   5.029   0.615   7.006
12650SOL    HW139884   5.055   0.585   7.098
12650SOL    HW239885   5.062   0.708   6.990
12651SOL     OW39886   4.525   1.343   6.546
12651SOL    HW139887   4.617   1.355   6.510
12651SOL    HW239888   4.459   1.362   6.473
12652SOL     OW39889   4.654   0.504   6.443
12652SOL    HW139890   4.624   0.498   6.347
12652SOL    HW239891   4.690   0.415   6.471
12653SOL     OW39892   4.284   0.099   6.108
12653SOL    HW139893   4.200   0.069   6.152
12653SOL    HW239894   4.263   0.167   6.037
12654SOL     OW39895   5.154   1.208   5.622
12654SOL    HW139896   5.184   1.136   5.683
12654SOL    HW239897   5.069   1.249   5.657
12655SOL     OW39898   3.989   0.129   5.925
12655SOL    HW139899   4.074   0.181   5.911
12655SOL    HW239900   3.989   0.090   6.017
12656SOL     OW39901   4.687   0.252   6.045
12656SOL    HW139902   4.667   0.300   5.959
12656SOL    HW239903   4.786   0.252   6.060
12657SOL     OW39904   4.760   0.713   7.015
12657SOL    HW139905   4.684   0.649   7.027
12657SOL    HW239906   4.846   0.662   7.011
12658SOL     OW39907   4.910   1.624   6.429
12658SOL    HW139908   4.941   1.675   6.350
12658SOL    HW239909   4.951   1.662   6.512
12659SOL     OW39910   4.220   1.146   6.308
12659SOL    HW139911   4.178   1.106   6.389
12659SOL    HW239912   4.149   1.162   6.239
12660SOL     OW39913   4.963   1.809   6.221
12660SOL    HW139914   5.016   1.873   6.166
12660SOL    HW239915   4.878   1.853   6.251
12661SOL     OW39916   4.774   0.543   5.640
12661SOL    HW139917   4.713   0.618   5.614
12661SOL    HW239918   4.858   0.580   5.679
12662SOL     OW39919   3.828   0.529   6.973
12662SOL    HW139920   3.924   0.527   6.945
12662SOL    HW239921   3.812   0.609   7.031
12663SOL     OW39922   4.345   0.220   6.764
12663SOL    HW139923   4.409   0.181   6.830
12663SOL    HW239924   4.251   0.202   6.793
12664SOL     OW39925   4.582   0.465   6.188
12664SOL    HW139926   4.550   0.522   6.113
12664SOL    HW239927   4.616   0.378   6.152
12665SOL     OW39928   4.702   0.042   6.340
12665SOL    HW139929   4.628   0.044   6.272
12665SOL    HW239930   4.697   9.956   6.391
12666SOL     OW39931   5.084   1.230   6.388
12666SOL    HW139932   4.998   1.182   6.405
12666SOL    HW239933   5.113   1.213   6.294
12667SOL     OW39934   5.182   0.635   6.484
12667SOL    HW139935   5.111   0.565   6.493
12667SOL    HW239936   5.236   0.638   6.568
12668SOL     OW39937   5.587   0.801   5.887
12668SOL    HW139938   5.630   0.765   5.970
12668SOL    HW239939   5.535   0.728   5.843
12669SOL     OW39940   4.237   1.479   5.788
12669SOL    HW139941   4.145   1.438   5.783
12669SOL    HW239942   4.301   1.422   5.736
12670SOL     OW39943   5.427   1.310   6.178
12670SOL    HW139944   5.521   1.299   6.210
12670SOL    HW239945   5.385   1.388   6.224
12671SOL     OW39946   4.223   0.275   5.904
12671SOL    HW139947   4.268   0.211   5.841
12671SOL    HW239948   4.196   0.357   5.854
12672SOL     OW39949   5.505   1.198   7.181
12672SOL    HW139950   5.562   1.159   7.253
12672SOL    HW239951   5.531   1.293   7.165
12673SOL     OW39952   4.756   1.315   6.939
12673SOL    HW139953   4.683   1.299   7.005
12673SOL    HW239954   4.844   1.290   6.980
12674SOL     OW39955   5.391   1.617   7.271
12674SOL    HW139956   5.372   1.663   7.184
12674SOL    HW239957   5.465   1.551   7.258
12675SOL     OW39958   4.884   1.277   6.703
12675SOL    HW139959   4.822   1.286   6.781
12675SOL    HW239960   4.838   1.307   6.620
12676SOL     OW39961   4.576   0.165   6.913
12676SOL    HW139962   4.610   0.109   6.838
12676SOL    HW239963   4.651   0.220   6.950
12677SOL     OW39964   4.624   1.087   7.376
12677SOL    HW139965   4.532   1.110   7.407
12677SOL    HW239966   4.620   1.006   7.318
12678SOL     OW39967   4.461   1.047   5.972
12678SOL    HW139968   4.454   1.017   6.067
12678SOL    HW239969   4.526   0.988   5.924
12679SOL     OW39970   4.180   0.788   6.875
12679SOL    HW139971   4.239   0.796   6.955
12679SOL    HW239972   4.140   0.696   6.873
12680SOL     OW39973   4.980   0.404   6.845
12680SOL    HW139974   5.001   0.482   6.903
12680SOL    HW239975   4.891   0.418   6.801
12681SOL     OW39976   3.815   1.561   6.948
12681SOL    HW139977   3.806   1.652   6.907
12681SOL    HW239978   3.912   1.539   6.958
12682SOL     OW39979   4.015   1.195   6.130
12682SOL    HW139980   3.987   1.285   6.096
12682SOL    HW239981   4.017   1.130   6.054
12683SOL     OW39982   4.271   0.430   6.418
12683SOL    HW139983   4.266   0.449   6.320
12683SOL    HW239984   4.332   0.497   6.462
12684SOL     OW39985   4.965   1.386   6.027
12684SOL    HW139986   5.026   1.459   6.057
12684SOL    HW239987   4.871   1.410   6.050
12685SOL     OW39988   5.046   1.491   6.768
12685SOL    HW139989   5.109   1.482   6.846
12685SOL    HW239990   4.988   1.410   6.763
12686SOL     OW39991   4.076   1.488   6.924
12686SOL    HW139992   4.052   1.500   6.828
12686SOL    HW239993   4.172   1.513   6.937
12687SOL     OW39994   4.175   0.702   7.269
12687SOL    HW139995   4.239   0.736   7.200
12687SOL    HW239996   4.163   0.603   7.257
12688SOL     OW39997   5.340   0.808   7.295
12688SOL    HW139998   5.248   0.844   7.281
12688SOL    HW239999   5.401   0.842   7.222
12689SOL     OW40000   4.731   0.067   7.396
12689SOL    HW140001   4.801   0.132   7.425
12689SOL    HW240002   4.742   0.048   7.298
12690SOL     OW40003   4.286   9.964   7.262
12690SOL    HW140004   4.356   9.893   7.253
12690SOL    HW240005   4.308   0.041   7.202
12691SOL     OW40006   4.398   0.851   6.713
12691SOL    HW140007   4.404   0.949   6.699
12691SOL    HW240008   4.312   0.829   6.758
12692SOL     OW40009   5.007   0.844   6.592
12692SOL    HW140010   4.915   0.814   6.568
12692SOL    HW240011   5.074   0.783   6.549
12693SOL     OW40012   4.081   0.187   6.844
12693SOL    HW140013   4.104   0.234   6.929
12693SOL    HW240014   4.078   0.088   6.861
12694SOL     OW40015   3.720   1.334   6.820
12694SOL    HW140016   3.784   1.314   6.746
12694SOL    HW240017   3.756   1.407   6.878
12695SOL     OW40018   4.425   0.604   6.569
12695SOL    HW140019   4.512   0.589   6.523
12695SOL    HW240020   4.419   0.700   6.599
12696SOL     OW40021   5.462   0.969   7.483
12696SOL    HW140022   5.415   0.904   7.422
12696SOL    HW240023   5.400   0.997   7.556
12697SOL     OW40024   4.000   0.076   6.199
12697SOL    HW140025   3.986   0.173   6.217
12697SOL    HW240026   4.037   0.032   6.281
12698SOL     OW40027   5.364   0.413   5.915
12698SOL    HW140028   5.412   0.346   5.972
12698SOL    HW240029   5.311   0.474   5.973
12699SOL     OW40030   4.752   0.744   6.520
12699SOL    HW140031   4.728   0.763   6.616
12699SOL    HW240032   4.723   0.652   6.496
12700SOL     OW40033   5.597   1.456   7.162
12700SOL    HW140034   5.610   1.485   7.067
12700SOL    HW240035   5.681   1.474   7.214
12701SOL     OW40036   4.075   0.846   7.471
12701SOL    HW140037   4.149   0.890   7.523
12701SOL    HW240038   4.115   0.794   7.395
12702SOL     OW40039   5.238   0.258   5.714
12702SOL    HW140040   5.200   0.194   5.780
12702SOL    HW240041   5.299   0.323   5.760
12703SOL     OW40042   5.059   0.879   5.630
12703SOL    HW140043   5.123   0.924   5.692
12703SOL    HW240044   5.088   0.894   5.535
12704SOL     OW40045   4.781   1.371   6.462
12704SOL    HW140046   4.810   1.291   6.410
12704SOL    HW240047   4.837   1.450   6.436
12705SOL     OW40048   4.079   0.788   6.521
12705SOL    HW140049   4.142   0.785   6.443
12705SOL    HW240050   4.078   0.699   6.567
12706SOL     OW40051   4.086   0.509   6.608
12706SOL    HW140052   4.015   0.438   6.616
12706SOL    HW240053   4.155   0.480   6.542
12707SOL     OW40054   4.819   0.434   7.211
12707SOL    HW140055   4.765   0.456   7.293
12707SOL    HW240056   4.913   0.465   7.225
12708SOL     OW40057   4.821   0.254   7.014
12708SOL    HW140058   4.809   0.314   7.093
12708SOL    HW240059   4.884   0.296   6.949
12709SOL     OW40060   3.743   1.252   5.745
12709SOL    HW140061   3.657   1.296   5.720
12709SOL    HW240062   3.725   1.161   5.783
12710SOL     OW40063   3.801   1.763   6.516
12710SOL    HW140064   3.782   1.671   6.481
12710SOL    HW240065   3.898   1.784   6.503
12711SOL     OW40066   4.207   1.579   6.477
12711SOL    HW140067   4.280   1.642   6.501
12711SOL    HW240068   4.242   1.507   6.418
12712SOL     OW40069   4.665   0.798   6.765
12712SOL    HW140070   4.698   0.776   6.857
12712SOL    HW240071   4.566   0.808   6.767
12713SOL     OW40072   3.713   0.487   6.732
12713SOL    HW140073   3.778   0.429   6.682
12713SOL    HW240074   3.752   0.513   6.820
12714SOL     OW40075   5.111   0.940   7.222
12714SOL    HW140076   5.144   1.034   7.221
12714SOL    HW240077   5.101   0.907   7.128
12715SOL     OW40078   4.533   0.588   5.945
12715SOL    HW140079   4.557   0.509   5.889
12715SOL    HW240080   4.448   0.629   5.911
12716SOL     OW40081   5.319   0.638   6.723
12716SOL    HW140082   5.253   0.599   6.788
12716SOL    HW240083   5.406   0.588   6.731
12717SOL     OW40084   3.922   1.508   7.336
12717SOL    HW140085   3.872   1.546   7.414
12717SOL    HW240086   3.943   1.412   7.354
12718SOL     OW40087   4.463   0.462   6.800
12718SOL    HW140088   4.417   0.374   6.788
12718SOL    HW240089   4.441   0.522   6.723
12719SOL     OW40090   4.633   1.785   7.163
12719SOL    HW140091   4.679   1.697   7.150
12719SOL    HW240092   4.631   1.835   7.077
12720SOL     OW40093   4.147   0.493   5.764
12720SOL    HW140094   4.209   0.569   5.785
12720SOL    HW240095   4.053   0.519   5.787
12721SOL     OW40096   3.898   1.108   7.105
12721SOL    HW140097   3.893   1.054   7.189
12721SOL    HW240098   3.915   1.047   7.027
12722SOL     OW40099   5.012   1.047   6.779
12722SOL    HW140100   5.013   0.975   6.709
12722SOL    HW240101   4.967   1.128   6.742
12723SOL     OW40102   4.944   0.954   5.931
12723SOL    HW140103   4.887   0.883   5.973
12723SOL    HW240104   4.899   0.989   5.849
12724SOL     OW40105   5.454   1.719   6.750
12724SOL    HW140106   5.526   1.743   6.685
12724SOL    HW240107   5.434   1.621   6.742
12725SOL     OW40108   4.994   1.738   6.665
12725SOL    HW140109   5.080   1.788   6.663
12725SOL    HW240110   5.006   1.651   6.714
12726SOL     OW40111   4.416   1.724   7.326
12726SOL    HW140112   4.339   1.785   7.312
12726SOL    HW240113   4.493   1.753   7.268
12727SOL     OW40114   5.534   0.227   6.042
12727SOL    HW140115   5.554   0.204   5.947
12727SOL    HW240116   5.558   0.150   6.101
12728SOL     OW40117   5.117   1.599   6.114
12728SOL    HW140118   5.182   1.634   6.047
12728SOL    HW240119   5.057   1.673   6.144
12729SOL     OW40120   3.834   1.823   7.422
12729SOL    HW140121   3.792   1.737   7.452
12729SOL    HW240122   3.896   1.857   7.493
12730SOL     OW40123   5.014   0.946   6.233
12730SOL    HW140124   5.093   0.885   6.239
12730SOL    HW240125   5.037   1.025   6.176
12731SOL     OW40126   4.526   1.275   7.085
12731SOL    HW140127   4.504   1.339   7.159
12731SOL    HW240128   4.456   1.280   7.015
12732SOL     OW40129   4.412   1.687   5.744
12732SOL    HW140130   4.429   1.691   5.646
12732SOL    HW240131   4.360   1.604   5.765
12733SOL     OW40132   5.362   1.729   7.014
12733SOL    HW140133   5.396   1.732   6.920
12733SOL    HW240134   5.380   1.817   7.058
12734SOL     OW40135   5.557   0.169   6.572
12734SOL    HW140136   5.594   0.088   6.526
12734SOL    HW240137   5.481   0.206   6.519
12735SOL     OW40138   3.975   0.335   6.278
12735SOL    HW140139   3.885   0.374   6.259
12735SOL    HW240140   3.991   0.334   6.377
12736SOL     OW40141   4.922   1.545   5.668
12736SOL    HW140142   4.933   1.453   5.707
12736SOL    HW240143   4.839   1.548   5.612
12737SOL     OW40144   4.516   1.010   7.024
12737SOL    HW140145   4.542   1.007   6.927
12737SOL    HW240146   4.520   1.104   7.057
12738SOL     OW40147   4.634   0.905   5.814
12738SOL    HW140148   4.706   0.961   5.772
12738SOL    HW240149   4.675   0.846   5.884
12739SOL     OW40150   5.180   1.645   5.691
12739SOL    HW140151   5.086   1.612   5.684
12739SOL    HW240152   5.214   1.669   5.600
12740SOL     OW40153   4.115   1.270   7.080
12740SOL    HW140154   4.088   1.352   7.029
12740SOL    HW240155   4.036   1.209   7.089
12741SOL     OW40156   4.835   1.113   6.370
12741SOL    HW140157   4.750   1.071   6.401
12741SOL    HW240158   4.889   1.045   6.319
12742SOL     OW40159   4.767   0.249   6.522
12742SOL    HW140160   4.744   0.194   6.442
12742SOL    HW240161   4.782   0.190   6.601
12743SOL     OW40162   4.339   1.463   6.052
12743SOL    HW140163   4.413   1.408   6.013
12743SOL    HW240164   4.273   1.486   5.980
12744SOL     OW40165   5.577   0.368   7.052
12744SOL    HW140166   5.616   0.459   7.037
12744SOL    HW240167   5.541   0.332   6.966
12745SOL     OW40168   3.981   1.358   5.807
12745SOL    HW140169   3.893   1.321   5.776
12745SOL    HW240170   3.970   1.399   5.897
12746SOL     OW40171   3.877   0.983   7.345
12746SOL    HW140172   3.790   0.975   7.393
12746SOL    HW240173   3.947   0.931   7.395
12747SOL     OW40174   4.407   0.178   7.129
12747SOL    HW140175   4.471   0.163   7.054
12747SOL    HW240176   4.454   0.218   7.207
12748SOL     OW40177   3.820   0.358   5.562
12748SOL    HW140178   3.730   0.356   5.519
12748SOL    HW240179   3.860   0.449   5.553
12749SOL     OW40180   5.125   0.869   6.956
12749SOL    HW140181   5.066   0.927   6.899
12749SOL    HW240182   5.219   0.875   6.924
12750SOL     OW40183   3.772   0.244   5.813
12750SOL    HW140184   3.789   0.285   5.723
12750SOL    HW240185   3.855   0.196   5.844
12751SOL     OW40186   4.940   1.295   5.770
12751SOL    HW140187   4.892   1.208   5.762
12751SOL    HW240188   4.951   1.319   5.866
12752SOL     OW40189   4.356   0.791   7.079
12752SOL    HW140190   4.404   0.877   7.066
12752SOL    HW240191   4.421   0.715   7.069
12753SOL     OW40192   5.236   1.864   6.654
12753SOL    HW140193   5.268   1.913   6.573
12753SOL    HW240194   5.312   1.815   6.696
12754SOL     OW40195   4.510   0.472   7.296
12754SOL    HW140196   4.527   0.550   7.355
12754SOL    HW240197   4.505   0.389   7.351
12755SOL     OW40198   5.226   1.194   7.195
12755SOL    HW140199   5.207   1.210   7.292
12755SOL    HW240200   5.325   1.195   7.179
12756SOL     OW40201   4.026   1.729   7.189
12756SOL    HW140202   3.944   1.783   7.168
12756SOL    HW240203   4.000   1.645   7.237
12757SOL     OW40204   5.377   0.889   6.840
12757SOL    HW140205   5.364   0.805   6.787
12757SOL    HW240206   5.422   0.958   6.784
12758SOL     OW40207   4.959   0.257   6.078
12758SOL    HW140208   5.038   0.236   6.020
12758SOL    HW240209   4.977   0.341   6.130
12759SOL     OW40210   4.236   0.790   6.300
12759SOL    HW140211   4.314   0.849   6.277
12759SOL    HW240212   4.191   0.760   6.216
12760SOL     OW40213   5.450   0.374   7.293
12760SOL    HW140214   5.491   0.369   7.202
12760SOL    HW240215   5.364   0.323   7.294
12761SOL     OW40216   5.476   0.937   7.094
12761SOL    HW140217   5.482   1.035   7.113
12761SOL    HW240218   5.439   0.923   7.003
12762SOL     OW40219   4.480   1.384   5.676
12762SOL    HW140220   4.510   1.362   5.769
12762SOL    HW240221   4.553   1.432   5.628
12763SOL     OW40222   4.386   1.768   6.523
12763SOL    HW140223   4.357   1.864   6.521
12763SOL    HW240224   4.486   1.764   6.521
12764SOL     OW40225   4.608   0.982   6.463
12764SOL    HW140226   4.653   0.896   6.483
12764SOL    HW240227   4.562   1.016   6.545
12765SOL     OW40228   4.840   1.040   5.693
12765SOL    HW140229   4.781   1.072   5.619
12765SOL    HW240230   4.913   0.982   5.655
12766SOL     OW40231   5.503   1.552   6.482
12766SOL    HW140232   5.436   1.542   6.409
12766SOL    HW240233   5.473   1.500   6.562
12767SOL     OW40234   3.944   1.243   7.424
12767SOL    HW140235   3.921   1.156   7.383
12767SOL    HW240236   3.888   1.258   7.505
12768SOL     OW40237   3.761   1.201   6.252
12768SOL    HW140238   3.734   1.133   6.321
12768SOL    HW240239   3.854   1.182   6.221
12769SOL     OW40240   4.423   1.450   7.269
12769SOL    HW140241   4.337   1.409   7.298
12769SOL    HW240242   4.421   1.548   7.288
12770SOL     OW40243   5.377   0.151   6.787
12770SOL    HW140244   5.346   0.057   6.776
12770SOL    HW240245   5.453   0.169   6.725
12771SOL     OW40246   4.187   0.442   6.139
12771SOL    HW140247   4.215   0.382   6.064
12771SOL    HW240248   4.109   0.401   6.186
12772SOL     OW40249   5.378   1.455   6.716
12772SOL    HW140250   5.304   1.440   6.650
12772SOL    HW240251   5.340   1.451   6.809
12773SOL     OW40252   4.087   0.530   6.882
12773SOL    HW140253   4.139   0.459   6.930
12773SOL    HW240254   4.096   0.517   6.784
12774SOL     OW40255   4.529   1.583   6.269
12774SOL    HW140256   4.491   1.638   6.194
12774SOL    HW240257   4.464   1.512   6.295
12775SOL     OW40258   5.181   0.315   6.683
12775SOL    HW140259   5.249   0.258   6.728
12775SOL    HW240260   5.111   0.342   6.750
12776SOL     OW40261   4.799   0.086   6.739
12776SOL    HW140262   4.798   9.986   6.744
12776SOL    HW240263   4.854   0.122   6.814
12777SOL     OW40264   4.534   1.311   5.932
12777SOL    HW140265   4.514   1.216   5.953
12777SOL    HW240266   4.611   1.342   5.988
12778SOL     OW40267   4.339   1.547   6.911
12778SOL    HW140268   4.324   1.641   6.940
12778SOL    HW240269   4.429   1.538   6.869
12779SOL     OW40270   4.984   0.478   6.236
12779SOL    HW140271   4.935   0.566   6.232
12779SOL    HW240272   4.994   0.450   6.331
12780SOL     OW40273   5.334   0.266   6.451
12780SOL    HW140274   5.273   0.287   6.528
12780SOL    HW240275   5.329   0.340   6.384
12781SOL     OW40276   3.743   1.017   5.918
12781SOL    HW140277   3.843   1.016   5.922
12781SOL    HW240278   3.709   0.924   5.928
12782SOL     OW40279   4.616   1.695   5.935
12782SOL    HW140280   4.545   1.688   5.865
12782SOL    HW240281   4.594   1.771   5.997
12783SOL     OW40282   3.960   0.629   7.594
12783SOL    HW140283   3.861   0.631   7.609
12783SOL    HW240284   3.989   0.716   7.552
12784SOL     OW40285   3.918   0.305   8.530
12784SOL    HW140286   3.978   0.249   8.588
12784SOL    HW240287   3.843   0.248   8.496
12785SOL     OW40288   3.722   0.429   8.068
12785SOL    HW140289   3.641   0.451   8.121
12785SOL    HW240290   3.698   0.365   7.995
12786SOL     OW40291   4.284   1.321   8.653
12786SOL    HW140292   4.196   1.319   8.605
12786SOL    HW240293   4.304   1.415   8.681
12787SOL     OW40294   5.335   1.493   8.165
12787SOL    HW140295   5.283   1.455   8.241
12787SOL    HW240296   5.272   1.537   8.100
12788SOL     OW40297   4.841   0.709   8.113
12788SOL    HW140298   4.888   0.797   8.119
12788SOL    HW240299   4.778   0.700   8.191
12789SOL     OW40300   5.554   0.577   7.652
12789SOL    HW140301   5.482   0.580   7.582
12789SOL    HW240302   5.580   0.481   7.668
12790SOL     OW40303   4.419   1.140   8.491
12790SOL    HW140304   4.366   1.188   8.560
12790SOL    HW240305   4.471   1.206   8.437
12791SOL     OW40306   4.580   0.660   9.289
12791SOL    HW140307   4.548   0.712   9.369
12791SOL    HW240308   4.604   0.724   9.216
12792SOL     OW40309   4.408   0.926   8.095
12792SOL    HW140310   4.473   0.931   8.171
12792SOL    HW240311   4.337   0.996   8.107
12793SOL     OW40312   4.388   1.149   9.279
12793SOL    HW140313   4.436   1.227   9.318
12793SOL    HW240314   4.313   1.181   9.221
12794SOL     OW40315   4.053   1.389   8.507
12794SOL    HW140316   3.985   1.329   8.467
12794SOL    HW240317   4.100   1.440   8.434
12795SOL     OW40318   5.140   1.546   8.817
12795SOL    HW140319   5.211   1.615   8.834
12795SOL    HW240320   5.057   1.571   8.867
12796SOL     OW40321   4.201   0.382   8.893
12796SOL    HW140322   4.266   0.311   8.919
12796SOL    HW240323   4.108   0.350   8.912
12797SOL     OW40324   5.260   0.443   8.150
12797SOL    HW140325   5.161   0.453   8.138
12797SOL    HW240326   5.308   0.502   8.085
12798SOL     OW40327   3.949   1.756   7.907
12798SOL    HW140328   3.974   1.823   7.977
12798SOL    HW240329   4.024   1.745   7.842
12799SOL     OW40330   4.764   1.279   9.061
12799SOL    HW140331   4.847   1.249   9.015
12799SOL    HW240332   4.725   1.203   9.113
12800SOL     OW40333   4.005   1.496   7.972
12800SOL    HW140334   3.972   1.590   7.966
12800SOL    HW240335   3.959   1.449   8.048
12801SOL     OW40336   4.068   1.064   8.352
12801SOL    HW140337   4.058   0.968   8.379
12801SOL    HW240338   3.990   1.117   8.387
12802SOL     OW40339   4.315   1.785   8.901
12802SOL    HW140340   4.228   1.776   8.948
12802SOL    HW240341   4.346   1.880   8.905
12803SOL     OW40342   4.270   0.966   7.639
12803SOL    HW140343   4.298   1.030   7.567
12803SOL    HW240344   4.328   0.978   7.719
12804SOL     OW40345   5.232   0.118   8.855
12804SOL    HW140346   5.315   0.113   8.801
12804SOL    HW240347   5.240   0.191   8.923
12805SOL     OW40348   3.838   0.679   8.037
12805SOL    HW140349   3.802   0.587   8.051
12805SOL    HW240350   3.841   0.728   8.124
12806SOL     OW40351   5.584   1.752   7.783
12806SOL    HW140352   5.663   1.742   7.842
12806SOL    HW240353   5.586   1.842   7.740
12807SOL     OW40354   3.755   1.588   7.536
12807SOL    HW140355   3.683   1.517   7.534
12807SOL    HW240356   3.748   1.640   7.621
12808SOL     OW40357   5.434   0.935   8.127
12808SOL    HW140358   5.523   0.890   8.132
12808SOL    HW240359   5.427   0.988   8.043
12809SOL     OW40360   5.426   1.094   7.899
12809SOL    HW140361   5.507   1.072   7.845
12809SOL    HW240362   5.445   1.173   7.957
12810SOL     OW40363   3.817   0.767   9.016
12810SOL    HW140364   3.888   0.822   9.061
12810SOL    HW240365   3.745   0.828   8.982
12811SOL     OW40366   4.343   1.366   8.172
12811SOL    HW140367   4.303   1.274   8.164
12811SOL    HW240368   4.350   1.406   8.081
12812SOL     OW40369   4.981   1.205   8.922
12812SOL    HW140370   4.996   1.162   8.833
12812SOL    HW240371   5.067   1.204   8.974
12813SOL     OW40372   4.550   0.088   7.967
12813SOL    HW140373   4.586   0.179   7.944
12813SOL    HW240374   4.455   0.081   7.935
12814SOL     OW40375   3.927   0.955   8.741
12814SOL    HW140376   4.020   0.918   8.748
12814SOL    HW240377   3.881   0.913   8.663
12815SOL     OW40378   5.274   1.046   7.673
12815SOL    HW140379   5.198   0.986   7.696
12815SOL    HW240380   5.324   1.070   7.756
12816SOL     OW40381   4.091   0.239   9.198
12816SOL    HW140382   4.155   0.315   9.209
12816SOL    HW240383   4.002   0.264   9.236
12817SOL     OW40384   5.197   1.396   8.378
12817SOL    HW140385   5.132   1.445   8.436
12817SOL    HW240386   5.168   1.301   8.367
12818SOL     OW40387   5.346   1.892   7.969
12818SOL    HW140388   5.340   1.821   7.900
12818SOL    HW240389   5.338   1.851   8.060
12819SOL     OW40390   4.291   0.697   7.718
12819SOL    HW140391   4.293   0.788   7.677
12819SOL    HW240392   4.217   0.691   7.784
12820SOL     OW40393   4.966   0.347   8.360
12820SOL    HW140394   4.885   0.291   8.376
12820SOL    HW240395   5.039   0.319   8.421
12821SOL     OW40396   5.315   1.696   7.784
12821SOL    HW140397   5.415   1.699   7.783
12821SOL    HW240398   5.282   1.674   7.692
12822SOL     OW40399   4.503   0.563   8.915
12822SOL    HW140400   4.456   0.514   8.990
12822SOL    HW240401   4.483   0.517   8.829
12823SOL     OW40402   5.071   0.513   9.111
12823SOL    HW140403   5.076   0.564   9.196
12823SOL    HW240404   5.123   0.429   9.119
12824SOL     OW40405   4.642   0.842   9.086
12824SOL    HW140406   4.701   0.783   9.031
12824SOL    HW240407   4.594   0.906   9.026
12825SOL     OW40408   4.716   0.440   8.538
12825SOL    HW140409   4.632   0.448   8.592
12825SOL    HW240410   4.720   0.349   8.496
12826SOL     OW40411   4.766   0.692   7.852
12826SOL    HW140412   4.791   0.698   7.949
12826SOL    HW240413   4.676   0.648   7.844
12827SOL     OW40414   3.839   0.820   8.266
12827SOL    HW140415   3.921   0.808   8.322
12827SOL    HW240416   3.781   0.891   8.305
12828SOL     OW40417   3.847   1.896   9.063
12828SOL    HW140418   3.854   1.856   9.154
12828SOL    HW240419   3.751   1.900   9.035
12829SOL     OW40420   4.594   0.370   7.641
12829SOL    HW140421   4.669   0.417   7.593
12829SOL    HW240422   4.548   0.308   7.578
12830SOL     OW40423   5.366   0.588   9.280
12830SOL    HW140424   5.361   0.676   9.234
12830SOL    HW240425   5.395   0.518   9.215
12831SOL     OW40426   5.095   1.190   8.082
12831SOL    HW140427   5.178   1.199   8.027
12831SOL    HW240428   5.038   1.271   8.069
12832SOL     OW40429   4.284   0.226   8.367
12832SOL    HW140430   4.299   0.236   8.465
12832SOL    HW240431   4.287   0.316   8.323
12833SOL     OW40432   4.734   1.508   7.896
12833SOL    HW140433   4.720   1.573   7.821
12833SOL    HW240434   4.678   1.535   7.974
12834SOL     OW40435   4.079   1.788   8.329
12834SOL    HW140436   4.113   1.695   8.322
12834SOL    HW240437   4.152   1.848   8.363
12835SOL     OW40438   5.510   1.027   8.381
12835SOL    HW140439   5.468   1.016   8.291
12835SOL    HW240440   5.441   1.053   8.447
12836SOL     OW40441   4.039   0.941   7.804
12836SOL    HW140442   4.111   0.959   7.736
12836SOL    HW240443   4.047   0.846   7.836
12837SOL     OW40444   5.211   0.781   8.139
12837SOL    HW140445   5.195   0.742   8.230
12837SOL    HW240446   5.292   0.840   8.142
12838SOL     OW40447   4.179   1.285   9.148
12838SOL    HW140448   4.149   1.293   9.053
12838SOL    HW240449   4.100   1.290   9.209
12839SOL     OW40450   4.836   1.853   7.582
12839SOL    HW140451   4.769   1.804   7.638
12839SOL    HW240452   4.789   1.896   7.505
12840SOL     OW40453   3.965   0.255   8.944
12840SOL    HW140454   3.867   0.274   8.944
12840SOL    HW240455   3.995   0.231   9.036
12841SOL     OW40456   5.376   1.385   7.560
12841SOL    HW140457   5.343   1.479   7.547
12841SOL    HW240458   5.313   1.321   7.517
12842SOL     OW40459   4.181   1.755   7.756
12842SOL    HW140460   4.229   1.811   7.824
12842SOL    HW240461   4.249   1.706   7.701
12843SOL     OW40462   5.172   0.169   7.934
12843SOL    HW140463   5.164   0.105   7.857
12843SOL    HW240464   5.213   0.122   8.012
12844SOL     OW40465   3.921   1.806   8.669
12844SOL    HW140466   3.970   1.724   8.698
12844SOL    HW240467   3.887   1.793   8.576
12845SOL     OW40468   4.626   1.689   8.341
12845SOL    HW140469   4.647   1.616   8.407
12845SOL    HW240470   4.615   1.648   8.250
12846SOL     OW40471   4.080   0.673   7.903
12846SOL    HW140472   4.076   0.579   7.868
12846SOL    HW240473   3.999   0.691   7.959
12847SOL     OW40474   5.188   0.266   9.159
12847SOL    HW140475   5.201   0.279   9.258
12847SOL    HW240476   5.115   0.199   9.144
12848SOL     OW40477   4.316   0.056   7.513
12848SOL    HW140478   4.328   9.979   7.575
12848SOL    HW240479   4.295   0.022   7.421
12849SOL     OW40480   4.454   0.216   9.220
12849SOL    HW140481   4.538   0.165   9.203
12849SOL    HW240482   4.417   0.191   9.309
12850SOL     OW40483   4.627   1.509   8.544
12850SOL    HW140484   4.586   1.438   8.487
12850SOL    HW240485   4.650   1.470   8.633
12851SOL     OW40486   5.015   0.611   8.863
12851SOL    HW140487   5.046   0.580   8.952
12851SOL    HW240488   5.041   0.707   8.850
12852SOL     OW40489   4.545   1.336   8.352
12852SOL    HW140490   4.636   1.340   8.311
12852SOL    HW240491   4.476   1.352   8.281
12853SOL     OW40492   4.676   0.609   8.323
12853SOL    HW140493   4.640   0.564   8.242
12853SOL    HW240494   4.700   0.541   8.392
12854SOL     OW40495   4.296   0.068   7.865
12854SOL    HW140496   4.218   0.050   7.924
12854SOL    HW240497   4.272   0.138   7.798
12855SOL     OW40498   5.192   1.205   7.464
12855SOL    HW140499   5.221   1.144   7.537
12855SOL    HW240500   5.097   1.233   7.479
12856SOL     OW40501   3.996   0.040   7.610
12856SOL    HW140502   4.052   0.118   7.640
12856SOL    HW240503   3.925   0.023   7.678
12857SOL     OW40504   4.676   0.317   7.899
12857SOL    HW140505   4.646   0.335   7.805
12857SOL    HW240506   4.776   0.320   7.903
12858SOL     OW40507   4.753   0.683   8.897
12858SOL    HW140508   4.685   0.611   8.913
12858SOL    HW240509   4.844   0.642   8.888
12859SOL     OW40510   4.224   1.123   8.142
12859SOL    HW140511   4.175   1.100   8.226
12859SOL    HW240512   4.157   1.141   8.069
12860SOL     OW40513   4.782   0.503   7.495
12860SOL    HW140514   4.727   0.583   7.473
12860SOL    HW240515   4.847   0.525   7.567
12861SOL     OW40516   3.830   0.566   8.832
12861SOL    HW140517   3.924   0.567   8.798
12861SOL    HW240518   3.818   0.641   8.898
12862SOL     OW40519   4.325   0.248   8.632
12862SOL    HW140520   4.395   0.208   8.691
12862SOL    HW240521   4.234   0.225   8.668
12863SOL     OW40522   4.575   0.500   8.097
12863SOL    HW140523   4.495   0.548   8.061
12863SOL    HW240524   4.610   0.436   8.029
12864SOL     OW40525   4.656   0.034   8.210
12864SOL    HW140526   4.616   0.065   8.124
12864SOL    HW240527   4.689   9.941   8.200
12865SOL     OW40528   5.131   1.133   8.351
12865SOL    HW140529   5.080   1.053   8.381
12865SOL    HW240530   5.118   1.147   8.253
12866SOL     OW40531   5.147   0.675   8.387
12866SOL    HW140532   5.104   0.588   8.363
12866SOL    HW240533   5.218   0.659   8.456
12867SOL     OW40534   5.540   0.775   7.829
12867SOL    HW140535   5.617   0.760   7.891
12867SOL    HW240536   5.542   0.707   7.756
12868SOL     OW40537   4.232   1.444   7.587
12868SOL    HW140538   4.161   1.412   7.649
12868SOL    HW240539   4.216   1.409   7.495
12869SOL     OW40540   5.492   1.289   8.065
12869SOL    HW140541   5.589   1.291   8.088
12869SOL    HW240542   5.447   1.370   8.102
12870SOL     OW40543   5.102   0.610   7.506
12870SOL    HW140544   5.062   0.578   7.591
12870SOL    HW240545   5.202   0.600   7.510
12871SOL     OW40546   4.196   0.243   7.665
12871SOL    HW140547   4.240   0.177   7.604
12871SOL    HW240548   4.198   0.334   7.624
12872SOL     OW40549   5.463   1.239   8.991
12872SOL    HW140550   5.551   1.192   8.993
12872SOL    HW240551   5.474   1.334   9.019
12873SOL     OW40552   4.694   1.359   8.768
12873SOL    HW140553   4.606   1.319   8.797
12873SOL    HW240554   4.760   1.351   8.843
12874SOL     OW40555   5.316   1.621   9.120
12874SOL    HW140556   5.301   1.671   9.035
12874SOL    HW240557   5.402   1.570   9.115
12875SOL     OW40558   4.870   1.303   8.556
12875SOL    HW140559   4.795   1.319   8.619
12875SOL    HW240560   4.838   1.316   8.462
12876SOL     OW40561   5.314   1.107   8.557
12876SOL    HW140562   5.308   1.178   8.627
12876SOL    HW240563   5.244   1.122   8.487
12877SOL     OW40564   4.545   0.167   8.782
12877SOL    HW140565   4.571   0.101   8.711
12877SOL    HW240566   4.626   0.215   8.815
12878SOL     OW40567   4.651   1.078   9.219
12878SOL    HW140568   4.555   1.100   9.235
12878SOL    HW240569   4.658   0.988   9.177
12879SOL     OW40570   4.456   1.003   7.832
12879SOL    HW140571   4.449   0.970   7.926
12879SOL    HW240572   4.527   0.951   7.784
12880SOL     OW40573   4.168   0.827   8.749
12880SOL    HW140574   4.235   0.828   8.824
12880SOL    HW240575   4.130   0.735   8.740
12881SOL     OW40576   4.949   0.414   8.688
12881SOL    HW140577   4.975   0.492   8.746
12881SOL    HW240578   4.874   0.441   8.628
12882SOL     OW40579   3.763   1.543   8.778
12882SOL    HW140580   3.716   1.619   8.732
12882SOL    HW240581   3.862   1.557   8.772
12883SOL     OW40582   4.033   1.169   7.956
12883SOL    HW140583   4.038   1.240   7.885
12883SOL    HW240584   4.028   1.079   7.912
12884SOL     OW40585   4.283   0.494   8.294
12884SOL    HW140586   4.288   0.538   8.204
12884SOL    HW240587   4.339   0.545   8.359
12885SOL     OW40588   4.953   1.427   8.047
12885SOL    HW140589   5.024   1.496   8.037
12885SOL    HW240590   4.877   1.447   7.986
12886SOL     OW40591   5.040   1.516   8.565
12886SOL    HW140592   5.078   1.528   8.657
12886SOL    HW240593   4.974   1.440   8.566
12887SOL     OW40594   5.341   0.622   7.951
12887SOL    HW140595   5.280   0.678   8.007
12887SOL    HW240596   5.404   0.681   7.901
12888SOL     OW40597   4.035   1.553   8.721
12888SOL    HW140598   4.029   1.491   8.643
12888SOL    HW240599   4.131   1.574   8.739
12889SOL     OW40600   4.199   0.671   9.120
12889SOL    HW140601   4.245   0.726   9.050
12889SOL    HW240602   4.258   0.596   9.148
12890SOL     OW40603   5.345   0.829   9.159
12890SOL    HW140604   5.248   0.856   9.159
12890SOL    HW240605   5.389   0.865   9.077
12891SOL     OW40606   4.674   0.052   9.204
12891SOL    HW140607   4.739   0.106   9.258
12891SOL    HW240608   4.713   0.034   9.114
12892SOL     OW40609   4.193   0.003   9.298
12892SOL    HW140610   4.274   9.963   9.255
12892SOL    HW240611   4.165   0.084   9.246
12893SOL     OW40612   4.305   0.887   8.520
12893SOL    HW140613   4.339   0.980   8.508
12893SOL    HW240614   4.258   0.879   8.609
12894SOL     OW40615   5.012   0.908   8.455
12894SOL    HW140616   4.914   0.887   8.454
12894SOL    HW240617   5.064   0.827   8.431
12895SOL     OW40618   4.939   0.533   7.715
12895SOL    HW140619   4.962   0.454   7.773
12895SOL    HW240620   4.882   0.596   7.767
12896SOL     OW40621   4.074   0.160   8.712
12896SOL    HW140622   4.025   0.197   8.791
12896SOL    HW240623   4.117   0.073   8.738
12897SOL     OW40624   3.782   1.291   8.670
12897SOL    HW140625   3.804   1.231   8.747
12897SOL    HW240626   3.765   1.384   8.704
12898SOL     OW40627   4.432   0.655   8.458
12898SOL    HW140628   4.513   0.665   8.400
12898SOL    HW240629   4.389   0.744   8.471
12899SOL     OW40630   5.514   0.971   9.329
12899SOL    HW140631   5.458   0.914   9.269
12899SOL    HW240632   5.460   0.998   9.409
12900SOL     OW40633   4.061   0.062   8.009
12900SOL    HW140634   4.028   0.156   8.016
12900SOL    HW240635   4.075   0.025   8.101
12901SOL     OW40636   5.247   0.403   7.792
12901SOL    HW140637   5.233   0.328   7.857
12901SOL    HW240638   5.275   0.485   7.841
12902SOL     OW40639   4.751   0.831   8.461
12902SOL    HW140640   4.711   0.830   8.553
12902SOL    HW240641   4.732   0.744   8.416
12903SOL     OW40642   4.708   1.484   9.227
12903SOL    HW140643   4.663   1.558   9.178
12903SOL    HW240644   4.730   1.410   9.162
12904SOL     OW40645   5.551   1.494   9.037
12904SOL    HW140646   5.567   1.517   8.941
12904SOL    HW240647   5.634   1.511   9.090
12905SOL     OW40648   4.017   0.882   9.174
12905SOL    HW140649   4.039   0.925   9.261
12905SOL    HW240650   4.087   0.814   9.152
12906SOL     OW40651   5.161   0.254   7.577
12906SOL    HW140652   5.152   0.164   7.621
12906SOL    HW240653   5.198   0.320   7.642
12907SOL     OW40654   4.993   0.855   7.456
12907SOL    HW140655   5.028   0.762   7.468
12907SOL    HW240656   5.027   0.892   7.370
12908SOL     OW40657   4.809   1.343   8.278
12908SOL    HW140658   4.803   1.247   8.252
12908SOL    HW240659   4.864   1.392   8.210
12909SOL     OW40660   4.063   0.794   8.424
12909SOL    HW140661   4.155   0.824   8.450
12909SOL    HW240662   4.054   0.696   8.439
12910SOL     OW40663   4.071   0.521   8.465
12910SOL    HW140664   4.011   0.442   8.476
12910SOL    HW240665   4.139   0.501   8.395
12911SOL     OW40666   4.815   0.419   9.091
12911SOL    HW140667   4.776   0.421   9.183
12911SOL    HW240668   4.907   0.459   9.092
12912SOL     OW40669   4.782   0.276   8.864
12912SOL    HW140670   4.787   0.328   8.949
12912SOL    HW240671   4.846   0.314   8.797
12913SOL     OW40672   3.783   1.270   7.642
12913SOL    HW140673   3.695   1.314   7.622
12913SOL    HW240674   3.767   1.181   7.685
12914SOL     OW40675   3.818   1.774   8.415
12914SOL    HW140676   3.765   1.706   8.364
12914SOL    HW240677   3.909   1.782   8.376
12915SOL     OW40678   4.200   1.538   8.332
12915SOL    HW140679   4.269   1.583   8.389
12915SOL    HW240680   4.246   1.476   8.268
12916SOL     OW40681   4.620   0.810   8.698
12916SOL    HW140682   4.677   0.770   8.770
12916SOL    HW240683   4.537   0.756   8.688
12917SOL     OW40684   3.704   0.479   8.608
12917SOL    HW140685   3.772   0.424   8.560
12917SOL    HW240686   3.746   0.522   8.689
12918SOL     OW40687   3.946   0.580   9.174
12918SOL    HW140688   4.040   0.602   9.150
12918SOL    HW240689   3.883   0.634   9.119
12919SOL     OW40690   5.096   0.934   9.104
12919SOL    HW140691   5.129   1.028   9.102
12919SOL    HW240692   5.076   0.903   9.011
12920SOL     OW40693   4.526   0.584   7.799
12920SOL    HW140694   4.538   0.502   7.742
12920SOL    HW240695   4.440   0.629   7.775
12921SOL     OW40696   5.325   0.618   8.586
12921SOL    HW140697   5.278   0.564   8.656
12921SOL    HW240698   5.413   0.574   8.565
12922SOL     OW40699   3.932   1.546   9.147
12922SOL    HW140700   3.918   1.619   9.214
12922SOL    HW240701   3.941   1.458   9.194
12923SOL     OW40702   4.468   0.477   8.657
12923SOL    HW140703   4.409   0.397   8.648
12923SOL    HW240704   4.446   0.543   8.585
12924SOL     OW40705   4.648   1.680   8.951
12924SOL    HW140706   4.607   1.602   8.906
12924SOL    HW240707   4.642   1.760   8.891
12925SOL     OW40708   4.190   0.496   7.553
12925SOL    HW140709   4.259   0.555   7.595
12925SOL    HW240710   4.099   0.534   7.568
12926SOL     OW40711   3.840   1.149   8.902
12926SOL    HW140712   3.841   1.122   8.998
12926SOL    HW240713   3.874   1.073   8.846
12927SOL     OW40714   4.992   1.083   8.668
12927SOL    HW140715   5.007   1.017   8.595
12927SOL    HW240716   4.950   1.166   8.631
12928SOL     OW40717   5.061   0.889   7.724
12928SOL    HW140718   4.997   0.846   7.787
12928SOL    HW240719   5.030   0.876   7.630
12929SOL     OW40720   5.466   1.710   8.610
12929SOL    HW140721   5.537   1.740   8.546
12929SOL    HW240722   5.435   1.618   8.585
12930SOL     OW40723   5.027   1.765   8.453
12930SOL    HW140724   5.110   1.810   8.488
12930SOL    HW240725   5.023   1.671   8.489
12931SOL     OW40726   3.848   1.216   8.419
12931SOL    HW140727   3.820   1.247   8.510
12931SOL    HW240728   3.782   1.148   8.386
12932SOL     OW40729   4.461   1.700   9.169
12932SOL    HW140730   4.387   1.767   9.163
12932SOL    HW240731   4.521   1.710   9.089
12933SOL     OW40732   5.146   1.622   8.014
12933SOL    HW140733   5.185   1.656   7.928
12933SOL    HW240734   5.114   1.699   8.069
12934SOL     OW40735   3.884   1.765   9.301
12934SOL    HW140736   3.799   1.726   9.333
12934SOL    HW240737   3.938   1.797   9.379
12935SOL     OW40738   4.990   0.937   8.108
12935SOL    HW140739   5.069   0.876   8.113
12935SOL    HW240740   5.021   1.030   8.085
12936SOL     OW40741   4.456   1.263   8.862
12936SOL    HW140742   4.438   1.323   8.940
12936SOL    HW240743   4.383   1.273   8.795
12937SOL     OW40744   4.395   1.662   7.592
12937SOL    HW140745   4.415   1.681   7.496
12937SOL    HW240746   4.347   1.575   7.600
12938SOL     OW40747   5.334   1.742   8.861
12938SOL    HW140748   5.384   1.738   8.775
12938SOL    HW240749   5.361   1.825   8.911
12939SOL     OW40750   5.555   0.132   8.417
12939SOL    HW140751   5.566   0.053   8.357
12939SOL    HW240752   5.479   0.188   8.384
12940SOL     OW40753   3.967   0.304   8.088
12940SOL    HW140754   3.879   0.352   8.091
12940SOL    HW240755   3.984   0.261   8.176
12941SOL     OW40756   4.529   1.001   8.895
12941SOL    HW140757   4.572   0.972   8.809
12941SOL    HW240758   4.505   1.098   8.889
12942SOL     OW40759   4.647   0.872   7.681
12942SOL    HW140760   4.712   0.939   7.645
12942SOL    HW240761   4.696   0.809   7.742
12943SOL     OW40762   5.250   1.644   7.509
12943SOL    HW140763   5.162   1.605   7.484
12943SOL    HW240764   5.310   1.646   7.429
12944SOL     OW40765   4.061   1.324   8.909
12944SOL    HW140766   4.049   1.405   8.852
12944SOL    HW240767   3.981   1.265   8.900
12945SOL     OW40768   5.307   1.312   8.759
12945SOL    HW140769   5.362   1.284   8.837
12945SOL    HW240770   5.239   1.379   8.788
12946SOL     OW40771   4.781   1.091   8.205
12946SOL    HW140772   4.698   1.042   8.234
12946SOL    HW240773   4.848   1.025   8.172
12947SOL     OW40774   4.741   0.194   8.419
12947SOL    HW140775   4.719   0.153   8.331
12947SOL    HW240776   4.713   0.133   8.493
12948SOL     OW40777   4.359   1.479   7.925
12948SOL    HW140778   4.398   1.411   7.863
12948SOL    HW240779   4.265   1.498   7.898
12949SOL     OW40780   5.501   0.331   8.852
12949SOL    HW140781   5.564   0.407   8.837
12949SOL    HW240782   5.496   0.274   8.771
12950SOL     OW40783   4.026   1.356   7.746
12950SOL    HW140784   3.936   1.334   7.707
12950SOL    HW240785   4.014   1.418   7.824
12951SOL     OW40786   3.821   1.073   9.163
12951SOL    HW140787   3.743   1.047   9.220
12951SOL    HW240788   3.892   1.003   9.171
12952SOL     OW40789   4.349   0.156   8.966
12952SOL    HW140790   4.429   0.157   8.906
12952SOL    HW240791   4.378   0.172   9.060
12953SOL     OW40792   3.808   0.355   7.673
12953SOL    HW140793   3.806   0.340   7.575
12953SOL    HW240794   3.897   0.392   7.700
12954SOL     OW40795   5.083   0.875   8.833
12954SOL    HW140796   5.030   0.946   8.787
12954SOL    HW240797   5.175   0.871   8.792
12955SOL     OW40798   3.666   0.240   7.871
12955SOL    HW140799   3.713   0.283   7.794
12955SOL    HW240800   3.710   0.153   7.893
12956SOL     OW40801   4.358   0.795   8.937
12956SOL    HW140802   4.414   0.878   8.931
12956SOL    HW240803   4.418   0.715   8.931
12957SOL     OW40804   5.259   1.889   8.527
12957SOL    HW140805   5.301   1.949   8.458
12957SOL    HW240806   5.329   1.831   8.567
12958SOL     OW40807   4.402   0.482   9.167
12958SOL    HW140808   4.466   0.542   9.215
12958SOL    HW240809   4.423   0.387   9.188
12959SOL     OW40810   5.207   1.182   9.087
12959SOL    HW140811   5.201   1.196   9.186
12959SOL    HW240812   5.299   1.206   9.056
12960SOL     OW40813   4.082   1.755   9.038
12960SOL    HW140814   4.002   1.815   9.031
12960SOL    HW240815   4.053   1.663   9.064
12961SOL     OW40816   5.323   0.874   8.703
12961SOL    HW140817   5.334   0.789   8.650
12961SOL    HW240818   5.323   0.952   8.640
12962SOL     OW40819   4.950   0.329   7.913
12962SOL    HW140820   5.027   0.265   7.908
12962SOL    HW240821   4.961   0.389   7.991
12963SOL     OW40822   4.314   0.661   8.072
12963SOL    HW140823   4.352   0.753   8.081
12963SOL    HW240824   4.231   0.664   8.016
12964SOL     OW40825   5.433   0.382   9.108
12964SOL    HW140826   5.457   0.366   9.012
12964SOL    HW240827   5.348   0.334   9.130
12965SOL     OW40828   5.440   0.948   8.936
12965SOL    HW140829   5.431   1.047   8.946
12965SOL    HW240830   5.400   0.920   8.849
12966SOL     OW40831   4.376   1.686   8.476
12966SOL    HW140832   4.347   1.780   8.458
12966SOL    HW240833   4.471   1.674   8.448
12967SOL     OW40834   4.563   0.967   8.320
12967SOL    HW140835   4.633   0.922   8.376
12967SOL    HW240836   4.505   1.024   8.379
12968SOL     OW40837   4.819   1.041   7.551
12968SOL    HW140838   4.747   1.061   7.485
12968SOL    HW240839   4.882   0.973   7.513
12969SOL     OW40840   5.540   1.563   8.331
12969SOL    HW140841   5.477   1.547   8.255
12969SOL    HW240842   5.512   1.508   8.410
12970SOL     OW40843   3.929   1.302   9.270
12970SOL    HW140844   3.889   1.222   9.226
12970SOL    HW240845   3.875   1.325   9.351
12971SOL     OW40846   3.884   1.318   8.150
12971SOL    HW140847   3.877   1.284   8.244
12971SOL    HW240848   3.933   1.251   8.094
12972SOL     OW40849   4.398   1.436   9.067
12972SOL    HW140850   4.318   1.390   9.105
12972SOL    HW240851   4.408   1.526   9.111
12973SOL     OW40852   5.442   0.087   8.668
12973SOL    HW140853   5.386   0.007   8.648
12973SOL    HW240854   5.491   0.115   8.585
12974SOL     OW40855   4.056   0.407   7.846
12974SOL    HW140856   4.112   0.339   7.800
12974SOL    HW240857   4.029   0.372   7.936
12975SOL     OW40858   5.402   1.455   8.544
12975SOL    HW140859   5.331   1.434   8.477
12975SOL    HW240860   5.389   1.400   8.626
12976SOL     OW40861   4.084   0.571   8.733
12976SOL    HW140862   4.139   0.505   8.785
12976SOL    HW240863   4.086   0.546   8.636
12977SOL     OW40864   4.552   1.628   8.070
12977SOL    HW140865   4.555   1.721   8.032
12977SOL    HW240866   4.478   1.577   8.028
12978SOL     OW40867   5.149   0.281   8.559
12978SOL    HW140868   5.181   0.204   8.613
12978SOL    HW240869   5.080   0.332   8.610
12979SOL     OW40870   4.614   0.006   8.577
12979SOL    HW140871   4.543   9.997   8.507
12979SOL    HW240872   4.652   9.916   8.599
12980SOL     OW40873   4.484   1.277   7.782
12980SOL    HW140874   4.470   1.180   7.803
12980SOL    HW240875   4.580   1.301   7.799
12981SOL     OW40876   4.308   1.586   8.719
12981SOL    HW140877   4.323   1.654   8.790
12981SOL    HW240878   4.341   1.622   8.631
12982SOL     OW40879   5.129   0.016   7.712
12982SOL    HW140880   5.209   9.960   7.690
12982SOL    HW240881   5.047   9.958   7.711
12983SOL     OW40882   4.991   0.482   8.129
12983SOL    HW140883   4.936   0.566   8.124
12983SOL    HW240884   4.971   0.434   8.214
12984SOL     OW40885   5.325   0.261   8.339
12984SOL    HW140886   5.267   0.279   8.418
12984SOL    HW240887   5.310   0.333   8.270
12985SOL     OW40888   3.773   1.023   7.779
12985SOL    HW140889   3.872   1.006   7.781
12985SOL    HW240890   3.724   0.936   7.786
12986SOL     OW40891   4.633   1.721   7.734
12986SOL    HW140892   4.551   1.691   7.685
12986SOL    HW240893   4.608   1.779   7.811
12987SOL     OW40894   3.953   0.617   9.446
12987SOL    HW140895   3.929   0.710   9.474
12987SOL    HW240896   3.948   0.610   9.346
12988SOL     OW40897   5.540   0.563   9.486
12988SOL    HW140898   5.483   0.581   9.405
12988SOL    HW240899   5.493   0.498   9.546
12989SOL     OW40900   3.866   1.746   9.779
12989SOL    HW140901   3.923   1.815   9.824
12989SOL    HW240902   3.907   1.722   9.691
12990SOL     OW40903   3.996   1.487   9.817
12990SOL    HW140904   3.934   1.559   9.849
12990SOL    HW240905   3.968   1.400   9.857
12991SOL     OW40906   4.324   0.958   9.472
12991SOL    HW140907   4.351   1.014   9.394
12991SOL    HW240908   4.366   0.995   9.555
12992SOL     OW40909   3.881   0.750   9.806
12992SOL    HW140910   3.854   0.654   9.811
12992SOL    HW240911   3.844   0.799   9.885
12993SOL     OW40912   5.553   1.746   9.610
12993SOL    HW140913   5.635   1.720   9.660
12993SOL    HW240914   5.568   1.833   9.564
12994SOL     OW40915   3.661   1.651   9.389
12994SOL    HW140916   3.609   1.566   9.387
12994SOL    HW240917   3.649   1.695   9.478
12995SOL     OW40918   5.319   0.895   9.921
12995SOL    HW140919   5.398   0.894   9.983
12995SOL    HW240920   5.329   0.969   9.855
12996SOL     OW40921   5.471   1.093   9.771
12996SOL    HW140922   5.548   1.079   9.709
12996SOL    HW240923   5.504   1.136   9.855
12997SOL     OW40924   4.315   1.388   9.987
12997SOL    HW140925   4.269   1.300   9.977
12997SOL    HW240926   4.303   1.442   9.903
12998SOL     OW40927   4.538   9.987   9.824
12998SOL    HW140928   4.593   0.071   9.822
12998SOL    HW240929   4.441   0.011   9.836
12999SOL     OW40930   5.336   1.037   9.538
12999SOL    HW140931   5.253   0.990   9.566
12999SOL    HW240932   5.385   1.071   9.619
13000SOL     OW40933   4.330   0.703   9.582
13000SOL    HW140934   4.333   0.791   9.535
13000SOL    HW240935   4.263   0.707   9.656
13001SOL     OW40936   5.289   1.654   9.628
13001SOL    HW140937   5.385   1.680   9.631
13001SOL    HW240938   5.263   1.631   9.534
13002SOL     OW40939   4.767   0.696   9.719
13002SOL    HW140940   4.793   0.716   9.813
13002SOL    HW240941   4.682   0.644   9.718
13003SOL     OW40942   3.775   0.849   0.037
13003SOL    HW140943   3.795   0.759   0.075
13003SOL    HW240944   3.783   0.918   0.109
13004SOL     OW40945   4.565   0.321   9.547
13004SOL    HW140946   4.623   0.354   9.472
13004SOL    HW240947   4.499   0.255   9.512
13005SOL     OW40948   5.015   1.106   9.852
13005SOL    HW140949   5.073   1.124   9.931
13005SOL    HW240950   4.986   1.193   9.811
13006SOL     OW40951   4.689   1.445   9.811
13006SOL    HW140952   4.666   1.529   9.763
13006SOL    HW240953   4.652   1.449   9.904
13007SOL     OW40954   4.087   1.799   0.176
13007SOL    HW140955   4.099   1.700   0.173
13007SOL    HW240956   4.176   1.844   0.167
13008SOL     OW40957   4.057   0.983   9.422
13008SOL    HW140958   4.150   0.957   9.449
13008SOL    HW240959   3.991   0.935   9.479
13009SOL     OW40960   4.862   1.718   9.531
13009SOL    HW140961   4.783   1.701   9.589
13009SOL    HW240962   4.885   1.634   9.482
13010SOL     OW40963   5.381   1.401   9.384
13010SOL    HW140964   5.321   1.481   9.383
13010SOL    HW240965   5.326   1.318   9.369
13011SOL     OW40966   4.256   1.791   9.610
13011SOL    HW140967   4.255   1.729   9.689
13011SOL    HW240968   4.325   1.761   9.545
13012SOL     OW40969   5.135   0.198   9.735
13012SOL    HW140970   5.111   0.136   9.661
13012SOL    HW240971   5.234   0.194   9.751
13013SOL     OW40972   4.146   0.695   9.784
13013SOL    HW140973   4.148   0.599   9.811
13013SOL    HW240974   4.052   0.728   9.787
13014SOL     OW40975   4.382   0.116   9.470
13014SOL    HW140976   4.440   0.042   9.503
13014SOL    HW240977   4.301   0.079   9.426
13015SOL     OW40978   4.278   0.064   9.837
13015SOL    HW140979   4.212   9.995   9.809
13015SOL    HW240980   4.266   0.146   9.781
13016SOL     OW40981   5.202   1.197   9.360
13016SOL    HW140982   5.252   1.132   9.418
13016SOL    HW240983   5.117   1.223   9.405
13017SOL     OW40984   4.026   0.032   9.518
13017SOL    HW140985   4.086   0.007   9.441
13017SOL    HW240986   4.051   9.979   9.599
13018SOL     OW40987   4.682   0.228   9.776
13018SOL    HW140988   4.633   0.253   9.693
13018SOL    HW240989   4.771   0.272   9.777
13019SOL     OW40990   4.174   1.154   9.973
13019SOL    HW140991   4.080   1.180   9.949
13019SOL    HW240992   4.202   1.076   9.916
13020SOL     OW40993   5.004   1.839   9.855
13020SOL    HW140994   5.056   1.903   9.799
13020SOL    HW240995   4.945   1.889   9.919
13021SOL     OW40996   4.743   0.450   9.366
13021SOL    HW140997   4.686   0.527   9.337
13021SOL    HW240998   4.809   0.481   9.434
13022SOL     OW40999   4.597   0.440   9.940
13022SOL    HW141000   4.560   0.500   9.869
13022SOL    HW241001   4.614   0.349   9.901
13023SOL     OW41002   5.648   0.774   9.622
13023SOL    HW141003   5.637   0.748   9.718
13023SOL    HW241004   5.607   0.705   9.563
13024SOL     OW41005   5.095   0.610   9.366
13024SOL    HW141006   5.050   0.566   9.444
13024SOL    HW241007   5.193   0.588   9.367
13025SOL     OW41008   4.254   0.272   9.666
13025SOL    HW141009   4.301   0.212   9.602
13025SOL    HW241010   4.216   0.350   9.618
13026SOL     OW41011   4.440   1.041   9.706
13026SOL    HW141012   4.392   0.993   9.779
13026SOL    HW241013   4.521   0.988   9.678
13027SOL     OW41014   4.941   1.354   9.753
13027SOL    HW141015   5.000   1.434   9.764
13027SOL    HW241016   4.847   1.380   9.773
13028SOL     OW41017   5.341   0.673   9.758
13028SOL    HW141018   5.313   0.746   9.822
13028SOL    HW241019   5.314   0.698   9.665
13029SOL     OW41020   4.915   0.523   9.565
13029SOL    HW141021   4.930   0.452   9.634
13029SOL    HW241022   4.874   0.603   9.608
13030SOL     OW41023   3.934   0.017   9.952
13030SOL    HW141024   3.929   0.116   9.939
13030SOL    HW241025   3.973   9.997   0.042
13031SOL     OW41026   5.363   0.412   9.634
13031SOL    HW141027   5.382   0.326   9.682
13031SOL    HW241028   5.344   0.484   9.701
13032SOL     OW41029   5.211   0.293   9.425
13032SOL    HW141030   5.166   0.215   9.469
13032SOL    HW241031   5.267   0.342   9.493
13033SOL     OW41032   5.006   0.868   9.354
13033SOL    HW141033   5.035   0.773   9.366
13033SOL    HW241034   5.034   0.900   9.264
13034SOL     OW41035   3.750   1.352   9.475
13034SOL    HW141036   3.656   1.374   9.447
13034SOL    HW241037   3.749   1.274   9.537
13035SOL     OW41038   4.533   0.555   9.694
13035SOL    HW141039   4.538   0.469   9.644
13035SOL    HW241040   4.461   0.613   9.656
13036SOL     OW41041   4.180   0.480   9.512
13036SOL    HW141042   4.245   0.556   9.524
13036SOL    HW241043   4.089   0.517   9.493
13037SOL     OW41044   5.108   0.935   9.635
13037SOL    HW141045   5.064   0.986   9.709
13037SOL    HW241046   5.042   0.920   9.561
13038SOL     OW41047   5.409   0.159   9.738
13038SOL    HW141048   5.506   0.162   9.716
13038SOL    HW241049   5.384   0.066   9.767
13039SOL     OW41050   5.082   1.586   9.799
13039SOL    HW141051   5.164   1.595   9.742
13039SOL    HW241052   5.042   1.677   9.815
13040SOL     OW41053   4.447   1.683   9.445
13040SOL    HW141054   4.463   1.684   9.346
13040SOL    HW241055   4.397   1.599   9.469
13041SOL     OW41056   5.551   0.128   0.252
13041SOL    HW141057   5.642   0.093   0.228
13041SOL    HW241058   5.481   0.069   0.211
13042SOL     OW41059   4.942   1.505   9.374
13042SOL    HW141060   4.957   1.415   9.416
13042SOL    HW241061   4.861   1.500   9.315
13043SOL     OW41062   4.650   0.913   9.602
13043SOL    HW141063   4.711   0.969   9.546
13043SOL    HW241064   4.702   0.837   9.640
13044SOL     OW41065   5.200   1.612   9.367
13044SOL    HW141066   5.109   1.571   9.361
13044SOL    HW241067   5.238   1.623   9.275
13045SOL     OW41068   4.258   1.547   9.768
13045SOL    HW141069   4.284   1.513   9.677
13045SOL    HW241070   4.161   1.531   9.782
13046SOL     OW41071   3.916   1.565   9.564
13046SOL    HW141072   3.852   1.503   9.519
13046SOL    HW241073   3.951   1.522   9.648
13047SOL     OW41074   3.844   0.343   9.259
13047SOL    HW141075   3.748   0.337   9.232
13047SOL    HW241076   3.881   0.432   9.231
13048SOL     OW41077   3.841   0.229   9.511
13048SOL    HW141078   3.843   0.274   9.421
13048SOL    HW241079   3.910   0.157   9.514
13049SOL     OW41080   4.972   1.263   9.496
13049SOL    HW141081   4.909   1.186   9.478
13049SOL    HW241082   4.963   1.291   9.591
13050SOL     OW41083   4.923   0.350   9.777
13050SOL    HW141084   5.005   0.294   9.768
13050SOL    HW241085   4.916   0.384   9.871
13051SOL     OW41086   4.280   0.909   9.888
13051SOL    HW141087   4.287   0.898   9.988
13051SOL    HW241088   4.234   0.828   9.850
13052SOL     OW41089   4.520   1.359   9.392
13052SOL    HW141090   4.561   1.321   9.475
13052SOL    HW241091   4.592   1.402   9.336
13053SOL     OW41092   4.820   1.045   9.431
13053SOL    HW141093   4.758   1.068   9.355
13053SOL    HW241094   4.887   0.978   9.400
13054SOL     OW41095   3.915   1.235   9.905
13054SOL    HW141096   3.850   1.236   9.980
13054SOL    HW241097   3.874   1.191   9.825
13055SOL     OW41098   4.114   0.434   9.868
13055SOL    HW141099   4.174   0.367   9.825
13055SOL    HW241100   4.126   0.431   9.967
13056SOL     OW41101   4.586   1.266   9.630
13056SOL    HW141102   4.535   1.189   9.670
13056SOL    HW241103   4.625   1.321   9.703
13057SOL     OW41104   5.082   0.054   9.506
13057SOL    HW141105   5.163  10.000   9.482
13057SOL    HW241106   5.007   9.993   9.531
13058SOL     OW41107   3.819   1.130   9.656
13058SOL    HW141108   3.902   1.173   9.623
13058SOL    HW241109   3.816   1.035   9.624
13059SOL     OW41110   4.622   1.673   9.666
13059SOL    HW141111   4.564   1.670   9.585
13059SOL    HW241112   4.593   1.749   9.725
13060SOL     OW41113   3.961   2.384   0.059
13060SOL    HW141114   3.938   2.475   0.093
13060SOL    HW241115   3.975   2.388   9.960
13061SOL     OW41116   3.922   2.148   0.965
13061SOL    HW141117   3.982   2.109   1.035
13061SOL    HW241118   3.831   2.109   0.973
13062SOL     OW41119   3.718   2.285   0.618
13062SOL    HW141120   3.634   2.290   0.672
13062SOL    HW241121   3.706   2.217   0.545
13063SOL     OW41122   4.283   3.176   1.220
13063SOL    HW141123   4.197   3.173   1.170
13063SOL    HW241124   4.304   3.270   1.247
13064SOL     OW41125   5.231   3.391   0.748
13064SOL    HW141126   5.219   3.292   0.758
13064SOL    HW241127   5.197   3.420   0.659
13065SOL     OW41128   4.902   2.579   0.750
13065SOL    HW141129   4.929   2.659   0.697
13065SOL    HW241130   4.845   2.608   0.827
13066SOL     OW41131   5.420   2.476   0.180
13066SOL    HW141132   5.345   2.493   0.116
13066SOL    HW241133   5.394   2.402   0.242
13067SOL     OW41134   4.452   3.010   1.074
13067SOL    HW141135   4.380   3.044   1.135
13067SOL    HW241136   4.501   3.088   1.035
13068SOL     OW41137   4.606   2.577   1.852
13068SOL    HW141138   4.593   2.633   1.934
13068SOL    HW241139   4.625   2.637   1.774
13069SOL     OW41140   4.384   2.821   0.719
13069SOL    HW141141   4.472   2.834   0.764
13069SOL    HW241142   4.329   2.903   0.729
13070SOL     OW41143   4.405   3.004   1.846
13070SOL    HW141144   4.443   3.084   1.893
13070SOL    HW241145   4.339   3.033   1.777
13071SOL     OW41146   4.054   3.255   1.075
13071SOL    HW141147   3.991   3.194   1.027
13071SOL    HW241148   4.106   3.308   1.007
13072SOL     OW41149   5.172   3.367   1.373
13072SOL    HW141150   5.210   3.449   1.416
13072SOL    HW241151   5.088   3.340   1.419
13073SOL     OW41152   4.230   2.186   1.399
13073SOL    HW141153   4.311   2.133   1.425
13073SOL    HW241154   4.147   2.136   1.425
13074SOL     OW41155   5.320   2.345   0.769
13074SOL    HW141156   5.241   2.336   0.708
13074SOL    HW241157   5.302   2.418   0.835
13075SOL     OW41158   3.998   3.551   0.460
13075SOL    HW141159   4.008   3.632   0.518
13075SOL    HW241160   4.084   3.498   0.461
13076SOL     OW41161   4.834   3.216   1.739
13076SOL    HW141162   4.879   3.194   1.826
13076SOL    HW241163   4.766   3.146   1.719
13077SOL     OW41164   3.908   3.280   0.493
13077SOL    HW141165   3.920   3.379   0.496
13077SOL    HW241166   3.884   3.247   0.584
13078SOL     OW41167   4.077   2.929   0.976
13078SOL    HW141168   4.067   2.830   0.969
13078SOL    HW241169   3.989   2.970   0.998
13079SOL     OW41170   4.302   3.655   1.450
13079SOL    HW141171   4.228   3.655   1.517
13079SOL    HW241172   4.340   3.748   1.443
13080SOL     OW41173   5.315   2.082   1.430
13080SOL    HW141174   5.390   2.147   1.417
13080SOL    HW241175   5.285   2.084   1.525
13081SOL     OW41176   3.786   2.552   0.569
13081SOL    HW141177   3.763   2.456   0.586
13081SOL    HW241178   3.794   2.600   0.656
13082SOL     OW41179   5.595   3.555   0.314
13082SOL    HW141180   5.662   3.531   0.384
13082SOL    HW241181   5.601   3.653   0.295
13083SOL     OW41182   3.834   3.372   0.142
13083SOL    HW141183   3.784   3.285   0.148
13083SOL    HW241184   3.797   3.436   0.209
13084SOL     OW41185   5.454   2.798   0.702
13084SOL    HW141186   5.520   2.726   0.681
13084SOL    HW241187   5.442   2.857   0.623
13085SOL     OW41188   5.432   2.957   0.480
13085SOL    HW141189   5.510   2.941   0.420
13085SOL    HW241190   5.425   3.055   0.501
13086SOL     OW41191   3.822   2.576   1.538
13086SOL    HW141192   3.875   2.633   1.476
13086SOL    HW241193   3.728   2.610   1.543
13087SOL     OW41194   4.345   3.262   0.733
13087SOL    HW141195   4.305   3.171   0.748
13087SOL    HW241196   4.330   3.288   0.637
13088SOL     OW41197   4.924   2.994   1.463
13088SOL    HW141198   4.959   2.956   1.377
13088SOL    HW241199   5.000   3.020   1.522
13089SOL     OW41200   4.524   1.955   0.406
13089SOL    HW141201   4.532   2.032   0.343
13089SOL    HW241202   4.434   1.957   0.450
13090SOL     OW41203   3.916   2.724   1.325
13090SOL    HW141204   4.013   2.710   1.305
13090SOL    HW241205   3.861   2.676   1.257
13091SOL     OW41206   5.210   2.880   0.326
13091SOL    HW141207   5.170   2.789   0.334
13091SOL    HW241208   5.295   2.884   0.379
13092SOL     OW41209   4.985   3.750   1.660
13092SOL    HW141210   4.946   3.797   1.582
13092SOL    HW241211   4.941   3.661   1.671
13093SOL     OW41212   4.100   2.116   1.867
13093SOL    HW141213   4.139   2.197   1.911
13093SOL    HW241214   4.005   2.134   1.840
13094SOL     OW41215   5.311   3.754   0.480
13094SOL    HW141216   5.318   3.671   0.424
13094SOL    HW241217   5.296   3.729   0.575
13095SOL     OW41218   5.052   2.260   0.969
13095SOL    HW141219   4.967   2.207   0.970
13095SOL    HW241220   5.110   2.232   1.045
13096SOL     OW41221   5.313   3.528   0.328
13096SOL    HW141222   5.413   3.520   0.319
13096SOL    HW241223   5.270   3.495   0.244
13097SOL     OW41224   4.503   2.419   1.457
13097SOL    HW141225   4.471   2.387   1.547
13097SOL    HW241226   4.483   2.349   1.388
13098SOL     OW41227   5.114   2.301   1.676
13098SOL    HW141228   5.110   2.358   1.758
13098SOL    HW241229   5.180   2.228   1.689
13099SOL     OW41230   4.664   2.732   1.631
13099SOL    HW141231   4.718   2.667   1.578
13099SOL    HW241232   4.603   2.783   1.570
13100SOL     OW41233   4.735   2.267   1.173
13100SOL    HW141234   4.640   2.256   1.201
13100SOL    HW241235   4.757   2.199   1.103
13101SOL     OW41236   3.804   2.707   0.793
13101SOL    HW141237   3.892   2.690   0.837
13101SOL    HW241238   3.750   2.770   0.850
13102SOL     OW41239   3.868   3.732   1.573
13102SOL    HW141240   3.850   3.706   1.668
13102SOL    HW241241   3.782   3.743   1.524
13103SOL     OW41242   4.552   2.127   0.172
13103SOL    HW141243   4.557   2.187   0.092
13103SOL    HW241244   4.574   2.033   0.145
13104SOL     OW41245   5.378   2.447   1.828
13104SOL    HW141246   5.366   2.534   1.780
13104SOL    HW241247   5.421   2.381   1.766
13105SOL     OW41248   5.099   3.036   0.522
13105SOL    HW141249   5.139   2.988   0.444
13105SOL    HW241250   5.040   3.110   0.489
13106SOL     OW41251   4.415   2.163   0.887
13106SOL    HW141252   4.391   2.111   0.968
13106SOL    HW241253   4.348   2.235   0.872
13107SOL     OW41254   4.686   3.287   0.466
13107SOL    HW141255   4.660   3.381   0.445
13107SOL    HW241256   4.672   3.269   0.563
13108SOL     OW41257   4.082   3.650   0.875
13108SOL    HW141258   4.119   3.558   0.885
13108SOL    HW241259   4.151   3.717   0.902
13109SOL     OW41260   5.517   2.889   0.958
13109SOL    HW141261   5.491   2.869   0.864
13109SOL    HW241262   5.439   2.928   1.007
13110SOL     OW41263   4.944   3.292   1.489
13110SOL    HW141264   4.923   3.264   1.583
13110SOL    HW241265   4.871   3.263   1.428
13111SOL     OW41266   5.219   2.661   0.719
13111SOL    HW141267   5.202   2.613   0.805
13111SOL    HW241268   5.305   2.711   0.726
13112SOL     OW41269   4.217   3.127   1.692
13112SOL    HW141270   4.180   3.143   1.600
13112SOL    HW241271   4.144   3.137   1.760
13113SOL     OW41272   4.769   3.602   0.210
13113SOL    HW141273   4.724   3.574   0.294
13113SOL    HW241274   4.809   3.522   0.165
13114SOL     OW41275   3.976   2.084   1.427
13114SOL    HW141276   3.927   2.171   1.434
13114SOL    HW241277   3.928   2.014   1.480
13115SOL     OW41278   5.360   3.205   0.092
13115SOL    HW141279   5.312   3.292   0.101
13115SOL    HW241280   5.293   3.131   0.084
13116SOL     OW41281   4.333   3.577   0.342
13116SOL    HW141282   4.315   3.663   0.388
13116SOL    HW241283   4.330   3.590   0.243
13117SOL     OW41284   5.095   1.977   0.460
13117SOL    HW141285   5.088   1.963   0.361
13117SOL    HW241286   5.190   1.963   0.489
13118SOL     OW41287   3.946   3.656   1.217
13118SOL    HW141288   3.995   3.575   1.249
13118SOL    HW241289   3.911   3.639   1.125
13119SOL     OW41290   4.709   3.568   0.877
13119SOL    HW141291   4.799   3.526   0.883
13119SOL    HW241292   4.652   3.515   0.814
13120SOL     OW41293   4.060   2.541   0.520
13120SOL    HW141294   4.084   2.447   0.498
13120SOL    HW241295   3.961   2.551   0.524
13121SOL     OW41296   5.293   2.067   1.721
13121SOL    HW141297   5.272   2.091   1.816
13121SOL    HW241298   5.307   1.968   1.715
13122SOL     OW41299   4.323   1.919   0.119
13122SOL    HW141300   4.418   1.888   0.129
13122SOL    HW241301   4.307   1.944   0.023
13123SOL     OW41302   4.494   2.113   1.735
13123SOL    HW141303   4.578   2.059   1.740
13123SOL    HW241304   4.426   2.075   1.798
13124SOL     OW41305   4.596   3.367   1.233
13124SOL    HW141306   4.576   3.342   1.139
13124SOL    HW241307   4.650   3.295   1.276
13125SOL     OW41308   4.990   2.450   1.475
13125SOL    HW141309   5.043   2.408   1.549
13125SOL    HW241310   5.036   2.533   1.445
13126SOL     OW41311   4.549   3.251   0.979
13126SOL    HW141312   4.640   3.243   0.940
13126SOL    HW241313   4.484   3.274   0.906
13127SOL     OW41314   4.677   2.424   0.958
13127SOL    HW141315   4.672   2.360   0.882
13127SOL    HW241316   4.713   2.377   1.039
13128SOL     OW41317   4.253   1.939   0.494
13128SOL    HW141318   4.172   1.928   0.552
13128SOL    HW241319   4.234   2.006   0.423
13129SOL     OW41320   5.167   3.018   0.085
13129SOL    HW141321   5.188   2.955   0.160
13129SOL    HW241322   5.084   3.069   0.107
13130SOL     OW41323   4.739   2.555   1.432
13130SOL    HW141324   4.662   2.491   1.443
13130SOL    HW241325   4.825   2.506   1.446
13131SOL     OW41326   4.960   3.441   0.874
13131SOL    HW141327   5.037   3.453   0.811
13131SOL    HW241328   4.994   3.427   0.967
13132SOL     OW41329   4.208   3.029   0.761
13132SOL    HW141330   4.174   2.998   0.850
13132SOL    HW241331   4.140   3.010   0.691
13133SOL     OW41332   4.973   3.688   0.570
13133SOL    HW141333   4.998   3.755   0.500
13133SOL    HW241334   4.903   3.726   0.629
13134SOL     OW41335   4.767   2.446   0.023
13134SOL    HW141336   4.698   2.375   0.006
13134SOL    HW241337   4.802   2.436   0.116
13135SOL     OW41338   3.861   2.345   1.402
13135SOL    HW141339   3.952   2.357   1.363
13135SOL    HW241340   3.842   2.419   1.466
13136SOL     OW41341   4.329   2.041   1.128
13136SOL    HW141342   4.362   1.965   1.184
13136SOL    HW241343   4.230   2.050   1.139
13137SOL     OW41344   5.183   2.509   0.951
13137SOL    HW141345   5.122   2.430   0.952
13137SOL    HW241346   5.244   2.505   1.030
13138SOL     OW41347   5.539   2.644   0.391
13138SOL    HW141348   5.575   2.610   0.478
13138SOL    HW241349   5.471   2.580   0.356
13139SOL     OW41350   5.092   2.412   0.082
13139SOL    HW141351   5.013   2.416   0.143
13139SOL    HW241352   5.136   2.322   0.091
13140SOL     OW41353   4.216   2.109   0.286
13140SOL    HW141354   4.258   2.040   0.227
13140SOL    HW241355   4.217   2.198   0.240
13141SOL     OW41356   5.438   3.074   1.536
13141SOL    HW141357   5.534   3.061   1.509
13141SOL    HW241358   5.434   3.127   1.620
13142SOL     OW41359   4.737   3.154   1.351
13142SOL    HW141360   4.642   3.134   1.374
13142SOL    HW241361   4.797   3.090   1.397
13143SOL     OW41362   5.407   3.535   1.750
13143SOL    HW141363   5.447   3.546   1.659
13143SOL    HW241364   5.481   3.524   1.818
13144SOL     OW41365   4.898   3.149   1.128
13144SOL    HW141366   4.830   3.151   1.201
13144SOL    HW241367   4.854   3.164   1.040
13145SOL     OW41368   4.667   1.913   1.357
13145SOL    HW141369   4.693   1.901   1.261
13145SOL    HW241370   4.744   1.949   1.408
13146SOL     OW41371   4.672   2.977   1.755
13146SOL    HW141372   4.574   2.988   1.775
13146SOL    HW241373   4.686   2.894   1.702
13147SOL     OW41374   4.173   2.648   1.285
13147SOL    HW141375   4.236   2.658   1.362
13147SOL    HW241376   4.146   2.551   1.277
13148SOL     OW41377   4.948   2.229   1.329
13148SOL    HW141378   4.965   2.309   1.386
13148SOL    HW241379   4.868   2.245   1.271
13149SOL     OW41380   3.792   3.400   1.385
13149SOL    HW141381   3.735   3.466   1.336
13149SOL    HW241382   3.888   3.419   1.366
13150SOL     OW41383   4.003   2.951   0.592
13150SOL    HW141384   3.989   2.986   0.499
13150SOL    HW241385   4.004   2.851   0.591
13151SOL     OW41386   4.256   2.391   0.887
13151SOL    HW141387   4.246   2.459   0.814
13151SOL    HW241388   4.323   2.424   0.954
13152SOL     OW41389   4.953   3.241   0.421
13152SOL    HW141390   5.006   3.320   0.453
13152SOL    HW241391   4.856   3.257   0.439
13153SOL     OW41392   5.044   3.380   1.130
13153SOL    HW141393   5.101   3.383   1.212
13153SOL    HW241394   4.993   3.294   1.127
13154SOL     OW41395   5.255   2.510   0.489
13154SOL    HW141396   5.244   2.555   0.577
13154SOL    HW241397   5.193   2.550   0.422
13155SOL     OW41398   4.057   3.412   1.291
13155SOL    HW141399   4.046   3.354   1.211
13155SOL    HW241400   4.154   3.430   1.307
13156SOL     OW41401   4.209   2.542   1.690
13156SOL    HW141402   4.245   2.593   1.611
13156SOL    HW241403   4.276   2.475   1.721
13157SOL     OW41404   5.338   2.684   1.704
13157SOL    HW141405   5.240   2.705   1.699
13157SOL    HW241406   5.382   2.712   1.618
13158SOL     OW41407   4.712   1.959   1.754
13158SOL    HW141408   4.781   2.032   1.754
13158SOL    HW241409   4.753   1.875   1.719
13159SOL     OW41410   4.250   1.901   1.763
13159SOL    HW141411   4.199   1.850   1.693
13159SOL    HW241412   4.200   1.984   1.787
13160SOL     OW41413   4.399   2.739   1.144
13160SOL    HW141414   4.409   2.834   1.114
13160SOL    HW241415   4.308   2.725   1.183
13161SOL     OW41416   5.033   2.727   1.026
13161SOL    HW141417   4.937   2.713   1.002
13161SOL    HW241418   5.088   2.649   0.995
13162SOL     OW41419   4.888   2.417   0.292
13162SOL    HW141420   4.949   2.351   0.338
13162SOL    HW241421   4.801   2.421   0.341
13163SOL     OW41422   4.056   2.032   1.167
13163SOL    HW141423   4.030   2.050   1.262
13163SOL    HW241424   4.035   1.938   1.143
13164SOL     OW41425   3.780   3.149   1.265
13164SOL    HW141426   3.822   3.081   1.325
13164SOL    HW241427   3.783   3.239   1.309
13165SOL     OW41428   4.434   2.482   1.064
13165SOL    HW141429   4.523   2.472   1.020
13165SOL    HW241430   4.421   2.578   1.090
13166SOL     OW41431   5.488   2.857   1.859
13166SOL    HW141432   5.437   2.787   1.808
13166SOL    HW241433   5.438   2.881   1.942
13167SOL     OW41434   4.019   1.886   0.642
13167SOL    HW141435   3.985   1.980   0.652
13167SOL    HW241436   4.019   1.842   0.732
13168SOL     OW41437   5.336   2.286   0.353
13168SOL    HW141438   5.395   2.225   0.405
13168SOL    HW241439   5.296   2.354   0.414
13169SOL     OW41440   4.765   2.674   0.985
13169SOL    HW141441   4.742   2.704   1.077
13169SOL    HW241442   4.731   2.581   0.970
13170SOL     OW41443   4.827   3.494   1.684
13170SOL    HW141444   4.783   3.522   1.598
13170SOL    HW241445   4.812   3.396   1.698
13171SOL     OW41446   4.092   2.768   1.806
13171SOL    HW141447   4.154   2.797   1.880
13171SOL    HW241448   4.129   2.686   1.763
13172SOL     OW41449   5.196   2.172   0.143
13172SOL    HW141450   5.153   2.083   0.161
13172SOL    HW241451   5.241   2.204   0.226
13173SOL     OW41452   5.109   2.681   0.048
13173SOL    HW141453   5.100   2.583   0.036
13173SOL    HW241454   5.186   2.715   9.995
13174SOL     OW41455   4.797   3.218   0.884
13174SOL    HW141456   4.810   3.141   0.821
13174SOL    HW241457   4.859   3.292   0.859
13175SOL     OW41458   4.039   2.660   0.922
13175SOL    HW141459   4.109   2.649   0.853
13175SOL    HW241460   4.026   2.573   0.971
13176SOL     OW41461   4.018   2.395   1.011
13176SOL    HW141462   3.968   2.311   0.990
13176SOL    HW241463   4.106   2.394   0.963
13177SOL     OW41464   4.873   2.177   1.714
13177SOL    HW141465   4.822   2.239   1.774
13177SOL    HW241466   4.962   2.216   1.692
13178SOL     OW41467   4.882   2.016   1.489
13178SOL    HW141468   4.871   2.065   1.576
13178SOL    HW241469   4.919   2.077   1.420
13179SOL     OW41470   3.702   3.129   0.115
13179SOL    HW141471   3.614   3.147   0.071
13179SOL    HW241472   3.690   3.056   0.183
13180SOL     OW41473   3.824   3.625   0.972
13180SOL    HW141474   3.767   3.562   0.920
13180SOL    HW241475   3.913   3.635   0.926
13181SOL     OW41476   4.212   3.412   0.915
13181SOL    HW141477   4.286   3.469   0.953
13181SOL    HW241478   4.249   3.353   0.843
13182SOL     OW41479   4.663   2.721   1.229
13182SOL    HW141480   4.691   2.657   1.301
13182SOL    HW241481   4.565   2.709   1.210
13183SOL     OW41482   3.792   2.494   1.172
13183SOL    HW141483   3.860   2.471   1.102
13183SOL    HW241484   3.807   2.436   1.253
13184SOL     OW41485   3.950   2.458   1.751
13184SOL    HW141486   4.047   2.476   1.734
13184SOL    HW241487   3.895   2.503   1.680
13185SOL     OW41488   5.086   2.771   1.645
13185SOL    HW141489   5.102   2.869   1.640
13185SOL    HW241490   5.074   2.735   1.552
13186SOL     OW41491   4.455   2.332   0.320
13186SOL    HW141492   4.489   2.253   0.269
13186SOL    HW241493   4.365   2.358   0.286
13187SOL     OW41494   5.345   2.482   1.160
13187SOL    HW141495   5.318   2.395   1.200
13187SOL    HW241496   5.445   2.486   1.154
13188SOL     OW41497   4.471   2.265   1.225
13188SOL    HW141498   4.412   2.187   1.202
13188SOL    HW241499   4.444   2.344   1.169
13189SOL     OW41500   4.679   3.547   1.443
13189SOL    HW141501   4.658   3.483   1.369
13189SOL    HW241502   4.679   3.641   1.408
13190SOL     OW41503   4.221   2.344   0.150
13190SOL    HW141504   4.275   2.407   0.094
13190SOL    HW241505   4.123   2.359   0.133
13191SOL     OW41506   3.902   2.976   1.438
13191SOL    HW141507   3.906   2.967   1.538
13191SOL    HW241508   3.909   2.886   1.396
13192SOL     OW41509   5.005   2.911   1.219
13192SOL    HW141510   5.023   2.846   1.146
13192SOL    HW241511   4.976   2.999   1.179
13193SOL     OW41512   5.083   2.632   0.315
13193SOL    HW141513   5.005   2.570   0.328
13193SOL    HW241514   5.093   2.653   0.217
13194SOL     OW41515   5.509   3.590   1.230
13194SOL    HW141516   5.575   3.618   1.160
13194SOL    HW241517   5.482   3.495   1.214
13195SOL     OW41518   5.016   3.655   1.129
13195SOL    HW141519   5.108   3.694   1.126
13195SOL    HW241520   5.021   3.556   1.133
13196SOL     OW41521   3.838   3.068   1.005
13196SOL    HW141522   3.816   3.101   1.097
13196SOL    HW241523   3.765   3.007   0.974
13197SOL     OW41524   4.470   3.512   1.617
13197SOL    HW141525   4.398   3.561   1.568
13197SOL    HW241526   4.557   3.524   1.568
13198SOL     OW41527   4.601   1.880   0.071
13198SOL    HW141528   4.583   1.871   9.973
13198SOL    HW241529   4.692   1.845   0.092
13199SOL     OW41530   5.108   3.459   0.508
13199SOL    HW141531   5.178   3.482   0.441
13199SOL    HW241532   5.054   3.540   0.530
13200SOL     OW41533   3.849   3.648   1.827
13200SOL    HW141534   3.816   3.557   1.851
13200SOL    HW241535   3.912   3.680   1.897
13201SOL     OW41536   5.003   2.813   0.649
13201SOL    HW141537   5.084   2.758   0.673
13201SOL    HW241538   5.032   2.893   0.597
13202SOL     OW41539   4.477   3.115   1.411
13202SOL    HW141540   4.468   3.165   1.497
13202SOL    HW241541   4.399   3.135   1.353
13203SOL     OW41542   3.944   2.146   0.691
13203SOL    HW141543   3.867   2.201   0.660
13203SOL    HW241544   3.951   2.151   0.791
13204SOL     OW41545   4.885   3.389   0.081
13204SOL    HW141546   4.900   3.294   0.108
13204SOL    HW241547   4.840   3.392   9.992
13205SOL     OW41548   4.528   2.855   1.434
13205SOL    HW141549   4.589   2.832   1.358
13205SOL    HW241550   4.503   2.951   1.430
13206SOL     OW41551   4.675   2.801   0.199
13206SOL    HW141552   4.751   2.826   0.138
13206SOL    HW241553   4.698   2.716   0.247
13207SOL     OW41554   5.182   3.423   0.104
13207SOL    HW141555   5.085   3.418   0.129
13207SOL    HW241556   5.190   3.439   0.005
13208SOL     OW41557   4.083   3.184   1.468
13208SOL    HW141558   4.068   3.263   1.408
13208SOL    HW241559   4.020   3.111   1.443
13209SOL     OW41560   5.313   3.146   1.299
13209SOL    HW141561   5.361   3.114   1.381
13209SOL    HW241562   5.251   3.220   1.323
13210SOL     OW41563   4.808   2.993   0.737
13210SOL    HW141564   4.728   2.949   0.777
13210SOL    HW241565   4.873   2.924   0.706
13211SOL     OW41566   4.812   2.116   0.964
13211SOL    HW141567   4.755   2.136   0.885
13211SOL    HW241568   4.794   2.022   0.995
13212SOL     OW41569   4.328   3.340   0.478
13212SOL    HW141570   4.369   3.266   0.424
13212SOL    HW241571   4.324   3.423   0.422
13213SOL     OW41572   5.517   2.261   1.389
13213SOL    HW141573   5.581   2.337   1.401
13213SOL    HW241574   5.529   2.221   1.297
13214SOL     OW41575   3.946   3.057   0.345
13214SOL    HW141576   3.991   3.068   0.257
13214SOL    HW241577   3.932   3.147   0.387
13215SOL     OW41578   3.899   2.940   1.716
13215SOL    HW141579   3.807   2.904   1.731
13215SOL    HW241580   3.966   2.874   1.748
13216SOL     OW41581   4.444   2.028   1.474
13216SOL    HW141582   4.529   1.995   1.432
13216SOL    HW241583   4.463   2.061   1.566
13217SOL     OW41584   3.854   2.129   0.057
13217SOL    HW141585   3.759   2.131   0.024
13217SOL    HW241586   3.889   2.222   0.065
13218SOL     OW41587   5.089   2.692   1.383
13218SOL    HW141588   5.024   2.751   1.335
13218SOL    HW241589   5.179   2.701   1.341
13219SOL     OW41590   3.876   1.956   0.266
13219SOL    HW141591   3.864   2.026   0.195
13219SOL    HW241592   3.962   1.908   0.252
13220SOL     OW41593   4.934   3.134   0.168
13220SOL    HW141594   4.890   3.044   0.161
13220SOL    HW241595   4.938   3.162   0.264
13221SOL     OW41596   4.355   2.650   1.481
13221SOL    HW141597   4.411   2.732   1.471
13221SOL    HW241598   4.413   2.568   1.471
13222SOL     OW41599   5.276   3.739   1.111
13222SOL    HW141600   5.306   3.774   1.023
13222SOL    HW241601   5.350   3.687   1.153
13223SOL     OW41602   4.436   2.384   1.726
13223SOL    HW141603   4.497   2.442   1.779
13223SOL    HW241604   4.463   2.288   1.737
13224SOL     OW41605   5.158   3.031   1.624
13224SOL    HW141606   5.169   3.059   1.720
13224SOL    HW241607   5.244   3.047   1.576
13225SOL     OW41608   4.118   3.632   1.644
13225SOL    HW141609   4.027   3.660   1.617
13225SOL    HW241610   4.113   3.546   1.696
13226SOL     OW41611   5.319   2.749   1.239
13226SOL    HW141612   5.331   2.658   1.197
13226SOL    HW241613   5.297   2.815   1.167
13227SOL     OW41614   5.028   2.247   0.452
13227SOL    HW141615   5.044   2.149   0.458
13227SOL    HW241616   5.031   2.287   0.543
13228SOL     OW41617   4.219   2.607   0.728
13228SOL    HW141618   4.286   2.680   0.714
13228SOL    HW241619   4.172   2.588   0.642
13229SOL     OW41620   5.490   2.252   1.665
13229SOL    HW141621   5.499   2.258   1.565
13229SOL    HW241622   5.427   2.178   1.688
13230SOL     OW41623   5.437   2.795   1.478
13230SOL    HW141624   5.430   2.893   1.496
13230SOL    HW241625   5.399   2.776   1.387
13231SOL     OW41626   4.494   3.371   9.959
13231SOL    HW141627   4.439   3.353   0.040
13231SOL    HW241628   4.436   3.372   9.878
13232SOL     OW41629   4.417   3.580   0.967
13232SOL    HW141630   4.383   3.673   0.953
13232SOL    HW241631   4.517   3.580   0.958
13233SOL     OW41632   4.604   2.872   0.879
13233SOL    HW141633   4.662   2.800   0.916
13233SOL    HW241634   4.551   2.914   0.953
13234SOL     OW41635   4.896   2.863   0.050
13234SOL    HW141636   4.910   2.912   9.964
13234SOL    HW241637   4.966   2.792   0.059
13235SOL     OW41638   5.459   3.467   0.920
13235SOL    HW141639   5.384   3.445   0.858
13235SOL    HW241640   5.458   3.404   0.997
13236SOL     OW41641   4.002   3.167   1.850
13236SOL    HW141642   3.952   3.094   1.803
13236SOL    HW241643   3.984   3.162   1.948
13237SOL     OW41644   3.852   3.140   0.730
13237SOL    HW141645   3.850   3.126   0.829
13237SOL    HW241646   3.905   3.068   0.686
13238SOL     OW41647   4.456   3.245   1.647
13238SOL    HW141648   4.362   3.216   1.668
13238SOL    HW241649   4.460   3.345   1.645
13239SOL     OW41650   5.535   2.137   1.145
13239SOL    HW141651   5.535   2.040   1.170
13239SOL    HW241652   5.477   2.151   1.065
13240SOL     OW41653   4.093   2.273   0.487
13240SOL    HW141654   4.133   2.211   0.419
13240SOL    HW241655   4.051   2.219   0.560
13241SOL     OW41656   5.480   3.325   1.165
13241SOL    HW141657   5.408   3.266   1.201
13241SOL    HW241658   5.569   3.287   1.188
13242SOL     OW41659   4.097   2.387   1.278
13242SOL    HW141660   4.158   2.318   1.316
13242SOL    HW241661   4.086   2.371   1.180
13243SOL     OW41662   4.560   3.435   0.696
13243SOL    HW141663   4.557   3.477   0.605
13243SOL    HW241664   4.479   3.378   0.710
13244SOL     OW41665   5.186   2.202   1.208
13244SOL    HW141666   5.243   2.147   1.268
13244SOL    HW241667   5.096   2.214   1.248
13245SOL     OW41668   4.774   1.869   1.098
13245SOL    HW141669   4.734   1.813   1.026
13245SOL    HW241670   4.862   1.830   1.126
13246SOL     OW41671   4.469   3.156   0.322
13246SOL    HW141672   4.461   3.058   0.304
13246SOL    HW241673   4.559   3.176   0.362
13247SOL     OW41674   4.334   3.434   1.299
13247SOL    HW141675   4.327   3.519   1.352
13247SOL    HW241676   4.430   3.420   1.273
13248SOL     OW41677   5.081   1.922   0.195
13248SOL    HW141678   5.147   1.856   0.160
13248SOL    HW241679   4.988   1.888   0.180
13249SOL     OW41680   5.042   2.347   0.707
13249SOL    HW141681   4.989   2.432   0.711
13249SOL    HW241682   5.041   2.302   0.796
13250SOL     OW41683   3.709   2.929   0.305
13250SOL    HW141684   3.799   2.967   0.324
13250SOL    HW241685   3.714   2.829   0.305
13251SOL     OW41686   4.592   3.547   0.434
13251SOL    HW141687   4.503   3.540   0.388
13251SOL    HW241688   4.603   3.640   0.471
13252SOL     OW41689   3.913   2.524   2.015
13252SOL    HW141690   3.820   2.498   2.042
13252SOL    HW241691   3.923   2.512   1.916
13253SOL     OW41692   3.924   2.163   2.844
13253SOL    HW141693   3.968   2.134   2.930
13253SOL    HW241694   3.832   2.125   2.840
13254SOL     OW41695   3.751   2.296   2.448
13254SOL    HW141696   3.673   2.357   2.458
13254SOL    HW241697   3.725   2.217   2.393
13255SOL     OW41698   5.312   3.401   2.556
13255SOL    HW141699   5.265   3.363   2.636
13255SOL    HW241700   5.247   3.411   2.481
13256SOL     OW41701   4.832   2.601   2.520
13256SOL    HW141702   4.890   2.679   2.498
13256SOL    HW241703   4.790   2.614   2.610
13257SOL     OW41704   5.516   2.430   2.056
13257SOL    HW141705   5.471   2.445   1.969
13257SOL    HW241706   5.465   2.362   2.109
13258SOL     OW41707   4.463   2.926   2.942
13258SOL    HW141708   4.484   2.915   3.039
13258SOL    HW241709   4.475   3.022   2.915
13259SOL     OW41710   4.619   2.571   3.684
13259SOL    HW141711   4.620   2.635   3.761
13259SOL    HW241712   4.634   2.621   3.598
13260SOL     OW41713   4.418   2.836   2.493
13260SOL    HW141714   4.485   2.843   2.567
13260SOL    HW241715   4.332   2.880   2.521
13261SOL     OW41716   4.425   2.966   3.725
13261SOL    HW141717   4.485   3.031   3.772
13261SOL    HW241718   4.351   3.016   3.680
13262SOL     OW41719   5.162   3.367   3.237
13262SOL    HW141720   5.204   3.457   3.250
13262SOL    HW241721   5.079   3.362   3.293
13263SOL     OW41722   4.201   2.202   3.317
13263SOL    HW141723   4.290   2.157   3.327
13263SOL    HW241724   4.128   2.134   3.324
13264SOL     OW41725   5.343   2.340   2.601
13264SOL    HW141726   5.335   2.377   2.508
13264SOL    HW241727   5.287   2.394   2.664
13265SOL     OW41728   3.954   3.595   2.341
13265SOL    HW141729   3.962   3.663   2.414
13265SOL    HW241730   4.033   3.600   2.281
13266SOL     OW41731   4.799   3.184   3.553
13266SOL    HW141732   4.856   3.183   3.634
13266SOL    HW241733   4.747   3.099   3.547
13267SOL     OW41734   4.003   3.323   2.348
13267SOL    HW141735   3.973   3.419   2.358
13267SOL    HW241736   3.958   3.267   2.418
13268SOL     OW41737   3.967   2.967   2.735
13268SOL    HW141738   3.991   2.876   2.766
13268SOL    HW241739   3.890   3.002   2.788
13269SOL     OW41740   4.321   3.612   3.349
13269SOL    HW141741   4.229   3.608   3.388
13269SOL    HW241742   4.360   3.703   3.362
13270SOL     OW41743   4.268   2.841   2.024
13270SOL    HW141744   4.317   2.887   1.949
13270SOL    HW241745   4.309   2.868   2.111
13271SOL     OW41746   5.405   1.959   3.406
13271SOL    HW141747   5.433   2.038   3.352
13271SOL    HW241748   5.343   1.988   3.478
13272SOL     OW41749   3.880   2.531   2.377
13272SOL    HW141750   3.850   2.438   2.398
13272SOL    HW241751   3.880   2.586   2.460
13273SOL     OW41752   5.587   3.619   2.213
13273SOL    HW141753   5.665   3.611   2.275
13273SOL    HW241754   5.583   3.711   2.175
13274SOL     OW41755   3.752   3.408   1.922
13274SOL    HW141756   3.735   3.311   1.942
13274SOL    HW241757   3.745   3.462   2.006
13275SOL     OW41758   5.433   2.807   2.527
13275SOL    HW141759   5.525   2.767   2.522
13275SOL    HW241760   5.419   2.869   2.450
13276SOL     OW41761   5.419   2.992   2.318
13276SOL    HW141762   5.503   2.957   2.276
13276SOL    HW241763   5.441   3.074   2.372
13277SOL     OW41764   3.891   2.546   3.431
13277SOL    HW141765   3.966   2.605   3.462
13277SOL    HW241766   3.814   2.603   3.402
13278SOL     OW41767   4.349   3.181   2.624
13278SOL    HW141768   4.301   3.094   2.618
13278SOL    HW241769   4.318   3.242   2.550
13279SOL     OW41770   4.963   3.028   3.299
13279SOL    HW141771   4.986   2.969   3.222
13279SOL    HW241772   5.045   3.044   3.354
13280SOL     OW41773   4.519   1.923   2.222
13280SOL    HW141774   4.578   2.002   2.243
13280SOL    HW241775   4.437   1.927   2.280
13281SOL     OW41776   3.910   2.802   3.155
13281SOL    HW141777   3.996   2.751   3.153
13281SOL    HW241778   3.885   2.829   3.062
13282SOL     OW41779   5.311   2.921   2.071
13282SOL    HW141780   5.237   2.856   2.089
13282SOL    HW241781   5.350   2.951   2.158
13283SOL     OW41782   4.865   3.706   3.453
13283SOL    HW141783   4.858   3.791   3.401
13283SOL    HW241784   4.934   3.647   3.413
13284SOL     OW41785   4.096   2.154   3.705
13284SOL    HW141786   4.132   2.220   3.771
13284SOL    HW241787   4.050   2.202   3.630
13285SOL     OW41788   5.174   3.299   2.766
13285SOL    HW141789   5.131   3.314   2.855
13285SOL    HW241790   5.161   3.204   2.738
13286SOL     OW41791   5.355   3.738   2.440
13286SOL    HW141792   5.349   3.663   2.374
13286SOL    HW241793   5.390   3.702   2.527
13287SOL     OW41794   4.296   2.570   2.103
13287SOL    HW141795   4.290   2.663   2.068
13287SOL    HW241796   4.240   2.562   2.186
13288SOL     OW41797   4.990   2.276   2.796
13288SOL    HW141798   4.900   2.233   2.804
13288SOL    HW241799   5.056   2.227   2.853
13289SOL     OW41800   5.323   3.557   2.226
13289SOL    HW141801   5.422   3.568   2.225
13289SOL    HW241802   5.289   3.546   2.133
13290SOL     OW41803   4.499   2.439   3.298
13290SOL    HW141804   4.474   2.415   3.392
13290SOL    HW241805   4.472   2.366   3.236
13291SOL     OW41806   5.111   2.337   3.529
13291SOL    HW141807   5.109   2.385   3.617
13291SOL    HW241808   5.170   2.256   3.537
13292SOL     OW41809   4.651   2.717   3.446
13292SOL    HW141810   4.704   2.653   3.389
13292SOL    HW241811   4.593   2.774   3.387
13293SOL     OW41812   4.716   2.251   3.079
13293SOL    HW141813   4.619   2.251   3.104
13293SOL    HW241814   4.728   2.207   2.991
13294SOL     OW41815   4.760   2.568   2.250
13294SOL    HW141816   4.777   2.574   2.349
13294SOL    HW241817   4.673   2.521   2.235
13295SOL     OW41818   3.861   2.686   2.588
13295SOL    HW141819   3.915   2.709   2.669
13295SOL    HW241820   3.797   2.760   2.568
13296SOL     OW41821   3.831   3.730   3.513
13296SOL    HW141822   3.828   3.669   3.592
13296SOL    HW241823   3.737   3.754   3.486
13297SOL     OW41824   4.564   2.227   2.030
13297SOL    HW141825   4.632   2.260   1.964
13297SOL    HW241826   4.511   2.153   1.988
13298SOL     OW41827   5.380   2.444   3.735
13298SOL    HW141828   5.381   2.530   3.683
13298SOL    HW241829   5.413   2.370   3.677
13299SOL     OW41830   5.133   3.043   2.410
13299SOL    HW141831   5.223   3.035   2.368
13299SOL    HW241832   5.077   3.108   2.357
13300SOL     OW41833   4.291   1.939   2.801
13300SOL    HW141834   4.290   1.970   2.896
13300SOL    HW241835   4.321   2.014   2.742
13301SOL     OW41836   4.695   3.322   2.322
13301SOL    HW141837   4.686   3.409   2.274
13301SOL    HW241838   4.662   3.333   2.416
13302SOL     OW41839   5.513   2.914   2.768
13302SOL    HW141840   5.469   2.890   2.681
13302SOL    HW241841   5.443   2.937   2.835
13303SOL     OW41842   4.922   3.359   3.362
13303SOL    HW141843   4.892   3.285   3.423
13303SOL    HW241844   4.842   3.407   3.327
13304SOL     OW41845   3.991   2.781   2.113
13304SOL    HW141846   4.081   2.803   2.075
13304SOL    HW241847   3.965   2.689   2.086
13305SOL     OW41848   5.207   2.655   2.553
13305SOL    HW141849   5.197   2.603   2.638
13305SOL    HW241850   5.290   2.711   2.558
13306SOL     OW41851   4.216   3.120   3.616
13306SOL    HW141852   4.189   3.123   3.520
13306SOL    HW241853   4.135   3.119   3.674
13307SOL     OW41854   4.841   3.653   2.041
13307SOL    HW141855   4.769   3.624   2.104
13307SOL    HW241856   4.883   3.572   1.999
13308SOL     OW41857   3.950   2.077   3.355
13308SOL    HW141858   3.947   2.162   3.408
13308SOL    HW241859   3.899   2.006   3.403
13309SOL     OW41860   5.385   3.272   1.988
13309SOL    HW141861   5.330   3.355   1.996
13309SOL    HW241862   5.330   3.199   1.946
13310SOL     OW41863   4.187   3.620   2.201
13310SOL    HW141864   4.241   3.676   2.263
13310SOL    HW241865   4.241   3.544   2.168
13311SOL     OW41866   5.109   1.977   2.348
13311SOL    HW141867   5.100   1.957   2.251
13311SOL    HW241868   5.204   1.964   2.376
13312SOL     OW41869   4.017   3.646   3.122
13312SOL    HW141870   4.062   3.574   3.176
13312SOL    HW241871   4.025   3.624   3.025
13313SOL     OW41872   4.691   3.514   2.742
13313SOL    HW141873   4.783   3.476   2.728
13313SOL    HW241874   4.626   3.466   2.683
13314SOL     OW41875   4.149   2.520   2.325
13314SOL    HW141876   4.163   2.424   2.353
13314SOL    HW241877   4.052   2.543   2.333
13315SOL     OW41878   5.227   2.081   3.599
13315SOL    HW141879   5.228   2.095   3.698
13315SOL    HW241880   5.148   2.027   3.573
13316SOL     OW41881   4.396   2.001   1.982
13316SOL    HW141882   4.452   1.953   2.050
13316SOL    HW241883   4.356   1.934   1.919
13317SOL     OW41884   4.501   2.127   3.613
13317SOL    HW141885   4.588   2.078   3.604
13317SOL    HW241886   4.449   2.087   3.689
13318SOL     OW41887   4.576   3.309   3.087
13318SOL    HW141888   4.549   3.279   2.996
13318SOL    HW241889   4.630   3.238   3.131
13319SOL     OW41890   5.022   2.453   3.297
13319SOL    HW141891   5.061   2.420   3.383
13319SOL    HW241892   5.061   2.542   3.275
13320SOL     OW41893   4.519   3.180   2.845
13320SOL    HW141894   4.610   3.191   2.805
13320SOL    HW241895   4.451   3.184   2.772
13321SOL     OW41896   4.626   2.363   2.740
13321SOL    HW141897   4.599   2.339   2.646
13321SOL    HW241898   4.667   2.284   2.784
13322SOL     OW41899   4.267   1.930   2.329
13322SOL    HW141900   4.194   1.917   2.395
13322SOL    HW241901   4.248   2.012   2.274
13323SOL     OW41902   5.197   3.091   1.891
13323SOL    HW141903   5.238   3.021   1.950
13323SOL    HW241904   5.109   3.119   1.929
13324SOL     OW41905   4.030   1.887   2.003
13324SOL    HW141906   4.072   1.967   1.961
13324SOL    HW241907   4.101   1.831   2.047
13325SOL     OW41908   4.665   2.155   2.268
13325SOL    HW141909   4.636   2.188   2.179
13325SOL    HW241910   4.764   2.166   2.277
13326SOL     OW41911   4.762   2.543   3.272
13326SOL    HW141912   4.689   2.474   3.281
13326SOL    HW241913   4.851   2.498   3.279
13327SOL     OW41914   4.934   3.415   2.661
13327SOL    HW141915   4.949   3.490   2.597
13327SOL    HW241916   5.022   3.383   2.696
13328SOL     OW41917   4.181   2.969   2.552
13328SOL    HW141918   4.110   2.966   2.622
13328SOL    HW241919   4.138   2.971   2.462
13329SOL     OW41920   4.964   3.643   2.493
13329SOL    HW141921   5.014   3.713   2.443
13329SOL    HW241922   4.886   3.685   2.540
13330SOL     OW41923   4.760   2.353   1.889
13330SOL    HW141924   4.713   2.440   1.871
13330SOL    HW241925   4.826   2.366   1.963
13331SOL     OW41926   3.844   2.387   3.206
13331SOL    HW141927   3.938   2.378   3.173
13331SOL    HW241928   3.843   2.444   3.288
13332SOL     OW41929   4.278   2.030   3.059
13332SOL    HW141930   4.298   1.958   3.126
13332SOL    HW241931   4.182   2.056   3.065
13333SOL     OW41932   4.546   2.266   2.491
13333SOL    HW141933   4.469   2.328   2.473
13333SOL    HW241934   4.588   2.240   2.405
13334SOL     OW41935   5.117   3.043   2.696
13334SOL    HW141936   5.026   3.004   2.711
13334SOL    HW241937   5.138   3.041   2.598
13335SOL     OW41938   5.170   2.492   2.774
13335SOL    HW141939   5.102   2.419   2.786
13335SOL    HW241940   5.232   2.492   2.853
13336SOL     OW41941   5.537   2.627   2.243
13336SOL    HW141942   5.601   2.596   2.313
13336SOL    HW241943   5.538   2.562   2.167
13337SOL     OW41944   5.485   3.199   2.473
13337SOL    HW141945   5.575   3.200   2.515
13337SOL    HW241946   5.432   3.278   2.504
13338SOL     OW41947   5.101   2.446   1.908
13338SOL    HW141948   5.056   2.412   1.990
13338SOL    HW241949   5.200   2.438   1.919
13339SOL     OW41950   4.231   2.137   2.160
13339SOL    HW141951   4.294   2.095   2.094
13339SOL    HW241952   4.190   2.219   2.120
13340SOL     OW41953   5.449   3.143   3.378
13340SOL    HW141954   5.536   3.094   3.378
13340SOL    HW241955   5.463   3.237   3.409
13341SOL     OW41956   4.718   3.117   3.224
13341SOL    HW141957   4.653   3.135   3.297
13341SOL    HW241958   4.806   3.092   3.263
13342SOL     OW41959   5.334   3.562   3.525
13342SOL    HW141960   5.306   3.581   3.431
13342SOL    HW241961   5.413   3.500   3.524
13343SOL     OW41962   4.871   3.117   2.992
13343SOL    HW141963   4.806   3.121   3.068
13343SOL    HW241964   4.825   3.146   2.908
13344SOL     OW41965   5.304   2.978   2.933
13344SOL    HW141966   5.311   3.053   2.999
13344SOL    HW241967   5.231   2.997   2.868
13345SOL     OW41968   4.673   1.955   3.258
13345SOL    HW141969   4.694   1.933   3.163
13345SOL    HW241970   4.755   1.991   3.302
13346SOL     OW41971   4.665   2.947   3.583
13346SOL    HW141972   4.575   2.950   3.627
13346SOL    HW241973   4.674   2.862   3.531
13347SOL     OW41974   4.445   2.923   2.228
13347SOL    HW141975   4.437   2.890   2.322
13347SOL    HW241976   4.517   2.872   2.182
13348SOL     OW41977   4.143   2.656   3.142
13348SOL    HW141978   4.217   2.671   3.207
13348SOL    HW241979   4.121   2.558   3.137
13349SOL     OW41980   4.974   2.229   3.154
13349SOL    HW141981   5.000   2.312   3.203
13349SOL    HW241982   4.879   2.236   3.125
13350SOL     OW41983   3.827   3.429   3.215
13350SOL    HW141984   3.816   3.521   3.177
13350SOL    HW241985   3.925   3.410   3.228
13351SOL     OW41986   4.025   2.980   2.310
13351SOL    HW141987   4.014   3.050   2.241
13351SOL    HW241988   4.011   2.890   2.269
13352SOL     OW41989   4.227   2.426   2.716
13352SOL    HW141990   4.265   2.471   2.635
13352SOL    HW241991   4.296   2.422   2.788
13353SOL     OW41992   4.965   3.236   2.269
13353SOL    HW141993   5.021   3.312   2.303
13353SOL    HW241994   4.869   3.253   2.292
13354SOL     OW41995   5.049   3.324   2.998
13354SOL    HW141996   5.089   3.338   3.089
13354SOL    HW241997   4.985   3.247   3.002
13355SOL     OW41998   5.322   2.489   2.365
13355SOL    HW141999   5.261   2.549   2.417
13355SOL    HW242000   5.391   2.545   2.318
13356SOL     OW42001   4.097   3.374   3.211
13356SOL    HW142002   4.080   3.344   3.118
13356SOL    HW242003   4.195   3.371   3.231
13357SOL     OW42004   4.218   2.584   3.518
13357SOL    HW142005   4.262   2.629   3.440
13357SOL    HW242006   4.275   2.507   3.548
13358SOL     OW42007   5.384   2.668   3.581
13358SOL    HW142008   5.295   2.704   3.551
13358SOL    HW242009   5.446   2.664   3.503
13359SOL     OW42010   4.727   1.981   3.597
13359SOL    HW142011   4.788   2.061   3.595
13359SOL    HW242012   4.780   1.898   3.578
13360SOL     OW42013   4.223   1.923   3.629
13360SOL    HW142014   4.166   1.863   3.573
13360SOL    HW242015   4.174   2.007   3.649
13361SOL     OW42016   4.297   2.703   2.916
13361SOL    HW142017   4.351   2.787   2.920
13361SOL    HW242018   4.241   2.696   2.999
13362SOL     OW42019   4.988   2.697   2.858
13362SOL    HW142020   4.898   2.666   2.828
13362SOL    HW242021   5.057   2.632   2.826
13363SOL     OW42022   4.921   2.388   2.113
13363SOL    HW142023   4.936   2.312   2.176
13363SOL    HW242024   4.871   2.461   2.160
13364SOL     OW42025   4.010   2.064   3.087
13364SOL    HW142026   3.975   2.083   3.178
13364SOL    HW242027   4.004   1.966   3.068
13365SOL     OW42028   3.810   3.168   3.126
13365SOL    HW142029   3.824   3.112   3.207
13365SOL    HW242030   3.805   3.264   3.153
13366SOL     OW42031   4.422   2.455   2.909
13366SOL    HW142032   4.496   2.441   2.844
13366SOL    HW242033   4.387   2.549   2.900
13367SOL     OW42034   5.495   2.868   3.735
13367SOL    HW142035   5.454   2.789   3.689
13367SOL    HW242036   5.430   2.905   3.801
13368SOL     OW42037   4.042   1.901   2.485
13368SOL    HW142038   4.007   1.992   2.505
13368SOL    HW242039   4.053   1.850   2.570
13369SOL     OW42040   5.345   2.270   2.198
13369SOL    HW142041   5.400   2.206   2.251
13369SOL    HW242042   5.315   2.345   2.256
13370SOL     OW42043   4.730   2.608   2.786
13370SOL    HW142044   4.706   2.626   2.881
13370SOL    HW242045   4.700   2.516   2.760
13371SOL     OW42046   4.687   3.437   3.555
13371SOL    HW142047   4.685   3.471   3.461
13371SOL    HW242048   4.708   3.339   3.554
13372SOL     OW42049   5.549   3.394   3.434
13372SOL    HW142050   5.577   3.393   3.338
13372SOL    HW242051   5.630   3.403   3.493
13373SOL     OW42052   4.106   2.754   3.702
13373SOL    HW142053   4.173   2.768   3.775
13373SOL    HW242054   4.141   2.688   3.636
13374SOL     OW42055   5.238   2.130   1.980
13374SOL    HW142056   5.174   2.063   2.018
13374SOL    HW242057   5.275   2.186   2.054
13375SOL     OW42058   4.990   2.695   1.884
13375SOL    HW142059   5.017   2.599   1.894
13375SOL    HW242060   5.016   2.727   1.793
13376SOL     OW42061   4.775   3.198   2.747
13376SOL    HW142062   4.801   3.113   2.701
13376SOL    HW242063   4.828   3.274   2.708
13377SOL     OW42064   4.031   2.708   2.811
13377SOL    HW142065   4.130   2.710   2.828
13377SOL    HW242066   3.997   2.615   2.823
13378SOL     OW42067   3.984   2.428   2.828
13378SOL    HW142068   3.952   2.334   2.832
13378SOL    HW242069   4.070   2.433   2.777
13379SOL     OW42070   4.873   2.210   3.568
13379SOL    HW142071   4.818   2.254   3.639
13379SOL    HW242072   4.955   2.263   3.551
13380SOL     OW42073   4.916   2.045   3.351
13380SOL    HW142074   4.897   2.106   3.428
13380SOL    HW242075   4.949   2.100   3.274
13381SOL     OW42076   3.689   3.155   2.021
13381SOL    HW142077   3.594   3.179   2.000
13381SOL    HW242078   3.694   3.058   2.046
13382SOL     OW42079   3.788   3.655   2.837
13382SOL    HW142080   3.746   3.585   2.779
13382SOL    HW242081   3.886   3.637   2.845
13383SOL     OW42082   4.639   2.622   3.039
13383SOL    HW142083   4.696   2.607   3.119
13383SOL    HW242084   4.559   2.562   3.043
13384SOL     OW42085   3.733   2.433   2.958
13384SOL    HW142086   3.808   2.450   2.894
13384SOL    HW242087   3.770   2.422   3.050
13385SOL     OW42088   4.005   2.306   3.493
13385SOL    HW142089   4.092   2.303   3.445
13385SOL    HW242090   3.959   2.393   3.475
13386SOL     OW42091   5.157   2.780   3.484
13386SOL    HW142092   5.164   2.879   3.481
13386SOL    HW242093   5.131   2.746   3.393
13387SOL     OW42094   4.528   2.449   2.184
13387SOL    HW142095   4.535   2.366   2.129
13387SOL    HW242096   4.445   2.499   2.159
13388SOL     OW42097   5.342   2.487   2.985
13388SOL    HW142098   5.310   2.419   3.051
13388SOL    HW242099   5.441   2.484   2.978
13389SOL     OW42100   3.954   3.361   3.574
13389SOL    HW142101   3.922   3.432   3.637
13389SOL    HW242102   3.971   3.277   3.625
13390SOL     OW42103   4.441   2.259   3.100
13390SOL    HW142104   4.386   2.176   3.087
13390SOL    HW242105   4.422   2.324   3.027
13391SOL     OW42106   4.686   3.480   3.281
13391SOL    HW142107   4.650   3.428   3.203
13391SOL    HW242108   4.664   3.577   3.268
13392SOL     OW42109   4.141   2.354   2.022
13392SOL    HW142110   4.214   2.422   2.035
13392SOL    HW242111   4.052   2.399   2.029
13393SOL     OW42112   3.858   2.997   3.343
13393SOL    HW142113   3.871   2.966   3.437
13393SOL    HW242114   3.879   2.922   3.280
13394SOL     OW42115   4.984   2.878   3.061
13394SOL    HW142116   4.988   2.812   2.986
13394SOL    HW242117   4.948   2.965   3.028
13395SOL     OW42118   5.099   2.764   2.126
13395SOL    HW142119   5.042   2.732   2.201
13395SOL    HW242120   5.058   2.738   2.038
13396SOL     OW42121   5.478   3.611   3.049
13396SOL    HW142122   5.578   3.613   3.055
13396SOL    HW242123   5.449   3.524   3.009
13397SOL     OW42124   5.012   3.596   2.972
13397SOL    HW142125   5.097   3.645   2.954
13397SOL    HW242126   5.031   3.498   2.979
13398SOL     OW42127   3.761   3.057   2.886
13398SOL    HW142128   3.777   3.098   2.976
13398SOL    HW242129   3.663   3.044   2.873
13399SOL     OW42130   4.447   3.537   3.666
13399SOL    HW142131   4.401   3.616   3.624
13399SOL    HW242132   4.541   3.531   3.632
13400SOL     OW42133   5.508   2.100   2.335
13400SOL    HW142134   5.559   2.067   2.256
13400SOL    HW242135   5.454   2.025   2.373
13401SOL     OW42136   5.115   3.447   2.366
13401SOL    HW142137   5.185   3.489   2.308
13401SOL    HW242138   5.056   3.518   2.404
13402SOL     OW42139   3.867   3.553   3.734
13402SOL    HW142140   3.795   3.542   3.802
13402SOL    HW242141   3.940   3.610   3.771
13403SOL     OW42142   5.002   2.811   2.477
13403SOL    HW142143   5.076   2.750   2.504
13403SOL    HW242144   5.040   2.895   2.439
13404SOL     OW42145   4.495   3.158   3.384
13404SOL    HW142146   4.496   3.182   3.481
13404SOL    HW242147   4.436   3.222   3.335
13405SOL     OW42148   5.287   3.610   3.258
13405SOL    HW142149   5.356   3.605   3.186
13405SOL    HW242150   5.262   3.706   3.273
13406SOL     OW42151   5.583   2.040   2.837
13406SOL    HW142152   5.613   1.949   2.807
13406SOL    HW242153   5.495   2.062   2.794
13407SOL     OW42154   3.964   2.154   2.562
13407SOL    HW142155   3.890   2.210   2.525
13407SOL    HW242156   3.963   2.160   2.662
13408SOL     OW42157   4.973   3.444   1.917
13408SOL    HW142158   4.959   3.348   1.940
13408SOL    HW242159   4.928   3.464   1.830
13409SOL     OW42160   4.528   2.900   3.273
13409SOL    HW142161   4.616   2.924   3.232
13409SOL    HW242162   4.490   2.980   3.320
13410SOL     OW42163   4.646   2.777   2.103
13410SOL    HW142164   4.717   2.833   2.058
13410SOL    HW242165   4.690   2.705   2.157
13411SOL     OW42166   5.232   3.520   1.966
13411SOL    HW142167   5.139   3.491   1.942
13411SOL    HW242168   5.284   3.535   1.882
13412SOL     OW42169   4.098   3.142   3.373
13412SOL    HW142170   4.095   3.227   3.322
13412SOL    HW242171   4.013   3.091   3.359
13413SOL     OW42172   5.332   3.186   3.123
13413SOL    HW142173   5.392   3.155   3.197
13413SOL    HW242174   5.263   3.248   3.161
13414SOL     OW42175   4.840   2.956   2.648
13414SOL    HW142176   4.751   2.915   2.665
13414SOL    HW242177   4.890   2.901   2.581
13415SOL     OW42178   4.753   2.122   2.842
13415SOL    HW142179   4.712   2.091   2.757
13415SOL    HW242180   4.771   2.043   2.901
13416SOL     OW42181   4.277   3.323   2.406
13416SOL    HW142182   4.331   3.283   2.332
13416SOL    HW242183   4.181   3.327   2.379
13417SOL     OW42184   5.506   2.203   3.301
13417SOL    HW142185   5.558   2.287   3.291
13417SOL    HW242186   5.529   2.140   3.226
13418SOL     OW42187   3.948   3.174   2.123
13418SOL    HW142188   3.850   3.179   2.100
13418SOL    HW242189   3.968   3.241   2.194
13419SOL     OW42190   3.904   2.913   3.602
13419SOL    HW142191   3.817   2.888   3.646
13419SOL    HW242192   3.976   2.852   3.634
13420SOL     OW42193   4.432   2.049   3.361
13420SOL    HW142194   4.517   2.023   3.316
13420SOL    HW242195   4.452   2.081   3.454
13421SOL     OW42196   3.843   2.211   1.834
13421SOL    HW142197   3.754   2.201   1.790
13421SOL    HW242198   3.882   2.300   1.810
13422SOL     OW42199   5.116   2.702   3.227
13422SOL    HW142200   5.049   2.756   3.176
13422SOL    HW242201   5.206   2.711   3.184
13423SOL     OW42202   3.801   2.016   2.069
13423SOL    HW142203   3.790   2.089   2.002
13423SOL    HW242204   3.888   1.970   2.055
13424SOL     OW42205   4.950   3.163   1.999
13424SOL    HW142206   4.909   3.072   1.993
13424SOL    HW242207   4.959   3.190   2.095
13425SOL     OW42208   4.361   2.678   3.298
13425SOL    HW142209   4.417   2.760   3.285
13425SOL    HW242210   4.420   2.597   3.294
13426SOL     OW42211   5.248   3.722   2.919
13426SOL    HW142212   5.266   3.803   2.862
13426SOL    HW242213   5.332   3.694   2.965
13427SOL     OW42214   4.438   2.395   3.562
13427SOL    HW142215   4.497   2.454   3.616
13427SOL    HW242216   4.456   2.300   3.584
13428SOL     OW42217   5.198   3.047   3.461
13428SOL    HW142218   5.178   3.076   3.554
13428SOL    HW242219   5.281   3.093   3.429
13429SOL     OW42220   4.074   3.598   3.471
13429SOL    HW142221   3.991   3.654   3.466
13429SOL    HW242222   4.050   3.504   3.491
13430SOL     OW42223   5.348   2.750   3.091
13430SOL    HW142224   5.355   2.665   3.039
13430SOL    HW242225   5.334   2.827   3.029
13431SOL     OW42226   4.935   2.193   2.309
13431SOL    HW142227   4.998   2.116   2.320
13431SOL    HW242228   4.937   2.250   2.391
13432SOL     OW42229   4.347   2.563   2.510
13432SOL    HW142230   4.384   2.655   2.503
13432SOL    HW242231   4.277   2.550   2.440
13433SOL     OW42232   5.457   2.240   3.566
13433SOL    HW142233   5.474   2.234   3.468
13433SOL    HW242234   5.384   2.176   3.591
13434SOL     OW42235   5.472   2.815   3.325
13434SOL    HW142236   5.404   2.874   3.370
13434SOL    HW242237   5.437   2.787   3.236
13435SOL     OW42238   4.595   2.838   2.712
13435SOL    HW142239   4.638   2.750   2.733
13435SOL    HW242240   4.545   2.870   2.792
13436SOL     OW42241   4.840   2.915   1.956
13436SOL    HW142242   4.778   2.939   1.881
13436SOL    HW242243   4.894   2.835   1.931
13437SOL     OW42244   5.456   3.601   2.677
13437SOL    HW142245   5.410   3.530   2.624
13437SOL    HW242246   5.477   3.567   2.768
13438SOL     OW42247   3.973   3.139   3.742
13438SOL    HW142248   3.947   3.060   3.687
13438SOL    HW242249   3.907   3.151   3.816
13439SOL     OW42250   3.894   3.122   2.507
13439SOL    HW142251   3.908   3.078   2.596
13439SOL    HW242252   3.930   3.064   2.435
13440SOL     OW42253   4.444   3.263   3.641
13440SOL    HW142254   4.352   3.225   3.631
13440SOL    HW242255   4.438   3.363   3.638
13441SOL     OW42256   5.565   2.024   3.111
13441SOL    HW142257   5.625   1.946   3.123
13441SOL    HW242258   5.560   2.049   3.014
13442SOL     OW42259   4.172   2.265   2.402
13442SOL    HW142260   4.189   2.206   2.323
13442SOL    HW242261   4.105   2.221   2.463
13443SOL     OW42262   5.394   3.383   2.932
13443SOL    HW142263   5.327   3.364   2.860
13443SOL    HW242264   5.393   3.309   2.999
13444SOL     OW42265   4.107   2.384   3.133
13444SOL    HW142266   4.153   2.321   3.195
13444SOL    HW242267   4.117   2.352   3.039
13445SOL     OW42268   4.537   3.379   2.553
13445SOL    HW142269   4.470   3.432   2.502
13445SOL    HW242270   4.494   3.296   2.588
13446SOL     OW42271   5.152   2.140   2.966
13446SOL    HW142272   5.182   2.046   2.982
13446SOL    HW242273   5.093   2.169   3.041
13447SOL     OW42274   4.778   1.894   2.999
13447SOL    HW142275   4.723   1.822   2.957
13447SOL    HW242276   4.874   1.864   3.004
13448SOL     OW42277   4.455   3.210   2.217
13448SOL    HW142278   4.446   3.110   2.217
13448SOL    HW242279   4.547   3.235   2.247
13449SOL     OW42280   4.365   3.364   3.252
13449SOL    HW142281   4.363   3.457   3.289
13449SOL    HW242282   4.438   3.358   3.184
13450SOL     OW42283   5.087   1.920   2.084
13450SOL    HW142284   5.144   1.857   2.031
13450SOL    HW242285   4.996   1.881   2.096
13451SOL     OW42286   4.936   2.345   2.530
13451SOL    HW142287   4.900   2.438   2.525
13451SOL    HW242288   4.961   2.323   2.624
13452SOL     OW42289   5.332   2.105   2.755
13452SOL    HW142290   5.268   2.133   2.827
13452SOL    HW242291   5.337   2.177   2.686
13453SOL     OW42292   3.726   2.893   2.118
13453SOL    HW142293   3.824   2.885   2.103
13453SOL    HW242294   3.692   2.809   2.161
13454SOL     OW42295   4.629   3.565   2.207
13454SOL    HW142296   4.545   3.557   2.152
13454SOL    HW242297   4.615   3.633   2.278
13455SOL     OW42298   3.925   2.428   3.791
13455SOL    HW142299   3.842   2.437   3.846
13455SOL    HW242300   3.902   2.431   3.694
13456SOL     OW42301   3.689   2.347   4.424
13456SOL    HW142302   3.594   2.355   4.453
13456SOL    HW242303   3.718   2.251   4.430
13457SOL     OW42304   4.273   3.158   4.954
13457SOL    HW142305   4.198   3.187   4.894
13457SOL    HW242306   4.309   3.237   5.003
13458SOL     OW42307   4.855   2.612   4.380
13458SOL    HW142308   4.910   2.694   4.364
13458SOL    HW242309   4.805   2.622   4.466
13459SOL     OW42310   5.490   2.446   3.981
13459SOL    HW142311   5.450   2.453   3.890
13459SOL    HW242312   5.441   2.377   4.034
13460SOL     OW42313   4.487   3.032   4.831
13460SOL    HW142314   4.402   3.051   4.879
13460SOL    HW242315   4.516   3.114   4.781
13461SOL     OW42316   4.633   2.569   5.491
13461SOL    HW142317   4.657   2.637   5.560
13461SOL    HW242318   4.630   2.613   5.401
13462SOL     OW42319   4.463   2.890   4.392
13462SOL    HW142320   4.524   2.890   4.472
13462SOL    HW242321   4.389   2.955   4.407
13463SOL     OW42322   4.079   3.249   4.789
13463SOL    HW142323   3.995   3.205   4.757
13463SOL    HW242324   4.111   3.314   4.720
13464SOL     OW42325   4.112   2.245   5.253
13464SOL    HW142326   4.198   2.208   5.288
13464SOL    HW242327   4.048   2.170   5.237
13465SOL     OW42328   3.908   3.584   4.139
13465SOL    HW142329   3.897   3.630   4.227
13465SOL    HW242330   4.003   3.591   4.109
13466SOL     OW42331   4.805   3.151   5.375
13466SOL    HW142332   4.885   3.143   5.434
13466SOL    HW242333   4.740   3.078   5.397
13467SOL     OW42334   4.376   3.579   5.268
13467SOL    HW142335   4.278   3.562   5.274
13467SOL    HW242336   4.393   3.666   5.222
13468SOL     OW42337   4.293   2.828   3.926
13468SOL    HW142338   4.339   2.864   3.845
13468SOL    HW242339   4.344   2.854   4.008
13469SOL     OW42340   5.280   2.024   5.175
13469SOL    HW142341   5.356   2.086   5.157
13469SOL    HW242342   5.241   2.044   5.265
13470SOL     OW42343   3.847   2.554   4.331
13470SOL    HW142344   3.796   2.476   4.367
13470SOL    HW242345   3.859   2.622   4.404
13471SOL     OW42346   5.575   3.671   4.066
13471SOL    HW142347   5.662   3.640   4.103
13471SOL    HW242348   5.590   3.749   4.005
13472SOL     OW42349   5.487   2.844   4.313
13472SOL    HW142350   5.537   2.799   4.239
13472SOL    HW242351   5.446   2.929   4.279
13473SOL     OW42352   5.415   3.067   4.163
13473SOL    HW142353   5.488   3.028   4.107
13473SOL    HW242354   5.455   3.132   4.228
13474SOL     OW42355   3.886   2.688   5.274
13474SOL    HW142356   3.968   2.695   5.218
13474SOL    HW242357   3.808   2.728   5.225
13475SOL     OW42358   4.352   3.319   4.418
13475SOL    HW142359   4.355   3.230   4.464
13475SOL    HW242360   4.319   3.307   4.325
13476SOL     OW42361   5.115   3.096   5.104
13476SOL    HW142362   5.064   3.019   5.067
13476SOL    HW242363   5.134   3.080   5.201
13477SOL     OW42364   4.555   1.867   4.286
13477SOL    HW142365   4.590   1.950   4.243
13477SOL    HW242366   4.476   1.891   4.343
13478SOL     OW42367   3.877   2.807   4.965
13478SOL    HW142368   3.936   2.832   4.889
13478SOL    HW242369   3.827   2.724   4.944
13479SOL     OW42370   5.300   2.967   3.913
13479SOL    HW142371   5.232   2.897   3.934
13479SOL    HW242372   5.329   3.012   3.998
13480SOL     OW42373   5.047   3.776   5.356
13480SOL    HW142374   4.989   3.850   5.322
13480SOL    HW242375   5.020   3.690   5.311
13481SOL     OW42376   4.071   2.120   5.596
13481SOL    HW142377   4.121   2.194   5.640
13481SOL    HW242378   3.987   2.156   5.556
13482SOL     OW42379   5.162   3.275   4.664
13482SOL    HW142380   5.126   3.299   4.754
13482SOL    HW242381   5.141   3.179   4.644
13483SOL     OW42382   4.277   2.553   4.036
13483SOL    HW142383   4.279   2.646   3.999
13483SOL    HW242384   4.219   2.550   4.117
13484SOL     OW42385   4.991   2.266   4.643
13484SOL    HW142386   4.903   2.219   4.650
13484SOL    HW242387   5.060   2.214   4.692
13485SOL     OW42388   4.518   2.408   5.127
13485SOL    HW142389   4.507   2.378   5.222
13485SOL    HW242390   4.489   2.334   5.066
13486SOL     OW42391   5.100   2.328   5.376
13486SOL    HW142392   5.103   2.381   5.461
13486SOL    HW242393   5.142   2.239   5.390
13487SOL     OW42394   4.653   2.730   5.256
13487SOL    HW142395   4.707   2.664   5.205
13487SOL    HW242396   4.611   2.795   5.193
13488SOL     OW42397   4.730   2.215   4.918
13488SOL    HW142398   4.634   2.211   4.947
13488SOL    HW242399   4.737   2.185   4.822
13489SOL     OW42400   4.761   2.536   4.128
13489SOL    HW142401   4.786   2.558   4.223
13489SOL    HW242402   4.671   2.491   4.127
13490SOL     OW42403   3.864   2.762   4.510
13490SOL    HW142404   3.944   2.794   4.562
13490SOL    HW242405   3.780   2.793   4.556
13491SOL     OW42406   3.793   3.767   5.334
13491SOL    HW142407   3.815   3.702   5.406
13491SOL    HW242408   3.695   3.769   5.319
13492SOL     OW42409   4.571   2.190   3.937
13492SOL    HW142410   4.630   2.233   3.869
13492SOL    HW242411   4.515   2.119   3.893
13493SOL     OW42412   5.381   2.440   5.550
13493SOL    HW142413   5.379   2.521   5.492
13493SOL    HW242414   5.410   2.361   5.495
13494SOL     OW42415   5.129   3.033   4.209
13494SOL    HW142416   5.225   3.053   4.195
13494SOL    HW242417   5.073   3.099   4.160
13495SOL     OW42418   4.734   3.335   4.188
13495SOL    HW142419   4.700   3.404   4.125
13495SOL    HW242420   4.713   3.363   4.282
13496SOL     OW42421   4.060   3.652   4.690
13496SOL    HW142422   4.098   3.564   4.659
13496SOL    HW242423   4.132   3.721   4.689
13497SOL     OW42424   5.532   2.990   4.574
13497SOL    HW142425   5.527   2.924   4.499
13497SOL    HW242426   5.460   2.970   4.641
13498SOL     OW42427   4.976   3.524   5.258
13498SOL    HW142428   4.915   3.487   5.328
13498SOL    HW242429   4.926   3.537   5.173
13499SOL     OW42430   4.003   2.866   3.948
13499SOL    HW142431   4.100   2.872   3.970
13499SOL    HW242432   3.991   2.814   3.864
13500SOL     OW42433   4.234   3.099   5.440
13500SOL    HW142434   4.219   3.083   5.343
13500SOL    HW242435   4.147   3.123   5.484
13501SOL     OW42436   4.825   3.637   3.894
13501SOL    HW142437   4.751   3.603   3.952
13501SOL    HW242438   4.858   3.563   3.835
13502SOL     OW42439   3.921   2.058   5.180
13502SOL    HW142440   3.839   2.113   5.160
13502SOL    HW242441   3.894   1.974   5.227
13503SOL     OW42442   5.289   3.303   3.843
13503SOL    HW142443   5.257   3.394   3.820
13503SOL    HW242444   5.238   3.235   3.791
13504SOL     OW42445   4.172   3.604   4.075
13504SOL    HW142446   4.216   3.659   4.145
13504SOL    HW242447   4.241   3.554   4.023
13505SOL     OW42448   5.130   1.986   4.211
13505SOL    HW142449   5.124   1.948   4.119
13505SOL    HW242450   5.226   1.998   4.236
13506SOL     OW42451   4.697   3.570   4.606
13506SOL    HW142452   4.788   3.528   4.608
13506SOL    HW242453   4.646   3.534   4.528
13507SOL     OW42454   4.129   2.535   4.271
13507SOL    HW142455   4.163   2.467   4.336
13507SOL    HW242456   4.029   2.542   4.279
13508SOL     OW42457   5.193   2.070   5.436
13508SOL    HW142458   5.203   2.090   5.533
13508SOL    HW242459   5.132   1.992   5.424
13509SOL     OW42460   4.398   1.982   3.828
13509SOL    HW142461   4.438   1.900   3.869
13509SOL    HW242462   4.330   1.955   3.759
13510SOL     OW42463   4.521   2.081   5.502
13510SOL    HW142464   4.613   2.043   5.507
13510SOL    HW242465   4.463   2.038   5.571
13511SOL     OW42466   4.622   3.376   4.952
13511SOL    HW142467   4.593   3.344   4.861
13511SOL    HW242468   4.670   3.302   4.999
13512SOL     OW42469   5.025   2.442   5.136
13512SOL    HW142470   5.057   2.407   5.224
13512SOL    HW242471   5.057   2.536   5.123
13513SOL     OW42472   4.542   3.275   4.710
13513SOL    HW142473   4.630   3.265   4.664
13513SOL    HW242474   4.488   3.346   4.663
13514SOL     OW42475   4.663   2.357   4.587
13514SOL    HW142476   4.636   2.347   4.491
13514SOL    HW242477   4.693   2.269   4.623
13515SOL     OW42478   5.144   3.099   3.726
13515SOL    HW142479   5.196   3.043   3.790
13515SOL    HW242480   5.051   3.111   3.761
13516SOL     OW42481   3.968   1.975   3.884
13516SOL    HW142482   4.013   2.044   3.827
13516SOL    HW242483   4.036   1.931   3.943
13517SOL     OW42484   4.674   2.091   4.174
13517SOL    HW142485   4.636   2.122   4.087
13517SOL    HW242486   4.772   2.111   4.176
13518SOL     OW42487   4.763   2.537   5.099
13518SOL    HW142488   4.689   2.470   5.108
13518SOL    HW242489   4.851   2.491   5.109
13519SOL     OW42490   4.943   3.455   4.557
13519SOL    HW142491   4.957   3.532   4.495
13519SOL    HW242492   5.031   3.427   4.595
13520SOL     OW42493   4.966   3.673   4.400
13520SOL    HW142494   5.030   3.699   4.327
13520SOL    HW242495   4.900   3.747   4.413
13521SOL     OW42496   4.741   2.337   3.772
13521SOL    HW142497   4.701   2.424   3.742
13521SOL    HW242498   4.810   2.355   3.843
13522SOL     OW42499   3.715   2.444   5.146
13522SOL    HW142500   3.813   2.425   5.139
13522SOL    HW242501   3.697   2.493   5.232
13523SOL     OW42502   4.289   1.957   4.933
13523SOL    HW142503   4.293   1.896   5.013
13523SOL    HW242504   4.195   1.988   4.920
13524SOL     OW42505   4.601   2.304   4.332
13524SOL    HW142506   4.553   2.361   4.266
13524SOL    HW242507   4.629   2.218   4.288
13525SOL     OW42508   4.753   1.886   4.480
13525SOL    HW142509   4.686   1.881   4.406
13525SOL    HW242510   4.736   1.814   4.547
13526SOL     OW42511   5.082   2.998   4.637
13526SOL    HW142512   5.060   2.909   4.677
13526SOL    HW242513   5.007   3.028   4.579
13527SOL     OW42514   5.116   2.517   4.690
13527SOL    HW142515   5.066   2.431   4.679
13527SOL    HW242516   5.200   2.500   4.742
13528SOL     OW42517   5.595   2.677   4.111
13528SOL    HW142518   5.650   2.633   4.182
13528SOL    HW242519   5.551   2.607   4.055
13529SOL     OW42520   4.158   3.290   3.943
13529SOL    HW142521   4.077   3.309   3.999
13529SOL    HW242522   4.133   3.236   3.863
13530SOL     OW42523   5.100   2.447   3.776
13530SOL    HW142524   5.047   2.414   3.855
13530SOL    HW242525   5.198   2.437   3.795
13531SOL     OW42526   4.239   2.123   4.000
13531SOL    HW142527   4.298   2.077   3.933
13531SOL    HW242528   4.211   2.212   3.964
13532SOL     OW42529   5.481   3.072   5.257
13532SOL    HW142530   5.572   3.030   5.252
13532SOL    HW242531   5.490   3.164   5.295
13533SOL     OW42532   4.732   3.175   5.098
13533SOL    HW142533   4.642   3.150   5.134
13533SOL    HW242534   4.800   3.168   5.171
13534SOL     OW42535   4.865   3.135   4.864
13534SOL    HW142536   4.803   3.145   4.942
13534SOL    HW242537   4.820   3.168   4.781
13535SOL     OW42538   5.331   2.947   4.761
13535SOL    HW142539   5.343   3.004   4.842
13535SOL    HW242540   5.244   2.970   4.717
13536SOL     OW42541   4.704   1.872   5.113
13536SOL    HW142542   4.712   1.870   5.014
13536SOL    HW242543   4.776   1.930   5.152
13537SOL     OW42544   4.643   2.937   5.437
13537SOL    HW142545   4.550   2.938   5.476
13537SOL    HW242546   4.650   2.861   5.372
13538SOL     OW42547   4.472   2.905   4.122
13538SOL    HW142548   4.473   2.891   4.221
13538SOL    HW242549   4.541   2.846   4.079
13539SOL     OW42550   4.991   2.207   4.993
13539SOL    HW142551   5.013   2.292   5.040
13539SOL    HW242552   4.895   2.210   4.964
13540SOL     OW42553   3.762   3.449   5.018
13540SOL    HW142554   3.683   3.499   4.982
13540SOL    HW242555   3.845   3.501   4.998
13541SOL     OW42556   4.276   2.398   4.474
13541SOL    HW142557   4.328   2.479   4.446
13541SOL    HW242558   4.313   2.363   4.560
13542SOL     OW42559   4.973   3.237   4.082
13542SOL    HW142560   5.035   3.315   4.079
13542SOL    HW242561   4.888   3.263   4.129
13543SOL     OW42562   5.064   3.313   4.915
13543SOL    HW142563   5.110   3.284   4.999
13543SOL    HW242564   4.988   3.252   4.896
13544SOL     OW42565   4.151   2.655   5.196
13544SOL    HW142566   4.229   2.666   5.134
13544SOL    HW242567   4.179   2.601   5.275
13545SOL     OW42568   5.365   2.677   5.414
13545SOL    HW142569   5.268   2.702   5.415
13545SOL    HW242570   5.408   2.711   5.331
13546SOL     OW42571   4.770   1.979   5.498
13546SOL    HW142572   4.806   2.066   5.466
13546SOL    HW242573   4.842   1.910   5.497
13547SOL     OW42574   4.184   1.886   5.511
13547SOL    HW142575   4.129   1.827   5.452
13547SOL    HW242576   4.134   1.970   5.529
13548SOL     OW42577   4.982   2.748   4.709
13548SOL    HW142578   4.889   2.721   4.684
13548SOL    HW242579   5.042   2.669   4.705
13549SOL     OW42580   4.922   2.374   3.979
13549SOL    HW142581   4.936   2.294   4.038
13549SOL    HW242582   4.870   2.443   4.030
13550SOL     OW42583   4.013   2.004   4.928
13550SOL    HW142584   3.986   2.030   5.020
13550SOL    HW242585   3.980   1.912   4.907
13551SOL     OW42586   3.772   3.175   4.974
13551SOL    HW142587   3.816   3.121   5.045
13551SOL    HW242588   3.783   3.272   4.994
13552SOL     OW42589   4.416   2.354   4.718
13552SOL    HW142590   4.505   2.374   4.676
13552SOL    HW242591   4.379   2.437   4.759
13553SOL     OW42592   5.494   2.858   5.589
13553SOL    HW142593   5.451   2.787   5.534
13553SOL    HW242594   5.431   2.884   5.663
13554SOL     OW42595   4.078   1.774   4.426
13554SOL    HW142596   4.145   1.840   4.392
13554SOL    HW242597   4.125   1.705   4.482
13555SOL     OW42598   5.316   2.243   4.107
13555SOL    HW142599   5.351   2.156   4.140
13555SOL    HW242600   5.270   2.291   4.183
13556SOL     OW42601   4.733   2.620   4.637
13556SOL    HW142602   4.706   2.636   4.732
13556SOL    HW242603   4.711   2.526   4.611
13557SOL     OW42604   4.739   3.418   5.376
13557SOL    HW142605   4.721   3.459   5.287
13557SOL    HW242606   4.749   3.319   5.366
13558SOL     OW42607   5.595   3.309   5.343
13558SOL    HW142608   5.606   3.339   5.248
13558SOL    HW242609   5.677   3.334   5.395
13559SOL     OW42610   5.217   2.119   3.866
13559SOL    HW142611   5.170   2.038   3.901
13559SOL    HW242612   5.250   2.174   3.943
13560SOL     OW42613   5.026   2.700   3.710
13560SOL    HW142614   5.048   2.604   3.728
13560SOL    HW242615   5.070   2.729   3.625
13561SOL     OW42616   4.788   3.240   4.616
13561SOL    HW142617   4.808   3.159   4.560
13561SOL    HW242618   4.846   3.316   4.586
13562SOL     OW42619   4.853   2.219   5.403
13562SOL    HW142620   4.802   2.265   5.475
13562SOL    HW242621   4.939   2.266   5.386
13563SOL     OW42622   4.904   2.038   5.201
13563SOL    HW142623   4.874   2.106   5.267
13563SOL    HW242624   4.947   2.084   5.123
13564SOL     OW42625   3.772   3.159   3.932
13564SOL    HW142626   3.690   3.192   3.886
13564SOL    HW242627   3.755   3.066   3.967
13565SOL     OW42628   3.776   3.677   4.691
13565SOL    HW142629   3.754   3.590   4.646
13565SOL    HW242630   3.875   3.689   4.696
13566SOL     OW42631   4.202   3.433   4.619
13566SOL    HW142632   4.280   3.481   4.661
13566SOL    HW242633   4.232   3.390   4.534
13567SOL     OW42634   4.649   2.663   4.884
13567SOL    HW142635   4.703   2.623   4.958
13567SOL    HW242636   4.552   2.665   4.911
13568SOL     OW42637   3.767   2.558   4.904
13568SOL    HW142638   3.846   2.515   4.860
13568SOL    HW242639   3.756   2.519   4.996
13569SOL     OW42640   3.991   2.461   5.391
13569SOL    HW142641   4.037   2.399   5.327
13569SOL    HW242642   3.954   2.539   5.340
13570SOL     OW42643   5.117   2.781   5.360
13570SOL    HW142644   5.147   2.876   5.359
13570SOL    HW242645   5.104   2.749   5.266
13571SOL     OW42646   4.515   2.417   4.095
13571SOL    HW142647   4.522   2.337   4.036
13571SOL    HW242648   4.431   2.467   4.074
13572SOL     OW42649   5.336   2.468   4.848
13572SOL    HW142650   5.301   2.393   4.904
13572SOL    HW242651   5.434   2.454   4.830
13573SOL     OW42652   3.956   3.377   5.392
13573SOL    HW142653   3.924   3.450   5.452
13573SOL    HW242654   3.970   3.293   5.446
13574SOL     OW42655   4.452   2.203   4.945
13574SOL    HW142656   4.400   2.117   4.947
13574SOL    HW242657   4.430   2.253   4.862
13575SOL     OW42658   4.719   3.550   5.136
13575SOL    HW142659   4.686   3.494   5.060
13575SOL    HW242660   4.703   3.646   5.116
13576SOL     OW42661   4.167   2.354   3.881
13576SOL    HW142662   4.214   2.426   3.932
13576SOL    HW242663   4.077   2.387   3.852
13577SOL     OW42664   3.896   3.008   5.153
13577SOL    HW142665   3.860   2.989   5.244
13577SOL    HW242666   3.883   2.928   5.094
13578SOL     OW42667   4.983   2.901   4.941
13578SOL    HW142668   4.981   2.836   4.865
13578SOL    HW242669   4.939   2.986   4.913
13579SOL     OW42670   5.103   2.793   3.956
13579SOL    HW142671   5.029   2.783   4.023
13579SOL    HW242672   5.072   2.758   3.867
13580SOL     OW42673   5.469   3.564   4.858
13580SOL    HW142674   5.548   3.581   4.800
13580SOL    HW242675   5.442   3.468   4.851
13581SOL     OW42676   5.017   3.587   4.876
13581SOL    HW142677   5.102   3.634   4.854
13581SOL    HW242678   5.036   3.491   4.897
13582SOL     OW42679   3.853   3.057   4.738
13582SOL    HW142680   3.822   3.095   4.825
13582SOL    HW242681   3.778   3.008   4.694
13583SOL     OW42682   4.503   3.504   5.496
13583SOL    HW142683   4.453   3.538   5.416
13583SOL    HW242684   4.597   3.481   5.469
13584SOL     OW42685   3.868   3.592   5.535
13584SOL    HW142686   3.813   3.529   5.589
13584SOL    HW242687   3.928   3.646   5.595
13585SOL     OW42688   5.015   2.838   4.362
13585SOL    HW142689   5.083   2.817   4.432
13585SOL    HW242690   5.053   2.904   4.297
13586SOL     OW42691   4.493   3.137   5.218
13586SOL    HW142692   4.498   3.149   5.317
13586SOL    HW242693   4.437   3.208   5.178
13587SOL     OW42694   4.366   3.482   3.919
13587SOL    HW142695   4.395   3.495   3.824
13587SOL    HW242696   4.304   3.404   3.924
13588SOL     OW42697   5.539   3.627   5.117
13588SOL    HW142698   5.499   3.605   5.028
13588SOL    HW242699   5.476   3.684   5.170
13589SOL     OW42700   5.516   2.009   4.686
13589SOL    HW142701   5.498   1.911   4.693
13589SOL    HW242702   5.448   2.052   4.627
13590SOL     OW42703   4.907   3.443   3.725
13590SOL    HW142704   4.904   3.349   3.759
13590SOL    HW242705   4.837   3.455   3.655
13591SOL     OW42706   4.520   2.898   5.086
13591SOL    HW142707   4.528   2.928   4.991
13591SOL    HW242708   4.498   2.976   5.144
13592SOL     OW42709   4.654   2.754   4.003
13592SOL    HW142710   4.710   2.785   3.926
13592SOL    HW242711   4.698   2.674   4.046
13593SOL     OW42712   5.170   3.532   3.746
13593SOL    HW142713   5.077   3.504   3.722
13593SOL    HW242714   5.225   3.543   3.663
13594SOL     OW42715   4.164   3.060   5.186
13594SOL    HW142716   4.205   3.083   5.098
13594SOL    HW242717   4.066   3.042   5.173
13595SOL     OW42718   5.356   3.099   4.986
13595SOL    HW142719   5.429   3.099   5.054
13595SOL    HW242720   5.268   3.102   5.032
13596SOL     OW42721   4.839   3.005   4.495
13596SOL    HW142722   4.759   2.960   4.533
13596SOL    HW242723   4.886   2.944   4.432
13597SOL     OW42724   4.768   2.095   4.669
13597SOL    HW142725   4.761   2.049   4.581
13597SOL    HW242726   4.771   2.027   4.742
13598SOL     OW42727   4.276   3.202   4.183
13598SOL    HW142728   4.369   3.188   4.150
13598SOL    HW242729   4.217   3.229   4.106
13599SOL     OW42730   5.537   2.175   5.161
13599SOL    HW142731   5.576   2.265   5.140
13599SOL    HW242732   5.549   2.114   5.083
13600SOL     OW42733   3.931   3.311   4.093
13600SOL    HW142734   3.866   3.259   4.037
13600SOL    HW242735   3.902   3.407   4.096
13601SOL     OW42736   3.853   2.922   5.440
13601SOL    HW142737   3.771   2.908   5.495
13601SOL    HW242738   3.881   2.834   5.400
13602SOL     OW42739   4.488   1.910   5.282
13602SOL    HW142740   4.565   1.908   5.218
13602SOL    HW242741   4.498   1.986   5.346
13603SOL     OW42742   5.105   2.707   5.096
13603SOL    HW142743   5.041   2.771   5.052
13603SOL    HW242744   5.192   2.708   5.047
13604SOL     OW42745   3.733   2.019   4.039
13604SOL    HW142746   3.684   2.106   4.036
13604SOL    HW242747   3.817   2.026   3.985
13605SOL     OW42748   4.887   3.182   3.823
13605SOL    HW142749   4.790   3.159   3.825
13605SOL    HW242750   4.921   3.189   3.917
13606SOL     OW42751   4.401   2.650   5.056
13606SOL    HW142752   4.442   2.736   5.085
13606SOL    HW242753   4.450   2.574   5.098
13607SOL     OW42754   5.247   3.718   4.807
13607SOL    HW142755   5.271   3.778   4.730
13607SOL    HW242756   5.327   3.666   4.835
13608SOL     OW42757   4.496   2.337   5.386
13608SOL    HW142758   4.538   2.409   5.441
13608SOL    HW242759   4.507   2.249   5.433
13609SOL     OW42760   5.217   3.034   5.354
13609SOL    HW142761   5.200   3.070   5.446
13609SOL    HW242762   5.311   3.052   5.328
13610SOL     OW42763   5.332   2.730   4.943
13610SOL    HW142764   5.339   2.638   4.902
13610SOL    HW242765   5.337   2.799   4.870
13611SOL     OW42766   4.939   2.185   4.189
13611SOL    HW142767   5.008   2.113   4.197
13611SOL    HW242768   4.953   2.252   4.262
13612SOL     OW42769   4.372   2.632   4.381
13612SOL    HW142770   4.409   2.725   4.382
13612SOL    HW242771   4.287   2.630   4.328
13613SOL     OW42772   5.459   2.196   5.427
13613SOL    HW142773   5.489   2.187   5.332
13613SOL    HW242774   5.375   2.143   5.441
13614SOL     OW42775   5.448   2.797   5.184
13614SOL    HW142776   5.440   2.895   5.202
13614SOL    HW242777   5.408   2.777   5.094
13615SOL     OW42778   4.611   3.159   3.827
13615SOL    HW142779   4.574   3.176   3.919
13615SOL    HW242780   4.559   3.212   3.760
13616SOL     OW42781   4.419   3.579   4.690
13616SOL    HW142782   4.378   3.670   4.690
13616SOL    HW242783   4.519   3.586   4.685
13617SOL     OW42784   4.621   2.884   4.616
13617SOL    HW142785   4.645   2.788   4.629
13617SOL    HW242786   4.577   2.919   4.699
13618SOL     OW42787   4.797   2.820   3.789
13618SOL    HW142788   4.761   2.882   3.719
13618SOL    HW242789   4.881   2.777   3.756
13619SOL     OW42790   5.571   3.363   4.603
13619SOL    HW142791   5.496   3.361   4.538
13619SOL    HW242792   5.541   3.322   4.690
13620SOL     OW42793   3.987   3.147   5.539
13620SOL    HW142794   3.934   3.068   5.508
13620SOL    HW242795   3.979   3.156   5.638
13621SOL     OW42796   3.768   3.031   4.362
13621SOL    HW142797   3.815   2.945   4.382
13621SOL    HW242798   3.835   3.104   4.353
13622SOL     OW42799   4.472   3.227   5.481
13622SOL    HW142800   4.379   3.190   5.477
13622SOL    HW242801   4.468   3.326   5.495
13623SOL     OW42802   5.580   2.010   4.954
13623SOL    HW142803   5.638   1.929   4.954
13623SOL    HW242804   5.544   2.026   4.862
13624SOL     OW42805   5.403   3.304   4.814
13624SOL    HW142806   5.324   3.295   4.753
13624SOL    HW242807   5.399   3.231   4.883
13625SOL     OW42808   3.966   2.395   5.082
13625SOL    HW142809   4.036   2.340   5.127
13625SOL    HW242810   3.992   2.410   4.987
13626SOL     OW42811   4.570   3.485   4.387
13626SOL    HW142812   4.553   3.565   4.329
13626SOL    HW242813   4.487   3.431   4.395
13627SOL     OW42814   5.157   2.105   4.781
13627SOL    HW142815   5.175   2.006   4.777
13627SOL    HW242816   5.112   2.127   4.867
13628SOL     OW42817   4.764   1.870   4.835
13628SOL    HW142818   4.696   1.816   4.786
13628SOL    HW242819   4.853   1.827   4.826
13629SOL     OW42820   4.528   3.170   4.088
13629SOL    HW142821   4.522   3.071   4.102
13629SOL    HW242822   4.610   3.205   4.134
13630SOL     OW42823   4.392   3.362   5.095
13630SOL    HW142824   4.382   3.436   5.162
13630SOL    HW242825   4.472   3.380   5.038
13631SOL     OW42826   5.102   1.887   3.961
13631SOL    HW142827   5.153   1.811   3.921
13631SOL    HW242828   5.006   1.861   3.972
13632SOL     OW42829   4.994   2.374   4.392
13632SOL    HW142830   4.941   2.458   4.382
13632SOL    HW242831   4.981   2.338   4.484
13633SOL     OW42832   5.295   2.102   4.526
13633SOL    HW142833   5.245   2.101   4.612
13633SOL    HW242834   5.268   2.183   4.473
13634SOL     OW42835   3.747   2.889   4.043
13634SOL    HW142836   3.843   2.891   4.014
13634SOL    HW242837   3.720   2.795   4.063
13635SOL     OW42838   4.613   3.536   4.045
13635SOL    HW142839   4.528   3.508   4.000
13635SOL    HW242840   4.593   3.608   4.111
13636SOL     OW42841   3.987   2.527   5.654
13636SOL    HW142842   3.899   2.503   5.695
13636SOL    HW242843   3.984   2.507   5.556
13637SOL     OW42844   3.933   2.144   6.563
13637SOL    HW142845   3.973   2.108   6.647
13637SOL    HW242846   3.845   2.101   6.546
13638SOL     OW42847   3.702   2.317   6.220
13638SOL    HW142848   3.614   2.304   6.266
13638SOL    HW242849   3.690   2.310   6.121
13639SOL     OW42850   4.357   3.189   6.752
13639SOL    HW142851   4.267   3.232   6.743
13639SOL    HW242852   4.419   3.227   6.683
13640SOL     OW42853   5.288   3.390   6.276
13640SOL    HW142854   5.243   3.344   6.353
13640SOL    HW242855   5.221   3.408   6.204
13641SOL     OW42856   4.859   2.585   6.249
13641SOL    HW142857   4.906   2.670   6.224
13641SOL    HW242858   4.818   2.596   6.340
13642SOL     OW42859   5.542   2.435   5.765
13642SOL    HW142860   5.486   2.451   5.683
13642SOL    HW242861   5.498   2.365   5.821
13643SOL     OW42862   4.470   2.942   6.655
13643SOL    HW142863   4.398   3.008   6.673
13643SOL    HW242864   4.559   2.985   6.668
13644SOL     OW42865   4.402   2.805   6.256
13644SOL    HW142866   4.484   2.803   6.314
13644SOL    HW242867   4.346   2.885   6.281
13645SOL     OW42868   4.402   2.980   7.409
13645SOL    HW142869   4.462   3.053   7.440
13645SOL    HW242870   4.331   3.018   7.350
13646SOL     OW42871   4.111   3.310   6.708
13646SOL    HW142872   4.037   3.251   6.675
13646SOL    HW242873   4.145   3.366   6.633
13647SOL     OW42874   5.176   3.372   6.953
13647SOL    HW142875   5.249   3.438   6.969
13647SOL    HW242876   5.097   3.397   7.009
13648SOL     OW42877   4.184   2.208   7.046
13648SOL    HW142878   4.260   2.144   7.059
13648SOL    HW242879   4.097   2.161   7.062
13649SOL     OW42880   5.297   2.309   6.317
13649SOL    HW142881   5.229   2.313   6.245
13649SOL    HW242882   5.276   2.378   6.387
13650SOL     OW42883   3.956   3.579   6.029
13650SOL    HW142884   3.961   3.648   6.100
13650SOL    HW242885   4.035   3.588   5.968
13651SOL     OW42886   4.918   3.175   7.196
13651SOL    HW142887   5.014   3.147   7.205
13651SOL    HW242888   4.860   3.113   7.248
13652SOL     OW42889   4.003   3.311   6.071
13652SOL    HW142890   3.978   3.408   6.060
13652SOL    HW242891   3.969   3.278   6.159
13653SOL     OW42892   4.093   2.933   6.527
13653SOL    HW142893   4.065   2.837   6.531
13653SOL    HW242894   4.024   2.990   6.573
13654SOL     OW42895   5.429   1.965   7.135
13654SOL    HW142896   5.462   2.037   7.074
13654SOL    HW242897   5.362   2.003   7.199
13655SOL     OW42898   3.808   2.570   6.174
13655SOL    HW142899   3.772   2.481   6.203
13655SOL    HW242900   3.798   2.636   6.248
13656SOL     OW42901   3.749   3.417   5.695
13656SOL    HW142902   3.738   3.320   5.716
13656SOL    HW242903   3.727   3.472   5.775
13657SOL     OW42904   5.432   2.800   6.242
13657SOL    HW142905   5.515   2.749   6.218
13657SOL    HW242906   5.414   2.868   6.171
13658SOL     OW42907   5.405   2.993   6.038
13658SOL    HW142908   5.487   2.960   5.992
13658SOL    HW242909   5.425   3.078   6.086
13659SOL     OW42910   3.868   2.587   7.142
13659SOL    HW142911   3.956   2.631   7.159
13659SOL    HW242912   3.802   2.654   7.108
13660SOL     OW42913   4.334   3.263   6.324
13660SOL    HW142914   4.307   3.167   6.334
13660SOL    HW242915   4.316   3.293   6.230
13661SOL     OW42916   4.546   1.904   6.097
13661SOL    HW142917   4.590   1.986   6.061
13661SOL    HW242918   4.447   1.917   6.099
13662SOL     OW42919   3.932   2.812   6.882
13662SOL    HW142920   4.018   2.765   6.861
13662SOL    HW242921   3.859   2.774   6.825
13663SOL     OW42922   5.294   2.926   5.787
13663SOL    HW142923   5.212   2.870   5.801
13663SOL    HW242924   5.333   2.952   5.875
13664SOL     OW42925   5.065   3.725   7.205
13664SOL    HW142926   5.012   3.795   7.157
13664SOL    HW242927   5.035   3.635   7.176
13665SOL     OW42928   4.073   2.118   7.452
13665SOL    HW142929   4.112   2.202   7.491
13665SOL    HW242930   3.974   2.129   7.442
13666SOL     OW42931   5.180   3.253   6.492
13666SOL    HW142932   5.119   3.290   6.563
13666SOL    HW242933   5.153   3.159   6.471
13667SOL     OW42934   5.351   3.671   6.075
13667SOL    HW142935   5.357   3.615   5.992
13667SOL    HW242936   5.369   3.615   6.155
13668SOL     OW42937   4.275   2.540   5.899
13668SOL    HW142938   4.253   2.612   5.833
13668SOL    HW242939   4.208   2.541   5.973
13669SOL     OW42940   4.997   2.268   6.506
13669SOL    HW142941   4.906   2.228   6.505
13669SOL    HW242942   5.054   2.219   6.572
13670SOL     OW42943   5.340   3.504   5.850
13670SOL    HW142944   5.309   3.559   5.772
13670SOL    HW242945   5.342   3.408   5.825
13671SOL     OW42946   4.480   2.438   7.067
13671SOL    HW142947   4.443   2.397   7.151
13671SOL    HW242948   4.474   2.372   6.992
13672SOL     OW42949   5.096   2.333   7.244
13672SOL    HW142950   5.097   2.383   7.331
13672SOL    HW242951   5.156   2.253   7.250
13673SOL     OW42952   4.737   2.249   6.772
13673SOL    HW142953   4.645   2.258   6.811
13673SOL    HW242954   4.731   2.205   6.683
13674SOL     OW42955   4.769   2.540   5.992
13674SOL    HW142956   4.796   2.549   6.088
13674SOL    HW242957   4.677   2.501   5.987
13675SOL     OW42958   3.787   2.753   6.380
13675SOL    HW142959   3.873   2.722   6.420
13675SOL    HW242960   3.757   2.836   6.427
13676SOL     OW42961   3.808   3.762   7.200
13676SOL    HW142962   3.816   3.716   7.289
13676SOL    HW242963   3.712   3.761   7.171
13677SOL     OW42964   4.570   2.226   5.785
13677SOL    HW142965   4.634   2.266   5.719
13677SOL    HW242966   4.510   2.163   5.737
13678SOL     OW42967   5.373   2.472   7.432
13678SOL    HW142968   5.359   2.554   7.376
13678SOL    HW242969   5.407   2.397   7.374
13679SOL     OW42970   5.130   3.037   6.131
13679SOL    HW142971   5.221   3.028   6.092
13679SOL    HW242972   5.077   3.101   6.076
13680SOL     OW42973   4.264   2.016   6.527
13680SOL    HW142974   4.281   2.037   6.623
13680SOL    HW242975   4.256   2.101   6.474
13681SOL     OW42976   4.718   3.298   6.022
13681SOL    HW142977   4.692   3.384   5.980
13681SOL    HW242978   4.696   3.301   6.120
13682SOL     OW42979   4.066   3.671   6.457
13682SOL    HW142980   4.114   3.585   6.474
13682SOL    HW242981   4.128   3.748   6.472
13683SOL     OW42982   5.509   2.875   6.496
13683SOL    HW142983   5.469   2.856   6.406
13683SOL    HW242984   5.437   2.901   6.560
13684SOL     OW42985   4.963   3.444   7.110
13684SOL    HW142986   4.957   3.352   7.150
13684SOL    HW242987   4.872   3.480   7.093
13685SOL     OW42988   4.037   2.796   5.951
13685SOL    HW142989   4.084   2.783   5.863
13685SOL    HW242990   4.041   2.711   6.004
13686SOL     OW42991   5.212   2.638   6.259
13686SOL    HW142992   5.202   2.587   6.345
13686SOL    HW242993   5.293   2.696   6.264
13687SOL     OW42994   4.217   3.128   7.269
13687SOL    HW142995   4.182   3.122   7.175
13687SOL    HW242996   4.141   3.149   7.331
13688SOL     OW42997   4.831   3.613   5.817
13688SOL    HW142998   4.750   3.589   5.871
13688SOL    HW242999   4.841   3.547   5.742
13689SOL     OW43000   3.930   2.109   7.061
13689SOL    HW143001   3.859   2.179   7.050
13689SOL    HW243002   3.891   2.027   7.102
13690SOL     OW43003   5.387   3.262   5.695
13690SOL    HW143004   5.430   3.297   5.612
13690SOL    HW243005   5.308   3.206   5.671
13691SOL     OW43006   4.191   3.628   5.896
13691SOL    HW143007   4.229   3.679   5.972
13691SOL    HW243008   4.265   3.585   5.844
13692SOL     OW43009   5.113   1.972   6.061
13692SOL    HW143010   5.108   1.946   5.964
13692SOL    HW243011   5.205   1.958   6.095
13693SOL     OW43012   3.907   3.764   6.786
13693SOL    HW143013   3.950   3.686   6.831
13693SOL    HW243014   3.862   3.735   6.702
13694SOL     OW43015   4.658   3.553   6.416
13694SOL    HW143016   4.746   3.516   6.445
13694SOL    HW243017   4.620   3.495   6.343
13695SOL     OW43018   4.058   2.536   6.077
13695SOL    HW143019   4.065   2.437   6.063
13695SOL    HW243020   3.967   2.558   6.113
13696SOL     OW43021   5.235   2.091   7.298
13696SOL    HW143022   5.245   2.105   7.397
13696SOL    HW243023   5.161   2.027   7.281
13697SOL     OW43024   4.368   1.963   5.700
13697SOL    HW143025   4.404   1.878   5.738
13697SOL    HW243026   4.296   1.943   5.634
13698SOL     OW43027   4.466   2.071   7.337
13698SOL    HW143028   4.561   2.041   7.341
13698SOL    HW243029   4.414   2.029   7.411
13699SOL     OW43030   4.653   3.396   6.845
13699SOL    HW143031   4.606   3.383   6.758
13699SOL    HW243032   4.701   3.311   6.870
13700SOL     OW43033   5.106   2.453   6.990
13700SOL    HW143034   5.107   2.415   7.082
13700SOL    HW243035   5.068   2.545   6.992
13701SOL     OW43036   4.510   3.284   6.547
13701SOL    HW143037   4.604   3.261   6.522
13701SOL    HW243038   4.451   3.274   6.466
13702SOL     OW43039   4.660   2.365   6.449
13702SOL    HW143040   4.632   2.356   6.354
13702SOL    HW243041   4.690   2.276   6.484
13703SOL     OW43042   4.272   1.932   6.078
13703SOL    HW143043   4.191   1.924   6.136
13703SOL    HW243044   4.261   2.012   6.018
13704SOL     OW43045   5.175   3.106   5.618
13704SOL    HW143046   5.211   3.033   5.676
13704SOL    HW243047   5.083   3.130   5.649
13705SOL     OW43048   3.965   1.938   5.769
13705SOL    HW143049   4.005   2.007   5.708
13705SOL    HW243050   4.037   1.878   5.803
13706SOL     OW43051   4.683   2.122   6.013
13706SOL    HW143052   4.646   2.159   5.927
13706SOL    HW243053   4.781   2.140   6.017
13707SOL     OW43054   4.914   3.455   6.414
13707SOL    HW143055   4.941   3.513   6.337
13707SOL    HW243056   4.943   3.498   6.500
13708SOL     OW43057   4.237   3.012   6.319
13708SOL    HW143058   4.190   2.981   6.401
13708SOL    HW243059   4.174   3.009   6.241
13709SOL     OW43060   4.954   3.653   6.215
13709SOL    HW143061   5.013   3.715   6.164
13709SOL    HW243062   4.873   3.702   6.247
13710SOL     OW43063   4.745   2.351   5.616
13710SOL    HW143064   4.713   2.437   5.577
13710SOL    HW243065   4.815   2.370   5.685
13711SOL     OW43066   3.835   2.387   6.964
13711SOL    HW143067   3.927   2.380   6.926
13711SOL    HW243068   3.832   2.459   7.032
13712SOL     OW43069   4.293   2.070   6.793
13712SOL    HW143070   4.332   2.021   6.871
13712SOL    HW243071   4.193   2.070   6.800
13713SOL     OW43072   4.595   2.312   6.195
13713SOL    HW143073   4.553   2.372   6.127
13713SOL    HW243074   4.631   2.231   6.149
13714SOL     OW43075   4.724   1.925   6.310
13714SOL    HW143076   4.663   1.924   6.231
13714SOL    HW243077   4.697   1.852   6.373
13715SOL     OW43078   5.103   2.981   6.458
13715SOL    HW143079   5.075   2.887   6.475
13715SOL    HW243080   5.097   3.001   6.360
13716SOL     OW43081   5.173   2.489   6.501
13716SOL    HW143082   5.102   2.419   6.505
13716SOL    HW243083   5.221   2.494   6.588
13717SOL     OW43084   5.547   2.641   5.948
13717SOL    HW143085   5.599   2.606   6.027
13717SOL    HW243086   5.552   2.575   5.874
13718SOL     OW43087   4.263   3.290   5.777
13718SOL    HW143088   4.171   3.252   5.775
13718SOL    HW243089   4.328   3.218   5.800
13719SOL     OW43090   5.473   3.211   6.172
13719SOL    HW143091   5.558   3.206   6.225
13719SOL    HW243092   5.413   3.280   6.213
13720SOL     OW43093   5.103   2.446   5.622
13720SOL    HW143094   5.055   2.414   5.704
13720SOL    HW243095   5.202   2.436   5.635
13721SOL     OW43096   4.240   2.122   5.888
13721SOL    HW143097   4.290   2.063   5.825
13721SOL    HW243098   4.210   2.204   5.839
13722SOL     OW43099   5.469   3.080   7.087
13722SOL    HW143100   5.560   3.041   7.069
13722SOL    HW243101   5.479   3.169   7.130
13723SOL     OW43102   4.761   3.165   6.951
13723SOL    HW143103   4.667   3.147   6.977
13723SOL    HW243104   4.819   3.164   7.032
13724SOL     OW43105   5.324   3.462   7.280
13724SOL    HW143106   5.296   3.521   7.205
13724SOL    HW243107   5.406   3.410   7.254
13725SOL     OW43108   4.696   3.075   6.694
13725SOL    HW143109   4.739   3.099   6.781
13725SOL    HW243110   4.737   3.127   6.620
13726SOL     OW43111   5.311   2.961   6.661
13726SOL    HW143112   5.314   3.034   6.730
13726SOL    HW243113   5.235   2.978   6.598
13727SOL     OW43114   4.631   1.945   6.939
13727SOL    HW143115   4.660   1.919   6.847
13727SOL    HW243116   4.701   2.003   6.981
13728SOL     OW43117   4.749   3.035   7.352
13728SOL    HW143118   4.686   3.097   7.398
13728SOL    HW243119   4.703   2.949   7.331
13729SOL     OW43120   4.472   2.917   6.009
13729SOL    HW143121   4.443   2.871   6.093
13729SOL    HW243122   4.548   2.867   5.967
13730SOL     OW43123   4.143   2.648   6.822
13730SOL    HW143124   4.211   2.664   6.893
13730SOL    HW243125   4.111   2.554   6.827
13731SOL     OW43126   4.981   2.232   6.884
13731SOL    HW143127   5.022   2.317   6.918
13731SOL    HW243128   4.892   2.252   6.843
13732SOL     OW43129   3.768   3.433   6.918
13732SOL    HW143130   3.705   3.485   6.861
13732SOL    HW243131   3.860   3.469   6.908
13733SOL     OW43132   4.055   3.018   6.117
13733SOL    HW143133   4.050   3.099   6.059
13733SOL    HW243134   4.051   2.936   6.060
13734SOL     OW43135   4.247   2.394   6.476
13734SOL    HW143136   4.246   2.464   6.405
13734SOL    HW243137   4.329   2.404   6.533
13735SOL     OW43138   4.982   3.226   5.985
13735SOL    HW143139   5.031   3.306   6.017
13735SOL    HW243140   4.884   3.239   6.000
13736SOL     OW43141   5.041   3.315   6.723
13736SOL    HW143142   5.089   3.338   6.808
13736SOL    HW243143   5.011   3.220   6.726
13737SOL     OW43144   5.316   2.495   6.038
13737SOL    HW143145   5.262   2.539   6.109
13737SOL    HW243146   5.384   2.560   6.003
13738SOL     OW43147   4.019   3.529   6.881
13738SOL    HW143148   4.069   3.454   6.837
13738SOL    HW243149   4.057   3.547   6.971
13739SOL     OW43150   4.141   2.623   7.213
13739SOL    HW143151   4.203   2.653   7.140
13739SOL    HW243152   4.165   2.530   7.241
13740SOL     OW43153   5.328   2.697   7.287
13740SOL    HW143154   5.234   2.731   7.282
13740SOL    HW243155   5.377   2.721   7.204
13741SOL     OW43156   4.718   1.973   7.358
13741SOL    HW143157   4.779   2.047   7.331
13741SOL    HW243158   4.711   1.906   7.284
13742SOL     OW43159   4.188   1.895   7.335
13742SOL    HW143160   4.125   1.833   7.289
13742SOL    HW243161   4.141   1.980   7.357
13743SOL     OW43162   4.353   2.690   6.636
13743SOL    HW143163   4.389   2.784   6.637
13743SOL    HW243164   4.268   2.686   6.689
13744SOL     OW43165   5.024   2.725   6.512
13744SOL    HW143166   4.928   2.696   6.519
13744SOL    HW243167   5.083   2.645   6.511
13745SOL     OW43168   4.922   2.383   5.827
13745SOL    HW143169   4.943   2.304   5.886
13745SOL    HW243170   4.875   2.452   5.881
13746SOL     OW43171   4.021   2.049   6.805
13746SOL    HW143172   3.982   2.078   6.892
13746SOL    HW243173   4.015   1.950   6.797
13747SOL     OW43174   3.823   3.172   6.856
13747SOL    HW143175   3.806   3.109   6.931
13747SOL    HW243176   3.797   3.264   6.883
13748SOL     OW43177   4.470   2.451   6.631
13748SOL    HW143178   4.538   2.436   6.559
13748SOL    HW243179   4.435   2.544   6.624
13749SOL     OW43180   5.496   2.832   7.459
13749SOL    HW143181   5.436   2.778   7.401
13749SOL    HW243182   5.451   2.849   7.547
13750SOL     OW43183   4.029   1.917   6.212
13750SOL    HW143184   3.982   2.005   6.220
13750SOL    HW243185   4.039   1.876   6.302
13751SOL     OW43186   5.360   2.266   5.895
13751SOL    HW143187   5.410   2.202   5.952
13751SOL    HW243188   5.330   2.344   5.949
13752SOL     OW43189   4.766   2.606   6.520
13752SOL    HW143190   4.749   2.618   6.618
13752SOL    HW243191   4.736   2.514   6.493
13753SOL     OW43192   4.744   3.359   7.325
13753SOL    HW143193   4.709   3.423   7.257
13753SOL    HW243194   4.795   3.286   7.279
13754SOL     OW43195   5.547   3.328   7.171
13754SOL    HW143196   5.568   3.360   7.079
13754SOL    HW243197   5.626   3.343   7.230
13755SOL     OW43198   4.084   2.792   7.423
13755SOL    HW143199   4.159   2.796   7.489
13755SOL    HW243200   4.108   2.731   7.348
13756SOL     OW43201   5.222   2.120   5.697
13756SOL    HW143202   5.171   2.049   5.745
13756SOL    HW243203   5.271   2.176   5.764
13757SOL     OW43204   4.994   2.691   5.583
13757SOL    HW143205   5.029   2.599   5.597
13757SOL    HW243206   5.033   2.730   5.500
13758SOL     OW43207   4.771   3.218   6.469
13758SOL    HW143208   4.790   3.139   6.411
13758SOL    HW243209   4.831   3.294   6.443
13759SOL     OW43210   4.023   2.666   6.486
13759SOL    HW143211   4.098   2.652   6.422
13759SOL    HW243212   4.007   2.581   6.537
13760SOL     OW43213   4.002   2.401   6.581
13760SOL    HW143214   3.963   2.310   6.570
13760SOL    HW243215   4.094   2.403   6.540
13761SOL     OW43216   4.855   2.211   7.302
13761SOL    HW143217   4.813   2.262   7.376
13761SOL    HW243218   4.939   2.256   7.273
13762SOL     OW43219   4.823   2.088   7.060
13762SOL    HW143220   4.827   2.138   7.147
13762SOL    HW243221   4.886   2.130   6.995
13763SOL     OW43222   3.736   3.140   5.779
13763SOL    HW143223   3.642   3.165   5.759
13763SOL    HW243224   3.741   3.045   5.807
13764SOL     OW43225   3.816   3.613   6.567
13764SOL    HW143226   3.765   3.551   6.508
13764SOL    HW243227   3.905   3.634   6.526
13765SOL     OW43228   4.221   3.448   6.497
13765SOL    HW143229   4.297   3.512   6.508
13765SOL    HW243230   4.248   3.375   6.433
13766SOL     OW43231   4.681   2.610   6.776
13766SOL    HW143232   4.696   2.620   6.874
13766SOL    HW243233   4.601   2.552   6.760
13767SOL     OW43234   3.760   2.465   6.710
13767SOL    HW143235   3.842   2.453   6.654
13767SOL    HW243236   3.781   2.441   6.804
13768SOL     OW43237   3.933   2.382   7.308
13768SOL    HW143238   3.990   2.324   7.249
13768SOL    HW243239   3.899   2.460   7.255
13769SOL     OW43240   5.086   2.816   7.240
13769SOL    HW143241   5.110   2.912   7.255
13769SOL    HW243242   5.072   2.800   7.142
13770SOL     OW43243   4.519   2.433   5.960
13770SOL    HW143244   4.531   2.359   5.895
13770SOL    HW243245   4.434   2.482   5.940
13771SOL     OW43246   5.292   2.493   6.746
13771SOL    HW143247   5.250   2.451   6.826
13771SOL    HW243248   5.389   2.469   6.742
13772SOL     OW43249   3.941   3.408   7.288
13772SOL    HW143250   3.913   3.478   7.354
13772SOL    HW243251   3.967   3.325   7.336
13773SOL     OW43252   4.467   2.282   6.840
13773SOL    HW143253   4.403   2.206   6.824
13773SOL    HW243254   4.461   2.346   6.763
13774SOL     OW43255   4.695   3.518   7.090
13774SOL    HW143256   4.664   3.467   7.009
13774SOL    HW243257   4.706   3.615   7.065
13775SOL     OW43258   4.171   2.340   5.741
13775SOL    HW143259   4.231   2.399   5.794
13775SOL    HW243260   4.095   2.394   5.705
13776SOL     OW43261   3.829   2.985   7.062
13776SOL    HW143262   3.859   2.973   7.157
13776SOL    HW243263   3.881   2.923   7.003
13777SOL     OW43264   5.062   2.798   5.827
13777SOL    HW143265   4.991   2.784   5.895
13777SOL    HW243266   5.033   2.759   5.740
13778SOL     OW43267   5.440   3.568   6.730
13778SOL    HW143268   5.512   3.606   6.672
13778SOL    HW243269   5.419   3.475   6.701
13779SOL     OW43270   4.967   3.575   6.652
13779SOL    HW143271   5.051   3.628   6.656
13779SOL    HW243272   4.983   3.485   6.692
13780SOL     OW43273   3.898   3.115   6.605
13780SOL    HW143274   3.872   3.137   6.699
13780SOL    HW243275   3.822   3.067   6.560
13781SOL     OW43276   4.416   3.560   7.324
13781SOL    HW143277   4.343   3.627   7.313
13781SOL    HW243278   4.494   3.587   7.267
13782SOL     OW43279   5.513   2.089   6.037
13782SOL    HW143280   5.574   2.052   5.967
13782SOL    HW243281   5.459   2.015   6.077
13783SOL     OW43282   5.105   3.457   6.078
13783SOL    HW143283   5.149   3.501   6.000
13783SOL    HW243284   5.041   3.520   6.121
13784SOL     OW43285   3.851   3.624   7.432
13784SOL    HW143286   3.791   3.558   7.476
13784SOL    HW243287   3.913   3.663   7.500
13785SOL     OW43288   5.005   2.809   6.199
13785SOL    HW143289   5.079   2.744   6.219
13785SOL    HW243290   5.044   2.894   6.162
13786SOL     OW43291   4.493   3.145   6.991
13786SOL    HW143292   4.466   3.206   7.065
13786SOL    HW243293   4.442   3.167   6.908
13787SOL     OW43294   4.402   3.522   5.750
13787SOL    HW143295   4.444   3.524   5.660
13787SOL    HW243296   4.351   3.437   5.761
13788SOL     OW43297   5.365   3.562   6.993
13788SOL    HW143298   5.387   3.580   6.897
13788SOL    HW243299   5.400   3.636   7.050
13789SOL     OW43300   5.548   2.017   6.578
13789SOL    HW143301   5.577   1.926   6.548
13789SOL    HW243302   5.463   2.042   6.532
13790SOL     OW43303   3.935   2.172   6.284
13790SOL    HW143304   3.849   2.220   6.264
13790SOL    HW243305   3.946   2.164   6.383
13791SOL     OW43306   4.861   3.433   5.621
13791SOL    HW143307   4.889   3.342   5.651
13791SOL    HW243308   4.812   3.427   5.535
13792SOL     OW43309   4.456   2.879   6.929
13792SOL    HW143310   4.477   2.881   6.831
13792SOL    HW243311   4.470   2.970   6.968
13793SOL     OW43312   4.676   2.781   5.899
13793SOL    HW143313   4.696   2.786   5.801
13793SOL    HW243314   4.714   2.696   5.936
13794SOL     OW43315   4.095   3.132   7.026
13794SOL    HW143316   4.123   3.157   6.934
13794SOL    HW243317   3.998   3.106   7.026
13795SOL     OW43318   5.326   3.156   6.862
13795SOL    HW143319   5.381   3.122   6.937
13795SOL    HW243320   5.264   3.228   6.895
13796SOL     OW43321   4.810   2.983   6.331
13796SOL    HW143322   4.731   2.930   6.364
13796SOL    HW243323   4.870   2.924   6.277
13797SOL     OW43324   4.757   2.109   6.523
13797SOL    HW143325   4.748   2.067   6.432
13797SOL    HW243326   4.761   2.037   6.592
13798SOL     OW43327   4.319   3.331   6.065
13798SOL    HW143328   4.377   3.274   6.007
13798SOL    HW243329   4.231   3.347   6.019
13799SOL     OW43330   5.560   2.219   7.035
13799SOL    HW143331   5.599   2.307   7.008
13799SOL    HW243332   5.555   2.159   6.955
13800SOL     OW43333   3.995   3.202   5.822
13800SOL    HW143334   3.899   3.179   5.806
13800SOL    HW243335   4.003   3.250   5.909
13801SOL     OW43336   3.886   2.948   7.325
13801SOL    HW143337   3.796   2.924   7.362
13801SOL    HW243338   3.955   2.888   7.364
13802SOL     OW43339   4.392   2.007   7.067
13802SOL    HW143340   4.478   1.990   7.019
13802SOL    HW243341   4.411   2.030   7.162
13803SOL     OW43342   3.857   2.252   5.500
13803SOL    HW143343   3.762   2.280   5.514
13803SOL    HW243344   3.907   2.325   5.454
13804SOL     OW43345   3.858   2.072   5.982
13804SOL    HW143346   3.915   2.153   5.995
13804SOL    HW243347   3.891   2.020   5.903
13805SOL     OW43348   4.925   3.180   5.712
13805SOL    HW143349   4.827   3.160   5.703
13805SOL    HW243350   4.949   3.186   5.809
13806SOL     OW43351   4.325   2.663   7.017
13806SOL    HW143352   4.377   2.744   6.990
13806SOL    HW243353   4.387   2.586   7.028
13807SOL     OW43354   5.210   3.712   6.648
13807SOL    HW143355   5.241   3.767   6.571
13807SOL    HW243356   5.287   3.661   6.686
13808SOL     OW43357   4.384   2.332   7.304
13808SOL    HW143358   4.337   2.356   7.389
13808SOL    HW243359   4.417   2.238   7.309
13809SOL     OW43360   5.175   3.077   7.248
13809SOL    HW143361   5.194   3.083   7.346
13809SOL    HW243362   5.259   3.093   7.196
13810SOL     OW43363   4.040   3.619   7.147
13810SOL    HW143364   3.961   3.679   7.149
13810SOL    HW243365   4.017   3.532   7.191
13811SOL     OW43366   5.297   2.750   6.837
13811SOL    HW143367   5.299   2.659   6.796
13811SOL    HW243368   5.311   2.819   6.766
13812SOL     OW43369   4.950   2.191   6.030
13812SOL    HW143370   5.009   2.111   6.039
13812SOL    HW243371   4.970   2.255   6.105
13813SOL     OW43372   4.217   2.604   6.299
13813SOL    HW143373   4.289   2.671   6.281
13813SOL    HW243374   4.170   2.582   6.214
13814SOL     OW43375   5.453   2.259   7.281
13814SOL    HW143376   5.492   2.252   7.189
13814SOL    HW243377   5.375   2.197   7.290
13815SOL     OW43378   5.444   2.795   7.064
13815SOL    HW143379   5.442   2.894   7.078
13815SOL    HW243380   5.397   2.772   6.978
13816SOL     OW43381   4.654   3.161   5.682
13816SOL    HW143382   4.595   3.152   5.762
13816SOL    HW243383   4.599   3.173   5.600
13817SOL     OW43384   4.414   3.642   6.483
13817SOL    HW143385   4.391   3.715   6.419
13817SOL    HW243386   4.504   3.604   6.460
13818SOL     OW43387   4.609   2.823   6.438
13818SOL    HW143388   4.663   2.745   6.471
13818SOL    HW243389   4.559   2.863   6.514
13819SOL     OW43390   4.742   2.775   5.637
13819SOL    HW143391   4.715   2.851   5.578
13819SOL    HW243392   4.836   2.749   5.617
13820SOL     OW43393   5.506   3.456   6.435
13820SOL    HW143394   5.434   3.446   6.366
13820SOL    HW243395   5.490   3.391   6.510
13821SOL     OW43396   3.999   3.178   7.421
13821SOL    HW143397   3.948   3.098   7.389
13821SOL    HW243398   3.982   3.189   7.519
13822SOL     OW43399   3.917   3.177   6.304
13822SOL    HW143400   3.932   3.171   6.402
13822SOL    HW243401   3.963   3.101   6.258
13823SOL     OW43402   4.411   3.306   7.195
13823SOL    HW143403   4.340   3.244   7.230
13823SOL    HW243404   4.407   3.393   7.244
13824SOL     OW43405   5.550   2.023   6.851
13824SOL    HW143406   5.596   1.936   6.870
13824SOL    HW243407   5.539   2.035   6.753
13825SOL     OW43408   4.060   2.264   6.059
13825SOL    HW143409   4.132   2.205   6.021
13825SOL    HW243410   4.031   2.228   6.147
13826SOL     OW43411   5.397   3.314   6.645
13826SOL    HW143412   5.321   3.291   6.584
13826SOL    HW243413   5.396   3.253   6.725
13827SOL     OW43414   4.083   2.383   6.862
13827SOL    HW143415   4.136   2.323   6.923
13827SOL    HW243416   4.090   2.349   6.769
13828SOL     OW43417   4.554   3.403   6.225
13828SOL    HW143418   4.524   3.438   6.137
13828SOL    HW243419   4.482   3.344   6.263
13829SOL     OW43420   5.135   2.122   6.689
13829SOL    HW143421   5.158   2.027   6.706
13829SOL    HW243422   5.085   2.159   6.768
13830SOL     OW43423   4.751   1.878   6.682
13830SOL    HW143424   4.696   1.817   6.624
13830SOL    HW243425   4.842   1.838   6.693
13831SOL     OW43426   4.493   3.168   5.918
13831SOL    HW143427   4.480   3.074   5.950
13831SOL    HW243428   4.579   3.204   5.953
13832SOL     OW43429   5.092   1.897   5.802
13832SOL    HW143430   5.147   1.822   5.764
13832SOL    HW243431   4.997   1.867   5.811
13833SOL     OW43432   5.009   2.351   6.242
13833SOL    HW143433   4.960   2.437   6.237
13833SOL    HW243434   5.005   2.316   6.336
13834SOL     OW43435   5.307   2.081   6.478
13834SOL    HW143436   5.246   2.111   6.552
13834SOL    HW243437   5.308   2.151   6.406
13835SOL     OW43438   3.777   2.889   5.903
13835SOL    HW143439   3.875   2.872   5.915
13835SOL    HW243440   3.729   2.801   5.898
13836SOL     OW43441   4.596   3.537   5.950
13836SOL    HW143442   4.526   3.528   5.879
13836SOL    HW243443   4.579   3.619   6.004
13837SOL     OW43444   3.918   2.420   7.580
13837SOL    HW143445   3.824   2.417   7.614
13837SOL    HW243446   3.918   2.429   7.481
13838SOL     OW43447   3.959   2.129   8.434
13838SOL    HW143448   4.008   2.099   8.515
13838SOL    HW243449   3.864   2.099   8.439
13839SOL     OW43450   3.730   2.270   8.087
13839SOL    HW143451   3.648   2.292   8.141
13839SOL    HW243452   3.707   2.202   8.017
13840SOL     OW43453   4.316   3.219   8.727
13840SOL    HW143454   4.221   3.213   8.758
13840SOL    HW243455   4.350   3.312   8.740
13841SOL     OW43456   5.304   3.411   8.149
13841SOL    HW143457   5.262   3.355   8.221
13841SOL    HW243458   5.241   3.416   8.071
13842SOL     OW43459   4.785   2.649   8.086
13842SOL    HW143460   4.855   2.720   8.076
13842SOL    HW243461   4.770   2.631   8.183
13843SOL     OW43462   5.532   2.451   7.650
13843SOL    HW143463   5.482   2.473   7.566
13843SOL    HW243464   5.486   2.375   7.698
13844SOL     OW43465   4.425   3.034   8.542
13844SOL    HW143466   4.377   3.085   8.614
13844SOL    HW243467   4.468   3.098   8.479
13845SOL     OW43468   4.619   2.609   9.250
13845SOL    HW143469   4.653   2.673   9.319
13845SOL    HW243470   4.624   2.653   9.160
13846SOL     OW43471   4.397   2.865   8.097
13846SOL    HW143472   4.476   2.855   8.156
13846SOL    HW243473   4.333   2.931   8.137
13847SOL     OW43474   4.105   3.400   8.566
13847SOL    HW143475   4.106   3.304   8.593
13847SOL    HW243476   4.148   3.411   8.477
13848SOL     OW43477   5.169   3.390   8.806
13848SOL    HW143478   5.234   3.464   8.823
13848SOL    HW243479   5.090   3.399   8.866
13849SOL     OW43480   4.197   2.243   8.897
13849SOL    HW143481   4.278   2.184   8.906
13849SOL    HW243482   4.116   2.191   8.926
13850SOL     OW43483   5.349   2.340   8.200
13850SOL    HW143484   5.338   2.373   8.106
13850SOL    HW243485   5.299   2.400   8.262
13851SOL     OW43486   3.982   3.530   7.930
13851SOL    HW143487   3.992   3.602   7.999
13851SOL    HW243488   4.057   3.537   7.864
13852SOL     OW43489   4.890   3.201   9.125
13852SOL    HW143490   4.982   3.163   9.116
13852SOL    HW243491   4.826   3.127   9.147
13853SOL     OW43492   3.957   3.254   7.960
13853SOL    HW143493   3.968   3.353   7.958
13853SOL    HW243494   3.900   3.228   8.037
13854SOL     OW43495   3.890   3.013   8.347
13854SOL    HW143496   3.941   2.928   8.331
13854SOL    HW243497   3.835   3.003   8.430
13855SOL     OW43498   4.272   3.694   8.872
13855SOL    HW143499   4.209   3.658   8.941
13855SOL    HW243500   4.318   3.775   8.908
13856SOL     OW43501   4.290   2.832   7.619
13856SOL    HW143502   4.331   2.878   7.540
13856SOL    HW243503   4.336   2.863   7.702
13857SOL     OW43504   5.408   1.968   9.003
13857SOL    HW143505   5.436   2.051   8.956
13857SOL    HW243506   5.343   1.991   9.075
13858SOL     OW43507   3.816   2.533   8.039
13858SOL    HW143508   3.794   2.436   8.051
13858SOL    HW243509   3.801   2.581   8.125
13859SOL     OW43510   5.591   3.635   7.691
13859SOL    HW143511   5.671   3.628   7.752
13859SOL    HW243512   5.606   3.708   7.624
13860SOL     OW43513   3.727   3.428   7.563
13860SOL    HW143514   3.701   3.331   7.567
13860SOL    HW243515   3.730   3.466   7.655
13861SOL     OW43516   5.401   2.753   8.116
13861SOL    HW143517   5.490   2.738   8.158
13861SOL    HW243518   5.409   2.817   8.040
13862SOL     OW43519   5.411   2.965   7.927
13862SOL    HW143520   5.495   2.946   7.875
13862SOL    HW243521   5.433   3.022   8.006
13863SOL     OW43522   3.936   2.628   9.059
13863SOL    HW143523   4.036   2.630   9.057
13863SOL    HW243524   3.903   2.705   9.115
13864SOL     OW43525   4.343   3.258   8.162
13864SOL    HW143526   4.296   3.173   8.186
13864SOL    HW243527   4.336   3.274   8.063
13865SOL     OW43528   4.988   3.092   8.849
13865SOL    HW143529   5.006   3.017   8.785
13865SOL    HW243530   5.056   3.089   8.923
13866SOL     OW43531   4.548   1.883   7.957
13866SOL    HW143532   4.602   1.963   7.932
13866SOL    HW243533   4.450   1.904   7.947
13867SOL     OW43534   3.911   2.842   8.753
13867SOL    HW143535   3.995   2.797   8.722
13867SOL    HW243536   3.858   2.871   8.674
13868SOL     OW43537   5.315   2.879   7.677
13868SOL    HW143538   5.241   2.812   7.689
13868SOL    HW243539   5.347   2.909   7.767
13869SOL     OW43540   4.919   3.679   9.070
13869SOL    HW143541   4.919   3.749   8.999
13869SOL    HW243542   4.926   3.589   9.029
13870SOL     OW43543   4.091   2.101   9.338
13870SOL    HW143544   4.131   2.184   9.378
13870SOL    HW243545   3.996   2.118   9.313
13871SOL     OW43546   5.213   3.250   8.352
13871SOL    HW143547   5.152   3.288   8.421
13871SOL    HW243548   5.189   3.154   8.335
13872SOL     OW43549   5.345   3.679   8.002
13872SOL    HW143550   5.350   3.632   7.915
13872SOL    HW243551   5.334   3.613   8.076
13873SOL     OW43552   4.280   2.566   7.723
13873SOL    HW143553   4.291   2.656   7.682
13873SOL    HW243554   4.207   2.570   7.791
13874SOL     OW43555   4.981   2.290   8.402
13874SOL    HW143556   4.894   2.313   8.447
13874SOL    HW243557   5.034   2.231   8.462
13875SOL     OW43558   5.337   3.553   7.761
13875SOL    HW143559   5.431   3.580   7.738
13875SOL    HW243560   5.288   3.528   7.678
13876SOL     OW43561   4.502   2.470   8.876
13876SOL    HW143562   4.467   2.438   8.965
13876SOL    HW243563   4.477   2.404   8.805
13877SOL     OW43564   5.044   2.330   9.119
13877SOL    HW143565   5.053   2.387   9.200
13877SOL    HW243566   5.102   2.250   9.128
13878SOL     OW43567   4.662   2.766   9.022
13878SOL    HW143568   4.718   2.700   8.972
13878SOL    HW243569   4.608   2.820   8.958
13879SOL     OW43570   4.728   2.278   8.600
13879SOL    HW143571   4.641   2.308   8.639
13879SOL    HW243572   4.710   2.206   8.533
13880SOL     OW43573   4.753   2.562   7.835
13880SOL    HW143574   4.766   2.588   7.930
13880SOL    HW243575   4.664   2.517   7.825
13881SOL     OW43576   3.781   2.661   8.288
13881SOL    HW143577   3.869   2.708   8.298
13881SOL    HW243578   3.758   2.615   8.374
13882SOL     OW43579   3.829   3.735   9.049
13882SOL    HW143580   3.832   3.706   9.145
13882SOL    HW243581   3.734   3.743   9.019
13883SOL     OW43582   4.579   2.221   7.644
13883SOL    HW143583   4.647   2.272   7.591
13883SOL    HW243584   4.536   2.152   7.586
13884SOL     OW43585   5.361   2.474   9.302
13884SOL    HW143586   5.363   2.560   9.252
13884SOL    HW243587   5.384   2.399   9.240
13885SOL     OW43588   5.149   3.035   8.036
13885SOL    HW143589   5.232   3.017   7.984
13885SOL    HW243590   5.094   3.103   7.989
13886SOL     OW43591   4.303   1.936   8.407
13886SOL    HW143592   4.311   1.998   8.486
13886SOL    HW243593   4.376   1.956   8.342
13887SOL     OW43594   4.729   3.320   7.917
13887SOL    HW143595   4.705   3.395   7.856
13887SOL    HW243596   4.689   3.336   8.007
13888SOL     OW43597   4.071   3.682   8.361
13888SOL    HW143598   4.117   3.593   8.359
13888SOL    HW243599   4.138   3.754   8.375
13889SOL     OW43600   5.526   2.955   8.366
13889SOL    HW143601   5.493   3.007   8.287
13889SOL    HW243602   5.453   2.946   8.434
13890SOL     OW43603   4.932   3.416   8.950
13890SOL    HW143604   4.925   3.343   9.018
13890SOL    HW243605   4.863   3.403   8.879
13891SOL     OW43606   4.014   2.818   7.780
13891SOL    HW143607   4.075   2.831   7.703
13891SOL    HW243608   4.024   2.725   7.816
13892SOL     OW43609   5.167   2.629   8.132
13892SOL    HW143610   5.161   2.578   8.218
13892SOL    HW243611   5.254   2.679   8.131
13893SOL     OW43612   4.870   3.593   7.668
13893SOL    HW143613   4.780   3.577   7.710
13893SOL    HW243614   4.896   3.513   7.614
13894SOL     OW43615   3.962   2.114   8.946
13894SOL    HW143616   3.888   2.181   8.944
13894SOL    HW243617   3.933   2.033   8.996
13895SOL     OW43618   5.402   3.270   7.561
13895SOL    HW143619   5.343   3.350   7.561
13895SOL    HW243620   5.348   3.189   7.538
13896SOL     OW43621   4.201   3.590   7.776
13896SOL    HW143622   4.244   3.650   7.844
13896SOL    HW243623   4.272   3.549   7.719
13897SOL     OW43624   5.132   2.010   7.835
13897SOL    HW143625   5.120   1.955   7.752
13897SOL    HW243626   5.212   1.977   7.886
13898SOL     OW43627   4.052   3.610   8.723
13898SOL    HW143628   4.136   3.632   8.771
13898SOL    HW243629   4.070   3.537   8.656
13899SOL     OW43630   4.666   3.568   8.307
13899SOL    HW143631   4.758   3.530   8.309
13899SOL    HW243632   4.611   3.518   8.241
13900SOL     OW43633   4.064   2.559   7.913
13900SOL    HW143634   4.096   2.464   7.918
13900SOL    HW243635   3.972   2.565   7.950
13901SOL     OW43636   5.205   2.107   9.184
13901SOL    HW143637   5.219   2.131   9.280
13901SOL    HW243638   5.140   2.031   9.178
13902SOL     OW43639   4.343   1.945   7.553
13902SOL    HW143640   4.381   1.860   7.589
13902SOL    HW243641   4.277   1.924   7.481
13903SOL     OW43642   4.518   2.154   9.139
13903SOL    HW143643   4.615   2.176   9.133
13903SOL    HW243644   4.500   2.097   9.218
13904SOL     OW43645   4.595   3.397   8.611
13904SOL    HW143646   4.569   3.345   8.529
13904SOL    HW243647   4.667   3.347   8.660
13905SOL     OW43648   4.991   2.473   8.887
13905SOL    HW143649   5.017   2.433   8.975
13905SOL    HW243650   5.037   2.561   8.876
13906SOL     OW43651   4.532   3.233   8.386
13906SOL    HW143652   4.626   3.236   8.353
13906SOL    HW243653   4.469   3.245   8.308
13907SOL     OW43654   4.644   2.378   8.309
13907SOL    HW143655   4.627   2.367   8.211
13907SOL    HW243656   4.659   2.288   8.351
13908SOL     OW43657   4.284   1.937   7.931
13908SOL    HW143658   4.210   1.933   7.998
13908SOL    HW243659   4.272   2.016   7.871
13909SOL     OW43660   5.219   3.073   7.515
13909SOL    HW143661   5.257   2.996   7.566
13909SOL    HW243662   5.134   3.103   7.558
13910SOL     OW43663   4.004   1.910   7.618
13910SOL    HW143664   4.051   1.985   7.571
13910SOL    HW243665   4.071   1.853   7.665
13911SOL     OW43666   4.678   2.111   7.879
13911SOL    HW143667   4.641   2.149   7.794
13911SOL    HW243668   4.776   2.131   7.885
13912SOL     OW43669   4.744   2.585   8.832
13912SOL    HW143670   4.665   2.528   8.852
13912SOL    HW243671   4.828   2.532   8.849
13913SOL     OW43672   4.922   3.482   8.258
13913SOL    HW143673   4.949   3.532   8.175
13913SOL    HW243674   4.968   3.523   8.337
13914SOL     OW43675   4.205   3.029   8.206
13914SOL    HW143676   4.147   3.011   8.285
13914SOL    HW243677   4.151   3.017   8.122
13915SOL     OW43678   4.971   3.660   8.048
13915SOL    HW143679   5.024   3.726   7.996
13915SOL    HW243680   4.888   3.704   8.083
13916SOL     OW43681   4.765   2.370   7.509
13916SOL    HW143682   4.743   2.463   7.480
13916SOL    HW243683   4.834   2.373   7.580
13917SOL     OW43684   3.833   2.506   8.821
13917SOL    HW143685   3.925   2.483   8.790
13917SOL    HW243686   3.838   2.568   8.899
13918SOL     OW43687   4.314   2.080   8.644
13918SOL    HW143688   4.360   2.057   8.730
13918SOL    HW243689   4.215   2.073   8.657
13919SOL     OW43690   4.593   2.319   8.050
13919SOL    HW143691   4.553   2.377   7.979
13919SOL    HW243692   4.628   2.235   8.008
13920SOL     OW43693   4.531   1.930   8.243
13920SOL    HW143694   4.537   1.930   8.143
13920SOL    HW243695   4.568   1.845   8.279
13921SOL     OW43696   5.152   2.981   8.320
13921SOL    HW143697   5.094   2.903   8.343
13921SOL    HW243698   5.155   2.993   8.221
13922SOL     OW43699   5.168   2.495   8.370
13922SOL    HW143700   5.098   2.424   8.380
13922SOL    HW243701   5.229   2.492   8.449
13923SOL     OW43702   5.539   2.630   7.853
13923SOL    HW143703   5.610   2.602   7.917
13923SOL    HW243704   5.540   2.569   7.774
13924SOL     OW43705   4.226   3.290   7.642
13924SOL    HW143706   4.127   3.279   7.654
13924SOL    HW243707   4.264   3.207   7.600
13925SOL     OW43708   5.485   3.111   8.141
13925SOL    HW143709   5.582   3.096   8.123
13925SOL    HW243710   5.465   3.210   8.141
13926SOL     OW43711   5.101   2.446   7.494
13926SOL    HW143712   5.063   2.417   7.582
13926SOL    HW243713   5.201   2.448   7.500
13927SOL     OW43714   4.246   2.127   7.740
13927SOL    HW143715   4.286   2.063   7.674
13927SOL    HW243716   4.219   2.211   7.694
13928SOL     OW43717   5.428   3.130   8.982
13928SOL    HW143718   5.499   3.060   8.987
13928SOL    HW243719   5.466   3.218   9.010
13929SOL     OW43720   4.770   3.238   8.774
13929SOL    HW143721   4.686   3.207   8.819
13929SOL    HW243722   4.848   3.189   8.812
13930SOL     OW43723   5.340   3.501   9.122
13930SOL    HW143724   5.317   3.539   9.032
13930SOL    HW243725   5.424   3.447   9.114
13931SOL     OW43726   4.883   3.135   8.547
13931SOL    HW143727   4.827   3.170   8.622
13931SOL    HW243728   4.845   3.165   8.460
13932SOL     OW43729   5.320   2.954   8.548
13932SOL    HW143730   5.314   3.030   8.613
13932SOL    HW243731   5.250   2.964   8.478
13933SOL     OW43732   4.653   1.903   8.787
13933SOL    HW143733   4.687   1.885   8.694
13933SOL    HW243734   4.713   1.969   8.832
13934SOL     OW43735   4.701   2.998   9.172
13934SOL    HW143736   4.615   3.048   9.166
13934SOL    HW243737   4.695   2.913   9.119
13935SOL     OW43738   4.449   2.917   7.829
13935SOL    HW143739   4.428   2.897   7.925
13935SOL    HW243740   4.535   2.874   7.804
13936SOL     OW43741   4.152   2.699   8.686
13936SOL    HW143742   4.222   2.716   8.756
13936SOL    HW243743   4.118   2.606   8.695
13937SOL     OW43744   4.954   2.248   8.741
13937SOL    HW143745   4.974   2.331   8.793
13937SOL    HW243746   4.869   2.261   8.690
13938SOL     OW43747   3.861   3.413   8.789
13938SOL    HW143748   3.783   3.437   8.731
13938SOL    HW243749   3.930   3.485   8.785
13939SOL     OW43750   4.065   3.001   7.982
13939SOL    HW143751   4.027   3.091   7.961
13939SOL    HW243752   4.042   2.938   7.908
13940SOL     OW43753   4.180   2.513   8.346
13940SOL    HW143754   4.187   2.563   8.260
13940SOL    HW243755   4.271   2.494   8.382
13941SOL     OW43756   4.991   3.224   7.904
13941SOL    HW143757   5.046   3.307   7.917
13941SOL    HW243758   4.895   3.246   7.916
13942SOL     OW43759   5.066   3.338   8.562
13942SOL    HW143760   5.103   3.353   8.654
13942SOL    HW243761   5.003   3.261   8.564
13943SOL     OW43762   5.322   2.477   7.957
13943SOL    HW143763   5.246   2.528   7.999
13943SOL    HW243764   5.392   2.540   7.925
13944SOL     OW43765   4.217   2.606   9.071
13944SOL    HW143766   4.259   2.646   8.990
13944SOL    HW243767   4.274   2.531   9.105
13945SOL     OW43768   5.372   2.703   9.158
13945SOL    HW143769   5.282   2.741   9.139
13945SOL    HW243770   5.428   2.705   9.075
13946SOL     OW43771   4.241   1.904   9.212
13946SOL    HW143772   4.183   1.845   9.156
13946SOL    HW243773   4.185   1.977   9.252
13947SOL     OW43774   4.392   2.761   8.544
13947SOL    HW143775   4.399   2.860   8.542
13947SOL    HW243776   4.303   2.734   8.580
13948SOL     OW43777   5.015   2.739   8.413
13948SOL    HW143778   4.923   2.711   8.387
13948SOL    HW243779   5.078   2.662   8.400
13949SOL     OW43780   4.935   2.395   7.720
13949SOL    HW143781   4.949   2.317   7.782
13949SOL    HW243782   4.877   2.463   7.764
13950SOL     OW43783   4.047   2.044   8.687
13950SOL    HW143784   4.020   2.082   8.775
13950SOL    HW243785   4.011   1.951   8.678
13951SOL     OW43786   3.770   3.134   8.749
13951SOL    HW143787   3.779   3.086   8.837
13951SOL    HW243788   3.799   3.229   8.760
13952SOL     OW43789   4.431   2.493   8.448
13952SOL    HW143790   4.508   2.463   8.391
13952SOL    HW243791   4.438   2.591   8.465
13953SOL     OW43792   5.512   2.847   9.346
13953SOL    HW143793   5.463   2.790   9.280
13953SOL    HW243794   5.448   2.878   9.417
13954SOL     OW43795   4.062   1.925   8.091
13954SOL    HW143796   4.030   2.018   8.110
13954SOL    HW243797   4.065   1.873   8.176
13955SOL     OW43798   5.366   2.272   7.777
13955SOL    HW143799   5.417   2.204   7.831
13955SOL    HW243800   5.329   2.342   7.838
13956SOL     OW43801   4.752   2.627   8.362
13956SOL    HW143802   4.727   2.653   8.456
13956SOL    HW243803   4.723   2.532   8.346
13957SOL     OW43804   4.737   3.405   9.226
13957SOL    HW143805   4.694   3.461   9.155
13957SOL    HW243806   4.791   3.332   9.183
13958SOL     OW43807   5.569   3.365   9.028
13958SOL    HW143808   5.584   3.392   8.933
13958SOL    HW243809   5.653   3.380   9.080
13959SOL     OW43810   4.207   2.836   9.216
13959SOL    HW143811   4.146   2.826   9.294
13959SOL    HW243812   4.216   2.748   9.168
13960SOL     OW43813   5.253   2.128   7.560
13960SOL    HW143814   5.201   2.050   7.593
13960SOL    HW243815   5.286   2.181   7.638
13961SOL     OW43816   4.993   2.693   7.465
13961SOL    HW143817   5.027   2.599   7.467
13961SOL    HW243818   5.021   2.736   7.379
13962SOL     OW43819   4.793   3.239   8.311
13962SOL    HW143820   4.804   3.161   8.250
13962SOL    HW243821   4.848   3.316   8.278
13963SOL     OW43822   4.029   2.777   8.327
13963SOL    HW143823   4.084   2.752   8.247
13963SOL    HW243824   4.065   2.730   8.407
13964SOL     OW43825   3.988   2.391   8.485
13964SOL    HW143826   3.978   2.296   8.457
13964SOL    HW243827   4.056   2.436   8.428
13965SOL     OW43828   4.785   2.239   9.142
13965SOL    HW143829   4.754   2.283   9.226
13965SOL    HW243830   4.879   2.267   9.122
13966SOL     OW43831   4.802   2.088   8.909
13966SOL    HW143832   4.793   2.135   8.997
13966SOL    HW243833   4.867   2.138   8.852
13967SOL     OW43834   3.709   3.135   7.634
13967SOL    HW143835   3.616   3.164   7.611
13967SOL    HW243836   3.708   3.040   7.664
13968SOL     OW43837   3.793   3.654   8.422
13968SOL    HW143838   3.756   3.611   8.339
13968SOL    HW243839   3.892   3.665   8.412
13969SOL     OW43840   4.223   3.448   8.329
13969SOL    HW143841   4.295   3.517   8.339
13969SOL    HW243842   4.254   3.378   8.265
13970SOL     OW43843   4.658   2.705   8.601
13970SOL    HW143844   4.690   2.665   8.686
13970SOL    HW243845   4.559   2.713   8.603
13971SOL     OW43846   3.760   2.528   8.544
13971SOL    HW143847   3.840   2.475   8.515
13971SOL    HW243848   3.767   2.547   8.641
13972SOL     OW43849   3.967   2.377   9.161
13972SOL    HW143850   4.051   2.347   9.117
13972SOL    HW243851   3.938   2.465   9.122
13973SOL     OW43852   5.131   2.812   9.089
13973SOL    HW143853   5.137   2.912   9.087
13973SOL    HW243854   5.111   2.777   8.998
13974SOL     OW43855   4.512   2.436   7.808
13974SOL    HW143856   4.523   2.355   7.749
13974SOL    HW243857   4.429   2.485   7.782
13975SOL     OW43858   5.342   2.474   8.582
13975SOL    HW143859   5.311   2.405   8.647
13975SOL    HW243860   5.440   2.465   8.568
13976SOL     OW43861   3.948   3.420   9.191
13976SOL    HW143862   3.917   3.496   9.248
13976SOL    HW243863   3.992   3.351   9.249
13977SOL     OW43864   4.455   2.318   8.656
13977SOL    HW143865   4.401   2.234   8.645
13977SOL    HW243866   4.435   2.381   8.581
13978SOL     OW43867   4.603   3.541   9.008
13978SOL    HW143868   4.538   3.494   8.948
13978SOL    HW243869   4.655   3.608   8.954
13979SOL     OW43870   4.175   2.347   7.592
13979SOL    HW143871   4.229   2.421   7.633
13979SOL    HW243872   4.078   2.371   7.595
13980SOL     OW43873   3.782   2.946   8.968
13980SOL    HW143874   3.816   2.918   9.057
13980SOL    HW243875   3.837   2.903   8.896
13981SOL     OW43876   4.997   2.902   8.637
13981SOL    HW143877   5.007   2.836   8.563
13981SOL    HW243878   4.955   2.986   8.603
13982SOL     OW43879   5.103   2.719   7.718
13982SOL    HW143880   5.044   2.678   7.788
13982SOL    HW243881   5.058   2.709   7.629
13983SOL     OW43882   5.478   3.559   8.580
13983SOL    HW143883   5.550   3.595   8.520
13983SOL    HW243884   5.456   3.465   8.552
13984SOL     OW43885   5.023   3.595   8.486
13984SOL    HW143886   5.108   3.648   8.492
13984SOL    HW243887   5.038   3.503   8.521
13985SOL     OW43888   4.442   3.601   9.230
13985SOL    HW143889   4.374   3.671   9.208
13985SOL    HW243890   4.503   3.589   9.152
13986SOL     OW43891   5.521   2.096   7.916
13986SOL    HW143892   5.573   2.066   7.835
13986SOL    HW243893   5.459   2.022   7.944
13987SOL     OW43894   5.132   3.456   7.939
13987SOL    HW143895   5.191   3.490   7.867
13987SOL    HW243896   5.067   3.527   7.966
13988SOL     OW43897   3.851   3.652   9.306
13988SOL    HW143898   3.788   3.593   9.357
13988SOL    HW243899   3.895   3.716   9.369
13989SOL     OW43900   4.988   2.825   8.082
13989SOL    HW143901   5.049   2.747   8.099
13989SOL    HW243902   5.043   2.904   8.054
13990SOL     OW43903   4.535   3.151   8.879
13990SOL    HW143904   4.513   3.157   8.977
13990SOL    HW243905   4.456   3.181   8.826
13991SOL     OW43906   4.396   3.502   7.595
13991SOL    HW143907   4.414   3.515   7.498
13991SOL    HW243908   4.342   3.419   7.609
13992SOL     OW43909   5.355   3.591   8.839
13992SOL    HW143910   5.395   3.586   8.748
13992SOL    HW243911   5.393   3.669   8.889
13993SOL     OW43912   5.581   2.028   8.443
13993SOL    HW143913   5.605   1.938   8.407
13993SOL    HW243914   5.495   2.058   8.403
13994SOL     OW43915   3.979   2.175   8.157
13994SOL    HW143916   3.890   2.214   8.132
13994SOL    HW243917   3.984   2.166   8.257
13995SOL     OW43918   4.950   3.382   7.516
13995SOL    HW143919   4.961   3.291   7.557
13995SOL    HW243920   4.878   3.379   7.447
13996SOL     OW43921   4.549   2.892   8.810
13996SOL    HW143922   4.603   2.878   8.727
13996SOL    HW243923   4.545   2.990   8.831
13997SOL     OW43924   4.683   2.816   7.751
13997SOL    HW143925   4.748   2.855   7.687
13997SOL    HW243926   4.714   2.725   7.780
13998SOL     OW43927   5.211   3.483   7.526
13998SOL    HW143928   5.118   3.448   7.520
13998SOL    HW243929   5.252   3.484   7.435
13999SOL     OW43930   5.323   3.171   8.727
13999SOL    HW143931   5.371   3.143   8.811
13999SOL    HW243932   5.259   3.245   8.748
14000SOL     OW43933   4.796   3.005   8.177
14000SOL    HW143934   4.717   2.954   8.210
14000SOL    HW243935   4.862   2.942   8.137
14001SOL     OW43936   4.676   2.096   8.412
14001SOL    HW143937   4.616   2.061   8.339
14001SOL    HW243938   4.718   2.019   8.460
14002SOL     OW43939   4.353   3.308   7.895
14002SOL    HW143940   4.429   3.261   7.851
14002SOL    HW243941   4.278   3.319   7.830
14003SOL     OW43942   5.513   2.199   8.880
14003SOL    HW143943   5.572   2.277   8.861
14003SOL    HW243944   5.533   2.125   8.815
14004SOL     OW43945   3.959   3.217   7.690
14004SOL    HW143946   3.866   3.191   7.667
14004SOL    HW243947   3.966   3.231   7.789
14005SOL     OW43948   3.860   2.844   9.219
14005SOL    HW143949   3.768   2.847   9.258
14005SOL    HW243950   3.928   2.847   9.292
14006SOL     OW43951   4.432   2.039   8.896
14006SOL    HW143952   4.511   1.994   8.855
14006SOL    HW243953   4.459   2.083   8.982
14007SOL     OW43954   3.802   2.171   7.428
14007SOL    HW143955   3.716   2.158   7.378
14007SOL    HW243956   3.842   2.259   7.401
14008SOL     OW43957   5.105   2.726   8.830
14008SOL    HW143958   5.049   2.782   8.769
14008SOL    HW243959   5.198   2.722   8.795
14009SOL     OW43960   3.765   2.022   7.676
14009SOL    HW143961   3.748   2.081   7.598
14009SOL    HW243962   3.857   1.983   7.669
14010SOL     OW43963   4.988   3.141   7.642
14010SOL    HW143964   4.939   3.055   7.628
14010SOL    HW243965   4.990   3.164   7.739
14011SOL     OW43966   4.361   2.703   8.861
14011SOL    HW143967   4.421   2.781   8.844
14011SOL    HW243968   4.415   2.619   8.861
14012SOL     OW43969   5.263   3.728   8.501
14012SOL    HW143970   5.297   3.784   8.425
14012SOL    HW243971   5.339   3.673   8.537
14013SOL     OW43972   4.424   2.425   9.137
14013SOL    HW143973   4.486   2.481   9.192
14013SOL    HW243974   4.446   2.328   9.151
14014SOL     OW43975   5.165   3.087   9.080
14014SOL    HW143976   5.171   3.091   9.179
14014SOL    HW243977   5.254   3.109   9.039
14015SOL     OW43978   4.081   3.623   9.055
14015SOL    HW143979   3.996   3.672   9.035
14015SOL    HW243980   4.060   3.535   9.097
14016SOL     OW43981   5.353   2.726   8.709
14016SOL    HW143982   5.354   2.643   8.654
14016SOL    HW243983   5.348   2.806   8.649
14017SOL     OW43984   4.942   2.188   7.901
14017SOL    HW143985   5.013   2.124   7.870
14017SOL    HW243986   4.944   2.194   8.001
14018SOL     OW43987   4.192   2.680   8.128
14018SOL    HW143988   4.270   2.738   8.105
14018SOL    HW243989   4.154   2.640   8.045
14019SOL     OW43990   5.418   2.267   9.131
14019SOL    HW143991   5.452   2.253   9.038
14019SOL    HW243992   5.337   2.209   9.145
14020SOL     OW43993   5.525   2.727   8.932
14020SOL    HW143994   5.566   2.817   8.937
14020SOL    HW243995   5.468   2.720   8.850
14021SOL     OW43996   4.567   3.186   7.487
14021SOL    HW143997   4.565   3.192   7.587
14021SOL    HW243998   4.604   3.271   7.450
14022SOL     OW43999   4.398   3.646   8.352
14022SOL    HW144000   4.372   3.742   8.351
14022SOL    HW244001   4.498   3.638   8.352
14023SOL     OW44002   4.594   2.852   8.292
14023SOL    HW144003   4.649   2.771   8.310
14023SOL    HW244004   4.550   2.882   8.377
14024SOL     OW44005   4.863   2.910   7.566
14024SOL    HW144006   4.821   2.957   7.488
14024SOL    HW244007   4.908   2.827   7.534
14025SOL     OW44008   5.551   3.403   8.259
14025SOL    HW144009   5.464   3.419   8.212
14025SOL    HW244010   5.534   3.354   8.345
14026SOL     OW44011   4.083   3.217   9.319
14026SOL    HW144012   4.127   3.160   9.249
14026SOL    HW244013   4.024   3.160   9.376
14027SOL     OW44014   4.464   3.150   9.144
14027SOL    HW144015   4.369   3.121   9.144
14027SOL    HW244016   4.474   3.233   9.198
14028SOL     OW44017   5.582   2.001   8.714
14028SOL    HW144018   5.643   1.923   8.729
14028SOL    HW244019   5.577   2.022   8.616
14029SOL     OW44020   4.127   2.298   7.947
14029SOL    HW144021   4.170   2.228   7.889
14029SOL    HW244022   4.083   2.254   8.025
14030SOL     OW44023   5.435   3.303   8.498
14030SOL    HW144024   5.356   3.282   8.440
14030SOL    HW244025   5.430   3.249   8.582
14031SOL     OW44026   4.082   2.440   8.738
14031SOL    HW144027   4.133   2.371   8.789
14031SOL    HW244028   4.059   2.404   8.647
14032SOL     OW44029   4.545   3.437   8.105
14032SOL    HW144030   4.516   3.490   8.025
14032SOL    HW244031   4.473   3.372   8.130
14033SOL     OW44032   5.134   2.139   8.567
14033SOL    HW144033   5.163   2.044   8.582
14033SOL    HW244034   5.078   2.170   8.644
14034SOL     OW44035   4.768   1.859   8.519
14034SOL    HW144036   4.712   1.798   8.463
14034SOL    HW244037   4.864   1.834   8.510
14035SOL     OW44038   4.549   3.169   7.762
14035SOL    HW144039   4.519   3.077   7.786
14035SOL    HW244040   4.627   3.195   7.818
14036SOL     OW44041   4.420   3.462   8.808
14036SOL    HW144042   4.376   3.551   8.815
14036SOL    HW244043   4.484   3.462   8.731
14037SOL     OW44044   5.108   1.884   7.595
14037SOL    HW144045   5.155   1.803   7.560
14037SOL    HW244046   5.009   1.871   7.589
14038SOL     OW44047   5.333   2.115   8.368
14038SOL    HW144048   5.264   2.143   8.434
14038SOL    HW244049   5.342   2.184   8.297
14039SOL     OW44050   3.732   2.869   7.759
14039SOL    HW144051   3.832   2.869   7.760
14039SOL    HW244052   3.699   2.776   7.777
14040SOL     OW44053   4.621   3.536   7.777
14040SOL    HW144054   4.544   3.522   7.714
14040SOL    HW244055   4.605   3.619   7.831
14041SOL     OW44056   3.947   2.434   9.433
14041SOL    HW144057   3.860   2.471   9.466
14041SOL    HW244058   3.944   2.425   9.334
14042SOL     OW44059   5.533   2.461   9.512
14042SOL    HW144060   5.478   2.477   9.430
14042SOL    HW244061   5.499   2.380   9.559
14043SOL     OW44062   3.925   3.629   9.776
14043SOL    HW144063   3.945   3.702   9.841
14043SOL    HW244064   3.996   3.627   9.706
14044SOL     OW44065   3.908   3.382   9.885
14044SOL    HW144066   3.914   3.475   9.849
14044SOL    HW244067   3.884   3.385   9.982
14045SOL     OW44068   4.317   2.827   9.519
14045SOL    HW144069   4.357   2.849   9.430
14045SOL    HW244070   4.368   2.873   9.591
14046SOL     OW44071   3.886   2.602   9.849
14046SOL    HW144072   3.795   2.569   9.826
14046SOL    HW244073   3.887   2.630   9.945
14047SOL     OW44074   5.569   3.647   9.619
14047SOL    HW144075   5.648   3.634   9.679
14047SOL    HW244076   5.576   3.734   9.572
14048SOL     OW44077   3.710   3.485   9.455
14048SOL    HW144078   3.718   3.386   9.466
14048SOL    HW244079   3.687   3.526   9.544
14049SOL     OW44080   5.347   2.751   9.919
14049SOL    HW144081   5.423   2.746   9.984
14049SOL    HW244082   5.353   2.836   9.868
14050SOL     OW44083   5.416   2.986   9.787
14050SOL    HW144084   5.506   2.980   9.743
14050SOL    HW244085   5.409   3.074   9.835
14051SOL     OW44086   4.535   1.892   9.807
14051SOL    HW144087   4.589   1.971   9.781
14051SOL    HW244088   4.439   1.919   9.818
14052SOL     OW44089   5.319   2.923   9.532
14052SOL    HW144090   5.232   2.877   9.550
14052SOL    HW244091   5.358   2.955   9.618
14053SOL     OW44092   4.313   2.556   9.587
14053SOL    HW144093   4.319   2.650   9.552
14053SOL    HW244094   4.246   2.552   9.661
14054SOL     OW44095   5.320   3.531   9.631
14054SOL    HW144096   5.410   3.574   9.636
14054SOL    HW244097   5.289   3.527   9.536
14055SOL     OW44098   4.750   2.523   9.753
14055SOL    HW144099   4.772   2.511   9.850
14055SOL    HW244100   4.662   2.480   9.733
14056SOL     OW44101   3.906   2.647   0.121
14056SOL    HW144102   3.982   2.708   0.143
14056SOL    HW244103   3.837   2.651   0.194
14057SOL     OW44104   4.572   2.197   9.515
14057SOL    HW144105   4.621   2.258   9.453
14057SOL    HW244106   4.523   2.128   9.461
14058SOL     OW44107   5.022   2.996   9.836
14058SOL    HW144108   5.092   2.995   9.907
14058SOL    HW244109   5.005   3.091   9.808
14059SOL     OW44110   4.733   3.377   9.836
14059SOL    HW144111   4.718   3.449   9.768
14059SOL    HW244112   4.653   3.369   9.895
14060SOL     OW44113   4.046   3.707   0.197
14060SOL    HW144114   4.037   3.627   0.256
14060SOL    HW244115   4.142   3.728   0.184
14061SOL     OW44116   4.050   2.830   9.436
14061SOL    HW144117   4.138   2.832   9.483
14061SOL    HW244118   3.979   2.800   9.499
14062SOL     OW44119   4.896   3.632   9.607
14062SOL    HW144120   4.799   3.625   9.626
14062SOL    HW244121   4.920   3.568   9.534
14063SOL     OW44122   5.384   3.271   9.391
14063SOL    HW144123   5.349   3.364   9.382
14063SOL    HW244124   5.311   3.206   9.369
14064SOL     OW44125   4.155   3.680   9.626
14064SOL    HW144126   4.202   3.716   9.706
14064SOL    HW244127   4.217   3.624   9.572
14065SOL     OW44128   5.154   2.002   9.677
14065SOL    HW144129   5.134   1.937   9.603
14065SOL    HW244130   5.252   2.000   9.697
14066SOL     OW44131   4.146   2.533   9.796
14066SOL    HW144132   4.147   2.433   9.805
14066SOL    HW244133   4.052   2.566   9.808
14067SOL     OW44134   4.452   1.989   9.366
14067SOL    HW144135   4.493   1.908   9.408
14067SOL    HW244136   4.373   1.961   9.311
14068SOL     OW44137   4.265   1.976   9.859
14068SOL    HW144138   4.171   1.950   9.880
14068SOL    HW244139   4.268   2.021   9.770
14069SOL     OW44140   5.184   3.089   9.351
14069SOL    HW144141   5.231   3.022   9.408
14069SOL    HW244142   5.107   3.128   9.402
14070SOL     OW44143   4.025   1.893   9.505
14070SOL    HW144144   4.058   1.970   9.450
14070SOL    HW244145   4.103   1.849   9.551
14071SOL     OW44146   4.693   2.108   9.742
14071SOL    HW144147   4.652   2.138   9.656
14071SOL    HW244148   4.791   2.128   9.740
14072SOL     OW44149   5.018   3.703   9.852
14072SOL    HW144150   5.079   3.778   9.828
14072SOL    HW244151   4.961   3.679   9.772
14073SOL     OW44152   4.713   2.375   9.365
14073SOL    HW144153   4.683   2.463   9.328
14073SOL    HW244154   4.788   2.390   9.430
14074SOL     OW44155   4.579   2.263   9.936
14074SOL    HW144156   4.520   2.323   9.882
14074SOL    HW244157   4.625   2.199   9.875
14075SOL     OW44158   5.672   2.671   9.630
14075SOL    HW144159   5.676   2.634   9.722
14075SOL    HW244160   5.626   2.606   9.569
14076SOL     OW44161   4.197   3.384   9.508
14076SOL    HW144162   4.112   3.380   9.561
14076SOL    HW244163   4.187   3.331   9.424
14077SOL     OW44164   5.079   2.467   9.352
14077SOL    HW144165   5.035   2.436   9.436
14077SOL    HW244166   5.179   2.460   9.362
14078SOL     OW44167   4.268   2.115   9.626
14078SOL    HW144168   4.300   2.041   9.566
14078SOL    HW244169   4.241   2.193   9.570
14079SOL     OW44170   4.483   2.938   9.716
14079SOL    HW144171   4.461   2.925   9.813
14079SOL    HW244172   4.558   2.876   9.691
14080SOL     OW44173   4.978   3.262   9.769
14080SOL    HW144174   5.049   3.328   9.793
14080SOL    HW244175   4.888   3.299   9.792
14081SOL     OW44176   5.410   2.524   9.779
14081SOL    HW144177   5.369   2.601   9.827
14081SOL    HW244178   5.412   2.543   9.681
14082SOL     OW44179   4.906   2.395   9.565
14082SOL    HW144180   4.932   2.312   9.614
14082SOL    HW244181   4.860   2.458   9.628
14083SOL     OW44182   4.008   1.925   9.943
14083SOL    HW144183   3.953   2.004   9.969
14083SOL    HW244184   4.026   1.869   0.024
14084SOL     OW44185   5.392   2.272   9.653
14084SOL    HW144186   5.408   2.182   9.693
14084SOL    HW244187   5.381   2.340   9.726
14085SOL     OW44188   5.230   2.172   9.446
14085SOL    HW144189   5.175   2.112   9.503
14085SOL    HW244190   5.296   2.221   9.503
14086SOL     OW44191   4.995   2.725   9.316
14086SOL    HW144192   5.025   2.631   9.331
14086SOL    HW244193   5.043   2.763   9.237
14087SOL     OW44194   3.742   3.215   9.508
14087SOL    HW144195   3.651   3.213   9.466
14087SOL    HW244196   3.755   3.131   9.562
14088SOL     OW44197   4.511   2.402   9.694
14088SOL    HW144198   4.524   2.323   9.634
14088SOL    HW244199   4.442   2.463   9.655
14089SOL     OW44200   4.188   2.328   9.478
14089SOL    HW144201   4.250   2.403   9.501
14089SOL    HW244202   4.095   2.364   9.470
14090SOL     OW44203   5.080   2.833   9.609
14090SOL    HW144204   5.044   2.882   9.688
14090SOL    HW244205   5.005   2.812   9.546
14091SOL     OW44206   5.443   2.010   9.720
14091SOL    HW144207   5.504   2.013   9.641
14091SOL    HW244208   5.449   1.921   9.764
14092SOL     OW44209   5.154   3.466   9.834
14092SOL    HW144210   5.221   3.480   9.762
14092SOL    HW244211   5.102   3.550   9.848
14093SOL     OW44212   4.407   3.566   9.493
14093SOL    HW144213   4.431   3.573   9.397
14093SOL    HW244214   4.343   3.490   9.506
14094SOL     OW44215   4.960   3.461   9.397
14094SOL    HW144216   4.975   3.368   9.430
14094SOL    HW244217   4.884   3.463   9.332
14095SOL     OW44218   4.676   2.770   9.646
14095SOL    HW144219   4.709   2.783   9.552
14095SOL    HW244220   4.715   2.685   9.683
14096SOL     OW44221   5.226   3.535   9.371
14096SOL    HW144222   5.130   3.508   9.367
14096SOL    HW244223   5.265   3.532   9.279
14097SOL     OW44224   4.354   3.343   9.730
14097SOL    HW144225   4.430   3.288   9.695
14097SOL    HW244226   4.286   3.354   9.657
14098SOL     OW44227   3.961   3.333   9.622
14098SOL    HW144228   3.882   3.292   9.577
14098SOL    HW244229   3.941   3.344   9.720
14099SOL     OW44230   3.827   2.173   9.274
14099SOL    HW144231   3.733   2.177   9.240
14099SOL    HW244232   3.879   2.250   9.237
14100SOL     OW44233   3.771   2.002   9.499
14100SOL    HW144234   3.780   2.069   9.426
14100SOL    HW244235   3.860   1.960   9.517
14101SOL     OW44236   4.987   3.205   9.498
14101SOL    HW144237   4.891   3.194   9.472
14101SOL    HW244238   4.993   3.217   9.597
14102SOL     OW44239   4.962   2.186   9.743
14102SOL    HW144240   5.033   2.120   9.718
14102SOL    HW244241   4.990   2.235   9.825
14103SOL     OW44242   4.349   2.515   9.983
14103SOL    HW144243   4.435   2.556   9.956
14103SOL    HW244244   4.279   2.535   9.914
14104SOL     OW44245   4.727   3.222   9.436
14104SOL    HW144246   4.655   3.219   9.505
14104SOL    HW244247   4.707   3.295   9.371
14105SOL     OW44248   4.753   2.813   9.386
14105SOL    HW144249   4.733   2.897   9.334
14105SOL    HW244250   4.844   2.780   9.361
14106SOL     OW44251   3.889   3.113   9.921
14106SOL    HW144252   3.814   3.109   9.987
14106SOL    HW244253   3.901   3.208   9.892
14107SOL     OW44254   4.165   2.270   9.839
14107SOL    HW144255   4.195   2.213   9.763
14107SOL    HW244256   4.200   2.233   9.925
14108SOL     OW44257   4.568   3.193   9.658
14108SOL    HW144258   4.539   3.099   9.675
14108SOL    HW244259   4.635   3.221   9.726
14109SOL     OW44260   5.083   1.850   9.460
14109SOL    HW144261   5.145   1.774   9.438
14109SOL    HW244262   4.997   1.813   9.495
14110SOL     OW44263   3.792   3.006   9.680
14110SOL    HW144264   3.844   3.032   9.762
14110SOL    HW244265   3.818   2.914   9.652
14111SOL     OW44266   4.631   3.583   9.673
14111SOL    HW144267   4.558   3.563   9.607
14111SOL    HW244268   4.596   3.644   9.743
14112SOL     OW44269   3.810   4.244   0.036
14112SOL    HW144270   3.731   4.262   0.095
14112SOL    HW244271   3.801   4.296   9.952
14113SOL     OW44272   3.938   3.999   0.986
14113SOL    HW144273   3.993   3.970   1.065
14113SOL    HW244274   3.846   3.963   0.994
14114SOL     OW44275   3.700   4.141   0.626
14114SOL    HW144276   3.612   4.155   0.672
14114SOL    HW244277   3.690   4.071   0.556
14115SOL     OW44278   4.291   5.047   1.254
14115SOL    HW144279   4.212   5.046   1.192
14115SOL    HW244280   4.315   5.141   1.275
14116SOL     OW44281   5.306   5.223   0.730
14116SOL    HW144282   5.261   5.196   0.815
14116SOL    HW244283   5.238   5.252   0.663
14117SOL     OW44284   4.850   4.412   0.649
14117SOL    HW144285   4.878   4.508   0.656
14117SOL    HW244286   4.779   4.393   0.717
14118SOL     OW44287   5.514   4.377   0.214
14118SOL    HW144288   5.450   4.449   0.187
14118SOL    HW244289   5.463   4.300   0.254
14119SOL     OW44290   4.419   4.857   1.074
14119SOL    HW144291   4.368   4.892   1.154
14119SOL    HW244292   4.464   4.933   1.028
14120SOL     OW44293   4.606   4.430   1.821
14120SOL    HW144294   4.608   4.490   1.902
14120SOL    HW244295   4.618   4.486   1.739
14121SOL     OW44296   4.412   4.688   0.637
14121SOL    HW144297   4.480   4.690   0.710
14121SOL    HW244298   4.341   4.756   0.655
14122SOL     OW44299   4.382   4.850   1.800
14122SOL    HW144300   4.407   4.944   1.776
14122SOL    HW244301   4.293   4.828   1.760
14123SOL     OW44302   4.078   5.104   1.086
14123SOL    HW144303   4.002   5.049   1.051
14123SOL    HW244304   4.115   5.160   1.012
14124SOL     OW44305   4.222   4.091   1.418
14124SOL    HW144306   4.302   4.031   1.424
14124SOL    HW244307   4.144   4.047   1.463
14125SOL     OW44308   5.303   4.178   0.741
14125SOL    HW144309   5.224   4.175   0.680
14125SOL    HW244310   5.292   4.253   0.806
14126SOL     OW44311   3.986   5.455   0.495
14126SOL    HW144312   3.988   5.536   0.553
14126SOL    HW244313   4.077   5.437   0.459
14127SOL     OW44314   4.795   5.038   1.761
14127SOL    HW144315   4.852   5.026   1.842
14127SOL    HW244316   4.739   4.956   1.746
14128SOL     OW44317   3.947   5.186   0.483
14128SOL    HW144318   3.956   5.283   0.502
14128SOL    HW244319   3.924   5.137   0.567
14129SOL     OW44320   4.019   4.811   0.866
14129SOL    HW144321   4.024   4.713   0.888
14129SOL    HW244322   3.969   4.859   0.939
14130SOL     OW44323   4.291   5.569   1.431
14130SOL    HW144324   4.218   5.543   1.493
14130SOL    HW244325   4.375   5.585   1.483
14131SOL     OW44326   4.253   4.686   0.184
14131SOL    HW144327   4.217   4.767   0.138
14131SOL    HW244328   4.327   4.712   0.245
14132SOL     OW44329   5.229   3.974   1.431
14132SOL    HW144330   5.317   4.020   1.425
14132SOL    HW244331   5.211   3.949   1.527
14133SOL     OW44332   3.797   4.403   0.557
14133SOL    HW144333   3.764   4.312   0.582
14133SOL    HW244334   3.792   4.463   0.636
14134SOL     OW44335   5.610   5.406   0.365
14134SOL    HW144336   5.688   5.384   0.424
14134SOL    HW244337   5.619   5.500   0.331
14135SOL     OW44338   3.794   5.262   0.132
14135SOL    HW144339   3.757   5.173   0.159
14135SOL    HW244340   3.778   5.328   0.205
14136SOL     OW44341   5.423   4.645   0.679
14136SOL    HW144342   5.515   4.610   0.695
14136SOL    HW244343   5.421   4.694   0.591
14137SOL     OW44344   5.396   4.808   0.438
14137SOL    HW144345   5.484   4.817   0.392
14137SOL    HW244346   5.389   4.878   0.509
14138SOL     OW44347   3.831   4.490   1.541
14138SOL    HW144348   3.905   4.555   1.520
14138SOL    HW244349   3.743   4.531   1.516
14139SOL     OW44350   4.343   5.096   0.765
14139SOL    HW144351   4.301   5.006   0.747
14139SOL    HW244352   4.361   5.142   0.678
14140SOL     OW44353   4.974   4.972   1.438
14140SOL    HW144354   4.992   4.904   1.368
14140SOL    HW244355   5.043   4.964   1.510
14141SOL     OW44356   4.557   3.805   0.525
14141SOL    HW144357   4.602   3.886   0.488
14141SOL    HW244358   4.458   3.814   0.516
14142SOL     OW44359   3.931   4.682   1.299
14142SOL    HW144360   4.018   4.634   1.292
14142SOL    HW244361   3.879   4.669   1.215
14143SOL     OW44362   5.363   4.591   0.140
14143SOL    HW144363   5.332   4.599   0.045
14143SOL    HW244364   5.299   4.639   0.199
14144SOL     OW44365   4.968   5.541   1.583
14144SOL    HW144366   4.950   5.615   1.518
14144SOL    HW244367   4.975   5.454   1.534
14145SOL     OW44368   4.068   3.981   1.891
14145SOL    HW144369   4.104   4.059   1.942
14145SOL    HW244370   3.993   4.011   1.832
14146SOL     OW44371   5.210   5.115   0.966
14146SOL    HW144372   5.154   5.156   1.039
14146SOL    HW244373   5.180   5.021   0.949
14147SOL     OW44374   5.354   5.571   0.513
14147SOL    HW144375   5.353   5.500   0.442
14147SOL    HW244376   5.372   5.529   0.602
14148SOL     OW44377   4.227   4.395   0.243
14148SOL    HW144378   4.249   4.487   0.210
14148SOL    HW244379   4.169   4.402   0.324
14149SOL     OW44380   5.013   4.130   0.930
14149SOL    HW144381   4.925   4.083   0.926
14149SOL    HW244382   5.071   4.087   1.000
14150SOL     OW44383   5.331   5.369   0.327
14150SOL    HW144384   5.431   5.362   0.334
14150SOL    HW244385   5.303   5.341   0.236
14151SOL     OW44386   4.501   4.293   1.443
14151SOL    HW144387   4.464   4.255   1.528
14151SOL    HW244388   4.478   4.233   1.366
14152SOL     OW44389   5.063   4.191   1.660
14152SOL    HW144390   5.071   4.245   1.744
14152SOL    HW244391   5.114   4.106   1.670
14153SOL     OW44392   4.648   4.588   1.597
14153SOL    HW144393   4.704   4.525   1.543
14153SOL    HW244394   4.589   4.641   1.536
14154SOL     OW44395   4.728   4.148   1.135
14154SOL    HW144396   4.634   4.151   1.168
14154SOL    HW244397   4.736   4.080   1.062
14155SOL     OW44398   4.699   4.412   0.397
14155SOL    HW144399   4.747   4.391   0.483
14155SOL    HW244400   4.619   4.352   0.388
14156SOL     OW44401   3.798   4.583   0.778
14156SOL    HW144402   3.886   4.560   0.820
14156SOL    HW244403   3.758   4.661   0.825
14157SOL     OW44404   3.841   5.623   1.590
14157SOL    HW144405   3.808   5.607   1.684
14157SOL    HW244406   3.775   5.585   1.525
14158SOL     OW44407   4.560   4.048   0.182
14158SOL    HW144408   4.565   4.098   0.096
14158SOL    HW244409   4.568   3.950   0.165
14159SOL     OW44410   5.357   4.310   1.834
14159SOL    HW144411   5.363   4.394   1.780
14159SOL    HW244412   5.380   4.232   1.776
14160SOL     OW44413   5.111   4.909   0.649
14160SOL    HW144414   5.209   4.928   0.640
14160SOL    HW244415   5.060   4.968   0.587
14161SOL     OW44416   4.291   3.825   0.927
14161SOL    HW144417   4.304   3.865   1.018
14161SOL    HW244418   4.307   3.896   0.858
14162SOL     OW44419   4.724   5.205   0.497
14162SOL    HW144420   4.696   5.278   0.434
14162SOL    HW244421   4.684   5.221   0.587
14163SOL     OW44422   4.080   5.526   0.885
14163SOL    HW144423   4.116   5.432   0.885
14163SOL    HW244424   4.148   5.587   0.927
14164SOL     OW44425   5.507   4.752   0.941
14164SOL    HW144426   5.461   4.748   0.852
14164SOL    HW244427   5.440   4.779   1.011
14165SOL     OW44428   4.957   5.253   1.421
14165SOL    HW144429   4.962   5.155   1.441
14165SOL    HW244430   4.861   5.282   1.421
14166SOL     OW44431   4.031   4.655   0.346
14166SOL    HW144432   4.104   4.661   0.278
14166SOL    HW244433   4.033   4.565   0.389
14167SOL     OW44434   5.194   4.497   0.687
14167SOL    HW144435   5.183   4.451   0.775
14167SOL    HW244436   5.278   4.551   0.687
14168SOL     OW44437   4.156   5.053   1.740
14168SOL    HW144438   4.136   5.064   1.643
14168SOL    HW244439   4.072   5.028   1.788
14169SOL     OW44440   4.802   5.536   0.185
14169SOL    HW144441   4.749   5.490   0.256
14169SOL    HW244442   4.823   5.471   0.112
14170SOL     OW44443   3.994   3.967   1.506
14170SOL    HW144444   3.954   4.028   1.574
14170SOL    HW244445   3.960   3.874   1.521
14171SOL     OW44446   5.322   5.047   0.103
14171SOL    HW144447   5.291   5.142   0.093
14171SOL    HW244448   5.245   4.985   0.092
14172SOL     OW44449   4.253   5.438   0.426
14172SOL    HW144450   4.264   5.533   0.455
14172SOL    HW244451   4.305   5.422   0.342
14173SOL     OW44452   5.076   3.849   0.371
14173SOL    HW144453   5.055   3.810   0.281
14173SOL    HW244454   5.168   3.821   0.399
14174SOL     OW44455   3.947   5.527   1.204
14174SOL    HW144456   3.999   5.445   1.231
14174SOL    HW244457   3.905   5.512   1.115
14175SOL     OW44458   4.662   5.434   0.889
14175SOL    HW144459   4.746   5.380   0.883
14175SOL    HW244460   4.601   5.410   0.814
14176SOL     OW44461   4.055   4.402   0.465
14176SOL    HW144462   4.081   4.306   0.474
14176SOL    HW244463   3.961   4.414   0.495
14177SOL     OW44464   5.177   3.944   1.715
14177SOL    HW144465   5.188   3.957   1.814
14177SOL    HW244466   5.114   3.868   1.699
14178SOL     OW44467   4.304   3.780   0.119
14178SOL    HW144468   4.403   3.779   0.132
14178SOL    HW244469   4.284   3.793   0.022
14179SOL     OW44470   4.472   3.964   1.689
14179SOL    HW144471   4.555   3.926   1.731
14179SOL    HW244472   4.392   3.915   1.723
14180SOL     OW44473   4.569   5.214   1.217
14180SOL    HW144474   4.545   5.185   1.125
14180SOL    HW244475   4.621   5.141   1.262
14181SOL     OW44476   5.002   4.327   1.431
14181SOL    HW144477   5.034   4.284   1.516
14181SOL    HW244478   5.043   4.417   1.421
14182SOL     OW44479   4.526   5.088   0.969
14182SOL    HW144480   4.618   5.095   0.932
14182SOL    HW244481   4.459   5.098   0.895
14183SOL     OW44482   4.662   4.304   0.845
14183SOL    HW144483   4.622   4.270   0.760
14183SOL    HW244484   4.700   4.227   0.897
14184SOL     OW44485   4.278   3.810   0.472
14184SOL    HW144486   4.202   3.794   0.536
14184SOL    HW244487   4.254   3.884   0.409
14185SOL     OW44488   5.099   4.888   0.090
14185SOL    HW144489   5.133   4.827   0.162
14185SOL    HW244490   5.037   4.955   0.130
14186SOL     OW44491   4.681   4.027   0.429
14186SOL    HW144492   4.642   4.043   0.339
14186SOL    HW244493   4.779   4.046   0.427
14187SOL     OW44494   4.746   4.417   1.413
14187SOL    HW144495   4.673   4.350   1.427
14187SOL    HW244496   4.835   4.372   1.416
14188SOL     OW44497   4.913   5.336   0.821
14188SOL    HW144498   4.940   5.384   0.738
14188SOL    HW244499   4.965   5.373   0.899
14189SOL     OW44500   4.216   4.867   0.691
14189SOL    HW144501   4.150   4.844   0.762
14189SOL    HW244502   4.169   4.882   0.604
14190SOL     OW44503   4.969   5.511   0.609
14190SOL    HW144504   5.019   5.573   0.548
14190SOL    HW244505   4.888   5.557   0.645
14191SOL     OW44506   4.843   4.234   9.953
14191SOL    HW144507   4.747   4.208   9.961
14191SOL    HW244508   4.885   4.236   0.044
14192SOL     OW44509   3.834   4.262   1.390
14192SOL    HW144510   3.928   4.257   1.357
14192SOL    HW244511   3.825   4.340   1.452
14193SOL     OW44512   4.314   3.935   1.174
14193SOL    HW144513   4.366   3.908   1.255
14193SOL    HW244514   4.216   3.932   1.194
14194SOL     OW44515   4.570   4.205   0.610
14194SOL    HW144516   4.498   4.246   0.554
14194SOL    HW244517   4.617   4.135   0.558
14195SOL     OW44518   4.754   3.789   0.717
14195SOL    HW144519   4.680   3.797   0.650
14195SOL    HW244520   4.737   3.712   0.778
14196SOL     OW44521   5.131   4.852   0.919
14196SOL    HW144522   5.082   4.769   0.944
14196SOL    HW244523   5.118   4.872   0.822
14197SOL     OW44524   5.161   4.370   0.928
14197SOL    HW144525   5.099   4.292   0.934
14197SOL    HW244526   5.226   4.366   1.004
14198SOL     OW44527   5.679   4.544   0.353
14198SOL    HW144528   5.694   4.504   0.444
14198SOL    HW244529   5.616   4.485   0.301
14199SOL     OW44530   4.134   5.303   0.130
14199SOL    HW144531   4.057   5.250   0.165
14199SOL    HW244532   4.187   5.246   0.067
14200SOL     OW44533   5.386   4.974   0.648
14200SOL    HW144534   5.478   4.948   0.677
14200SOL    HW244535   5.366   5.067   0.678
14201SOL     OW44536   5.178   4.235   0.011
14201SOL    HW144537   5.103   4.227   0.077
14201SOL    HW244538   5.242   4.159   0.024
14202SOL     OW44539   4.194   3.986   0.276
14202SOL    HW144540   4.242   3.922   0.216
14202SOL    HW244541   4.153   4.059   0.221
14203SOL     OW44542   5.437   5.011   1.526
14203SOL    HW144543   5.508   4.942   1.514
14203SOL    HW244544   5.477   5.093   1.567
14204SOL     OW44545   4.714   5.023   1.347
14204SOL    HW144546   4.633   5.001   1.402
14204SOL    HW244547   4.796   5.002   1.399
14205SOL     OW44548   4.862   4.995   1.120
14205SOL    HW144549   4.793   5.005   1.192
14205SOL    HW244550   4.823   5.026   1.033
14206SOL     OW44551   5.317   4.834   1.121
14206SOL    HW144552   5.313   4.912   1.183
14206SOL    HW244553   5.243   4.841   1.054
14207SOL     OW44554   4.672   3.800   1.331
14207SOL    HW144555   4.700   3.785   1.237
14207SOL    HW244556   4.746   3.843   1.382
14208SOL     OW44557   4.650   4.803   1.759
14208SOL    HW144558   4.553   4.818   1.777
14208SOL    HW244559   4.662   4.725   1.698
14209SOL     OW44560   4.449   4.758   0.367
14209SOL    HW144561   4.442   4.726   0.461
14209SOL    HW244562   4.526   4.712   0.321
14210SOL     OW44563   4.157   4.531   1.278
14210SOL    HW144564   4.224   4.536   1.352
14210SOL    HW244565   4.121   4.438   1.271
14211SOL     OW44566   4.955   4.108   1.279
14211SOL    HW144567   4.979   4.188   1.333
14211SOL    HW244568   4.872   4.127   1.227
14212SOL     OW44569   3.809   5.292   1.379
14212SOL    HW144570   3.770   5.384   1.376
14212SOL    HW244571   3.906   5.296   1.353
14213SOL     OW44572   4.064   4.891   0.467
14213SOL    HW144573   4.060   4.958   0.392
14213SOL    HW244574   4.055   4.799   0.429
14214SOL     OW44575   4.232   4.288   0.869
14214SOL    HW144576   4.240   4.339   0.783
14214SOL    HW244577   4.313   4.304   0.925
14215SOL     OW44578   4.977   5.092   0.476
14215SOL    HW144579   5.039   5.167   0.498
14215SOL    HW244580   4.882   5.121   0.492
14216SOL     OW44581   5.032   5.203   1.158
14216SOL    HW144582   5.033   5.229   1.255
14216SOL    HW244583   4.974   5.122   1.147
14217SOL     OW44584   5.218   4.354   0.442
14217SOL    HW144585   5.205   4.399   0.530
14217SOL    HW244586   5.161   4.399   0.373
14218SOL     OW44587   4.064   5.281   1.286
14218SOL    HW144588   4.060   5.217   1.209
14218SOL    HW244589   4.159   5.305   1.304
14219SOL     OW44590   4.210   4.422   1.695
14219SOL    HW144591   4.243   4.469   1.613
14219SOL    HW244592   4.274   4.348   1.718
14220SOL     OW44593   5.365   4.542   1.693
14220SOL    HW144594   5.275   4.584   1.682
14220SOL    HW244595   5.421   4.562   1.613
14221SOL     OW44596   4.691   3.854   1.831
14221SOL    HW144597   4.751   3.917   1.781
14221SOL    HW244598   4.747   3.782   1.872
14222SOL     OW44599   4.259   3.822   1.787
14222SOL    HW144600   4.218   3.746   1.737
14222SOL    HW244601   4.188   3.884   1.819
14223SOL     OW44602   4.292   4.603   1.048
14223SOL    HW144603   4.332   4.694   1.051
14223SOL    HW244604   4.243   4.585   1.133
14224SOL     OW44605   5.016   4.610   0.999
14224SOL    HW144606   4.919   4.591   0.980
14224SOL    HW244607   5.070   4.530   0.977
14225SOL     OW44608   4.974   4.233   0.194
14225SOL    HW144609   4.957   4.172   0.272
14225SOL    HW244610   4.992   4.326   0.228
14226SOL     OW44611   4.049   3.910   1.227
14226SOL    HW144612   4.023   3.948   1.316
14226SOL    HW244613   4.020   3.814   1.223
14227SOL     OW44614   3.774   5.045   1.271
14227SOL    HW144615   3.799   4.981   1.343
14227SOL    HW244616   3.780   5.139   1.305
14228SOL     OW44617   4.445   4.374   1.020
14228SOL    HW144618   4.516   4.371   0.949
14228SOL    HW244619   4.398   4.462   1.016
14229SOL     OW44620   5.489   4.722   1.862
14229SOL    HW144621   5.445   4.650   1.809
14229SOL    HW244622   5.431   4.745   1.941
14230SOL     OW44623   4.051   3.766   0.628
14230SOL    HW144624   4.005   3.854   0.641
14230SOL    HW244625   4.060   3.719   0.716
14231SOL     OW44626   5.371   4.168   0.319
14231SOL    HW144627   5.412   4.100   0.379
14231SOL    HW244628   5.312   4.229   0.372
14232SOL     OW44629   4.750   4.536   0.967
14232SOL    HW144630   4.714   4.540   1.060
14232SOL    HW244631   4.727   4.448   0.926
14233SOL     OW44632   4.750   5.294   1.697
14233SOL    HW144633   4.738   5.315   1.600
14233SOL    HW244634   4.765   5.196   1.709
14234SOL     OW44635   5.572   5.247   1.599
14234SOL    HW144636   5.600   5.266   1.505
14234SOL    HW244637   5.653   5.248   1.658
14235SOL     OW44638   4.069   4.637   1.815
14235SOL    HW144639   4.076   4.641   1.915
14235SOL    HW244640   4.124   4.560   1.781
14236SOL     OW44641   5.338   4.026   0.093
14236SOL    HW144642   5.278   3.947   0.109
14236SOL    HW244643   5.347   4.078   0.178
14237SOL     OW44644   5.076   4.491   9.995
14237SOL    HW144645   5.111   4.398   9.990
14237SOL    HW244646   5.064   4.528   9.903
14238SOL     OW44647   4.780   5.096   0.877
14238SOL    HW144648   4.793   5.015   0.820
14238SOL    HW244649   4.840   5.169   0.845
14239SOL     OW44650   4.035   4.542   0.933
14239SOL    HW144651   4.131   4.558   0.952
14239SOL    HW244652   4.011   4.448   0.957
14240SOL     OW44653   4.004   4.261   1.000
14240SOL    HW144654   3.969   4.168   0.989
14240SOL    HW244655   4.088   4.271   0.946
14241SOL     OW44656   4.824   4.065   1.696
14241SOL    HW144657   4.779   4.115   1.771
14241SOL    HW244658   4.911   4.110   1.674
14242SOL     OW44659   4.870   3.919   1.470
14242SOL    HW144660   4.845   3.975   1.548
14242SOL    HW244661   4.920   3.974   1.403
14243SOL     OW44662   3.736   4.984   0.192
14243SOL    HW144663   3.641   5.010   0.174
14243SOL    HW244664   3.739   4.901   0.247
14244SOL     OW44665   3.818   5.505   0.954
14244SOL    HW144666   3.775   5.428   0.906
14244SOL    HW244667   3.911   5.518   0.919
14245SOL     OW44668   4.206   5.277   0.915
14245SOL    HW144669   4.277   5.336   0.954
14245SOL    HW244670   4.248   5.211   0.854
14246SOL     OW44671   4.619   4.534   1.204
14246SOL    HW144672   4.674   4.500   1.280
14246SOL    HW244673   4.547   4.469   1.182
14247SOL     OW44674   3.754   4.306   1.131
14247SOL    HW144675   3.837   4.302   1.075
14247SOL    HW244676   3.777   4.291   1.227
14248SOL     OW44677   3.951   4.342   1.741
14248SOL    HW144678   4.047   4.362   1.726
14248SOL    HW244679   3.895   4.397   1.679
14249SOL     OW44680   5.128   4.669   1.643
14249SOL    HW144681   5.145   4.768   1.636
14249SOL    HW244682   5.106   4.633   1.552
14250SOL     OW44683   4.464   4.264   0.344
14250SOL    HW144684   4.488   4.186   0.287
14250SOL    HW244685   4.383   4.309   0.307
14251SOL     OW44686   5.340   4.345   1.131
14251SOL    HW144687   5.308   4.273   1.192
14251SOL    HW244688   5.439   4.340   1.121
14252SOL     OW44689   3.927   5.287   1.763
14252SOL    HW144690   3.890   5.309   1.854
14252SOL    HW244691   3.947   5.189   1.758
14253SOL     OW44692   4.462   4.168   1.199
14253SOL    HW144693   4.401   4.090   1.181
14253SOL    HW244694   4.444   4.241   1.133
14254SOL     OW44695   4.704   5.350   1.422
14254SOL    HW144696   4.649   5.303   1.353
14254SOL    HW244697   4.709   5.448   1.401
14255SOL     OW44698   4.090   4.186   0.114
14255SOL    HW144699   4.138   4.264   0.153
14255SOL    HW244700   3.995   4.211   0.096
14256SOL     OW44701   3.846   4.870   1.471
14256SOL    HW144702   3.852   4.833   1.563
14256SOL    HW244703   3.880   4.802   1.405
14257SOL     OW44704   4.987   4.776   1.219
14257SOL    HW144705   5.003   4.709   1.146
14257SOL    HW244706   4.943   4.857   1.181
14258SOL     OW44707   5.535   5.395   1.115
14258SOL    HW144708   5.598   5.432   1.046
14258SOL    HW244709   5.511   5.301   1.090
14259SOL     OW44710   5.031   5.445   1.045
14259SOL    HW144711   5.122   5.484   1.058
14259SOL    HW244712   5.025   5.356   1.091
14260SOL     OW44713   3.857   4.944   1.035
14260SOL    HW144714   3.821   4.982   1.120
14260SOL    HW244715   3.783   4.897   0.986
14261SOL     OW44716   4.500   5.368   1.771
14261SOL    HW144717   4.477   5.452   1.723
14261SOL    HW244718   4.596   5.347   1.757
14262SOL     OW44719   4.577   3.778   0.114
14262SOL    HW144720   4.573   3.768   0.014
14262SOL    HW244721   4.650   3.720   0.150
14263SOL     OW44722   5.495   3.956   0.444
14263SOL    HW144723   5.567   3.915   0.387
14263SOL    HW244724   5.425   3.888   0.465
14264SOL     OW44725   5.139   5.305   0.528
14264SOL    HW144726   5.199   5.330   0.452
14264SOL    HW244727   5.079   5.382   0.549
14265SOL     OW44728   3.803   5.582   1.881
14265SOL    HW144729   3.782   5.486   1.900
14265SOL    HW244730   3.894   5.604   1.916
14266SOL     OW44731   4.981   4.669   0.682
14266SOL    HW144732   5.053   4.599   0.684
14266SOL    HW244733   5.022   4.758   0.663
14267SOL     OW44734   4.468   4.982   1.457
14267SOL    HW144735   4.452   5.031   1.543
14267SOL    HW244736   4.395   5.005   1.392
14268SOL     OW44737   4.392   5.376   0.204
14268SOL    HW144738   4.452   5.305   0.167
14268SOL    HW244739   4.300   5.363   0.168
14269SOL     OW44740   5.569   3.887   1.016
14269SOL    HW144741   5.597   3.795   0.989
14269SOL    HW244742   5.486   3.912   0.967
14270SOL     OW44743   3.942   4.011   0.699
14270SOL    HW144744   3.860   4.062   0.674
14270SOL    HW244745   3.954   4.011   0.798
14271SOL     OW44746   4.507   4.719   1.407
14271SOL    HW144747   4.549   4.703   1.317
14271SOL    HW244748   4.495   4.817   1.420
14272SOL     OW44749   4.650   4.628   0.245
14272SOL    HW144750   4.702   4.625   0.160
14272SOL    HW244751   4.671   4.548   0.301
14273SOL     OW44752   5.233   5.302   0.039
14273SOL    HW144753   5.177   5.384   0.032
14273SOL    HW244754   5.243   5.261   9.948
14274SOL     OW44755   4.057   5.074   1.492
14274SOL    HW144756   4.061   5.140   1.418
14274SOL    HW244757   3.988   5.004   1.471
14275SOL     OW44758   5.309   5.061   1.282
14275SOL    HW144759   5.352   5.040   1.370
14275SOL    HW244760   5.279   5.156   1.280
14276SOL     OW44761   4.785   4.855   0.754
14276SOL    HW144762   4.699   4.813   0.785
14276SOL    HW244763   4.849   4.783   0.726
14277SOL     OW44764   4.779   3.977   0.926
14277SOL    HW144765   4.772   3.940   0.834
14277SOL    HW244766   4.781   3.903   0.992
14278SOL     OW44767   4.382   5.213   0.526
14278SOL    HW144768   4.415   5.150   0.457
14278SOL    HW244769   4.318   5.278   0.484
14279SOL     OW44770   5.488   4.091   1.429
14279SOL    HW144771   5.559   4.159   1.411
14279SOL    HW244772   5.509   4.007   1.378
14280SOL     OW44773   3.993   5.059   0.252
14280SOL    HW144774   3.902   5.034   0.218
14280SOL    HW244775   3.983   5.116   0.333
14281SOL     OW44776   3.849   4.763   1.718
14281SOL    HW144777   3.766   4.738   1.768
14281SOL    HW244778   3.927   4.710   1.752
14282SOL     OW44779   4.436   3.899   1.426
14282SOL    HW144780   4.521   3.864   1.386
14282SOL    HW244781   4.453   3.929   1.520
14283SOL     OW44782   3.774   3.976   0.004
14283SOL    HW144783   3.698   3.965   9.940
14283SOL    HW244784   3.792   4.073   0.018
14284SOL     OW44785   5.097   4.584   1.387
14284SOL    HW144786   5.041   4.650   1.337
14284SOL    HW244787   5.189   4.583   1.348
14285SOL     OW44788   3.803   3.835   0.242
14285SOL    HW144789   3.781   3.889   0.161
14285SOL    HW244790   3.898   3.803   0.236
14286SOL     OW44791   4.343   4.517   1.472
14286SOL    HW144792   4.397   4.599   1.455
14286SOL    HW244793   4.401   4.436   1.463
14287SOL     OW44794   5.294   5.519   1.099
14287SOL    HW144795   5.297   5.602   1.043
14287SOL    HW244796   5.385   5.479   1.103
14288SOL     OW44797   4.424   4.241   1.707
14288SOL    HW144798   4.492   4.295   1.757
14288SOL    HW244799   4.447   4.144   1.714
14289SOL     OW44800   5.185   4.936   1.618
14289SOL    HW144801   5.183   4.948   1.717
14289SOL    HW244802   5.274   4.963   1.582
14290SOL     OW44803   4.087   5.497   1.615
14290SOL    HW144804   4.005   5.551   1.594
14290SOL    HW244805   4.060   5.410   1.657
14291SOL     OW44806   5.338   4.595   1.260
14291SOL    HW144807   5.342   4.515   1.200
14291SOL    HW244808   5.333   4.678   1.204
14292SOL     OW44809   4.948   4.081   0.422
14292SOL    HW144810   4.998   3.996   0.404
14292SOL    HW244811   4.983   4.123   0.506
14293SOL     OW44812   4.265   4.450   0.655
14293SOL    HW144813   4.321   4.532   0.641
14293SOL    HW244814   4.195   4.445   0.584
14294SOL     OW44815   5.417   4.084   1.690
14294SOL    HW144816   5.440   4.089   1.593
14294SOL    HW244817   5.338   4.024   1.702
14295SOL     OW44818   5.507   4.616   1.472
14295SOL    HW144819   5.551   4.705   1.466
14295SOL    HW244820   5.447   4.602   1.394
14296SOL     OW44821   4.528   5.161   0.123
14296SOL    HW144822   4.529   5.104   0.205
14296SOL    HW244823   4.449   5.137   0.066
14297SOL     OW44824   4.396   5.450   0.995
14297SOL    HW144825   4.364   5.545   0.990
14297SOL    HW244826   4.494   5.448   0.976
14298SOL     OW44827   4.571   4.719   0.865
14298SOL    HW144828   4.639   4.655   0.902
14298SOL    HW244829   4.518   4.758   0.940
14299SOL     OW44830   4.808   4.608   0.020
14299SOL    HW144831   4.793   4.658   9.935
14299SOL    HW244832   4.898   4.563   0.017
14300SOL     OW44833   5.568   5.229   0.799
14300SOL    HW144834   5.478   5.240   0.759
14300SOL    HW244835   5.560   5.183   0.887
14301SOL     OW44836   3.903   5.009   1.815
14301SOL    HW144837   3.884   4.921   1.772
14301SOL    HW244838   3.843   5.021   1.894
14302SOL     OW44839   3.899   4.975   0.668
14302SOL    HW144840   3.931   4.925   0.748
14302SOL    HW244841   3.951   4.945   0.588
14303SOL     OW44842   4.416   5.110   1.696
14303SOL    HW144843   4.317   5.108   1.710
14303SOL    HW244844   4.451   5.201   1.720
14304SOL     OW44845   5.541   3.873   1.286
14304SOL    HW144846   5.520   3.777   1.302
14304SOL    HW244847   5.552   3.889   1.188
14305SOL     OW44848   4.096   4.139   0.492
14305SOL    HW144849   4.132   4.076   0.423
14305SOL    HW244850   4.052   4.087   0.565
14306SOL     OW44851   5.479   5.139   1.043
14306SOL    HW144852   5.382   5.124   1.023
14306SOL    HW244853   5.505   5.087   1.124
14307SOL     OW44854   4.079   4.272   1.273
14307SOL    HW144855   4.141   4.207   1.317
14307SOL    HW244856   4.070   4.248   1.176
14308SOL     OW44857   4.531   5.394   0.661
14308SOL    HW144858   4.524   5.481   0.612
14308SOL    HW244859   4.473   5.326   0.618
14309SOL     OW44860   5.159   4.005   1.127
14309SOL    HW144861   5.199   3.921   1.162
14309SOL    HW244862   5.093   4.041   1.194
14310SOL     OW44863   4.771   3.752   1.079
14310SOL    HW144864   4.735   3.685   1.014
14310SOL    HW244865   4.864   3.725   1.105
14311SOL     OW44866   4.511   5.029   0.364
14311SOL    HW144867   4.486   4.932   0.363
14311SOL    HW244868   4.600   5.040   0.408
14312SOL     OW44869   4.331   5.319   1.311
14312SOL    HW144870   4.329   5.412   1.347
14312SOL    HW244871   4.421   5.302   1.271
14313SOL     OW44872   5.000   3.739   0.133
14313SOL    HW144873   5.009   3.726   0.034
14313SOL    HW244874   4.915   3.697   0.164
14314SOL     OW44875   5.026   4.197   0.661
14314SOL    HW144876   4.970   4.278   0.648
14314SOL    HW244877   5.019   4.167   0.757
14315SOL     OW44878   5.329   3.956   0.913
14315SOL    HW144879   5.265   3.980   0.986
14315SOL    HW244880   5.324   4.024   0.840
14316SOL     OW44881   3.764   4.746   0.330
14316SOL    HW144882   3.863   4.736   0.339
14316SOL    HW244883   3.722   4.656   0.319
14317SOL     OW44884   4.621   5.427   0.356
14317SOL    HW144885   4.542   5.407   0.298
14317SOL    HW244886   4.599   5.502   0.418
14318SOL     OW44887   3.914   4.302   2.012
14318SOL    HW144888   3.816   4.295   2.032
14318SOL    HW244889   3.927   4.327   1.916
14319SOL     OW44890   3.941   4.016   2.937
14319SOL    HW144891   3.958   3.979   3.028
14319SOL    HW244892   3.852   3.985   2.904
14320SOL     OW44893   3.648   4.094   2.476
14320SOL    HW144894   3.557   4.112   2.512
14320SOL    HW244895   3.643   4.023   2.406
14321SOL     OW44896   4.372   5.015   3.123
14321SOL    HW144897   4.302   4.978   3.063
14321SOL    HW244898   4.358   5.113   3.134
14322SOL     OW44899   5.307   5.279   2.549
14322SOL    HW144900   5.265   5.237   2.629
14322SOL    HW244901   5.242   5.277   2.472
14323SOL     OW44902   4.851   4.457   2.470
14323SOL    HW144903   4.903   4.542   2.467
14323SOL    HW244904   4.775   4.466   2.534
14324SOL     OW44905   5.496   4.276   2.061
14324SOL    HW144906   5.452   4.297   1.973
14324SOL    HW244907   5.435   4.216   2.114
14325SOL     OW44908   4.585   4.897   2.990
14325SOL    HW144909   4.508   4.927   3.046
14325SOL    HW244910   4.596   4.959   2.912
14326SOL     OW44911   4.550   4.578   3.653
14326SOL    HW144912   4.599   4.642   3.712
14326SOL    HW244913   4.592   4.578   3.562
14327SOL     OW44914   4.522   4.900   3.647
14327SOL    HW144915   4.561   4.966   3.710
14327SOL    HW244916   4.433   4.932   3.616
14328SOL     OW44917   4.047   5.142   2.894
14328SOL    HW144918   3.955   5.149   2.856
14328SOL    HW244919   4.106   5.210   2.851
14329SOL     OW44920   5.181   5.251   3.242
14329SOL    HW144921   5.241   5.329   3.260
14329SOL    HW244922   5.101   5.255   3.302
14330SOL     OW44923   5.292   4.203   2.620
14330SOL    HW144924   5.216   4.210   2.555
14330SOL    HW244925   5.291   4.283   2.680
14331SOL     OW44926   3.983   5.465   2.333
14331SOL    HW144927   4.010   5.538   2.396
14331SOL    HW244928   4.060   5.443   2.273
14332SOL     OW44929   4.884   5.080   3.571
14332SOL    HW144930   4.928   5.067   3.660
14332SOL    HW244931   4.845   4.993   3.540
14333SOL     OW44932   3.958   5.184   2.367
14333SOL    HW144933   3.959   5.282   2.390
14333SOL    HW244934   3.967   5.130   2.451
14334SOL     OW44935   3.935   4.765   2.735
14334SOL    HW144936   3.986   4.694   2.782
14334SOL    HW244937   3.880   4.816   2.801
14335SOL     OW44938   4.299   5.490   3.327
14335SOL    HW144939   4.215   5.486   3.381
14335SOL    HW244940   4.333   5.585   3.326
14336SOL     OW44941   4.374   4.663   2.010
14336SOL    HW144942   4.373   4.732   1.937
14336SOL    HW244943   4.469   4.641   2.034
14337SOL     OW44944   5.257   3.869   3.326
14337SOL    HW144945   5.314   3.946   3.295
14337SOL    HW244946   5.262   3.863   3.426
14338SOL     OW44947   3.878   4.405   2.332
14338SOL    HW144948   3.876   4.325   2.272
14338SOL    HW244949   3.837   4.381   2.420
14339SOL     OW44950   5.569   5.447   2.147
14339SOL    HW144951   5.637   5.436   2.220
14339SOL    HW244952   5.569   5.542   2.116
14340SOL     OW44953   3.785   5.323   1.995
14340SOL    HW144954   3.756   5.229   2.010
14340SOL    HW244955   3.773   5.375   2.080
14341SOL     OW44956   5.433   4.681   2.511
14341SOL    HW144957   5.526   4.643   2.506
14341SOL    HW244958   5.419   4.745   2.436
14342SOL     OW44959   5.415   4.867   2.308
14342SOL    HW144960   5.497   4.832   2.263
14342SOL    HW244961   5.438   4.951   2.359
14343SOL     OW44962   3.843   4.461   3.456
14343SOL    HW144963   3.941   4.444   3.464
14343SOL    HW244964   3.821   4.549   3.498
14344SOL     OW44965   4.224   5.137   2.573
14344SOL    HW144966   4.153   5.066   2.566
14344SOL    HW244967   4.238   5.177   2.483
14345SOL     OW44968   4.995   4.964   3.287
14345SOL    HW144969   5.020   4.898   3.216
14345SOL    HW244970   5.060   4.956   3.363
14346SOL     OW44971   4.573   3.758   2.396
14346SOL    HW144972   4.619   3.842   2.365
14346SOL    HW244973   4.474   3.773   2.398
14347SOL     OW44974   3.937   4.699   3.168
14347SOL    HW144975   4.018   4.640   3.166
14347SOL    HW244976   3.910   4.721   3.074
14348SOL     OW44977   5.307   4.784   2.067
14348SOL    HW144978   5.240   4.712   2.087
14348SOL    HW244979   5.342   4.821   2.153
14349SOL     OW44980   4.916   5.534   3.490
14349SOL    HW144981   4.911   5.603   3.418
14349SOL    HW244982   4.928   5.443   3.449
14350SOL     OW44983   4.104   3.966   3.771
14350SOL    HW144984   4.160   4.041   3.805
14350SOL    HW244985   4.008   3.986   3.787
14351SOL     OW44986   5.205   5.152   2.767
14351SOL    HW144987   5.143   5.179   2.840
14351SOL    HW244988   5.186   5.058   2.740
14352SOL     OW44989   5.361   5.524   2.395
14352SOL    HW144990   5.334   5.484   2.307
14352SOL    HW244991   5.340   5.461   2.469
14353SOL     OW44992   4.307   4.411   2.103
14353SOL    HW144993   4.332   4.499   2.062
14353SOL    HW244994   4.255   4.428   2.187
14354SOL     OW44995   5.303   5.400   2.157
14354SOL    HW144996   5.403   5.405   2.151
14354SOL    HW244997   5.265   5.384   2.066
14355SOL     OW44998   4.494   4.309   3.332
14355SOL    HW144999   4.499   4.262   3.421
14355SOL    HW245000   4.493   4.241   3.259
14356SOL     OW45001   4.692   4.600   3.418
14356SOL    HW145002   4.735   4.519   3.377
14356SOL    HW245003   4.657   4.660   3.346
14357SOL     OW45004   4.777   4.065   3.073
14357SOL    HW145005   4.685   4.102   3.086
14357SOL    HW245006   4.778   4.006   2.993
14358SOL     OW45007   4.748   4.409   2.222
14358SOL    HW145008   4.786   4.429   2.312
14358SOL    HW245009   4.660   4.362   2.233
14359SOL     OW45010   3.846   5.655   3.409
14359SOL    HW145011   3.818   5.621   3.499
14359SOL    HW245012   3.777   5.632   3.341
14360SOL     OW45013   4.590   4.065   2.082
14360SOL    HW145014   4.644   4.109   2.011
14360SOL    HW245015   4.538   3.989   2.042
14361SOL     OW45016   5.320   4.299   3.668
14361SOL    HW145017   5.337   4.382   3.615
14361SOL    HW245018   5.354   4.220   3.617
14362SOL     OW45019   5.141   4.907   2.418
14362SOL    HW145020   5.230   4.899   2.372
14362SOL    HW245021   5.082   4.968   2.366
14363SOL     OW45022   4.138   3.952   2.763
14363SOL    HW145023   4.061   3.969   2.824
14363SOL    HW245024   4.179   4.039   2.737
14364SOL     OW45025   4.729   5.172   2.351
14364SOL    HW145026   4.687   5.248   2.301
14364SOL    HW245027   4.669   5.143   2.425
14365SOL     OW45028   4.099   5.563   2.745
14365SOL    HW145029   4.141   5.473   2.758
14365SOL    HW245030   4.164   5.634   2.770
14366SOL     OW45031   5.517   4.774   2.756
14366SOL    HW145032   5.466   4.757   2.671
14366SOL    HW245033   5.453   4.802   2.827
14367SOL     OW45034   4.940   5.273   3.381
14367SOL    HW145035   4.936   5.204   3.453
14367SOL    HW245036   4.876   5.248   3.308
14368SOL     OW45037   4.109   4.660   2.100
14368SOL    HW145038   4.206   4.670   2.075
14368SOL    HW245039   4.096   4.573   2.147
14369SOL     OW45040   5.219   4.519   2.539
14369SOL    HW145041   5.206   4.488   2.633
14369SOL    HW245042   5.299   4.579   2.534
14370SOL     OW45043   4.262   5.007   3.566
14370SOL    HW145044   4.215   4.999   3.478
14370SOL    HW245045   4.195   5.007   3.640
14371SOL     OW45046   4.863   5.442   2.132
14371SOL    HW145047   4.772   5.415   2.164
14371SOL    HW245048   4.889   5.385   2.054
14372SOL     OW45049   3.955   3.968   3.443
14372SOL    HW145050   3.944   4.039   3.513
14372SOL    HW245051   3.911   3.884   3.474
14373SOL     OW45052   5.392   5.121   1.939
14373SOL    HW145053   5.336   5.204   1.940
14373SOL    HW245054   5.335   5.043   1.914
14374SOL     OW45055   4.207   5.448   2.167
14374SOL    HW145056   4.245   5.526   2.216
14374SOL    HW245057   4.277   5.410   2.106
14375SOL     OW45058   5.109   3.823   2.344
14375SOL    HW145059   5.110   3.798   2.247
14375SOL    HW245060   5.200   3.808   2.384
14376SOL     OW45061   3.989   5.508   3.072
14376SOL    HW145062   4.036   5.425   3.102
14376SOL    HW245063   3.950   5.494   2.981
14377SOL     OW45064   4.653   5.401   2.682
14377SOL    HW145065   4.749   5.374   2.681
14377SOL    HW245066   4.598   5.328   2.643
14378SOL     OW45067   4.148   4.423   2.324
14378SOL    HW145068   4.168   4.328   2.347
14378SOL    HW245069   4.050   4.440   2.334
14379SOL     OW45070   5.311   3.837   3.595
14379SOL    HW145071   5.290   3.865   3.689
14379SOL    HW245072   5.324   3.738   3.592
14380SOL     OW45073   4.452   3.854   1.980
14380SOL    HW145074   4.539   3.835   1.936
14380SOL    HW245075   4.377   3.829   1.919
14381SOL     OW45076   4.528   3.945   3.730
14381SOL    HW145077   4.599   3.882   3.697
14381SOL    HW245078   4.458   3.894   3.779
14382SOL     OW45079   4.609   5.256   3.048
14382SOL    HW145080   4.596   5.205   2.963
14382SOL    HW245081   4.667   5.202   3.110
14383SOL     OW45082   4.592   5.108   2.812
14383SOL    HW145083   4.688   5.104   2.782
14383SOL    HW245084   4.535   5.143   2.738
14384SOL     OW45085   4.300   3.800   2.373
14384SOL    HW145086   4.219   3.803   2.432
14384SOL    HW245087   4.295   3.875   2.307
14385SOL     OW45088   5.183   4.945   1.889
14385SOL    HW145089   5.226   4.878   1.950
14385SOL    HW245090   5.097   4.976   1.929
14386SOL     OW45091   4.005   3.755   2.031
14386SOL    HW145092   4.042   3.837   1.987
14386SOL    HW245093   4.076   3.713   2.088
14387SOL     OW45094   4.700   3.984   2.315
14387SOL    HW145095   4.664   4.011   2.226
14387SOL    HW245096   4.797   4.005   2.320
14388SOL     OW45097   4.757   4.363   3.293
14388SOL    HW145098   4.660   4.343   3.308
14388SOL    HW245099   4.813   4.297   3.343
14389SOL     OW45100   4.923   5.349   2.656
14389SOL    HW145101   4.955   5.399   2.576
14389SOL    HW245102   4.955   5.394   2.739
14390SOL     OW45103   4.019   4.958   2.543
14390SOL    HW145104   3.989   4.890   2.610
14390SOL    HW245105   4.032   4.914   2.454
14391SOL     OW45106   4.983   5.514   2.437
14391SOL    HW145107   5.010   5.567   2.356
14391SOL    HW245108   4.894   5.545   2.469
14392SOL     OW45109   4.737   4.208   1.906
14392SOL    HW145110   4.697   4.295   1.877
14392SOL    HW245111   4.813   4.225   1.968
14393SOL     OW45112   3.816   4.274   3.264
14393SOL    HW145113   3.913   4.258   3.249
14393SOL    HW245114   3.804   4.348   3.330
14394SOL     OW45115   4.545   4.155   2.463
14394SOL    HW145116   4.512   4.215   2.390
14394SOL    HW245117   4.599   4.081   2.422
14395SOL     OW45118   4.742   3.752   2.619
14395SOL    HW145119   4.679   3.762   2.542
14395SOL    HW245120   4.716   3.671   2.673
14396SOL     OW45121   5.168   4.891   2.704
14396SOL    HW145122   5.117   4.812   2.738
14396SOL    HW245123   5.160   4.896   2.604
14397SOL     OW45124   5.170   4.421   2.788
14397SOL    HW145125   5.099   4.351   2.789
14397SOL    HW245126   5.229   4.410   2.868
14398SOL     OW45127   5.521   4.493   2.224
14398SOL    HW145128   5.584   4.465   2.296
14398SOL    HW245129   5.517   4.422   2.153
14399SOL     OW45130   4.247   5.086   2.008
14399SOL    HW145131   4.159   5.087   2.055
14399SOL    HW245132   4.233   5.069   1.910
14400SOL     OW45133   5.485   5.077   2.456
14400SOL    HW145134   5.577   5.079   2.494
14400SOL    HW245135   5.433   5.156   2.489
14401SOL     OW45136   5.086   4.321   1.897
14401SOL    HW145137   5.046   4.280   1.979
14401SOL    HW245138   5.186   4.311   1.901
14402SOL     OW45139   4.281   3.986   2.176
14402SOL    HW145140   4.344   3.939   2.115
14402SOL    HW245141   4.234   4.059   2.127
14403SOL     OW45142   5.474   4.950   3.369
14403SOL    HW145143   5.562   4.917   3.336
14403SOL    HW245144   5.487   5.039   3.413
14404SOL     OW45145   4.771   5.101   3.218
14404SOL    HW145146   4.690   5.070   3.269
14404SOL    HW245147   4.851   5.051   3.249
14405SOL     OW45148   5.351   5.362   3.544
14405SOL    HW145149   5.328   5.407   3.458
14405SOL    HW245150   5.424   5.295   3.528
14406SOL     OW45151   4.894   5.016   2.985
14406SOL    HW145152   4.824   5.043   3.050
14406SOL    HW245153   4.866   5.042   2.892
14407SOL     OW45154   5.329   4.850   2.936
14407SOL    HW145155   5.321   4.918   3.010
14407SOL    HW245156   5.264   4.873   2.863
14408SOL     OW45157   4.638   3.744   3.203
14408SOL    HW145158   4.684   3.709   3.122
14408SOL    HW245159   4.699   3.804   3.254
14409SOL     OW45160   4.765   4.834   3.546
14409SOL    HW145161   4.674   4.859   3.577
14409SOL    HW245162   4.760   4.749   3.493
14410SOL     OW45163   4.152   4.525   3.144
14410SOL    HW145164   4.246   4.547   3.167
14410SOL    HW245165   4.132   4.431   3.171
14411SOL     OW45166   4.997   4.204   3.164
14411SOL    HW145167   4.996   4.301   3.142
14411SOL    HW245168   4.915   4.160   3.128
14412SOL     OW45169   3.816   5.280   3.217
14412SOL    HW145170   3.771   5.340   3.151
14412SOL    HW245171   3.915   5.282   3.202
14413SOL     OW45172   4.060   4.859   2.290
14413SOL    HW145173   4.044   4.940   2.234
14413SOL    HW245174   4.086   4.782   2.231
14414SOL     OW45175   4.222   4.213   2.726
14414SOL    HW145176   4.238   4.243   2.632
14414SOL    HW245177   4.304   4.230   2.780
14415SOL     OW45178   4.978   5.085   2.274
14415SOL    HW145179   5.037   5.163   2.296
14415SOL    HW245180   4.884   5.106   2.302
14416SOL     OW45181   5.073   5.217   2.997
14416SOL    HW145182   5.115   5.230   3.086
14416SOL    HW245183   5.010   5.139   3.001
14417SOL     OW45184   5.268   4.390   2.299
14417SOL    HW145185   5.238   4.427   2.387
14417SOL    HW245186   5.352   4.436   2.270
14418SOL     OW45187   4.080   5.251   3.141
14418SOL    HW145188   4.065   5.199   3.057
14418SOL    HW245189   4.178   5.265   3.155
14419SOL     OW45190   5.338   4.528   3.534
14419SOL    HW145191   5.245   4.565   3.527
14419SOL    HW245192   5.393   4.563   3.458
14420SOL     OW45193   4.710   3.757   3.671
14420SOL    HW145194   4.757   3.725   3.754
14420SOL    HW245195   4.765   3.735   3.591
14421SOL     OW45196   4.241   3.761   3.622
14421SOL    HW145197   4.179   3.700   3.573
14421SOL    HW245198   4.195   3.847   3.643
14422SOL     OW45199   4.496   4.517   2.949
14422SOL    HW145200   4.480   4.592   2.885
14422SOL    HW245201   4.455   4.539   3.038
14423SOL     OW45202   5.053   4.672   2.824
14423SOL    HW145203   4.953   4.669   2.834
14423SOL    HW245204   5.087   4.579   2.810
14424SOL     OW45205   4.927   4.238   2.107
14424SOL    HW145206   4.949   4.167   2.173
14424SOL    HW245207   4.869   4.307   2.150
14425SOL     OW45208   4.001   3.918   3.179
14425SOL    HW145209   3.983   3.937   3.276
14425SOL    HW245210   4.007   3.819   3.165
14426SOL     OW45211   3.816   5.016   3.148
14426SOL    HW145212   3.822   4.958   3.230
14426SOL    HW245213   3.808   5.112   3.176
14427SOL     OW45214   4.446   4.264   2.872
14427SOL    HW145215   4.515   4.239   2.805
14427SOL    HW245216   4.458   4.359   2.900
14428SOL     OW45217   5.477   4.708   3.689
14428SOL    HW145218   5.431   4.635   3.638
14428SOL    HW245219   5.423   4.732   3.769
14429SOL     OW45220   4.060   3.817   2.515
14429SOL    HW145221   4.004   3.898   2.494
14429SOL    HW245222   4.093   3.824   2.610
14430SOL     OW45223   5.304   4.135   2.196
14430SOL    HW145224   5.354   4.077   2.260
14430SOL    HW245225   5.277   4.220   2.241
14431SOL     OW45226   4.731   5.294   3.654
14431SOL    HW145227   4.689   5.354   3.586
14431SOL    HW245228   4.772   5.215   3.607
14432SOL     OW45229   5.556   5.203   3.441
14432SOL    HW145230   5.572   5.226   3.345
14432SOL    HW245231   5.638   5.224   3.494
14433SOL     OW45232   4.048   4.732   3.755
14433SOL    HW145233   4.044   4.716   3.854
14433SOL    HW245234   4.131   4.688   3.718
14434SOL     OW45235   5.206   3.984   1.982
14434SOL    HW145236   5.162   3.904   2.023
14434SOL    HW245237   5.239   4.045   2.054
14435SOL     OW45238   5.005   4.578   1.869
14435SOL    HW145239   5.025   4.480   1.872
14435SOL    HW245240   5.046   4.617   1.786
14436SOL     OW45241   4.844   5.094   2.732
14436SOL    HW145242   4.856   5.011   2.678
14436SOL    HW245243   4.886   5.171   2.684
14437SOL     OW45244   4.033   4.555   2.895
14437SOL    HW145245   4.084   4.565   2.981
14437SOL    HW245246   4.015   4.459   2.878
14438SOL     OW45247   4.027   4.267   2.917
14438SOL    HW145248   3.988   4.175   2.925
14438SOL    HW245249   4.100   4.266   2.849
14439SOL     OW45250   4.814   3.936   3.311
14439SOL    HW145251   4.837   4.006   3.379
14439SOL    HW245252   4.805   3.978   3.221
14440SOL     OW45253   3.748   5.031   2.034
14440SOL    HW145254   3.657   5.051   1.996
14440SOL    HW245255   3.749   4.938   2.071
14441SOL     OW45256   3.856   5.469   2.826
14441SOL    HW145257   3.843   5.377   2.788
14441SOL    HW245258   3.936   5.512   2.784
14442SOL     OW45259   4.208   5.316   2.772
14442SOL    HW145260   4.292   5.371   2.782
14442SOL    HW245261   4.219   5.253   2.695
14443SOL     OW45262   4.754   4.483   3.040
14443SOL    HW145263   4.761   4.442   3.132
14443SOL    HW245264   4.659   4.479   3.010
14444SOL     OW45265   3.755   4.313   3.002
14444SOL    HW145266   3.845   4.310   2.959
14444SOL    HW245267   3.766   4.305   3.101
14445SOL     OW45268   3.899   4.207   3.613
14445SOL    HW145269   3.964   4.261   3.560
14445SOL    HW245270   3.806   4.222   3.577
14446SOL     OW45271   5.107   4.653   3.473
14446SOL    HW145272   5.123   4.751   3.480
14446SOL    HW245273   5.107   4.626   3.376
14447SOL     OW45274   4.509   4.280   2.223
14447SOL    HW145275   4.533   4.198   2.171
14447SOL    HW245276   4.436   4.330   2.176
14448SOL     OW45277   5.332   4.379   2.997
14448SOL    HW145278   5.306   4.323   3.075
14448SOL    HW245279   5.428   4.361   2.974
14449SOL     OW45280   3.952   5.252   3.616
14449SOL    HW145281   3.889   5.276   3.690
14449SOL    HW245282   4.000   5.168   3.638
14450SOL     OW45283   4.515   4.146   3.110
14450SOL    HW145284   4.483   4.052   3.118
14450SOL    HW245285   4.482   4.186   3.025
14451SOL     OW45286   4.599   5.438   3.456
14451SOL    HW145287   4.543   5.365   3.415
14451SOL    HW245288   4.625   5.504   3.385
14452SOL     OW45289   4.157   4.190   2.043
14452SOL    HW145290   4.223   4.264   2.051
14452SOL    HW245291   4.064   4.228   2.041
14453SOL     OW45292   3.843   4.847   3.368
14453SOL    HW145293   3.834   4.797   3.454
14453SOL    HW245294   3.875   4.785   3.297
14454SOL     OW45295   5.039   4.806   3.061
14454SOL    HW145296   5.060   4.753   2.979
14454SOL    HW245297   4.982   4.884   3.036
14455SOL     OW45298   5.123   4.599   2.120
14455SOL    HW145299   5.129   4.512   2.169
14455SOL    HW245300   5.070   4.587   2.037
14456SOL     OW45301   5.466   5.460   3.015
14456SOL    HW145302   5.546   5.483   2.959
14456SOL    HW245303   5.437   5.366   2.994
14457SOL     OW45304   5.004   5.456   2.895
14457SOL    HW145305   5.083   5.517   2.900
14457SOL    HW245306   5.026   5.368   2.937
14458SOL     OW45307   3.779   4.873   2.924
14458SOL    HW145308   3.803   4.931   3.002
14458SOL    HW245309   3.681   4.853   2.926
14459SOL     OW45310   4.415   5.458   3.656
14459SOL    HW145311   4.344   5.525   3.638
14459SOL    HW245312   4.489   5.468   3.590
14460SOL     OW45313   5.471   3.964   2.335
14460SOL    HW145314   5.523   3.932   2.256
14460SOL    HW245315   5.431   3.885   2.383
14461SOL     OW45316   5.130   5.301   2.343
14461SOL    HW145317   5.186   5.333   2.267
14461SOL    HW245318   5.069   5.374   2.373
14462SOL     OW45319   3.816   5.549   3.659
14462SOL    HW145320   3.772   5.463   3.687
14462SOL    HW245321   3.883   5.575   3.728
14463SOL     OW45322   5.007   4.678   2.485
14463SOL    HW145323   5.083   4.615   2.503
14463SOL    HW245324   5.042   4.762   2.444
14464SOL     OW45325   4.540   5.024   3.336
14464SOL    HW145326   4.511   5.087   3.408
14464SOL    HW245327   4.468   5.019   3.266
14465SOL     OW45328   4.402   5.323   2.026
14465SOL    HW145329   4.442   5.347   1.938
14465SOL    HW245330   4.360   5.233   2.021
14466SOL     OW45331   5.351   5.466   3.272
14466SOL    HW145332   5.391   5.462   3.181
14466SOL    HW245333   5.380   5.552   3.317
14467SOL     OW45334   5.530   3.858   2.787
14467SOL    HW145335   5.520   3.772   2.737
14467SOL    HW245336   5.445   3.911   2.780
14468SOL     OW45337   3.930   4.061   2.502
14468SOL    HW145338   3.832   4.058   2.484
14468SOL    HW245339   3.948   4.123   2.579
14469SOL     OW45340   4.940   5.289   1.915
14469SOL    HW145341   4.937   5.193   1.941
14469SOL    HW245342   4.879   5.304   1.836
14470SOL     OW45343   4.584   4.768   3.239
14470SOL    HW145344   4.606   4.796   3.145
14470SOL    HW245345   4.570   4.849   3.295
14471SOL     OW45346   4.638   4.591   2.047
14471SOL    HW145347   4.703   4.664   2.027
14471SOL    HW245348   4.677   4.528   2.114
14472SOL     OW45349   5.219   5.336   1.906
14472SOL    HW145350   5.119   5.328   1.901
14472SOL    HW245351   5.256   5.351   1.814
14473SOL     OW45352   4.086   5.008   3.358
14473SOL    HW145353   4.077   5.072   3.282
14473SOL    HW245354   4.004   4.950   3.362
14474SOL     OW45355   5.328   5.035   3.147
14474SOL    HW145356   5.381   4.995   3.222
14474SOL    HW245357   5.265   5.104   3.183
14475SOL     OW45358   4.843   4.838   2.641
14475SOL    HW145359   4.812   4.785   2.720
14475SOL    HW245360   4.895   4.778   2.580
14476SOL     OW45361   4.817   3.881   2.865
14476SOL    HW145362   4.798   3.864   2.768
14476SOL    HW245363   4.797   3.798   2.918
14477SOL     OW45364   4.300   5.249   2.343
14477SOL    HW145365   4.340   5.172   2.293
14477SOL    HW245366   4.262   5.314   2.277
14478SOL     OW45367   5.453   4.059   3.261
14478SOL    HW145368   5.504   4.145   3.252
14478SOL    HW245369   5.484   3.995   3.190
14479SOL     OW45370   4.004   5.077   2.130
14479SOL    HW145371   3.915   5.062   2.088
14479SOL    HW245372   3.993   5.125   2.217
14480SOL     OW45373   3.816   4.697   3.597
14480SOL    HW145374   3.732   4.678   3.648
14480SOL    HW245375   3.891   4.711   3.662
14481SOL     OW45376   3.869   4.084   1.731
14481SOL    HW145377   3.770   4.077   1.729
14481SOL    HW245378   3.896   4.180   1.737
14482SOL     OW45379   5.147   4.606   3.209
14482SOL    HW145380   5.095   4.676   3.161
14482SOL    HW245381   5.242   4.608   3.177
14483SOL     OW45382   3.745   3.825   2.071
14483SOL    HW145383   3.710   3.857   1.983
14483SOL    HW245384   3.844   3.808   2.063
14484SOL     OW45385   4.940   5.014   2.007
14484SOL    HW145386   4.899   4.923   2.004
14484SOL    HW245387   4.955   5.041   2.102
14485SOL     OW45388   4.416   4.549   3.209
14485SOL    HW145389   4.469   4.629   3.234
14485SOL    HW245390   4.446   4.470   3.263
14486SOL     OW45391   5.243   5.602   2.913
14486SOL    HW145392   5.284   5.650   2.835
14486SOL    HW245393   5.312   5.546   2.957
14487SOL     OW45394   4.533   4.189   3.578
14487SOL    HW145395   4.579   4.247   3.645
14487SOL    HW245396   4.522   4.097   3.616
14488SOL     OW45397   5.195   4.917   3.478
14488SOL    HW145398   5.185   4.935   3.575
14488SOL    HW245399   5.291   4.931   3.451
14489SOL     OW45400   4.070   5.487   3.485
14489SOL    HW145401   3.993   5.540   3.449
14489SOL    HW245402   4.035   5.403   3.527
14490SOL     OW45403   5.404   4.632   3.083
14490SOL    HW145404   5.380   4.546   3.038
14490SOL    HW245405   5.377   4.709   3.025
14491SOL     OW45406   4.964   4.058   2.321
14491SOL    HW145407   5.018   3.974   2.328
14491SOL    HW245408   4.997   4.124   2.389
14492SOL     OW45409   4.298   4.548   2.521
14492SOL    HW145410   4.356   4.614   2.473
14492SOL    HW245411   4.238   4.502   2.455
14493SOL     OW45412   5.408   4.081   3.531
14493SOL    HW145413   5.426   4.080   3.433
14493SOL    HW245414   5.366   3.995   3.559
14494SOL     OW45415   5.479   4.659   3.345
14494SOL    HW145416   5.465   4.755   3.371
14494SOL    HW245417   5.457   4.648   3.247
14495SOL     OW45418   4.410   5.491   2.778
14495SOL    HW145419   4.391   5.589   2.779
14495SOL    HW245420   4.506   5.476   2.757
14496SOL     OW45421   4.780   4.701   2.878
14496SOL    HW145422   4.777   4.620   2.937
14496SOL    HW245423   4.720   4.772   2.915
14497SOL     OW45424   4.831   4.768   1.955
14497SOL    HW145425   4.766   4.784   1.880
14497SOL    HW245426   4.897   4.699   1.927
14498SOL     OW45427   5.519   5.326   2.721
14498SOL    HW145428   5.451   5.318   2.648
14498SOL    HW245429   5.494   5.267   2.797
14499SOL     OW45430   4.061   5.008   3.747
14499SOL    HW145431   4.046   4.909   3.740
14499SOL    HW245432   4.016   5.043   3.829
14500SOL     OW45433   4.434   5.207   3.514
14500SOL    HW145434   4.365   5.137   3.534
14500SOL    HW245435   4.418   5.287   3.571
14501SOL     OW45436   5.533   3.884   3.068
14501SOL    HW145437   5.507   3.789   3.087
14501SOL    HW245438   5.542   3.898   2.970
14502SOL     OW45439   4.167   4.159   2.385
14502SOL    HW145440   4.217   4.096   2.326
14502SOL    HW245441   4.083   4.114   2.417
14503SOL     OW45442   5.404   5.207   2.942
14503SOL    HW145443   5.332   5.186   2.876
14503SOL    HW245444   5.400   5.142   3.018
14504SOL     OW45445   4.087   4.249   3.200
14504SOL    HW145446   4.109   4.154   3.222
14504SOL    HW245447   4.075   4.259   3.101
14505SOL     OW45448   4.489   5.213   2.565
14505SOL    HW145449   4.480   5.266   2.480
14505SOL    HW245450   4.401   5.169   2.585
14506SOL     OW45451   5.049   4.025   2.917
14506SOL    HW145452   4.978   3.956   2.903
14506SOL    HW245453   5.065   4.036   3.016
14507SOL     OW45454   4.752   3.644   2.981
14507SOL    HW145455   4.711   3.591   2.908
14507SOL    HW245456   4.849   3.623   2.987
14508SOL     OW45457   4.353   5.286   3.158
14508SOL    HW145458   4.339   5.362   3.221
14508SOL    HW245459   4.441   5.295   3.113
14509SOL     OW45460   5.096   3.750   2.081
14509SOL    HW145461   5.151   3.680   2.034
14509SOL    HW245462   4.999   3.731   2.067
14510SOL     OW45463   5.037   4.244   2.510
14510SOL    HW145464   4.985   4.323   2.477
14510SOL    HW245465   5.021   4.232   2.608
14511SOL     OW45466   5.285   3.976   2.781
14511SOL    HW145467   5.201   3.991   2.833
14511SOL    HW245468   5.297   4.049   2.714
14512SOL     OW45469   3.789   4.774   2.133
14512SOL    HW145470   3.888   4.756   2.128
14512SOL    HW245471   3.739   4.687   2.137
14513SOL     OW45472   4.604   5.386   2.221
14513SOL    HW145473   4.534   5.362   2.154
14513SOL    HW245474   4.586   5.478   2.256
14514SOL     OW45475   3.979   4.322   3.859
14514SOL    HW145476   3.908   4.368   3.913
14514SOL    HW245477   3.941   4.290   3.773
14515SOL     OW45478   3.898   4.011   4.727
14515SOL    HW145479   3.942   3.971   4.808
14515SOL    HW245480   3.801   3.989   4.728
14516SOL     OW45481   3.723   4.140   4.332
14516SOL    HW145482   3.626   4.132   4.354
14516SOL    HW245483   3.739   4.103   4.240
14517SOL     OW45484   4.305   5.047   4.944
14517SOL    HW145485   4.216   5.037   4.898
14517SOL    HW245486   4.324   5.144   4.959
14518SOL     OW45487   5.312   5.232   4.416
14518SOL    HW145488   5.254   5.196   4.489
14518SOL    HW245489   5.255   5.255   4.337
14519SOL     OW45490   4.898   4.417   4.416
14519SOL    HW145491   4.931   4.503   4.376
14519SOL    HW245492   4.840   4.437   4.495
14520SOL     OW45493   5.484   4.290   3.890
14520SOL    HW145494   5.431   4.306   3.806
14520SOL    HW245495   5.439   4.220   3.945
14521SOL     OW45496   4.459   4.854   4.806
14521SOL    HW145497   4.395   4.896   4.870
14521SOL    HW245498   4.497   4.924   4.746
14522SOL     OW45499   4.532   4.456   5.533
14522SOL    HW145500   4.560   4.501   5.618
14522SOL    HW245501   4.551   4.516   5.456
14523SOL     OW45502   4.401   4.699   4.391
14523SOL    HW145503   4.478   4.704   4.454
14523SOL    HW245504   4.333   4.767   4.417
14524SOL     OW45505   4.403   4.876   5.610
14524SOL    HW145506   4.444   4.962   5.640
14524SOL    HW245507   4.335   4.895   5.538
14525SOL     OW45508   4.067   5.106   4.804
14525SOL    HW145509   3.990   5.052   4.770
14525SOL    HW245510   4.109   5.156   4.729
14526SOL     OW45511   5.168   5.204   5.125
14526SOL    HW145512   5.227   5.279   5.154
14526SOL    HW245513   5.084   5.204   5.178
14527SOL     OW45514   4.151   4.101   5.165
14527SOL    HW145515   4.223   4.089   5.233
14527SOL    HW245516   4.068   4.052   5.196
14528SOL     OW45517   5.312   4.163   4.474
14528SOL    HW145518   5.235   4.157   4.411
14528SOL    HW245519   5.299   4.241   4.536
14529SOL     OW45520   3.969   5.448   4.171
14529SOL    HW145521   3.983   5.516   4.242
14529SOL    HW245522   4.045   5.452   4.106
14530SOL     OW45523   4.827   5.048   5.451
14530SOL    HW145524   4.891   5.033   5.526
14530SOL    HW245525   4.764   4.971   5.445
14531SOL     OW45526   3.914   5.189   4.236
14531SOL    HW145527   3.940   5.284   4.221
14531SOL    HW245528   3.835   5.184   4.296
14532SOL     OW45529   4.031   4.795   4.642
14532SOL    HW145530   4.022   4.696   4.654
14532SOL    HW245531   3.958   4.841   4.694
14533SOL     OW45532   4.296   5.560   5.123
14533SOL    HW145533   4.220   5.533   5.182
14533SOL    HW245534   4.351   5.630   5.168
14534SOL     OW45535   4.300   4.658   3.960
14534SOL    HW145536   4.318   4.644   3.863
14534SOL    HW245537   4.373   4.715   3.999
14535SOL     OW45538   5.398   3.804   5.258
14535SOL    HW145539   5.423   3.893   5.223
14535SOL    HW245540   5.348   3.815   5.345
14536SOL     OW45541   3.835   4.392   4.277
14536SOL    HW145542   3.794   4.304   4.302
14536SOL    HW245543   3.820   4.458   4.350
14537SOL     OW45544   5.597   5.488   4.063
14537SOL    HW145545   5.679   5.478   4.119
14537SOL    HW245546   5.596   5.579   4.021
14538SOL     OW45547   3.746   5.311   3.786
14538SOL    HW145548   3.673   5.243   3.783
14538SOL    HW245549   3.747   5.356   3.875
14539SOL     OW45550   5.396   4.702   4.417
14539SOL    HW145551   5.487   4.662   4.431
14539SOL    HW245552   5.392   4.747   4.328
14540SOL     OW45553   5.395   4.840   4.174
14540SOL    HW145554   5.470   4.811   4.114
14540SOL    HW245555   5.426   4.914   4.234
14541SOL     OW45556   3.908   4.506   5.347
14541SOL    HW145557   4.008   4.503   5.346
14541SOL    HW245558   3.878   4.593   5.384
14542SOL     OW45559   4.353   5.103   4.441
14542SOL    HW145560   4.305   5.017   4.454
14542SOL    HW245561   4.344   5.133   4.346
14543SOL     OW45562   4.947   4.917   5.158
14543SOL    HW145563   4.970   4.853   5.085
14543SOL    HW245564   5.020   4.917   5.226
14544SOL     OW45565   4.546   3.726   4.237
14544SOL    HW145566   4.594   3.806   4.201
14544SOL    HW245567   4.450   3.748   4.250
14545SOL     OW45568   3.909   4.666   5.060
14545SOL    HW145569   3.999   4.647   5.021
14545SOL    HW245570   3.856   4.581   5.063
14546SOL     OW45571   5.226   4.711   3.875
14546SOL    HW145572   5.153   4.644   3.862
14546SOL    HW245573   5.251   4.714   3.972
14547SOL     OW45574   4.897   5.499   5.346
14547SOL    HW145575   4.913   5.568   5.275
14547SOL    HW245576   4.908   5.408   5.307
14548SOL     OW45577   4.076   3.984   5.619
14548SOL    HW145578   4.110   4.061   5.672
14548SOL    HW245579   3.979   3.998   5.596
14549SOL     OW45580   5.158   5.151   4.630
14549SOL    HW145581   5.116   5.178   4.717
14549SOL    HW245582   5.146   5.052   4.617
14550SOL     OW45583   5.361   5.602   4.260
14550SOL    HW145584   5.353   5.536   4.185
14550SOL    HW245585   5.380   5.553   4.346
14551SOL     OW45586   4.320   4.400   4.060
14551SOL    HW145587   4.319   4.492   4.022
14551SOL    HW245588   4.239   4.387   4.117
14552SOL     OW45589   5.019   4.127   4.672
14552SOL    HW145590   4.928   4.085   4.669
14552SOL    HW245591   5.076   4.080   4.740
14553SOL     OW45592   5.333   5.421   4.052
14553SOL    HW145593   5.433   5.433   4.051
14553SOL    HW245594   5.301   5.405   3.959
14554SOL     OW45595   4.479   4.316   5.166
14554SOL    HW145596   4.429   4.289   5.249
14554SOL    HW245597   4.463   4.248   5.095
14555SOL     OW45598   5.086   4.199   5.402
14555SOL    HW145599   5.046   4.238   5.486
14555SOL    HW245600   5.182   4.176   5.419
14556SOL     OW45601   4.623   4.618   5.320
14556SOL    HW145602   4.678   4.550   5.272
14556SOL    HW245603   4.581   4.680   5.254
14557SOL     OW45604   4.705   4.067   4.940
14557SOL    HW145605   4.612   4.101   4.953
14557SOL    HW245606   4.720   4.045   4.844
14558SOL     OW45607   3.796   4.573   4.473
14558SOL    HW145608   3.879   4.552   4.525
14558SOL    HW245609   3.744   4.644   4.522
14559SOL     OW45610   3.836   5.594   5.317
14559SOL    HW145611   3.845   5.554   5.408
14559SOL    HW245612   3.740   5.601   5.293
14560SOL     OW45613   4.622   4.111   3.923
14560SOL    HW145614   4.643   4.194   3.872
14560SOL    HW245615   4.589   4.041   3.860
14561SOL     OW45616   5.446   4.318   5.563
14561SOL    HW145617   5.400   4.391   5.514
14561SOL    HW245618   5.431   4.231   5.516
14562SOL     OW45619   5.117   4.854   4.190
14562SOL    HW145620   5.216   4.860   4.178
14562SOL    HW245621   5.074   4.940   4.163
14563SOL     OW45622   4.276   3.821   4.686
14563SOL    HW145623   4.281   3.861   4.777
14563SOL    HW245624   4.291   3.892   4.617
14564SOL     OW45625   4.742   5.200   4.209
14564SOL    HW145626   4.719   5.277   4.149
14564SOL    HW245627   4.705   5.216   4.300
14565SOL     OW45628   4.089   5.506   4.596
14565SOL    HW145629   4.123   5.412   4.600
14565SOL    HW245630   4.161   5.569   4.626
14566SOL     OW45631   5.519   4.829   4.652
14566SOL    HW145632   5.478   4.830   4.561
14566SOL    HW245633   5.448   4.811   4.720
14567SOL     OW45634   4.915   5.226   5.247
14567SOL    HW145635   4.898   5.162   5.323
14567SOL    HW245636   4.855   5.203   5.171
14568SOL     OW45637   4.049   4.711   4.040
14568SOL    HW145638   4.146   4.700   4.016
14568SOL    HW245639   4.024   4.642   4.108
14569SOL     OW45640   5.221   4.495   4.417
14569SOL    HW145641   5.205   4.450   4.505
14569SOL    HW245642   5.289   4.567   4.428
14570SOL     OW45643   4.223   4.988   5.430
14570SOL    HW145644   4.192   4.990   5.335
14570SOL    HW245645   4.145   4.999   5.491
14571SOL     OW45646   4.892   5.493   3.976
14571SOL    HW145647   4.801   5.473   4.012
14571SOL    HW245648   4.918   5.423   3.910
14572SOL     OW45649   3.910   3.972   5.207
14572SOL    HW145650   3.843   4.046   5.212
14572SOL    HW245651   3.879   3.894   5.262
14573SOL     OW45652   5.370   5.106   3.828
14573SOL    HW145653   5.344   5.201   3.815
14573SOL    HW245654   5.296   5.046   3.797
14574SOL     OW45655   4.196   5.498   4.022
14574SOL    HW145656   4.233   5.554   4.096
14574SOL    HW245657   4.271   5.448   3.978
14575SOL     OW45658   5.137   3.754   4.199
14575SOL    HW145659   5.117   3.744   4.102
14575SOL    HW245660   5.228   3.717   4.218
14576SOL     OW45661   3.979   5.520   4.936
14576SOL    HW145662   4.024   5.437   4.969
14576SOL    HW245663   3.936   5.502   4.847
14577SOL     OW45664   4.696   5.411   4.608
14577SOL    HW145665   4.788   5.371   4.603
14577SOL    HW245666   4.636   5.366   4.541
14578SOL     OW45667   4.098   4.355   4.216
14578SOL    HW145668   4.101   4.255   4.206
14578SOL    HW245669   4.004   4.383   4.236
14579SOL     OW45670   5.258   3.858   5.492
14579SOL    HW145671   5.230   3.909   5.573
14579SOL    HW245672   5.177   3.831   5.440
14580SOL     OW45673   4.354   3.776   3.869
14580SOL    HW145674   4.385   3.685   3.897
14580SOL    HW245675   4.307   3.769   3.781
14581SOL     OW45676   4.416   4.002   5.358
14581SOL    HW145677   4.513   3.981   5.369
14581SOL    HW245678   4.362   3.938   5.413
14582SOL     OW45679   4.573   5.229   4.892
14582SOL    HW145680   4.556   5.176   4.809
14582SOL    HW245681   4.640   5.181   4.949
14583SOL     OW45682   4.978   4.322   5.174
14583SOL    HW145683   5.023   4.289   5.257
14583SOL    HW245684   5.022   4.408   5.145
14584SOL     OW45685   4.538   5.070   4.660
14584SOL    HW145686   4.631   5.075   4.625
14584SOL    HW245687   4.473   5.085   4.585
14585SOL     OW45688   4.659   4.224   4.608
14585SOL    HW145689   4.638   4.209   4.511
14585SOL    HW245690   4.704   4.143   4.645
14586SOL     OW45691   4.278   3.776   4.258
14586SOL    HW145692   4.197   3.772   4.316
14586SOL    HW245693   4.270   3.852   4.194
14587SOL     OW45694   5.162   4.944   3.751
14587SOL    HW145695   5.187   4.855   3.790
14587SOL    HW245696   5.076   4.975   3.791
14588SOL     OW45697   4.043   3.711   3.855
14588SOL    HW145698   4.072   3.803   3.828
14588SOL    HW245699   4.096   3.682   3.935
14589SOL     OW45700   4.687   3.948   4.162
14589SOL    HW145701   4.674   3.998   4.077
14589SOL    HW245702   4.784   3.949   4.187
14590SOL     OW45703   4.725   4.434   5.147
14590SOL    HW145704   4.647   4.373   5.156
14590SOL    HW245705   4.810   4.382   5.156
14591SOL     OW45706   4.939   5.301   4.516
14591SOL    HW145707   4.955   5.372   4.448
14591SOL    HW245708   5.027   5.265   4.548
14592SOL     OW45709   4.200   4.878   4.450
14592SOL    HW145710   4.147   4.849   4.530
14592SOL    HW245711   4.137   4.894   4.374
14593SOL     OW45712   4.971   5.515   4.337
14593SOL    HW145713   5.019   5.580   4.278
14593SOL    HW245714   4.891   5.559   4.376
14594SOL     OW45715   4.646   4.351   3.781
14594SOL    HW145716   4.608   4.429   3.732
14594SOL    HW245717   4.703   4.383   3.857
14595SOL     OW45718   3.818   4.394   5.112
14595SOL    HW145719   3.903   4.358   5.074
14595SOL    HW245720   3.836   4.433   5.202
14596SOL     OW45721   4.274   3.923   4.935
14596SOL    HW145722   4.321   3.880   5.012
14596SOL    HW245723   4.177   3.935   4.958
14597SOL     OW45724   4.614   4.150   4.352
14597SOL    HW145725   4.592   4.218   4.282
14597SOL    HW245726   4.644   4.066   4.308
14598SOL     OW45727   4.719   3.811   4.470
14598SOL    HW145728   4.670   3.805   4.383
14598SOL    HW245729   4.710   3.725   4.520
14599SOL     OW45730   5.130   4.880   4.602
14599SOL    HW145731   5.034   4.853   4.590
14599SOL    HW245732   5.186   4.830   4.535
14600SOL     OW45733   5.181   4.359   4.655
14600SOL    HW145734   5.115   4.284   4.663
14600SOL    HW245735   5.249   4.351   4.729
14601SOL     OW45736   5.506   4.497   4.068
14601SOL    HW145737   5.565   4.468   4.143
14601SOL    HW245738   5.505   4.427   3.997
14602SOL     OW45739   4.219   5.177   3.934
14602SOL    HW145740   4.121   5.175   3.954
14602SOL    HW245741   4.241   5.108   3.865
14603SOL     OW45742   5.482   5.017   4.354
14603SOL    HW145743   5.576   5.022   4.386
14603SOL    HW245744   5.434   5.102   4.377
14604SOL     OW45745   4.252   3.955   4.055
14604SOL    HW145746   4.291   3.890   3.990
14604SOL    HW245747   4.239   4.043   4.010
14605SOL     OW45748   5.439   4.854   5.360
14605SOL    HW145749   5.442   4.802   5.446
14605SOL    HW245750   5.475   4.945   5.375
14606SOL     OW45751   4.741   5.071   5.067
14606SOL    HW145752   4.651   5.052   5.107
14606SOL    HW245753   4.810   5.012   5.109
14607SOL     OW45754   5.390   5.322   5.450
14607SOL    HW145755   5.354   5.342   5.359
14607SOL    HW245756   5.488   5.341   5.451
14608SOL     OW45757   4.882   5.007   4.839
14608SOL    HW145758   4.818   5.028   4.913
14608SOL    HW245759   4.840   5.028   4.751
14609SOL     OW45760   5.306   4.816   4.825
14609SOL    HW145761   5.311   4.890   4.892
14609SOL    HW245762   5.226   4.831   4.765
14610SOL     OW45763   4.673   3.806   5.037
14610SOL    HW145764   4.715   3.767   4.954
14610SOL    HW245765   4.689   3.904   5.039
14611SOL     OW45766   4.656   4.827   5.492
14611SOL    HW145767   4.565   4.843   5.531
14611SOL    HW245768   4.652   4.751   5.428
14612SOL     OW45769   4.478   4.796   4.136
14612SOL    HW145770   4.453   4.756   4.224
14612SOL    HW245771   4.553   4.744   4.096
14613SOL     OW45772   4.153   4.551   4.980
14613SOL    HW145773   4.220   4.563   5.054
14613SOL    HW245774   4.114   4.459   4.985
14614SOL     OW45775   4.960   4.092   5.030
14614SOL    HW145776   4.973   4.182   5.071
14614SOL    HW245777   4.867   4.086   4.994
14615SOL     OW45778   3.801   5.282   5.075
14615SOL    HW145779   3.756   5.353   5.020
14615SOL    HW245780   3.900   5.290   5.066
14616SOL     OW45781   4.013   4.925   4.252
14616SOL    HW145782   3.992   5.022   4.241
14616SOL    HW245783   4.032   4.884   4.163
14617SOL     OW45784   4.234   4.260   4.592
14617SOL    HW145785   4.235   4.332   4.522
14617SOL    HW245786   4.313   4.271   4.652
14618SOL     OW45787   4.987   5.100   4.126
14618SOL    HW145788   5.053   5.170   4.153
14618SOL    HW245789   4.897   5.124   4.161
14619SOL     OW45790   5.058   5.213   4.874
14619SOL    HW145791   5.103   5.212   4.963
14619SOL    HW245792   4.993   5.137   4.869
14620SOL     OW45793   5.293   4.353   4.188
14620SOL    HW145794   5.257   4.395   4.271
14620SOL    HW245795   5.358   4.416   4.144
14621SOL     OW45796   4.071   5.266   5.018
14621SOL    HW145797   4.061   5.205   4.940
14621SOL    HW245798   4.167   5.289   5.032
14622SOL     OW45799   4.183   4.482   5.371
14622SOL    HW145800   4.231   4.532   5.299
14622SOL    HW245801   4.231   4.397   5.391
14623SOL     OW45802   5.334   4.518   5.425
14623SOL    HW145803   5.241   4.549   5.406
14623SOL    HW245804   5.393   4.539   5.348
14624SOL     OW45805   4.672   3.909   5.372
14624SOL    HW145806   4.756   3.950   5.337
14624SOL    HW245807   4.695   3.828   5.427
14625SOL     OW45808   4.258   3.830   5.496
14625SOL    HW145809   4.218   3.746   5.459
14625SOL    HW245810   4.185   3.888   5.532
14626SOL     OW45811   4.393   4.585   4.836
14626SOL    HW145812   4.408   4.682   4.816
14626SOL    HW245813   4.300   4.573   4.872
14627SOL     OW45814   5.007   4.573   4.730
14627SOL    HW145815   4.918   4.542   4.696
14627SOL    HW245816   5.077   4.506   4.706
14628SOL     OW45817   3.988   3.894   4.958
14628SOL    HW145818   3.966   3.927   5.050
14628SOL    HW245819   3.981   3.794   4.956
14629SOL     OW45820   3.758   5.022   5.014
14629SOL    HW145821   3.788   4.963   5.090
14629SOL    HW245822   3.775   5.117   5.037
14630SOL     OW45823   4.442   4.319   4.753
14630SOL    HW145824   4.524   4.299   4.699
14630SOL    HW245825   4.436   4.417   4.771
14631SOL     OW45826   5.441   4.708   5.592
14631SOL    HW145827   5.399   4.629   5.548
14631SOL    HW245828   5.391   4.731   5.675
14632SOL     OW45829   4.043   3.758   4.401
14632SOL    HW145830   3.997   3.846   4.413
14632SOL    HW245831   4.038   3.706   4.486
14633SOL     OW45832   5.332   4.120   4.043
14633SOL    HW145833   5.396   4.065   4.096
14633SOL    HW245834   5.300   4.197   4.098
14634SOL     OW45835   4.752   4.475   4.656
14634SOL    HW145836   4.727   4.499   4.749
14634SOL    HW245837   4.723   4.382   4.636
14635SOL     OW45838   4.691   5.272   5.523
14635SOL    HW145839   4.665   5.336   5.450
14635SOL    HW245840   4.731   5.190   5.482
14636SOL     OW45841   4.103   4.652   5.580
14636SOL    HW145842   4.171   4.666   5.653
14636SOL    HW245843   4.142   4.593   5.510
14637SOL     OW45844   5.257   3.923   3.848
14637SOL    HW145845   5.191   3.861   3.890
14637SOL    HW245846   5.277   3.999   3.911
14638SOL     OW45847   4.797   5.074   4.585
14638SOL    HW145848   4.828   4.989   4.543
14638SOL    HW245849   4.847   5.151   4.546
14639SOL     OW45850   4.019   4.514   4.616
14639SOL    HW145851   4.097   4.507   4.555
14639SOL    HW245852   4.013   4.432   4.673
14640SOL     OW45853   4.014   4.256   4.740
14640SOL    HW145854   3.963   4.170   4.731
14640SOL    HW245855   4.096   4.252   4.684
14641SOL     OW45856   4.918   4.006   5.286
14641SOL    HW145857   4.973   4.070   5.340
14641SOL    HW245858   4.930   4.024   5.189
14642SOL     OW45859   3.734   4.991   3.889
14642SOL    HW145860   3.652   5.037   3.856
14642SOL    HW245861   3.718   4.893   3.891
14643SOL     OW45862   3.838   5.483   4.699
14643SOL    HW145863   3.805   5.392   4.675
14643SOL    HW245864   3.924   5.501   4.653
14644SOL     OW45865   4.210   5.258   4.622
14644SOL    HW145866   4.283   5.315   4.660
14644SOL    HW245867   4.247   5.198   4.551
14645SOL     OW45868   4.658   4.538   4.898
14645SOL    HW145869   4.686   4.509   4.990
14645SOL    HW245870   4.559   4.549   4.896
14646SOL     OW45871   3.651   4.330   4.894
14646SOL    HW145872   3.717   4.321   4.820
14646SOL    HW245873   3.697   4.367   4.975
14647SOL     OW45874   3.940   4.291   5.518
14647SOL    HW145875   4.040   4.286   5.512
14647SOL    HW245876   3.907   4.364   5.458
14648SOL     OW45877   5.096   4.633   5.358
14648SOL    HW145878   5.112   4.732   5.357
14648SOL    HW245879   5.081   4.601   5.264
14649SOL     OW45880   4.563   4.287   4.120
14649SOL    HW145881   4.572   4.212   4.055
14649SOL    HW245882   4.476   4.334   4.105
14650SOL     OW45883   5.370   4.313   4.843
14650SOL    HW145884   5.354   4.257   4.924
14650SOL    HW245885   5.466   4.309   4.817
14651SOL     OW45886   3.982   5.266   5.431
14651SOL    HW145887   3.954   5.338   5.494
14651SOL    HW245888   3.993   5.180   5.482
14652SOL     OW45889   4.443   4.143   4.958
14652SOL    HW145890   4.376   4.070   4.948
14652SOL    HW245891   4.434   4.208   4.882
14653SOL     OW45892   4.586   5.426   5.292
14653SOL    HW145893   4.541   5.356   5.237
14653SOL    HW245894   4.622   5.498   5.233
14654SOL     OW45895   4.206   4.187   3.919
14654SOL    HW145896   4.271   4.254   3.953
14654SOL    HW245897   4.119   4.233   3.899
14655SOL     OW45898   3.845   4.867   5.227
14655SOL    HW145899   3.859   4.837   5.322
14655SOL    HW245900   3.869   4.793   5.165
14656SOL     OW45901   4.983   4.762   4.926
14656SOL    HW145902   4.994   4.694   4.853
14656SOL    HW245903   4.950   4.848   4.887
14657SOL     OW45904   5.509   5.371   4.965
14657SOL    HW145905   5.542   5.451   4.914
14657SOL    HW245906   5.462   5.308   4.903
14658SOL     OW45907   5.031   5.490   4.818
14658SOL    HW145908   5.111   5.511   4.762
14658SOL    HW245909   5.033   5.394   4.844
14659SOL     OW45910   3.833   4.950   4.762
14659SOL    HW145911   3.816   4.965   4.859
14659SOL    HW245912   3.748   4.961   4.711
14660SOL     OW45913   4.404   5.441   5.493
14660SOL    HW145914   4.338   5.515   5.483
14660SOL    HW245915   4.476   5.451   5.425
14661SOL     OW45916   5.528   3.969   4.161
14661SOL    HW145917   5.580   3.956   4.077
14661SOL    HW245918   5.498   3.880   4.196
14662SOL     OW45919   5.140   5.314   4.217
14662SOL    HW145920   5.204   5.353   4.151
14662SOL    HW245921   5.074   5.383   4.244
14663SOL     OW45922   3.877   5.483   5.563
14663SOL    HW145923   3.817   5.419   5.611
14663SOL    HW245924   3.918   5.546   5.629
14664SOL     OW45925   5.015   4.659   4.348
14664SOL    HW145926   5.092   4.598   4.368
14664SOL    HW245927   5.044   4.729   4.282
14665SOL     OW45928   4.485   5.028   5.154
14665SOL    HW145929   4.460   5.085   5.232
14665SOL    HW245930   4.413   5.033   5.084
14666SOL     OW45931   4.416   5.368   3.912
14666SOL    HW145932   4.424   5.397   3.816
14666SOL    HW245933   4.355   5.289   3.918
14667SOL     OW45934   5.347   5.401   5.187
14667SOL    HW145935   5.404   5.384   5.106
14667SOL    HW245936   5.355   5.498   5.213
14668SOL     OW45937   5.576   3.853   4.698
14668SOL    HW145938   5.595   3.758   4.671
14668SOL    HW245939   5.484   3.878   4.667
14669SOL     OW45940   3.932   4.001   4.451
14669SOL    HW145941   3.856   4.054   4.412
14669SOL    HW245942   3.931   4.009   4.551
14670SOL     OW45943   4.973   5.311   3.791
14670SOL    HW145944   4.967   5.216   3.820
14670SOL    HW245945   4.897   5.332   3.729
14671SOL     OW45946   4.522   4.763   5.112
14671SOL    HW145947   4.563   4.760   5.021
14671SOL    HW245948   4.506   4.859   5.137
14672SOL     OW45949   4.665   4.660   4.008
14672SOL    HW145950   4.711   4.694   3.926
14672SOL    HW245951   4.698   4.568   4.028
14673SOL     OW45952   5.238   5.384   3.794
14673SOL    HW145953   5.142   5.356   3.785
14673SOL    HW245954   5.281   5.384   3.704
14674SOL     OW45955   4.087   5.021   5.198
14674SOL    HW145956   4.076   5.107   5.148
14674SOL    HW245957   3.999   4.974   5.203
14675SOL     OW45958   5.348   5.025   4.999
14675SOL    HW145959   5.437   5.019   5.044
14675SOL    HW245960   5.283   5.074   5.058
14676SOL     OW45961   4.865   4.820   4.511
14676SOL    HW145962   4.774   4.783   4.530
14676SOL    HW245963   4.912   4.761   4.446
14677SOL     OW45964   4.778   3.976   4.683
14677SOL    HW145965   4.756   3.944   4.592
14677SOL    HW245966   4.800   3.898   4.742
14678SOL     OW45967   4.346   5.181   4.185
14678SOL    HW145968   4.426   5.137   4.145
14678SOL    HW245969   4.278   5.197   4.113
14679SOL     OW45970   5.487   4.053   5.159
14679SOL    HW145971   5.547   4.132   5.143
14679SOL    HW245972   5.501   3.986   5.086
14680SOL     OW45973   3.953   5.111   3.979
14680SOL    HW145974   3.868   5.072   3.943
14680SOL    HW245975   3.938   5.145   4.072
14681SOL     OW45976   3.874   4.764   5.482
14681SOL    HW145977   3.792   4.743   5.534
14681SOL    HW245978   3.954   4.727   5.529
14682SOL     OW45979   4.421   3.822   5.143
14682SOL    HW145980   4.513   3.810   5.106
14682SOL    HW245981   4.422   3.893   5.214
14683SOL     OW45982   3.842   4.034   3.817
14683SOL    HW145983   3.761   3.980   3.795
14683SOL    HW245984   3.856   4.103   3.746
14684SOL     OW45985   5.088   4.563   5.094
14684SOL    HW145986   5.032   4.625   5.040
14684SOL    HW245987   5.181   4.562   5.059
14685SOL     OW45988   3.811   4.026   4.099
14685SOL    HW145989   3.811   4.032   3.999
14685SOL    HW245990   3.902   4.048   4.134
14686SOL     OW45991   4.929   5.049   3.858
14686SOL    HW145992   4.831   5.034   3.846
14686SOL    HW245993   4.951   5.054   3.955
14687SOL     OW45994   4.347   4.561   5.166
14687SOL    HW145995   4.405   4.640   5.149
14687SOL    HW245996   4.403   4.478   5.162
14688SOL     OW45997   5.256   5.557   4.678
14688SOL    HW145998   5.276   5.648   4.639
14688SOL    HW245999   5.327   5.493   4.649
14689SOL     OW46000   4.350   4.268   5.408
14689SOL    HW146001   4.409   4.320   5.470
14689SOL    HW246002   4.379   4.172   5.409
14690SOL     OW46003   5.161   4.895   5.354
14690SOL    HW146004   5.154   4.926   5.449
14690SOL    HW246005   5.258   4.886   5.329
14691SOL     OW46006   4.094   5.489   5.299
14691SOL    HW146007   4.005   5.531   5.283
14691SOL    HW246008   4.081   5.395   5.332
14692SOL     OW46009   5.337   4.593   4.984
14692SOL    HW146010   5.400   4.529   4.939
14692SOL    HW246011   5.324   4.673   4.926
14693SOL     OW46012   4.946   3.959   4.245
14693SOL    HW146013   5.023   3.898   4.226
14693SOL    HW246014   4.980   4.039   4.295
14694SOL     OW46015   4.223   4.481   4.429
14694SOL    HW146016   4.291   4.552   4.408
14694SOL    HW246017   4.188   4.442   4.344
14695SOL     OW46018   5.406   4.089   5.420
14695SOL    HW146019   5.429   4.082   5.323
14695SOL    HW246020   5.362   4.004   5.450
14696SOL     OW46021   5.484   4.615   5.220
14696SOL    HW146022   5.475   4.709   5.254
14696SOL    HW246023   5.440   4.608   5.131
14697SOL     OW46024   4.651   5.077   3.816
14697SOL    HW146025   4.607   5.081   3.906
14697SOL    HW246026   4.658   5.169   3.778
14698SOL     OW46027   4.409   5.427   4.683
14698SOL    HW146028   4.381   5.523   4.675
14698SOL    HW246029   4.508   5.422   4.694
14699SOL     OW46030   4.612   4.709   4.584
14699SOL    HW146031   4.657   4.622   4.603
14699SOL    HW246032   4.570   4.745   4.667
14700SOL     OW46033   4.803   4.685   3.779
14700SOL    HW146034   4.821   4.739   3.697
14700SOL    HW246035   4.885   4.631   3.802
14701SOL     OW46036   5.454   5.374   4.599
14701SOL    HW146037   5.416   5.333   4.516
14701SOL    HW246038   5.445   5.311   4.675
14702SOL     OW46039   3.994   5.024   5.567
14702SOL    HW146040   3.934   4.947   5.544
14702SOL    HW246041   3.985   5.044   5.664
14703SOL     OW46042   3.755   4.909   4.356
14703SOL    HW146043   3.730   4.850   4.433
14703SOL    HW246044   3.852   4.896   4.334
14704SOL     OW46045   4.404   5.184   5.361
14704SOL    HW146046   4.339   5.117   5.396
14704SOL    HW246047   4.399   5.267   5.417
14705SOL     OW46048   5.550   3.875   4.971
14705SOL    HW146049   5.585   3.790   5.010
14705SOL    HW246050   5.563   3.873   4.872
14706SOL     OW46051   4.057   4.082   4.210
14706SOL    HW146052   4.129   4.026   4.167
14706SOL    HW246053   4.040   4.048   4.303
14707SOL     OW46054   5.382   5.198   4.793
14707SOL    HW146055   5.306   5.183   4.729
14707SOL    HW246056   5.378   5.129   4.865
14708SOL     OW46057   4.048   4.301   5.007
14708SOL    HW146058   4.094   4.227   5.057
14708SOL    HW246059   4.041   4.276   4.910
14709SOL     OW46060   4.555   5.299   4.404
14709SOL    HW146061   4.522   5.362   4.334
14709SOL    HW246062   4.484   5.231   4.425
14710SOL     OW46063   5.152   3.985   4.862
14710SOL    HW146064   5.175   3.890   4.881
14710SOL    HW246065   5.092   4.020   4.934
14711SOL     OW46066   4.798   3.728   4.810
14711SOL    HW146067   4.752   3.672   4.741
14711SOL    HW246068   4.881   3.682   4.839
14712SOL     OW46069   4.554   5.051   4.071
14712SOL    HW146070   4.530   4.957   4.095
14712SOL    HW246071   4.632   5.081   4.127
14713SOL     OW46072   4.341   5.315   5.006
14713SOL    HW146073   4.335   5.408   5.043
14713SOL    HW246074   4.429   5.304   4.960
14714SOL     OW46075   5.087   3.719   3.934
14714SOL    HW146076   5.132   3.655   3.872
14714SOL    HW246077   4.988   3.709   3.926
14715SOL     OW46078   5.032   4.174   4.401
14715SOL    HW146079   4.986   4.261   4.387
14715SOL    HW246080   5.030   4.149   4.498
14716SOL     OW46081   5.323   3.940   4.645
14716SOL    HW146082   5.270   3.974   4.723
14716SOL    HW246083   5.323   4.009   4.573
14717SOL     OW46084   3.779   4.714   3.972
14717SOL    HW146085   3.876   4.735   3.986
14717SOL    HW246086   3.768   4.614   3.969
14718SOL     OW46087   4.639   5.417   4.072
14718SOL    HW146088   4.562   5.395   4.012
14718SOL    HW246089   4.613   5.493   4.133
14719SOL     OW46090   3.891   4.277   5.787
14719SOL    HW146091   3.794   4.264   5.811
14719SOL    HW246092   3.898   4.300   5.690
14720SOL     OW46093   3.961   4.020   6.557
14720SOL    HW146094   3.994   4.010   6.651
14720SOL    HW246095   3.870   3.978   6.549
14721SOL     OW46096   3.711   4.163   6.216
14721SOL    HW146097   3.633   4.167   6.279
14721SOL    HW246098   3.680   4.137   6.125
14722SOL     OW46099   4.284   5.013   6.799
14722SOL    HW146100   4.201   5.013   6.743
14722SOL    HW246101   4.307   5.107   6.823
14723SOL     OW46102   5.332   5.233   6.278
14723SOL    HW146103   5.272   5.210   6.355
14723SOL    HW246104   5.277   5.259   6.199
14724SOL     OW46105   4.824   4.460   6.249
14724SOL    HW146106   4.887   4.536   6.230
14724SOL    HW246107   4.784   4.472   6.340
14725SOL     OW46108   5.397   4.323   5.836
14725SOL    HW146109   5.412   4.332   5.737
14725SOL    HW246110   5.365   4.230   5.856
14726SOL     OW46111   4.438   4.838   6.647
14726SOL    HW146112   4.381   4.882   6.716
14726SOL    HW246113   4.473   4.907   6.584
14727SOL     OW46114   4.607   4.464   7.423
14727SOL    HW146115   4.553   4.522   7.484
14727SOL    HW246116   4.629   4.516   7.340
14728SOL     OW46117   4.434   4.881   7.425
14728SOL    HW146118   4.470   4.966   7.463
14728SOL    HW246119   4.350   4.899   7.373
14729SOL     OW46120   4.067   5.096   6.643
14729SOL    HW146121   3.990   5.042   6.608
14729SOL    HW246122   4.108   5.148   6.569
14730SOL     OW46123   5.157   5.255   6.962
14730SOL    HW146124   5.228   5.324   6.975
14730SOL    HW246125   5.080   5.274   7.024
14731SOL     OW46126   5.307   4.170   6.328
14731SOL    HW146127   5.285   4.206   6.237
14731SOL    HW246128   5.271   4.233   6.397
14732SOL     OW46129   3.972   5.480   6.058
14732SOL    HW146130   3.992   5.546   6.130
14732SOL    HW246131   4.041   5.486   5.986
14733SOL     OW46132   4.832   5.040   7.216
14733SOL    HW146133   4.889   5.000   7.145
14733SOL    HW246134   4.786   4.967   7.267
14734SOL     OW46135   3.956   5.208   6.067
14734SOL    HW146136   3.961   5.307   6.080
14734SOL    HW246137   3.927   5.164   6.152
14735SOL     OW46138   4.039   4.813   6.436
14735SOL    HW146139   4.059   4.717   6.459
14735SOL    HW246140   3.978   4.851   6.505
14736SOL     OW46141   4.332   5.469   7.048
14736SOL    HW146142   4.246   5.475   7.099
14736SOL    HW246143   4.368   5.561   7.033
14737SOL     OW46144   4.280   4.692   5.816
14737SOL    HW146145   4.336   4.751   5.757
14737SOL    HW246146   4.306   4.705   5.911
14738SOL     OW46147   5.457   3.776   7.133
14738SOL    HW146148   5.473   3.831   7.051
14738SOL    HW246149   5.389   3.822   7.190
14739SOL     OW46150   3.809   4.422   6.216
14739SOL    HW146151   3.784   4.326   6.225
14739SOL    HW246152   3.815   4.463   6.306
14740SOL     OW46153   5.604   5.478   5.914
14740SOL    HW146154   5.674   5.430   5.967
14740SOL    HW246155   5.641   5.564   5.879
14741SOL     OW46156   3.735   5.301   5.696
14741SOL    HW146157   3.671   5.223   5.691
14741SOL    HW246158   3.733   5.339   5.789
14742SOL     OW46159   5.430   4.654   6.257
14742SOL    HW146160   5.517   4.606   6.251
14742SOL    HW246161   5.419   4.713   6.177
14743SOL     OW46162   5.410   4.839   6.043
14743SOL    HW146163   5.487   4.807   5.989
14743SOL    HW246164   5.441   4.911   6.106
14744SOL     OW46165   3.860   4.452   7.121
14744SOL    HW146166   3.945   4.501   7.143
14744SOL    HW246167   3.785   4.518   7.112
14745SOL     OW46168   4.357   5.108   6.278
14745SOL    HW146169   4.307   5.022   6.276
14745SOL    HW246170   4.368   5.142   6.184
14746SOL     OW46171   4.976   4.936   7.014
14746SOL    HW146172   4.983   4.875   6.936
14746SOL    HW246173   5.061   4.934   7.067
14747SOL     OW46174   4.539   3.764   6.092
14747SOL    HW146175   4.582   3.847   6.057
14747SOL    HW246176   4.440   3.779   6.103
14748SOL     OW46177   3.926   4.673   6.887
14748SOL    HW146178   4.015   4.627   6.877
14748SOL    HW246179   3.859   4.627   6.829
14749SOL     OW46180   5.281   4.781   5.805
14749SOL    HW146181   5.206   4.719   5.829
14749SOL    HW246182   5.330   4.809   5.888
14750SOL     OW46183   5.053   5.590   7.180
14750SOL    HW146184   4.986   5.648   7.133
14750SOL    HW246185   5.027   5.494   7.169
14751SOL     OW46186   4.075   3.951   7.468
14751SOL    HW146187   4.121   4.032   7.503
14751SOL    HW246188   3.976   3.967   7.468
14752SOL     OW46189   5.169   5.170   6.490
14752SOL    HW146190   5.120   5.192   6.574
14752SOL    HW246191   5.160   5.072   6.471
14753SOL     OW46192   5.379   5.603   6.108
14753SOL    HW146193   5.374   5.537   6.033
14753SOL    HW246194   5.401   5.555   6.193
14754SOL     OW46195   4.274   4.416   5.876
14754SOL    HW146196   4.288   4.509   5.841
14754SOL    HW246197   4.203   4.417   5.946
14755SOL     OW46198   4.986   4.132   6.520
14755SOL    HW146199   4.896   4.090   6.516
14755SOL    HW246200   5.044   4.081   6.584
14756SOL     OW46201   5.338   5.421   5.904
14756SOL    HW146202   5.438   5.427   5.896
14756SOL    HW246203   5.298   5.407   5.814
14757SOL     OW46204   4.526   4.316   7.060
14757SOL    HW146205   4.516   4.271   7.149
14757SOL    HW246206   4.503   4.251   6.987
14758SOL     OW46207   5.108   4.244   7.241
14758SOL    HW146208   5.105   4.282   7.333
14758SOL    HW246209   5.198   4.204   7.224
14759SOL     OW46210   4.664   4.619   7.198
14759SOL    HW146211   4.721   4.558   7.143
14759SOL    HW246212   4.597   4.664   7.139
14760SOL     OW46213   4.720   4.117   6.768
14760SOL    HW146214   4.627   4.136   6.801
14760SOL    HW246215   4.714   4.064   6.684
14761SOL     OW46216   4.760   4.418   5.975
14761SOL    HW146217   4.776   4.432   6.073
14761SOL    HW246218   4.673   4.370   5.962
14762SOL     OW46219   3.812   4.547   6.462
14762SOL    HW146220   3.909   4.560   6.480
14762SOL    HW246221   3.763   4.633   6.475
14763SOL     OW46222   3.822   5.566   7.227
14763SOL    HW146223   3.857   5.545   7.319
14763SOL    HW246224   3.726   5.537   7.221
14764SOL     OW46225   4.543   4.061   5.783
14764SOL    HW146226   4.566   4.110   5.699
14764SOL    HW246227   4.495   3.976   5.760
14765SOL     OW46228   5.380   4.332   7.410
14765SOL    HW146229   5.375   4.419   7.360
14765SOL    HW246230   5.382   4.256   7.344
14766SOL     OW46231   5.145   4.892   6.148
14766SOL    HW146232   5.233   4.878   6.102
14766SOL    HW246233   5.094   4.964   6.100
14767SOL     OW46234   4.198   3.917   6.456
14767SOL    HW146235   4.113   3.948   6.498
14767SOL    HW246236   4.251   3.996   6.426
14768SOL     OW46237   4.750   5.231   6.068
14768SOL    HW146238   4.728   5.308   6.008
14768SOL    HW246239   4.708   5.245   6.157
14769SOL     OW46240   4.096   5.510   6.470
14769SOL    HW146241   4.124   5.415   6.460
14769SOL    HW246242   4.172   5.564   6.508
14770SOL     OW46243   5.514   4.745   6.506
14770SOL    HW146244   5.475   4.731   6.415
14770SOL    HW246245   5.442   4.775   6.568
14771SOL     OW46246   4.942   5.316   7.126
14771SOL    HW146247   4.932   5.230   7.176
14771SOL    HW246248   4.851   5.350   7.100
14772SOL     OW46249   4.014   4.651   5.918
14772SOL    HW146250   4.095   4.665   5.862
14772SOL    HW246251   4.020   4.562   5.963
14773SOL     OW46252   5.208   4.496   6.281
14773SOL    HW146253   5.198   4.450   6.370
14773SOL    HW246254   5.290   4.553   6.282
14774SOL     OW46255   4.192   4.967   7.296
14774SOL    HW146256   4.157   4.983   7.204
14774SOL    HW246257   4.126   5.001   7.363
14775SOL     OW46258   4.880   5.506   5.809
14775SOL    HW146259   4.790   5.491   5.850
14775SOL    HW246260   4.906   5.427   5.754
14776SOL     OW46261   3.791   4.033   7.148
14776SOL    HW146262   3.758   4.038   7.054
14776SOL    HW246263   3.816   3.938   7.169
14777SOL     OW46264   5.417   5.073   5.567
14777SOL    HW146265   5.405   5.165   5.529
14777SOL    HW246266   5.327   5.034   5.588
14778SOL     OW46267   4.183   5.535   5.889
14778SOL    HW146268   4.227   5.583   5.965
14778SOL    HW246269   4.252   5.484   5.837
14779SOL     OW46270   5.111   3.809   6.058
14779SOL    HW146271   5.090   3.791   5.962
14779SOL    HW246272   5.204   3.777   6.078
14780SOL     OW46273   3.956   5.508   6.799
14780SOL    HW146274   4.007   5.424   6.817
14780SOL    HW246275   3.918   5.504   6.706
14781SOL     OW46276   4.712   5.409   6.472
14781SOL    HW146277   4.800   5.363   6.458
14781SOL    HW246278   4.643   5.368   6.413
14782SOL     OW46279   4.045   4.413   6.055
14782SOL    HW146280   4.079   4.320   6.071
14782SOL    HW246281   3.964   4.429   6.112
14783SOL     OW46282   5.268   3.890   7.298
14783SOL    HW146283   5.260   3.913   7.395
14783SOL    HW246284   5.193   3.830   7.271
14784SOL     OW46285   4.396   3.831   5.733
14784SOL    HW146286   4.424   3.737   5.754
14784SOL    HW246287   4.352   3.833   5.643
14785SOL     OW46288   4.507   3.978   7.449
14785SOL    HW146289   4.590   3.934   7.416
14785SOL    HW246290   4.446   3.909   7.489
14786SOL     OW46291   4.558   5.216   6.727
14786SOL    HW146292   4.542   5.160   6.646
14786SOL    HW246293   4.622   5.169   6.787
14787SOL     OW46294   5.013   4.338   7.006
14787SOL    HW146295   5.051   4.309   7.094
14787SOL    HW246296   5.050   4.428   6.982
14788SOL     OW46297   4.523   5.056   6.500
14788SOL    HW146298   4.618   5.063   6.470
14788SOL    HW246299   4.462   5.074   6.423
14789SOL     OW46300   4.641   4.220   6.448
14789SOL    HW146301   4.626   4.218   6.350
14789SOL    HW246302   4.674   4.130   6.479
14790SOL     OW46303   4.263   3.795   6.103
14790SOL    HW146304   4.182   3.790   6.162
14790SOL    HW246305   4.255   3.874   6.042
14791SOL     OW46306   5.175   4.954   5.623
14791SOL    HW146307   5.218   4.887   5.684
14791SOL    HW246308   5.095   4.994   5.669
14792SOL     OW46309   4.019   3.735   5.712
14792SOL    HW146310   4.051   3.826   5.687
14792SOL    HW246311   4.083   3.694   5.777
14793SOL     OW46312   4.675   3.983   6.014
14793SOL    HW146313   4.640   4.014   5.926
14793SOL    HW246314   4.775   3.996   6.016
14794SOL     OW46315   4.763   4.445   7.015
14794SOL    HW146316   4.688   4.382   7.038
14794SOL    HW246317   4.849   4.395   7.012
14795SOL     OW46318   4.944   5.294   6.369
14795SOL    HW146319   4.960   5.366   6.301
14795SOL    HW246320   5.032   5.263   6.405
14796SOL     OW46321   4.204   4.887   6.235
14796SOL    HW146322   4.153   4.860   6.317
14796SOL    HW246323   4.141   4.902   6.159
14797SOL     OW46324   4.980   5.509   6.194
14797SOL    HW146325   5.028   5.573   6.133
14797SOL    HW246326   4.902   5.555   6.235
14798SOL     OW46327   3.836   4.324   6.882
14798SOL    HW146328   3.928   4.296   6.854
14798SOL    HW246329   3.840   4.362   6.975
14799SOL     OW46330   4.583   4.198   6.173
14799SOL    HW146331   4.555   4.237   6.085
14799SOL    HW246332   4.627   4.110   6.158
14800SOL     OW46333   4.721   3.789   6.306
14800SOL    HW146334   4.664   3.792   6.223
14800SOL    HW246335   4.699   3.707   6.359
14801SOL     OW46336   5.139   4.906   6.435
14801SOL    HW146337   5.045   4.875   6.445
14801SOL    HW246338   5.168   4.898   6.340
14802SOL     OW46339   5.169   4.348   6.511
14802SOL    HW146340   5.099   4.277   6.524
14802SOL    HW246341   5.233   4.345   6.587
14803SOL     OW46342   5.551   4.500   5.975
14803SOL    HW146343   5.606   4.447   6.040
14803SOL    HW246344   5.495   4.438   5.921
14804SOL     OW46345   4.245   5.186   5.796
14804SOL    HW146346   4.152   5.149   5.798
14804SOL    HW246347   4.300   5.134   5.730
14805SOL     OW46348   5.504   5.019   6.211
14805SOL    HW146349   5.602   5.024   6.230
14805SOL    HW246350   5.460   5.104   6.238
14806SOL     OW46351   4.248   3.986   5.915
14806SOL    HW146352   4.306   3.933   5.853
14806SOL    HW246353   4.210   4.064   5.866
14807SOL     OW46354   5.444   4.979   7.096
14807SOL    HW146355   5.519   4.913   7.088
14807SOL    HW246356   5.478   5.065   7.134
14808SOL     OW46357   4.709   5.050   6.901
14808SOL    HW146358   4.623   5.027   6.946
14808SOL    HW246359   4.786   5.027   6.961
14809SOL     OW46360   5.332   5.337   7.275
14809SOL    HW146361   5.306   5.383   7.190
14809SOL    HW246362   5.416   5.284   7.259
14810SOL     OW46363   4.871   5.009   6.687
14810SOL    HW146364   4.802   5.020   6.759
14810SOL    HW246365   4.830   5.029   6.598
14811SOL     OW46366   5.304   4.831   6.662
14811SOL    HW146367   5.298   4.900   6.734
14811SOL    HW246368   5.238   4.852   6.590
14812SOL     OW46369   4.740   3.765   6.990
14812SOL    HW146370   4.746   3.773   6.890
14812SOL    HW246371   4.803   3.830   7.033
14813SOL     OW46372   4.704   4.838   7.353
14813SOL    HW146373   4.612   4.860   7.384
14813SOL    HW246374   4.702   4.754   7.298
14814SOL     OW46375   4.162   4.517   6.861
14814SOL    HW146376   4.222   4.520   6.942
14814SOL    HW246377   4.134   4.423   6.843
14815SOL     OW46378   4.965   4.104   6.879
14815SOL    HW146379   4.988   4.192   6.921
14815SOL    HW246380   4.874   4.110   6.838
14816SOL     OW46381   3.803   5.287   6.933
14816SOL    HW146382   3.773   5.377   6.902
14816SOL    HW246383   3.901   5.278   6.921
14817SOL     OW46384   4.019   4.894   6.039
14817SOL    HW146385   4.012   4.961   5.965
14817SOL    HW246386   4.013   4.802   6.001
14818SOL     OW46387   4.293   4.180   6.412
14818SOL    HW146388   4.316   4.237   6.333
14818SOL    HW246389   4.342   4.214   6.493
14819SOL     OW46390   4.995   5.105   6.020
14819SOL    HW146391   5.065   5.174   6.037
14819SOL    HW246392   4.905   5.141   6.045
14820SOL     OW46393   5.043   5.217   6.720
14820SOL    HW146394   5.082   5.227   6.812
14820SOL    HW246395   4.980   5.140   6.719
14821SOL     OW46396   5.261   4.305   6.092
14821SOL    HW146397   5.230   4.379   6.151
14821SOL    HW246398   5.300   4.343   6.008
14822SOL     OW46399   4.064   5.252   6.862
14822SOL    HW146400   4.053   5.193   6.782
14822SOL    HW246401   4.161   5.270   6.877
14823SOL     OW46402   4.115   4.512   7.228
14823SOL    HW146403   4.198   4.521   7.173
14823SOL    HW246404   4.116   4.424   7.275
14824SOL     OW46405   5.360   4.563   7.272
14824SOL    HW146406   5.267   4.596   7.256
14824SOL    HW246407   5.414   4.573   7.188
14825SOL     OW46408   4.745   3.876   7.376
14825SOL    HW146409   4.796   3.957   7.348
14825SOL    HW246410   4.809   3.800   7.392
14826SOL     OW46411   4.206   3.752   7.323
14826SOL    HW146412   4.151   3.703   7.256
14826SOL    HW246413   4.155   3.830   7.358
14827SOL     OW46414   4.323   4.579   6.645
14827SOL    HW146415   4.366   4.668   6.643
14827SOL    HW246416   4.268   4.569   6.728
14828SOL     OW46417   4.992   4.564   6.600
14828SOL    HW146418   4.902   4.527   6.577
14828SOL    HW246419   5.063   4.500   6.570
14829SOL     OW46420   4.955   4.251   5.865
14829SOL    HW146421   4.967   4.169   5.920
14829SOL    HW246422   4.892   4.314   5.911
14830SOL     OW46423   4.069   3.984   6.808
14830SOL    HW146424   4.153   3.967   6.860
14830SOL    HW246425   4.010   3.903   6.813
14831SOL     OW46426   3.755   5.044   6.819
14831SOL    HW146427   3.776   4.975   6.888
14831SOL    HW246428   3.766   5.135   6.858
14832SOL     OW46429   4.425   4.316   6.611
14832SOL    HW146430   4.506   4.305   6.553
14832SOL    HW246431   4.395   4.411   6.608
14833SOL     OW46432   5.503   4.712   7.453
14833SOL    HW146433   5.449   4.655   7.390
14833SOL    HW246434   5.451   4.728   7.537
14834SOL     OW46435   3.985   3.773   6.221
14834SOL    HW146436   3.978   3.872   6.233
14834SOL    HW246437   4.012   3.731   6.307
14835SOL     OW46438   5.297   4.086   5.925
14835SOL    HW146439   5.365   4.023   5.962
14835SOL    HW246440   5.262   4.144   5.998
14836SOL     OW46441   4.740   4.458   6.539
14836SOL    HW146442   4.708   4.472   6.632
14836SOL    HW246443   4.714   4.366   6.508
14837SOL     OW46444   4.726   5.247   7.346
14837SOL    HW146445   4.688   5.311   7.279
14837SOL    HW246446   4.761   5.166   7.298
14838SOL     OW46447   5.564   5.215   7.171
14838SOL    HW146448   5.584   5.239   7.076
14838SOL    HW246449   5.645   5.229   7.227
14839SOL     OW46450   4.034   4.735   7.362
14839SOL    HW146451   4.097   4.809   7.339
14839SOL    HW246452   4.063   4.651   7.317
14840SOL     OW46453   5.169   3.977   5.711
14840SOL    HW146454   5.115   3.903   5.750
14840SOL    HW246455   5.213   4.028   5.785
14841SOL     OW46456   5.009   4.579   5.609
14841SOL    HW146457   4.997   4.480   5.614
14841SOL    HW246458   5.041   4.605   5.518
14842SOL     OW46459   4.785   5.078   6.433
14842SOL    HW146460   4.822   4.991   6.400
14842SOL    HW246461   4.841   5.154   6.399
14843SOL     OW46462   4.084   4.549   6.508
14843SOL    HW146463   4.173   4.568   6.548
14843SOL    HW246464   4.069   4.450   6.504
14844SOL     OW46465   4.062   4.275   6.519
14844SOL    HW146466   4.000   4.198   6.526
14844SOL    HW246467   4.144   4.247   6.468
14845SOL     OW46468   4.881   4.104   7.303
14845SOL    HW146469   4.836   4.160   7.372
14845SOL    HW246470   4.966   4.148   7.275
14846SOL     OW46471   4.925   3.935   7.091
14846SOL    HW146472   4.902   3.994   7.168
14846SOL    HW246473   4.948   3.991   7.011
14847SOL     OW46474   3.743   4.967   5.774
14847SOL    HW146475   3.658   5.008   5.743
14847SOL    HW246476   3.727   4.873   5.804
14848SOL     OW46477   3.835   5.507   6.550
14848SOL    HW146478   3.778   5.444   6.497
14848SOL    HW246479   3.927   5.511   6.511
14849SOL     OW46480   4.202   5.252   6.460
14849SOL    HW146481   4.276   5.302   6.507
14849SOL    HW246482   4.241   5.199   6.385
14850SOL     OW46483   4.633   4.504   6.783
14850SOL    HW146484   4.693   4.494   6.862
14850SOL    HW246485   4.546   4.457   6.801
14851SOL     OW46486   3.740   4.528   6.736
14851SOL    HW146487   3.756   4.515   6.638
14851SOL    HW246488   3.765   4.444   6.785
14852SOL     OW46489   3.895   4.247   7.291
14852SOL    HW146490   3.869   4.163   7.244
14852SOL    HW246491   3.877   4.325   7.231
14853SOL     OW46492   5.114   4.663   7.208
14853SOL    HW146493   5.137   4.760   7.204
14853SOL    HW246494   5.098   4.629   7.115
14854SOL     OW46495   4.519   4.292   5.928
14854SOL    HW146496   4.523   4.209   5.873
14854SOL    HW246497   4.434   4.341   5.908
14855SOL     OW46498   5.354   4.341   6.710
14855SOL    HW146499   5.338   4.279   6.788
14855SOL    HW246500   5.451   4.340   6.687
14856SOL     OW46501   3.968   5.267   7.309
14856SOL    HW146502   3.949   5.342   7.373
14856SOL    HW246503   3.980   5.182   7.359
14857SOL     OW46504   4.457   4.170   6.841
14857SOL    HW146505   4.388   4.100   6.862
14857SOL    HW246506   4.430   4.219   6.758
14858SOL     OW46507   4.618   5.399   7.142
14858SOL    HW146508   4.538   5.354   7.102
14858SOL    HW246509   4.647   5.474   7.082
14859SOL     OW46510   4.146   4.195   5.776
14859SOL    HW146511   4.206   4.272   5.799
14859SOL    HW246512   4.051   4.221   5.793
14860SOL     OW46513   3.827   4.880   7.025
14860SOL    HW146514   3.822   4.856   7.122
14860SOL    HW246515   3.865   4.803   6.974
14861SOL     OW46516   4.978   4.772   6.780
14861SOL    HW146517   4.984   4.699   6.711
14861SOL    HW246518   4.942   4.855   6.738
14862SOL     OW46519   5.075   4.624   5.870
14862SOL    HW146520   5.016   4.575   5.935
14862SOL    HW246521   5.048   4.601   5.777
14863SOL     OW46522   5.503   5.435   6.752
14863SOL    HW146523   5.568   5.464   6.681
14863SOL    HW246524   5.457   5.352   6.722
14864SOL     OW46525   5.020   5.492   6.704
14864SOL    HW146526   5.112   5.530   6.694
14864SOL    HW246527   5.026   5.392   6.707
14865SOL     OW46528   3.848   4.934   6.587
14865SOL    HW146529   3.816   4.974   6.673
14865SOL    HW246530   3.776   4.878   6.547
14866SOL     OW46531   4.429   5.407   7.358
14866SOL    HW146532   4.369   5.486   7.355
14866SOL    HW246533   4.505   5.421   7.295
14867SOL     OW46534   5.482   3.916   6.030
14867SOL    HW146535   5.562   3.888   5.977
14867SOL    HW246536   5.429   3.835   6.057
14868SOL     OW46537   5.158   5.316   6.083
14868SOL    HW146538   5.219   5.355   6.013
14868SOL    HW246539   5.093   5.386   6.112
14869SOL     OW46540   3.909   5.479   7.469
14869SOL    HW146541   3.848   5.415   7.515
14869SOL    HW246542   3.964   5.527   7.537
14870SOL     OW46543   5.007   4.661   6.210
14870SOL    HW146544   5.079   4.597   6.235
14870SOL    HW246545   5.048   4.744   6.173
14871SOL     OW46546   4.465   4.991   7.010
14871SOL    HW146547   4.443   5.053   7.086
14871SOL    HW246548   4.391   4.993   6.943
14872SOL     OW46549   4.400   5.413   5.762
14872SOL    HW146550   4.414   5.420   5.663
14872SOL    HW246551   4.353   5.328   5.784
14873SOL     OW46552   5.354   5.444   6.998
14873SOL    HW146553   5.407   5.439   6.914
14873SOL    HW246554   5.378   5.528   7.047
14874SOL     OW46555   5.532   3.893   6.613
14874SOL    HW146556   5.569   3.806   6.579
14874SOL    HW246557   5.448   3.915   6.564
14875SOL     OW46558   3.946   4.036   6.278
14875SOL    HW146559   3.861   4.081   6.252
14875SOL    HW246560   3.955   4.035   6.378
14876SOL     OW46561   4.944   5.287   5.655
14876SOL    HW146562   4.945   5.196   5.696
14876SOL    HW246563   4.861   5.300   5.602
14877SOL     OW46564   4.508   4.724   6.997
14877SOL    HW146565   4.554   4.707   6.910
14877SOL    HW246566   4.492   4.822   7.008
14878SOL     OW46567   4.659   4.570   5.755
14878SOL    HW146568   4.713   4.654   5.743
14878SOL    HW246569   4.693   4.519   5.834
14879SOL     OW46570   5.212   5.393   5.658
14879SOL    HW146571   5.122   5.353   5.645
14879SOL    HW246572   5.271   5.368   5.581
14880SOL     OW46573   4.065   5.028   7.064
14880SOL    HW146574   4.074   5.107   7.003
14880SOL    HW246575   3.980   4.979   7.042
14881SOL     OW46576   5.301   5.035   6.865
14881SOL    HW146577   5.359   5.002   6.940
14881SOL    HW246578   5.238   5.104   6.901
14882SOL     OW46579   4.877   4.829   6.388
14882SOL    HW146580   4.797   4.790   6.433
14882SOL    HW246581   4.914   4.763   6.323
14883SOL     OW46582   4.749   3.968   6.522
14883SOL    HW146583   4.745   3.922   6.434
14883SOL    HW246584   4.758   3.900   6.595
14884SOL     OW46585   4.394   5.179   6.025
14884SOL    HW146586   4.474   5.131   5.988
14884SOL    HW246587   4.325   5.189   5.953
14885SOL     OW46588   5.521   4.106   7.004
14885SOL    HW146589   5.592   4.171   6.976
14885SOL    HW246590   5.536   4.018   6.959
14886SOL     OW46591   3.978   5.080   5.835
14886SOL    HW146592   3.887   5.044   5.814
14886SOL    HW246593   3.972   5.140   5.915
14887SOL     OW46594   3.781   4.800   7.278
14887SOL    HW146595   3.710   4.787   7.346
14887SOL    HW246596   3.869   4.771   7.316
14888SOL     OW46597   3.818   4.052   5.574
14888SOL    HW146598   3.730   4.047   5.527
14888SOL    HW246599   3.859   4.141   5.559
14889SOL     OW46600   5.103   4.590   6.947
14889SOL    HW146601   5.044   4.650   6.893
14889SOL    HW246602   5.195   4.590   6.907
14890SOL     OW46603   3.771   3.831   5.773
14890SOL    HW146604   3.760   3.915   5.720
14890SOL    HW246605   3.861   3.792   5.754
14891SOL     OW46606   4.947   5.028   5.755
14891SOL    HW146607   4.902   4.939   5.748
14891SOL    HW246608   4.965   5.049   5.851
14892SOL     OW46609   4.341   4.520   7.068
14892SOL    HW146610   4.392   4.604   7.050
14892SOL    HW246611   4.404   4.443   7.075
14893SOL     OW46612   5.271   5.597   6.673
14893SOL    HW146613   5.298   5.651   6.593
14893SOL    HW246614   5.351   5.550   6.709
14894SOL     OW46615   4.498   4.219   7.308
14894SOL    HW146616   4.531   4.294   7.365
14894SOL    HW246617   4.496   4.135   7.361
14895SOL     OW46618   5.193   4.921   7.196
14895SOL    HW146619   5.195   4.930   7.295
14895SOL    HW246620   5.283   4.944   7.158
14896SOL     OW46621   4.099   5.485   7.197
14896SOL    HW146622   4.013   5.533   7.178
14896SOL    HW246623   4.079   5.391   7.225
14897SOL     OW46624   5.343   4.600   6.819
14897SOL    HW146625   5.351   4.516   6.765
14897SOL    HW246626   5.333   4.678   6.757
14898SOL     OW46627   4.945   4.036   6.042
14898SOL    HW146628   5.010   3.961   6.055
14898SOL    HW246629   4.944   4.093   6.124
14899SOL     OW46630   5.357   4.136   7.219
14899SOL    HW146631   5.418   4.130   7.140
14899SOL    HW246632   5.329   4.044   7.247
14900SOL     OW46633   5.502   4.601   7.044
14900SOL    HW146634   5.558   4.684   7.040
14900SOL    HW246635   5.446   4.594   6.961
14901SOL     OW46636   4.508   5.115   5.680
14901SOL    HW146637   4.554   5.098   5.767
14901SOL    HW246638   4.564   5.178   5.625
14902SOL     OW46639   4.399   5.400   6.562
14902SOL    HW146640   4.389   5.499   6.563
14902SOL    HW246641   4.479   5.373   6.615
14903SOL     OW46642   4.661   4.722   6.507
14903SOL    HW146643   4.680   4.625   6.521
14903SOL    HW246644   4.585   4.750   6.565
14904SOL     OW46645   4.835   4.783   5.689
14904SOL    HW146646   4.772   4.801   5.613
14904SOL    HW246647   4.902   4.714   5.660
14905SOL     OW46648   5.535   5.287   6.449
14905SOL    HW146649   5.472   5.274   6.373
14905SOL    HW246650   5.502   5.238   6.529
14906SOL     OW46651   3.979   5.036   7.450
14906SOL    HW146652   3.890   4.992   7.436
14906SOL    HW246653   3.994   5.048   7.548
14907SOL     OW46654   3.887   5.005   6.253
14907SOL    HW146655   3.918   4.957   6.335
14907SOL    HW246656   3.926   4.962   6.172
14908SOL     OW46657   4.388   5.157   7.215
14908SOL    HW146658   4.321   5.095   7.254
14908SOL    HW246659   4.398   5.237   7.275
14909SOL     OW46660   5.554   3.862   6.885
14909SOL    HW146661   5.627   3.793   6.887
14909SOL    HW246662   5.532   3.884   6.790
14910SOL     OW46663   4.127   4.161   6.108
14910SOL    HW146664   4.177   4.095   6.052
14910SOL    HW246665   4.068   4.112   6.172
14911SOL     OW46666   5.386   5.205   6.666
14911SOL    HW146667   5.310   5.199   6.601
14911SOL    HW246668   5.374   5.138   6.739
14912SOL     OW46669   4.086   4.260   6.792
14912SOL    HW146670   4.084   4.161   6.809
14912SOL    HW246671   4.086   4.276   6.693
14913SOL     OW46672   4.560   5.314   6.265
14913SOL    HW146673   4.523   5.384   6.204
14913SOL    HW246674   4.489   5.245   6.283
14914SOL     OW46675   5.124   3.981   6.698
14914SOL    HW146676   5.135   3.883   6.715
14914SOL    HW246677   5.074   4.022   6.774
14915SOL     OW46678   4.755   3.764   6.706
14915SOL    HW146679   4.660   3.731   6.713
14915SOL    HW246680   4.816   3.687   6.691
14916SOL     OW46681   4.615   5.048   5.922
14916SOL    HW146682   4.644   4.954   5.939
14916SOL    HW246683   4.674   5.111   5.974
14917SOL     OW46684   4.334   5.270   6.870
14917SOL    HW146685   4.341   5.343   6.938
14917SOL    HW246686   4.418   5.266   6.817
14918SOL     OW46687   5.066   3.739   5.803
14918SOL    HW146688   5.123   3.688   5.738
14918SOL    HW246689   4.975   3.699   5.806
14919SOL     OW46690   4.928   4.199   6.255
14919SOL    HW146691   4.894   4.293   6.250
14919SOL    HW246692   4.961   4.181   6.348
14920SOL     OW46693   5.297   3.942   6.490
14920SOL    HW146694   5.234   3.971   6.563
14920SOL    HW246695   5.300   4.011   6.419
14921SOL     OW46696   3.743   4.712   5.913
14921SOL    HW146697   3.841   4.698   5.903
14921SOL    HW246698   3.697   4.625   5.928
14922SOL     OW46699   4.634   5.438   5.923
14922SOL    HW146700   4.556   5.421   5.863
14922SOL    HW246701   4.610   5.507   5.990
14923SOL     OW46702   3.913   4.263   7.560
14923SOL    HW146703   3.827   4.295   7.599
14923SOL    HW246704   3.908   4.270   7.460
14924SOL     OW46705   3.926   4.005   8.443
14924SOL    HW146706   3.972   3.957   8.517
14924SOL    HW246707   3.829   3.981   8.441
14925SOL     OW46708   3.726   4.113   8.092
14925SOL    HW146709   3.645   4.139   8.146
14925SOL    HW246710   3.701   4.041   8.028
14926SOL     OW46711   4.293   5.032   8.679
14926SOL    HW146712   4.206   5.026   8.632
14926SOL    HW246713   4.312   5.127   8.703
14927SOL     OW46714   5.337   5.179   8.156
14927SOL    HW146715   5.287   5.144   8.235
14927SOL    HW246716   5.272   5.217   8.090
14928SOL     OW46717   4.851   4.454   8.114
14928SOL    HW146718   4.901   4.539   8.096
14928SOL    HW246719   4.807   4.460   8.203
14929SOL     OW46720   5.580   4.357   7.591
14929SOL    HW146721   5.507   4.360   7.522
14929SOL    HW246722   5.574   4.271   7.641
14930SOL     OW46723   4.439   4.868   8.516
14930SOL    HW146724   4.385   4.916   8.585
14930SOL    HW246725   4.483   4.936   8.457
14931SOL     OW46726   4.652   4.446   9.239
14931SOL    HW146727   4.683   4.515   9.304
14931SOL    HW246728   4.657   4.484   9.146
14932SOL     OW46729   4.439   4.683   8.091
14932SOL    HW146730   4.506   4.692   8.165
14932SOL    HW246731   4.366   4.750   8.104
14933SOL     OW46732   4.424   4.873   9.277
14933SOL    HW146733   4.487   4.939   9.318
14933SOL    HW246734   4.347   4.922   9.235
14934SOL     OW46735   4.067   5.096   8.531
14934SOL    HW146736   4.000   5.036   8.488
14934SOL    HW246737   4.107   5.156   8.462
14935SOL     OW46738   5.142   5.210   8.810
14935SOL    HW146739   5.195   5.294   8.823
14935SOL    HW246740   5.066   5.209   8.876
14936SOL     OW46741   4.165   4.078   8.871
14936SOL    HW146742   4.243   4.031   8.912
14936SOL    HW246743   4.080   4.034   8.902
14937SOL     OW46744   5.321   4.189   8.193
14937SOL    HW146745   5.299   4.216   8.099
14937SOL    HW246746   5.272   4.249   8.257
14938SOL     OW46747   3.986   5.425   7.954
14938SOL    HW146748   3.999   5.502   8.017
14938SOL    HW246749   4.066   5.416   7.895
14939SOL     OW46750   4.832   5.035   9.154
14939SOL    HW146751   4.883   5.024   9.239
14939SOL    HW246752   4.776   4.954   9.138
14940SOL     OW46753   3.958   5.149   7.975
14940SOL    HW146754   3.965   5.249   7.984
14940SOL    HW246755   3.907   5.112   8.052
14941SOL     OW46756   4.006   4.796   8.254
14941SOL    HW146757   4.023   4.700   8.277
14941SOL    HW246758   3.967   4.843   8.334
14942SOL     OW46759   4.249   5.521   8.849
14942SOL    HW146760   4.183   5.514   8.925
14942SOL    HW246761   4.322   5.585   8.875
14943SOL     OW46762   4.448   4.642   7.570
14943SOL    HW146763   4.439   4.722   7.510
14943SOL    HW246764   4.464   4.673   7.664
14944SOL     OW46765   5.454   3.804   8.979
14944SOL    HW146766   5.474   3.888   8.929
14944SOL    HW246767   5.396   3.825   9.058
14945SOL     OW46768   3.828   4.368   8.053
14945SOL    HW146769   3.795   4.275   8.069
14945SOL    HW246770   3.812   4.424   8.134
14946SOL     OW46771   5.576   5.418   7.802
14946SOL    HW146772   5.656   5.410   7.862
14946SOL    HW246773   5.566   5.513   7.773
14947SOL     OW46774   3.768   5.295   7.599
14947SOL    HW146775   3.747   5.198   7.611
14947SOL    HW246776   3.758   5.342   7.687
14948SOL     OW46777   5.422   4.590   8.088
14948SOL    HW146778   5.508   4.581   8.140
14948SOL    HW246779   5.436   4.652   8.011
14949SOL     OW46780   5.450   4.820   7.920
14949SOL    HW146781   5.531   4.807   7.864
14949SOL    HW246782   5.474   4.874   8.001
14950SOL     OW46783   3.828   4.547   9.021
14950SOL    HW146784   3.867   4.619   9.079
14950SOL    HW246785   3.744   4.580   8.979
14951SOL     OW46786   4.340   5.100   8.207
14951SOL    HW146787   4.307   5.008   8.185
14951SOL    HW246788   4.343   5.156   8.124
14952SOL     OW46789   4.952   4.915   8.864
14952SOL    HW146790   4.978   4.849   8.793
14952SOL    HW246791   5.026   4.921   8.932
14953SOL     OW46792   4.570   3.759   7.931
14953SOL    HW146793   4.612   3.845   7.903
14953SOL    HW246794   4.472   3.773   7.946
14954SOL     OW46795   3.945   4.694   8.747
14954SOL    HW146796   4.031   4.644   8.751
14954SOL    HW246797   3.904   4.684   8.656
14955SOL     OW46798   5.323   4.755   7.669
14955SOL    HW146799   5.257   4.682   7.688
14955SOL    HW246800   5.365   4.785   7.755
14956SOL     OW46801   4.916   5.503   8.964
14956SOL    HW146802   5.013   5.525   8.958
14956SOL    HW246803   4.905   5.403   8.972
14957SOL     OW46804   4.089   4.004   9.320
14957SOL    HW146805   4.130   4.081   9.371
14957SOL    HW246806   4.015   4.038   9.262
14958SOL     OW46807   5.207   5.081   8.372
14958SOL    HW146808   5.140   5.120   8.435
14958SOL    HW246809   5.182   4.986   8.353
14959SOL     OW46810   5.305   5.543   7.997
14959SOL    HW146811   5.313   5.480   7.919
14959SOL    HW246812   5.283   5.491   8.079
14960SOL     OW46813   4.323   4.415   7.674
14960SOL    HW146814   4.368   4.487   7.621
14960SOL    HW246815   4.263   4.457   7.742
14961SOL     OW46816   5.014   4.123   8.389
14961SOL    HW146817   4.932   4.069   8.372
14961SOL    HW246818   5.078   4.071   8.445
14962SOL     OW46819   5.306   5.368   7.783
14962SOL    HW146820   5.406   5.369   7.784
14962SOL    HW246821   5.273   5.360   7.689
14963SOL     OW46822   4.657   4.554   8.985
14963SOL    HW146823   4.680   4.475   8.928
14963SOL    HW246824   4.620   4.627   8.927
14964SOL     OW46825   4.776   4.425   7.854
14964SOL    HW146826   4.798   4.430   7.952
14964SOL    HW246827   4.684   4.386   7.842
14965SOL     OW46828   3.801   4.545   8.258
14965SOL    HW146829   3.893   4.534   8.296
14965SOL    HW246830   3.748   4.608   8.315
14966SOL     OW46831   3.825   5.612   9.068
14966SOL    HW146832   3.830   5.573   9.160
14966SOL    HW246833   3.730   5.636   9.047
14967SOL     OW46834   4.626   4.114   7.649
14967SOL    HW146835   4.694   4.169   7.599
14967SOL    HW246836   4.572   4.061   7.584
14968SOL     OW46837   5.501   4.329   9.243
14968SOL    HW146838   5.455   4.398   9.187
14968SOL    HW246839   5.495   4.240   9.199
14969SOL     OW46840   5.192   4.876   8.043
14969SOL    HW146841   5.275   4.847   7.996
14969SOL    HW246842   5.172   4.971   8.018
14970SOL     OW46843   4.274   3.893   8.380
14970SOL    HW146844   4.288   3.896   8.479
14970SOL    HW246845   4.279   3.986   8.343
14971SOL     OW46846   4.071   5.522   8.363
14971SOL    HW146847   4.114   5.431   8.361
14971SOL    HW246848   4.136   5.588   8.401
14972SOL     OW46849   5.547   4.805   8.359
14972SOL    HW146850   5.524   4.862   8.281
14972SOL    HW246851   5.468   4.799   8.421
14973SOL     OW46852   4.904   5.222   8.957
14973SOL    HW146853   4.897   5.158   9.034
14973SOL    HW246854   4.842   5.194   8.884
14974SOL     OW46855   5.184   4.484   8.137
14974SOL    HW146856   5.181   4.439   8.227
14974SOL    HW246857   5.274   4.525   8.124
14975SOL     OW46858   4.200   5.014   9.178
14975SOL    HW146859   4.169   5.021   9.083
14975SOL    HW246860   4.121   5.012   9.239
14976SOL     OW46861   4.837   5.528   7.566
14976SOL    HW146862   4.755   5.524   7.623
14976SOL    HW246863   4.872   5.435   7.552
14977SOL     OW46864   3.925   3.954   8.925
14977SOL    HW146865   3.901   4.029   8.986
14977SOL    HW246866   3.898   3.867   8.966
14978SOL     OW46867   5.380   5.096   7.551
14978SOL    HW146868   5.339   5.187   7.543
14978SOL    HW246869   5.315   5.028   7.519
14979SOL     OW46870   4.226   5.440   7.813
14979SOL    HW146871   4.265   5.512   7.871
14979SOL    HW246872   4.294   5.412   7.745
14980SOL     OW46873   5.129   3.823   7.899
14980SOL    HW146874   5.122   3.794   7.803
14980SOL    HW246875   5.212   3.786   7.939
14981SOL     OW46876   3.935   5.525   8.682
14981SOL    HW146877   3.992   5.449   8.715
14981SOL    HW246878   3.904   5.505   8.589
14982SOL     OW46879   4.643   5.393   8.356
14982SOL    HW146880   4.730   5.362   8.319
14982SOL    HW246881   4.592   5.315   8.391
14983SOL     OW46882   4.103   4.365   8.031
14983SOL    HW146883   4.131   4.270   8.017
14983SOL    HW246884   4.004   4.368   8.043
14984SOL     OW46885   5.284   3.894   9.180
14984SOL    HW146886   5.273   3.929   9.273
14984SOL    HW246887   5.201   3.845   9.153
14985SOL     OW46888   4.343   3.784   7.560
14985SOL    HW146889   4.377   3.695   7.589
14985SOL    HW246890   4.292   3.775   7.475
14986SOL     OW46891   4.496   3.987   9.205
14986SOL    HW146892   4.585   3.944   9.195
14986SOL    HW246893   4.447   3.945   9.282
14987SOL     OW46894   4.573   5.231   8.640
14987SOL    HW146895   4.553   5.182   8.555
14987SOL    HW246896   4.639   5.180   8.694
14988SOL     OW46897   4.947   4.333   8.872
14988SOL    HW146898   4.972   4.306   8.965
14988SOL    HW246899   4.999   4.414   8.846
14989SOL     OW46900   4.534   5.114   8.397
14989SOL    HW146901   4.623   5.096   8.357
14989SOL    HW246902   4.464   5.112   8.326
14990SOL     OW46903   4.702   4.211   8.308
14990SOL    HW146904   4.662   4.207   8.217
14990SOL    HW246905   4.726   4.119   8.338
14991SOL     OW46906   4.294   3.778   7.950
14991SOL    HW146907   4.218   3.768   8.015
14991SOL    HW246908   4.275   3.855   7.889
14992SOL     OW46909   5.193   4.904   7.476
14992SOL    HW146910   5.244   4.848   7.541
14992SOL    HW246911   5.095   4.893   7.492
14993SOL     OW46912   4.022   3.724   7.621
14993SOL    HW146913   4.064   3.803   7.577
14993SOL    HW246914   4.090   3.675   7.675
14994SOL     OW46915   4.708   3.990   7.875
14994SOL    HW146916   4.675   4.030   7.790
14994SOL    HW246917   4.806   4.005   7.884
14995SOL     OW46918   4.887   5.324   8.256
14995SOL    HW146919   4.919   5.369   8.173
14995SOL    HW246920   4.936   5.361   8.335
14996SOL     OW46921   4.233   4.865   8.117
14996SOL    HW146922   4.151   4.839   8.168
14996SOL    HW246923   4.208   4.882   8.022
14997SOL     OW46924   4.949   5.488   8.041
14997SOL    HW146925   4.993   5.549   7.975
14997SOL    HW246926   4.874   5.536   8.087
14998SOL     OW46927   4.788   4.272   7.501
14998SOL    HW146928   4.732   4.351   7.476
14998SOL    HW246929   4.861   4.301   7.564
14999SOL     OW46930   3.866   4.354   8.822
14999SOL    HW146931   3.962   4.336   8.801
14999SOL    HW246932   3.860   4.427   8.890
15000SOL     OW46933   4.295   3.899   8.649
15000SOL    HW146934   4.320   3.819   8.702
15000SOL    HW246935   4.197   3.918   8.662
15001SOL     OW46936   4.605   4.177   8.056
15001SOL    HW146937   4.561   4.239   7.992
15001SOL    HW246938   4.644   4.099   8.007
15002SOL     OW46939   4.743   3.777   8.151
15002SOL    HW146940   4.683   3.780   8.071
15002SOL    HW246941   4.710   3.706   8.214
15003SOL     OW46942   5.155   4.817   8.322
15003SOL    HW146943   5.093   4.741   8.340
15003SOL    HW246944   5.168   4.826   8.223
15004SOL     OW46945   5.174   4.351   8.379
15004SOL    HW146946   5.108   4.276   8.389
15004SOL    HW246947   5.245   4.342   8.448
15005SOL     OW46948   5.559   4.521   7.806
15005SOL    HW146949   5.609   4.476   7.880
15005SOL    HW246950   5.566   4.466   7.723
15006SOL     OW46951   4.242   5.130   7.666
15006SOL    HW146952   4.147   5.105   7.685
15006SOL    HW246953   4.303   5.067   7.714
15007SOL     OW46954   5.517   4.968   8.138
15007SOL    HW146955   5.613   4.992   8.123
15007SOL    HW246956   5.462   5.052   8.139
15008SOL     OW46957   5.116   4.331   7.497
15008SOL    HW146958   5.081   4.300   7.586
15008SOL    HW246959   5.216   4.323   7.496
15009SOL     OW46960   4.245   3.963   7.757
15009SOL    HW146961   4.285   3.902   7.689
15009SOL    HW246962   4.218   4.049   7.712
15010SOL     OW46963   5.430   4.982   8.979
15010SOL    HW146964   5.505   4.916   8.983
15010SOL    HW246965   5.463   5.072   9.009
15011SOL     OW46966   4.733   5.059   8.792
15011SOL    HW146967   4.647   5.032   8.836
15011SOL    HW246968   4.808   5.003   8.828
15012SOL     OW46969   5.327   5.350   9.090
15012SOL    HW146970   5.307   5.391   9.000
15012SOL    HW246971   5.413   5.300   9.086
15013SOL     OW46972   4.852   4.972   8.558
15013SOL    HW146973   4.792   5.005   8.631
15013SOL    HW246974   4.818   5.004   8.469
15014SOL     OW46975   5.331   4.801   8.534
15014SOL    HW146976   5.316   4.870   8.604
15014SOL    HW246977   5.260   4.809   8.463
15015SOL     OW46978   4.725   3.714   8.820
15015SOL    HW146979   4.734   3.712   8.721
15015SOL    HW246980   4.773   3.794   8.857
15016SOL     OW46981   4.668   4.800   9.157
15016SOL    HW146982   4.574   4.821   9.185
15016SOL    HW246983   4.669   4.724   9.094
15017SOL     OW46984   4.499   4.740   7.825
15017SOL    HW146985   4.477   4.707   7.917
15017SOL    HW246986   4.595   4.724   7.805
15018SOL     OW46987   4.177   4.550   8.746
15018SOL    HW146988   4.242   4.556   8.822
15018SOL    HW246989   4.153   4.454   8.730
15019SOL     OW46990   4.973   4.102   8.717
15019SOL    HW146991   4.973   4.185   8.773
15019SOL    HW246992   4.916   4.116   8.636
15020SOL     OW46993   3.776   5.265   8.792
15020SOL    HW146994   3.730   5.342   8.749
15020SOL    HW246995   3.875   5.276   8.785
15021SOL     OW46996   4.298   4.178   8.332
15021SOL    HW146997   4.312   4.192   8.234
15021SOL    HW246998   4.356   4.241   8.384
15022SOL     OW46999   5.040   5.168   8.566
15022SOL    HW147000   5.078   5.182   8.657
15022SOL    HW247001   4.975   5.092   8.568
15023SOL     OW47002   5.286   4.312   7.942
15023SOL    HW147003   5.221   4.367   7.994
15023SOL    HW247004   5.356   4.371   7.903
15024SOL     OW47005   4.049   5.265   8.742
15024SOL    HW147006   4.044   5.201   8.665
15024SOL    HW247007   4.145   5.290   8.758
15025SOL     OW47008   4.215   4.433   9.143
15025SOL    HW147009   4.249   4.487   9.066
15025SOL    HW247010   4.283   4.364   9.169
15026SOL     OW47011   5.370   4.531   9.114
15026SOL    HW147012   5.276   4.566   9.109
15026SOL    HW247013   5.418   4.552   9.029
15027SOL     OW47014   4.736   3.861   9.190
15027SOL    HW147015   4.800   3.938   9.182
15027SOL    HW247016   4.783   3.776   9.166
15028SOL     OW47017   4.224   3.785   9.232
15028SOL    HW147018   4.171   3.726   9.171
15028SOL    HW247019   4.172   3.868   9.252
15029SOL     OW47020   4.265   4.646   8.506
15029SOL    HW147021   4.322   4.728   8.506
15029SOL    HW247022   4.234   4.626   8.599
15030SOL     OW47023   5.012   4.582   8.415
15030SOL    HW147024   4.920   4.549   8.397
15030SOL    HW247025   5.077   4.507   8.405
15031SOL     OW47026   4.973   4.289   7.729
15031SOL    HW147027   4.984   4.201   7.776
15031SOL    HW247028   4.902   4.343   7.775
15032SOL     OW47029   4.014   3.878   8.672
15032SOL    HW147030   3.991   3.914   8.763
15032SOL    HW247031   4.016   3.778   8.675
15033SOL     OW47032   3.796   5.005   8.703
15033SOL    HW147033   3.822   4.951   8.783
15033SOL    HW247034   3.777   5.099   8.730
15034SOL     OW47035   4.408   4.427   8.430
15034SOL    HW147036   4.400   4.424   8.330
15034SOL    HW247037   4.354   4.504   8.465
15035SOL     OW47038   5.513   4.682   9.295
15035SOL    HW147039   5.469   4.620   9.230
15035SOL    HW247040   5.445   4.718   9.359
15036SOL     OW47041   4.053   3.745   8.095
15036SOL    HW147042   4.013   3.837   8.100
15036SOL    HW247043   4.058   3.706   8.187
15037SOL     OW47044   5.328   4.072   7.812
15037SOL    HW147045   5.362   4.009   7.882
15037SOL    HW247046   5.294   4.155   7.855
15038SOL     OW47047   4.757   4.467   8.378
15038SOL    HW147048   4.718   4.487   8.468
15038SOL    HW247049   4.737   4.372   8.354
15039SOL     OW47050   4.713   5.266   9.240
15039SOL    HW147051   4.671   5.323   9.169
15039SOL    HW247052   4.748   5.182   9.199
15040SOL     OW47053   5.563   5.220   9.030
15040SOL    HW147054   5.584   5.249   8.936
15040SOL    HW247055   5.645   5.228   9.086
15041SOL     OW47056   4.098   4.638   9.289
15041SOL    HW147057   4.164   4.669   9.358
15041SOL    HW247058   4.137   4.560   9.239
15042SOL     OW47059   5.239   3.950   7.567
15042SOL    HW147060   5.180   3.874   7.594
15042SOL    HW247061   5.265   4.003   7.647
15043SOL     OW47062   5.030   4.583   7.452
15043SOL    HW147063   5.051   4.486   7.460
15043SOL    HW247064   5.054   4.614   7.360
15044SOL     OW47065   4.784   5.075   8.314
15044SOL    HW147066   4.803   4.995   8.256
15044SOL    HW247067   4.835   5.154   8.280
15045SOL     OW47068   4.054   4.535   8.365
15045SOL    HW147069   4.132   4.579   8.409
15045SOL    HW247070   4.059   4.436   8.379
15046SOL     OW47071   4.054   4.246   8.441
15046SOL    HW147072   3.998   4.163   8.438
15046SOL    HW247073   4.142   4.228   8.397
15047SOL     OW47074   4.891   4.086   9.139
15047SOL    HW147075   4.819   4.127   9.195
15047SOL    HW247076   4.980   4.109   9.176
15048SOL     OW47077   4.895   3.918   8.913
15048SOL    HW147078   4.889   3.975   8.995
15048SOL    HW247079   4.928   3.972   8.836
15049SOL     OW47080   3.722   5.015   7.641
15049SOL    HW147081   3.635   5.049   7.604
15049SOL    HW247082   3.711   4.920   7.670
15050SOL     OW47083   3.811   5.485   8.432
15050SOL    HW147084   3.763   5.415   8.378
15050SOL    HW247085   3.903   5.497   8.394
15051SOL     OW47086   4.201   5.273   8.367
15051SOL    HW147087   4.270   5.340   8.395
15051SOL    HW247088   4.242   5.207   8.304
15052SOL     OW47089   4.614   4.503   8.604
15052SOL    HW147090   4.638   4.445   8.683
15052SOL    HW247091   4.537   4.463   8.556
15053SOL     OW47092   3.810   4.360   8.555
15053SOL    HW147093   3.891   4.329   8.505
15053SOL    HW247094   3.830   4.362   8.653
15054SOL     OW47095   3.957   4.357   9.171
15054SOL    HW147096   4.054   4.379   9.158
15054SOL    HW247097   3.901   4.420   9.116
15055SOL     OW47098   5.126   4.646   9.064
15055SOL    HW147099   5.140   4.745   9.058
15055SOL    HW247100   5.102   4.610   8.974
15056SOL     OW47101   4.533   4.306   7.817
15056SOL    HW147102   4.562   4.230   7.759
15056SOL    HW247103   4.452   4.349   7.776
15057SOL     OW47104   5.370   4.313   8.567
15057SOL    HW147105   5.343   4.233   8.620
15057SOL    HW247106   5.470   4.318   8.562
15058SOL     OW47107   3.937   5.269   9.173
15058SOL    HW147108   3.917   5.344   9.236
15058SOL    HW247109   3.954   5.186   9.225
15059SOL     OW47110   4.591   5.389   9.015
15059SOL    HW147111   4.540   5.312   8.978
15059SOL    HW247112   4.623   5.448   8.941
15060SOL     OW47113   4.169   4.184   7.613
15060SOL    HW147114   4.233   4.260   7.627
15060SOL    HW247115   4.076   4.220   7.603
15061SOL     OW47116   3.866   4.866   8.936
15061SOL    HW147117   3.878   4.833   9.029
15061SOL    HW247118   3.896   4.796   8.871
15062SOL     OW47119   4.981   4.745   8.635
15062SOL    HW147120   4.998   4.686   8.557
15062SOL    HW247121   4.933   4.828   8.605
15063SOL     OW47122   5.127   4.571   7.710
15063SOL    HW147123   5.094   4.486   7.751
15063SOL    HW247124   5.090   4.579   7.617
15064SOL     OW47125   5.466   5.411   8.603
15064SOL    HW147126   5.534   5.448   8.539
15064SOL    HW247127   5.442   5.318   8.575
15065SOL     OW47128   4.996   5.423   8.484
15065SOL    HW147129   5.084   5.471   8.483
15065SOL    HW247130   5.009   5.331   8.521
15066SOL     OW47131   3.865   4.909   8.460
15066SOL    HW147132   3.840   4.945   8.550
15066SOL    HW247133   3.789   4.856   8.423
15067SOL     OW47134   4.392   5.435   9.200
15067SOL    HW147135   4.335   5.517   9.193
15067SOL    HW247136   4.472   5.445   9.140
15068SOL     OW47137   5.492   3.911   7.984
15068SOL    HW147138   5.587   3.881   7.975
15068SOL    HW247139   5.433   3.831   8.002
15069SOL     OW47140   5.148   5.284   7.992
15069SOL    HW147141   5.193   5.303   7.906
15069SOL    HW247142   5.069   5.345   8.003
15070SOL     OW47143   3.863   5.498   9.312
15070SOL    HW147144   3.804   5.437   9.365
15070SOL    HW247145   3.905   5.565   9.372
15071SOL     OW47146   5.007   4.676   8.080
15071SOL    HW147147   5.071   4.601   8.098
15071SOL    HW247148   5.058   4.755   8.045
15072SOL     OW47149   4.479   5.000   8.883
15072SOL    HW147150   4.458   5.059   8.962
15072SOL    HW247151   4.406   5.007   8.816
15073SOL     OW47152   4.398   5.341   7.621
15073SOL    HW147153   4.410   5.362   7.524
15073SOL    HW247154   4.336   5.264   7.631
15074SOL     OW47155   5.292   5.443   8.827
15074SOL    HW147156   5.356   5.427   8.751
15074SOL    HW247157   5.275   5.541   8.834
15075SOL     OW47158   5.594   3.887   8.386
15075SOL    HW147159   5.615   3.793   8.358
15075SOL    HW247160   5.502   3.911   8.355
15076SOL     OW47161   3.963   3.996   8.162
15076SOL    HW147162   3.879   4.041   8.133
15076SOL    HW247163   3.967   3.992   8.262
15077SOL     OW47164   4.938   5.273   7.520
15077SOL    HW147165   4.936   5.190   7.576
15077SOL    HW247166   4.866   5.267   7.450
15078SOL     OW47167   4.530   4.736   8.831
15078SOL    HW147168   4.551   4.728   8.733
15078SOL    HW247169   4.514   4.832   8.854
15079SOL     OW47170   4.753   4.682   7.759
15079SOL    HW147171   4.829   4.713   7.702
15079SOL    HW247172   4.771   4.589   7.791
15080SOL     OW47173   5.210   5.345   7.521
15080SOL    HW147174   5.116   5.312   7.513
15080SOL    HW247175   5.252   5.347   7.430
15081SOL     OW47176   4.080   5.048   8.940
15081SOL    HW147177   4.069   5.126   8.878
15081SOL    HW247178   4.002   4.987   8.929
15082SOL     OW47179   5.306   4.998   8.734
15082SOL    HW147180   5.360   4.980   8.816
15082SOL    HW247181   5.237   5.067   8.754
15083SOL     OW47182   4.812   4.841   8.187
15083SOL    HW147183   4.735   4.788   8.223
15083SOL    HW247184   4.877   4.780   8.143
15084SOL     OW47185   4.799   3.951   8.366
15084SOL    HW147186   4.784   3.906   8.277
15084SOL    HW247187   4.789   3.884   8.439
15085SOL     OW47188   4.332   5.223   7.969
15085SOL    HW147189   4.356   5.145   7.911
15085SOL    HW247190   4.280   5.289   7.915
15086SOL     OW47191   5.532   4.048   8.863
15086SOL    HW147192   5.594   4.126   8.856
15086SOL    HW247193   5.542   3.990   8.782
15087SOL     OW47194   3.979   5.065   7.722
15087SOL    HW147195   3.884   5.043   7.696
15087SOL    HW247196   3.981   5.097   7.817
15088SOL     OW47197   3.881   4.766   9.195
15088SOL    HW147198   3.799   4.746   9.247
15088SOL    HW247199   3.960   4.720   9.236
15089SOL     OW47200   4.377   3.926   8.967
15089SOL    HW147201   4.435   3.965   8.896
15089SOL    HW247202   4.415   3.946   9.057
15090SOL     OW47203   3.800   4.017   7.516
15090SOL    HW147204   3.721   4.035   7.457
15090SOL    HW247205   3.841   4.103   7.545
15091SOL     OW47206   5.087   4.559   8.805
15091SOL    HW147207   5.035   4.625   8.752
15091SOL    HW247208   5.181   4.554   8.770
15092SOL     OW47209   3.791   3.827   7.714
15092SOL    HW147210   3.772   3.896   7.644
15092SOL    HW247211   3.880   3.785   7.695
15093SOL     OW47212   4.364   4.548   8.942
15093SOL    HW147213   4.413   4.627   8.906
15093SOL    HW247214   4.429   4.482   8.980
15094SOL     OW47215   5.240   5.534   8.484
15094SOL    HW147216   5.256   5.627   8.453
15094SOL    HW247217   5.321   5.499   8.531
15095SOL     OW47218   4.436   4.272   9.176
15095SOL    HW147219   4.512   4.327   9.212
15095SOL    HW247220   4.457   4.175   9.186
15096SOL     OW47221   5.170   4.913   9.047
15096SOL    HW147222   5.160   4.929   9.145
15096SOL    HW247223   5.261   4.943   9.018
15097SOL     OW47224   4.064   5.487   9.047
15097SOL    HW147225   3.977   5.536   9.038
15097SOL    HW247226   4.046   5.393   9.079
15098SOL     OW47227   5.333   4.567   8.681
15098SOL    HW147228   5.351   4.484   8.629
15098SOL    HW247229   5.336   4.646   8.620
15099SOL     OW47230   4.977   4.060   7.893
15099SOL    HW147231   5.037   3.980   7.896
15099SOL    HW247232   4.986   4.112   7.977
15100SOL     OW47233   4.338   4.436   8.167
15100SOL    HW147234   4.379   4.517   8.125
15100SOL    HW247235   4.253   4.414   8.119
15101SOL     OW47236   5.483   4.082   9.130
15101SOL    HW147237   5.499   4.076   9.031
15101SOL    HW247238   5.407   4.020   9.154
15102SOL     OW47239   5.501   4.602   8.892
15102SOL    HW147240   5.542   4.693   8.893
15102SOL    HW247241   5.443   4.592   8.811
15103SOL     OW47242   4.543   5.114   7.505
15103SOL    HW147243   4.510   5.176   7.576
15103SOL    HW247244   4.611   5.162   7.448
15104SOL     OW47245   4.377   5.472   8.406
15104SOL    HW147246   4.349   5.567   8.419
15104SOL    HW247247   4.475   5.468   8.386
15105SOL     OW47248   4.606   4.699   8.311
15105SOL    HW147249   4.651   4.613   8.333
15105SOL    HW247250   4.557   4.733   8.391
15106SOL     OW47251   4.921   4.822   7.519
15106SOL    HW147252   4.839   4.835   7.462
15106SOL    HW247253   4.961   4.733   7.502
15107SOL     OW47254   5.536   5.282   8.316
15107SOL    HW147255   5.475   5.261   8.240
15107SOL    HW247256   5.513   5.224   8.394
15108SOL     OW47257   3.955   5.019   9.303
15108SOL    HW147258   3.929   4.935   9.256
15108SOL    HW247259   3.887   5.040   9.374
15109SOL     OW47260   3.812   4.921   8.091
15109SOL    HW147261   3.876   4.874   8.152
15109SOL    HW247262   3.835   4.900   7.996
15110SOL     OW47263   4.402   5.174   9.087
15110SOL    HW147264   4.328   5.117   9.122
15110SOL    HW247265   4.398   5.264   9.130
15111SOL     OW47266   5.569   3.878   8.660
15111SOL    HW147267   5.634   3.804   8.676
15111SOL    HW247268   5.569   3.901   8.562
15112SOL     OW47269   4.159   4.106   7.998
15112SOL    HW147270   4.186   4.051   7.919
15112SOL    HW247271   4.093   4.054   8.053
15113SOL     OW47272   5.417   5.155   8.528
15113SOL    HW147273   5.342   5.130   8.467
15113SOL    HW247274   5.417   5.095   8.608
15114SOL     OW47275   4.110   4.291   8.715
15114SOL    HW147276   4.139   4.213   8.769
15114SOL    HW247277   4.100   4.263   8.619
15115SOL     OW47278   5.175   3.989   8.564
15115SOL    HW147279   5.195   3.892   8.575
15115SOL    HW247280   5.116   4.020   8.638
15116SOL     OW47281   4.781   3.719   8.533
15116SOL    HW147282   4.715   3.660   8.487
15116SOL    HW247283   4.873   3.680   8.525
15117SOL     OW47284   4.424   5.004   7.826
15117SOL    HW147285   4.443   4.906   7.820
15117SOL    HW247286   4.508   5.054   7.845
15118SOL     OW47287   4.328   5.292   8.740
15118SOL    HW147288   4.310   5.384   8.777
15118SOL    HW247289   4.421   5.290   8.702
15119SOL     OW47290   5.101   3.726   7.643
15119SOL    HW147291   5.153   3.660   7.588
15119SOL    HW247292   5.008   3.693   7.656
15120SOL     OW47293   4.991   4.210   8.118
15120SOL    HW147294   4.939   4.296   8.112
15120SOL    HW247295   4.996   4.180   8.213
15121SOL     OW47296   5.336   3.955   8.341
15121SOL    HW147297   5.282   3.981   8.421
15121SOL    HW247298   5.331   4.027   8.273
15122SOL     OW47299   3.737   4.755   7.769
15122SOL    HW147300   3.817   4.753   7.709
15122SOL    HW247301   3.711   4.662   7.794
15123SOL     OW47302   4.598   5.513   7.707
15123SOL    HW147303   4.535   5.438   7.688
15123SOL    HW247304   4.592   5.538   7.804
15124SOL     OW47305   3.933   4.317   9.441
15124SOL    HW147306   3.842   4.282   9.463
15124SOL    HW247307   3.938   4.340   9.344
15125SOL     OW47308   5.445   4.394   9.494
15125SOL    HW147309   5.478   4.374   9.402
15125SOL    HW247310   5.428   4.308   9.543
15126SOL     OW47311   3.910   5.498   9.767
15126SOL    HW147312   3.932   5.567   9.836
15126SOL    HW247313   3.987   5.489   9.704
15127SOL     OW47314   3.880   5.250   9.874
15127SOL    HW147315   3.888   5.343   9.840
15127SOL    HW247316   3.847   5.251   9.969
15128SOL     OW47317   4.297   4.715   9.470
15128SOL    HW147318   4.342   4.761   9.393
15128SOL    HW247319   4.345   4.737   9.555
15129SOL     OW47320   3.720   4.410   9.824
15129SOL    HW147321   3.634   4.407   9.773
15129SOL    HW247322   3.712   4.476   9.899
15130SOL     OW47323   5.594   5.500   9.583
15130SOL    HW147324   5.674   5.487   9.642
15130SOL    HW247325   5.600   5.589   9.538
15131SOL     OW47326   3.731   5.331   9.468
15131SOL    HW147327   3.731   5.233   9.487
15131SOL    HW247328   3.694   5.380   9.546
15132SOL     OW47329   5.382   4.621   9.862
15132SOL    HW147330   5.472   4.636   9.902
15132SOL    HW247331   5.360   4.697   9.801
15133SOL     OW47332   5.373   4.835   9.694
15133SOL    HW147333   5.472   4.840   9.682
15133SOL    HW247334   5.338   4.926   9.716
15134SOL     OW47335   4.292   5.129   9.989
15134SOL    HW147336   4.251   5.039   0.003
15134SOL    HW247337   4.315   5.140   9.892
15135SOL     OW47338   4.526   3.776   9.843
15135SOL    HW147339   4.579   3.852   9.805
15135SOL    HW247340   4.428   3.798   9.839
15136SOL     OW47341   5.291   4.730   9.457
15136SOL    HW147342   5.257   4.637   9.466
15136SOL    HW247343   5.315   4.766   9.548
15137SOL     OW47344   4.328   4.439   9.557
15137SOL    HW147345   4.329   4.527   9.510
15137SOL    HW247346   4.278   4.448   9.644
15138SOL     OW47347   5.334   5.416   9.585
15138SOL    HW147348   5.429   5.445   9.586
15138SOL    HW247349   5.311   5.382   9.494
15139SOL     OW47350   4.774   4.406   9.746
15139SOL    HW147351   4.805   4.359   9.829
15139SOL    HW247352   4.684   4.372   9.720
15140SOL     OW47353   3.700   4.579   0.036
15140SOL    HW147354   3.712   4.554   0.132
15140SOL    HW247355   3.740   4.670   0.020
15141SOL     OW47356   4.567   4.065   9.508
15141SOL    HW147357   4.619   4.101   9.430
15141SOL    HW247358   4.505   3.993   9.476
15142SOL     OW47359   5.032   4.846   9.827
15142SOL    HW147360   5.057   4.856   9.923
15142SOL    HW247361   5.024   4.749   9.804
15143SOL     OW47362   4.063   5.568   0.179
15143SOL    HW147363   4.077   5.470   0.168
15143SOL    HW247364   4.151   5.614   0.186
15144SOL     OW47365   4.044   4.714   9.619
15144SOL    HW147366   4.131   4.711   9.570
15144SOL    HW247367   4.013   4.620   9.638
15145SOL     OW47368   4.938   5.428   9.643
15145SOL    HW147369   4.845   5.423   9.682
15145SOL    HW247370   4.939   5.381   9.555
15146SOL     OW47371   5.366   5.084   9.408
15146SOL    HW147372   5.333   5.177   9.393
15146SOL    HW247373   5.299   5.019   9.373
15147SOL     OW47374   4.150   5.528   9.635
15147SOL    HW147375   4.202   5.559   9.715
15147SOL    HW247376   4.212   5.481   9.572
15148SOL     OW47377   5.183   3.896   9.744
15148SOL    HW147378   5.166   3.846   9.660
15148SOL    HW247379   5.281   3.914   9.754
15149SOL     OW47380   4.182   4.448   9.785
15149SOL    HW147381   4.200   4.357   9.821
15149SOL    HW247382   4.088   4.454   9.753
15150SOL     OW47383   4.391   3.853   9.440
15150SOL    HW147384   4.431   3.768   9.476
15150SOL    HW247385   4.322   3.830   9.371
15151SOL     OW47386   4.244   3.835   9.848
15151SOL    HW147387   4.151   3.834   9.883
15151SOL    HW247388   4.252   3.902   9.775
15152SOL     OW47389   5.156   4.926   9.319
15152SOL    HW147390   5.195   4.846   9.365
15152SOL    HW247391   5.068   4.948   9.361
15153SOL     OW47392   3.966   3.824   9.483
15153SOL    HW147393   4.012   3.894   9.429
15153SOL    HW247394   4.034   3.774   9.538
15154SOL     OW47395   4.673   3.981   9.743
15154SOL    HW147396   4.640   4.010   9.653
15154SOL    HW247397   4.772   3.990   9.746
15155SOL     OW47398   4.141   4.908   0.069
15155SOL    HW147399   4.088   4.965   0.131
15155SOL    HW247400   4.091   4.898   9.983
15156SOL     OW47401   5.075   5.515   9.954
15156SOL    HW147402   5.075   5.590   9.888
15156SOL    HW247403   4.990   5.463   9.946
15157SOL     OW47404   4.731   4.201   9.326
15157SOL    HW147405   4.704   4.293   9.297
15157SOL    HW247406   4.786   4.207   9.409
15158SOL     OW47407   4.580   4.155   9.930
15158SOL    HW147408   4.519   4.221   9.885
15158SOL    HW247409   4.609   4.087   9.863
15159SOL     OW47410   5.654   4.522   9.617
15159SOL    HW147411   5.653   4.477   9.706
15159SOL    HW247412   5.574   4.493   9.564
15160SOL     OW47413   4.192   5.167   9.519
15160SOL    HW147414   4.110   5.154   9.575
15160SOL    HW247415   4.186   5.109   9.438
15161SOL     OW47416   4.263   4.004   9.641
15161SOL    HW147417   4.311   3.948   9.575
15161SOL    HW247418   4.226   4.085   9.596
15162SOL     OW47419   4.444   4.766   9.692
15162SOL    HW147420   4.398   4.733   9.774
15162SOL    HW247421   4.529   4.716   9.678
15163SOL     OW47422   4.008   4.894   9.826
15163SOL    HW147423   3.999   4.980   9.775
15163SOL    HW247424   4.031   4.820   9.763
15164SOL     OW47425   5.012   5.062   9.666
15164SOL    HW147426   5.073   5.134   9.699
15164SOL    HW247427   5.018   4.982   9.727
15165SOL     OW47428   5.352   4.351   9.833
15165SOL    HW147429   5.288   4.312   9.900
15165SOL    HW247430   5.348   4.451   9.838
15166SOL     OW47431   4.859   4.218   9.562
15166SOL    HW147432   4.897   4.145   9.619
15166SOL    HW247433   4.831   4.295   9.620
15167SOL     OW47434   3.994   3.821   9.955
15167SOL    HW147435   3.919   3.886   9.964
15167SOL    HW247436   4.008   3.774   0.042
15168SOL     OW47437   5.361   4.169   9.629
15168SOL    HW147438   5.403   4.087   9.665
15168SOL    HW247439   5.347   4.235   9.703
15169SOL     OW47440   5.227   4.007   9.427
15169SOL    HW147441   5.185   3.924   9.465
15169SOL    HW247442   5.273   4.058   9.501
15170SOL     OW47443   5.020   4.634   9.318
15170SOL    HW147444   5.086   4.579   9.369
15170SOL    HW247445   5.051   4.643   9.223
15171SOL     OW47446   3.752   5.053   9.488
15171SOL    HW147447   3.663   5.069   9.446
15171SOL    HW247448   3.757   4.958   9.520
15172SOL     OW47449   4.542   4.298   9.659
15172SOL    HW147450   4.549   4.213   9.607
15172SOL    HW247451   4.467   4.353   9.623
15173SOL     OW47452   4.178   4.213   9.486
15173SOL    HW147453   4.244   4.287   9.499
15173SOL    HW247454   4.086   4.251   9.477
15174SOL     OW47455   5.003   4.572   9.745
15174SOL    HW147456   4.919   4.519   9.739
15174SOL    HW247457   5.051   4.570   9.657
15175SOL     OW47458   5.465   3.942   9.729
15175SOL    HW147459   5.528   3.925   9.652
15175SOL    HW247460   5.512   3.923   9.815
15176SOL     OW47461   5.169   5.276   9.755
15176SOL    HW147462   5.242   5.314   9.699
15176SOL    HW247463   5.088   5.335   9.750
15177SOL     OW47464   4.321   5.407   9.463
15177SOL    HW147465   4.352   5.408   9.368
15177SOL    HW247466   4.281   5.318   9.484
15178SOL     OW47467   4.945   5.297   9.397
15178SOL    HW147468   4.952   5.198   9.412
15178SOL    HW247469   4.866   5.316   9.339
15179SOL     OW47470   4.677   4.646   9.640
15179SOL    HW147471   4.708   4.654   9.545
15179SOL    HW247472   4.711   4.560   9.678
15180SOL     OW47473   5.236   5.323   9.348
15180SOL    HW147474   5.136   5.326   9.353
15180SOL    HW247475   5.265   5.339   9.254
15181SOL     OW47476   4.369   5.161   9.732
15181SOL    HW147477   4.448   5.105   9.705
15181SOL    HW247478   4.305   5.167   9.655
15182SOL     OW47479   3.963   5.113   9.661
15182SOL    HW147480   3.884   5.096   9.602
15182SOL    HW247481   3.934   5.166   9.741
15183SOL     OW47482   3.884   4.101   9.165
15183SOL    HW147483   3.784   4.098   9.174
15183SOL    HW247484   3.915   4.196   9.166
15184SOL     OW47485   3.704   3.874   9.561
15184SOL    HW147486   3.649   3.919   9.490
15184SOL    HW247487   3.799   3.868   9.530
15185SOL     OW47488   4.911   5.017   9.423
15185SOL    HW147489   4.814   4.993   9.428
15185SOL    HW247490   4.947   5.028   9.516
15186SOL     OW47491   4.942   4.049   9.761
15186SOL    HW147492   5.031   4.003   9.766
15186SOL    HW247493   4.931   4.110   9.839
15187SOL     OW47494   4.317   4.654   9.901
15187SOL    HW147495   4.307   4.655   0.001
15187SOL    HW247496   4.265   4.577   9.863
15188SOL     OW47497   4.607   5.044   9.393
15188SOL    HW147498   4.593   5.045   9.492
15188SOL    HW247499   4.626   5.136   9.361
15189SOL     OW47500   4.760   4.662   9.378
15189SOL    HW147501   4.724   4.727   9.312
15189SOL    HW247502   4.859   4.651   9.364
15190SOL     OW47503   3.782   4.832   9.967
15190SOL    HW147504   3.768   4.899   0.040
15190SOL    HW247505   3.865   4.854   9.917
15191SOL     OW47506   4.221   4.197   9.865
15191SOL    HW147507   4.233   4.115   9.808
15191SOL    HW247508   4.178   4.171   9.951
15192SOL     OW47509   4.579   5.001   9.664
15192SOL    HW147510   4.525   4.918   9.671
15192SOL    HW247511   4.664   4.990   9.716
15193SOL     OW47512   5.124   3.767   9.512
15193SOL    HW147513   5.172   3.695   9.463
15193SOL    HW247514   5.034   3.734   9.539
15194SOL     OW47515   3.791   4.793   9.553
15194SOL    HW147516   3.885   4.766   9.575
15194SOL    HW247517   3.757   4.738   9.477
15195SOL     OW47518   4.674   5.391   9.805
15195SOL    HW147519   4.611   5.318   9.778
15195SOL    HW247520   4.622   5.475   9.821
15196SOL     OW47521   3.837   6.105   0.053
15196SOL    HW147522   3.764   6.144   0.109
15196SOL    HW247523   3.854   6.163   9.973
15197SOL     OW47524   3.916   5.895   1.003
15197SOL    HW147525   3.959   5.863   1.087
15197SOL    HW247526   3.823   5.858   0.997
15198SOL     OW47527   3.709   6.035   0.613
15198SOL    HW147528   3.623   6.044   0.662
15198SOL    HW247529   3.700   5.967   0.540
15199SOL     OW47530   4.295   6.930   1.239
15199SOL    HW147531   4.201   6.916   1.208
15199SOL    HW247532   4.315   7.028   1.242
15200SOL     OW47533   5.321   7.084   0.701
15200SOL    HW147534   5.280   7.061   0.790
15200SOL    HW247535   5.250   7.116   0.639
15201SOL     OW47536   4.872   6.238   0.656
15201SOL    HW147537   4.905   6.328   0.686
15201SOL    HW247538   4.811   6.200   0.725
15202SOL     OW47539   5.399   6.190   0.198
15202SOL    HW147540   5.318   6.199   0.140
15202SOL    HW247541   5.389   6.111   0.257
15203SOL     OW47542   4.432   6.735   1.117
15203SOL    HW147543   4.379   6.800   1.170
15203SOL    HW247544   4.484   6.784   1.046
15204SOL     OW47545   4.649   6.341   1.843
15204SOL    HW147546   4.640   6.386   1.932
15204SOL    HW247547   4.672   6.409   1.773
15205SOL     OW47548   4.396   6.494   0.587
15205SOL    HW147549   4.465   6.507   0.659
15205SOL    HW247550   4.314   6.547   0.609
15206SOL     OW47551   4.416   6.739   1.862
15206SOL    HW147552   4.443   6.817   1.918
15206SOL    HW247553   4.347   6.767   1.795
15207SOL     OW47554   4.050   6.971   1.102
15207SOL    HW147555   3.975   6.912   1.071
15207SOL    HW247556   4.097   7.010   1.023
15208SOL     OW47557   5.272   7.110   1.278
15208SOL    HW147558   5.307   7.199   1.249
15208SOL    HW247559   5.261   7.109   1.377
15209SOL     OW47560   4.179   5.965   1.448
15209SOL    HW147561   4.236   5.905   1.392
15209SOL    HW247562   4.090   5.922   1.463
15210SOL     OW47563   5.319   5.987   0.764
15210SOL    HW147564   5.241   5.986   0.702
15210SOL    HW247565   5.311   6.063   0.828
15211SOL     OW47566   4.819   6.940   1.774
15211SOL    HW147567   4.871   6.917   1.856
15211SOL    HW247568   4.762   6.861   1.748
15212SOL     OW47569   4.055   6.711   0.915
15212SOL    HW147570   4.125   6.658   0.964
15212SOL    HW247571   3.974   6.721   0.974
15213SOL     OW47572   4.252   7.430   1.365
15213SOL    HW147573   4.186   7.411   1.438
15213SOL    HW247574   4.339   7.458   1.406
15214SOL     OW47575   5.325   5.808   1.382
15214SOL    HW147576   5.379   5.892   1.379
15214SOL    HW247577   5.293   5.792   1.475
15215SOL     OW47578   3.837   6.308   0.568
15215SOL    HW147579   3.801   6.215   0.572
15215SOL    HW247580   3.840   6.346   0.661
15216SOL     OW47581   5.626   7.291   0.340
15216SOL    HW147582   5.707   7.271   0.395
15216SOL    HW247583   5.629   7.387   0.310
15217SOL     OW47584   3.785   7.135   0.296
15217SOL    HW147585   3.746   7.064   0.237
15217SOL    HW247586   3.721   7.211   0.302
15218SOL     OW47587   5.441   6.482   0.680
15218SOL    HW147588   5.534   6.447   0.682
15218SOL    HW247589   5.427   6.536   0.597
15219SOL     OW47590   5.407   6.648   0.467
15219SOL    HW147591   5.488   6.654   0.409
15219SOL    HW247592   5.409   6.723   0.533
15220SOL     OW47593   3.836   6.330   1.560
15220SOL    HW147594   3.927   6.364   1.582
15220SOL    HW247595   3.773   6.407   1.547
15221SOL     OW47596   4.325   6.900   0.729
15221SOL    HW147597   4.281   6.813   0.707
15221SOL    HW247598   4.345   6.950   0.645
15222SOL     OW47599   4.975   6.838   1.334
15222SOL    HW147600   4.985   6.755   1.279
15222SOL    HW247601   5.029   6.830   1.418
15223SOL     OW47602   4.541   5.638   0.519
15223SOL    HW147603   4.595   5.710   0.475
15223SOL    HW247604   4.445   5.665   0.521
15224SOL     OW47605   3.943   6.530   1.338
15224SOL    HW147606   4.033   6.495   1.313
15224SOL    HW247607   3.872   6.472   1.298
15225SOL     OW47608   5.160   6.622   0.357
15225SOL    HW147609   5.135   6.527   0.341
15225SOL    HW247610   5.255   6.626   0.391
15226SOL     OW47611   4.855   7.415   1.641
15226SOL    HW147612   4.925   7.470   1.596
15226SOL    HW247613   4.887   7.320   1.648
15227SOL     OW47614   5.238   6.978   0.944
15227SOL    HW147615   5.165   7.002   1.008
15227SOL    HW247616   5.215   6.891   0.900
15228SOL     OW47617   5.350   7.478   0.537
15228SOL    HW147618   5.354   7.399   0.476
15228SOL    HW247619   5.353   7.446   0.632
15229SOL     OW47620   5.045   5.969   0.949
15229SOL    HW147621   4.958   5.920   0.934
15229SOL    HW247622   5.092   5.930   1.028
15230SOL     OW47623   5.351   7.271   0.361
15230SOL    HW147624   5.450   7.261   0.359
15230SOL    HW247625   5.314   7.261   0.268
15231SOL     OW47626   5.093   6.058   1.642
15231SOL    HW147627   5.102   6.110   1.728
15231SOL    HW247628   5.167   5.991   1.636
15232SOL     OW47629   4.667   6.512   1.564
15232SOL    HW147630   4.692   6.420   1.531
15232SOL    HW247631   4.613   6.558   1.494
15233SOL     OW47632   4.756   6.039   1.121
15233SOL    HW147633   4.695   6.106   1.164
15233SOL    HW247634   4.740   6.038   1.022
15234SOL     OW47635   4.816   6.266   0.387
15234SOL    HW147636   4.839   6.256   0.484
15234SOL    HW247637   4.724   6.230   0.370
15235SOL     OW47638   3.839   6.429   0.807
15235SOL    HW147639   3.922   6.404   0.857
15235SOL    HW247640   3.783   6.489   0.864
15236SOL     OW47641   3.824   7.480   1.620
15236SOL    HW147642   3.828   7.426   1.705
15236SOL    HW247643   3.731   7.481   1.585
15237SOL     OW47644   4.582   5.935   0.178
15237SOL    HW147645   4.570   5.983   0.091
15237SOL    HW247646   4.573   5.836   0.164
15238SOL     OW47647   5.382   6.187   1.815
15238SOL    HW147648   5.378   6.276   1.769
15238SOL    HW247649   5.405   6.116   1.750
15239SOL     OW47650   5.035   6.714   0.582
15239SOL    HW147651   5.079   6.677   0.501
15239SOL    HW247652   5.005   6.808   0.565
15240SOL     OW47653   4.274   5.698   0.982
15240SOL    HW147654   4.278   5.730   1.077
15240SOL    HW247655   4.274   5.776   0.920
15241SOL     OW47656   4.723   7.053   0.478
15241SOL    HW147657   4.668   6.972   0.459
15241SOL    HW247658   4.663   7.131   0.496
15242SOL     OW47659   4.084   7.358   0.876
15242SOL    HW147660   4.113   7.263   0.876
15242SOL    HW247661   4.160   7.417   0.902
15243SOL     OW47662   5.521   6.590   0.922
15243SOL    HW147663   5.483   6.570   0.832
15243SOL    HW247664   5.446   6.606   0.987
15244SOL     OW47665   5.223   6.326   0.709
15244SOL    HW147666   5.225   6.277   0.797
15244SOL    HW247667   5.305   6.382   0.702
15245SOL     OW47668   4.233   6.876   1.702
15245SOL    HW147669   4.204   6.890   1.607
15245SOL    HW247670   4.153   6.881   1.762
15246SOL     OW47671   4.870   7.358   0.178
15246SOL    HW147672   4.853   7.333   0.274
15246SOL    HW247673   4.913   7.282   0.131
15247SOL     OW47674   3.930   5.868   1.506
15247SOL    HW147675   3.897   5.941   1.564
15247SOL    HW247676   3.897   5.780   1.540
15248SOL     OW47677   5.337   6.958   0.158
15248SOL    HW147678   5.306   7.053   0.149
15248SOL    HW247679   5.259   6.897   0.146
15249SOL     OW47680   5.111   5.665   0.438
15249SOL    HW147681   5.100   5.657   0.339
15249SOL    HW247682   5.205   5.644   0.464
15250SOL     OW47683   3.916   7.422   1.236
15250SOL    HW147684   3.976   7.350   1.271
15250SOL    HW247685   3.890   7.400   1.142
15251SOL     OW47686   4.621   7.258   0.791
15251SOL    HW147687   4.710   7.211   0.798
15251SOL    HW247688   4.585   7.246   0.698
15252SOL     OW47689   5.253   5.796   1.649
15252SOL    HW147690   5.279   5.820   1.743
15252SOL    HW247691   5.186   5.722   1.651
15253SOL     OW47692   4.302   5.700   0.137
15253SOL    HW147693   4.398   5.678   0.152
15253SOL    HW247694   4.284   5.705   0.038
15254SOL     OW47695   4.573   7.114   1.134
15254SOL    HW147696   4.540   7.064   1.053
15254SOL    HW247697   4.633   7.054   1.187
15255SOL     OW47698   4.975   6.203   1.442
15255SOL    HW147699   5.025   6.161   1.518
15255SOL    HW247700   5.017   6.290   1.418
15256SOL     OW47701   4.520   6.919   0.928
15256SOL    HW147702   4.611   6.924   0.887
15256SOL    HW247703   4.451   6.918   0.856
15257SOL     OW47704   4.714   6.057   0.820
15257SOL    HW147705   4.674   6.051   0.729
15257SOL    HW247706   4.756   5.969   0.844
15258SOL     OW47707   4.273   5.699   0.504
15258SOL    HW147708   4.196   5.691   0.568
15258SOL    HW247709   4.256   5.774   0.440
15259SOL     OW47710   5.115   6.797   0.141
15259SOL    HW147711   5.135   6.726   0.208
15259SOL    HW247712   5.032   6.846   0.168
15260SOL     OW47713   4.697   5.833   0.411
15260SOL    HW147714   4.667   5.873   0.325
15260SOL    HW247715   4.795   5.848   0.424
15261SOL     OW47716   4.707   6.261   1.457
15261SOL    HW147717   4.664   6.244   1.369
15261SOL    HW247718   4.804   6.233   1.453
15262SOL     OW47719   4.881   7.171   0.781
15262SOL    HW147720   4.916   7.228   0.707
15262SOL    HW247721   4.916   7.205   0.869
15263SOL     OW47722   4.180   6.642   0.678
15263SOL    HW147723   4.132   6.661   0.764
15263SOL    HW247724   4.121   6.588   0.618
15264SOL     OW47725   4.956   7.385   0.592
15264SOL    HW147726   5.004   7.452   0.535
15264SOL    HW247727   4.876   7.427   0.633
15265SOL     OW47728   4.840   6.068   9.979
15265SOL    HW147729   4.740   6.063   9.974
15265SOL    HW247730   4.869   6.066   0.075
15266SOL     OW47731   3.841   6.191   1.329
15266SOL    HW147732   3.937   6.173   1.307
15266SOL    HW247733   3.835   6.240   1.416
15267SOL     OW47734   4.266   5.782   1.248
15267SOL    HW147735   4.290   5.704   1.305
15267SOL    HW247736   4.166   5.787   1.239
15268SOL     OW47737   4.610   6.033   0.576
15268SOL    HW147738   4.573   6.099   0.510
15268SOL    HW247739   4.638   5.950   0.528
15269SOL     OW47740   4.745   5.632   0.713
15269SOL    HW147741   4.674   5.645   0.644
15269SOL    HW247742   4.713   5.566   0.781
15270SOL     OW47743   5.205   6.744   0.811
15270SOL    HW147744   5.132   6.728   0.745
15270SOL    HW247745   5.291   6.760   0.763
15271SOL     OW47746   5.214   6.191   0.947
15271SOL    HW147747   5.146   6.119   0.960
15271SOL    HW247748   5.282   6.187   1.021
15272SOL     OW47749   5.588   6.354   0.297
15272SOL    HW147750   5.616   6.322   0.388
15272SOL    HW247751   5.510   6.300   0.266
15273SOL     OW47752   4.246   6.929   0.266
15273SOL    HW147753   4.151   6.899   0.276
15273SOL    HW247754   4.275   6.917   0.171
15274SOL     OW47755   5.423   6.829   0.669
15274SOL    HW147756   5.522   6.822   0.680
15274SOL    HW247757   5.396   6.925   0.669
15275SOL     OW47758   5.149   6.125   0.077
15275SOL    HW147759   5.077   6.100   0.141
15275SOL    HW247760   5.156   6.054   0.006
15276SOL     OW47761   4.212   5.892   0.316
15276SOL    HW147762   4.251   5.824   0.254
15276SOL    HW247763   4.167   5.964   0.262
15277SOL     OW47764   4.713   6.921   1.276
15277SOL    HW147765   4.640   6.910   1.343
15277SOL    HW247766   4.801   6.898   1.319
15278SOL     OW47767   4.778   6.762   1.062
15278SOL    HW147768   4.745   6.821   1.136
15278SOL    HW247769   4.785   6.815   0.978
15279SOL     OW47770   5.308   6.655   1.073
15279SOL    HW147771   5.301   6.725   1.145
15279SOL    HW247772   5.246   6.678   0.998
15280SOL     OW47773   4.715   5.611   1.339
15280SOL    HW147774   4.735   5.609   1.241
15280SOL    HW247775   4.776   5.676   1.384
15281SOL     OW47776   4.670   6.705   1.753
15281SOL    HW147777   4.577   6.713   1.788
15281SOL    HW247778   4.672   6.638   1.679
15282SOL     OW47779   4.460   6.571   0.326
15282SOL    HW147780   4.446   6.537   0.419
15282SOL    HW247781   4.550   6.541   0.292
15283SOL     OW47782   4.181   6.412   1.272
15283SOL    HW147783   4.240   6.422   1.352
15283SOL    HW247784   4.152   6.317   1.264
15284SOL     OW47785   4.957   5.981   1.286
15284SOL    HW147786   4.969   6.064   1.341
15284SOL    HW247787   4.882   5.994   1.221
15285SOL     OW47788   3.778   7.142   1.318
15285SOL    HW147789   3.724   7.199   1.257
15285SOL    HW247790   3.875   7.163   1.306
15286SOL     OW47791   4.273   5.924   0.828
15286SOL    HW147792   4.243   5.943   0.735
15286SOL    HW247793   4.353   5.980   0.850
15287SOL     OW47794   4.974   6.968   0.497
15287SOL    HW147795   5.040   7.041   0.510
15287SOL    HW247796   4.881   7.005   0.502
15288SOL     OW47797   5.053   7.035   1.144
15288SOL    HW147798   5.133   7.068   1.195
15288SOL    HW247799   5.004   6.968   1.199
15289SOL     OW47800   5.219   6.191   0.469
15289SOL    HW147801   5.220   6.233   0.560
15289SOL    HW247802   5.174   6.252   0.404
15290SOL     OW47803   4.051   7.172   1.279
15290SOL    HW147804   4.042   7.099   1.211
15290SOL    HW247805   4.147   7.197   1.288
15291SOL     OW47806   4.108   6.356   1.625
15291SOL    HW147807   4.183   6.399   1.575
15291SOL    HW247808   4.131   6.261   1.645
15292SOL     OW47809   5.366   6.418   1.684
15292SOL    HW147810   5.274   6.456   1.672
15292SOL    HW247811   5.420   6.435   1.602
15293SOL     OW47812   4.744   5.657   1.712
15293SOL    HW147813   4.780   5.749   1.725
15293SOL    HW247814   4.819   5.595   1.688
15294SOL     OW47815   4.222   5.647   1.808
15294SOL    HW147816   4.194   5.595   1.728
15294SOL    HW247817   4.158   5.632   1.882
15295SOL     OW47818   4.235   6.557   1.051
15295SOL    HW147819   4.312   6.618   1.069
15295SOL    HW247820   4.214   6.504   1.133
15296SOL     OW47821   5.065   6.440   0.983
15296SOL    HW147822   5.030   6.461   0.892
15296SOL    HW247823   5.116   6.354   0.981
15297SOL     OW47824   4.936   6.065   0.241
15297SOL    HW147825   4.954   5.993   0.308
15297SOL    HW247826   4.894   6.144   0.287
15298SOL     OW47827   3.996   5.789   1.245
15298SOL    HW147828   3.955   5.822   1.330
15298SOL    HW247829   3.974   5.692   1.234
15299SOL     OW47830   3.747   6.872   1.300
15299SOL    HW147831   3.801   6.828   1.372
15299SOL    HW247832   3.758   6.972   1.307
15300SOL     OW47833   4.456   6.106   0.900
15300SOL    HW147834   4.553   6.097   0.877
15300SOL    HW247835   4.411   6.165   0.833
15301SOL     OW47836   5.509   6.551   1.872
15301SOL    HW147837   5.456   6.497   1.807
15301SOL    HW247838   5.451   6.577   1.949
15302SOL     OW47839   4.046   5.673   0.657
15302SOL    HW147840   4.004   5.762   0.676
15302SOL    HW247841   4.056   5.621   0.742
15303SOL     OW47842   5.327   5.974   0.348
15303SOL    HW147843   5.390   5.918   0.403
15303SOL    HW247844   5.285   6.043   0.407
15304SOL     OW47845   4.657   7.130   1.887
15304SOL    HW147846   4.608   7.191   1.824
15304SOL    HW247847   4.712   7.065   1.835
15305SOL     OW47848   5.489   7.150   1.607
15305SOL    HW147849   5.552   7.149   1.530
15305SOL    HW247850   5.514   7.079   1.672
15306SOL     OW47851   4.097   6.479   1.871
15306SOL    HW147852   4.186   6.449   1.906
15306SOL    HW247853   4.084   6.442   1.779
15307SOL     OW47854   5.255   5.839   0.129
15307SOL    HW147855   5.172   5.786   0.146
15307SOL    HW247856   5.276   5.896   0.208
15308SOL     OW47857   5.117   6.386   0.034
15308SOL    HW147858   5.125   6.287   0.038
15308SOL    HW247859   5.185   6.423   9.971
15309SOL     OW47860   4.775   6.915   0.830
15309SOL    HW147861   4.767   6.856   0.750
15309SOL    HW247862   4.821   7.000   0.804
15310SOL     OW47863   4.046   6.351   0.960
15310SOL    HW147864   4.120   6.415   0.979
15310SOL    HW247865   4.080   6.258   0.967
15311SOL     OW47866   4.110   6.083   0.992
15311SOL    HW147867   4.028   6.027   0.996
15311SOL    HW247868   4.177   6.040   0.932
15312SOL     OW47869   4.873   5.914   1.710
15312SOL    HW147870   4.811   5.969   1.765
15312SOL    HW247871   4.945   5.972   1.672
15313SOL     OW47872   4.895   5.778   1.457
15313SOL    HW147873   4.874   5.823   1.544
15313SOL    HW247874   4.922   5.847   1.390
15314SOL     OW47875   3.705   6.909   0.154
15314SOL    HW147876   3.612   6.929   0.121
15314SOL    HW247877   3.702   6.831   0.217
15315SOL     OW47878   3.833   7.348   0.980
15315SOL    HW147879   3.812   7.253   0.960
15315SOL    HW247880   3.921   7.372   0.939
15316SOL     OW47881   4.203   7.092   0.904
15316SOL    HW147882   4.276   7.157   0.927
15316SOL    HW247883   4.238   7.023   0.841
15317SOL     OW47884   3.758   6.258   1.079
15317SOL    HW147885   3.835   6.283   1.020
15317SOL    HW247886   3.791   6.231   1.169
15318SOL     OW47887   3.887   6.086   1.682
15318SOL    HW147888   3.987   6.096   1.684
15318SOL    HW247889   3.846   6.170   1.646
15319SOL     OW47890   5.137   6.546   1.611
15319SOL    HW147891   5.196   6.623   1.589
15319SOL    HW247892   5.103   6.505   1.526
15320SOL     OW47893   4.567   6.165   0.331
15320SOL    HW147894   4.567   6.080   0.278
15320SOL    HW247895   4.498   6.227   0.294
15321SOL     OW47896   5.411   6.190   1.138
15321SOL    HW147897   5.418   6.123   1.213
15321SOL    HW247898   5.502   6.226   1.118
15322SOL     OW47899   3.979   7.148   1.693
15322SOL    HW147900   3.936   7.210   1.759
15322SOL    HW247901   3.994   7.059   1.735
15323SOL     OW47902   4.411   6.046   1.168
15323SOL    HW147903   4.376   5.954   1.188
15323SOL    HW247904   4.415   6.060   1.069
15324SOL     OW47905   4.613   7.309   1.576
15324SOL    HW147906   4.619   7.214   1.546
15324SOL    HW247907   4.704   7.343   1.598
15325SOL     OW47908   4.102   6.066   0.134
15325SOL    HW147909   4.144   6.156   0.121
15325SOL    HW247910   4.004   6.072   0.114
15326SOL     OW47911   3.904   6.751   1.485
15326SOL    HW147912   3.883   6.731   1.580
15326SOL    HW247913   3.924   6.666   1.436
15327SOL     OW47914   4.984   6.619   1.170
15327SOL    HW147915   5.022   6.553   1.105
15327SOL    HW247916   4.910   6.670   1.125
15328SOL     OW47917   5.075   6.367   0.308
15328SOL    HW147918   4.980   6.342   0.328
15328SOL    HW247919   5.086   6.377   0.209
15329SOL     OW47920   5.580   7.232   1.136
15329SOL    HW147921   5.627   7.292   1.071
15329SOL    HW247922   5.552   7.148   1.091
15330SOL     OW47923   4.971   7.268   1.020
15330SOL    HW147924   5.052   7.327   1.027
15330SOL    HW247925   4.988   7.183   1.069
15331SOL     OW47926   3.835   6.769   1.060
15331SOL    HW147927   3.803   6.803   1.149
15331SOL    HW247928   3.766   6.709   1.020
15332SOL     OW47929   4.429   7.310   1.779
15332SOL    HW147930   4.350   7.371   1.775
15332SOL    HW247931   4.489   7.328   1.701
15333SOL     OW47932   4.576   5.671   0.117
15333SOL    HW147933   4.559   5.645   0.022
15333SOL    HW247934   4.661   5.630   0.149
15334SOL     OW47935   5.507   5.792   0.456
15334SOL    HW147936   5.575   5.758   0.392
15334SOL    HW247937   5.448   5.716   0.485
15335SOL     OW47938   5.139   7.186   0.526
15335SOL    HW147939   5.208   7.217   0.460
15335SOL    HW247940   5.075   7.261   0.545
15336SOL     OW47941   3.842   7.323   1.845
15336SOL    HW147942   3.772   7.260   1.878
15336SOL    HW247943   3.881   7.374   1.921
15337SOL     OW47944   4.999   6.476   0.713
15337SOL    HW147945   5.083   6.423   0.700
15337SOL    HW247946   5.008   6.564   0.666
15338SOL     OW47947   4.490   6.902   1.437
15338SOL    HW147948   4.476   6.957   1.520
15338SOL    HW247949   4.412   6.914   1.376
15339SOL     OW47950   5.371   7.364   1.243
15339SOL    HW147951   5.457   7.326   1.209
15339SOL    HW247952   5.389   7.415   1.328
15340SOL     OW47953   5.574   5.704   0.972
15340SOL    HW147954   5.602   5.617   0.931
15340SOL    HW247955   5.477   5.721   0.951
15341SOL     OW47956   3.942   5.922   0.719
15341SOL    HW147957   3.859   5.966   0.684
15341SOL    HW247958   3.937   5.919   0.819
15342SOL     OW47959   5.002   7.144   0.070
15342SOL    HW147960   4.963   7.064   0.116
15342SOL    HW247961   5.011   7.125   9.972
15343SOL     OW47962   4.502   6.635   1.381
15343SOL    HW147963   4.489   6.639   1.282
15343SOL    HW247964   4.498   6.728   1.419
15344SOL     OW47965   4.704   6.484   0.249
15344SOL    HW147966   4.758   6.505   0.167
15344SOL    HW247967   4.751   6.414   0.303
15345SOL     OW47968   5.250   7.241   0.107
15345SOL    HW147969   5.157   7.206   0.094
15345SOL    HW247970   5.299   7.240   0.019
15346SOL     OW47971   4.103   6.939   1.473
15346SOL    HW147972   4.074   7.022   1.425
15346SOL    HW247973   4.029   6.872   1.472
15347SOL     OW47974   5.345   6.845   1.285
15347SOL    HW147975   5.445   6.841   1.281
15347SOL    HW247976   5.315   6.939   1.274
15348SOL     OW47977   4.717   6.706   0.652
15348SOL    HW147978   4.652   6.658   0.711
15348SOL    HW247979   4.800   6.651   0.642
15349SOL     OW47980   4.820   5.819   0.900
15349SOL    HW147981   4.803   5.761   0.820
15349SOL    HW247982   4.809   5.765   0.983
15350SOL     OW47983   4.387   7.009   0.484
15350SOL    HW147984   4.462   6.944   0.473
15350SOL    HW247985   4.324   7.000   0.407
15351SOL     OW47986   5.511   6.021   1.355
15351SOL    HW147987   5.584   6.087   1.371
15351SOL    HW247988   5.547   5.942   1.306
15352SOL     OW47989   3.977   6.870   0.286
15352SOL    HW147990   3.937   6.908   0.203
15352SOL    HW247991   3.980   6.940   0.358
15353SOL     OW47992   4.532   5.605   1.550
15353SOL    HW147993   4.581   5.608   1.463
15353SOL    HW247994   4.595   5.627   1.625
15354SOL     OW47995   3.780   5.842   0.005
15354SOL    HW147996   3.702   5.836   9.943
15354SOL    HW247997   3.801   5.938   0.024
15355SOL     OW47998   5.079   6.445   1.364
15355SOL    HW147999   5.025   6.505   1.305
15355SOL    HW248000   5.170   6.431   1.324
15356SOL     OW48001   3.820   5.700   0.241
15356SOL    HW148002   3.799   5.752   0.158
15356SOL    HW248003   3.912   5.661   0.233
15357SOL     OW48004   4.902   6.941   0.226
15357SOL    HW148005   4.804   6.922   0.217
15357SOL    HW248006   4.927   6.946   0.322
15358SOL     OW48007   4.338   6.435   1.491
15358SOL    HW148008   4.396   6.510   1.462
15358SOL    HW248009   4.392   6.368   1.541
15359SOL     OW48010   5.197   7.420   1.045
15359SOL    HW148011   5.247   7.467   0.971
15359SOL    HW248012   5.260   7.398   1.119
15360SOL     OW48013   4.492   6.256   1.627
15360SOL    HW148014   4.528   6.272   1.718
15360SOL    HW248015   4.567   6.240   1.563
15361SOL     OW48016   4.073   7.373   1.567
15361SOL    HW148017   3.985   7.421   1.568
15361SOL    HW248018   4.060   7.279   1.597
15362SOL     OW48019   5.314   6.430   1.231
15362SOL    HW148020   5.347   6.346   1.189
15362SOL    HW248021   5.312   6.503   1.163
15363SOL     OW48022   4.962   5.890   0.453
15363SOL    HW148023   5.017   5.807   0.446
15363SOL    HW248024   4.991   5.943   0.532
15364SOL     OW48025   4.329   6.228   0.695
15364SOL    HW148026   4.341   6.313   0.644
15364SOL    HW248027   4.271   6.166   0.643
15365SOL     OW48028   5.436   6.005   1.623
15365SOL    HW148029   5.469   6.021   1.530
15365SOL    HW248030   5.386   5.919   1.626
15366SOL     OW48031   5.458   6.508   1.449
15366SOL    HW148032   5.416   6.596   1.473
15366SOL    HW248033   5.416   6.474   1.365
15367SOL     OW48034   4.533   7.032   0.030
15367SOL    HW148035   4.464   6.960   0.025
15367SOL    HW248036   4.499   7.106   0.088
15368SOL     OW48037   4.391   7.282   0.934
15368SOL    HW148038   4.366   7.379   0.935
15368SOL    HW248039   4.480   7.272   0.889
15369SOL     OW48040   4.532   6.580   0.810
15369SOL    HW148041   4.587   6.551   0.888
15369SOL    HW248042   4.444   6.615   0.843
15370SOL     OW48043   4.876   6.516   0.037
15370SOL    HW148044   4.888   6.600   9.985
15370SOL    HW248045   4.960   6.463   0.035
15371SOL     OW48046   5.576   7.146   0.770
15371SOL    HW148047   5.488   7.141   0.723
15371SOL    HW248048   5.571   7.095   0.856
15372SOL     OW48049   3.994   6.909   1.826
15372SOL    HW148050   3.925   6.843   1.796
15372SOL    HW248051   3.995   6.912   1.926
15373SOL     OW48052   3.691   6.827   0.762
15373SOL    HW148053   3.678   6.750   0.824
15373SOL    HW248054   3.785   6.861   0.769
15374SOL     OW48055   4.436   7.052   1.662
15374SOL    HW148056   4.364   6.987   1.683
15374SOL    HW248057   4.416   7.140   1.706
15375SOL     OW48058   5.563   5.788   1.233
15375SOL    HW148059   5.482   5.745   1.273
15375SOL    HW248060   5.578   5.752   1.140
15376SOL     OW48061   4.174   6.011   0.583
15376SOL    HW148062   4.184   5.978   0.489
15376SOL    HW248063   4.083   5.987   0.618
15377SOL     OW48064   5.511   7.011   0.996
15377SOL    HW148065   5.413   6.992   0.985
15377SOL    HW248066   5.561   6.925   1.006
15378SOL     OW48067   4.101   6.154   1.259
15378SOL    HW148068   4.145   6.091   1.322
15378SOL    HW248069   4.118   6.125   1.165
15379SOL     OW48070   4.539   7.249   0.533
15379SOL    HW148071   4.523   7.343   0.503
15379SOL    HW248072   4.463   7.191   0.503
15380SOL     OW48073   5.167   5.862   1.168
15380SOL    HW148074   5.229   5.828   1.238
15380SOL    HW248075   5.087   5.903   1.211
15381SOL     OW48076   4.797   5.594   1.074
15381SOL    HW148077   4.733   5.539   1.019
15381SOL    HW248078   4.887   5.551   1.072
15382SOL     OW48079   4.580   6.820   0.446
15382SOL    HW148080   4.538   6.751   0.387
15382SOL    HW248081   4.631   6.775   0.519
15383SOL     OW48082   4.334   7.195   1.252
15383SOL    HW148083   4.321   7.290   1.282
15383SOL    HW248084   4.420   7.188   1.201
15384SOL     OW48085   5.049   5.660   0.176
15384SOL    HW148086   5.077   5.609   0.094
15384SOL    HW248087   4.953   5.641   0.196
15385SOL     OW48088   5.045   6.021   0.679
15385SOL    HW148089   4.995   6.105   0.661
15385SOL    HW248090   5.043   6.001   0.777
15386SOL     OW48091   5.309   5.763   0.952
15386SOL    HW148092   5.256   5.801   1.027
15386SOL    HW248093   5.309   5.829   0.876
15387SOL     OW48094   3.758   6.696   0.326
15387SOL    HW148095   3.849   6.739   0.327
15387SOL    HW248096   3.769   6.597   0.323
15388SOL     OW48097   3.900   6.106   1.983
15388SOL    HW148098   3.819   6.148   2.025
15388SOL    HW248099   3.885   6.097   1.884
15389SOL     OW48100   3.944   5.867   2.875
15389SOL    HW148101   3.998   5.832   2.951
15389SOL    HW248102   3.851   5.832   2.879
15390SOL     OW48103   3.715   5.932   2.524
15390SOL    HW148104   3.634   5.956   2.578
15390SOL    HW248105   3.695   5.851   2.469
15391SOL     OW48106   4.300   6.900   3.083
15391SOL    HW148107   4.216   6.887   3.031
15391SOL    HW248108   4.314   6.997   3.102
15392SOL     OW48109   5.302   7.116   2.543
15392SOL    HW148110   5.243   7.087   2.618
15392SOL    HW248111   5.246   7.135   2.462
15393SOL     OW48112   4.893   6.252   2.472
15393SOL    HW148113   4.934   6.342   2.486
15393SOL    HW248114   4.811   6.244   2.529
15394SOL     OW48115   5.511   6.182   2.051
15394SOL    HW148116   5.472   6.198   1.960
15394SOL    HW248117   5.455   6.116   2.100
15395SOL     OW48118   4.449   6.704   2.947
15395SOL    HW148119   4.388   6.746   3.014
15395SOL    HW248120   4.487   6.774   2.887
15396SOL     OW48121   4.656   6.302   3.659
15396SOL    HW148122   4.678   6.365   3.733
15396SOL    HW248123   4.648   6.353   3.573
15397SOL     OW48124   4.479   6.557   2.529
15397SOL    HW148125   4.540   6.559   2.608
15397SOL    HW248126   4.399   6.614   2.547
15398SOL     OW48127   4.395   6.737   3.688
15398SOL    HW148128   4.437   6.815   3.735
15398SOL    HW248129   4.327   6.770   3.623
15399SOL     OW48130   4.072   6.943   2.925
15399SOL    HW148131   4.001   6.883   2.887
15399SOL    HW248132   4.110   7.000   2.852
15400SOL     OW48133   5.153   7.079   3.230
15400SOL    HW148134   5.202   7.165   3.243
15400SOL    HW248135   5.077   7.074   3.293
15401SOL     OW48136   4.223   5.968   3.306
15401SOL    HW148137   4.291   5.895   3.311
15401SOL    HW248138   4.134   5.932   3.334
15402SOL     OW48139   5.355   6.058   2.594
15402SOL    HW148140   5.278   6.033   2.536
15402SOL    HW248141   5.346   6.154   2.621
15403SOL     OW48142   3.896   7.273   2.330
15403SOL    HW148143   3.911   7.343   2.400
15403SOL    HW248144   3.974   7.273   2.267
15404SOL     OW48145   4.843   6.861   3.549
15404SOL    HW148146   4.929   6.813   3.535
15404SOL    HW248147   4.769   6.795   3.562
15405SOL     OW48148   3.912   6.987   2.332
15405SOL    HW148149   3.886   7.083   2.343
15405SOL    HW248150   3.855   6.930   2.391
15406SOL     OW48151   4.073   6.630   2.755
15406SOL    HW148152   4.069   6.533   2.777
15406SOL    HW248153   3.998   6.678   2.801
15407SOL     OW48154   4.279   7.407   3.256
15407SOL    HW148155   4.197   7.389   3.310
15407SOL    HW248156   4.354   7.435   3.317
15408SOL     OW48157   4.338   6.576   2.085
15408SOL    HW148158   4.365   6.619   1.998
15408SOL    HW248159   4.406   6.598   2.154
15409SOL     OW48160   5.434   5.698   3.389
15409SOL    HW148161   5.472   5.776   3.340
15409SOL    HW248162   5.365   5.730   3.455
15410SOL     OW48163   3.789   6.209   2.522
15410SOL    HW148164   3.775   6.110   2.522
15410SOL    HW248165   3.795   6.242   2.616
15411SOL     OW48166   5.610   7.353   2.171
15411SOL    HW148167   5.688   7.333   2.230
15411SOL    HW248168   5.621   7.445   2.133
15412SOL     OW48169   3.664   7.149   1.951
15412SOL    HW148170   3.592   7.079   1.946
15412SOL    HW248171   3.660   7.195   2.039
15413SOL     OW48172   5.473   6.520   2.518
15413SOL    HW148173   5.547   6.462   2.485
15413SOL    HW248174   5.445   6.582   2.444
15414SOL     OW48175   5.413   6.703   2.316
15414SOL    HW148176   5.496   6.690   2.261
15414SOL    HW248177   5.428   6.779   2.380
15415SOL     OW48178   3.853   6.300   3.422
15415SOL    HW148179   3.938   6.344   3.452
15415SOL    HW248180   3.784   6.370   3.403
15416SOL     OW48181   4.371   6.972   2.592
15416SOL    HW148182   4.340   6.878   2.602
15416SOL    HW248183   4.363   6.999   2.496
15417SOL     OW48184   4.987   6.784   3.271
15417SOL    HW148185   5.009   6.723   3.194
15417SOL    HW248186   5.065   6.788   3.334
15418SOL     OW48187   4.547   5.645   2.319
15418SOL    HW148188   4.587   5.737   2.311
15418SOL    HW248189   4.448   5.652   2.320
15419SOL     OW48190   3.903   6.520   3.176
15419SOL    HW148191   3.999   6.496   3.166
15419SOL    HW248192   3.846   6.456   3.126
15420SOL     OW48193   5.311   6.617   2.066
15420SOL    HW148194   5.240   6.549   2.082
15420SOL    HW248195   5.347   6.649   2.154
15421SOL     OW48196   5.020   7.476   3.566
15421SOL    HW148197   4.973   7.521   3.490
15421SOL    HW248198   5.050   7.385   3.538
15422SOL     OW48199   4.056   5.852   3.755
15422SOL    HW148200   4.100   5.930   3.798
15422SOL    HW248201   3.958   5.871   3.743
15423SOL     OW48202   5.152   7.012   2.745
15423SOL    HW148203   5.103   7.018   2.832
15423SOL    HW248204   5.170   6.915   2.725
15424SOL     OW48205   5.379   7.472   2.407
15424SOL    HW148206   5.369   7.398   2.340
15424SOL    HW248207   5.392   7.433   2.498
15425SOL     OW48208   4.268   6.312   2.184
15425SOL    HW148209   4.290   6.403   2.147
15425SOL    HW248210   4.223   6.322   2.273
15426SOL     OW48211   5.355   7.285   2.212
15426SOL    HW148212   5.453   7.299   2.203
15426SOL    HW248213   5.314   7.277   2.122
15427SOL     OW48214   4.442   6.215   3.270
15427SOL    HW148215   4.491   6.169   3.344
15427SOL    HW248216   4.422   6.150   3.197
15428SOL     OW48217   5.111   6.054   3.516
15428SOL    HW148218   5.110   6.105   3.602
15428SOL    HW248219   5.170   5.974   3.525
15429SOL     OW48220   4.658   6.457   3.431
15429SOL    HW148221   4.711   6.385   3.386
15429SOL    HW248222   4.605   6.507   3.362
15430SOL     OW48223   4.696   6.018   3.025
15430SOL    HW148224   4.602   6.031   3.059
15430SOL    HW248225   4.695   6.018   2.925
15431SOL     OW48226   4.779   6.263   2.224
15431SOL    HW148227   4.817   6.255   2.316
15431SOL    HW248228   4.684   6.233   2.224
15432SOL     OW48229   3.811   6.336   2.772
15432SOL    HW148230   3.910   6.350   2.784
15432SOL    HW248231   3.764   6.424   2.773
15433SOL     OW48232   3.822   7.498   3.469
15433SOL    HW148233   3.819   7.448   3.555
15433SOL    HW248234   3.729   7.525   3.444
15434SOL     OW48235   4.556   5.961   2.041
15434SOL    HW148236   4.626   5.998   1.980
15434SOL    HW248237   4.486   5.913   1.987
15435SOL     OW48238   5.383   6.176   3.694
15435SOL    HW148239   5.371   6.261   3.643
15435SOL    HW248240   5.418   6.105   3.634
15436SOL     OW48241   5.139   6.718   2.407
15436SOL    HW148242   5.227   6.712   2.361
15436SOL    HW248243   5.083   6.789   2.363
15437SOL     OW48244   4.298   5.750   2.793
15437SOL    HW148245   4.314   5.767   2.890
15437SOL    HW248246   4.301   5.837   2.743
15438SOL     OW48247   4.777   7.069   2.383
15438SOL    HW148248   4.714   7.138   2.346
15438SOL    HW248249   4.806   7.097   2.474
15439SOL     OW48250   4.044   7.354   2.739
15439SOL    HW148251   4.090   7.265   2.738
15439SOL    HW248252   4.106   7.423   2.776
15440SOL     OW48253   5.571   6.614   2.760
15440SOL    HW148254   5.531   6.593   2.671
15440SOL    HW248255   5.499   6.634   2.826
15441SOL     OW48256   4.931   7.083   3.395
15441SOL    HW148257   4.911   7.000   3.446
15441SOL    HW248258   4.848   7.138   3.387
15442SOL     OW48259   4.070   6.633   2.093
15442SOL    HW148260   4.168   6.623   2.112
15442SOL    HW248261   4.047   6.584   2.009
15443SOL     OW48262   5.265   6.356   2.588
15443SOL    HW148263   5.232   6.369   2.682
15443SOL    HW248264   5.341   6.419   2.571
15444SOL     OW48265   4.215   6.884   3.538
15444SOL    HW148266   4.174   6.880   3.447
15444SOL    HW248267   4.144   6.898   3.607
15445SOL     OW48268   3.962   5.891   3.343
15445SOL    HW148269   3.898   5.950   3.294
15445SOL    HW248270   3.914   5.808   3.373
15446SOL     OW48271   5.351   6.977   2.069
15446SOL    HW148272   5.323   7.073   2.066
15446SOL    HW248273   5.290   6.922   2.012
15447SOL     OW48274   4.124   7.302   2.181
15447SOL    HW148275   4.182   7.354   2.243
15447SOL    HW248276   4.175   7.224   2.145
15448SOL     OW48277   3.913   7.358   3.061
15448SOL    HW148278   3.975   7.282   3.081
15448SOL    HW248279   3.874   7.346   2.970
15449SOL     OW48280   4.626   7.286   2.813
15449SOL    HW148281   4.623   7.220   2.887
15449SOL    HW248282   4.609   7.240   2.726
15450SOL     OW48283   4.138   6.294   2.430
15450SOL    HW148284   4.144   6.195   2.437
15450SOL    HW248285   4.046   6.324   2.455
15451SOL     OW48286   5.245   5.811   3.569
15451SOL    HW148287   5.252   5.826   3.668
15451SOL    HW248288   5.170   5.747   3.550
15452SOL     OW48289   4.508   5.847   3.557
15452SOL    HW148290   4.589   5.790   3.572
15452SOL    HW248291   4.446   5.840   3.635
15453SOL     OW48292   4.586   7.094   3.010
15453SOL    HW148293   4.556   7.027   2.942
15453SOL    HW248294   4.648   7.051   3.075
15454SOL     OW48295   5.034   6.163   3.276
15454SOL    HW148296   5.072   6.129   3.362
15454SOL    HW248297   5.072   6.253   3.256
15455SOL     OW48298   4.534   6.920   2.806
15455SOL    HW148299   4.628   6.916   2.771
15455SOL    HW248300   4.472   6.943   2.732
15456SOL     OW48301   4.275   5.670   2.304
15456SOL    HW148302   4.212   5.676   2.381
15456SOL    HW248303   4.251   5.740   2.237
15457SOL     OW48304   5.190   6.819   1.926
15457SOL    HW148305   5.231   6.736   1.965
15457SOL    HW248306   5.095   6.826   1.955
15458SOL     OW48307   4.043   5.619   2.017
15458SOL    HW148308   4.081   5.705   2.051
15458SOL    HW248309   4.086   5.542   2.065
15459SOL     OW48310   4.652   5.902   2.297
15459SOL    HW148311   4.620   5.924   2.205
15459SOL    HW248312   4.752   5.905   2.298
15460SOL     OW48313   4.777   6.241   3.317
15460SOL    HW148314   4.721   6.172   3.363
15460SOL    HW248315   4.869   6.206   3.304
15461SOL     OW48316   4.920   7.137   2.644
15461SOL    HW148317   4.907   7.215   2.706
15461SOL    HW248318   5.011   7.098   2.659
15462SOL     OW48319   4.267   6.720   2.590
15462SOL    HW148320   4.203   6.683   2.657
15462SOL    HW248321   4.216   6.763   2.515
15463SOL     OW48322   4.750   6.084   1.887
15463SOL    HW148323   4.714   6.175   1.866
15463SOL    HW248324   4.824   6.091   1.954
15464SOL     OW48325   3.860   6.125   3.216
15464SOL    HW148326   3.953   6.132   3.180
15464SOL    HW248327   3.850   6.188   3.293
15465SOL     OW48328   4.318   5.805   3.058
15465SOL    HW148329   4.368   5.774   3.139
15465SOL    HW248330   4.220   5.792   3.073
15466SOL     OW48331   4.593   6.093   2.521
15466SOL    HW148332   4.522   6.162   2.506
15466SOL    HW248333   4.597   6.031   2.442
15467SOL     OW48334   4.738   5.594   2.510
15467SOL    HW148335   4.668   5.615   2.442
15467SOL    HW248336   4.699   5.537   2.582
15468SOL     OW48337   5.246   6.766   2.673
15468SOL    HW148338   5.183   6.726   2.607
15468SOL    HW248339   5.328   6.800   2.626
15469SOL     OW48340   5.549   6.369   2.243
15469SOL    HW148341   5.607   6.326   2.312
15469SOL    HW248342   5.541   6.310   2.163
15470SOL     OW48343   4.249   7.070   2.082
15470SOL    HW148344   4.164   7.017   2.078
15470SOL    HW248345   4.323   7.018   2.039
15471SOL     OW48346   5.442   6.882   2.521
15471SOL    HW148347   5.539   6.894   2.544
15471SOL    HW248348   5.399   6.972   2.512
15472SOL     OW48349   5.109   6.185   1.881
15472SOL    HW148350   5.066   6.145   1.962
15472SOL    HW248351   5.208   6.178   1.890
15473SOL     OW48352   4.196   5.832   2.098
15473SOL    HW148353   4.264   5.843   2.025
15473SOL    HW248354   4.161   5.922   2.125
15474SOL     OW48355   5.478   6.800   3.357
15474SOL    HW148356   5.573   6.769   3.349
15474SOL    HW248357   5.477   6.893   3.394
15475SOL     OW48358   4.742   6.914   3.175
15475SOL    HW148359   4.656   6.896   3.224
15475SOL    HW248360   4.819   6.886   3.231
15476SOL     OW48361   5.301   7.202   3.502
15476SOL    HW148362   5.288   7.255   3.418
15476SOL    HW248363   5.380   7.141   3.491
15477SOL     OW48364   4.878   6.823   2.961
15477SOL    HW148365   4.816   6.850   3.035
15477SOL    HW248366   4.836   6.847   2.873
15478SOL     OW48367   5.349   6.684   2.922
15478SOL    HW148368   5.338   6.755   2.991
15478SOL    HW248369   5.303   6.711   2.837
15479SOL     OW48370   4.661   5.621   3.258
15479SOL    HW148371   4.689   5.575   3.174
15479SOL    HW248372   4.736   5.679   3.290
15480SOL     OW48373   4.651   6.673   3.595
15480SOL    HW148374   4.557   6.692   3.622
15480SOL    HW248375   4.652   6.597   3.531
15481SOL     OW48376   4.537   6.627   2.268
15481SOL    HW148377   4.524   6.590   2.360
15481SOL    HW248378   4.593   6.564   2.214
15482SOL     OW48379   4.154   6.419   3.153
15482SOL    HW148380   4.211   6.436   3.234
15482SOL    HW248381   4.137   6.321   3.144
15483SOL     OW48382   4.936   5.949   3.136
15483SOL    HW148383   4.973   6.029   3.183
15483SOL    HW248384   4.846   5.971   3.098
15484SOL     OW48385   3.782   7.131   3.192
15484SOL    HW148386   3.755   7.219   3.154
15484SOL    HW248387   3.882   7.123   3.189
15485SOL     OW48388   4.149   6.873   2.405
15485SOL    HW148389   4.224   6.928   2.367
15485SOL    HW248390   4.061   6.913   2.378
15486SOL     OW48391   4.292   6.010   2.687
15486SOL    HW148392   4.265   6.019   2.591
15486SOL    HW248393   4.350   6.088   2.712
15487SOL     OW48394   4.998   6.935   2.288
15487SOL    HW148395   5.068   7.006   2.295
15487SOL    HW248396   4.911   6.969   2.323
15488SOL     OW48397   5.041   7.041   2.987
15488SOL    HW148398   5.079   7.056   3.078
15488SOL    HW248399   4.980   6.962   2.989
15489SOL     OW48400   5.310   6.237   2.330
15489SOL    HW148401   5.280   6.271   2.419
15489SOL    HW248402   5.384   6.295   2.295
15490SOL     OW48403   4.053   7.115   3.130
15490SOL    HW148404   4.051   7.051   3.054
15490SOL    HW248405   4.148   7.145   3.146
15491SOL     OW48406   4.111   6.360   3.516
15491SOL    HW148407   4.187   6.397   3.462
15491SOL    HW248408   4.133   6.267   3.544
15492SOL     OW48409   5.347   6.402   3.552
15492SOL    HW148410   5.251   6.428   3.541
15492SOL    HW248411   5.400   6.436   3.474
15493SOL     OW48412   4.726   5.701   3.617
15493SOL    HW148413   4.788   5.779   3.611
15493SOL    HW248414   4.775   5.618   3.590
15494SOL     OW48415   4.217   5.659   3.641
15494SOL    HW148416   4.163   5.595   3.585
15494SOL    HW248417   4.159   5.736   3.668
15495SOL     OW48418   4.303   6.462   2.930
15495SOL    HW148419   4.354   6.548   2.926
15495SOL    HW248420   4.253   6.457   3.016
15496SOL     OW48421   5.170   6.383   2.842
15496SOL    HW148422   5.078   6.361   2.875
15496SOL    HW248423   5.237   6.327   2.889
15497SOL     OW48424   4.942   6.098   2.088
15497SOL    HW148425   4.954   6.020   2.148
15497SOL    HW248426   4.886   6.168   2.133
15498SOL     OW48427   4.055   5.766   3.105
15498SOL    HW148428   4.023   5.803   3.193
15498SOL    HW248429   4.031   5.669   3.099
15499SOL     OW48430   3.790   6.867   3.098
15499SOL    HW148431   3.796   6.810   3.180
15499SOL    HW248432   3.772   6.962   3.125
15500SOL     OW48433   4.405   6.226   2.833
15500SOL    HW148434   4.499   6.248   2.807
15500SOL    HW248435   4.359   6.308   2.865
15501SOL     OW48436   5.503   6.557   3.719
15501SOL    HW148437   5.447   6.494   3.664
15501SOL    HW248438   5.452   6.584   3.801
15502SOL     OW48439   4.076   5.663   2.495
15502SOL    HW148440   4.035   5.752   2.514
15502SOL    HW248441   4.092   5.614   2.580
15503SOL     OW48442   5.323   6.017   2.155
15503SOL    HW148443   5.333   5.926   2.195
15503SOL    HW248444   5.300   6.083   2.227
15504SOL     OW48445   4.673   6.309   2.838
15504SOL    HW148446   4.665   6.316   2.937
15504SOL    HW248447   4.693   6.214   2.813
15505SOL     OW48448   4.707   7.074   3.651
15505SOL    HW148449   4.687   7.137   3.575
15505SOL    HW248450   4.752   6.993   3.615
15506SOL     OW48451   5.523   7.059   3.422
15506SOL    HW148452   5.547   7.078   3.327
15506SOL    HW248453   5.600   7.081   3.481
15507SOL     OW48454   4.075   6.546   3.716
15507SOL    HW148455   4.160   6.555   3.768
15507SOL    HW248456   4.087   6.477   3.646
15508SOL     OW48457   5.302   5.890   1.903
15508SOL    HW148458   5.207   5.858   1.904
15508SOL    HW248459   5.320   5.940   1.988
15509SOL     OW48460   5.024   6.443   1.840
15509SOL    HW148461   5.048   6.346   1.842
15509SOL    HW248462   5.061   6.485   1.757
15510SOL     OW48463   4.786   6.911   2.721
15510SOL    HW148464   4.814   6.830   2.670
15510SOL    HW248465   4.831   6.991   2.682
15511SOL     OW48466   4.078   6.358   2.817
15511SOL    HW148467   4.164   6.398   2.851
15511SOL    HW248468   4.081   6.259   2.829
15512SOL     OW48469   4.101   6.088   2.865
15512SOL    HW148470   4.032   6.017   2.868
15512SOL    HW248471   4.174   6.061   2.802
15513SOL     OW48472   4.873   5.928   3.562
15513SOL    HW148473   4.823   5.977   3.633
15513SOL    HW248474   4.957   5.977   3.540
15514SOL     OW48475   4.878   5.768   3.337
15514SOL    HW148476   4.869   5.826   3.417
15514SOL    HW248477   4.903   5.824   3.258
15515SOL     OW48478   3.783   7.337   2.811
15515SOL    HW148479   3.738   7.258   2.769
15515SOL    HW248480   3.876   7.345   2.776
15516SOL     OW48481   4.193   7.116   2.750
15516SOL    HW148482   4.254   7.184   2.792
15516SOL    HW248483   4.244   7.062   2.684
15517SOL     OW48484   4.632   6.338   3.104
15517SOL    HW148485   4.705   6.310   3.166
15517SOL    HW248486   4.544   6.310   3.142
15518SOL     OW48487   3.755   6.321   3.044
15518SOL    HW148488   3.773   6.308   2.946
15518SOL    HW248489   3.782   6.238   3.094
15519SOL     OW48490   3.908   6.069   3.559
15519SOL    HW148491   3.947   6.007   3.491
15519SOL    HW248492   3.876   6.153   3.513
15520SOL     OW48493   5.105   6.503   3.476
15520SOL    HW148494   5.132   6.600   3.472
15520SOL    HW248495   5.097   6.467   3.383
15521SOL     OW48496   4.522   6.188   2.196
15521SOL    HW148497   4.519   6.104   2.142
15521SOL    HW248498   4.431   6.230   2.198
15522SOL     OW48499   5.356   6.227   2.967
15522SOL    HW148500   5.316   6.137   2.987
15522SOL    HW248501   5.455   6.218   2.961
15523SOL     OW48502   3.929   7.141   3.548
15523SOL    HW148503   3.907   7.214   3.613
15523SOL    HW248504   3.957   7.059   3.598
15524SOL     OW48505   4.423   6.057   3.051
15524SOL    HW148506   4.380   5.967   3.044
15524SOL    HW248507   4.407   6.108   2.967
15525SOL     OW48508   4.683   7.210   3.401
15525SOL    HW148509   4.593   7.170   3.385
15525SOL    HW248510   4.692   7.295   3.349
15526SOL     OW48511   4.108   6.079   2.161
15526SOL    HW148512   4.165   6.162   2.158
15526SOL    HW248513   4.030   6.091   2.100
15527SOL     OW48514   3.826   6.718   3.341
15527SOL    HW148515   3.851   6.702   3.437
15527SOL    HW248516   3.866   6.645   3.285
15528SOL     OW48517   5.037   6.618   3.040
15528SOL    HW148518   5.102   6.593   2.967
15528SOL    HW248519   4.973   6.686   3.005
15529SOL     OW48520   5.109   6.446   2.105
15529SOL    HW148521   5.087   6.361   2.153
15529SOL    HW248522   5.070   6.442   2.013
15530SOL     OW48523   5.444   7.286   3.019
15530SOL    HW148524   5.520   7.321   2.963
15530SOL    HW248525   5.412   7.200   2.981
15531SOL     OW48526   4.992   7.299   2.893
15531SOL    HW148527   5.078   7.350   2.898
15531SOL    HW248528   5.005   7.209   2.933
15532SOL     OW48529   3.854   6.768   2.852
15532SOL    HW148530   3.829   6.805   2.942
15532SOL    HW248531   3.787   6.699   2.825
15533SOL     OW48532   4.391   7.304   3.596
15533SOL    HW148533   4.303   7.349   3.611
15533SOL    HW248534   4.446   7.359   3.533
15534SOL     OW48535   5.375   5.763   2.227
15534SOL    HW148536   5.456   5.741   2.174
15534SOL    HW248537   5.354   5.687   2.289
15535SOL     OW48538   5.143   7.167   2.329
15535SOL    HW148539   5.223   7.205   2.282
15535SOL    HW248540   5.067   7.232   2.321
15536SOL     OW48541   3.841   7.350   3.701
15536SOL    HW148542   3.789   7.278   3.747
15536SOL    HW248543   3.897   7.399   3.767
15537SOL     OW48544   5.030   6.488   2.511
15537SOL    HW148545   5.110   6.435   2.537
15537SOL    HW248546   5.058   6.569   2.460
15538SOL     OW48547   4.491   6.876   3.280
15538SOL    HW148548   4.473   6.940   3.355
15538SOL    HW248549   4.417   6.881   3.213
15539SOL     OW48550   4.430   7.278   2.060
15539SOL    HW148551   4.458   7.285   1.964
15539SOL    HW248552   4.364   7.204   2.070
15540SOL     OW48553   5.293   7.320   3.252
15540SOL    HW148554   5.352   7.313   3.172
15540SOL    HW248555   5.292   7.414   3.286
15541SOL     OW48556   3.970   5.892   2.595
15541SOL    HW148557   3.875   5.908   2.567
15541SOL    HW248558   3.974   5.882   2.694
15542SOL     OW48559   4.982   7.140   1.967
15542SOL    HW148560   4.967   7.044   1.993
15542SOL    HW248561   4.894   7.188   1.963
15543SOL     OW48562   4.515   6.606   3.256
15543SOL    HW148563   4.538   6.589   3.160
15543SOL    HW248564   4.509   6.704   3.272
15544SOL     OW48565   4.684   6.479   2.091
15544SOL    HW148566   4.754   6.537   2.048
15544SOL    HW248567   4.729   6.403   2.138
15545SOL     OW48568   5.235   7.234   1.978
15545SOL    HW148569   5.144   7.194   1.962
15545SOL    HW248570   5.294   7.213   1.900
15546SOL     OW48571   4.062   6.892   3.316
15546SOL    HW148572   4.055   6.970   3.253
15546SOL    HW248573   3.977   6.841   3.314
15547SOL     OW48574   5.324   6.880   3.127
15547SOL    HW148575   5.385   6.845   3.199
15547SOL    HW248576   5.257   6.942   3.168
15548SOL     OW48577   4.845   6.668   2.625
15548SOL    HW148578   4.768   6.624   2.672
15548SOL    HW248579   4.905   6.597   2.587
15549SOL     OW48580   4.360   7.022   2.326
15549SOL    HW148581   4.447   6.978   2.304
15549SOL    HW248582   4.317   7.055   2.242
15550SOL     OW48583   5.547   5.926   3.265
15550SOL    HW148584   5.595   6.013   3.255
15550SOL    HW248585   5.535   5.882   3.176
15551SOL     OW48586   4.029   6.906   2.096
15551SOL    HW148587   4.041   6.807   2.100
15551SOL    HW248588   3.974   6.935   2.175
15552SOL     OW48589   3.860   6.678   3.611
15552SOL    HW148590   3.774   6.650   3.655
15552SOL    HW248591   3.936   6.629   3.653
15553SOL     OW48592   4.425   5.746   3.314
15553SOL    HW148593   4.507   5.699   3.281
15553SOL    HW248594   4.445   5.789   3.402
15554SOL     OW48595   5.121   6.421   3.214
15554SOL    HW148596   5.065   6.484   3.161
15554SOL    HW248597   5.217   6.429   3.186
15555SOL     OW48598   4.937   6.872   2.025
15555SOL    HW148599   4.901   6.779   2.010
15555SOL    HW248600   4.955   6.884   2.123
15556SOL     OW48601   4.323   6.436   3.362
15556SOL    HW148602   4.384   6.513   3.341
15556SOL    HW248603   4.367   6.350   3.336
15557SOL     OW48604   5.228   7.438   2.914
15557SOL    HW148605   5.265   7.501   2.845
15557SOL    HW248606   5.304   7.392   2.960
15558SOL     OW48607   4.590   6.099   3.470
15558SOL    HW148608   4.602   6.156   3.551
15558SOL    HW248609   4.563   6.007   3.497
15559SOL     OW48610   5.197   6.761   3.463
15559SOL    HW148611   5.194   6.777   3.562
15559SOL    HW248612   5.289   6.780   3.429
15560SOL     OW48613   4.053   7.354   3.413
15560SOL    HW148614   3.971   7.411   3.409
15560SOL    HW248615   4.028   7.262   3.443
15561SOL     OW48616   5.367   6.469   3.097
15561SOL    HW148617   5.374   6.382   3.049
15561SOL    HW248618   5.364   6.544   3.031
15562SOL     OW48619   4.934   5.903   2.292
15562SOL    HW148620   4.957   5.808   2.272
15562SOL    HW248621   4.994   5.938   2.363
15563SOL     OW48622   4.406   6.292   2.506
15563SOL    HW148623   4.439   6.386   2.514
15563SOL    HW248624   4.308   6.294   2.485
15564SOL     OW48625   5.468   5.974   3.531
15564SOL    HW148626   5.493   5.967   3.434
15564SOL    HW248627   5.391   5.913   3.549
15565SOL     OW48628   5.469   6.520   3.343
15565SOL    HW148629   5.463   6.619   3.357
15565SOL    HW248630   5.437   6.498   3.251
15566SOL     OW48631   4.488   6.956   2.011
15566SOL    HW148632   4.528   6.928   2.098
15566SOL    HW248633   4.548   7.021   1.966
15567SOL     OW48634   4.352   7.314   2.832
15567SOL    HW148635   4.315   7.406   2.826
15567SOL    HW248636   4.452   7.317   2.828
15568SOL     OW48637   4.627   6.562   2.760
15568SOL    HW148638   4.648   6.468   2.786
15568SOL    HW248639   4.572   6.605   2.832
15569SOL     OW48640   4.853   6.630   1.939
15569SOL    HW148641   4.787   6.656   1.868
15569SOL    HW248642   4.917   6.563   1.901
15570SOL     OW48643   5.505   7.177   2.717
15570SOL    HW148644   5.449   7.166   2.635
15570SOL    HW248645   5.473   7.116   2.788
15571SOL     OW48646   3.992   6.915   3.693
15571SOL    HW148647   3.936   6.836   3.667
15571SOL    HW248648   3.989   6.925   3.793
15572SOL     OW48649   4.420   7.058   3.473
15572SOL    HW148650   4.348   6.995   3.501
15572SOL    HW248651   4.411   7.145   3.522
15573SOL     OW48652   5.521   5.803   3.020
15573SOL    HW148653   5.523   5.703   3.025
15573SOL    HW248654   5.461   5.831   2.945
15574SOL     OW48655   4.151   6.027   2.440
15574SOL    HW148656   4.130   6.022   2.342
15574SOL    HW248657   4.082   5.976   2.491
15575SOL     OW48658   5.372   7.048   2.916
15575SOL    HW148659   5.291   7.037   2.858
15575SOL    HW248660   5.367   6.984   2.993
15576SOL     OW48661   4.116   6.152   3.131
15576SOL    HW148662   4.171   6.090   3.188
15576SOL    HW248663   4.123   6.124   3.036
15577SOL     OW48664   4.560   7.178   2.577
15577SOL    HW148665   4.563   7.208   2.482
15577SOL    HW248666   4.492   7.105   2.587
15578SOL     OW48667   5.115   5.849   2.953
15578SOL    HW148668   5.139   5.752   2.962
15578SOL    HW248669   5.052   5.875   3.026
15579SOL     OW48670   4.758   5.491   3.043
15579SOL    HW148671   4.701   5.409   3.030
15579SOL    HW248672   4.837   5.486   2.982
15580SOL     OW48673   4.586   6.894   2.256
15580SOL    HW148674   4.578   6.795   2.267
15580SOL    HW248675   4.666   6.927   2.307
15581SOL     OW48676   4.332   7.167   3.129
15581SOL    HW148677   4.320   7.257   3.171
15581SOL    HW248678   4.420   7.164   3.082
15582SOL     OW48679   5.087   6.037   2.487
15582SOL    HW148680   5.031   6.117   2.467
15582SOL    HW248681   5.082   6.016   2.585
15583SOL     OW48682   5.356   5.875   2.817
15583SOL    HW148683   5.266   5.878   2.860
15583SOL    HW248684   5.357   5.936   2.738
15584SOL     OW48685   3.643   6.557   2.223
15584SOL    HW148686   3.736   6.588   2.244
15584SOL    HW248687   3.630   6.465   2.259
15585SOL     OW48688   4.581   7.266   2.310
15585SOL    HW148689   4.543   7.258   2.218
15585SOL    HW248690   4.555   7.354   2.349
15586SOL     OW48691   3.919   6.159   3.822
15586SOL    HW148692   3.826   6.161   3.858
15586SOL    HW248693   3.917   6.138   3.724
15587SOL     OW48694   3.929   5.868   4.717
15587SOL    HW148695   3.966   5.838   4.805
15587SOL    HW248696   3.840   5.826   4.701
15588SOL     OW48697   3.723   5.992   4.356
15588SOL    HW148698   3.643   6.012   4.413
15588SOL    HW248699   3.699   5.924   4.287
15589SOL     OW48700   4.289   6.903   4.957
15589SOL    HW148701   4.208   6.904   4.897
15589SOL    HW248702   4.314   6.997   4.980
15590SOL     OW48703   5.337   7.103   4.384
15590SOL    HW148704   5.276   7.058   4.449
15590SOL    HW248705   5.288   7.118   4.298
15591SOL     OW48706   4.839   6.309   4.389
15591SOL    HW148707   4.891   6.391   4.364
15591SOL    HW248708   4.793   6.324   4.476
15592SOL     OW48709   5.529   6.166   3.921
15592SOL    HW148710   5.483   6.181   3.833
15592SOL    HW248711   5.479   6.097   3.972
15593SOL     OW48712   4.429   6.704   4.795
15593SOL    HW148713   4.373   6.743   4.867
15593SOL    HW248714   4.466   6.777   4.738
15594SOL     OW48715   4.644   6.298   5.515
15594SOL    HW148716   4.669   6.363   5.586
15594SOL    HW248717   4.644   6.344   5.426
15595SOL     OW48718   4.409   6.561   4.372
15595SOL    HW148719   4.480   6.563   4.443
15595SOL    HW248720   4.340   6.630   4.391
15596SOL     OW48721   4.422   6.740   5.578
15596SOL    HW148722   4.487   6.804   5.619
15596SOL    HW248723   4.346   6.791   5.538
15597SOL     OW48724   4.070   6.973   4.797
15597SOL    HW148725   3.996   6.916   4.762
15597SOL    HW248726   4.110   7.025   4.721
15598SOL     OW48727   5.140   7.084   5.084
15598SOL    HW148728   5.200   7.160   5.110
15598SOL    HW248729   5.056   7.088   5.138
15599SOL     OW48730   4.219   5.929   5.163
15599SOL    HW148731   4.302   5.877   5.182
15599SOL    HW248732   4.140   5.883   5.203
15600SOL     OW48733   5.327   6.061   4.462
15600SOL    HW148734   5.317   6.096   4.369
15600SOL    HW248735   5.273   6.117   4.525
15601SOL     OW48736   3.977   7.332   4.203
15601SOL    HW148737   3.997   7.405   4.268
15601SOL    HW248738   4.047   7.331   4.132
15602SOL     OW48739   4.812   6.932   5.421
15602SOL    HW148740   4.883   6.913   5.488
15602SOL    HW248741   4.754   6.851   5.410
15603SOL     OW48742   3.981   7.059   4.210
15603SOL    HW148743   3.977   7.158   4.224
15603SOL    HW248744   3.946   7.013   4.291
15604SOL     OW48745   4.039   6.668   4.600
15604SOL    HW148746   4.044   6.571   4.621
15604SOL    HW248747   3.976   6.713   4.663
15605SOL     OW48748   4.279   7.383   5.222
15605SOL    HW148749   4.192   7.354   5.263
15605SOL    HW248750   4.288   7.482   5.230
15606SOL     OW48751   4.301   6.569   3.893
15606SOL    HW148752   4.339   6.620   3.816
15606SOL    HW248753   4.349   6.595   3.977
15607SOL     OW48754   5.402   5.664   5.235
15607SOL    HW148755   5.431   5.708   5.150
15607SOL    HW248756   5.348   5.729   5.289
15608SOL     OW48757   3.825   6.252   4.299
15608SOL    HW148758   3.798   6.159   4.322
15608SOL    HW248759   3.821   6.309   4.382
15609SOL     OW48760   5.660   7.343   4.137
15609SOL    HW148761   5.741   7.326   4.192
15609SOL    HW248762   5.674   7.426   4.083
15610SOL     OW48763   3.736   7.151   3.844
15610SOL    HW148764   3.692   7.061   3.845
15610SOL    HW248765   3.741   7.188   3.937
15611SOL     OW48766   5.421   6.523   4.392
15611SOL    HW148767   5.512   6.485   4.408
15611SOL    HW248768   5.420   6.574   4.306
15612SOL     OW48769   5.412   6.697   4.170
15612SOL    HW148770   5.493   6.671   4.118
15612SOL    HW248771   5.436   6.768   4.237
15613SOL     OW48772   3.818   6.375   5.229
15613SOL    HW148773   3.875   6.424   5.164
15613SOL    HW248774   3.729   6.420   5.237
15614SOL     OW48775   4.349   6.975   4.430
15614SOL    HW148776   4.303   6.886   4.432
15614SOL    HW248777   4.349   7.011   4.337
15615SOL     OW48778   4.953   6.784   5.141
15615SOL    HW148779   4.972   6.715   5.071
15615SOL    HW248780   5.027   6.784   5.208
15616SOL     OW48781   4.558   5.620   4.240
15616SOL    HW148782   4.602   5.704   4.207
15616SOL    HW248783   4.458   5.633   4.241
15617SOL     OW48784   3.950   6.524   5.041
15617SOL    HW148785   4.037   6.476   5.027
15617SOL    HW248786   3.908   6.542   4.952
15618SOL     OW48787   5.308   6.621   3.919
15618SOL    HW148788   5.225   6.569   3.936
15618SOL    HW248789   5.344   6.655   4.006
15619SOL     OW48790   4.827   7.390   5.224
15619SOL    HW148791   4.906   7.450   5.234
15619SOL    HW248792   4.857   7.295   5.225
15620SOL     OW48793   4.083   5.868   5.589
15620SOL    HW148794   4.125   5.942   5.642
15620SOL    HW248795   4.008   5.904   5.534
15621SOL     OW48796   5.202   6.985   4.598
15621SOL    HW148797   5.141   7.020   4.668
15621SOL    HW248798   5.179   6.890   4.578
15622SOL     OW48799   5.422   7.411   4.252
15622SOL    HW148800   5.508   7.379   4.211
15622SOL    HW248801   5.373   7.333   4.290
15623SOL     OW48802   4.288   6.296   4.000
15623SOL    HW148803   4.298   6.386   3.958
15623SOL    HW248804   4.219   6.299   4.072
15624SOL     OW48805   4.995   5.989   4.650
15624SOL    HW148806   4.903   5.950   4.645
15624SOL    HW248807   5.052   5.931   4.708
15625SOL     OW48808   4.518   6.145   5.168
15625SOL    HW148809   4.487   6.118   5.259
15625SOL    HW248810   4.492   6.075   5.101
15626SOL     OW48811   5.112   6.058   5.371
15626SOL    HW148812   5.115   6.108   5.457
15626SOL    HW248813   5.172   5.978   5.377
15627SOL     OW48814   4.668   6.465   5.288
15627SOL    HW148815   4.722   6.397   5.238
15627SOL    HW248816   4.611   6.517   5.223
15628SOL     OW48817   4.730   5.945   4.908
15628SOL    HW148818   4.635   5.956   4.937
15628SOL    HW248819   4.733   5.904   4.816
15629SOL     OW48820   4.763   6.262   4.128
15629SOL    HW148821   4.786   6.268   4.225
15629SOL    HW248822   4.671   6.223   4.118
15630SOL     OW48823   3.816   6.427   4.515
15630SOL    HW148824   3.907   6.413   4.554
15630SOL    HW248825   3.764   6.489   4.573
15631SOL     OW48826   3.819   7.472   5.355
15631SOL    HW148827   3.821   7.459   5.454
15631SOL    HW248828   3.724   7.480   5.323
15632SOL     OW48829   4.570   5.944   3.924
15632SOL    HW148830   4.635   5.982   3.858
15632SOL    HW248831   4.513   5.876   3.879
15633SOL     OW48832   5.401   6.183   5.563
15633SOL    HW148833   5.388   6.262   5.503
15633SOL    HW248834   5.433   6.105   5.509
15634SOL     OW48835   5.148   6.744   4.278
15634SOL    HW148836   5.236   6.728   4.233
15634SOL    HW248837   5.101   6.820   4.232
15635SOL     OW48838   4.296   5.679   4.660
15635SOL    HW148839   4.294   5.709   4.756
15635SOL    HW248840   4.309   5.757   4.600
15636SOL     OW48841   4.760   7.048   4.196
15636SOL    HW148842   4.721   7.124   4.143
15636SOL    HW248843   4.754   7.069   4.293
15637SOL     OW48844   4.072   7.381   4.603
15637SOL    HW148845   4.112   7.290   4.599
15637SOL    HW248846   4.139   7.445   4.642
15638SOL     OW48847   5.523   6.670   4.624
15638SOL    HW148848   5.481   6.672   4.534
15638SOL    HW248849   5.452   6.671   4.695
15639SOL     OW48850   4.883   7.110   5.213
15639SOL    HW148851   4.873   7.051   5.293
15639SOL    HW248852   4.829   7.074   5.137
15640SOL     OW48853   4.025   6.520   4.049
15640SOL    HW148854   4.076   6.530   3.964
15640SOL    HW248855   4.042   6.429   4.088
15641SOL     OW48856   5.198   6.370   4.417
15641SOL    HW148857   5.188   6.321   4.503
15641SOL    HW248858   5.279   6.429   4.421
15642SOL     OW48859   4.195   6.893   5.486
15642SOL    HW148860   4.165   6.905   5.391
15642SOL    HW248861   4.119   6.856   5.540
15643SOL     OW48862   4.885   7.315   3.969
15643SOL    HW148863   4.790   7.303   3.998
15643SOL    HW248864   4.912   7.238   3.911
15644SOL     OW48865   3.978   5.817   5.240
15644SOL    HW148866   3.947   5.887   5.305
15644SOL    HW248867   3.929   5.731   5.257
15645SOL     OW48868   5.390   6.958   3.810
15645SOL    HW148869   5.348   7.049   3.804
15645SOL    HW248870   5.325   6.889   3.777
15646SOL     OW48871   4.188   7.367   4.031
15646SOL    HW148872   4.240   7.421   4.097
15646SOL    HW248873   4.251   7.313   3.975
15647SOL     OW48874   5.115   5.690   4.180
15647SOL    HW148875   5.117   5.669   4.082
15647SOL    HW248876   5.206   5.677   4.219
15648SOL     OW48877   3.949   7.382   4.943
15648SOL    HW148878   3.993   7.298   4.973
15648SOL    HW248879   3.911   7.370   4.851
15649SOL     OW48880   4.639   7.298   4.621
15649SOL    HW148881   4.697   7.252   4.688
15649SOL    HW248882   4.626   7.238   4.542
15650SOL     OW48883   4.081   6.272   4.190
15650SOL    HW148884   4.109   6.177   4.198
15650SOL    HW248885   3.988   6.283   4.225
15651SOL     OW48886   5.243   5.815   5.417
15651SOL    HW148887   5.251   5.829   5.516
15651SOL    HW248888   5.167   5.753   5.398
15652SOL     OW48889   4.414   5.739   3.816
15652SOL    HW148890   4.485   5.669   3.819
15652SOL    HW248891   4.337   5.706   3.760
15653SOL     OW48892   4.508   5.839   5.482
15653SOL    HW148893   4.593   5.787   5.476
15653SOL    HW248894   4.452   5.802   5.556
15654SOL     OW48895   4.544   7.077   4.897
15654SOL    HW148896   4.527   7.027   4.812
15654SOL    HW248897   4.618   7.033   4.948
15655SOL     OW48898   5.023   6.170   5.138
15655SOL    HW148899   5.060   6.139   5.226
15655SOL    HW248900   5.055   6.262   5.119
15656SOL     OW48901   4.517   6.925   4.658
15656SOL    HW148902   4.611   6.930   4.626
15656SOL    HW248903   4.455   6.947   4.582
15657SOL     OW48904   4.634   6.081   4.593
15657SOL    HW148905   4.610   6.074   4.496
15657SOL    HW248906   4.669   5.994   4.625
15658SOL     OW48907   4.286   5.663   4.220
15658SOL    HW148908   4.205   5.655   4.278
15658SOL    HW248909   4.276   5.742   4.159
15659SOL     OW48910   5.187   6.782   3.736
15659SOL    HW148911   5.236   6.715   3.792
15659SOL    HW248912   5.107   6.815   3.785
15660SOL     OW48913   3.998   5.612   3.868
15660SOL    HW148914   4.034   5.697   3.831
15660SOL    HW248915   4.070   5.563   3.918
15661SOL     OW48916   4.680   5.847   4.156
15661SOL    HW148917   4.642   5.882   4.070
15661SOL    HW248918   4.779   5.862   4.157
15662SOL     OW48919   4.763   6.267   5.129
15662SOL    HW148920   4.688   6.203   5.147
15662SOL    HW248921   4.850   6.218   5.131
15663SOL     OW48922   4.890   7.147   4.460
15663SOL    HW148923   4.922   7.193   4.377
15663SOL    HW248924   4.915   7.201   4.540
15664SOL     OW48925   4.212   6.743   4.410
15664SOL    HW148926   4.153   6.715   4.486
15664SOL    HW248927   4.159   6.747   4.326
15665SOL     OW48928   4.974   7.293   4.236
15665SOL    HW148929   4.940   7.320   4.146
15665SOL    HW248930   4.972   7.371   4.298
15666SOL     OW48931   4.754   6.068   3.763
15666SOL    HW148932   4.722   6.157   3.729
15666SOL    HW248933   4.823   6.083   3.835
15667SOL     OW48934   3.830   6.130   5.110
15667SOL    HW148935   3.926   6.118   5.087
15667SOL    HW248936   3.818   6.213   5.164
15668SOL     OW48937   4.284   5.756   4.919
15668SOL    HW148938   4.306   5.681   4.980
15668SOL    HW248939   4.189   5.785   4.934
15669SOL     OW48940   4.582   6.038   4.332
15669SOL    HW148941   4.536   6.098   4.266
15669SOL    HW248942   4.622   5.960   4.285
15670SOL     OW48943   4.740   5.630   4.448
15670SOL    HW148944   4.674   5.629   4.374
15670SOL    HW248945   4.719   5.556   4.512
15671SOL     OW48946   5.132   6.725   4.562
15671SOL    HW148947   5.040   6.689   4.579
15671SOL    HW248948   5.151   6.723   4.464
15672SOL     OW48949   5.162   6.214   4.641
15672SOL    HW148950   5.096   6.140   4.652
15672SOL    HW248951   5.225   6.215   4.718
15673SOL     OW48952   5.528   6.360   4.110
15673SOL    HW148953   5.593   6.331   4.180
15673SOL    HW248954   5.531   6.297   4.033
15674SOL     OW48955   4.251   7.046   3.924
15674SOL    HW148956   4.160   7.005   3.930
15674SOL    HW248957   4.312   6.987   3.871
15675SOL     OW48958   5.491   6.867   4.356
15675SOL    HW148959   5.590   6.864   4.369
15675SOL    HW248960   5.459   6.961   4.369
15676SOL     OW48961   5.106   6.170   3.763
15676SOL    HW148962   5.058   6.139   3.845
15676SOL    HW248963   5.204   6.163   3.776
15677SOL     OW48964   4.257   5.854   4.029
15677SOL    HW148965   4.317   5.809   3.963
15677SOL    HW248966   4.217   5.936   3.987
15678SOL     OW48967   5.462   6.811   5.240
15678SOL    HW148968   5.554   6.774   5.231
15678SOL    HW248969   5.467   6.901   5.283
15679SOL     OW48970   4.733   6.923   5.055
15679SOL    HW148971   4.646   6.897   5.098
15679SOL    HW248972   4.807   6.871   5.096
15680SOL     OW48973   5.323   7.185   5.410
15680SOL    HW148974   5.302   7.225   5.321
15680SOL    HW248975   5.410   7.135   5.405
15681SOL     OW48976   4.869   6.849   4.827
15681SOL    HW148977   4.808   6.877   4.901
15681SOL    HW248978   4.828   6.875   4.739
15682SOL     OW48979   5.308   6.684   4.795
15682SOL    HW148980   5.297   6.754   4.865
15682SOL    HW248981   5.237   6.696   4.725
15683SOL     OW48982   4.670   5.631   5.108
15683SOL    HW148983   4.683   5.616   5.010
15683SOL    HW248984   4.752   5.673   5.147
15684SOL     OW48985   4.668   6.692   5.442
15684SOL    HW148986   4.575   6.702   5.476
15684SOL    HW248987   4.673   6.612   5.382
15685SOL     OW48988   4.466   6.633   4.111
15685SOL    HW148989   4.440   6.606   4.204
15685SOL    HW248990   4.551   6.588   4.086
15686SOL     OW48991   4.173   6.374   5.000
15686SOL    HW148992   4.243   6.382   5.071
15686SOL    HW248993   4.136   6.281   5.001
15687SOL     OW48994   4.977   5.934   5.010
15687SOL    HW148995   5.000   6.021   5.055
15687SOL    HW248996   4.885   5.939   4.973
15688SOL     OW48997   3.784   7.124   5.080
15688SOL    HW148998   3.733   7.192   5.028
15688SOL    HW248999   3.882   7.138   5.068
15689SOL     OW49000   4.044   6.750   4.193
15689SOL    HW149001   4.041   6.822   4.124
15689SOL    HW249002   4.036   6.661   4.149
15690SOL     OW49003   4.226   6.140   4.598
15690SOL    HW149004   4.241   6.200   4.519
15690SOL    HW249005   4.307   6.141   4.657
15691SOL     OW49006   5.021   6.953   4.147
15691SOL    HW149007   5.087   7.029   4.148
15691SOL    HW249008   4.931   6.988   4.171
15692SOL     OW49009   5.057   7.045   4.825
15692SOL    HW149010   5.093   7.063   4.916
15692SOL    HW249011   4.994   6.968   4.828
15693SOL     OW49012   5.315   6.212   4.223
15693SOL    HW149013   5.252   6.268   4.279
15693SOL    HW249014   5.383   6.272   4.181
15694SOL     OW49015   4.053   7.134   5.013
15694SOL    HW149016   4.049   7.072   4.934
15694SOL    HW249017   4.149   7.156   5.033
15695SOL     OW49018   4.225   6.289   5.404
15695SOL    HW149019   4.264   6.334   5.323
15695SOL    HW249020   4.284   6.214   5.432
15696SOL     OW49021   5.359   6.405   5.413
15696SOL    HW149022   5.263   6.430   5.400
15696SOL    HW249023   5.412   6.435   5.333
15697SOL     OW49024   4.731   5.691   5.466
15697SOL    HW149025   4.796   5.767   5.460
15697SOL    HW249026   4.778   5.606   5.440
15698SOL     OW49027   4.217   5.647   5.493
15698SOL    HW149028   4.168   5.594   5.423
15698SOL    HW249029   4.166   5.730   5.514
15699SOL     OW49030   4.323   6.436   4.775
15699SOL    HW149031   4.357   6.530   4.777
15699SOL    HW249032   4.266   6.419   4.856
15700SOL     OW49033   4.986   6.429   4.713
15700SOL    HW149034   4.895   6.397   4.686
15700SOL    HW249035   5.054   6.361   4.685
15701SOL     OW49036   4.928   6.107   3.972
15701SOL    HW149037   4.947   6.027   4.029
15701SOL    HW249038   4.876   6.174   4.025
15702SOL     OW49039   4.013   5.785   4.964
15702SOL    HW149040   3.994   5.813   5.058
15702SOL    HW249041   3.999   5.686   4.956
15703SOL     OW49042   3.803   6.861   5.003
15703SOL    HW149043   3.827   6.808   5.085
15703SOL    HW249044   3.787   6.956   5.029
15704SOL     OW49045   4.440   6.183   4.767
15704SOL    HW149046   4.510   6.161   4.699
15704SOL    HW249047   4.409   6.277   4.755
15705SOL     OW49048   5.471   6.583   5.595
15705SOL    HW149049   5.433   6.512   5.536
15705SOL    HW249050   5.407   6.603   5.669
15706SOL     OW49051   4.049   5.635   4.359
15706SOL    HW149052   4.013   5.725   4.379
15706SOL    HW249053   4.060   5.583   4.444
15707SOL     OW49054   5.352   5.999   4.051
15707SOL    HW149055   5.402   5.933   4.107
15707SOL    HW249056   5.317   6.072   4.110
15708SOL     OW49057   4.729   6.330   4.651
15708SOL    HW149058   4.706   6.347   4.746
15708SOL    HW249059   4.703   6.237   4.626
15709SOL     OW49060   4.682   7.148   5.531
15709SOL    HW149061   4.627   7.209   5.474
15709SOL    HW249062   4.714   7.071   5.476
15710SOL     OW49063   5.557   7.058   5.326
15710SOL    HW149064   5.581   7.085   5.233
15710SOL    HW249065   5.638   7.066   5.385
15711SOL     OW49066   4.110   6.492   5.560
15711SOL    HW149067   4.171   6.516   5.635
15711SOL    HW249068   4.151   6.419   5.505
15712SOL     OW49069   5.251   5.853   3.833
15712SOL    HW149070   5.199   5.776   3.870
15712SOL    HW249071   5.283   5.910   3.909
15713SOL     OW49072   5.001   6.415   3.710
15713SOL    HW149073   5.035   6.322   3.724
15713SOL    HW249074   5.034   6.449   3.622
15714SOL     OW49075   4.777   6.931   4.583
15714SOL    HW149076   4.804   6.845   4.539
15714SOL    HW249077   4.818   7.008   4.533
15715SOL     OW49078   4.052   6.399   4.663
15715SOL    HW149079   4.152   6.403   4.664
15715SOL    HW249080   4.021   6.310   4.696
15716SOL     OW49081   3.998   6.127   4.731
15716SOL    HW149082   3.961   6.035   4.724
15716SOL    HW249083   4.083   6.133   4.678
15717SOL     OW49084   4.881   5.916   5.416
15717SOL    HW149085   4.826   5.964   5.484
15717SOL    HW249086   4.962   5.972   5.393
15718SOL     OW49087   4.904   5.746   5.199
15718SOL    HW149088   4.887   5.804   5.279
15718SOL    HW249089   4.939   5.802   5.124
15719SOL     OW49090   3.750   6.836   3.921
15719SOL    HW149091   3.661   6.868   3.890
15719SOL    HW249092   3.743   6.742   3.952
15720SOL     OW49093   3.821   7.358   4.698
15720SOL    HW149094   3.766   7.290   4.650
15720SOL    HW249095   3.910   7.366   4.654
15721SOL     OW49096   4.201   7.130   4.609
15721SOL    HW149097   4.269   7.198   4.637
15721SOL    HW249098   4.240   7.071   4.538
15722SOL     OW49099   4.639   6.357   4.902
15722SOL    HW149100   4.695   6.338   4.983
15722SOL    HW249101   4.559   6.296   4.902
15723SOL     OW49102   3.755   6.193   4.854
15723SOL    HW149103   3.837   6.181   4.797
15723SOL    HW249104   3.777   6.170   4.949
15724SOL     OW49105   3.952   6.238   5.430
15724SOL    HW149106   4.050   6.254   5.419
15724SOL    HW249107   3.901   6.295   5.366
15725SOL     OW49108   5.112   6.500   5.342
15725SOL    HW149109   5.127   6.599   5.340
15725SOL    HW249110   5.098   6.467   5.249
15726SOL     OW49111   4.513   6.159   4.088
15726SOL    HW149112   4.524   6.080   4.028
15726SOL    HW249113   4.433   6.212   4.059
15727SOL     OW49114   5.341   6.209   4.845
15727SOL    HW149115   5.317   6.145   4.918
15727SOL    HW249116   5.439   6.202   4.827
15728SOL     OW49117   3.915   7.098   5.489
15728SOL    HW149118   3.857   7.131   5.564
15728SOL    HW249119   3.945   7.004   5.509
15729SOL     OW49120   4.462   5.979   4.952
15729SOL    HW149121   4.396   5.903   4.947
15729SOL    HW249122   4.438   6.048   4.884
15730SOL     OW49123   4.161   6.071   3.895
15730SOL    HW149124   4.221   6.146   3.923
15730SOL    HW249125   4.069   6.107   3.878
15731SOL     OW49126   3.874   6.711   5.227
15731SOL    HW149127   3.877   6.674   5.319
15731SOL    HW249128   3.909   6.642   5.163
15732SOL     OW49129   4.978   6.613   4.914
15732SOL    HW149130   4.983   6.545   4.841
15732SOL    HW249131   4.940   6.698   4.878
15733SOL     OW49132   5.070   6.503   3.961
15733SOL    HW149133   5.008   6.468   4.032
15733SOL    HW249134   5.041   6.469   3.872
15734SOL     OW49135   5.476   7.253   4.927
15734SOL    HW149136   5.523   7.314   4.863
15734SOL    HW249137   5.441   7.173   4.877
15735SOL     OW49138   4.968   7.270   4.700
15735SOL    HW149139   5.048   7.316   4.663
15735SOL    HW249140   4.997   7.189   4.751
15736SOL     OW49141   3.855   6.794   4.748
15736SOL    HW149142   3.831   6.820   4.841
15736SOL    HW249143   3.779   6.743   4.707
15737SOL     OW49144   4.410   7.288   5.448
15737SOL    HW149145   4.355   7.350   5.505
15737SOL    HW249146   4.395   7.309   5.352
15738SOL     OW49147   5.507   5.823   4.190
15738SOL    HW149148   5.562   5.796   4.111
15738SOL    HW249149   5.455   5.745   4.223
15739SOL     OW49150   5.198   7.172   4.158
15739SOL    HW149151   5.238   7.220   4.079
15739SOL    HW249152   5.118   7.221   4.190
15740SOL     OW49153   3.834   7.409   5.616
15740SOL    HW149154   3.792   7.321   5.635
15740SOL    HW249155   3.914   7.422   5.675
15741SOL     OW49156   4.996   6.526   4.336
15741SOL    HW149157   5.068   6.462   4.365
15741SOL    HW249158   5.037   6.609   4.299
15742SOL     OW49159   4.483   6.860   5.153
15742SOL    HW149160   4.465   6.915   5.235
15742SOL    HW249161   4.407   6.872   5.088
15743SOL     OW49162   4.412   7.261   3.874
15743SOL    HW149163   4.429   7.265   3.775
15743SOL    HW249164   4.363   7.177   3.896
15744SOL     OW49165   5.319   7.286   5.148
15744SOL    HW149166   5.372   7.272   5.065
15744SOL    HW249167   5.349   7.370   5.193
15745SOL     OW49168   5.547   5.760   4.740
15745SOL    HW149169   5.584   5.673   4.707
15745SOL    HW249170   5.466   5.784   4.687
15746SOL     OW49171   3.965   5.883   4.435
15746SOL    HW149172   3.880   5.925   4.405
15746SOL    HW249173   3.969   5.883   4.535
15747SOL     OW49174   4.937   7.105   3.798
15747SOL    HW149175   4.953   7.013   3.833
15747SOL    HW249176   4.853   7.107   3.744
15748SOL     OW49177   4.519   6.593   5.103
15748SOL    HW149178   4.546   6.585   5.007
15748SOL    HW249179   4.506   6.690   5.125
15749SOL     OW49180   4.695   6.514   4.047
15749SOL    HW149181   4.722   6.523   3.951
15749SOL    HW249182   4.723   6.424   4.081
15750SOL     OW49183   5.203   7.172   3.752
15750SOL    HW149184   5.106   7.147   3.756
15750SOL    HW249185   5.231   7.181   3.656
15751SOL     OW49186   4.076   6.917   5.245
15751SOL    HW149187   4.072   6.981   5.168
15751SOL    HW249188   4.006   6.847   5.232
15752SOL     OW49189   5.313   6.879   5.001
15752SOL    HW149190   5.372   6.849   5.077
15752SOL    HW249191   5.244   6.943   5.036
15753SOL     OW49192   4.832   6.681   4.497
15753SOL    HW149193   4.744   6.640   4.520
15753SOL    HW249194   4.880   6.622   4.431
15754SOL     OW49195   4.759   5.820   4.659
15754SOL    HW149196   4.755   5.781   4.567
15754SOL    HW249197   4.766   5.746   4.726
15755SOL     OW49198   4.374   7.056   4.175
15755SOL    HW149199   4.448   7.001   4.138
15755SOL    HW249200   4.304   7.069   4.105
15756SOL     OW49201   5.606   5.932   5.188
15756SOL    HW149202   5.635   6.017   5.143
15756SOL    HW249203   5.584   5.863   5.119
15757SOL     OW49204   3.993   6.937   3.974
15757SOL    HW149205   3.902   6.901   3.955
15757SOL    HW249206   3.990   6.995   4.055
15758SOL     OW49207   3.871   6.607   5.480
15758SOL    HW149208   3.788   6.578   5.528
15758SOL    HW249209   3.948   6.552   5.511
15759SOL     OW49210   4.445   5.763   5.223
15759SOL    HW149211   4.528   5.729   5.181
15759SOL    HW249212   4.465   5.794   5.316
15760SOL     OW49213   3.765   5.905   3.725
15760SOL    HW149214   3.670   5.935   3.733
15760SOL    HW249215   3.813   5.963   3.659
15761SOL     OW49216   5.103   6.428   5.079
15761SOL    HW149217   5.041   6.487   5.028
15761SOL    HW249218   5.196   6.437   5.043
15762SOL     OW49219   3.766   5.725   3.947
15762SOL    HW149220   3.747   5.790   3.873
15762SOL    HW249221   3.855   5.683   3.932
15763SOL     OW49222   4.975   6.851   3.898
15763SOL    HW149223   4.916   6.770   3.903
15763SOL    HW249224   4.998   6.882   3.990
15764SOL     OW49225   4.369   6.378   5.183
15764SOL    HW149226   4.421   6.460   5.162
15764SOL    HW249227   4.429   6.298   5.177
15765SOL     OW49228   4.450   6.109   5.432
15765SOL    HW149229   4.516   6.170   5.476
15765SOL    HW249230   4.470   6.014   5.457
15766SOL     OW49231   5.174   6.765   5.331
15766SOL    HW149232   5.161   6.784   5.428
15766SOL    HW249233   5.268   6.788   5.305
15767SOL     OW49234   4.049   7.318   5.369
15767SOL    HW149235   3.969   7.375   5.349
15767SOL    HW249236   4.019   7.230   5.406
15768SOL     OW49237   5.347   6.464   4.958
15768SOL    HW149238   5.350   6.379   4.906
15768SOL    HW249239   5.336   6.541   4.895
15769SOL     OW49240   4.948   5.908   4.163
15769SOL    HW149241   5.009   5.829   4.171
15769SOL    HW249242   4.958   5.966   4.244
15770SOL     OW49243   4.265   6.324   4.402
15770SOL    HW149244   4.322   6.405   4.386
15770SOL    HW249245   4.201   6.313   4.326
15771SOL     OW49246   5.487   5.954   5.432
15771SOL    HW149247   5.531   5.949   5.342
15771SOL    HW249248   5.402   5.901   5.429
15772SOL     OW49249   5.477   6.517   5.194
15772SOL    HW149250   5.460   6.613   5.214
15772SOL    HW249251   5.436   6.493   5.106
15773SOL     OW49252   4.498   6.956   3.807
15773SOL    HW149253   4.532   6.938   3.900
15773SOL    HW249254   4.568   7.005   3.755
15774SOL     OW49255   4.370   7.332   4.652
15774SOL    HW149256   4.346   7.429   4.653
15774SOL    HW249257   4.470   7.323   4.647
15775SOL     OW49258   4.592   6.565   4.583
15775SOL    HW149259   4.634   6.478   4.607
15775SOL    HW249260   4.543   6.601   4.663
15776SOL     OW49261   4.770   6.525   3.790
15776SOL    HW149262   4.732   6.589   3.723
15776SOL    HW249263   4.856   6.488   3.756
15777SOL     OW49264   5.417   7.239   4.603
15777SOL    HW149265   5.403   7.198   4.512
15777SOL    HW249266   5.415   7.168   4.672
15778SOL     OW49267   3.948   6.841   5.590
15778SOL    HW149268   3.925   6.756   5.543
15778SOL    HW249269   3.885   6.855   5.666
15779SOL     OW49270   3.896   6.866   4.396
15779SOL    HW149271   3.917   6.821   4.483
15779SOL    HW249272   3.941   6.817   4.322
15780SOL     OW49273   4.417   7.016   5.373
15780SOL    HW149274   4.338   6.971   5.415
15780SOL    HW249275   4.416   7.113   5.397
15781SOL     OW49276   5.553   5.734   5.011
15781SOL    HW149277   5.627   5.667   5.017
15781SOL    HW249278   5.536   5.757   4.915
15782SOL     OW49279   4.127   6.011   4.236
15782SOL    HW149280   4.174   5.944   4.179
15782SOL    HW249281   4.080   5.964   4.310
15783SOL     OW49282   5.390   7.036   4.788
15783SOL    HW149283   5.329   7.008   4.714
15783SOL    HW249284   5.380   6.975   4.866
15784SOL     OW49285   4.086   6.117   5.015
15784SOL    HW149286   4.142   6.051   5.065
15784SOL    HW249287   4.076   6.087   4.921
15785SOL     OW49288   4.564   7.155   4.403
15785SOL    HW149289   4.543   7.207   4.320
15785SOL    HW249290   4.493   7.088   4.419
15786SOL     OW49291   5.132   5.823   4.816
15786SOL    HW149292   5.129   5.723   4.823
15786SOL    HW249293   5.084   5.863   4.894
15787SOL     OW49294   4.774   5.590   4.817
15787SOL    HW149295   4.728   5.523   4.759
15787SOL    HW249296   4.869   5.563   4.831
15788SOL     OW49297   4.564   6.894   4.064
15788SOL    HW149298   4.538   6.800   4.087
15788SOL    HW249299   4.646   6.919   4.116
15789SOL     OW49300   4.323   7.172   5.036
15789SOL    HW149301   4.327   7.251   5.098
15789SOL    HW249302   4.410   7.163   4.988
15790SOL     OW49303   5.122   5.623   3.914
15790SOL    HW149304   5.173   5.552   3.866
15790SOL    HW249305   5.029   5.590   3.932
15791SOL     OW49306   4.968   6.064   4.382
15791SOL    HW149307   4.922   6.153   4.382
15791SOL    HW249308   4.986   6.037   4.477
15792SOL     OW49309   5.317   5.821   4.610
15792SOL    HW149310   5.250   5.839   4.682
15792SOL    HW249311   5.319   5.898   4.546
15793SOL     OW49312   3.754   6.585   4.045
15793SOL    HW149313   3.853   6.571   4.040
15793SOL    HW249314   3.708   6.496   4.051
15794SOL     OW49315   4.632   7.269   4.069
15794SOL    HW149316   4.557   7.262   4.003
15794SOL    HW249317   4.616   7.347   4.130
15795SOL     OW49318   3.926   6.179   5.703
15795SOL    HW149319   3.832   6.171   5.736
15795SOL    HW249320   3.926   6.214   5.609
15796SOL     OW49321   3.932   5.879   6.587
15796SOL    HW149322   3.992   5.838   6.656
15796SOL    HW249323   3.840   5.840   6.596
15797SOL     OW49324   3.713   6.012   6.229
15797SOL    HW149325   3.629   6.035   6.278
15797SOL    HW249326   3.695   5.938   6.165
15798SOL     OW49327   4.296   6.929   6.811
15798SOL    HW149328   4.207   6.921   6.765
15798SOL    HW249329   4.315   7.026   6.829
15799SOL     OW49330   5.260   7.138   6.287
15799SOL    HW149331   5.207   7.123   6.371
15799SOL    HW249332   5.198   7.150   6.210
15800SOL     OW49333   4.988   6.281   6.186
15800SOL    HW149334   5.084   6.308   6.183
15800SOL    HW249335   4.942   6.329   6.261
15801SOL     OW49336   5.571   6.162   5.770
15801SOL    HW149337   5.515   6.189   5.692
15801SOL    HW249338   5.524   6.092   5.823
15802SOL     OW49339   4.452   6.742   6.681
15802SOL    HW149340   4.384   6.791   6.735
15802SOL    HW249341   4.517   6.807   6.641
15803SOL     OW49342   4.379   6.587   6.231
15803SOL    HW149343   4.444   6.590   6.307
15803SOL    HW249344   4.310   6.659   6.244
15804SOL     OW49345   4.427   6.726   7.446
15804SOL    HW149346   4.488   6.793   7.488
15804SOL    HW249347   4.355   6.773   7.395
15805SOL     OW49348   4.062   6.972   6.671
15805SOL    HW149349   3.987   6.914   6.640
15805SOL    HW249350   4.103   7.019   6.593
15806SOL     OW49351   5.230   7.130   7.051
15806SOL    HW149352   5.263   7.220   7.021
15806SOL    HW249353   5.133   7.135   7.072
15807SOL     OW49354   4.102   5.928   7.024
15807SOL    HW149355   4.176   5.924   7.091
15807SOL    HW249356   4.020   5.887   7.063
15808SOL     OW49357   5.325   6.009   6.306
15808SOL    HW149358   5.253   5.992   6.239
15808SOL    HW249359   5.296   6.081   6.369
15809SOL     OW49360   4.824   6.966   7.282
15809SOL    HW149361   4.879   6.948   7.364
15809SOL    HW249362   4.763   6.889   7.265
15810SOL     OW49363   3.897   7.137   6.112
15810SOL    HW149364   3.933   7.228   6.133
15810SOL    HW249365   3.881   7.087   6.197
15811SOL     OW49366   4.022   6.686   6.452
15811SOL    HW149367   4.039   6.590   6.473
15811SOL    HW249368   3.966   6.726   6.525
15812SOL     OW49369   4.298   6.570   5.767
15812SOL    HW149370   4.339   6.616   5.688
15812SOL    HW249371   4.349   6.594   5.850
15813SOL     OW49372   5.429   5.673   7.133
15813SOL    HW149373   5.446   5.758   7.081
15813SOL    HW249374   5.355   5.689   7.199
15814SOL     OW49375   3.819   6.268   6.167
15814SOL    HW149376   3.790   6.174   6.187
15814SOL    HW249377   3.825   6.320   6.252
15815SOL     OW49378   5.605   7.306   5.933
15815SOL    HW149379   5.682   7.281   5.992
15815SOL    HW249380   5.617   7.400   5.901
15816SOL     OW49381   3.733   7.161   5.681
15816SOL    HW149382   3.661   7.093   5.666
15816SOL    HW249383   3.733   7.188   5.778
15817SOL     OW49384   5.424   6.566   6.276
15817SOL    HW149385   5.522   6.559   6.260
15817SOL    HW249386   5.381   6.612   6.198
15818SOL     OW49387   5.368   6.722   6.041
15818SOL    HW149388   5.456   6.701   5.999
15818SOL    HW249389   5.380   6.794   6.109
15819SOL     OW49390   3.828   6.372   7.129
15819SOL    HW149391   3.913   6.415   7.161
15819SOL    HW249392   3.760   6.443   7.111
15820SOL     OW49393   4.297   7.030   6.248
15820SOL    HW149394   4.267   6.936   6.263
15820SOL    HW249395   4.289   7.053   6.151
15821SOL     OW49396   4.971   6.840   7.014
15821SOL    HW149397   4.990   6.763   6.953
15821SOL    HW249398   5.030   6.833   7.095
15822SOL     OW49399   4.560   5.626   6.108
15822SOL    HW149400   4.607   5.708   6.077
15822SOL    HW249401   4.461   5.644   6.111
15823SOL     OW49402   3.943   6.565   6.908
15823SOL    HW149403   4.027   6.513   6.897
15823SOL    HW249404   3.884   6.552   6.828
15824SOL     OW49405   5.263   6.632   5.790
15824SOL    HW149406   5.191   6.566   5.809
15824SOL    HW249407   5.301   6.665   5.876
15825SOL     OW49408   5.004   7.484   7.225
15825SOL    HW149409   4.951   7.537   7.159
15825SOL    HW249410   5.000   7.387   7.201
15826SOL     OW49411   4.129   5.823   7.501
15826SOL    HW149412   4.173   5.907   7.534
15826SOL    HW249413   4.030   5.835   7.503
15827SOL     OW49414   5.164   7.052   6.539
15827SOL    HW149415   5.111   7.057   6.624
15827SOL    HW249416   5.171   6.957   6.510
15828SOL     OW49417   5.330   7.443   6.106
15828SOL    HW149418   5.334   7.370   6.038
15828SOL    HW249419   5.319   7.402   6.197
15829SOL     OW49420   4.307   6.294   5.869
15829SOL    HW149421   4.315   6.383   5.824
15829SOL    HW249422   4.232   6.298   5.936
15830SOL     OW49423   5.002   5.965   6.499
15830SOL    HW149424   4.915   5.916   6.500
15830SOL    HW249425   5.060   5.931   6.572
15831SOL     OW49426   5.333   7.256   5.906
15831SOL    HW149427   5.433   7.259   5.910
15831SOL    HW249428   5.304   7.243   5.811
15832SOL     OW49429   4.517   6.178   7.024
15832SOL    HW149430   4.511   6.128   7.111
15832SOL    HW249431   4.502   6.114   6.948
15833SOL     OW49432   5.079   6.031   7.266
15833SOL    HW149433   5.082   6.085   7.350
15833SOL    HW249434   5.140   5.953   7.275
15834SOL     OW49435   4.708   6.554   7.089
15834SOL    HW149436   4.742   6.463   7.066
15834SOL    HW249437   4.629   6.575   7.031
15835SOL     OW49438   4.736   5.980   6.727
15835SOL    HW149439   4.642   5.994   6.757
15835SOL    HW249440   4.738   5.910   6.656
15836SOL     OW49441   4.821   6.285   5.968
15836SOL    HW149442   4.871   6.278   6.054
15836SOL    HW249443   4.731   6.243   5.978
15837SOL     OW49444   3.826   6.432   6.385
15837SOL    HW149445   3.919   6.423   6.420
15837SOL    HW249446   3.771   6.485   6.450
15838SOL     OW49447   3.833   7.375   7.171
15838SOL    HW149448   3.815   7.388   7.269
15838SOL    HW249449   3.781   7.296   7.138
15839SOL     OW49450   4.581   5.944   5.791
15839SOL    HW149451   4.641   5.976   5.718
15839SOL    HW249452   4.515   5.879   5.754
15840SOL     OW49453   5.334   6.165   7.437
15840SOL    HW149454   5.351   6.255   7.397
15840SOL    HW249455   5.367   6.094   7.375
15841SOL     OW49456   5.099   6.788   6.114
15841SOL    HW149457   5.185   6.757   6.074
15841SOL    HW249458   5.048   6.841   6.046
15842SOL     OW49459   4.317   5.666   6.546
15842SOL    HW149460   4.325   5.712   6.634
15842SOL    HW249461   4.339   5.730   6.472
15843SOL     OW49462   4.707   7.056   6.074
15843SOL    HW149463   4.684   7.130   6.011
15843SOL    HW249464   4.669   7.076   6.165
15844SOL     OW49465   4.072   7.350   6.584
15844SOL    HW149466   4.095   7.259   6.548
15844SOL    HW249467   4.156   7.396   6.613
15845SOL     OW49468   5.501   6.670   6.533
15845SOL    HW149469   5.469   6.630   6.447
15845SOL    HW249470   5.426   6.675   6.598
15846SOL     OW49471   4.959   7.147   7.090
15846SOL    HW149472   4.929   7.071   7.148
15846SOL    HW249473   4.880   7.191   7.048
15847SOL     OW49474   4.051   6.548   5.918
15847SOL    HW149475   4.127   6.560   5.854
15847SOL    HW249476   4.054   6.456   5.957
15848SOL     OW49477   5.252   6.344   6.253
15848SOL    HW149478   5.232   6.295   6.338
15848SOL    HW249479   5.311   6.422   6.271
15849SOL     OW49480   4.210   6.867   7.333
15849SOL    HW149481   4.183   6.883   7.238
15849SOL    HW249482   4.133   6.830   7.384
15850SOL     OW49483   4.899   7.293   5.884
15850SOL    HW149484   4.801   7.298   5.905
15850SOL    HW249485   4.912   7.237   5.802
15851SOL     OW49486   3.876   5.785   7.079
15851SOL    HW149487   3.815   5.785   7.000
15851SOL    HW249488   3.863   5.701   7.131
15852SOL     OW49489   5.325   6.971   5.684
15852SOL    HW149490   5.293   7.064   5.667
15852SOL    HW249491   5.258   6.906   5.647
15853SOL     OW49492   4.282   7.356   5.882
15853SOL    HW149493   4.263   7.302   5.964
15853SOL    HW249494   4.335   7.301   5.818
15854SOL     OW49495   5.125   5.670   6.028
15854SOL    HW149496   5.127   5.653   5.929
15854SOL    HW249497   5.218   5.663   6.064
15855SOL     OW49498   4.655   7.281   6.473
15855SOL    HW149499   4.751   7.255   6.466
15855SOL    HW249500   4.602   7.233   6.403
15856SOL     OW49501   4.072   6.289   6.045
15856SOL    HW149502   4.097   6.193   6.052
15856SOL    HW249503   3.979   6.302   6.080
15857SOL     OW49504   5.221   5.758   7.312
15857SOL    HW149505   5.214   5.738   7.409
15857SOL    HW249506   5.158   5.700   7.261
15858SOL     OW49507   4.385   5.715   5.702
15858SOL    HW149508   4.430   5.633   5.738
15858SOL    HW249509   4.317   5.689   5.634
15859SOL     OW49510   4.472   5.779   7.275
15859SOL    HW149511   4.556   5.746   7.319
15859SOL    HW249512   4.394   5.727   7.310
15860SOL     OW49513   4.589   7.111   6.797
15860SOL    HW149514   4.574   7.079   6.704
15860SOL    HW249515   4.635   7.039   6.850
15861SOL     OW49516   5.002   6.169   7.037
15861SOL    HW149517   5.039   6.131   7.121
15861SOL    HW249518   5.042   6.260   7.022
15862SOL     OW49519   4.577   6.962   6.554
15862SOL    HW149520   4.668   6.967   6.513
15862SOL    HW249521   4.508   6.966   6.481
15863SOL     OW49522   4.626   6.139   6.456
15863SOL    HW149523   4.618   6.111   6.360
15863SOL    HW249524   4.687   6.076   6.504
15864SOL     OW49525   4.292   5.682   6.093
15864SOL    HW149526   4.214   5.675   6.155
15864SOL    HW249527   4.281   5.761   6.034
15865SOL     OW49528   5.133   6.790   5.604
15865SOL    HW149529   5.180   6.725   5.664
15865SOL    HW249530   5.044   6.813   5.643
15866SOL     OW49531   3.987   5.661   5.741
15866SOL    HW149532   4.025   5.739   5.691
15866SOL    HW249533   4.058   5.618   5.796
15867SOL     OW49534   4.691   5.847   6.023
15867SOL    HW149535   4.651   5.882   5.938
15867SOL    HW249536   4.790   5.856   6.019
15868SOL     OW49537   4.762   6.300   7.012
15868SOL    HW149538   4.681   6.244   7.027
15868SOL    HW249539   4.844   6.244   7.020
15869SOL     OW49540   4.919   7.238   6.425
15869SOL    HW149541   4.952   7.300   6.354
15869SOL    HW249542   4.967   7.256   6.511
15870SOL     OW49543   4.191   6.782   6.267
15870SOL    HW149544   4.136   6.748   6.343
15870SOL    HW249545   4.135   6.784   6.184
15871SOL     OW49546   4.978   7.458   6.251
15871SOL    HW149547   5.000   7.485   6.157
15871SOL    HW249548   4.883   7.480   6.271
15872SOL     OW49549   4.755   6.061   5.611
15872SOL    HW149550   4.722   6.150   5.578
15872SOL    HW249551   4.826   6.076   5.679
15873SOL     OW49552   3.815   6.189   6.937
15873SOL    HW149553   3.910   6.169   6.915
15873SOL    HW249554   3.811   6.255   7.013
15874SOL     OW49555   4.326   5.796   6.786
15874SOL    HW149556   4.369   5.762   6.869
15874SOL    HW249557   4.227   5.786   6.792
15875SOL     OW49558   4.618   6.056   6.197
15875SOL    HW149559   4.581   6.116   6.126
15875SOL    HW249560   4.647   5.969   6.156
15876SOL     OW49561   4.752   5.623   6.308
15876SOL    HW149562   4.681   5.625   6.238
15876SOL    HW249563   4.732   5.549   6.373
15877SOL     OW49564   5.206   6.802   6.452
15877SOL    HW149565   5.117   6.785   6.409
15877SOL    HW249566   5.275   6.815   6.381
15878SOL     OW49567   5.199   6.187   6.472
15878SOL    HW149568   5.113   6.138   6.487
15878SOL    HW249569   5.243   6.204   6.560
15879SOL     OW49570   5.578   6.371   5.953
15879SOL    HW149571   5.626   6.338   6.034
15879SOL    HW249572   5.586   6.303   5.880
15880SOL     OW49573   4.197   7.046   5.728
15880SOL    HW149574   4.110   7.031   5.774
15880SOL    HW249575   4.197   7.001   5.639
15881SOL     OW49576   5.391   6.892   6.255
15881SOL    HW149577   5.487   6.892   6.283
15881SOL    HW249578   5.355   6.985   6.257
15882SOL     OW49579   5.121   6.170   5.617
15882SOL    HW149580   5.072   6.131   5.695
15882SOL    HW249581   5.219   6.167   5.633
15883SOL     OW49582   4.250   5.865   5.897
15883SOL    HW149583   4.299   5.807   5.831
15883SOL    HW249584   4.217   5.947   5.851
15884SOL     OW49585   5.433   6.749   7.148
15884SOL    HW149586   5.527   6.754   7.117
15884SOL    HW249587   5.431   6.726   7.246
15885SOL     OW49588   4.721   6.909   6.922
15885SOL    HW149589   4.641   6.883   6.975
15885SOL    HW249590   4.804   6.886   6.973
15886SOL     OW49591   4.872   6.851   6.699
15886SOL    HW149592   4.802   6.867   6.768
15886SOL    HW249593   4.844   6.890   6.612
15887SOL     OW49594   5.277   6.709   6.701
15887SOL    HW149595   5.297   6.783   6.766
15887SOL    HW249596   5.247   6.748   6.614
15888SOL     OW49597   4.693   5.596   6.959
15888SOL    HW149598   4.713   5.582   6.862
15888SOL    HW249599   4.761   5.657   6.999
15889SOL     OW49600   4.666   6.748   7.272
15889SOL    HW149601   4.582   6.724   7.319
15889SOL    HW249602   4.689   6.676   7.206
15890SOL     OW49603   4.459   6.639   5.977
15890SOL    HW149604   4.434   6.613   6.070
15890SOL    HW249605   4.544   6.593   5.952
15891SOL     OW49606   4.162   6.405   6.869
15891SOL    HW149607   4.231   6.409   6.942
15891SOL    HW249608   4.126   6.312   6.863
15892SOL     OW49609   4.959   5.952   6.878
15892SOL    HW149610   4.978   6.035   6.932
15892SOL    HW249611   4.878   5.967   6.822
15893SOL     OW49612   3.797   7.140   6.961
15893SOL    HW149613   3.750   7.195   6.892
15893SOL    HW249614   3.896   7.143   6.943
15894SOL     OW49615   4.027   6.785   6.053
15894SOL    HW149616   4.021   6.859   5.985
15894SOL    HW249617   4.035   6.697   6.005
15895SOL     OW49618   4.222   6.147   6.435
15895SOL    HW149619   4.237   6.207   6.356
15895SOL    HW249620   4.298   6.158   6.499
15896SOL     OW49621   4.947   6.968   5.970
15896SOL    HW149622   5.013   7.038   5.995
15896SOL    HW249623   4.858   6.988   6.012
15897SOL     OW49624   5.039   7.051   6.786
15897SOL    HW149625   5.047   7.055   6.885
15897SOL    HW249626   4.980   6.974   6.761
15898SOL     OW49627   5.356   6.217   6.033
15898SOL    HW149628   5.309   6.255   6.112
15898SOL    HW249629   5.420   6.284   5.996
15899SOL     OW49630   4.061   7.112   6.902
15899SOL    HW149631   4.052   7.061   6.817
15899SOL    HW249632   4.152   7.154   6.907
15900SOL     OW49633   4.122   6.351   7.202
15900SOL    HW149634   4.210   6.381   7.163
15900SOL    HW249635   4.096   6.263   7.162
15901SOL     OW49636   5.365   6.403   7.305
15901SOL    HW149637   5.273   6.439   7.293
15901SOL    HW249638   5.414   6.407   7.218
15902SOL     OW49639   4.700   5.698   7.393
15902SOL    HW149640   4.759   5.771   7.359
15902SOL    HW249641   4.753   5.636   7.450
15903SOL     OW49642   4.261   5.630   7.368
15903SOL    HW149643   4.200   5.577   7.309
15903SOL    HW249644   4.209   5.702   7.414
15904SOL     OW49645   4.308   6.474   6.649
15904SOL    HW149646   4.352   6.564   6.655
15904SOL    HW249647   4.255   6.457   6.732
15905SOL     OW49648   4.940   6.089   5.814
15905SOL    HW149649   4.955   6.011   5.874
15905SOL    HW249650   4.904   6.166   5.866
15906SOL     OW49651   4.057   5.761   6.801
15906SOL    HW149652   4.050   5.809   6.889
15906SOL    HW249653   4.019   5.670   6.809
15907SOL     OW49654   3.793   6.874   6.878
15907SOL    HW149655   3.822   6.818   6.955
15907SOL    HW249656   3.788   6.970   6.906
15908SOL     OW49657   4.415   6.216   6.615
15908SOL    HW149658   4.492   6.202   6.552
15908SOL    HW249659   4.390   6.313   6.614
15909SOL     OW49660   5.446   6.645   7.410
15909SOL    HW149661   5.423   6.551   7.383
15909SOL    HW249662   5.391   6.670   7.489
15910SOL     OW49663   4.064   5.661   6.243
15910SOL    HW149664   4.021   5.749   6.263
15910SOL    HW249665   4.071   5.607   6.327
15911SOL     OW49666   5.389   5.988   5.889
15911SOL    HW149667   5.437   5.922   5.947
15911SOL    HW249668   5.361   6.066   5.944
15912SOL     OW49669   4.685   6.393   6.526
15912SOL    HW149670   4.671   6.394   6.625
15912SOL    HW249671   4.665   6.301   6.492
15913SOL     OW49672   4.697   7.206   7.265
15913SOL    HW149673   4.698   7.236   7.169
15913SOL    HW249674   4.726   7.110   7.269
15914SOL     OW49675   4.033   6.406   7.451
15914SOL    HW149676   4.107   6.448   7.504
15914SOL    HW249677   4.067   6.382   7.360
15915SOL     OW49678   5.259   5.853   5.680
15915SOL    HW149679   5.204   5.780   5.720
15915SOL    HW249680   5.304   5.905   5.753
15916SOL     OW49681   4.999   6.409   5.571
15916SOL    HW149682   5.039   6.318   5.585
15916SOL    HW249683   5.034   6.447   5.486
15917SOL     OW49684   4.831   6.975   6.454
15917SOL    HW149685   4.879   6.905   6.401
15917SOL    HW249686   4.871   7.065   6.436
15918SOL     OW49687   4.065   6.419   6.523
15918SOL    HW149688   4.159   6.439   6.548
15918SOL    HW249689   4.042   6.325   6.548
15919SOL     OW49690   4.006   6.138   6.585
15919SOL    HW149691   3.966   6.046   6.585
15919SOL    HW249692   4.085   6.140   6.523
15920SOL     OW49693   4.833   5.920   7.297
15920SOL    HW149694   4.783   5.976   7.363
15920SOL    HW249695   4.922   5.961   7.279
15921SOL     OW49696   4.873   5.769   7.067
15921SOL    HW149697   4.847   5.822   7.147
15921SOL    HW249698   4.909   5.830   6.996
15922SOL     OW49699   3.758   6.861   5.787
15922SOL    HW149700   3.668   6.891   5.759
15922SOL    HW249701   3.753   6.768   5.824
15923SOL     OW49702   3.802   7.360   6.567
15923SOL    HW149703   3.769   7.290   6.503
15923SOL    HW249704   3.902   7.357   6.570
15924SOL     OW49705   4.200   7.125   6.486
15924SOL    HW149706   4.270   7.191   6.514
15924SOL    HW249707   4.224   7.086   6.397
15925SOL     OW49708   4.626   6.376   6.786
15925SOL    HW149709   4.691   6.361   6.860
15925SOL    HW249710   4.542   6.325   6.805
15926SOL     OW49711   3.767   6.254   6.677
15926SOL    HW149712   3.847   6.222   6.626
15926SOL    HW249713   3.781   6.239   6.774
15927SOL     OW49714   5.143   6.526   7.221
15927SOL    HW149715   5.131   6.626   7.221
15927SOL    HW249716   5.112   6.489   7.133
15928SOL     OW49717   4.558   6.174   5.949
15928SOL    HW149718   4.562   6.092   5.893
15928SOL    HW249719   4.475   6.225   5.929
15929SOL     OW49720   5.332   6.211   6.707
15929SOL    HW149721   5.304   6.136   6.768
15929SOL    HW249722   5.430   6.206   6.691
15930SOL     OW49723   3.918   7.064   7.369
15930SOL    HW149724   3.868   7.101   7.447
15930SOL    HW249725   3.949   6.971   7.390
15931SOL     OW49726   4.473   6.026   6.798
15931SOL    HW149727   4.417   5.944   6.790
15931SOL    HW249728   4.443   6.094   6.731
15932SOL     OW49729   4.720   7.262   6.998
15932SOL    HW149730   4.675   7.209   6.926
15932SOL    HW249731   4.705   7.360   6.981
15933SOL     OW49732   4.171   6.078   5.752
15933SOL    HW149733   4.233   6.151   5.780
15933SOL    HW249734   4.078   6.116   5.741
15934SOL     OW49735   3.865   6.725   7.108
15934SOL    HW149736   3.867   6.683   7.199
15934SOL    HW249737   3.898   6.660   7.040
15935SOL     OW49738   5.025   6.655   6.815
15935SOL    HW149739   5.115   6.662   6.774
15935SOL    HW249740   4.960   6.712   6.765
15936SOL     OW49741   5.051   6.468   5.834
15936SOL    HW149742   4.986   6.421   5.894
15936SOL    HW249743   5.028   6.449   5.738
15937SOL     OW49744   5.022   7.301   6.671
15937SOL    HW149745   5.113   7.333   6.643
15937SOL    HW249746   5.031   7.219   6.727
15938SOL     OW49747   3.849   6.796   6.625
15938SOL    HW149748   3.823   6.824   6.717
15938SOL    HW249749   3.776   6.740   6.585
15939SOL     OW49750   4.455   7.264   7.377
15939SOL    HW149751   4.413   7.351   7.352
15939SOL    HW249752   4.547   7.259   7.339
15940SOL     OW49753   5.542   5.812   6.033
15940SOL    HW149754   5.609   5.776   5.968
15940SOL    HW249755   5.484   5.738   6.066
15941SOL     OW49756   5.107   7.183   6.043
15941SOL    HW149757   5.192   7.201   5.993
15941SOL    HW249758   5.033   7.236   6.002
15942SOL     OW49759   3.815   7.383   7.436
15942SOL    HW149760   3.779   7.298   7.475
15942SOL    HW249761   3.886   7.419   7.496
15943SOL     OW49762   4.467   6.874   7.023
15943SOL    HW149763   4.455   6.928   7.107
15943SOL    HW249764   4.394   6.896   6.959
15944SOL     OW49765   4.430   7.199   5.720
15944SOL    HW149766   4.456   7.218   5.625
15944SOL    HW249767   4.355   7.134   5.721
15945SOL     OW49768   5.581   5.751   6.568
15945SOL    HW149769   5.608   5.657   6.544
15945SOL    HW249770   5.490   5.770   6.531
15946SOL     OW49771   3.956   5.902   6.307
15946SOL    HW149772   3.871   5.946   6.277
15946SOL    HW249773   3.960   5.901   6.407
15947SOL     OW49774   4.934   7.151   5.655
15947SOL    HW149775   4.933   7.054   5.675
15947SOL    HW249776   4.851   7.175   5.604
15948SOL     OW49777   4.484   6.616   6.947
15948SOL    HW149778   4.498   6.624   6.848
15948SOL    HW249779   4.474   6.707   6.987
15949SOL     OW49780   4.684   6.517   5.897
15949SOL    HW149781   4.708   6.529   5.801
15949SOL    HW249782   4.734   6.438   5.934
15950SOL     OW49783   5.205   7.228   5.651
15950SOL    HW149784   5.109   7.200   5.641
15950SOL    HW249785   5.249   7.224   5.561
15951SOL     OW49786   4.088   6.908   7.097
15951SOL    HW149787   4.077   6.981   7.030
15951SOL    HW249788   4.007   6.848   7.095
15952SOL     OW49789   5.334   6.904   6.906
15952SOL    HW149790   5.368   6.844   6.979
15952SOL    HW249791   5.289   6.983   6.947
15953SOL     OW49792   4.777   5.795   6.528
15953SOL    HW149793   4.769   5.755   6.436
15953SOL    HW249794   4.776   5.721   6.596
15954SOL     OW49795   4.304   7.077   5.983
15954SOL    HW149796   4.384   7.018   5.973
15954SOL    HW249797   4.247   7.070   5.902
15955SOL     OW49798   5.512   5.920   7.015
15955SOL    HW149799   5.568   6.001   6.996
15955SOL    HW249800   5.529   5.851   6.945
15956SOL     OW49801   3.974   7.000   5.886
15956SOL    HW149802   3.891   6.959   5.848
15956SOL    HW249803   3.951   7.055   5.966
15957SOL     OW49804   3.848   6.598   7.360
15957SOL    HW149805   3.756   6.594   7.398
15957SOL    HW249806   3.902   6.521   7.395
15958SOL     OW49807   4.451   5.711   7.012
15958SOL    HW149808   4.539   5.674   6.984
15958SOL    HW249809   4.460   5.751   7.104
15959SOL     OW49810   3.881   5.977   5.438
15959SOL    HW149811   3.781   5.970   5.441
15959SOL    HW249812   3.907   6.074   5.436
15960SOL     OW49813   5.088   6.426   6.972
15960SOL    HW149814   5.026   6.492   6.927
15960SOL    HW249815   5.177   6.428   6.926
15961SOL     OW49816   3.735   5.713   5.829
15961SOL    HW149817   3.683   5.759   5.756
15961SOL    HW249818   3.830   5.702   5.800
15962SOL     OW49819   4.893   6.886   5.710
15962SOL    HW149820   4.796   6.868   5.699
15962SOL    HW249821   4.914   6.898   5.807
15963SOL     OW49822   4.356   6.400   7.057
15963SOL    HW149823   4.405   6.482   7.029
15963SOL    HW249824   4.418   6.322   7.054
15964SOL     OW49825   5.259   7.372   6.559
15964SOL    HW149826   5.238   7.439   6.488
15964SOL    HW249827   5.343   7.323   6.535
15965SOL     OW49828   4.509   6.049   7.259
15965SOL    HW149829   4.553   6.082   7.342
15965SOL    HW249830   4.494   5.950   7.266
15966SOL     OW49831   5.156   6.803   7.216
15966SOL    HW149832   5.144   6.832   7.311
15966SOL    HW249833   5.253   6.808   7.192
15967SOL     OW49834   4.084   7.299   7.306
15967SOL    HW149835   4.006   7.340   7.260
15967SOL    HW249836   4.061   7.206   7.335
15968SOL     OW49837   5.317   6.458   6.826
15968SOL    HW149838   5.323   6.376   6.770
15968SOL    HW249839   5.309   6.539   6.768
15969SOL     OW49840   4.962   5.891   6.011
15969SOL    HW149841   5.015   5.807   6.006
15969SOL    HW249842   4.989   5.943   6.092
15970SOL     OW49843   4.262   6.336   6.245
15970SOL    HW149844   4.309   6.424   6.237
15970SOL    HW249845   4.194   6.328   6.173
15971SOL     OW49846   5.412   5.958   7.269
15971SOL    HW149847   5.442   5.953   7.174
15971SOL    HW249848   5.347   5.884   7.287
15972SOL     OW49849   5.457   6.485   7.057
15972SOL    HW149850   5.439   6.579   7.086
15972SOL    HW249851   5.409   6.467   6.971
15973SOL     OW49852   4.606   6.919   5.688
15973SOL    HW149853   4.568   6.924   5.780
15973SOL    HW249854   4.616   7.011   5.651
15974SOL     OW49855   4.377   7.333   6.519
15974SOL    HW149856   4.357   7.389   6.438
15974SOL    HW249857   4.476   7.324   6.530
15975SOL     OW49858   4.537   6.609   6.449
15975SOL    HW149859   4.593   6.529   6.471
15975SOL    HW249860   4.504   6.651   6.534
15976SOL     OW49861   4.761   6.521   5.638
15976SOL    HW149862   4.736   6.594   5.574
15976SOL    HW249863   4.850   6.483   5.613
15977SOL     OW49864   5.472   7.206   6.457
15977SOL    HW149865   5.408   7.181   6.385
15977SOL    HW249866   5.466   7.139   6.532
15978SOL     OW49867   3.986   6.809   7.461
15978SOL    HW149868   3.929   6.732   7.431
15978SOL    HW249869   3.969   6.827   7.558
15979SOL     OW49870   3.851   6.837   6.260
15979SOL    HW149871   3.893   6.791   6.339
15979SOL    HW249872   3.905   6.821   6.178
15980SOL     OW49873   4.417   7.023   7.244
15980SOL    HW149874   4.340   6.972   7.283
15980SOL    HW249875   4.424   7.112   7.288
15981SOL     OW49876   5.564   5.725   6.839
15981SOL    HW149877   5.582   5.628   6.853
15981SOL    HW249878   5.570   5.748   6.742
15982SOL     OW49879   4.111   6.026   6.092
15982SOL    HW149880   4.158   5.958   6.037
15982SOL    HW249881   4.070   5.982   6.172
15983SOL     OW49882   5.408   7.038   6.663
15983SOL    HW149883   5.316   7.050   6.626
15983SOL    HW249884   5.403   6.994   6.753
15984SOL     OW49885   4.071   6.148   6.859
15984SOL    HW149886   4.095   6.064   6.907
15984SOL    HW249887   4.064   6.130   6.761
15985SOL     OW49888   4.525   7.183   6.258
15985SOL    HW149889   4.512   7.265   6.203
15985SOL    HW249890   4.442   7.127   6.257
15986SOL     OW49891   5.148   5.856   6.703
15986SOL    HW149892   5.174   5.762   6.724
15986SOL    HW249893   5.085   5.889   6.774
15987SOL     OW49894   4.765   5.570   6.691
15987SOL    HW149895   4.727   5.509   6.622
15987SOL    HW249896   4.862   5.549   6.704
15988SOL     OW49897   4.512   6.907   5.945
15988SOL    HW149898   4.493   6.810   5.958
15988SOL    HW249899   4.590   6.934   6.001
15989SOL     OW49900   4.328   7.199   6.865
15989SOL    HW149901   4.310   7.296   6.883
15989SOL    HW249902   4.426   7.186   6.848
15990SOL     OW49903   5.115   5.631   5.760
15990SOL    HW149904   5.164   5.555   5.717
15990SOL    HW249905   5.020   5.606   5.774
15991SOL     OW49906   5.046   6.020   6.232
15991SOL    HW149907   5.019   6.115   6.216
15991SOL    HW249908   5.026   5.996   6.328
15992SOL     OW49909   5.328   5.807   6.495
15992SOL    HW149910   5.264   5.842   6.564
15992SOL    HW249911   5.330   5.869   6.417
15993SOL     OW49912   3.774   6.608   5.907
15993SOL    HW149913   3.873   6.594   5.902
15993SOL    HW249914   3.728   6.520   5.913
15994SOL     OW49915   4.621   7.269   5.924
15994SOL    HW149916   4.559   7.244   5.849
15994SOL    HW249917   4.574   7.333   5.985
15995SOL     OW49918   3.926   6.172   7.569
15995SOL    HW149919   3.829   6.182   7.593
15995SOL    HW249920   3.958   6.256   7.525
15996SOL     OW49921   3.945   5.863   8.466
15996SOL    HW149922   3.994   5.834   8.549
15996SOL    HW249923   3.854   5.822   8.465
15997SOL     OW49924   3.708   6.015   8.089
15997SOL    HW149925   3.620   6.031   8.134
15997SOL    HW249926   3.695   5.953   8.011
15998SOL     OW49927   4.236   6.791   8.662
15998SOL    HW149928   4.177   6.835   8.594
15998SOL    HW249929   4.198   6.806   8.753
15999SOL     OW49930   5.304   7.122   8.121
15999SOL    HW149931   5.246   7.103   8.200
15999SOL    HW249932   5.250   7.120   8.038
16000SOL     OW49933   4.872   6.274   8.118
16000SOL    HW149934   4.924   6.358   8.104
16000SOL    HW249935   4.808   6.285   8.194
16001SOL     OW49936   4.445   6.673   8.544
16001SOL    HW149937   4.364   6.706   8.592
16001SOL    HW249938   4.488   6.749   8.495
16002SOL     OW49939   4.662   6.333   9.223
16002SOL    HW149940   4.678   6.405   9.290
16002SOL    HW249941   4.716   6.352   9.140
16003SOL     OW49942   4.428   6.525   8.097
16003SOL    HW149943   4.493   6.528   8.172
16003SOL    HW249944   4.351   6.586   8.117
16004SOL     OW49945   4.442   6.740   9.264
16004SOL    HW149946   4.507   6.807   9.299
16004SOL    HW249947   4.371   6.787   9.211
16005SOL     OW49948   4.079   6.940   8.479
16005SOL    HW149949   3.995   6.892   8.455
16005SOL    HW249950   4.140   6.945   8.400
16006SOL     OW49951   5.161   7.093   8.810
16006SOL    HW149952   5.215   7.174   8.831
16006SOL    HW249953   5.082   7.088   8.872
16007SOL     OW49954   4.166   5.987   9.010
16007SOL    HW149955   4.247   5.938   9.042
16007SOL    HW249956   4.090   5.922   8.998
16008SOL     OW49957   5.272   6.006   8.232
16008SOL    HW149958   5.189   6.001   8.177
16008SOL    HW249959   5.264   6.083   8.296
16009SOL     OW49960   3.963   7.308   7.913
16009SOL    HW149961   3.981   7.374   7.986
16009SOL    HW249962   4.039   7.311   7.847
16010SOL     OW49963   4.850   6.901   9.145
16010SOL    HW149964   4.901   6.888   9.230
16010SOL    HW249965   4.790   6.823   9.129
16011SOL     OW49966   3.984   7.038   7.954
16011SOL    HW149967   3.972   7.137   7.946
16011SOL    HW249968   3.937   7.005   8.036
16012SOL     OW49969   4.061   6.652   8.364
16012SOL    HW149970   4.059   6.555   8.385
16012SOL    HW249971   3.976   6.695   8.396
16013SOL     OW49972   4.334   7.343   8.919
16013SOL    HW149973   4.252   7.338   8.977
16013SOL    HW249974   4.356   7.439   8.900
16014SOL     OW49975   4.301   6.563   7.648
16014SOL    HW149976   4.336   6.606   7.565
16014SOL    HW249977   4.366   6.578   7.723
16015SOL     OW49978   5.280   5.717   8.844
16015SOL    HW149979   5.374   5.738   8.817
16015SOL    HW249980   5.265   5.749   8.937
16016SOL     OW49981   3.813   6.271   8.026
16016SOL    HW149982   3.782   6.179   8.046
16016SOL    HW249983   3.824   6.323   8.111
16017SOL     OW49984   5.601   7.326   7.754
16017SOL    HW149985   5.684   7.313   7.808
16017SOL    HW249986   5.599   7.419   7.717
16018SOL     OW49987   3.758   7.152   7.571
16018SOL    HW149988   3.724   7.061   7.594
16018SOL    HW249989   3.748   7.212   7.650
16019SOL     OW49990   5.474   6.461   8.122
16019SOL    HW149991   5.567   6.442   8.155
16019SOL    HW249992   5.474   6.462   8.022
16020SOL     OW49993   5.368   6.747   7.885
16020SOL    HW149994   5.454   6.714   7.845
16020SOL    HW249995   5.387   6.797   7.969
16021SOL     OW49996   3.851   6.348   9.010
16021SOL    HW149997   3.930   6.405   9.032
16021SOL    HW249998   3.769   6.406   9.007
16022SOL     OW49999   4.340   6.929   8.217
16022SOL    HW150000   4.304   6.836   8.204
16022SOL    HW250001   4.333   6.979   8.130
16023SOL     OW50002   4.978   6.772   8.855
16023SOL    HW150003   5.001   6.708   8.781
16023SOL    HW250004   5.048   6.769   8.925
16024SOL     OW50005   4.558   5.618   7.961
16024SOL    HW150006   4.599   5.707   7.942
16024SOL    HW250007   4.460   5.628   7.976
16025SOL     OW50008   3.928   6.527   8.750
16025SOL    HW150009   4.019   6.484   8.747
16025SOL    HW250010   3.870   6.484   8.681
16026SOL     OW50011   5.273   6.682   7.632
16026SOL    HW150012   5.227   6.594   7.646
16026SOL    HW250013   5.302   6.719   7.721
16027SOL     OW50014   4.929   7.448   9.074
16027SOL    HW150015   4.901   7.510   9.000
16027SOL    HW250016   4.933   7.355   9.039
16028SOL     OW50017   4.081   5.858   9.327
16028SOL    HW150018   4.117   5.936   9.377
16028SOL    HW250019   3.990   5.881   9.291
16029SOL     OW50020   5.157   7.035   8.337
16029SOL    HW150021   5.106   7.047   8.422
16029SOL    HW250022   5.166   6.937   8.316
16030SOL     OW50023   5.354   7.405   7.946
16030SOL    HW150024   5.356   7.341   7.869
16030SOL    HW250025   5.369   7.354   8.031
16031SOL     OW50026   4.282   6.293   7.742
16031SOL    HW150027   4.294   6.385   7.705
16031SOL    HW250028   4.209   6.293   7.810
16032SOL     OW50029   5.004   5.972   8.425
16032SOL    HW150030   4.919   5.922   8.408
16032SOL    HW250031   5.051   5.933   8.503
16033SOL     OW50032   5.354   7.206   7.738
16033SOL    HW150033   5.447   7.244   7.740
16033SOL    HW250034   5.345   7.143   7.661
16034SOL     OW50035   4.760   6.223   7.872
16034SOL    HW150036   4.795   6.230   7.965
16034SOL    HW250037   4.665   6.193   7.874
16035SOL     OW50038   3.830   6.426   8.247
16035SOL    HW150039   3.916   6.413   8.297
16035SOL    HW250040   3.770   6.487   8.300
16036SOL     OW50041   3.859   7.449   9.077
16036SOL    HW150042   3.861   7.417   9.171
16036SOL    HW250043   3.783   7.406   9.028
16037SOL     OW50044   4.562   5.938   7.673
16037SOL    HW150045   4.617   5.981   7.601
16037SOL    HW250046   4.514   5.858   7.636
16038SOL     OW50047   5.448   6.157   9.210
16038SOL    HW150048   5.386   6.216   9.160
16038SOL    HW250049   5.456   6.069   9.162
16039SOL     OW50050   5.106   6.733   7.995
16039SOL    HW150051   5.194   6.728   7.947
16039SOL    HW250052   5.043   6.792   7.944
16040SOL     OW50053   4.266   5.721   8.437
16040SOL    HW150054   4.294   5.752   8.528
16040SOL    HW250055   4.257   5.801   8.376
16041SOL     OW50056   4.713   7.032   7.928
16041SOL    HW150057   4.686   7.105   7.865
16041SOL    HW250058   4.677   7.051   8.019
16042SOL     OW50059   4.124   7.441   8.359
16042SOL    HW150060   4.200   7.386   8.393
16042SOL    HW250061   4.149   7.538   8.364
16043SOL     OW50062   5.531   6.638   8.340
16043SOL    HW150063   5.490   6.595   8.259
16043SOL    HW250064   5.460   6.654   8.409
16044SOL     OW50065   4.929   7.083   8.952
16044SOL    HW150066   4.920   7.019   9.028
16044SOL    HW250067   4.863   7.059   8.880
16045SOL     OW50068   4.043   6.588   7.757
16045SOL    HW150069   4.134   6.591   7.715
16045SOL    HW250070   4.016   6.493   7.773
16046SOL     OW50071   5.231   6.346   8.167
16046SOL    HW150072   5.226   6.294   8.252
16046SOL    HW250073   5.322   6.386   8.158
16047SOL     OW50074   4.236   6.876   9.133
16047SOL    HW150075   4.201   6.868   9.039
16047SOL    HW250076   4.160   6.883   9.197
16048SOL     OW50077   4.840   7.364   7.689
16048SOL    HW150078   4.759   7.330   7.737
16048SOL    HW250079   4.857   7.307   7.608
16049SOL     OW50080   3.950   5.831   8.957
16049SOL    HW150081   3.873   5.893   8.947
16049SOL    HW250082   3.921   5.748   9.006
16050SOL     OW50083   5.345   7.020   7.523
16050SOL    HW150084   5.370   7.052   7.432
16050SOL    HW250085   5.260   6.966   7.517
16051SOL     OW50086   4.192   7.326   7.757
16051SOL    HW150087   4.233   7.386   7.826
16051SOL    HW250088   4.264   7.272   7.712
16052SOL     OW50089   5.089   5.656   7.870
16052SOL    HW150090   5.098   5.643   7.771
16052SOL    HW250091   5.175   5.631   7.914
16053SOL     OW50092   3.983   7.368   8.650
16053SOL    HW150093   4.026   7.279   8.666
16053SOL    HW250094   3.941   7.368   8.559
16054SOL     OW50095   4.735   7.322   8.148
16054SOL    HW150096   4.801   7.265   8.198
16054SOL    HW250097   4.652   7.268   8.131
16055SOL     OW50098   4.078   6.264   7.926
16055SOL    HW150099   4.092   6.165   7.934
16055SOL    HW250100   3.985   6.288   7.955
16056SOL     OW50101   5.226   5.808   9.109
16056SOL    HW150102   5.230   5.793   9.208
16056SOL    HW250103   5.137   5.849   9.086
16057SOL     OW50104   4.423   5.706   7.611
16057SOL    HW150105   4.496   5.643   7.636
16057SOL    HW250106   4.377   5.673   7.528
16058SOL     OW50107   4.539   5.742   9.149
16058SOL    HW150108   4.638   5.741   9.131
16058SOL    HW250109   4.523   5.736   9.247
16059SOL     OW50110   4.531   7.022   8.662
16059SOL    HW150111   4.520   6.981   8.571
16059SOL    HW250112   4.623   7.005   8.696
16060SOL     OW50113   5.148   6.198   8.844
16060SOL    HW150114   5.209   6.204   8.923
16060SOL    HW250115   5.131   6.290   8.808
16061SOL     OW50116   4.526   6.904   8.415
16061SOL    HW150117   4.615   6.916   8.371
16061SOL    HW250118   4.453   6.913   8.346
16062SOL     OW50119   4.662   6.069   8.346
16062SOL    HW150120   4.630   6.061   8.251
16062SOL    HW250121   4.696   5.980   8.377
16063SOL     OW50122   4.286   5.653   7.969
16063SOL    HW150123   4.208   5.648   8.032
16063SOL    HW250124   4.275   5.733   7.910
16064SOL     OW50125   5.125   6.859   7.484
16064SOL    HW150126   5.167   6.786   7.538
16064SOL    HW250127   5.033   6.878   7.521
16065SOL     OW50128   4.058   5.600   7.663
16065SOL    HW150129   4.107   5.680   7.629
16065SOL    HW250130   4.121   5.542   7.715
16066SOL     OW50131   4.675   5.854   7.908
16066SOL    HW150132   4.640   5.888   7.821
16066SOL    HW250133   4.775   5.863   7.909
16067SOL     OW50134   4.936   7.131   8.200
16067SOL    HW150135   4.962   7.186   8.121
16067SOL    HW250136   5.018   7.104   8.251
16068SOL     OW50137   4.224   6.692   8.158
16068SOL    HW150138   4.171   6.671   8.240
16068SOL    HW250139   4.162   6.712   8.082
16069SOL     OW50140   4.977   7.320   8.000
16069SOL    HW150141   5.020   7.404   7.967
16069SOL    HW250142   4.881   7.338   8.023
16070SOL     OW50143   4.726   6.075   7.500
16070SOL    HW150144   4.700   6.171   7.496
16070SOL    HW250145   4.800   6.063   7.567
16071SOL     OW50146   3.859   6.157   8.816
16071SOL    HW150147   3.955   6.141   8.795
16071SOL    HW250148   3.851   6.230   8.884
16072SOL     OW50149   4.323   5.813   8.694
16072SOL    HW150150   4.374   5.765   8.766
16072SOL    HW250151   4.225   5.797   8.706
16073SOL     OW50152   4.584   6.041   8.090
16073SOL    HW150153   4.523   6.097   8.033
16073SOL    HW250154   4.619   5.965   8.035
16074SOL     OW50155   4.728   5.598   8.176
16074SOL    HW150156   4.666   5.607   8.099
16074SOL    HW250157   4.690   5.534   8.243
16075SOL     OW50158   5.221   6.782   8.258
16075SOL    HW150159   5.158   6.751   8.186
16075SOL    HW250160   5.309   6.806   8.216
16076SOL     OW50161   5.186   6.205   8.411
16076SOL    HW150162   5.119   6.135   8.433
16076SOL    HW250163   5.253   6.211   8.485
16077SOL     OW50164   5.473   6.425   7.845
16077SOL    HW150165   5.495   6.328   7.856
16077SOL    HW250166   5.379   6.435   7.811
16078SOL     OW50167   4.201   6.995   7.589
16078SOL    HW150168   4.114   6.973   7.632
16078SOL    HW250169   4.205   6.954   7.498
16079SOL     OW50170   5.434   6.879   8.113
16079SOL    HW150171   5.533   6.880   8.125
16079SOL    HW250172   5.401   6.973   8.108
16080SOL     OW50173   5.074   6.160   7.512
16080SOL    HW150174   5.040   6.112   7.593
16080SOL    HW250175   5.174   6.159   7.511
16081SOL     OW50176   4.257   5.849   7.784
16081SOL    HW150177   4.322   5.801   7.725
16081SOL    HW250178   4.224   5.931   7.738
16082SOL     OW50179   5.447   6.805   8.953
16082SOL    HW150180   5.533   6.765   8.922
16082SOL    HW250181   5.464   6.893   8.997
16083SOL     OW50182   4.759   6.916   8.791
16083SOL    HW150183   4.681   6.897   8.851
16083SOL    HW250184   4.838   6.862   8.821
16084SOL     OW50185   5.333   7.198   9.127
16084SOL    HW150186   5.306   7.254   9.049
16084SOL    HW250187   5.412   7.142   9.101
16085SOL     OW50188   4.871   6.848   8.548
16085SOL    HW150189   4.811   6.869   8.626
16085SOL    HW250190   4.825   6.876   8.463
16086SOL     OW50191   5.324   6.692   8.510
16086SOL    HW150192   5.313   6.758   8.584
16086SOL    HW250193   5.267   6.718   8.433
16087SOL     OW50194   4.689   5.555   8.812
16087SOL    HW150195   4.709   5.563   8.715
16087SOL    HW250196   4.775   5.549   8.864
16088SOL     OW50197   4.682   6.676   9.129
16088SOL    HW150198   4.588   6.691   9.161
16088SOL    HW250199   4.681   6.615   9.049
16089SOL     OW50200   4.496   6.593   7.840
16089SOL    HW150201   4.475   6.562   7.932
16089SOL    HW250202   4.574   6.542   7.804
16090SOL     OW50203   4.167   6.386   8.744
16090SOL    HW150204   4.218   6.419   8.823
16090SOL    HW250205   4.150   6.288   8.753
16091SOL     OW50206   4.968   6.003   8.802
16091SOL    HW150207   5.034   6.078   8.810
16091SOL    HW250208   4.877   6.041   8.784
16092SOL     OW50209   3.808   7.126   8.766
16092SOL    HW150210   3.763   7.202   8.719
16092SOL    HW250211   3.906   7.128   8.746
16093SOL     OW50212   4.042   6.760   7.972
16093SOL    HW150213   4.037   6.855   7.940
16093SOL    HW250214   4.040   6.699   7.893
16094SOL     OW50215   4.235   6.101   8.309
16094SOL    HW150216   4.253   6.157   8.228
16094SOL    HW250217   4.309   6.113   8.375
16095SOL     OW50218   4.956   6.929   7.846
16095SOL    HW150219   5.027   6.997   7.864
16095SOL    HW250220   4.869   6.961   7.884
16096SOL     OW50221   5.034   7.064   8.572
16096SOL    HW150222   5.080   7.076   8.659
16096SOL    HW250223   4.978   6.981   8.575
16097SOL     OW50224   5.228   6.270   7.894
16097SOL    HW150225   5.211   6.288   7.990
16097SOL    HW250226   5.311   6.214   7.884
16098SOL     OW50227   4.072   7.105   8.693
16098SOL    HW150228   4.066   7.043   8.614
16098SOL    HW250229   4.166   7.137   8.703
16099SOL     OW50230   4.069   6.482   9.090
16099SOL    HW150231   4.158   6.484   9.044
16099SOL    HW250232   4.082   6.505   9.186
16100SOL     OW50233   5.286   6.316   9.059
16100SOL    HW150234   5.206   6.370   9.086
16100SOL    HW250235   5.357   6.377   9.024
16101SOL     OW50236   4.805   5.726   9.097
16101SOL    HW150237   4.872   5.799   9.086
16101SOL    HW250238   4.842   5.641   9.058
16102SOL     OW50239   4.213   5.650   9.212
16102SOL    HW150240   4.155   5.592   9.155
16102SOL    HW250241   4.160   5.728   9.245
16103SOL     OW50242   4.316   6.424   8.517
16103SOL    HW150243   4.362   6.513   8.520
16103SOL    HW250244   4.263   6.412   8.601
16104SOL     OW50245   5.004   6.424   8.407
16104SOL    HW150246   5.008   6.466   8.316
16104SOL    HW250247   5.072   6.351   8.413
16105SOL     OW50248   4.910   6.061   7.711
16105SOL    HW150249   4.934   5.987   7.773
16105SOL    HW250250   4.861   6.132   7.762
16106SOL     OW50251   4.054   5.771   8.710
16106SOL    HW150252   4.019   5.803   8.798
16106SOL    HW250253   4.028   5.675   8.697
16107SOL     OW50254   3.808   6.863   8.684
16107SOL    HW150255   3.829   6.805   8.762
16107SOL    HW250256   3.795   6.958   8.715
16108SOL     OW50257   4.434   6.171   8.481
16108SOL    HW150258   4.518   6.159   8.427
16108SOL    HW250259   4.410   6.268   8.483
16109SOL     OW50260   5.493   6.551   9.303
16109SOL    HW150261   5.511   6.460   9.339
16109SOL    HW250262   5.423   6.595   9.359
16110SOL     OW50263   4.051   5.638   8.117
16110SOL    HW150264   4.007   5.727   8.128
16110SOL    HW250265   4.058   5.593   8.206
16111SOL     OW50266   4.743   6.327   8.359
16111SOL    HW150267   4.830   6.347   8.404
16111SOL    HW250268   4.721   6.230   8.370
16112SOL     OW50269   4.725   7.142   9.204
16112SOL    HW150270   4.682   7.196   9.132
16112SOL    HW250271   4.760   7.057   9.166
16113SOL     OW50272   5.547   7.056   9.026
16113SOL    HW150273   5.566   7.081   8.931
16113SOL    HW250274   5.626   7.080   9.083
16114SOL     OW50275   4.772   6.933   8.306
16114SOL    HW150276   4.789   6.846   8.260
16114SOL    HW250277   4.824   7.005   8.261
16115SOL     OW50278   4.060   6.387   8.405
16115SOL    HW150279   4.157   6.394   8.428
16115SOL    HW250280   4.030   6.292   8.417
16116SOL     OW50281   3.996   6.123   8.425
16116SOL    HW150282   3.966   6.031   8.448
16116SOL    HW250283   4.082   6.119   8.374
16117SOL     OW50284   3.697   6.893   7.638
16117SOL    HW150285   3.605   6.914   7.605
16117SOL    HW250286   3.702   6.796   7.663
16118SOL     OW50287   3.848   7.376   8.408
16118SOL    HW150288   3.799   7.309   8.352
16118SOL    HW250289   3.938   7.393   8.369
16119SOL     OW50290   3.768   6.212   8.564
16119SOL    HW150291   3.842   6.191   8.500
16119SOL    HW250292   3.799   6.193   8.658
16120SOL     OW50293   3.967   6.140   9.148
16120SOL    HW150294   4.050   6.110   9.100
16120SOL    HW250295   3.926   6.217   9.099
16121SOL     OW50296   5.058   6.499   9.045
16121SOL    HW150297   5.093   6.590   9.067
16121SOL    HW250298   5.080   6.477   8.950
16122SOL     OW50299   4.500   6.150   7.840
16122SOL    HW150300   4.510   6.071   7.778
16122SOL    HW250301   4.422   6.205   7.809
16123SOL     OW50302   5.386   6.219   8.604
16123SOL    HW150303   5.373   6.155   8.680
16123SOL    HW250304   5.484   6.231   8.588
16124SOL     OW50305   3.953   7.128   9.161
16124SOL    HW150306   3.927   7.198   9.227
16124SOL    HW250307   3.979   7.044   9.209
16125SOL     OW50308   4.510   6.021   8.692
16125SOL    HW150309   4.451   5.940   8.698
16125SOL    HW250310   4.481   6.078   8.615
16126SOL     OW50311   4.600   7.306   9.011
16126SOL    HW150312   4.508   7.279   8.983
16126SOL    HW250313   4.638   7.370   8.943
16127SOL     OW50314   4.175   6.064   7.632
16127SOL    HW150315   4.231   6.141   7.663
16127SOL    HW250316   4.082   6.095   7.614
16128SOL     OW50317   3.867   6.724   8.924
16128SOL    HW150318   3.876   6.702   9.021
16128SOL    HW250319   3.892   6.644   8.870
16129SOL     OW50320   4.986   6.610   8.611
16129SOL    HW150321   4.987   6.544   8.535
16129SOL    HW250322   4.944   6.695   8.581
16130SOL     OW50323   5.153   6.449   7.694
16130SOL    HW150324   5.163   6.376   7.762
16130SOL    HW250325   5.076   6.428   7.634
16131SOL     OW50326   5.453   7.286   8.618
16131SOL    HW150327   5.520   7.328   8.557
16131SOL    HW250328   5.423   7.199   8.580
16132SOL     OW50329   4.934   7.321   8.529
16132SOL    HW150330   5.018   7.375   8.521
16132SOL    HW250331   4.958   7.224   8.542
16133SOL     OW50332   3.837   6.796   8.426
16133SOL    HW150333   3.821   6.822   8.521
16133SOL    HW250334   3.766   6.733   8.396
16134SOL     OW50335   4.436   7.319   9.240
16134SOL    HW150336   4.372   7.395   9.228
16134SOL    HW250337   4.514   7.331   9.180
16135SOL     OW50338   5.493   5.739   7.982
16135SOL    HW150339   5.538   5.719   7.895
16135SOL    HW250340   5.422   5.671   7.999
16136SOL     OW50341   5.143   7.127   7.900
16136SOL    HW150342   5.210   7.156   7.832
16136SOL    HW250343   5.081   7.202   7.921
16137SOL     OW50344   3.883   7.339   9.324
16137SOL    HW150345   3.841   7.266   9.379
16137SOL    HW250346   3.929   7.404   9.384
16138SOL     OW50347   5.022   6.512   8.134
16138SOL    HW150348   5.102   6.452   8.139
16138SOL    HW250349   5.043   6.590   8.075
16139SOL     OW50350   4.514   6.899   8.912
16139SOL    HW150351   4.490   6.955   8.990
16139SOL    HW250352   4.482   6.942   8.828
16140SOL     OW50353   4.391   7.177   7.624
16140SOL    HW150354   4.412   7.214   7.533
16140SOL    HW250355   4.322   7.106   7.616
16141SOL     OW50356   5.309   7.319   8.858
16141SOL    HW150357   5.371   7.312   8.780
16141SOL    HW250358   5.290   7.415   8.878
16142SOL     OW50359   5.543   5.742   8.462
16142SOL    HW150360   5.573   5.655   8.423
16142SOL    HW250361   5.449   5.761   8.434
16143SOL     OW50362   3.942   5.882   8.176
16143SOL    HW150363   3.861   5.935   8.149
16143SOL    HW250364   3.954   5.888   8.275
16144SOL     OW50365   4.875   7.204   7.480
16144SOL    HW150366   4.881   7.109   7.510
16144SOL    HW250367   4.816   7.211   7.400
16145SOL     OW50368   4.497   6.633   8.845
16145SOL    HW150369   4.496   6.632   8.745
16145SOL    HW250370   4.500   6.727   8.878
16146SOL     OW50371   4.711   6.450   7.738
16146SOL    HW150372   4.797   6.486   7.701
16146SOL    HW250373   4.730   6.369   7.793
16147SOL     OW50374   4.100   6.880   8.889
16147SOL    HW150375   4.077   6.966   8.842
16147SOL    HW250376   4.016   6.828   8.904
16148SOL     OW50377   5.309   6.880   8.717
16148SOL    HW150378   5.363   6.843   8.793
16148SOL    HW250379   5.248   6.952   8.752
16149SOL     OW50380   4.806   6.684   8.213
16149SOL    HW150381   4.724   6.635   8.244
16149SOL    HW250382   4.874   6.618   8.181
16150SOL     OW50383   4.784   5.806   8.380
16150SOL    HW150384   4.772   5.756   8.294
16150SOL    HW250385   4.775   5.743   8.456
16151SOL     OW50386   4.333   7.038   7.961
16151SOL    HW150387   4.386   6.977   7.902
16151SOL    HW250388   4.246   7.061   7.917
16152SOL     OW50389   5.494   6.008   8.822
16152SOL    HW150390   5.577   6.064   8.829
16152SOL    HW250391   5.517   5.920   8.782
16153SOL     OW50392   3.956   6.929   7.708
16153SOL    HW150393   3.859   6.923   7.686
16153SOL    HW250394   3.967   6.977   7.795
16154SOL     OW50395   3.864   6.688   9.206
16154SOL    HW150396   3.776   6.677   9.252
16154SOL    HW250397   3.933   6.633   9.253
16155SOL     OW50398   4.460   5.686   8.895
16155SOL    HW150399   4.543   5.645   8.856
16155SOL    HW250400   4.479   5.716   8.989
16156SOL     OW50401   3.871   5.903   7.535
16156SOL    HW150402   3.832   5.896   7.443
16156SOL    HW250403   3.888   5.999   7.557
16157SOL     OW50404   5.124   6.464   8.787
16157SOL    HW150405   5.065   6.512   8.722
16157SOL    HW250406   5.220   6.475   8.759
16158SOL     OW50407   3.819   5.713   7.724
16158SOL    HW150408   3.816   5.786   7.656
16158SOL    HW250409   3.907   5.667   7.719
16159SOL     OW50410   4.871   6.936   7.575
16159SOL    HW150411   4.773   6.917   7.568
16159SOL    HW250412   4.899   6.929   7.671
16160SOL     OW50413   4.310   6.468   8.958
16160SOL    HW150414   4.381   6.529   8.922
16160SOL    HW250415   4.353   6.398   9.016
16161SOL     OW50416   5.191   7.437   8.516
16161SOL    HW150417   5.227   7.490   8.438
16161SOL    HW250418   5.267   7.394   8.564
16162SOL     OW50419   4.418   6.280   9.118
16162SOL    HW150420   4.506   6.301   9.160
16162SOL    HW250421   4.387   6.190   9.149
16163SOL     OW50422   5.179   6.746   9.060
16163SOL    HW150423   5.170   6.776   9.155
16163SOL    HW250424   5.270   6.770   9.026
16164SOL     OW50425   4.114   7.345   9.081
16164SOL    HW150426   4.031   7.397   9.059
16164SOL    HW250427   4.089   7.251   9.105
16165SOL     OW50428   5.375   6.486   8.691
16165SOL    HW150429   5.386   6.396   8.649
16165SOL    HW250430   5.368   6.556   8.619
16166SOL     OW50431   4.947   5.884   7.917
16166SOL    HW150432   5.002   5.801   7.903
16166SOL    HW250433   4.976   5.930   8.000
16167SOL     OW50434   4.288   6.282   8.112
16167SOL    HW150435   4.343   6.365   8.103
16167SOL    HW250436   4.213   6.285   8.046
16168SOL     OW50437   5.473   5.917   9.078
16168SOL    HW150438   5.475   5.953   8.985
16168SOL    HW250439   5.384   5.874   9.096
16169SOL     OW50440   5.461   6.496   8.952
16169SOL    HW150441   5.450   6.589   8.987
16169SOL    HW250442   5.441   6.494   8.854
16170SOL     OW50443   4.584   6.925   7.573
16170SOL    HW150444   4.549   6.905   7.665
16170SOL    HW250445   4.550   7.014   7.543
16171SOL     OW50446   4.591   6.546   8.318
16171SOL    HW150447   4.640   6.461   8.337
16171SOL    HW250448   4.541   6.575   8.401
16172SOL     OW50449   5.511   7.163   8.298
16172SOL    HW150450   5.446   7.156   8.222
16172SOL    HW250451   5.479   7.106   8.374
16173SOL     OW50452   4.019   6.898   9.292
16173SOL    HW150453   3.955   6.828   9.260
16173SOL    HW250454   4.023   6.897   9.391
16174SOL     OW50455   3.867   6.884   8.158
16174SOL    HW150456   3.858   6.859   8.254
16174SOL    HW250457   3.923   6.815   8.111
16175SOL     OW50458   4.430   7.063   9.112
16175SOL    HW150459   4.351   7.003   9.129
16175SOL    HW250460   4.421   7.145   9.168
16176SOL     OW50461   5.539   5.750   8.736
16176SOL    HW150462   5.612   5.687   8.761
16176SOL    HW250463   5.532   5.756   8.636
16177SOL     OW50464   4.098   6.000   7.968
16177SOL    HW150465   4.155   5.933   7.920
16177SOL    HW250466   4.053   5.956   8.045
16178SOL     OW50467   5.378   7.050   8.509
16178SOL    HW150468   5.296   7.046   8.452
16178SOL    HW250469   5.371   6.982   8.583
16179SOL     OW50470   4.126   6.116   8.773
16179SOL    HW150471   4.153   6.075   8.859
16179SOL    HW250472   4.171   6.068   8.697
16180SOL     OW50473   4.535   7.139   8.122
16180SOL    HW150474   4.466   7.125   8.051
16180SOL    HW250475   4.500   7.104   8.209
16181SOL     OW50476   5.135   5.857   8.644
16181SOL    HW150477   5.186   5.796   8.703
16181SOL    HW250478   5.067   5.907   8.698
16182SOL     OW50479   4.767   5.566   8.542
16182SOL    HW150480   4.702   5.509   8.491
16182SOL    HW250481   4.859   5.528   8.533
16183SOL     OW50482   4.507   6.869   7.828
16183SOL    HW150483   4.502   6.770   7.836
16183SOL    HW250484   4.590   6.903   7.872
16184SOL     OW50485   4.326   7.195   8.695
16184SOL    HW150486   4.334   7.246   8.780
16184SOL    HW250487   4.401   7.130   8.687
16185SOL     OW50488   5.104   5.601   7.597
16185SOL    HW150489   5.152   5.518   7.569
16185SOL    HW250490   5.006   5.590   7.580
16186SOL     OW50491   5.008   6.030   8.147
16186SOL    HW150492   4.960   6.115   8.127
16186SOL    HW250493   4.996   6.007   8.244
16187SOL     OW50494   5.284   5.797   8.418
16187SOL    HW150495   5.227   5.825   8.495
16187SOL    HW250496   5.275   5.863   8.344
16188SOL     OW50497   3.762   6.643   7.748
16188SOL    HW150498   3.862   6.655   7.748
16188SOL    HW250499   3.740   6.545   7.750
16189SOL     OW50500   4.606   7.236   7.782
16189SOL    HW150501   4.532   7.202   7.724
16189SOL    HW250502   4.579   7.325   7.821
16190SOL     OW50503   3.921   6.137   9.422
16190SOL    HW150504   3.828   6.105   9.440
16190SOL    HW250505   3.934   6.149   9.323
16191SOL     OW50506   5.511   6.123   9.467
16191SOL    HW150507   5.489   6.136   9.370
16191SOL    HW250508   5.439   6.072   9.512
16192SOL     OW50509   3.938   7.326   9.777
16192SOL    HW150510   3.957   7.383   9.858
16192SOL    HW250511   4.014   7.334   9.713
16193SOL     OW50512   3.992   7.057   9.787
16193SOL    HW150513   3.954   7.149   9.794
16193SOL    HW250514   3.955   7.001   9.862
16194SOL     OW50515   4.287   6.593   9.455
16194SOL    HW150516   4.342   6.629   9.379
16194SOL    HW250517   4.334   6.613   9.541
16195SOL     OW50518   3.847   6.295   9.853
16195SOL    HW150519   3.760   6.282   9.805
16195SOL    HW250520   3.836   6.368   9.920
16196SOL     OW50521   5.522   7.333   9.641
16196SOL    HW150522   5.604   7.323   9.698
16196SOL    HW250523   5.519   7.425   9.602
16197SOL     OW50524   3.790   7.138   9.472
16197SOL    HW150525   3.780   7.039   9.485
16197SOL    HW250526   3.741   7.186   9.545
16198SOL     OW50527   5.333   6.438   9.862
16198SOL    HW150528   5.411   6.424   9.923
16198SOL    HW250529   5.352   6.516   9.801
16199SOL     OW50530   5.451   6.658   9.730
16199SOL    HW150531   5.529   6.648   9.668
16199SOL    HW250532   5.482   6.693   9.818
16200SOL     OW50533   4.297   6.883   9.995
16200SOL    HW150534   4.230   6.813   9.971
16200SOL    HW250535   4.292   6.958   9.929
16201SOL     OW50536   4.522   5.617   9.854
16201SOL    HW150537   4.569   5.694   9.811
16201SOL    HW250538   4.423   5.633   9.851
16202SOL     OW50539   5.297   6.638   9.494
16202SOL    HW150540   5.228   6.569   9.512
16202SOL    HW250541   5.347   6.659   9.578
16203SOL     OW50542   4.284   6.304   9.587
16203SOL    HW150543   4.291   6.390   9.536
16203SOL    HW250544   4.224   6.317   9.666
16204SOL     OW50545   5.270   7.223   9.623
16204SOL    HW150546   5.362   7.257   9.641
16204SOL    HW250547   5.247   7.235   9.527
16205SOL     OW50548   4.723   6.290   9.724
16205SOL    HW150549   4.753   6.289   9.820
16205SOL    HW250550   4.637   6.239   9.717
16206SOL     OW50551   3.820   6.480   0.051
16206SOL    HW150552   3.816   6.460   0.149
16206SOL    HW250553   3.895   6.544   0.033
16207SOL     OW50554   4.528   5.922   9.524
16207SOL    HW150555   4.571   5.982   9.456
16207SOL    HW250556   4.480   5.848   9.476
16208SOL     OW50557   4.960   6.739   9.904
16208SOL    HW150558   5.032   6.765   9.968
16208SOL    HW250559   4.951   6.809   9.833
16209SOL     OW50560   4.661   7.039   9.786
16209SOL    HW150561   4.654   7.131   9.748
16209SOL    HW250562   4.622   7.038   9.879
16210SOL     OW50563   4.872   7.364   9.556
16210SOL    HW150564   4.780   7.340   9.588
16210SOL    HW250565   4.903   7.295   9.490
16211SOL     OW50566   5.386   6.961   9.335
16211SOL    HW150567   5.375   7.049   9.290
16211SOL    HW250568   5.299   6.911   9.332
16212SOL     OW50569   4.183   7.385   9.649
16212SOL    HW150570   4.224   7.424   9.731
16212SOL    HW250571   4.253   7.336   9.597
16213SOL     OW50572   5.116   5.753   9.805
16213SOL    HW150573   5.131   5.710   9.716
16213SOL    HW250574   5.195   5.809   9.829
16214SOL     OW50575   4.119   6.299   9.807
16214SOL    HW150576   4.149   6.204   9.819
16214SOL    HW250577   4.019   6.302   9.813
16215SOL     OW50578   4.382   5.699   9.429
16215SOL    HW150579   4.396   5.606   9.464
16215SOL    HW250580   4.323   5.695   9.348
16216SOL     OW50581   4.248   5.691   9.855
16216SOL    HW150582   4.153   5.686   9.886
16216SOL    HW250583   4.254   5.754   9.777
16217SOL     OW50584   5.154   6.808   9.331
16217SOL    HW150585   5.204   6.745   9.390
16217SOL    HW250586   5.070   6.836   9.377
16218SOL     OW50587   3.970   5.673   9.491
16218SOL    HW150588   4.017   5.743   9.436
16218SOL    HW250589   4.036   5.624   9.547
16219SOL     OW50590   4.647   5.832   9.748
16219SOL    HW150591   4.604   5.862   9.663
16219SOL    HW250592   4.745   5.854   9.746
16220SOL     OW50593   4.039   6.642   0.003
16220SOL    HW150594   4.111   6.616   0.068
16220SOL    HW250595   4.080   6.654   9.912
16221SOL     OW50596   4.978   7.409   9.805
16221SOL    HW150597   5.040   7.488   9.802
16221SOL    HW250598   4.933   7.400   9.716
16222SOL     OW50599   4.656   6.103   9.375
16222SOL    HW150600   4.657   6.182   9.313
16222SOL    HW250601   4.736   6.107   9.435
16223SOL     OW50602   4.571   6.028   9.924
16223SOL    HW150603   4.519   6.090   9.866
16223SOL    HW250604   4.596   5.947   9.871
16224SOL     OW50605   5.571   6.373   9.555
16224SOL    HW150606   5.607   6.356   9.647
16224SOL    HW250607   5.539   6.287   9.516
16225SOL     OW50608   4.282   7.025   9.529
16225SOL    HW150609   4.198   6.970   9.523
16225SOL    HW250610   4.360   6.965   9.546
16226SOL     OW50611   4.251   5.850   9.639
16226SOL    HW150612   4.301   5.796   9.572
16226SOL    HW250613   4.214   5.933   9.596
16227SOL     OW50614   4.420   6.651   9.701
16227SOL    HW150615   4.430   6.653   9.801
16227SOL    HW250616   4.495   6.598   9.662
16228SOL     OW50617   4.152   6.714   9.765
16228SOL    HW150618   4.102   6.768   9.697
16228SOL    HW250619   4.242   6.689   9.729
16229SOL     OW50620   4.912   6.948   9.715
16229SOL    HW150621   4.975   7.021   9.741
16229SOL    HW250622   4.820   6.972   9.744
16230SOL     OW50623   5.234   6.260   9.669
16230SOL    HW150624   5.277   6.309   9.744
16230SOL    HW250625   5.181   6.324   9.613
16231SOL     OW50626   4.864   6.117   9.566
16231SOL    HW150627   4.888   6.041   9.626
16231SOL    HW250628   4.821   6.190   9.620
16232SOL     OW50629   3.992   5.682   9.947
16232SOL    HW150630   3.919   5.749   9.960
16232SOL    HW250631   4.011   5.636   0.034
16233SOL     OW50632   5.287   6.004   9.584
16233SOL    HW150633   5.300   5.954   9.670
16233SOL    HW250634   5.257   6.098   9.604
16234SOL     OW50635   5.225   5.803   9.388
16234SOL    HW150636   5.190   5.730   9.447
16234SOL    HW250637   5.251   5.881   9.445
16235SOL     OW50638   4.986   6.421   9.302
16235SOL    HW150639   4.981   6.321   9.311
16235SOL    HW250640   5.015   6.445   9.210
16236SOL     OW50641   3.767   6.854   9.485
16236SOL    HW150642   3.684   6.883   9.438
16236SOL    HW250643   3.767   6.755   9.495
16237SOL     OW50644   4.491   6.151   9.686
16237SOL    HW150645   4.498   6.069   9.629
16237SOL    HW250646   4.418   6.209   9.652
16238SOL     OW50647   4.166   6.067   9.499
16238SOL    HW150648   4.221   6.147   9.524
16238SOL    HW250649   4.071   6.096   9.482
16239SOL     OW50650   5.092   6.466   9.547
16239SOL    HW150651   5.019   6.491   9.611
16239SOL    HW250652   5.053   6.449   9.457
16240SOL     OW50653   5.070   7.156   9.799
16240SOL    HW150654   5.149   7.162   9.738
16240SOL    HW250655   5.030   7.247   9.810
16241SOL     OW50656   4.391   7.269   9.501
16241SOL    HW150657   4.414   7.285   9.405
16241SOL    HW250658   4.348   7.179   9.511
16242SOL     OW50659   4.941   7.170   9.372
16242SOL    HW150660   4.946   7.075   9.405
16242SOL    HW250661   4.865   7.178   9.307
16243SOL     OW50662   4.623   6.516   9.599
16243SOL    HW150663   4.671   6.535   9.514
16243SOL    HW250664   4.665   6.437   9.644
16244SOL     OW50665   5.195   7.279   9.358
16244SOL    HW150666   5.105   7.237   9.353
16244SOL    HW250667   5.248   7.256   9.276
16245SOL     OW50668   4.260   7.067   9.803
16245SOL    HW150669   4.289   7.065   9.707
16245SOL    HW250670   4.160   7.071   9.807
16246SOL     OW50671   4.022   6.893   9.576
16246SOL    HW150672   3.930   6.869   9.547
16246SOL    HW250673   4.018   6.959   9.650
16247SOL     OW50674   3.834   5.921   9.228
16247SOL    HW150675   3.736   5.939   9.237
16247SOL    HW250676   3.879   6.001   9.190
16248SOL     OW50677   3.724   5.776   9.556
16248SOL    HW150678   3.706   5.858   9.501
16248SOL    HW250679   3.815   5.741   9.534
16249SOL     OW50680   4.908   6.899   9.440
16249SOL    HW150681   4.811   6.885   9.418
16249SOL    HW250682   4.918   6.904   9.540
16250SOL     OW50683   4.904   5.925   9.760
16250SOL    HW150684   4.980   5.861   9.775
16250SOL    HW250685   4.892   5.981   9.842
16251SOL     OW50686   4.197   6.314   0.078
16251SOL    HW150687   4.212   6.403   0.120
16251SOL    HW250688   4.181   6.326   9.980
16252SOL     OW50689   4.632   6.918   9.369
16252SOL    HW150690   4.587   6.923   9.458
16252SOL    HW250691   4.636   7.010   9.329
16253SOL     OW50692   4.757   6.551   9.365
16253SOL    HW150693   4.733   6.611   9.288
16253SOL    HW250694   4.847   6.510   9.349
16254SOL     OW50695   3.910   6.889   9.981
16254SOL    HW150696   3.826   6.896   0.035
16254SOL    HW250697   3.949   6.797   9.991
16255SOL     OW50698   4.192   6.046   9.855
16255SOL    HW150699   4.218   5.967   9.800
16255SOL    HW250700   4.176   6.018   9.949
16256SOL     OW50701   4.507   6.899   9.610
16256SOL    HW150702   4.484   6.808   9.643
16256SOL    HW250703   4.564   6.946   9.678
16257SOL     OW50704   5.141   5.609   9.579
16257SOL    HW150705   5.219   5.546   9.580
16257SOL    HW250706   5.057   5.557   9.591
16258SOL     OW50707   4.622   7.281   9.655
16258SOL    HW150708   4.544   7.268   9.595
16258SOL    HW250709   4.600   7.348   9.726
16259SOL     OW50710   3.866   7.947   0.075
16259SOL    HW150711   3.787   7.959   0.135
16259SOL    HW250712   3.855   8.005   9.994
16260SOL     OW50713   3.904   7.774   1.030
16260SOL    HW150714   3.946   7.751   1.118
16260SOL    HW250715   3.823   7.717   1.017
16261SOL     OW50716   3.709   7.855   0.647
16261SOL    HW150717   3.619   7.871   0.687
16261SOL    HW250718   3.700   7.792   0.569
16262SOL     OW50719   4.279   8.723   1.211
16262SOL    HW150720   4.203   8.737   1.148
16262SOL    HW250721   4.299   8.809   1.258
16263SOL     OW50722   5.356   9.005   0.659
16263SOL    HW150723   5.274   8.981   0.710
16263SOL    HW250724   5.331   9.032   0.566
16264SOL     OW50725   4.864   8.131   0.626
16264SOL    HW150726   4.904   8.221   0.642
16264SOL    HW250727   4.781   8.120   0.682
16265SOL     OW50728   5.463   8.026   0.162
16265SOL    HW150729   5.388   8.056   0.104
16265SOL    HW250730   5.427   7.966   0.234
16266SOL     OW50731   4.444   8.572   1.048
16266SOL    HW150732   4.376   8.607   1.113
16266SOL    HW250733   4.496   8.648   1.009
16267SOL     OW50734   4.628   8.166   1.816
16267SOL    HW150735   4.584   8.225   1.884
16267SOL    HW250736   4.661   8.223   1.741
16268SOL     OW50737   4.424   8.435   0.648
16268SOL    HW150738   4.494   8.428   0.719
16268SOL    HW250739   4.349   8.494   0.680
16269SOL     OW50740   4.360   8.571   1.858
16269SOL    HW150741   4.440   8.631   1.869
16269SOL    HW250742   4.293   8.616   1.800
16270SOL     OW50743   4.087   8.815   1.038
16270SOL    HW150744   4.054   8.737   0.984
16270SOL    HW250745   4.127   8.882   0.976
16271SOL     OW50746   5.156   8.961   1.349
16271SOL    HW150747   5.222   9.031   1.375
16271SOL    HW250748   5.075   8.968   1.408
16272SOL     OW50749   4.120   7.912   1.641
16272SOL    HW150750   4.212   7.875   1.657
16272SOL    HW250751   4.063   7.841   1.599
16273SOL     OW50752   5.305   7.885   0.743
16273SOL    HW150753   5.224   7.888   0.685
16273SOL    HW250754   5.307   7.967   0.801
16274SOL     OW50755   3.958   9.200   0.496
16274SOL    HW150756   3.971   9.276   0.559
16274SOL    HW250757   4.043   9.181   0.447
16275SOL     OW50758   4.882   8.816   1.755
16275SOL    HW150759   4.921   8.796   1.845
16275SOL    HW250760   4.840   8.734   1.718
16276SOL     OW50761   3.903   8.929   0.517
16276SOL    HW150762   3.915   9.027   0.533
16276SOL    HW250763   3.875   8.885   0.602
16277SOL     OW50764   3.998   8.573   0.920
16277SOL    HW150765   4.021   8.477   0.937
16277SOL    HW250766   3.913   8.595   0.968
16278SOL     OW50767   4.316   9.145   1.518
16278SOL    HW150768   4.218   9.150   1.539
16278SOL    HW250769   4.349   9.236   1.491
16279SOL     OW50770   4.262   8.389   0.225
16279SOL    HW150771   4.227   8.454   0.158
16279SOL    HW250772   4.340   8.430   0.273
16280SOL     OW50773   5.444   7.525   1.458
16280SOL    HW150774   5.490   7.584   1.391
16280SOL    HW250775   5.393   7.582   1.522
16281SOL     OW50776   3.824   8.098   0.580
16281SOL    HW150777   3.787   8.011   0.612
16281SOL    HW250778   3.831   8.161   0.657
16282SOL     OW50779   5.595   9.144   0.268
16282SOL    HW150780   5.674   9.134   0.328
16282SOL    HW250781   5.589   9.238   0.235
16283SOL     OW50782   3.719   8.955   0.135
16283SOL    HW150783   3.739   8.876   0.193
16283SOL    HW250784   3.739   9.039   0.185
16284SOL     OW50785   5.372   8.575   0.453
16284SOL    HW150786   5.456   8.531   0.420
16284SOL    HW250787   5.397   8.647   0.518
16285SOL     OW50788   3.845   8.162   1.589
16285SOL    HW150789   3.934   8.208   1.596
16285SOL    HW250790   3.775   8.230   1.564
16286SOL     OW50791   4.363   8.819   0.730
16286SOL    HW150792   4.312   8.734   0.743
16286SOL    HW250793   4.369   8.839   0.632
16287SOL     OW50794   4.964   8.652   1.435
16287SOL    HW150795   4.983   8.589   1.359
16287SOL    HW250796   5.044   8.656   1.496
16288SOL     OW50797   4.538   7.539   0.503
16288SOL    HW150798   4.594   7.614   0.468
16288SOL    HW250799   4.443   7.568   0.510
16289SOL     OW50800   3.926   8.380   1.339
16289SOL    HW150801   4.022   8.357   1.324
16289SOL    HW250802   3.871   8.344   1.264
16290SOL     OW50803   5.252   8.404   0.273
16290SOL    HW150804   5.193   8.344   0.328
16290SOL    HW250805   5.293   8.474   0.332
16291SOL     OW50806   4.958   9.249   1.633
16291SOL    HW150807   4.917   9.333   1.596
16291SOL    HW250808   4.954   9.177   1.564
16292SOL     OW50809   4.052   7.686   1.899
16292SOL    HW150810   4.091   7.767   1.943
16292SOL    HW250811   3.956   7.703   1.877
16293SOL     OW50812   5.187   8.896   0.865
16293SOL    HW150813   5.126   8.933   0.936
16293SOL    HW250814   5.158   8.803   0.843
16294SOL     OW50815   5.323   9.324   0.548
16294SOL    HW150816   5.335   9.244   0.489
16294SOL    HW250817   5.367   9.308   0.636
16295SOL     OW50818   4.250   8.118   0.274
16295SOL    HW150819   4.259   8.214   0.246
16295SOL    HW250820   4.188   8.112   0.352
16296SOL     OW50821   4.973   7.822   0.923
16296SOL    HW150822   4.884   7.776   0.917
16296SOL    HW250823   5.033   7.770   0.983
16297SOL     OW50824   5.349   9.105   0.394
16297SOL    HW150825   5.441   9.105   0.355
16297SOL    HW250826   5.281   9.103   0.320
16298SOL     OW50827   4.476   8.020   1.444
16298SOL    HW150828   4.487   7.977   1.534
16298SOL    HW250829   4.424   7.959   1.384
16299SOL     OW50830   5.128   7.929   1.645
16299SOL    HW150831   5.132   7.979   1.732
16299SOL    HW250832   5.191   7.851   1.648
16300SOL     OW50833   4.721   8.330   1.615
16300SOL    HW150834   4.815   8.313   1.587
16300SOL    HW250835   4.664   8.345   1.534
16301SOL     OW50836   4.789   7.868   1.249
16301SOL    HW150837   4.758   7.834   1.337
16301SOL    HW250838   4.747   7.814   1.175
16302SOL     OW50839   4.775   8.131   0.367
16302SOL    HW150840   4.801   8.120   0.463
16302SOL    HW250841   4.680   8.104   0.355
16303SOL     OW50842   3.853   8.276   0.779
16303SOL    HW150843   3.940   8.288   0.826
16303SOL    HW250844   3.784   8.335   0.819
16304SOL     OW50845   3.870   9.342   1.646
16304SOL    HW150846   3.883   9.326   1.744
16304SOL    HW250847   3.773   9.338   1.624
16305SOL     OW50848   4.565   7.824   0.187
16305SOL    HW150849   4.585   7.865   0.098
16305SOL    HW250850   4.509   7.742   0.175
16306SOL     OW50851   5.406   8.073   1.826
16306SOL    HW150852   5.396   8.153   1.767
16306SOL    HW250853   5.437   7.995   1.772
16307SOL     OW50854   5.114   8.597   0.560
16307SOL    HW150855   5.201   8.591   0.511
16307SOL    HW250856   5.053   8.661   0.511
16308SOL     OW50857   4.287   7.536   0.933
16308SOL    HW150858   4.278   7.578   1.023
16308SOL    HW250859   4.294   7.607   0.864
16309SOL     OW50860   4.764   8.977   0.524
16309SOL    HW150861   4.730   9.035   0.451
16309SOL    HW250862   4.690   8.957   0.588
16310SOL     OW50863   4.085   9.248   0.891
16310SOL    HW150864   4.124   9.157   0.883
16310SOL    HW250865   4.152   9.310   0.932
16311SOL     OW50866   5.489   8.701   0.893
16311SOL    HW150867   5.463   8.715   0.798
16311SOL    HW250868   5.413   8.661   0.943
16312SOL     OW50869   4.933   8.989   1.507
16312SOL    HW150870   4.931   8.907   1.564
16312SOL    HW250871   4.841   9.008   1.472
16313SOL     OW50872   4.036   8.368   0.380
16313SOL    HW150873   4.113   8.379   0.317
16313SOL    HW250874   4.042   8.279   0.425
16314SOL     OW50875   5.196   8.195   0.751
16314SOL    HW150876   5.151   8.144   0.824
16314SOL    HW250877   5.260   8.261   0.791
16315SOL     OW50878   4.169   8.725   1.738
16315SOL    HW150879   4.146   8.729   1.641
16315SOL    HW250880   4.085   8.714   1.791
16316SOL     OW50881   4.823   9.226   0.185
16316SOL    HW150882   4.760   9.198   0.257
16316SOL    HW250883   4.868   9.146   0.146
16317SOL     OW50884   3.936   7.723   1.542
16317SOL    HW150885   3.853   7.775   1.524
16317SOL    HW250886   3.913   7.635   1.583
16318SOL     OW50887   4.202   9.206   0.376
16318SOL    HW150888   4.239   9.282   0.428
16318SOL    HW250889   4.276   9.158   0.329
16319SOL     OW50890   5.107   7.548   0.429
16319SOL    HW150891   5.117   7.532   0.331
16319SOL    HW250892   5.196   7.539   0.473
16320SOL     OW50893   3.927   9.243   1.213
16320SOL    HW150894   3.982   9.162   1.237
16320SOL    HW250895   3.894   9.235   1.119
16321SOL     OW50896   4.674   9.159   0.884
16321SOL    HW150897   4.769   9.129   0.889
16321SOL    HW250898   4.626   9.106   0.815
16322SOL     OW50899   4.080   8.110   0.490
16322SOL    HW150900   4.118   8.022   0.517
16322SOL    HW250901   3.983   8.114   0.517
16323SOL     OW50902   5.268   7.683   1.662
16323SOL    HW150903   5.266   7.682   1.762
16323SOL    HW250904   5.185   7.643   1.626
16324SOL     OW50905   4.426   7.605   0.101
16324SOL    HW150906   4.497   7.535   0.110
16324SOL    HW250907   4.379   7.594   0.014
16325SOL     OW50908   4.529   7.711   1.878
16325SOL    HW150909   4.614   7.661   1.861
16325SOL    HW250910   4.463   7.649   1.921
16326SOL     OW50911   4.575   8.926   1.204
16326SOL    HW150912   4.557   8.904   1.108
16326SOL    HW250913   4.634   8.856   1.244
16327SOL     OW50914   5.169   8.033   1.392
16327SOL    HW150915   5.160   8.005   1.487
16327SOL    HW250916   5.139   8.128   1.381
16328SOL     OW50917   4.551   8.804   0.943
16328SOL    HW150918   4.643   8.818   0.904
16328SOL    HW250919   4.483   8.811   0.871
16329SOL     OW50920   4.632   7.942   0.876
16329SOL    HW150921   4.615   7.947   0.778
16329SOL    HW250922   4.665   7.850   0.899
16330SOL     OW50923   4.281   7.626   0.506
16330SOL    HW150924   4.209   7.585   0.562
16330SOL    HW250925   4.247   7.640   0.413
16331SOL     OW50926   4.691   7.753   0.423
16331SOL    HW150927   4.655   7.781   0.334
16331SOL    HW250928   4.790   7.759   0.423
16332SOL     OW50929   4.208   8.596   0.730
16332SOL    HW150930   4.143   8.581   0.805
16332SOL    HW250931   4.158   8.602   0.644
16333SOL     OW50932   4.861   7.954   9.952
16333SOL    HW150933   4.763   7.930   9.956
16333SOL    HW250934   4.898   7.958   0.044
16334SOL     OW50935   3.844   8.015   1.363
16334SOL    HW150936   3.938   8.011   1.331
16334SOL    HW250937   3.840   8.067   1.448
16335SOL     OW50938   4.248   7.635   1.185
16335SOL    HW150939   4.268   7.555   1.241
16335SOL    HW250940   4.156   7.667   1.204
16336SOL     OW50941   4.605   7.948   0.605
16336SOL    HW150942   4.543   8.002   0.547
16336SOL    HW250943   4.640   7.870   0.554
16337SOL     OW50944   4.724   7.497   0.700
16337SOL    HW150945   4.659   7.517   0.627
16337SOL    HW250946   4.690   7.420   0.755
16338SOL     OW50947   5.102   8.637   0.831
16338SOL    HW150948   5.009   8.608   0.853
16338SOL    HW250949   5.120   8.622   0.734
16339SOL     OW50950   5.104   8.063   0.967
16339SOL    HW150951   5.054   7.977   0.961
16339SOL    HW250952   5.177   8.054   1.035
16340SOL     OW50953   5.603   8.209   0.307
16340SOL    HW150954   5.633   8.170   0.394
16340SOL    HW250955   5.545   8.144   0.259
16341SOL     OW50956   4.240   8.880   0.239
16341SOL    HW150957   4.146   8.852   0.261
16341SOL    HW250958   4.270   8.832   0.157
16342SOL     OW50959   5.466   8.758   0.628
16342SOL    HW150960   5.565   8.759   0.634
16342SOL    HW250961   5.431   8.852   0.631
16343SOL     OW50962   5.183   7.993   0.081
16343SOL    HW150963   5.099   7.983   0.134
16343SOL    HW250964   5.223   7.903   0.065
16344SOL     OW50965   4.206   7.661   0.244
16344SOL    HW150966   4.294   7.646   0.199
16344SOL    HW250967   4.168   7.749   0.216
16345SOL     OW50968   5.447   8.697   1.493
16345SOL    HW150969   5.522   8.631   1.494
16345SOL    HW250970   5.480   8.785   1.527
16346SOL     OW50971   4.729   8.733   1.315
16346SOL    HW150972   4.646   8.690   1.350
16346SOL    HW250973   4.807   8.708   1.372
16347SOL     OW50974   5.380   9.058   1.673
16347SOL    HW150975   5.346   9.096   1.587
16347SOL    HW250976   5.461   9.003   1.655
16348SOL     OW50977   4.884   8.722   1.091
16348SOL    HW150978   4.818   8.729   1.166
16348SOL    HW250979   4.841   8.752   1.006
16349SOL     OW50980   5.284   8.568   1.029
16349SOL    HW150981   5.278   8.618   1.115
16349SOL    HW250982   5.206   8.592   0.971
16350SOL     OW50983   4.734   8.586   1.721
16350SOL    HW150984   4.650   8.624   1.760
16350SOL    HW250985   4.713   8.499   1.675
16351SOL     OW50986   4.477   8.481   0.375
16351SOL    HW150987   4.464   8.459   0.471
16351SOL    HW250988   4.564   8.442   0.344
16352SOL     OW50989   4.178   8.278   1.289
16352SOL    HW150990   4.239   8.283   1.367
16352SOL    HW250991   4.143   8.185   1.279
16353SOL     OW50992   5.043   7.798   1.325
16353SOL    HW150993   5.097   7.879   1.347
16353SOL    HW250994   4.951   7.826   1.295
16354SOL     OW50995   3.794   8.980   1.341
16354SOL    HW150996   3.742   9.045   1.287
16354SOL    HW250997   3.892   8.990   1.321
16355SOL     OW50998   4.051   8.609   0.507
16355SOL    HW150999   4.044   8.677   0.435
16355SOL    HW251000   4.044   8.517   0.468
16356SOL     OW51001   4.205   8.031   0.864
16356SOL    HW151002   4.234   8.081   0.783
16356SOL    HW251003   4.283   8.018   0.925
16357SOL     OW51004   4.940   8.773   0.434
16357SOL    HW151005   4.913   8.758   0.339
16357SOL    HW251006   4.882   8.845   0.474
16358SOL     OW51007   5.048   8.937   1.100
16358SOL    HW151008   5.090   8.949   1.189
16358SOL    HW251009   4.990   8.855   1.100
16359SOL     OW51010   5.242   8.073   0.500
16359SOL    HW151011   5.236   8.112   0.592
16359SOL    HW251012   5.178   8.120   0.439
16360SOL     OW51013   4.053   8.995   1.244
16360SOL    HW151014   4.050   8.930   1.168
16360SOL    HW251015   4.146   9.001   1.279
16361SOL     OW51016   4.124   8.191   1.629
16361SOL    HW151017   4.207   8.224   1.585
16361SOL    HW251018   4.125   8.091   1.629
16362SOL     OW51019   5.363   8.296   1.676
16362SOL    HW151020   5.267   8.322   1.669
16362SOL    HW251021   5.408   8.311   1.588
16363SOL     OW51022   4.782   7.598   1.827
16363SOL    HW151023   4.820   7.684   1.793
16363SOL    HW251024   4.801   7.524   1.762
16364SOL     OW51025   4.207   7.490   1.780
16364SOL    HW151026   4.163   7.447   1.700
16364SOL    HW251027   4.150   7.565   1.813
16365SOL     OW51028   4.332   8.309   1.063
16365SOL    HW151029   4.374   8.400   1.055
16365SOL    HW251030   4.279   8.305   1.148
16366SOL     OW51031   4.948   8.281   1.034
16366SOL    HW151032   4.854   8.254   1.014
16366SOL    HW251033   5.011   8.206   1.010
16367SOL     OW51034   4.940   7.958   0.217
16367SOL    HW151035   4.957   7.886   0.285
16367SOL    HW251036   4.881   8.028   0.258
16368SOL     OW51037   3.997   7.680   1.271
16368SOL    HW151038   3.986   7.708   1.367
16368SOL    HW251039   3.970   7.585   1.261
16369SOL     OW51040   3.811   8.710   1.290
16369SOL    HW151041   3.805   8.655   1.374
16369SOL    HW251042   3.797   8.807   1.313
16370SOL     OW51043   4.417   8.032   1.033
16370SOL    HW151044   4.496   8.008   0.977
16370SOL    HW251045   4.410   8.132   1.039
16371SOL     OW51046   5.514   8.422   1.872
16371SOL    HW151047   5.455   8.373   1.807
16371SOL    HW251048   5.460   8.449   1.951
16372SOL     OW51049   4.083   7.543   0.666
16372SOL    HW151050   4.026   7.620   0.695
16372SOL    HW251051   4.071   7.467   0.729
16373SOL     OW51052   5.351   7.867   0.352
16373SOL    HW151053   5.409   7.806   0.405
16373SOL    HW251054   5.311   7.936   0.413
16374SOL     OW51055   4.691   8.186   0.993
16374SOL    HW151056   4.676   8.172   1.090
16374SOL    HW251057   4.680   8.100   0.944
16375SOL     OW51058   4.637   8.929   1.675
16375SOL    HW151059   4.642   8.986   1.593
16375SOL    HW251060   4.730   8.904   1.704
16376SOL     OW51061   5.594   8.919   1.565
16376SOL    HW151062   5.613   8.946   1.470
16376SOL    HW251063   5.676   8.932   1.620
16377SOL     OW51064   4.062   8.333   1.854
16377SOL    HW151065   4.143   8.350   1.910
16377SOL    HW251066   4.088   8.278   1.775
16378SOL     OW51067   5.312   7.726   0.122
16378SOL    HW151068   5.247   7.650   0.128
16378SOL    HW251069   5.317   7.772   0.210
16379SOL     OW51070   5.096   8.265   0.091
16379SOL    HW151071   5.133   8.179   0.057
16379SOL    HW251072   5.171   8.323   0.124
16380SOL     OW51073   4.805   8.824   0.843
16380SOL    HW151074   4.824   8.736   0.800
16380SOL    HW251075   4.860   8.895   0.799
16381SOL     OW51076   4.065   8.306   0.957
16381SOL    HW151077   4.165   8.304   0.970
16381SOL    HW251078   4.028   8.216   0.983
16382SOL     OW51079   3.981   8.031   1.005
16382SOL    HW151080   3.941   7.940   1.009
16382SOL    HW251081   4.059   8.031   0.941
16383SOL     OW51082   4.876   7.834   1.697
16383SOL    HW151083   4.839   7.883   1.776
16383SOL    HW251084   4.963   7.874   1.669
16384SOL     OW51085   5.017   7.630   1.550
16384SOL    HW151086   4.958   7.691   1.604
16384SOL    HW251087   5.032   7.670   1.459
16385SOL     OW51088   3.748   8.689   0.227
16385SOL    HW151089   3.671   8.692   0.163
16385SOL    HW251090   3.757   8.596   0.265
16386SOL     OW51091   3.820   9.214   0.958
16386SOL    HW151092   3.775   9.142   0.906
16386SOL    HW251093   3.913   9.227   0.923
16387SOL     OW51094   4.217   8.999   0.883
16387SOL    HW151095   4.287   9.060   0.921
16387SOL    HW251096   4.260   8.937   0.817
16388SOL     OW51097   4.660   8.117   1.256
16388SOL    HW151098   4.724   8.040   1.251
16388SOL    HW251099   4.591   8.099   1.326
16389SOL     OW51100   3.711   8.072   1.130
16389SOL    HW151101   3.785   8.078   1.062
16389SOL    HW251102   3.750   8.050   1.219
16390SOL     OW51103   3.907   7.994   1.795
16390SOL    HW151104   3.994   7.963   1.756
16390SOL    HW251105   3.863   8.058   1.732
16391SOL     OW51106   5.108   8.381   1.615
16391SOL    HW151107   5.131   8.479   1.614
16391SOL    HW251108   5.105   8.346   1.521
16392SOL     OW51109   4.514   8.043   0.343
16392SOL    HW151110   4.530   7.961   0.289
16392SOL    HW251111   4.422   8.077   0.324
16393SOL     OW51112   5.310   8.057   1.147
16393SOL    HW151113   5.276   8.033   1.238
16393SOL    HW251114   5.409   8.041   1.144
16394SOL     OW51115   3.925   8.967   1.752
16394SOL    HW151116   3.892   9.009   1.837
16394SOL    HW251117   3.946   8.870   1.769
16395SOL     OW51118   4.336   7.888   1.248
16395SOL    HW151119   4.318   7.792   1.223
16395SOL    HW251120   4.371   7.937   1.169
16396SOL     OW51121   4.678   9.060   1.431
16396SOL    HW151122   4.637   9.017   1.350
16396SOL    HW251123   4.677   9.160   1.420
16397SOL     OW51124   4.132   7.902   0.140
16397SOL    HW151125   4.177   7.980   0.184
16397SOL    HW251126   4.035   7.924   0.125
16398SOL     OW51127   3.823   8.551   1.517
16398SOL    HW151128   3.835   8.521   1.612
16398SOL    HW251129   3.865   8.485   1.456
16399SOL     OW51130   4.979   8.489   1.202
16399SOL    HW151131   4.968   8.413   1.138
16399SOL    HW251132   4.951   8.574   1.158
16400SOL     OW51133   5.059   8.217   0.356
16400SOL    HW151134   4.964   8.204   0.386
16400SOL    HW251135   5.061   8.224   0.256
16401SOL     OW51136   5.476   9.142   1.165
16401SOL    HW151137   5.542   9.178   1.099
16401SOL    HW251138   5.436   9.058   1.129
16402SOL     OW51139   4.992   9.202   1.082
16402SOL    HW151140   5.082   9.243   1.092
16402SOL    HW251141   4.999   9.103   1.083
16403SOL     OW51142   3.761   8.648   1.035
16403SOL    HW151143   3.788   8.659   1.131
16403SOL    HW251144   3.698   8.721   1.010
16404SOL     OW51145   4.364   9.168   1.789
16404SOL    HW151146   4.307   9.249   1.796
16404SOL    HW251147   4.367   9.137   1.694
16405SOL     OW51148   4.609   7.401   0.088
16405SOL    HW151149   4.607   7.412   9.988
16405SOL    HW251150   4.704   7.392   0.117
16406SOL     OW51151   5.519   7.674   0.456
16406SOL    HW151152   5.584   7.634   0.392
16406SOL    HW251153   5.457   7.603   0.490
16407SOL     OW51154   3.955   9.278   1.901
16407SOL    HW151155   3.914   9.191   1.928
16407SOL    HW251156   3.981   9.328   1.983
16408SOL     OW51157   4.999   8.367   0.662
16408SOL    HW151158   5.073   8.308   0.692
16408SOL    HW251159   5.036   8.444   0.610
16409SOL     OW51160   4.480   8.640   1.382
16409SOL    HW151161   4.459   8.685   1.468
16409SOL    HW251162   4.406   8.658   1.317
16410SOL     OW51163   4.404   9.093   0.223
16410SOL    HW151164   4.411   9.124   0.128
16410SOL    HW251165   4.347   9.011   0.228
16411SOL     OW51166   5.345   9.156   1.411
16411SOL    HW151167   5.395   9.148   1.325
16411SOL    HW251168   5.366   9.244   1.454
16412SOL     OW51169   5.552   7.592   0.987
16412SOL    HW151170   5.589   7.506   0.954
16412SOL    HW251171   5.464   7.610   0.945
16413SOL     OW51172   3.950   7.767   0.753
16413SOL    HW151173   3.864   7.800   0.714
16413SOL    HW251174   3.945   7.773   0.853
16414SOL     OW51175   4.955   8.989   0.099
16414SOL    HW151176   4.920   8.900   0.126
16414SOL    HW251177   4.986   8.985   0.003
16415SOL     OW51178   4.575   8.389   1.397
16415SOL    HW151179   4.605   8.351   1.309
16415SOL    HW251180   4.543   8.483   1.384
16416SOL     OW51181   4.717   8.393   0.283
16416SOL    HW151182   4.784   8.429   0.217
16416SOL    HW251183   4.742   8.300   0.308
16417SOL     OW51184   5.186   9.120   0.173
16417SOL    HW151185   5.100   9.070   0.160
16417SOL    HW251186   5.239   9.116   0.088
16418SOL     OW51187   4.057   8.730   1.495
16418SOL    HW151188   4.070   8.769   1.404
16418SOL    HW251189   3.977   8.669   1.493
16419SOL     OW51190   5.292   8.734   1.261
16419SOL    HW151191   5.353   8.707   1.336
16419SOL    HW251192   5.229   8.805   1.294
16420SOL     OW51193   4.836   8.550   0.794
16420SOL    HW151194   4.749   8.511   0.823
16420SOL    HW251195   4.888   8.481   0.743
16421SOL     OW51196   4.741   7.673   0.917
16421SOL    HW151197   4.736   7.633   0.826
16421SOL    HW251198   4.740   7.600   0.986
16422SOL     OW51199   4.391   8.876   0.471
16422SOL    HW151200   4.471   8.829   0.433
16422SOL    HW251201   4.320   8.884   0.400
16423SOL     OW51202   5.600   7.846   1.445
16423SOL    HW151203   5.640   7.933   1.415
16423SOL    HW251204   5.581   7.788   1.365
16424SOL     OW51205   3.991   8.790   0.310
16424SOL    HW151206   3.912   8.750   0.263
16424SOL    HW251207   3.959   8.850   0.383
16425SOL     OW51208   3.841   8.467   1.774
16425SOL    HW151209   3.757   8.444   1.824
16425SOL    HW251210   3.917   8.411   1.808
16426SOL     OW51211   3.842   7.677   0.025
16426SOL    HW151212   3.778   7.669   9.949
16426SOL    HW251213   3.858   7.773   0.045
16427SOL     OW51214   5.117   8.305   1.356
16427SOL    HW151215   5.050   8.362   1.308
16427SOL    HW251216   5.206   8.314   1.310
16428SOL     OW51217   3.836   7.525   0.260
16428SOL    HW151218   3.835   7.580   0.177
16428SOL    HW251219   3.924   7.478   0.267
16429SOL     OW51220   4.825   8.740   0.180
16429SOL    HW151221   4.746   8.763   0.123
16429SOL    HW251222   4.858   8.649   0.156
16430SOL     OW51223   4.354   8.255   1.493
16430SOL    HW151224   4.424   8.325   1.478
16430SOL    HW251225   4.395   8.164   1.481
16431SOL     OW51226   5.244   9.298   1.108
16431SOL    HW151227   5.271   9.352   1.028
16431SOL    HW251228   5.322   9.243   1.139
16432SOL     OW51229   4.496   7.936   1.708
16432SOL    HW151230   4.538   8.017   1.750
16432SOL    HW251231   4.503   7.859   1.770
16433SOL     OW51232   5.194   8.638   1.603
16433SOL    HW151233   5.199   8.651   1.702
16433SOL    HW251234   5.282   8.663   1.562
16434SOL     OW51235   4.056   9.150   1.588
16434SOL    HW151236   3.990   9.224   1.595
16434SOL    HW251237   4.023   9.071   1.641
16435SOL     OW51238   5.344   8.330   1.206
16435SOL    HW151239   5.340   8.239   1.163
16435SOL    HW251240   5.330   8.400   1.137
16436SOL     OW51241   4.965   7.782   0.429
16436SOL    HW151242   5.015   7.695   0.426
16436SOL    HW251243   4.989   7.831   0.513
16437SOL     OW51244   4.292   8.189   0.661
16437SOL    HW151245   4.341   8.275   0.647
16437SOL    HW251246   4.219   8.180   0.592
16438SOL     OW51247   5.484   7.852   1.686
16438SOL    HW151248   5.527   7.856   1.596
16438SOL    HW251249   5.409   7.785   1.684
16439SOL     OW51250   5.488   8.344   1.439
16439SOL    HW151251   5.550   8.422   1.431
16439SOL    HW251252   5.438   8.332   1.354
16440SOL     OW51253   4.583   8.839   0.071
16440SOL    HW151254   4.496   8.800   0.041
16440SOL    HW251255   4.579   8.857   0.170
16441SOL     OW51256   4.401   9.178   0.959
16441SOL    HW151257   4.369   9.272   0.968
16441SOL    HW251258   4.501   9.178   0.947
16442SOL     OW51259   4.601   8.422   0.872
16442SOL    HW151260   4.632   8.335   0.911
16442SOL    HW251261   4.543   8.470   0.938
16443SOL     OW51262   4.918   8.482   0.106
16443SOL    HW151263   4.963   8.548   0.046
16443SOL    HW251264   4.966   8.395   0.102
16444SOL     OW51265   5.539   9.016   0.862
16444SOL    HW151266   5.480   9.018   0.781
16444SOL    HW251267   5.508   8.946   0.925
16445SOL     OW51268   3.930   8.708   1.860
16445SOL    HW151269   3.900   8.619   1.824
16445SOL    HW251270   3.863   8.740   1.928
16446SOL     OW51271   3.866   8.699   0.692
16446SOL    HW151272   3.896   8.655   0.777
16446SOL    HW251273   3.925   8.669   0.617
16447SOL     OW51274   4.417   8.778   1.601
16447SOL    HW151275   4.337   8.784   1.660
16447SOL    HW251276   4.486   8.844   1.631
16448SOL     OW51277   5.585   7.652   1.254
16448SOL    HW151278   5.684   7.639   1.255
16448SOL    HW251279   5.551   7.635   1.161
16449SOL     OW51280   4.150   7.866   0.575
16449SOL    HW151281   4.214   7.792   0.556
16449SOL    HW251282   4.085   7.838   0.645
16450SOL     OW51283   5.371   8.917   1.071
16450SOL    HW151284   5.307   8.910   0.995
16450SOL    HW251285   5.352   8.846   1.138
16451SOL     OW51286   4.095   8.023   1.254
16451SOL    HW151287   4.178   7.969   1.261
16451SOL    HW251288   4.061   8.021   1.160
16452SOL     OW51289   4.544   9.026   0.688
16452SOL    HW151290   4.505   9.076   0.610
16452SOL    HW251291   4.482   8.952   0.715
16453SOL     OW51292   5.126   7.682   1.094
16453SOL    HW151293   5.129   7.582   1.099
16453SOL    HW251294   5.104   7.720   1.184
16454SOL     OW51295   4.746   7.432   1.058
16454SOL    HW151296   4.669   7.370   1.071
16454SOL    HW251297   4.830   7.379   1.046
16455SOL     OW51298   4.585   8.735   0.348
16455SOL    HW151299   4.540   8.646   0.353
16455SOL    HW251300   4.682   8.721   0.325
16456SOL     OW51301   4.324   8.972   1.311
16456SOL    HW151302   4.327   9.027   1.394
16456SOL    HW251303   4.415   8.970   1.269
16457SOL     OW51304   5.132   7.496   0.162
16457SOL    HW151305   5.185   7.415   0.137
16457SOL    HW251306   5.035   7.479   0.143
16458SOL     OW51307   5.025   7.906   0.666
16458SOL    HW151308   4.975   7.991   0.649
16458SOL    HW251309   5.004   7.873   0.758
16459SOL     OW51310   5.306   7.648   0.890
16459SOL    HW151311   5.244   7.672   0.964
16459SOL    HW251312   5.311   7.723   0.824
16460SOL     OW51313   3.768   8.426   0.320
16460SOL    HW151314   3.866   8.422   0.340
16460SOL    HW251315   3.725   8.339   0.345
16461SOL     OW51316   4.630   9.157   0.367
16461SOL    HW151317   4.549   9.129   0.317
16461SOL    HW251318   4.610   9.240   0.419
16462SOL     OW51319   3.888   8.018   2.065
16462SOL    HW151320   3.792   8.018   2.093
16462SOL    HW251321   3.893   8.025   1.965
16463SOL     OW51322   3.917   7.691   2.847
16463SOL    HW151323   3.945   7.663   2.939
16463SOL    HW251324   3.822   7.663   2.832
16464SOL     OW51325   3.794   7.931   2.484
16464SOL    HW151326   3.701   7.908   2.513
16464SOL    HW251327   3.800   7.928   2.384
16465SOL     OW51328   4.305   8.741   3.084
16465SOL    HW151329   4.221   8.735   3.030
16465SOL    HW251330   4.330   8.837   3.097
16466SOL     OW51331   5.261   8.988   2.540
16466SOL    HW151332   5.230   8.941   2.622
16466SOL    HW251333   5.188   8.988   2.471
16467SOL     OW51334   4.866   8.180   2.523
16467SOL    HW151335   4.916   8.264   2.502
16467SOL    HW251336   4.822   8.189   2.613
16468SOL     OW51337   5.538   8.051   2.060
16468SOL    HW151338   5.499   8.075   1.971
16468SOL    HW251339   5.487   7.974   2.099
16469SOL     OW51340   4.462   8.567   2.933
16469SOL    HW151341   4.399   8.603   3.002
16469SOL    HW251342   4.501   8.642   2.881
16470SOL     OW51343   4.573   8.161   3.677
16470SOL    HW151344   4.540   8.223   3.748
16470SOL    HW251345   4.607   8.214   3.599
16471SOL     OW51346   4.424   8.437   2.521
16471SOL    HW151347   4.500   8.444   2.586
16471SOL    HW251348   4.355   8.506   2.543
16472SOL     OW51349   4.522   8.689   3.614
16472SOL    HW151350   4.564   8.731   3.694
16472SOL    HW251351   4.456   8.752   3.573
16473SOL     OW51352   4.076   8.801   2.933
16473SOL    HW151353   3.985   8.772   2.903
16473SOL    HW251354   4.114   8.867   2.868
16474SOL     OW51355   5.184   8.929   3.234
16474SOL    HW151356   5.244   9.008   3.247
16474SOL    HW251357   5.103   8.940   3.292
16475SOL     OW51358   4.215   7.893   3.358
16475SOL    HW151359   4.294   7.907   3.418
16475SOL    HW251360   4.192   7.796   3.355
16476SOL     OW51361   5.304   7.891   2.607
16476SOL    HW151362   5.230   7.892   2.540
16476SOL    HW251363   5.292   7.967   2.671
16477SOL     OW51364   3.930   9.207   2.358
16477SOL    HW151365   3.953   9.279   2.423
16477SOL    HW251366   4.013   9.177   2.311
16478SOL     OW51367   4.880   8.797   3.561
16478SOL    HW151368   4.920   8.787   3.652
16478SOL    HW251369   4.840   8.710   3.533
16479SOL     OW51370   3.897   8.950   2.432
16479SOL    HW151371   3.903   9.047   2.410
16479SOL    HW251372   3.850   8.938   2.520
16480SOL     OW51373   4.299   9.223   3.278
16480SOL    HW151374   4.219   9.211   3.338
16480SOL    HW251375   4.349   9.306   3.305
16481SOL     OW51376   4.275   8.407   2.050
16481SOL    HW151377   4.307   8.462   1.972
16481SOL    HW251378   4.331   8.429   2.130
16482SOL     OW51379   5.309   7.573   3.343
16482SOL    HW151380   5.379   7.627   3.295
16482SOL    HW251381   5.270   7.629   3.416
16483SOL     OW51382   3.868   8.193   2.445
16483SOL    HW151383   3.842   8.102   2.478
16483SOL    HW251384   3.864   8.258   2.520
16484SOL     OW51385   5.566   9.150   2.204
16484SOL    HW151386   5.646   9.150   2.265
16484SOL    HW251387   5.557   9.240   2.161
16485SOL     OW51388   3.820   9.049   1.991
16485SOL    HW151389   3.790   8.955   2.010
16485SOL    HW251390   3.777   9.111   2.057
16486SOL     OW51391   5.413   8.365   2.470
16486SOL    HW151392   5.464   8.310   2.405
16486SOL    HW251393   5.416   8.461   2.443
16487SOL     OW51394   5.438   8.612   2.333
16487SOL    HW151395   5.520   8.573   2.293
16487SOL    HW251396   5.460   8.697   2.379
16488SOL     OW51397   3.879   8.244   3.405
16488SOL    HW151398   3.956   8.297   3.369
16488SOL    HW251399   3.794   8.292   3.383
16489SOL     OW51400   4.336   8.826   2.627
16489SOL    HW151401   4.289   8.739   2.612
16489SOL    HW251402   4.339   8.877   2.541
16490SOL     OW51403   4.970   8.656   3.280
16490SOL    HW151404   4.994   8.588   3.210
16490SOL    HW251405   5.038   8.653   3.353
16491SOL     OW51406   4.488   7.500   2.423
16491SOL    HW151407   4.515   7.590   2.391
16491SOL    HW251408   4.389   7.488   2.411
16492SOL     OW51409   5.338   8.503   2.076
16492SOL    HW151410   5.272   8.429   2.090
16492SOL    HW251411   5.362   8.543   2.164
16493SOL     OW51412   4.931   9.250   3.465
16493SOL    HW151413   4.940   9.319   3.393
16493SOL    HW251414   4.940   9.159   3.425
16494SOL     OW51415   4.048   7.698   3.749
16494SOL    HW151416   4.076   7.754   3.827
16494SOL    HW251417   3.970   7.740   3.704
16495SOL     OW51418   5.176   8.847   2.757
16495SOL    HW151419   5.121   8.875   2.835
16495SOL    HW251420   5.165   8.749   2.742
16496SOL     OW51421   5.318   9.244   2.415
16496SOL    HW151422   5.316   9.192   2.330
16496SOL    HW251423   5.310   9.182   2.493
16497SOL     OW51424   4.274   8.142   2.135
16497SOL    HW151425   4.275   8.233   2.095
16497SOL    HW251426   4.216   8.142   2.217
16498SOL     OW51427   5.000   7.858   2.793
16498SOL    HW151428   4.909   7.816   2.788
16498SOL    HW251429   5.056   7.807   2.858
16499SOL     OW51430   5.300   9.086   2.191
16499SOL    HW151431   5.400   9.089   2.199
16499SOL    HW251432   5.275   9.077   2.095
16500SOL     OW51433   4.503   8.027   3.283
16500SOL    HW151434   4.485   7.991   3.375
16500SOL    HW251435   4.477   7.958   3.215
16501SOL     OW51436   5.074   7.937   3.511
16501SOL    HW151437   5.084   7.991   3.595
16501SOL    HW251438   5.123   7.851   3.522
16502SOL     OW51439   4.661   8.310   3.457
16502SOL    HW151440   4.711   8.246   3.400
16502SOL    HW251441   4.607   8.371   3.400
16503SOL     OW51442   4.709   7.802   3.060
16503SOL    HW151443   4.613   7.813   3.085
16503SOL    HW251444   4.716   7.773   2.964
16504SOL     OW51445   4.773   8.169   2.264
16504SOL    HW151446   4.804   8.167   2.359
16504SOL    HW251447   4.679   8.134   2.259
16505SOL     OW51448   3.847   8.373   2.646
16505SOL    HW151449   3.944   8.386   2.669
16505SOL    HW251450   3.791   8.426   2.710
16506SOL     OW51451   3.824   9.273   3.475
16506SOL    HW151452   3.825   9.191   3.532
16506SOL    HW251453   3.729   9.301   3.460
16507SOL     OW51454   4.613   7.862   2.089
16507SOL    HW151455   4.693   7.903   2.046
16507SOL    HW251456   4.562   7.808   2.022
16508SOL     OW51457   5.377   8.027   3.706
16508SOL    HW151458   5.376   8.107   3.645
16508SOL    HW251459   5.419   7.950   3.658
16509SOL     OW51460   5.170   8.617   2.423
16509SOL    HW151461   5.264   8.618   2.388
16509SOL    HW251462   5.112   8.674   2.364
16510SOL     OW51463   4.227   7.554   2.819
16510SOL    HW151464   4.240   7.583   2.913
16510SOL    HW251465   4.223   7.634   2.759
16511SOL     OW51466   4.078   9.244   2.769
16511SOL    HW151467   4.119   9.154   2.759
16511SOL    HW251468   4.147   9.310   2.799
16512SOL     OW51469   4.940   8.977   3.361
16512SOL    HW151470   4.934   8.911   3.437
16512SOL    HW251471   4.876   8.950   3.289
16513SOL     OW51472   4.021   8.424   2.155
16513SOL    HW151473   4.113   8.427   2.117
16513SOL    HW251474   3.974   8.342   2.123
16514SOL     OW51475   5.202   8.215   2.543
16514SOL    HW151476   5.201   8.173   2.634
16514SOL    HW251477   5.285   8.270   2.533
16515SOL     OW51478   4.960   9.147   2.087
16515SOL    HW151479   4.935   9.075   2.152
16515SOL    HW251480   4.959   9.111   1.994
16516SOL     OW51481   3.970   7.703   3.358
16516SOL    HW151482   3.953   7.794   3.397
16516SOL    HW251483   3.917   7.635   3.408
16517SOL     OW51484   5.395   8.836   1.952
16517SOL    HW151485   5.345   8.922   1.944
16517SOL    HW251486   5.338   8.761   1.917
16518SOL     OW51487   4.174   9.169   2.250
16518SOL    HW151488   4.238   9.237   2.284
16518SOL    HW251489   4.205   9.135   2.161
16519SOL     OW51490   5.183   7.618   2.281
16519SOL    HW151491   5.175   7.571   2.193
16519SOL    HW251492   5.253   7.573   2.337
16520SOL     OW51493   4.014   9.206   3.043
16520SOL    HW151494   4.049   9.121   3.083
16520SOL    HW251495   4.037   9.208   2.946
16521SOL     OW51496   4.643   9.159   2.751
16521SOL    HW151497   4.729   9.108   2.745
16521SOL    HW251498   4.585   9.136   2.673
16522SOL     OW51499   4.121   8.128   2.359
16522SOL    HW151500   4.125   8.029   2.371
16522SOL    HW251501   4.028   8.160   2.376
16523SOL     OW51502   5.189   7.697   3.584
16523SOL    HW151503   5.187   7.728   3.679
16523SOL    HW251504   5.131   7.616   3.574
16524SOL     OW51505   4.356   7.539   2.005
16524SOL    HW151506   4.387   7.452   2.044
16524SOL    HW251507   4.298   7.521   1.925
16525SOL     OW51508   4.500   7.669   3.618
16525SOL    HW151509   4.594   7.638   3.632
16525SOL    HW251510   4.442   7.633   3.691
16526SOL     OW51511   4.598   8.955   3.032
16526SOL    HW151512   4.579   8.901   2.950
16526SOL    HW251513   4.661   8.905   3.091
16527SOL     OW51514   5.005   8.040   3.270
16527SOL    HW151515   5.035   8.011   3.361
16527SOL    HW251516   5.040   8.132   3.251
16528SOL     OW51517   4.542   8.796   2.810
16528SOL    HW151518   4.633   8.805   2.768
16528SOL    HW251519   4.472   8.814   2.741
16529SOL     OW51520   4.654   7.970   2.746
16529SOL    HW151521   4.617   7.972   2.653
16529SOL    HW251522   4.689   7.878   2.765
16530SOL     OW51523   4.222   7.488   2.362
16530SOL    HW151524   4.137   7.483   2.415
16530SOL    HW251525   4.219   7.569   2.304
16531SOL     OW51526   5.211   8.646   1.879
16531SOL    HW151527   5.257   8.584   1.942
16531SOL    HW251528   5.124   8.676   1.918
16532SOL     OW51529   3.960   7.468   2.043
16532SOL    HW151530   4.010   7.544   2.001
16532SOL    HW251531   4.024   7.410   2.093
16533SOL     OW51532   4.586   7.741   2.339
16533SOL    HW151533   4.592   7.786   2.249
16533SOL    HW251534   4.674   7.699   2.361
16534SOL     OW51535   4.750   8.145   3.260
16534SOL    HW151536   4.670   8.085   3.265
16534SOL    HW251537   4.833   8.090   3.261
16535SOL     OW51538   4.898   9.070   2.686
16535SOL    HW151539   4.924   9.120   2.603
16535SOL    HW251540   4.947   9.108   2.764
16536SOL     OW51541   4.204   8.594   2.573
16536SOL    HW151542   4.162   8.533   2.640
16536SOL    HW251543   4.144   8.603   2.494
16537SOL     OW51544   4.946   9.240   2.465
16537SOL    HW151545   4.999   9.302   2.407
16537SOL    HW251546   4.870   9.290   2.507
16538SOL     OW51547   4.798   7.975   1.915
16538SOL    HW151548   4.742   8.052   1.882
16538SOL    HW251549   4.867   8.009   1.978
16539SOL     OW51550   3.811   8.045   3.216
16539SOL    HW151551   3.908   8.030   3.196
16539SOL    HW251552   3.802   8.121   3.281
16540SOL     OW51553   4.253   7.625   3.082
16540SOL    HW151554   4.281   7.547   3.139
16540SOL    HW251555   4.154   7.637   3.088
16541SOL     OW51556   4.555   7.963   2.496
16541SOL    HW151557   4.532   8.031   2.427
16541SOL    HW251558   4.561   7.872   2.454
16542SOL     OW51559   4.685   7.490   2.615
16542SOL    HW151560   4.605   7.490   2.556
16542SOL    HW251561   4.675   7.419   2.685
16543SOL     OW51562   5.157   8.575   2.717
16543SOL    HW151563   5.103   8.495   2.743
16543SOL    HW251564   5.164   8.580   2.617
16544SOL     OW51565   5.175   8.089   2.789
16544SOL    HW151566   5.105   8.018   2.796
16544SOL    HW251567   5.234   8.086   2.869
16545SOL     OW51568   5.536   8.213   2.277
16545SOL    HW151569   5.600   8.169   2.341
16545SOL    HW251570   5.536   8.163   2.190
16546SOL     OW51571   4.189   8.801   2.050
16546SOL    HW151572   4.104   8.803   2.104
16546SOL    HW251573   4.172   8.752   1.964
16547SOL     OW51574   5.488   8.841   2.483
16547SOL    HW151575   5.519   8.813   2.574
16547SOL    HW251576   5.407   8.899   2.491
16548SOL     OW51577   5.135   8.050   1.887
16548SOL    HW151578   5.096   8.036   1.978
16548SOL    HW251579   5.235   8.054   1.894
16549SOL     OW51580   4.226   7.697   2.188
16549SOL    HW151581   4.282   7.643   2.125
16549SOL    HW251582   4.191   7.778   2.141
16550SOL     OW51583   5.444   8.650   3.479
16550SOL    HW151584   5.465   8.615   3.570
16550SOL    HW251585   5.489   8.739   3.466
16551SOL     OW51586   4.751   8.799   3.206
16551SOL    HW151587   4.665   8.771   3.248
16551SOL    HW251588   4.826   8.745   3.244
16552SOL     OW51589   5.373   9.095   3.531
16552SOL    HW151590   5.344   9.117   3.438
16552SOL    HW251591   5.440   9.020   3.527
16553SOL     OW51592   4.873   8.716   2.971
16553SOL    HW151593   4.812   8.745   3.045
16553SOL    HW251594   4.836   8.746   2.883
16554SOL     OW51595   5.313   8.517   2.948
16554SOL    HW151596   5.317   8.598   3.007
16554SOL    HW251597   5.267   8.540   2.863
16555SOL     OW51598   4.719   7.453   3.257
16555SOL    HW151599   4.732   7.457   3.158
16555SOL    HW251600   4.785   7.514   3.301
16556SOL     OW51601   4.744   8.561   3.541
16556SOL    HW151602   4.655   8.603   3.559
16556SOL    HW251603   4.731   8.467   3.509
16557SOL     OW51604   4.442   8.482   2.251
16557SOL    HW151605   4.440   8.458   2.348
16557SOL    HW251606   4.529   8.454   2.212
16558SOL     OW51607   4.958   7.796   3.162
16558SOL    HW151608   4.980   7.887   3.198
16558SOL    HW251609   4.865   7.798   3.125
16559SOL     OW51610   3.822   8.998   3.192
16559SOL    HW151611   3.781   9.078   3.148
16559SOL    HW251612   3.921   9.004   3.186
16560SOL     OW51613   4.029   8.599   2.365
16560SOL    HW151614   4.015   8.683   2.312
16560SOL    HW251615   4.031   8.520   2.304
16561SOL     OW51616   4.214   8.021   2.748
16561SOL    HW151617   4.224   8.090   2.676
16561SOL    HW251618   4.297   8.019   2.803
16562SOL     OW51619   4.989   8.771   2.275
16562SOL    HW151620   5.017   8.863   2.302
16562SOL    HW251621   4.903   8.748   2.320
16563SOL     OW51622   5.058   8.914   2.994
16563SOL    HW151623   5.108   8.915   3.080
16563SOL    HW251624   4.994   8.837   2.993
16564SOL     OW51625   5.282   8.084   2.307
16564SOL    HW151626   5.233   8.116   2.388
16564SOL    HW251627   5.365   8.138   2.295
16565SOL     OW51628   4.092   8.966   3.144
16565SOL    HW151629   4.075   8.899   3.072
16565SOL    HW251630   4.190   8.987   3.147
16566SOL     OW51631   4.095   8.385   3.307
16566SOL    HW151632   4.075   8.360   3.212
16566SOL    HW251633   4.189   8.358   3.329
16567SOL     OW51634   5.355   8.254   3.554
16567SOL    HW151635   5.260   8.282   3.542
16567SOL    HW251636   5.411   8.293   3.481
16568SOL     OW51637   4.747   7.571   3.653
16568SOL    HW151638   4.789   7.660   3.633
16568SOL    HW251639   4.818   7.501   3.660
16569SOL     OW51640   4.173   7.482   3.625
16569SOL    HW151641   4.126   7.441   3.547
16569SOL    HW251642   4.124   7.564   3.654
16570SOL     OW51643   4.429   8.295   3.001
16570SOL    HW151644   4.430   8.391   2.971
16570SOL    HW251645   4.379   8.288   3.087
16571SOL     OW51646   5.029   8.335   2.817
16571SOL    HW151647   4.935   8.303   2.800
16571SOL    HW251648   5.092   8.258   2.811
16572SOL     OW51649   4.972   8.052   2.114
16572SOL    HW151650   5.005   7.976   2.169
16572SOL    HW251651   4.905   8.105   2.166
16573SOL     OW51652   3.983   7.618   3.101
16573SOL    HW151653   3.972   7.653   3.194
16573SOL    HW251654   3.954   7.522   3.098
16574SOL     OW51655   3.823   8.727   3.183
16574SOL    HW151656   3.890   8.694   3.249
16574SOL    HW251657   3.817   8.827   3.189
16575SOL     OW51658   4.437   8.035   2.903
16575SOL    HW151659   4.519   8.019   2.848
16575SOL    HW251660   4.436   8.130   2.935
16576SOL     OW51661   5.450   8.462   3.718
16576SOL    HW151662   5.423   8.380   3.667
16576SOL    HW251663   5.391   8.473   3.797
16577SOL     OW51664   3.985   7.474   2.502
16577SOL    HW151665   3.968   7.571   2.522
16577SOL    HW251666   4.003   7.426   2.588
16578SOL     OW51667   5.358   7.864   2.149
16578SOL    HW151668   5.400   7.795   2.208
16578SOL    HW251669   5.306   7.929   2.205
16579SOL     OW51670   4.768   8.217   2.786
16579SOL    HW151671   4.754   8.245   2.881
16579SOL    HW251672   4.732   8.124   2.773
16580SOL     OW51673   4.732   9.021   3.617
16580SOL    HW151674   4.695   9.075   3.542
16580SOL    HW251675   4.774   8.938   3.581
16581SOL     OW51676   5.572   8.914   3.453
16581SOL    HW151677   5.591   8.938   3.358
16581SOL    HW251678   5.656   8.923   3.507
16582SOL     OW51679   5.260   7.709   1.930
16582SOL    HW151680   5.218   7.629   1.975
16582SOL    HW251681   5.293   7.772   2.000
16583SOL     OW51682   5.017   8.292   1.854
16583SOL    HW151683   5.050   8.198   1.861
16583SOL    HW251684   5.046   8.331   1.767
16584SOL     OW51685   4.798   8.814   2.727
16584SOL    HW151686   4.819   8.741   2.661
16584SOL    HW251687   4.843   8.898   2.698
16585SOL     OW51688   4.016   7.935   2.903
16585SOL    HW151689   3.983   7.844   2.876
16585SOL    HW251690   4.085   7.967   2.839
16586SOL     OW51691   4.838   7.812   3.572
16586SOL    HW151692   4.784   7.859   3.641
16586SOL    HW251693   4.917   7.868   3.548
16587SOL     OW51694   4.897   7.630   3.373
16587SOL    HW151695   4.862   7.695   3.440
16587SOL    HW251696   4.930   7.680   3.293
16588SOL     OW51697   3.742   8.781   2.047
16588SOL    HW151698   3.650   8.809   2.017
16588SOL    HW251699   3.738   8.690   2.088
16589SOL     OW51700   4.205   9.000   2.789
16589SOL    HW151701   4.275   9.061   2.827
16589SOL    HW251702   4.249   8.935   2.726
16590SOL     OW51703   4.698   8.288   3.034
16590SOL    HW151704   4.727   8.242   3.118
16590SOL    HW251705   4.598   8.285   3.028
16591SOL     OW51706   3.753   8.017   2.955
16591SOL    HW151707   3.840   7.994   2.913
16591SOL    HW251708   3.766   8.034   3.053
16592SOL     OW51709   3.976   7.974   3.457
16592SOL    HW151710   4.069   7.961   3.425
16592SOL    HW251711   3.946   8.067   3.435
16593SOL     OW51712   5.111   8.362   3.486
16593SOL    HW151713   5.127   8.461   3.486
16593SOL    HW251714   5.094   8.331   3.393
16594SOL     OW51715   4.520   8.071   2.237
16594SOL    HW151716   4.548   7.991   2.185
16594SOL    HW251717   4.431   8.103   2.204
16595SOL     OW51718   5.335   8.062   3.006
16595SOL    HW151719   5.302   7.998   3.074
16595SOL    HW251720   5.434   8.051   2.993
16596SOL     OW51721   4.438   7.838   3.093
16596SOL    HW151722   4.370   7.765   3.088
16596SOL    HW251723   4.422   7.904   3.019
16597SOL     OW51724   4.607   9.148   3.400
16597SOL    HW151725   4.561   9.089   3.334
16597SOL    HW251726   4.650   9.224   3.353
16598SOL     OW51727   4.136   7.911   2.049
16598SOL    HW151728   4.202   7.985   2.064
16598SOL    HW251729   4.043   7.946   2.065
16599SOL     OW51730   3.980   8.626   3.400
16599SOL    HW151731   3.941   8.604   3.489
16599SOL    HW251732   4.028   8.546   3.364
16600SOL     OW51733   4.994   8.486   3.051
16600SOL    HW151734   5.017   8.429   2.972
16600SOL    HW251735   4.949   8.569   3.020
16601SOL     OW51736   5.151   8.312   2.100
16601SOL    HW151737   5.133   8.231   2.155
16601SOL    HW251738   5.094   8.311   2.019
16602SOL     OW51739   5.497   9.125   3.003
16602SOL    HW151740   5.564   9.160   2.939
16602SOL    HW251741   5.459   9.039   2.968
16603SOL     OW51742   5.011   9.173   2.917
16603SOL    HW151743   5.099   9.220   2.919
16603SOL    HW251744   5.022   9.080   2.953
16604SOL     OW51745   3.809   8.734   2.892
16604SOL    HW151746   3.804   8.728   2.991
16604SOL    HW251747   3.763   8.656   2.850
16605SOL     OW51748   4.421   9.135   3.607
16605SOL    HW151749   4.352   9.207   3.600
16605SOL    HW251750   4.494   9.151   3.540
16606SOL     OW51751   5.513   7.685   2.294
16606SOL    HW151752   5.571   7.657   2.217
16606SOL    HW251753   5.469   7.604   2.334
16607SOL     OW51754   5.070   9.022   2.341
16607SOL    HW151755   5.144   9.053   2.281
16607SOL    HW251756   5.023   9.101   2.380
16608SOL     OW51757   5.018   8.403   2.488
16608SOL    HW151758   5.084   8.330   2.508
16608SOL    HW251759   5.066   8.482   2.449
16609SOL     OW51760   4.495   8.732   3.287
16609SOL    HW151761   4.460   8.783   3.366
16609SOL    HW251762   4.424   8.729   3.216
16610SOL     OW51763   4.242   9.067   2.015
16610SOL    HW151764   4.280   9.091   1.926
16610SOL    HW251765   4.225   8.969   2.019
16611SOL     OW51766   5.347   9.147   3.251
16611SOL    HW151767   5.403   9.138   3.169
16611SOL    HW251768   5.327   9.243   3.268
16612SOL     OW51769   5.565   7.608   2.860
16612SOL    HW151770   5.589   7.513   2.841
16612SOL    HW251771   5.478   7.630   2.817
16613SOL     OW51772   3.961   7.735   2.581
16613SOL    HW151773   3.902   7.811   2.552
16613SOL    HW251774   3.953   7.722   2.679
16614SOL     OW51775   4.990   9.065   1.831
16614SOL    HW151776   4.954   8.980   1.792
16614SOL    HW251777   4.979   9.139   1.765
16615SOL     OW51778   4.555   8.466   3.262
16615SOL    HW151779   4.621   8.461   3.187
16615SOL    HW251780   4.534   8.562   3.281
16616SOL     OW51781   4.675   8.398   2.143
16616SOL    HW151782   4.736   8.436   2.074
16616SOL    HW251783   4.719   8.320   2.188
16617SOL     OW51784   5.253   9.075   1.912
16617SOL    HW151785   5.157   9.066   1.888
16617SOL    HW251786   5.308   9.078   1.829
16618SOL     OW51787   4.111   8.876   3.402
16618SOL    HW151788   4.103   8.905   3.307
16618SOL    HW251789   4.068   8.787   3.414
16619SOL     OW51790   5.341   8.735   3.112
16619SOL    HW151791   5.430   8.719   3.156
16619SOL    HW251792   5.283   8.789   3.173
16620SOL     OW51793   4.823   8.587   2.577
16620SOL    HW151794   4.745   8.540   2.619
16620SOL    HW251795   4.889   8.519   2.544
16621SOL     OW51796   4.760   7.694   2.805
16621SOL    HW151797   4.734   7.651   2.719
16621SOL    HW251798   4.780   7.623   2.874
16622SOL     OW51799   4.330   8.960   2.387
16622SOL    HW151800   4.355   8.884   2.327
16622SOL    HW251801   4.258   9.014   2.345
16623SOL     OW51802   5.539   7.814   3.337
16623SOL    HW151803   5.574   7.905   3.314
16623SOL    HW251804   5.538   7.757   3.254
16624SOL     OW51805   3.965   8.814   2.209
16624SOL    HW151806   3.882   8.809   2.153
16624SOL    HW251807   3.946   8.867   2.292
16625SOL     OW51808   3.876   8.534   3.652
16625SOL    HW151809   3.780   8.546   3.677
16625SOL    HW251810   3.897   8.436   3.652
16626SOL     OW51811   4.490   7.483   3.411
16626SOL    HW151812   4.573   7.482   3.354
16626SOL    HW251813   4.494   7.561   3.473
16627SOL     OW51814   3.784   7.761   1.864
16627SOL    HW151815   3.702   7.756   1.808
16627SOL    HW251816   3.828   7.850   1.853
16628SOL     OW51817   5.098   8.295   3.221
16628SOL    HW151818   5.045   8.359   3.167
16628SOL    HW251819   5.195   8.301   3.195
16629SOL     OW51820   3.717   7.579   2.071
16629SOL    HW151821   3.717   7.648   1.999
16629SOL    HW251822   3.807   7.535   2.075
16630SOL     OW51823   4.975   8.716   2.000
16630SOL    HW151824   4.924   8.631   1.992
16630SOL    HW251825   4.984   8.741   2.097
16631SOL     OW51826   4.361   8.275   3.271
16631SOL    HW151827   4.429   8.347   3.279
16631SOL    HW251828   4.404   8.186   3.284
16632SOL     OW51829   5.259   9.288   2.927
16632SOL    HW151830   5.289   9.358   2.862
16632SOL    HW251831   5.339   9.237   2.959
16633SOL     OW51832   4.442   7.926   3.528
16633SOL    HW151833   4.475   7.996   3.590
16633SOL    HW251834   4.466   7.836   3.563
16634SOL     OW51835   5.168   8.628   3.481
16634SOL    HW151836   5.149   8.646   3.577
16634SOL    HW251837   5.266   8.642   3.463
16635SOL     OW51838   4.083   9.163   3.439
16635SOL    HW151839   3.988   9.195   3.443
16635SOL    HW251840   4.084   9.063   3.447
16636SOL     OW51841   5.354   8.317   3.125
16636SOL    HW151842   5.357   8.230   3.077
16636SOL    HW251843   5.344   8.391   3.059
16637SOL     OW51844   5.045   7.852   2.275
16637SOL    HW151845   5.095   7.765   2.274
16637SOL    HW251846   5.034   7.883   2.370
16638SOL     OW51847   4.241   8.239   2.576
16638SOL    HW151848   4.320   8.296   2.551
16638SOL    HW251849   4.202   8.198   2.493
16639SOL     OW51850   5.454   7.760   3.595
16639SOL    HW151851   5.491   7.784   3.505
16639SOL    HW251852   5.356   7.743   3.586
16640SOL     OW51853   5.487   8.393   3.360
16640SOL    HW151854   5.475   8.490   3.382
16640SOL    HW251855   5.443   8.374   3.272
16641SOL     OW51856   4.566   8.750   1.876
16641SOL    HW151857   4.585   8.787   1.967
16641SOL    HW251858   4.583   8.821   1.807
16642SOL     OW51859   4.383   9.189   2.856
16642SOL    HW151860   4.360   9.286   2.854
16642SOL    HW251861   4.480   9.177   2.835
16643SOL     OW51862   4.620   8.447   2.716
16643SOL    HW151863   4.671   8.363   2.738
16643SOL    HW251864   4.574   8.480   2.799
16644SOL     OW51865   4.846   8.482   1.945
16644SOL    HW151866   4.803   8.521   1.864
16644SOL    HW251867   4.907   8.407   1.919
16645SOL     OW51868   3.798   8.659   2.512
16645SOL    HW151869   3.821   8.744   2.558
16645SOL    HW251870   3.878   8.623   2.464
16646SOL     OW51871   4.371   8.883   3.491
16646SOL    HW151872   4.275   8.878   3.464
16646SOL    HW251873   4.389   8.969   3.539
16647SOL     OW51874   5.544   7.634   3.136
16647SOL    HW151875   5.607   7.558   3.153
16647SOL    HW251876   5.536   7.650   3.038
16648SOL     OW51877   4.126   7.862   2.393
16648SOL    HW151878   4.171   7.798   2.330
16648SOL    HW251879   4.081   7.811   2.466
16649SOL     OW51880   5.400   8.891   2.902
16649SOL    HW151881   5.320   8.888   2.841
16649SOL    HW251882   5.384   8.833   2.982
16650SOL     OW51883   4.076   8.029   3.151
16650SOL    HW151884   4.140   7.980   3.210
16650SOL    HW251885   4.067   7.980   3.064
16651SOL     OW51886   4.509   9.121   2.523
16651SOL    HW151887   4.521   9.205   2.470
16651SOL    HW251888   4.447   9.060   2.474
16652SOL     OW51889   5.131   7.701   2.976
16652SOL    HW151890   5.145   7.603   2.986
16652SOL    HW251891   5.074   7.734   3.051
16653SOL     OW51892   4.780   7.460   2.964
16653SOL    HW151893   4.707   7.410   2.918
16653SOL    HW251894   4.867   7.412   2.950
16654SOL     OW51895   4.396   8.752   2.217
16654SOL    HW151896   4.321   8.762   2.153
16654SOL    HW251897   4.413   8.655   2.234
16655SOL     OW51898   4.356   9.006   3.136
16655SOL    HW151899   4.344   9.093   3.183
16655SOL    HW251900   4.445   9.003   3.091
16656SOL     OW51901   5.144   7.487   2.044
16656SOL    HW151902   5.177   7.397   2.014
16656SOL    HW251903   5.044   7.488   2.044
16657SOL     OW51904   5.024   7.945   2.531
16657SOL    HW151905   4.972   8.029   2.521
16657SOL    HW251906   5.012   7.908   2.623
16658SOL     OW51907   5.315   7.667   2.772
16658SOL    HW151908   5.252   7.696   2.845
16658SOL    HW251909   5.315   7.735   2.699
16659SOL     OW51910   3.764   8.537   2.168
16659SOL    HW151911   3.863   8.530   2.162
16659SOL    HW251912   3.724   8.446   2.180
16660SOL     OW51913   3.983   7.766   4.750
16660SOL    HW151914   4.028   7.737   4.834
16660SOL    HW251915   3.896   7.719   4.741
16661SOL     OW51916   3.725   7.844   4.379
16661SOL    HW151917   3.640   7.873   4.423
16661SOL    HW251918   3.705   7.772   4.312
16662SOL     OW51919   5.285   8.875   4.400
16662SOL    HW151920   5.251   8.861   4.493
16662SOL    HW251921   5.212   8.916   4.344
16663SOL     OW51922   5.003   8.155   4.365
16663SOL    HW151923   5.021   8.254   4.372
16663SOL    HW251924   4.974   8.120   4.454
16664SOL     OW51925   5.510   8.025   3.940
16664SOL    HW151926   5.464   8.039   3.853
16664SOL    HW251927   5.459   7.959   3.996
16665SOL     OW51928   4.503   8.547   4.796
16665SOL    HW151929   4.420   8.578   4.843
16665SOL    HW251930   4.555   8.626   4.765
16666SOL     OW51931   4.598   8.131   5.591
16666SOL    HW151932   4.593   8.180   5.678
16666SOL    HW251933   4.624   8.196   5.518
16667SOL     OW51934   4.390   8.355   4.431
16667SOL    HW151935   4.475   8.387   4.471
16667SOL    HW251936   4.325   8.431   4.424
16668SOL     OW51937   4.359   8.629   5.554
16668SOL    HW151938   4.389   8.720   5.583
16668SOL    HW251939   4.292   8.638   5.480
16669SOL     OW51940   3.946   8.937   4.779
16669SOL    HW151941   3.868   8.966   4.724
16669SOL    HW251942   4.024   8.919   4.720
16670SOL     OW51943   5.252   8.924   5.075
16670SOL    HW151944   5.328   8.988   5.091
16670SOL    HW251945   5.180   8.942   5.142
16671SOL     OW51946   4.117   7.864   5.298
16671SOL    HW151947   4.205   7.821   5.318
16671SOL    HW251948   4.049   7.793   5.277
16672SOL     OW51949   5.324   7.952   4.480
16672SOL    HW151950   5.293   7.981   4.390
16672SOL    HW251951   5.285   8.013   4.550
16673SOL     OW51952   3.959   9.230   4.205
16673SOL    HW151953   3.985   9.294   4.277
16673SOL    HW251954   4.035   9.221   4.140
16674SOL     OW51955   3.964   8.960   4.255
16674SOL    HW151956   3.952   9.059   4.257
16674SOL    HW251957   3.930   8.920   4.339
16675SOL     OW51958   4.006   8.443   4.605
16675SOL    HW151959   4.034   8.392   4.687
16675SOL    HW251960   3.938   8.511   4.630
16676SOL     OW51961   4.292   9.253   5.131
16676SOL    HW151962   4.222   9.239   5.201
16676SOL    HW251963   4.345   9.336   5.153
16677SOL     OW51964   5.425   7.514   5.253
16677SOL    HW151965   5.467   7.560   5.175
16677SOL    HW251966   5.364   7.577   5.300
16678SOL     OW51967   3.828   8.101   4.336
16678SOL    HW151968   3.794   8.008   4.349
16678SOL    HW251969   3.822   8.151   4.422
16679SOL     OW51970   5.545   9.307   4.082
16679SOL    HW151971   5.626   9.260   4.115
16679SOL    HW251972   5.572   9.379   4.017
16680SOL     OW51973   3.873   9.028   3.863
16680SOL    HW151974   3.837   8.938   3.888
16680SOL    HW251975   3.833   9.098   3.922
16681SOL     OW51976   5.391   8.579   4.147
16681SOL    HW151977   5.478   8.556   4.104
16681SOL    HW251978   5.407   8.601   4.243
16682SOL     OW51979   3.858   8.194   5.250
16682SOL    HW151980   3.947   8.239   5.248
16682SOL    HW251981   3.786   8.262   5.234
16683SOL     OW51982   4.268   8.797   4.427
16683SOL    HW151983   4.242   8.701   4.419
16683SOL    HW251984   4.260   8.842   4.338
16684SOL     OW51985   4.981   8.642   5.178
16684SOL    HW151986   4.998   8.574   5.106
16684SOL    HW251987   5.062   8.648   5.237
16685SOL     OW51988   4.580   7.483   4.236
16685SOL    HW151989   4.628   7.566   4.208
16685SOL    HW251990   4.481   7.500   4.234
16686SOL     OW51991   3.899   8.372   4.967
16686SOL    HW151992   3.982   8.344   4.919
16686SOL    HW251993   3.823   8.314   4.937
16687SOL     OW51994   5.258   8.483   3.926
16687SOL    HW151995   5.185   8.420   3.953
16687SOL    HW251996   5.304   8.517   4.008
16688SOL     OW51997   5.029   9.357   5.338
16688SOL    HW151998   4.973   9.413   5.277
16688SOL    HW251999   5.025   9.262   5.309
16689SOL     OW52000   4.073   7.698   5.633
16689SOL    HW152001   4.109   7.782   5.675
16689SOL    HW252002   3.982   7.717   5.596
16690SOL     OW52003   5.228   8.810   4.660
16690SOL    HW152004   5.172   8.859   4.727
16690SOL    HW252005   5.197   8.715   4.654
16691SOL     OW52006   5.481   9.030   4.295
16691SOL    HW152007   5.453   9.053   4.202
16691SOL    HW252008   5.414   8.966   4.335
16692SOL     OW52009   5.020   7.859   4.688
16692SOL    HW152010   4.932   7.814   4.669
16692SOL    HW252011   5.070   7.806   4.756
16693SOL     OW52012   5.348   9.114   4.042
16693SOL    HW152013   5.406   9.195   4.047
16693SOL    HW252014   5.304   9.110   3.952
16694SOL     OW52015   4.538   8.026   5.176
16694SOL    HW152016   4.512   7.988   5.265
16694SOL    HW252017   4.510   7.963   5.104
16695SOL     OW52018   5.082   7.920   5.399
16695SOL    HW152019   5.082   7.969   5.486
16695SOL    HW252020   5.156   7.853   5.399
16696SOL     OW52021   4.699   8.329   5.425
16696SOL    HW152022   4.793   8.297   5.432
16696SOL    HW252023   4.679   8.354   5.330
16697SOL     OW52024   4.740   7.804   4.941
16697SOL    HW152025   4.646   7.832   4.959
16697SOL    HW252026   4.746   7.767   4.849
16698SOL     OW52027   4.852   8.160   4.132
16698SOL    HW152028   4.902   8.158   4.219
16698SOL    HW252029   4.754   8.150   4.150
16699SOL     OW52030   3.813   8.250   4.561
16699SOL    HW152031   3.893   8.310   4.561
16699SOL    HW252032   3.732   8.303   4.587
16700SOL     OW52033   3.872   9.346   5.339
16700SOL    HW152034   3.852   9.295   5.422
16700SOL    HW252035   3.804   9.325   5.269
16701SOL     OW52036   4.572   7.875   4.006
16701SOL    HW152037   4.611   7.887   3.914
16701SOL    HW252038   4.489   7.820   3.999
16702SOL     OW52039   5.349   8.022   5.580
16702SOL    HW152040   5.357   8.104   5.524
16702SOL    HW252041   5.397   7.946   5.536
16703SOL     OW52042   5.116   8.626   4.213
16703SOL    HW152043   5.208   8.627   4.174
16703SOL    HW252044   5.061   8.697   4.170
16704SOL     OW52045   4.253   7.584   4.681
16704SOL    HW152046   4.294   7.605   4.770
16704SOL    HW252047   4.227   7.669   4.635
16705SOL     OW52048   4.700   8.907   4.172
16705SOL    HW152049   4.679   8.994   4.126
16705SOL    HW252050   4.651   8.902   4.258
16706SOL     OW52051   4.143   9.270   4.630
16706SOL    HW152052   4.196   9.186   4.640
16706SOL    HW252053   4.201   9.349   4.653
16707SOL     OW52054   5.475   8.433   4.559
16707SOL    HW152055   5.472   8.516   4.503
16707SOL    HW252056   5.447   8.455   4.653
16708SOL     OW52057   5.018   8.966   5.212
16708SOL    HW152058   4.977   8.951   5.302
16708SOL    HW252059   4.961   8.923   5.142
16709SOL     OW52060   4.175   8.724   5.376
16709SOL    HW152061   4.152   8.711   5.279
16709SOL    HW252062   4.091   8.734   5.429
16710SOL     OW52063   4.871   9.206   3.964
16710SOL    HW152064   4.780   9.186   4.000
16710SOL    HW252065   4.895   9.138   3.894
16711SOL     OW52066   3.943   7.674   5.217
16711SOL    HW152067   3.862   7.722   5.182
16711SOL    HW252068   3.914   7.597   5.274
16712SOL     OW52069   5.347   8.829   3.795
16712SOL    HW152070   5.315   8.923   3.789
16712SOL    HW252071   5.272   8.766   3.773
16713SOL     OW52072   4.195   9.232   4.058
16713SOL    HW152073   4.244   9.285   4.128
16713SOL    HW252074   4.260   9.176   4.007
16714SOL     OW52075   5.145   7.553   4.098
16714SOL    HW152076   5.114   7.522   4.008
16714SOL    HW252077   5.224   7.498   4.126
16715SOL     OW52078   3.936   9.218   4.994
16715SOL    HW152079   3.986   9.134   5.018
16715SOL    HW252080   3.920   9.219   4.895
16716SOL     OW52081   4.640   9.108   4.528
16716SOL    HW152082   4.734   9.075   4.533
16716SOL    HW252083   4.587   9.048   4.468
16717SOL     OW52084   4.071   8.101   4.210
16717SOL    HW152085   4.098   8.005   4.225
16717SOL    HW252086   3.985   8.119   4.258
16718SOL     OW52087   5.240   7.675   5.398
16718SOL    HW152088   5.230   7.666   5.497
16718SOL    HW252089   5.159   7.639   5.353
16719SOL     OW52090   4.361   7.531   3.814
16719SOL    HW152091   4.396   7.444   3.848
16719SOL    HW252092   4.288   7.515   3.748
16720SOL     OW52093   4.472   7.680   5.499
16720SOL    HW152094   4.552   7.631   5.464
16720SOL    HW252095   4.445   7.641   5.587
16721SOL     OW52096   4.585   8.944   4.938
16721SOL    HW152097   4.586   8.895   4.851
16721SOL    HW252098   4.656   8.906   4.998
16722SOL     OW52099   5.019   8.039   5.162
16722SOL    HW152100   5.049   8.008   5.253
16722SOL    HW252101   5.066   8.124   5.140
16723SOL     OW52102   4.596   8.793   4.704
16723SOL    HW152103   4.690   8.791   4.670
16723SOL    HW252104   4.540   8.849   4.642
16724SOL     OW52105   4.704   7.961   4.621
16724SOL    HW152106   4.695   7.953   4.522
16724SOL    HW252107   4.735   7.873   4.659
16725SOL     OW52108   4.310   7.536   4.210
16725SOL    HW152109   4.230   7.544   4.269
16725SOL    HW252110   4.315   7.615   4.150
16726SOL     OW52111   5.137   8.657   3.752
16726SOL    HW152112   5.178   8.587   3.810
16726SOL    HW252113   5.052   8.690   3.794
16727SOL     OW52114   3.979   7.482   3.893
16727SOL    HW152115   4.013   7.562   3.843
16727SOL    HW252116   4.054   7.439   3.942
16728SOL     OW52117   4.714   7.713   4.174
16728SOL    HW152118   4.666   7.769   4.107
16728SOL    HW252119   4.813   7.720   4.160
16729SOL     OW52120   4.774   8.162   5.151
16729SOL    HW152121   4.694   8.104   5.169
16729SOL    HW252122   4.857   8.106   5.158
16730SOL     OW52123   4.907   9.048   4.522
16730SOL    HW152124   4.949   9.104   4.450
16730SOL    HW252125   4.927   9.087   4.611
16731SOL     OW52126   4.178   8.539   4.418
16731SOL    HW152127   4.125   8.499   4.492
16731SOL    HW252128   4.118   8.557   4.339
16732SOL     OW52129   4.980   9.241   4.329
16732SOL    HW152130   5.022   9.308   4.267
16732SOL    HW252131   4.894   9.278   4.365
16733SOL     OW52132   4.712   7.944   3.775
16733SOL    HW152133   4.672   8.030   3.744
16733SOL    HW252134   4.791   7.964   3.834
16734SOL     OW52135   3.815   7.991   5.074
16734SOL    HW152136   3.908   7.960   5.052
16734SOL    HW252137   3.819   8.064   5.142
16735SOL     OW52138   4.687   7.918   4.359
16735SOL    HW152139   4.652   7.990   4.298
16735SOL    HW252140   4.698   7.833   4.307
16736SOL     OW52141   4.712   7.519   4.482
16736SOL    HW152142   4.663   7.510   4.395
16736SOL    HW252143   4.687   7.444   4.543
16737SOL     OW52144   5.152   8.545   4.633
16737SOL    HW152145   5.105   8.468   4.675
16737SOL    HW252146   5.138   8.542   4.534
16738SOL     OW52147   5.174   8.082   4.680
16738SOL    HW152148   5.111   8.005   4.682
16738SOL    HW252149   5.241   8.073   4.754
16739SOL     OW52150   5.635   8.237   4.072
16739SOL    HW152151   5.670   8.195   4.155
16739SOL    HW252152   5.592   8.167   4.015
16740SOL     OW52153   4.162   8.973   3.906
16740SOL    HW152154   4.128   8.889   3.949
16740SOL    HW252155   4.084   9.024   3.869
16741SOL     OW52156   5.453   8.660   4.405
16741SOL    HW152157   5.546   8.697   4.409
16741SOL    HW252158   5.388   8.735   4.403
16742SOL     OW52159   5.101   8.046   3.756
16742SOL    HW152160   5.053   8.003   3.832
16742SOL    HW252161   5.199   8.031   3.766
16743SOL     OW52162   4.348   7.719   4.004
16743SOL    HW152163   4.359   7.650   3.933
16743SOL    HW252164   4.263   7.769   3.989
16744SOL     OW52165   5.496   8.649   5.250
16744SOL    HW152166   5.589   8.620   5.229
16744SOL    HW252167   5.497   8.739   5.293
16745SOL     OW52168   4.765   8.779   5.081
16745SOL    HW152169   4.677   8.733   5.095
16745SOL    HW252170   4.837   8.726   5.126
16746SOL     OW52171   5.374   9.093   5.428
16746SOL    HW152172   5.392   9.175   5.373
16746SOL    HW252173   5.432   9.018   5.396
16747SOL     OW52174   4.917   8.715   4.860
16747SOL    HW152175   4.845   8.741   4.925
16747SOL    HW252176   4.887   8.737   4.767
16748SOL     OW52177   5.365   8.510   4.803
16748SOL    HW152178   5.365   8.577   4.877
16748SOL    HW252179   5.286   8.524   4.744
16749SOL     OW52180   4.620   8.541   5.575
16749SOL    HW152181   4.523   8.562   5.562
16749SOL    HW252182   4.645   8.464   5.515
16750SOL     OW52183   4.981   7.790   5.061
16750SOL    HW152184   5.000   7.882   5.095
16750SOL    HW252185   4.890   7.788   5.019
16751SOL     OW52186   3.985   8.607   4.238
16751SOL    HW152187   4.013   8.676   4.171
16751SOL    HW252188   3.916   8.548   4.197
16752SOL     OW52189   4.275   7.998   4.561
16752SOL    HW152190   4.301   8.040   4.474
16752SOL    HW252191   4.351   8.005   4.625
16753SOL     OW52192   4.962   8.837   4.112
16753SOL    HW152193   5.023   8.907   4.151
16753SOL    HW252194   4.868   8.855   4.141
16754SOL     OW52195   5.083   8.926   4.863
16754SOL    HW152196   5.148   8.928   4.940
16754SOL    HW252197   5.026   8.844   4.871
16755SOL     OW52198   4.068   8.973   5.022
16755SOL    HW152199   4.035   8.963   4.928
16755SOL    HW252200   4.166   8.989   5.022
16756SOL     OW52201   4.153   8.218   5.303
16756SOL    HW152202   4.243   8.247   5.271
16756SOL    HW252203   4.159   8.125   5.340
16757SOL     OW52204   5.367   8.245   5.430
16757SOL    HW152205   5.275   8.283   5.416
16757SOL    HW252206   5.425   8.269   5.352
16758SOL     OW52207   4.687   7.559   5.398
16758SOL    HW152208   4.751   7.635   5.414
16758SOL    HW252209   4.730   7.491   5.339
16759SOL     OW52210   4.208   7.480   5.531
16759SOL    HW152211   4.152   7.418   5.477
16759SOL    HW252212   4.156   7.564   5.549
16760SOL     OW52213   5.036   8.316   4.726
16760SOL    HW152214   4.943   8.291   4.699
16760SOL    HW252215   5.098   8.239   4.709
16761SOL     OW52216   4.923   7.966   3.955
16761SOL    HW152217   4.947   7.886   4.010
16761SOL    HW252218   4.901   8.042   4.016
16762SOL     OW52219   4.116   7.591   5.004
16762SOL    HW152220   4.073   7.636   5.082
16762SOL    HW252221   4.062   7.511   4.977
16763SOL     OW52222   3.799   8.731   4.897
16763SOL    HW152223   3.827   8.693   4.986
16763SOL    HW252224   3.854   8.812   4.877
16764SOL     OW52225   4.477   8.033   4.749
16764SOL    HW152226   4.562   8.010   4.701
16764SOL    HW252227   4.481   8.127   4.783
16765SOL     OW52228   5.517   8.409   5.594
16765SOL    HW152229   5.466   8.344   5.538
16765SOL    HW252230   5.463   8.433   5.674
16766SOL     OW52231   4.076   7.529   4.371
16766SOL    HW152232   4.033   7.616   4.396
16766SOL    HW252233   4.077   7.468   4.450
16767SOL     OW52234   5.328   7.855   4.071
16767SOL    HW152235   5.382   7.785   4.118
16767SOL    HW252236   5.286   7.916   4.139
16768SOL     OW52237   4.785   8.219   4.669
16768SOL    HW152238   4.766   8.240   4.765
16768SOL    HW252239   4.764   8.124   4.651
16769SOL     OW52240   5.560   8.909   5.320
16769SOL    HW152241   5.580   8.912   5.222
16769SOL    HW252242   5.644   8.930   5.371
16770SOL     OW52243   4.054   8.394   5.487
16770SOL    HW152244   4.114   8.406   5.566
16770SOL    HW252245   4.096   8.331   5.422
16771SOL     OW52246   5.182   7.760   3.846
16771SOL    HW152247   5.121   7.686   3.876
16771SOL    HW252248   5.234   7.794   3.924
16772SOL     OW52249   4.991   8.287   3.720
16772SOL    HW152250   5.027   8.194   3.733
16772SOL    HW252251   5.026   8.325   3.634
16773SOL     OW52252   4.846   8.792   4.610
16773SOL    HW152253   4.855   8.713   4.550
16773SOL    HW252254   4.879   8.874   4.563
16774SOL     OW52255   4.062   8.031   4.729
16774SOL    HW152256   4.021   7.941   4.747
16774SOL    HW252257   4.133   8.022   4.659
16775SOL     OW52258   4.855   7.770   5.448
16775SOL    HW152259   4.802   7.808   5.523
16775SOL    HW252260   4.928   7.834   5.424
16776SOL     OW52261   4.998   7.614   5.271
16776SOL    HW152262   4.943   7.660   5.341
16776SOL    HW252263   4.998   7.667   5.187
16777SOL     OW52264   3.761   8.773   3.914
16777SOL    HW152265   3.676   8.793   3.865
16777SOL    HW252266   3.762   8.677   3.942
16778SOL     OW52267   3.886   9.246   4.726
16778SOL    HW152268   3.833   9.171   4.687
16778SOL    HW252269   3.976   9.250   4.684
16779SOL     OW52270   4.717   8.280   4.920
16779SOL    HW152271   4.745   8.234   5.004
16779SOL    HW252272   4.617   8.278   4.914
16780SOL     OW52273   3.759   8.145   4.851
16780SOL    HW152274   3.818   8.135   4.771
16780SOL    HW252275   3.789   8.083   4.923
16781SOL     OW52276   3.947   8.024   5.448
16781SOL    HW152277   4.015   7.968   5.399
16781SOL    HW252278   3.906   8.089   5.385
16782SOL     OW52279   5.136   8.366   5.354
16782SOL    HW152280   5.159   8.463   5.352
16782SOL    HW252281   5.129   8.331   5.261
16783SOL     OW52282   4.580   8.091   4.173
16783SOL    HW152283   4.571   8.017   4.106
16783SOL    HW252284   4.492   8.107   4.217
16784SOL     OW52285   5.357   8.041   4.876
16784SOL    HW152286   5.333   7.959   4.929
16784SOL    HW252287   5.455   8.040   4.856
16785SOL     OW52288   3.927   8.988   5.385
16785SOL    HW152289   3.911   9.059   5.455
16785SOL    HW252290   3.932   8.899   5.429
16786SOL     OW52291   4.467   7.864   4.967
16786SOL    HW152292   4.423   7.776   4.948
16786SOL    HW252293   4.460   7.923   4.886
16787SOL     OW52294   4.107   7.835   3.981
16787SOL    HW152295   4.086   7.930   3.956
16787SOL    HW252296   4.100   7.825   4.081
16788SOL     OW52297   3.861   8.585   5.134
16788SOL    HW152298   3.856   8.554   5.229
16788SOL    HW252299   3.872   8.506   5.074
16789SOL     OW52300   5.013   8.477   4.948
16789SOL    HW152301   5.017   8.411   4.873
16789SOL    HW252302   4.982   8.565   4.913
16790SOL     OW52303   5.046   8.320   3.986
16790SOL    HW152304   4.975   8.277   4.042
16790SOL    HW252305   5.021   8.313   3.890
16791SOL     OW52306   4.944   9.145   4.773
16791SOL    HW152307   5.006   9.224   4.774
16791SOL    HW252308   4.990   9.066   4.812
16792SOL     OW52309   3.806   8.615   4.656
16792SOL    HW152310   3.796   8.658   4.746
16792SOL    HW252311   3.730   8.552   4.641
16793SOL     OW52312   4.444   9.152   5.518
16793SOL    HW152313   4.367   9.215   5.506
16793SOL    HW252314   4.507   9.163   5.441
16794SOL     OW52315   5.503   7.670   4.187
16794SOL    HW152316   5.573   7.650   4.118
16794SOL    HW252317   5.465   7.584   4.222
16795SOL     OW52318   5.130   9.029   4.221
16795SOL    HW152319   5.202   9.063   4.159
16795SOL    HW252320   5.076   9.106   4.254
16796SOL     OW52321   3.871   9.188   5.562
16796SOL    HW152322   3.818   9.123   5.617
16796SOL    HW252323   3.925   9.246   5.623
16797SOL     OW52324   5.073   8.422   4.380
16797SOL    HW152325   5.162   8.378   4.391
16797SOL    HW252326   5.080   8.494   4.311
16798SOL     OW52327   4.512   8.672   5.103
16798SOL    HW152328   4.480   8.733   5.175
16798SOL    HW252329   4.443   8.667   5.030
16799SOL     OW52330   4.394   9.115   3.882
16799SOL    HW152331   4.422   9.119   3.786
16799SOL    HW252332   4.322   9.047   3.893
16800SOL     OW52333   5.460   9.107   5.088
16800SOL    HW152334   5.446   9.133   4.992
16800SOL    HW252335   5.451   9.187   5.147
16801SOL     OW52336   5.556   7.629   4.777
16801SOL    HW152337   5.572   7.537   4.741
16801SOL    HW252338   5.479   7.671   4.728
16802SOL     OW52339   3.974   7.766   4.465
16802SOL    HW152340   3.883   7.795   4.437
16802SOL    HW252341   3.983   7.774   4.565
16803SOL     OW52342   4.968   9.039   3.766
16803SOL    HW152343   4.957   8.946   3.800
16803SOL    HW252344   4.896   9.060   3.700
16804SOL     OW52345   4.621   8.434   5.178
16804SOL    HW152346   4.683   8.402   5.107
16804SOL    HW252347   4.582   8.522   5.151
16805SOL     OW52348   4.535   8.354   3.904
16805SOL    HW152349   4.619   8.387   3.860
16805SOL    HW252350   4.559   8.302   3.986
16806SOL     OW52351   5.237   9.100   3.779
16806SOL    HW152352   5.141   9.076   3.762
16806SOL    HW252353   5.285   9.108   3.691
16807SOL     OW52354   4.105   8.715   5.109
16807SOL    HW152355   4.086   8.811   5.092
16807SOL    HW252356   4.019   8.665   5.118
16808SOL     OW52357   5.379   8.689   5.005
16808SOL    HW152358   5.422   8.666   5.092
16808SOL    HW252359   5.326   8.773   5.016
16809SOL     OW52360   4.846   8.563   4.473
16809SOL    HW152361   4.764   8.508   4.490
16809SOL    HW252362   4.918   8.504   4.435
16810SOL     OW52363   4.783   7.700   4.684
16810SOL    HW152364   4.746   7.661   4.600
16810SOL    HW252365   4.816   7.627   4.743
16811SOL     OW52366   4.293   8.929   4.182
16811SOL    HW152367   4.351   8.883   4.114
16811SOL    HW252368   4.211   8.964   4.137
16812SOL     OW52369   5.595   7.825   5.202
16812SOL    HW152370   5.636   7.905   5.158
16812SOL    HW252371   5.586   7.751   5.136
16813SOL     OW52372   4.005   8.801   4.049
16813SOL    HW152373   3.922   8.786   3.996
16813SOL    HW252374   3.986   8.866   4.123
16814SOL     OW52375   3.828   8.508   5.396
16814SOL    HW152376   3.750   8.493   5.456
16814SOL    HW252377   3.908   8.461   5.433
16815SOL     OW52378   4.327   7.663   5.267
16815SOL    HW152379   4.383   7.710   5.199
16815SOL    HW252380   4.374   7.665   5.355
16816SOL     OW52381   3.839   7.825   3.634
16816SOL    HW152382   3.742   7.842   3.619
16816SOL    HW252383   3.893   7.887   3.577
16817SOL     OW52384   5.135   8.283   5.099
16817SOL    HW152385   5.078   8.348   5.049
16817SOL    HW252386   5.227   8.283   5.061
16818SOL     OW52387   3.727   7.551   3.969
16818SOL    HW152388   3.676   7.589   3.892
16818SOL    HW252389   3.822   7.534   3.941
16819SOL     OW52390   4.913   8.785   3.849
16819SOL    HW152391   4.814   8.783   3.838
16819SOL    HW252392   4.936   8.792   3.947
16820SOL     OW52393   4.409   8.263   5.226
16820SOL    HW152394   4.476   8.337   5.218
16820SOL    HW252395   4.454   8.175   5.208
16821SOL     OW52396   4.469   7.943   5.421
16821SOL    HW152397   4.501   8.010   5.488
16821SOL    HW252398   4.471   7.851   5.461
16822SOL     OW52399   5.218   8.625   5.340
16822SOL    HW152400   5.220   8.646   5.437
16822SOL    HW252401   5.310   8.636   5.301
16823SOL     OW52402   4.100   9.201   5.316
16823SOL    HW152403   4.021   9.263   5.315
16823SOL    HW252404   4.068   9.107   5.322
16824SOL     OW52405   5.380   8.297   4.980
16824SOL    HW152406   5.379   8.207   4.937
16824SOL    HW252407   5.380   8.368   4.910
16825SOL     OW52408   4.984   7.767   4.144
16825SOL    HW152409   5.040   7.686   4.128
16825SOL    HW252410   5.025   7.822   4.217
16826SOL     OW52411   4.334   8.122   4.313
16826SOL    HW152412   4.359   8.209   4.356
16826SOL    HW252413   4.245   8.132   4.268
16827SOL     OW52414   5.473   7.813   5.444
16827SOL    HW152415   5.520   7.826   5.357
16827SOL    HW252416   5.391   7.759   5.430
16828SOL     OW52417   5.500   8.354   5.220
16828SOL    HW152418   5.493   8.452   5.234
16828SOL    HW252419   5.464   8.330   5.130
16829SOL     OW52420   4.646   8.837   3.809
16829SOL    HW152421   4.574   8.849   3.878
16829SOL    HW252422   4.656   8.922   3.757
16830SOL     OW52423   4.442   9.212   4.692
16830SOL    HW152424   4.415   9.307   4.674
16830SOL    HW252425   4.510   9.183   4.624
16831SOL     OW52426   4.623   8.419   4.570
16831SOL    HW152427   4.682   8.343   4.598
16831SOL    HW252428   4.585   8.462   4.652
16832SOL     OW52429   4.763   8.423   3.780
16832SOL    HW152430   4.756   8.490   3.706
16832SOL    HW252431   4.845   8.367   3.767
16833SOL     OW52432   5.572   9.100   4.543
16833SOL    HW152433   5.554   9.074   4.448
16833SOL    HW252434   5.546   9.025   4.604
16834SOL     OW52435   3.926   8.741   5.501
16834SOL    HW152436   3.890   8.661   5.453
16834SOL    HW252437   3.890   8.744   5.594
16835SOL     OW52438   3.871   8.769   4.439
16835SOL    HW152439   3.853   8.720   4.524
16835SOL    HW252440   3.918   8.708   4.375
16836SOL     OW52441   4.404   8.848   5.273
16836SOL    HW152442   4.325   8.818   5.326
16836SOL    HW252443   4.375   8.916   5.205
16837SOL     OW52444   5.580   7.602   5.044
16837SOL    HW152445   5.649   7.529   5.049
16837SOL    HW252446   5.561   7.623   4.948
16838SOL     OW52447   4.141   7.844   4.262
16838SOL    HW152448   4.234   7.851   4.297
16838SOL    HW252449   4.079   7.816   4.335
16839SOL     OW52450   5.479   8.910   4.723
16839SOL    HW152451   5.394   8.865   4.696
16839SOL    HW252452   5.541   8.844   4.765
16840SOL     OW52453   4.071   7.927   5.032
16840SOL    HW152454   4.104   7.913   5.125
16840SOL    HW252455   4.142   7.974   4.979
16841SOL     OW52456   4.501   8.939   4.371
16841SOL    HW152457   4.452   8.980   4.294
16841SOL    HW252458   4.442   8.871   4.415
16842SOL     OW52459   5.154   7.709   4.867
16842SOL    HW152460   5.163   7.609   4.867
16842SOL    HW252461   5.097   7.738   4.944
16843SOL     OW52462   4.849   7.485   4.828
16843SOL    HW152463   4.783   7.456   4.897
16843SOL    HW252464   4.890   7.404   4.785
16844SOL     OW52465   4.471   8.799   4.022
16844SOL    HW152466   4.438   8.708   3.997
16844SOL    HW252467   4.556   8.791   4.073
16845SOL     OW52468   4.341   9.004   5.049
16845SOL    HW152469   4.331   9.101   5.074
16845SOL    HW252470   4.428   8.990   5.003
16846SOL     OW52471   5.030   7.514   3.849
16846SOL    HW152472   5.031   7.497   3.750
16846SOL    HW252473   4.971   7.447   3.894
16847SOL     OW52474   5.347   7.746   4.663
16847SOL    HW152475   5.272   7.750   4.729
16847SOL    HW252476   5.334   7.818   4.594
16848SOL     OW52477   3.802   8.502   4.049
16848SOL    HW152478   3.880   8.502   3.986
16848SOL    HW252479   3.773   8.408   4.067
16849SOL     OW52480   4.615   9.146   4.061
16849SOL    HW152481   4.537   9.133   4.000
16849SOL    HW252482   4.601   9.229   4.116
16850SOL     OW52483   3.922   8.102   5.717
16850SOL    HW152484   3.831   8.071   5.745
16850SOL    HW252485   3.932   8.091   5.618
16851SOL     OW52486   3.947   7.725   6.559
16851SOL    HW152487   4.017   7.653   6.560
16851SOL    HW252488   3.861   7.687   6.592
16852SOL     OW52489   3.672   7.870   6.235
16852SOL    HW152490   3.587   7.884   6.285
16852SOL    HW252491   3.662   7.791   6.173
16853SOL     OW52492   4.299   8.738   6.808
16853SOL    HW152493   4.213   8.736   6.757
16853SOL    HW252494   4.323   8.832   6.829
16854SOL     OW52495   5.328   8.987   6.285
16854SOL    HW152496   5.280   8.964   6.370
16854SOL    HW252497   5.261   9.003   6.212
16855SOL     OW52498   4.823   8.205   6.273
16855SOL    HW152499   4.896   8.273   6.270
16855SOL    HW252500   4.770   8.218   6.357
16856SOL     OW52501   5.473   8.029   5.821
16856SOL    HW152502   5.431   8.044   5.731
16856SOL    HW252503   5.432   7.948   5.864
16857SOL     OW52504   4.424   8.582   6.618
16857SOL    HW152505   4.379   8.616   6.701
16857SOL    HW252506   4.469   8.659   6.571
16858SOL     OW52507   4.614   8.162   7.428
16858SOL    HW152508   4.598   8.221   7.507
16858SOL    HW252509   4.627   8.219   7.347
16859SOL     OW52510   4.408   8.411   6.187
16859SOL    HW152511   4.479   8.426   6.255
16859SOL    HW252512   4.331   8.473   6.205
16860SOL     OW52513   4.434   8.627   7.408
16860SOL    HW152514   4.490   8.698   7.452
16860SOL    HW252515   4.357   8.671   7.360
16861SOL     OW52516   4.071   8.801   6.659
16861SOL    HW152517   3.997   8.749   6.616
16861SOL    HW252518   4.112   8.861   6.591
16862SOL     OW52519   5.163   8.934   6.956
16862SOL    HW152520   5.222   9.014   6.971
16862SOL    HW252521   5.080   8.943   7.010
16863SOL     OW52522   4.205   7.824   6.946
16863SOL    HW152523   4.288   7.801   6.996
16863SOL    HW252524   4.126   7.815   7.007
16864SOL     OW52525   3.961   9.210   6.057
16864SOL    HW152526   3.979   9.273   6.133
16864SOL    HW252527   4.037   9.213   5.993
16865SOL     OW52528   4.860   8.775   7.266
16865SOL    HW152529   4.946   8.751   7.311
16865SOL    HW252530   4.796   8.699   7.276
16866SOL     OW52531   3.959   8.936   6.092
16866SOL    HW152532   3.943   9.035   6.091
16866SOL    HW252533   3.907   8.895   6.166
16867SOL     OW52534   4.009   8.525   6.441
16867SOL    HW152535   4.033   8.429   6.455
16867SOL    HW252536   3.953   8.558   6.517
16868SOL     OW52537   4.337   9.202   7.046
16868SOL    HW152538   4.248   9.196   7.091
16868SOL    HW252539   4.365   9.298   7.039
16869SOL     OW52540   4.230   8.439   5.707
16869SOL    HW152541   4.277   8.510   5.654
16869SOL    HW252542   4.290   8.408   5.781
16870SOL     OW52543   5.236   7.621   7.016
16870SOL    HW152544   5.295   7.698   6.990
16870SOL    HW252545   5.199   7.638   7.107
16871SOL     OW52546   3.798   8.111   6.179
16871SOL    HW152547   3.756   8.022   6.196
16871SOL    HW252548   3.807   8.160   6.266
16872SOL     OW52549   5.592   9.206   5.913
16872SOL    HW152550   5.672   9.193   5.971
16872SOL    HW252551   5.595   9.296   5.871
16873SOL     OW52552   3.745   9.014   5.718
16873SOL    HW152553   3.678   8.940   5.715
16873SOL    HW252554   3.732   9.068   5.801
16874SOL     OW52555   5.432   8.385   6.232
16874SOL    HW152556   5.469   8.306   6.182
16874SOL    HW252557   5.408   8.457   6.167
16875SOL     OW52558   5.402   8.582   6.039
16875SOL    HW152559   5.487   8.549   5.998
16875SOL    HW252560   5.422   8.654   6.105
16876SOL     OW52561   3.867   8.190   7.149
16876SOL    HW152562   3.952   8.237   7.174
16876SOL    HW252563   3.796   8.257   7.130
16877SOL     OW52564   4.330   8.824   6.298
16877SOL    HW152565   4.300   8.728   6.297
16877SOL    HW252566   4.295   8.871   6.217
16878SOL     OW52567   4.977   8.638   6.981
16878SOL    HW152568   5.003   8.575   6.907
16878SOL    HW252569   5.050   8.642   7.049
16879SOL     OW52570   4.509   7.441   6.126
16879SOL    HW152571   4.548   7.525   6.089
16879SOL    HW252572   4.427   7.462   6.178
16880SOL     OW52573   3.987   8.537   6.882
16880SOL    HW152574   4.045   8.456   6.879
16880SOL    HW252575   3.952   8.556   6.790
16881SOL     OW52576   5.318   8.467   5.789
16881SOL    HW152577   5.234   8.414   5.798
16881SOL    HW252578   5.343   8.507   5.877
16882SOL     OW52579   4.993   9.300   7.193
16882SOL    HW152580   4.958   9.367   7.127
16882SOL    HW252581   4.977   9.208   7.158
16883SOL     OW52582   4.083   7.694   7.474
16883SOL    HW152583   4.118   7.777   7.518
16883SOL    HW252584   3.987   7.707   7.449
16884SOL     OW52585   5.216   8.894   6.513
16884SOL    HW152586   5.142   8.902   6.580
16884SOL    HW252587   5.219   8.800   6.478
16885SOL     OW52588   5.354   9.336   6.113
16885SOL    HW152589   5.350   9.259   6.050
16885SOL    HW252590   5.375   9.303   6.205
16886SOL     OW52591   4.278   8.114   5.926
16886SOL    HW152592   4.316   8.205   5.912
16886SOL    HW252593   4.200   8.120   5.989
16887SOL     OW52594   4.973   7.833   6.482
16887SOL    HW152595   4.898   7.767   6.496
16887SOL    HW252596   5.039   7.826   6.557
16888SOL     OW52597   5.330   9.136   5.926
16888SOL    HW152598   5.429   9.150   5.922
16888SOL    HW252599   5.295   9.115   5.834
16889SOL     OW52600   4.522   8.034   6.993
16889SOL    HW152601   4.514   7.996   7.086
16889SOL    HW252602   4.504   7.961   6.927
16890SOL     OW52603   5.081   7.938   7.243
16890SOL    HW152604   5.091   7.987   7.330
16890SOL    HW252605   5.125   7.849   7.250
16891SOL     OW52606   4.655   8.321   7.199
16891SOL    HW152607   4.714   8.264   7.141
16891SOL    HW252608   4.591   8.373   7.141
16892SOL     OW52609   4.728   7.852   6.705
16892SOL    HW152610   4.635   7.851   6.742
16892SOL    HW252611   4.742   7.772   6.647
16893SOL     OW52612   4.739   8.126   6.019
16893SOL    HW152613   4.762   8.155   6.112
16893SOL    HW252614   4.655   8.072   6.021
16894SOL     OW52615   3.811   8.262   6.402
16894SOL    HW152616   3.906   8.263   6.435
16894SOL    HW252617   3.755   8.321   6.460
16895SOL     OW52618   3.836   9.294   7.167
16895SOL    HW152619   3.847   9.281   7.266
16895SOL    HW252620   3.763   9.234   7.134
16896SOL     OW52621   4.550   7.767   5.829
16896SOL    HW152622   4.608   7.805   5.758
16896SOL    HW252623   4.484   7.703   5.787
16897SOL     OW52624   5.379   7.999   7.415
16897SOL    HW152625   5.372   8.083   7.362
16897SOL    HW252626   5.407   7.924   7.356
16898SOL     OW52627   5.134   8.610   6.152
16898SOL    HW152628   5.218   8.602   6.098
16898SOL    HW252629   5.075   8.679   6.110
16899SOL     OW52630   4.250   7.667   6.456
16899SOL    HW152631   4.265   7.663   6.554
16899SOL    HW252632   4.255   7.762   6.425
16900SOL     OW52633   4.084   9.239   6.487
16900SOL    HW152634   4.124   9.147   6.484
16900SOL    HW252635   4.152   9.303   6.525
16901SOL     OW52636   5.532   8.458   6.476
16901SOL    HW152637   5.489   8.436   6.388
16901SOL    HW252638   5.461   8.485   6.541
16902SOL     OW52639   4.920   8.966   7.076
16902SOL    HW152640   4.905   8.897   7.147
16902SOL    HW252641   4.850   8.956   7.005
16903SOL     OW52642   3.998   8.363   5.832
16903SOL    HW152643   4.079   8.394   5.783
16903SOL    HW252644   3.973   8.271   5.800
16904SOL     OW52645   4.195   8.749   7.309
16904SOL    HW152646   4.173   8.740   7.212
16904SOL    HW252647   4.112   8.736   7.363
16905SOL     OW52648   4.884   9.168   5.790
16905SOL    HW152649   4.800   9.156   5.842
16905SOL    HW252650   4.911   9.080   5.750
16906SOL     OW52651   3.969   7.802   7.082
16906SOL    HW152652   3.911   7.864   7.029
16906SOL    HW252653   3.941   7.708   7.066
16907SOL     OW52654   5.407   8.847   5.705
16907SOL    HW152655   5.351   8.930   5.705
16907SOL    HW252656   5.356   8.772   5.663
16908SOL     OW52657   4.193   9.265   5.908
16908SOL    HW152658   4.228   9.324   5.981
16908SOL    HW252659   4.269   9.216   5.865
16909SOL     OW52660   5.104   7.573   6.024
16909SOL    HW152661   5.095   7.542   5.930
16909SOL    HW252662   5.189   7.538   6.063
16910SOL     OW52663   3.951   9.232   6.804
16910SOL    HW152664   4.014   9.155   6.817
16910SOL    HW252665   3.911   9.228   6.712
16911SOL     OW52666   4.646   9.144   6.470
16911SOL    HW152667   4.737   9.102   6.464
16911SOL    HW252668   4.587   9.105   6.399
16912SOL     OW52669   4.075   8.110   6.112
16912SOL    HW152670   4.095   8.013   6.126
16912SOL    HW252671   3.976   8.125   6.122
16913SOL     OW52672   5.180   7.682   7.291
16913SOL    HW152673   5.191   7.699   7.389
16913SOL    HW252674   5.116   7.606   7.278
16914SOL     OW52675   4.365   7.572   5.736
16914SOL    HW152676   4.358   7.502   5.807
16914SOL    HW252677   4.309   7.546   5.658
16915SOL     OW52678   4.469   7.669   7.292
16915SOL    HW152679   4.558   7.634   7.321
16915SOL    HW252680   4.397   7.616   7.337
16916SOL     OW52681   4.573   8.930   6.748
16916SOL    HW152682   4.559   8.888   6.659
16916SOL    HW252683   4.642   8.879   6.799
16917SOL     OW52684   5.015   8.065   7.006
16917SOL    HW152685   5.049   8.029   7.093
16917SOL    HW252686   5.073   8.142   6.977
16918SOL     OW52687   4.530   8.801   6.503
16918SOL    HW152688   4.625   8.810   6.474
16918SOL    HW252689   4.470   8.819   6.425
16919SOL     OW52690   4.633   7.999   6.485
16919SOL    HW152691   4.622   7.951   6.398
16919SOL    HW252692   4.684   7.942   6.548
16920SOL     OW52693   5.231   8.655   5.612
16920SOL    HW152694   5.273   8.579   5.662
16920SOL    HW252695   5.146   8.682   5.658
16921SOL     OW52696   4.041   7.471   5.790
16921SOL    HW152697   4.062   7.557   5.743
16921SOL    HW252698   4.126   7.429   5.822
16922SOL     OW52699   4.657   7.664   6.056
16922SOL    HW152700   4.613   7.701   5.975
16922SOL    HW252701   4.753   7.694   6.059
16923SOL     OW52702   4.764   8.170   6.999
16923SOL    HW152703   4.691   8.102   7.002
16923SOL    HW252704   4.853   8.125   7.002
16924SOL     OW52705   4.904   9.064   6.411
16924SOL    HW152706   4.932   9.114   6.329
16924SOL    HW252707   4.950   9.104   6.491
16925SOL     OW52708   4.201   8.581   6.249
16925SOL    HW152709   4.139   8.562   6.325
16925SOL    HW252710   4.149   8.580   6.163
16926SOL     OW52711   4.959   9.236   6.199
16926SOL    HW152712   5.006   9.297   6.135
16926SOL    HW252713   4.877   9.282   6.235
16927SOL     OW52714   4.725   7.898   5.658
16927SOL    HW152715   4.680   7.981   5.626
16927SOL    HW252716   4.796   7.921   5.725
16928SOL     OW52717   3.857   8.018   6.943
16928SOL    HW152718   3.946   8.029   6.897
16928SOL    HW252719   3.851   8.084   7.019
16929SOL     OW52720   4.272   7.663   6.733
16929SOL    HW152721   4.282   7.574   6.777
16929SOL    HW252722   4.231   7.728   6.797
16930SOL     OW52723   4.601   7.875   6.244
16930SOL    HW152724   4.551   7.930   6.178
16930SOL    HW252725   4.624   7.786   6.203
16931SOL     OW52726   4.718   7.498   6.317
16931SOL    HW152727   4.656   7.504   6.239
16931SOL    HW252728   4.688   7.423   6.377
16932SOL     OW52729   5.263   8.652   6.400
16932SOL    HW152730   5.197   8.627   6.329
16932SOL    HW252731   5.351   8.675   6.358
16933SOL     OW52732   5.549   8.223   6.009
16933SOL    HW152733   5.616   8.175   6.065
16933SOL    HW252734   5.517   8.162   5.936
16934SOL     OW52735   4.253   8.909   5.815
16934SOL    HW152736   4.164   8.862   5.815
16934SOL    HW252737   4.306   8.880   5.735
16935SOL     OW52738   5.468   8.753   6.239
16935SOL    HW152739   5.567   8.757   6.253
16935SOL    HW252740   5.430   8.845   6.246
16936SOL     OW52741   5.071   8.044   5.640
16936SOL    HW152742   5.026   8.015   5.725
16936SOL    HW252743   5.170   8.038   5.652
16937SOL     OW52744   4.210   7.722   5.922
16937SOL    HW152745   4.271   7.671   5.861
16937SOL    HW252746   4.175   7.803   5.875
16938SOL     OW52747   5.474   8.687   7.097
16938SOL    HW152748   5.561   8.645   7.071
16938SOL    HW252749   5.492   8.776   7.139
16939SOL     OW52750   4.743   8.771   6.909
16939SOL    HW152751   4.660   8.750   6.961
16939SOL    HW252752   4.821   8.724   6.951
16940SOL     OW52753   5.359   9.067   7.251
16940SOL    HW152754   5.332   9.103   7.162
16940SOL    HW252755   5.442   9.012   7.241
16941SOL     OW52756   4.874   8.692   6.680
16941SOL    HW152757   4.813   8.714   6.756
16941SOL    HW252758   4.837   8.729   6.595
16942SOL     OW52759   5.345   8.555   6.656
16942SOL    HW152760   5.337   8.625   6.727
16942SOL    HW252761   5.292   8.583   6.576
16943SOL     OW52762   4.685   7.525   6.930
16943SOL    HW152763   4.720   7.501   6.840
16943SOL    HW252764   4.753   7.578   6.980
16944SOL     OW52765   4.695   8.561   7.321
16944SOL    HW152766   4.603   8.586   7.351
16944SOL    HW252767   4.693   8.472   7.274
16945SOL     OW52768   4.401   8.359   5.911
16945SOL    HW152769   4.407   8.383   6.008
16945SOL    HW252770   4.493   8.340   5.876
16946SOL     OW52771   4.148   8.307   6.862
16946SOL    HW152772   4.217   8.299   6.934
16946SOL    HW252773   4.113   8.216   6.840
16947SOL     OW52774   4.942   7.844   6.872
16947SOL    HW152775   4.965   7.930   6.917
16947SOL    HW252776   4.862   7.858   6.813
16948SOL     OW52777   3.812   9.011   6.928
16948SOL    HW152778   3.796   9.102   6.891
16948SOL    HW252779   3.909   8.989   6.922
16949SOL     OW52780   4.037   8.572   6.026
16949SOL    HW152781   4.038   8.649   5.962
16949SOL    HW252782   4.027   8.486   5.975
16950SOL     OW52783   4.271   7.947   6.434
16950SOL    HW152784   4.281   8.003   6.352
16950SOL    HW252785   4.328   7.985   6.507
16951SOL     OW52786   4.993   8.813   6.016
16951SOL    HW152787   5.049   8.889   6.046
16951SOL    HW252788   4.898   8.843   6.008
16952SOL     OW52789   5.040   8.908   6.717
16952SOL    HW152790   5.083   8.911   6.807
16952SOL    HW252791   4.982   8.826   6.710
16953SOL     OW52792   4.074   8.968   6.869
16953SOL    HW152793   4.063   8.906   6.791
16953SOL    HW252794   4.170   8.992   6.879
16954SOL     OW52795   4.143   8.225   7.224
16954SOL    HW152796   4.218   8.239   7.160
16954SOL    HW252797   4.157   8.139   7.273
16955SOL     OW52798   5.353   8.223   7.272
16955SOL    HW152799   5.264   8.265   7.251
16955SOL    HW252800   5.420   8.251   7.203
16956SOL     OW52801   4.715   7.579   7.355
16956SOL    HW152802   4.768   7.662   7.339
16956SOL    HW252803   4.778   7.503   7.374
16957SOL     OW52804   4.261   7.497   7.392
16957SOL    HW152805   4.206   7.418   7.363
16957SOL    HW252806   4.201   7.573   7.414
16958SOL     OW52807   4.302   8.332   6.633
16958SOL    HW152808   4.350   8.418   6.621
16958SOL    HW252809   4.249   8.335   6.719
16959SOL     OW52810   4.901   7.967   5.860
16959SOL    HW152811   4.910   7.885   5.917
16959SOL    HW252812   4.849   8.036   5.910
16960SOL     OW52813   3.721   8.771   6.830
16960SOL    HW152814   3.721   8.706   6.906
16960SOL    HW252815   3.750   8.861   6.863
16961SOL     OW52816   4.414   8.080   6.627
16961SOL    HW152817   4.494   8.070   6.568
16961SOL    HW252818   4.379   8.173   6.620
16962SOL     OW52819   5.482   8.447   7.390
16962SOL    HW152820   5.451   8.356   7.366
16962SOL    HW252821   5.416   8.489   7.452
16963SOL     OW52822   5.326   7.803   5.903
16963SOL    HW152823   5.391   7.750   5.958
16963SOL    HW252824   5.242   7.817   5.957
16964SOL     OW52825   4.698   8.254   6.519
16964SOL    HW152826   4.691   8.279   6.616
16964SOL    HW252827   4.677   8.157   6.508
16965SOL     OW52828   4.718   9.005   7.333
16965SOL    HW152829   4.680   9.059   7.258
16965SOL    HW252830   4.753   8.919   7.298
16966SOL     OW52831   5.589   8.934   7.162
16966SOL    HW152832   5.616   8.949   7.067
16966SOL    HW252833   5.669   8.942   7.221
16967SOL     OW52834   4.066   8.424   7.397
16967SOL    HW152835   4.136   8.449   7.463
16967SOL    HW252836   4.101   8.354   7.335
16968SOL     OW52837   5.223   7.675   5.668
16968SOL    HW152838   5.170   7.600   5.708
16968SOL    HW252839   5.265   7.729   5.741
16969SOL     OW52840   4.954   8.264   5.521
16969SOL    HW152841   4.991   8.182   5.565
16969SOL    HW252842   5.021   8.302   5.458
16970SOL     OW52843   4.793   8.813   6.448
16970SOL    HW152844   4.811   8.740   6.382
16970SOL    HW252845   4.842   8.896   6.420
16971SOL     OW52846   4.064   8.259   6.508
16971SOL    HW152847   4.156   8.284   6.537
16971SOL    HW252848   4.051   8.161   6.519
16972SOL     OW52849   4.033   7.980   6.554
16972SOL    HW152850   3.988   7.891   6.558
16972SOL    HW252851   4.117   7.973   6.499
16973SOL     OW52852   4.841   7.817   7.299
16973SOL    HW152853   4.801   7.859   7.380
16973SOL    HW252854   4.924   7.866   7.274
16974SOL     OW52855   4.869   7.667   7.067
16974SOL    HW152856   4.847   7.722   7.148
16974SOL    HW252857   4.906   7.726   6.996
16975SOL     OW52858   3.776   8.698   5.737
16975SOL    HW152859   3.691   8.734   5.699
16975SOL    HW252860   3.759   8.609   5.779
16976SOL     OW52861   3.823   9.227   6.559
16976SOL    HW152862   3.774   9.155   6.509
16976SOL    HW252863   3.915   9.236   6.522
16977SOL     OW52864   4.204   8.977   6.496
16977SOL    HW152865   4.273   9.039   6.534
16977SOL    HW252866   4.244   8.922   6.423
16978SOL     OW52867   4.628   8.279   6.788
16978SOL    HW152868   4.692   8.254   6.860
16978SOL    HW252869   4.548   8.218   6.792
16979SOL     OW52870   3.761   8.031   6.680
16979SOL    HW152871   3.837   8.032   6.615
16979SOL    HW252872   3.798   8.028   6.774
16980SOL     OW52873   3.923   7.969   7.300
16980SOL    HW152874   3.953   7.902   7.233
16980SOL    HW252875   3.893   8.052   7.254
16981SOL     OW52876   5.134   8.360   7.181
16981SOL    HW152877   5.149   8.459   7.184
16981SOL    HW252878   5.129   8.330   7.086
16982SOL     OW52879   4.509   7.982   6.001
16982SOL    HW152880   4.516   7.903   5.939
16982SOL    HW252881   4.422   8.028   5.984
16983SOL     OW52882   5.437   8.070   6.807
16983SOL    HW152883   5.422   8.168   6.820
16983SOL    HW252884   5.385   8.039   6.727
16984SOL     OW52885   3.967   8.997   7.316
16984SOL    HW152886   3.946   9.065   7.386
16984SOL    HW252887   3.966   8.905   7.357
16985SOL     OW52888   4.469   7.863   6.781
16985SOL    HW152889   4.411   7.784   6.759
16985SOL    HW252890   4.439   7.942   6.727
16986SOL     OW52891   4.602   9.167   7.133
16986SOL    HW152892   4.512   9.148   7.094
16986SOL    HW252893   4.650   9.233   7.076
16987SOL     OW52894   4.135   7.937   5.772
16987SOL    HW152895   4.203   7.996   5.817
16987SOL    HW252896   4.052   7.989   5.753
16988SOL     OW52897   3.774   8.592   7.048
16988SOL    HW152898   3.797   8.576   7.144
16988SOL    HW252899   3.854   8.575   6.991
16989SOL     OW52900   5.028   8.474   6.749
16989SOL    HW152901   5.063   8.425   6.670
16989SOL    HW252902   4.969   8.549   6.719
16990SOL     OW52903   5.503   9.178   6.758
16990SOL    HW152904   5.579   9.207   6.699
16990SOL    HW252905   5.477   9.084   6.734
16991SOL     OW52906   5.004   9.168   6.645
16991SOL    HW152907   5.095   9.211   6.648
16991SOL    HW252908   5.011   9.075   6.680
16992SOL     OW52909   3.840   8.612   6.639
16992SOL    HW152910   3.797   8.676   6.702
16992SOL    HW252911   3.771   8.557   6.593
16993SOL     OW52912   4.428   9.173   7.351
16993SOL    HW152913   4.359   9.243   7.334
16993SOL    HW252914   4.505   9.185   7.287
16994SOL     OW52915   5.496   7.652   6.053
16994SOL    HW152916   5.565   7.622   5.987
16994SOL    HW252917   5.440   7.573   6.080
16995SOL     OW52918   5.134   9.037   6.096
16995SOL    HW152919   5.195   9.077   6.028
16995SOL    HW252920   5.067   9.105   6.125
16996SOL     OW52921   3.873   9.241   7.428
16996SOL    HW152922   3.818   9.175   7.478
16996SOL    HW252923   3.914   9.306   7.491
16997SOL     OW52924   5.036   8.397   6.289
16997SOL    HW152925   5.075   8.316   6.244
16997SOL    HW252926   5.067   8.479   6.242
16998SOL     OW52927   4.491   8.726   7.020
16998SOL    HW152928   4.470   8.790   7.094
16998SOL    HW252929   4.417   8.728   6.953
16999SOL     OW52930   4.407   9.136   5.788
16999SOL    HW152931   4.427   9.144   5.690
16999SOL    HW252932   4.353   9.053   5.804
17000SOL     OW52933   5.327   9.152   6.985
17000SOL    HW152934   5.396   9.147   6.912
17000SOL    HW252935   5.289   9.244   6.990
17001SOL     OW52936   5.628   7.630   6.480
17001SOL    HW152937   5.644   7.532   6.493
17001SOL    HW252938   5.620   7.649   6.382
17002SOL     OW52939   3.918   7.762   6.288
17002SOL    HW152940   3.830   7.807   6.271
17002SOL    HW252941   3.930   7.748   6.386
17003SOL     OW52942   5.001   8.950   5.647
17003SOL    HW152943   5.001   8.861   5.693
17003SOL    HW252944   4.949   8.943   5.562
17004SOL     OW52945   4.519   8.454   7.002
17004SOL    HW152946   4.564   8.435   6.915
17004SOL    HW252947   4.511   8.553   7.014
17005SOL     OW52948   4.652   8.290   5.821
17005SOL    HW152949   4.727   8.345   5.784
17005SOL    HW252950   4.687   8.232   5.895
17006SOL     OW52951   5.244   9.077   5.669
17006SOL    HW152952   5.155   9.033   5.656
17006SOL    HW252953   5.289   9.088   5.580
17007SOL     OW52954   4.100   8.738   7.053
17007SOL    HW152955   4.094   8.823   7.002
17007SOL    HW252956   4.072   8.662   6.995
17008SOL     OW52957   5.335   8.742   6.862
17008SOL    HW152958   5.391   8.713   6.940
17008SOL    HW252959   5.264   8.804   6.893
17009SOL     OW52960   4.810   8.578   6.312
17009SOL    HW152961   4.722   8.538   6.338
17009SOL    HW252962   4.881   8.508   6.315
17010SOL     OW52963   4.779   7.647   6.538
17010SOL    HW152964   4.752   7.613   6.448
17010SOL    HW252965   4.786   7.571   6.602
17011SOL     OW52966   4.233   8.943   6.083
17011SOL    HW152967   4.255   8.933   5.986
17011SOL    HW252968   4.134   8.944   6.095
17012SOL     OW52969   5.420   7.824   6.956
17012SOL    HW152970   5.419   7.920   6.929
17012SOL    HW252971   5.459   7.769   6.882
17013SOL     OW52972   4.004   8.792   5.864
17013SOL    HW152973   3.921   8.768   5.813
17013SOL    HW252974   3.980   8.851   5.940
17014SOL     OW52975   3.833   8.523   7.303
17014SOL    HW152976   3.754   8.499   7.359
17014SOL    HW252977   3.915   8.480   7.340
17015SOL     OW52978   4.442   7.601   7.028
17015SOL    HW152979   4.532   7.578   6.989
17015SOL    HW252980   4.454   7.632   7.122
17016SOL     OW52981   3.837   7.792   5.538
17016SOL    HW152982   3.742   7.787   5.507
17016SOL    HW252983   3.875   7.882   5.515
17017SOL     OW52984   5.154   8.295   6.917
17017SOL    HW152985   5.095   8.353   6.861
17017SOL    HW252986   5.250   8.308   6.890
17018SOL     OW52987   3.819   7.509   5.929
17018SOL    HW152988   3.755   7.556   5.868
17018SOL    HW252989   3.906   7.497   5.882
17019SOL     OW52990   5.006   8.702   5.763
17019SOL    HW152991   4.948   8.621   5.755
17019SOL    HW252992   5.004   8.735   5.858
17020SOL     OW52993   4.347   8.249   7.040
17020SOL    HW152994   4.404   8.331   7.035
17020SOL    HW252995   4.405   8.168   7.028
17021SOL     OW52996   5.256   9.276   6.648
17021SOL    HW152997   5.280   9.335   6.571
17021SOL    HW252998   5.340   9.240   6.690
17022SOL     OW52999   4.500   7.947   7.245
17022SOL    HW153000   4.532   8.003   7.321
17022SOL    HW253001   4.491   7.852   7.276
17023SOL     OW53002   5.191   8.628   7.175
17023SOL    HW153003   5.164   8.662   7.265
17023SOL    HW253004   5.284   8.657   7.154
17024SOL     OW53005   4.097   9.195   7.177
17024SOL    HW153006   4.014   9.242   7.147
17024SOL    HW253007   4.072   9.109   7.222
17025SOL     OW53008   5.421   8.355   6.827
17025SOL    HW153009   5.520   8.363   6.826
17025SOL    HW253010   5.381   8.421   6.764
17026SOL     OW53011   4.915   7.769   6.055
17026SOL    HW153012   4.988   7.701   6.050
17026SOL    HW253013   4.936   7.835   6.127
17027SOL     OW53014   4.297   8.162   6.262
17027SOL    HW153015   4.344   8.246   6.236
17027SOL    HW253016   4.213   8.153   6.209
17028SOL     OW53017   5.434   7.782   7.234
17028SOL    HW153018   5.432   7.808   7.137
17028SOL    HW253019   5.350   7.734   7.257
17029SOL     OW53020   5.498   8.373   7.096
17029SOL    HW153021   5.478   8.460   7.141
17029SOL    HW253022   5.463   8.376   7.002
17030SOL     OW53023   4.438   8.879   5.618
17030SOL    HW153024   4.525   8.852   5.658
17030SOL    HW253025   4.450   8.963   5.565
17031SOL     OW53026   4.381   9.166   6.568
17031SOL    HW153027   4.357   9.263   6.573
17031SOL    HW253028   4.480   9.158   6.553
17032SOL     OW53029   4.573   8.462   6.404
17032SOL    HW153030   4.620   8.382   6.443
17032SOL    HW253031   4.517   8.505   6.475
17033SOL     OW53032   4.860   8.446   5.696
17033SOL    HW153033   4.782   8.494   5.659
17033SOL    HW253034   4.895   8.381   5.628
17034SOL     OW53035   5.545   9.038   6.448
17034SOL    HW153036   5.476   9.029   6.376
17034SOL    HW253037   5.519   8.984   6.527
17035SOL     OW53038   3.944   8.746   7.418
17035SOL    HW153039   3.907   8.671   7.362
17035SOL    HW253040   3.896   8.747   7.506
17036SOL     OW53041   3.875   8.666   6.236
17036SOL    HW153042   3.916   8.619   6.314
17036SOL    HW253043   3.921   8.637   6.152
17037SOL     OW53044   4.408   8.903   7.222
17037SOL    HW153045   4.325   8.858   7.254
17037SOL    HW253046   4.418   8.991   7.267
17038SOL     OW53047   5.506   7.685   6.739
17038SOL    HW153048   5.541   7.593   6.762
17038SOL    HW253049   5.535   7.709   6.646
17039SOL     OW53050   4.131   7.853   6.148
17039SOL    HW153051   4.163   7.793   6.076
17039SOL    HW253052   4.056   7.809   6.198
17040SOL     OW53053   5.427   8.931   6.677
17040SOL    HW153054   5.348   8.925   6.617
17040SOL    HW253055   5.424   8.858   6.745
17041SOL     OW53056   4.091   8.040   6.814
17041SOL    HW153057   4.149   7.970   6.856
17041SOL    HW253058   4.079   8.019   6.717
17042SOL     OW53059   4.504   9.044   6.266
17042SOL    HW153060   4.492   9.089   6.178
17042SOL    HW253061   4.442   8.966   6.272
17043SOL     OW53062   5.152   7.799   6.710
17043SOL    HW153063   5.207   7.719   6.735
17043SOL    HW253064   5.077   7.809   6.776
17044SOL     OW53065   4.780   7.425   6.693
17044SOL    HW153066   4.719   7.363   6.645
17044SOL    HW253067   4.872   7.385   6.696
17045SOL     OW53068   4.343   8.999   6.870
17045SOL    HW153069   4.348   9.075   6.935
17045SOL    HW253070   4.429   8.991   6.820
17046SOL     OW53071   5.095   7.456   5.778
17046SOL    HW153072   5.150   7.389   5.727
17046SOL    HW253073   5.012   7.411   5.811
17047SOL     OW53074   4.969   7.967   6.243
17047SOL    HW153075   4.902   8.041   6.253
17047SOL    HW253076   4.978   7.918   6.329
17048SOL     OW53077   3.745   8.456   5.885
17048SOL    HW153078   3.841   8.437   5.861
17048SOL    HW253079   3.700   8.370   5.908
17049SOL     OW53080   4.637   9.143   5.940
17049SOL    HW153081   4.557   9.137   5.880
17049SOL    HW253082   4.627   9.221   6.002
17050SOL     OW53083   3.918   8.034   7.568
17050SOL    HW153084   3.825   8.022   7.601
17050SOL    HW253085   3.920   8.023   7.468
17051SOL     OW53086   3.912   7.758   8.461
17051SOL    HW153087   3.962   7.713   8.535
17051SOL    HW253088   3.824   7.712   8.448
17052SOL     OW53089   3.702   7.862   8.086
17052SOL    HW153090   3.615   7.879   8.131
17052SOL    HW253091   3.689   7.799   8.010
17053SOL     OW53092   4.285   8.798   8.637
17053SOL    HW153093   4.209   8.803   8.573
17053SOL    HW253094   4.294   8.885   8.686
17054SOL     OW53095   5.503   8.037   7.655
17054SOL    HW153096   5.470   8.035   7.561
17054SOL    HW253097   5.468   7.958   7.705
17055SOL     OW53098   4.418   8.603   8.470
17055SOL    HW153099   4.347   8.632   8.534
17055SOL    HW253100   4.474   8.682   8.445
17056SOL     OW53101   4.583   8.173   9.253
17056SOL    HW153102   4.571   8.242   9.325
17056SOL    HW253103   4.605   8.219   9.167
17057SOL     OW53104   4.421   8.426   8.067
17057SOL    HW153105   4.501   8.437   8.126
17057SOL    HW253106   4.352   8.494   8.091
17058SOL     OW53107   4.404   8.629   9.283
17058SOL    HW153108   4.448   8.709   9.324
17058SOL    HW253109   4.344   8.658   9.209
17059SOL     OW53110   4.077   8.875   8.468
17059SOL    HW153111   4.014   8.820   8.414
17059SOL    HW253112   4.130   8.936   8.408
17060SOL     OW53113   4.171   7.822   8.898
17060SOL    HW153114   4.255   7.773   8.922
17060SOL    HW253115   4.092   7.770   8.930
17061SOL     OW53116   5.325   7.870   8.173
17061SOL    HW153117   5.303   7.918   8.089
17061SOL    HW253118   5.311   7.932   8.251
17062SOL     OW53119   3.962   9.224   7.901
17062SOL    HW153120   3.982   9.292   7.972
17062SOL    HW253121   4.031   9.229   7.829
17063SOL     OW53122   4.956   8.847   9.095
17063SOL    HW153123   5.011   8.828   9.176
17063SOL    HW253124   4.964   8.771   9.030
17064SOL     OW53125   4.031   8.962   7.952
17064SOL    HW153126   3.995   9.055   7.947
17064SOL    HW253127   3.983   8.912   8.024
17065SOL     OW53128   4.081   8.539   8.340
17065SOL    HW153129   4.069   8.442   8.357
17065SOL    HW253130   3.998   8.588   8.367
17066SOL     OW53131   4.263   9.288   8.873
17066SOL    HW153132   4.183   9.250   8.920
17066SOL    HW253133   4.304   9.360   8.929
17067SOL     OW53134   4.269   8.488   7.587
17067SOL    HW153135   4.324   8.526   7.513
17067SOL    HW253136   4.319   8.498   7.673
17068SOL     OW53137   5.267   7.583   8.904
17068SOL    HW153138   5.322   7.660   8.871
17068SOL    HW253139   5.219   7.609   8.987
17069SOL     OW53140   3.816   8.117   8.031
17069SOL    HW153141   3.783   8.026   8.053
17069SOL    HW253142   3.822   8.172   8.115
17070SOL     OW53143   5.594   9.168   7.789
17070SOL    HW153144   5.669   9.154   7.855
17070SOL    HW253145   5.591   9.264   7.762
17071SOL     OW53146   3.749   9.049   7.563
17071SOL    HW153147   3.687   8.970   7.558
17071SOL    HW253148   3.734   9.098   7.649
17072SOL     OW53149   3.829   8.254   8.997
17072SOL    HW153150   3.891   8.327   9.024
17072SOL    HW253151   3.740   8.293   8.972
17073SOL     OW53152   4.377   8.855   8.169
17073SOL    HW153153   4.337   8.763   8.174
17073SOL    HW253154   4.357   8.896   8.080
17074SOL     OW53155   5.016   8.638   8.934
17074SOL    HW153156   4.997   8.575   8.859
17074SOL    HW253157   5.096   8.607   8.985
17075SOL     OW53158   4.521   7.478   7.855
17075SOL    HW153159   4.587   7.550   7.879
17075SOL    HW253160   4.437   7.491   7.908
17076SOL     OW53161   3.921   8.374   8.692
17076SOL    HW153162   4.016   8.345   8.692
17076SOL    HW253163   3.867   8.312   8.634
17077SOL     OW53164   5.226   8.467   7.536
17077SOL    HW153165   5.161   8.400   7.498
17077SOL    HW253166   5.247   8.443   7.630
17078SOL     OW53167   4.814   9.280   9.062
17078SOL    HW153168   4.827   9.362   9.006
17078SOL    HW253169   4.878   9.209   9.032
17079SOL     OW53170   4.104   7.730   9.352
17079SOL    HW153171   4.143   7.806   9.404
17079SOL    HW253172   4.022   7.760   9.304
17080SOL     OW53173   5.135   8.771   8.535
17080SOL    HW153174   5.092   8.841   8.477
17080SOL    HW253175   5.104   8.681   8.507
17081SOL     OW53176   5.352   9.166   8.011
17081SOL    HW153177   5.343   9.136   7.916
17081SOL    HW253178   5.331   9.090   8.072
17082SOL     OW53179   4.294   8.118   7.767
17082SOL    HW153180   4.327   8.208   7.740
17082SOL    HW253181   4.219   8.127   7.832
17083SOL     OW53182   4.957   7.830   8.389
17083SOL    HW153183   4.876   7.772   8.387
17083SOL    HW253184   5.025   7.790   8.450
17084SOL     OW53185   5.330   9.090   7.749
17084SOL    HW153186   5.428   9.109   7.752
17084SOL    HW253187   5.300   9.083   7.654
17085SOL     OW53188   4.514   8.037   8.894
17085SOL    HW153189   4.478   8.000   8.979
17085SOL    HW253190   4.489   7.977   8.818
17086SOL     OW53191   5.052   7.896   9.106
17086SOL    HW153192   5.060   7.938   9.196
17086SOL    HW253193   5.095   7.806   9.107
17087SOL     OW53194   4.653   8.345   9.042
17087SOL    HW153195   4.712   8.284   8.988
17087SOL    HW253196   4.609   8.411   8.981
17088SOL     OW53197   4.707   7.866   8.578
17088SOL    HW153198   4.617   7.872   8.621
17088SOL    HW253199   4.711   7.784   8.520
17089SOL     OW53200   4.711   8.176   7.847
17089SOL    HW153201   4.795   8.163   7.900
17089SOL    HW253202   4.646   8.103   7.869
17090SOL     OW53203   3.826   8.291   8.244
17090SOL    HW153204   3.919   8.281   8.281
17090SOL    HW253205   3.775   8.355   8.301
17091SOL     OW53206   3.799   9.291   9.082
17091SOL    HW153207   3.835   9.265   9.172
17091SOL    HW253208   3.708   9.252   9.070
17092SOL     OW53209   4.581   7.796   7.684
17092SOL    HW153210   4.639   7.841   7.615
17092SOL    HW253211   4.523   7.729   7.639
17093SOL     OW53212   4.216   7.699   8.378
17093SOL    HW153213   4.254   7.696   8.470
17093SOL    HW253214   4.234   7.788   8.337
17094SOL     OW53215   4.679   8.942   7.898
17094SOL    HW153216   4.664   9.016   7.832
17094SOL    HW253217   4.650   8.973   7.989
17095SOL     OW53218   4.083   9.276   8.327
17095SOL    HW153219   4.133   9.190   8.324
17095SOL    HW253220   4.143   9.348   8.361
17096SOL     OW53221   5.519   8.553   8.325
17096SOL    HW153222   5.496   8.630   8.266
17096SOL    HW253223   5.443   8.536   8.389
17097SOL     OW53224   4.044   8.407   7.743
17097SOL    HW153225   4.113   8.444   7.681
17097SOL    HW253226   4.037   8.308   7.730
17098SOL     OW53227   5.378   8.190   8.167
17098SOL    HW153228   5.342   8.148   8.250
17098SOL    HW253229   5.461   8.241   8.188
17099SOL     OW53230   4.222   8.763   9.117
17099SOL    HW153231   4.179   8.777   9.028
17099SOL    HW253232   4.151   8.757   9.188
17100SOL     OW53233   4.861   9.208   7.655
17100SOL    HW153234   4.768   9.195   7.689
17100SOL    HW253235   4.884   9.134   7.592
17101SOL     OW53236   3.945   7.673   8.946
17101SOL    HW153237   3.866   7.734   8.942
17101SOL    HW253238   3.922   7.592   9.000
17102SOL     OW53239   5.336   8.806   7.526
17102SOL    HW153240   5.321   8.905   7.516
17102SOL    HW253241   5.255   8.757   7.494
17103SOL     OW53242   4.176   9.265   7.731
17103SOL    HW153243   4.224   9.310   7.806
17103SOL    HW253244   4.239   9.202   7.685
17104SOL     OW53245   5.117   7.533   7.896
17104SOL    HW153246   5.105   7.519   7.798
17104SOL    HW253247   5.207   7.501   7.924
17105SOL     OW53248   3.907   9.262   8.650
17105SOL    HW153249   3.963   9.183   8.676
17105SOL    HW253250   3.877   9.251   8.555
17106SOL     OW53251   4.086   8.120   7.945
17106SOL    HW153252   4.101   8.022   7.959
17106SOL    HW253253   3.990   8.142   7.964
17107SOL     OW53254   5.127   7.631   9.138
17107SOL    HW153255   5.165   7.620   9.230
17107SOL    HW253256   5.056   7.562   9.123
17108SOL     OW53257   4.413   7.584   7.618
17108SOL    HW153258   4.459   7.523   7.681
17108SOL    HW253259   4.369   7.530   7.545
17109SOL     OW53260   4.450   7.682   9.136
17109SOL    HW153261   4.537   7.639   9.161
17109SOL    HW253262   4.375   7.630   9.176
17110SOL     OW53263   4.554   8.999   8.609
17110SOL    HW153264   4.542   8.947   8.524
17110SOL    HW253265   4.572   8.935   8.684
17111SOL     OW53266   4.996   8.038   8.881
17111SOL    HW153267   5.026   7.994   8.965
17111SOL    HW253268   5.043   8.126   8.871
17112SOL     OW53269   4.545   8.832   8.392
17112SOL    HW153270   4.642   8.817   8.375
17112SOL    HW253271   4.496   8.839   8.305
17113SOL     OW53272   4.656   8.037   8.356
17113SOL    HW153273   4.649   7.993   8.267
17113SOL    HW253274   4.697   7.974   8.422
17114SOL     OW53275   4.264   7.509   7.945
17114SOL    HW153276   4.192   7.501   8.014
17114SOL    HW253277   4.249   7.592   7.891
17115SOL     OW53278   5.097   8.683   7.435
17115SOL    HW153279   5.141   8.601   7.471
17115SOL    HW253280   5.021   8.710   7.494
17116SOL     OW53281   4.006   7.473   7.615
17116SOL    HW153282   4.051   7.550   7.571
17116SOL    HW253283   4.076   7.415   7.659
17117SOL     OW53284   4.703   7.683   7.897
17117SOL    HW153285   4.657   7.728   7.820
17117SOL    HW253286   4.800   7.708   7.897
17118SOL     OW53287   4.753   8.161   8.866
17118SOL    HW153288   4.677   8.099   8.882
17118SOL    HW253289   4.839   8.110   8.870
17119SOL     OW53290   4.241   8.618   8.140
17119SOL    HW153291   4.190   8.589   8.221
17119SOL    HW253292   4.180   8.620   8.061
17120SOL     OW53293   4.977   9.202   8.001
17120SOL    HW153294   5.022   9.283   7.964
17120SOL    HW253295   4.892   9.228   8.046
17121SOL     OW53296   4.752   7.944   7.525
17121SOL    HW153297   4.708   8.029   7.495
17121SOL    HW253298   4.823   7.966   7.593
17122SOL     OW53299   3.842   8.041   8.826
17122SOL    HW153300   3.939   8.030   8.801
17122SOL    HW253301   3.833   8.117   8.890
17123SOL     OW53302   4.285   7.685   8.647
17123SOL    HW153303   4.334   7.647   8.724
17123SOL    HW253304   4.187   7.669   8.659
17124SOL     OW53305   4.631   7.910   8.118
17124SOL    HW153306   4.583   7.943   8.037
17124SOL    HW253307   4.637   7.810   8.115
17125SOL     OW53308   4.700   7.593   8.151
17125SOL    HW153309   4.701   7.623   8.056
17125SOL    HW253310   4.710   7.493   8.155
17126SOL     OW53311   5.070   8.533   8.396
17126SOL    HW153312   5.042   8.441   8.424
17126SOL    HW253313   5.012   8.564   8.320
17127SOL     OW53314   5.274   8.048   8.373
17127SOL    HW153315   5.175   8.058   8.369
17127SOL    HW253316   5.304   8.054   8.469
17128SOL     OW53317   5.493   8.260   7.813
17128SOL    HW153318   5.553   8.233   7.888
17128SOL    HW253319   5.496   8.189   7.741
17129SOL     OW53320   4.222   8.890   7.569
17129SOL    HW153321   4.153   8.851   7.630
17129SOL    HW253322   4.219   8.842   7.481
17130SOL     OW53323   5.490   8.780   8.171
17130SOL    HW153324   5.563   8.764   8.104
17130SOL    HW253325   5.413   8.825   8.125
17131SOL     OW53326   5.109   8.041   7.496
17131SOL    HW153327   5.064   8.006   7.578
17131SOL    HW253328   5.206   8.014   7.496
17132SOL     OW53329   4.234   7.716   7.777
17132SOL    HW153330   4.303   7.672   7.719
17132SOL    HW253331   4.195   7.795   7.728
17133SOL     OW53332   5.489   8.644   9.017
17133SOL    HW153333   5.581   8.612   8.995
17133SOL    HW253334   5.492   8.742   9.038
17134SOL     OW53335   5.349   9.095   9.134
17134SOL    HW153336   5.362   9.166   9.065
17134SOL    HW253337   5.412   9.019   9.117
17135SOL     OW53338   4.763   8.651   8.630
17135SOL    HW153339   4.684   8.690   8.677
17135SOL    HW253340   4.776   8.699   8.543
17136SOL     OW53341   5.317   8.529   8.511
17136SOL    HW153342   5.316   8.612   8.566
17136SOL    HW253343   5.231   8.521   8.460
17137SOL     OW53344   4.657   7.489   8.803
17137SOL    HW153345   4.675   7.466   8.708
17137SOL    HW253346   4.729   7.549   8.838
17138SOL     OW53347   4.635   8.466   9.288
17138SOL    HW153348   4.555   8.527   9.286
17138SOL    HW253349   4.652   8.430   9.196
17139SOL     OW53350   4.448   8.506   7.799
17139SOL    HW153351   4.442   8.473   7.893
17139SOL    HW253352   4.512   8.449   7.748
17140SOL     OW53353   4.176   8.273   8.708
17140SOL    HW153354   4.242   8.287   8.782
17140SOL    HW253355   4.143   8.178   8.711
17141SOL     OW53356   4.938   7.828   8.722
17141SOL    HW153357   4.965   7.909   8.775
17141SOL    HW253358   4.858   7.850   8.666
17142SOL     OW53359   3.773   8.991   8.760
17142SOL    HW153360   3.719   9.059   8.712
17142SOL    HW253361   3.871   9.010   8.746
17143SOL     OW53362   4.060   8.612   7.936
17143SOL    HW153363   4.058   8.684   7.866
17143SOL    HW253364   4.052   8.522   7.892
17144SOL     OW53365   4.259   7.976   8.319
17144SOL    HW153366   4.265   8.031   8.236
17144SOL    HW253367   4.326   8.009   8.385
17145SOL     OW53368   4.914   8.811   7.863
17145SOL    HW153369   4.988   8.878   7.871
17145SOL    HW253370   4.826   8.856   7.880
17146SOL     OW53371   5.312   8.049   7.950
17146SOL    HW153372   5.335   8.103   8.031
17146SOL    HW253373   5.327   8.105   7.868
17147SOL     OW53374   4.039   9.017   8.695
17147SOL    HW153375   4.040   8.962   8.612
17147SOL    HW253376   4.133   9.044   8.718
17148SOL     OW53377   4.222   8.142   9.092
17148SOL    HW153378   4.261   8.195   9.018
17148SOL    HW253379   4.282   8.065   9.114
17149SOL     OW53380   4.688   7.567   9.193
17149SOL    HW153381   4.734   7.655   9.177
17149SOL    HW253382   4.753   7.493   9.179
17150SOL     OW53383   4.248   7.529   9.238
17150SOL    HW153384   4.193   7.464   9.186
17150SOL    HW253385   4.188   7.603   9.271
17151SOL     OW53386   4.315   8.340   8.479
17151SOL    HW153387   4.352   8.432   8.469
17151SOL    HW253388   4.264   8.334   8.565
17152SOL     OW53389   4.972   8.290   8.457
17152SOL    HW153390   4.874   8.302   8.443
17152SOL    HW253391   5.002   8.207   8.411
17153SOL     OW53392   4.959   7.971   7.727
17153SOL    HW153393   4.964   7.884   7.775
17153SOL    HW253394   4.954   8.045   7.794
17154SOL     OW53395   4.020   7.631   8.684
17154SOL    HW153396   3.993   7.654   8.777
17154SOL    HW253397   4.010   7.532   8.669
17155SOL     OW53398   3.820   8.746   8.645
17155SOL    HW153399   3.847   8.681   8.716
17155SOL    HW253400   3.790   8.831   8.687
17156SOL     OW53401   4.432   8.098   8.494
17156SOL    HW153402   4.513   8.086   8.435
17156SOL    HW253403   4.394   8.189   8.478
17157SOL     OW53404   5.543   8.390   9.334
17157SOL    HW153405   5.498   8.325   9.273
17157SOL    HW253406   5.481   8.417   9.407
17158SOL     OW53407   4.040   7.491   8.105
17158SOL    HW153408   3.996   7.580   8.118
17158SOL    HW253409   4.076   7.460   8.193
17159SOL     OW53410   5.340   7.838   7.774
17159SOL    HW153411   5.392   7.764   7.816
17159SOL    HW253412   5.314   7.905   7.844
17160SOL     OW53413   4.707   8.296   8.413
17160SOL    HW153414   4.672   8.304   8.506
17160SOL    HW253415   4.693   8.203   8.380
17161SOL     OW53416   4.745   8.931   9.251
17161SOL    HW153417   4.695   9.010   9.215
17161SOL    HW253418   4.800   8.891   9.178
17162SOL     OW53419   5.545   8.915   9.054
17162SOL    HW153420   5.565   8.936   8.959
17162SOL    HW253421   5.626   8.934   9.110
17163SOL     OW53422   4.153   8.368   9.229
17163SOL    HW153423   4.219   8.388   9.301
17163SOL    HW253424   4.180   8.283   9.182
17164SOL     OW53425   5.204   7.720   7.557
17164SOL    HW153426   5.153   7.644   7.596
17164SOL    HW253427   5.254   7.767   7.630
17165SOL     OW53428   5.041   8.298   7.430
17165SOL    HW153429   5.060   8.202   7.454
17165SOL    HW253430   5.061   8.313   7.333
17166SOL     OW53431   4.810   8.780   8.381
17166SOL    HW153432   4.834   8.708   8.315
17166SOL    HW253433   4.882   8.850   8.381
17167SOL     OW53434   4.067   8.265   8.376
17167SOL    HW153435   4.164   8.284   8.388
17167SOL    HW253436   4.047   8.171   8.404
17168SOL     OW53437   4.024   7.999   8.449
17168SOL    HW153438   3.974   7.913   8.449
17168SOL    HW253439   4.108   7.989   8.395
17169SOL     OW53440   4.797   7.807   9.129
17169SOL    HW153441   4.750   7.857   9.202
17169SOL    HW253442   4.889   7.846   9.116
17170SOL     OW53443   4.845   7.651   8.907
17170SOL    HW153444   4.819   7.709   8.984
17170SOL    HW253445   4.888   7.707   8.836
17171SOL     OW53446   3.780   8.720   7.637
17171SOL    HW153447   3.695   8.757   7.598
17171SOL    HW253448   3.763   8.627   7.670
17172SOL     OW53449   3.817   9.226   8.393
17172SOL    HW153450   3.778   9.147   8.347
17172SOL    HW253451   3.909   9.244   8.358
17173SOL     OW53452   4.240   9.044   8.324
17173SOL    HW153453   4.309   9.111   8.354
17173SOL    HW253454   4.283   8.975   8.267
17174SOL     OW53455   4.610   8.273   8.664
17174SOL    HW153456   4.673   8.238   8.733
17174SOL    HW253457   4.541   8.204   8.644
17175SOL     OW53458   3.798   8.128   8.572
17175SOL    HW153459   3.871   8.091   8.515
17175SOL    HW253460   3.810   8.097   8.666
17176SOL     OW53461   3.964   8.085   9.169
17176SOL    HW153462   4.059   8.097   9.139
17176SOL    HW253463   3.904   8.140   9.112
17177SOL     OW53464   5.109   8.343   9.116
17177SOL    HW153465   5.158   8.430   9.119
17177SOL    HW253466   5.101   8.313   9.021
17178SOL     OW53467   4.518   7.983   7.873
17178SOL    HW153468   4.538   7.912   7.805
17178SOL    HW253469   4.433   8.030   7.849
17179SOL     OW53470   5.396   8.066   8.625
17179SOL    HW153471   5.388   7.986   8.684
17179SOL    HW253472   5.493   8.090   8.614
17180SOL     OW53473   3.941   8.974   9.153
17180SOL    HW153474   3.930   9.048   9.220
17180SOL    HW253475   3.963   8.889   9.201
17181SOL     OW53476   4.451   7.897   8.671
17181SOL    HW153477   4.386   7.823   8.659
17181SOL    HW253478   4.432   7.971   8.606
17182SOL     OW53479   4.156   7.923   7.622
17182SOL    HW153480   4.218   7.990   7.662
17182SOL    HW253481   4.066   7.966   7.609
17183SOL     OW53482   3.895   8.582   8.860
17183SOL    HW153483   3.923   8.554   8.952
17183SOL    HW253484   3.905   8.505   8.798
17184SOL     OW53485   4.947   8.461   8.702
17184SOL    HW153486   4.957   8.401   8.623
17184SOL    HW253487   4.879   8.531   8.683
17185SOL     OW53488   5.402   9.121   8.680
17185SOL    HW153489   5.436   9.114   8.586
17185SOL    HW253490   5.326   9.057   8.693
17186SOL     OW53491   4.938   9.144   8.540
17186SOL    HW153492   5.015   9.207   8.551
17186SOL    HW253493   4.913   9.106   8.630
17187SOL     OW53494   3.854   8.683   8.385
17187SOL    HW153495   3.844   8.713   8.480
17187SOL    HW253496   3.783   8.615   8.364
17188SOL     OW53497   5.494   7.645   7.887
17188SOL    HW153498   5.550   7.624   7.807
17188SOL    HW253499   5.449   7.561   7.918
17189SOL     OW53500   5.113   8.995   7.895
17189SOL    HW153501   5.180   9.027   7.829
17189SOL    HW253502   5.059   9.072   7.929
17190SOL     OW53503   3.896   9.194   9.315
17190SOL    HW153504   3.846   9.125   9.367
17190SOL    HW253505   3.945   9.254   9.378
17191SOL     OW53506   4.529   8.753   8.765
17191SOL    HW153507   4.515   8.789   8.857
17191SOL    HW253508   4.442   8.754   8.715
17192SOL     OW53509   4.373   9.111   7.607
17192SOL    HW153510   4.401   9.132   7.513
17192SOL    HW253511   4.321   9.025   7.607
17193SOL     OW53512   5.408   9.274   8.914
17193SOL    HW153513   5.412   9.215   8.833
17193SOL    HW253514   5.374   9.364   8.888
17194SOL     OW53515   5.541   7.602   8.434
17194SOL    HW153516   5.573   7.510   8.410
17194SOL    HW253517   5.450   7.616   8.395
17195SOL     OW53518   3.937   7.737   8.172
17195SOL    HW153519   3.854   7.784   8.143
17195SOL    HW253520   3.949   7.747   8.271
17196SOL     OW53521   4.951   9.014   7.480
17196SOL    HW153522   4.940   8.925   7.523
17196SOL    HW253523   4.876   9.030   7.416
17197SOL     OW53524   4.534   8.480   8.834
17197SOL    HW153525   4.569   8.427   8.757
17197SOL    HW253526   4.537   8.577   8.813
17198SOL     OW53527   4.615   8.337   7.658
17198SOL    HW153528   4.693   8.384   7.614
17198SOL    HW253529   4.649   8.277   7.730
17199SOL     OW53530   5.224   9.073   7.491
17199SOL    HW153531   5.128   9.049   7.475
17199SOL    HW253532   5.271   9.079   7.404
17200SOL     OW53533   4.072   8.801   8.893
17200SOL    HW153534   4.060   8.873   8.825
17200SOL    HW253535   4.013   8.723   8.871
17201SOL     OW53536   4.882   8.589   8.201
17201SOL    HW153537   4.790   8.548   8.193
17201SOL    HW253538   4.927   8.586   8.111
17202SOL     OW53539   4.739   7.658   8.410
17202SOL    HW153540   4.720   7.641   8.313
17202SOL    HW253541   4.728   7.574   8.462
17203SOL     OW53542   4.312   8.955   7.932
17203SOL    HW153543   4.348   8.905   7.853
17203SOL    HW253544   4.212   8.959   7.925
17204SOL     OW53545   5.499   7.825   8.820
17204SOL    HW153546   5.580   7.883   8.827
17204SOL    HW253547   5.522   7.740   8.773
17205SOL     OW53548   4.023   8.800   7.738
17205SOL    HW153549   3.931   8.779   7.705
17205SOL    HW253550   4.018   8.870   7.809
17206SOL     OW53551   3.945   8.495   9.116
17206SOL    HW153552   3.863   8.470   9.167
17206SOL    HW253553   4.025   8.452   9.157
17207SOL     OW53554   4.420   7.602   8.876
17207SOL    HW153555   4.506   7.565   8.841
17207SOL    HW253556   4.434   7.642   8.966
17208SOL     OW53557   3.805   7.753   7.425
17208SOL    HW153558   3.719   7.736   7.376
17208SOL    HW253559   3.843   7.840   7.396
17209SOL     OW53560   5.102   8.288   8.847
17209SOL    HW153561   5.034   8.348   8.805
17209SOL    HW253562   5.190   8.298   8.800
17210SOL     OW53563   3.776   7.601   7.676
17210SOL    HW153564   3.761   7.660   7.597
17210SOL    HW253565   3.866   7.557   7.667
17211SOL     OW53566   4.887   8.773   7.588
17211SOL    HW153567   4.791   8.761   7.562
17211SOL    HW253568   4.895   8.772   7.688
17212SOL     OW53569   4.367   8.271   8.899
17212SOL    HW153570   4.419   8.356   8.888
17212SOL    HW253571   4.430   8.193   8.896
17213SOL     OW53572   5.152   9.297   8.596
17213SOL    HW153573   5.148   9.397   8.607
17213SOL    HW253574   5.243   9.264   8.622
17214SOL     OW53575   4.421   7.958   9.136
17214SOL    HW153576   4.480   8.009   9.198
17214SOL    HW253577   4.437   7.860   9.148
17215SOL     OW53578   5.232   8.588   9.108
17215SOL    HW153579   5.226   8.607   9.206
17215SOL    HW253580   5.324   8.611   9.074
17216SOL     OW53581   4.044   9.183   9.003
17216SOL    HW153582   3.956   9.230   9.004
17216SOL    HW253583   4.033   9.089   9.035
17217SOL     OW53584   5.333   8.325   8.704
17217SOL    HW153585   5.353   8.234   8.668
17217SOL    HW253586   5.334   8.392   8.630
17218SOL     OW53587   4.966   7.759   7.916
17218SOL    HW153588   5.023   7.677   7.906
17218SOL    HW253589   4.981   7.799   8.006
17219SOL     OW53590   4.286   8.176   8.129
17219SOL    HW153591   4.339   8.258   8.107
17219SOL    HW253592   4.212   8.166   8.063
17220SOL     OW53593   5.532   7.752   9.081
17220SOL    HW153594   5.513   7.774   8.985
17220SOL    HW253595   5.459   7.790   9.139
17221SOL     OW53596   5.438   8.375   8.952
17221SOL    HW153597   5.445   8.473   8.970
17221SOL    HW253598   5.403   8.360   8.860
17222SOL     OW53599   4.607   8.810   7.524
17222SOL    HW153600   4.554   8.823   7.608
17222SOL    HW253601   4.620   8.898   7.479
17223SOL     OW53602   4.414   9.242   8.386
17223SOL    HW153603   4.374   9.333   8.385
17223SOL    HW253604   4.509   9.248   8.417
17224SOL     OW53605   4.605   8.495   8.265
17224SOL    HW153606   4.650   8.420   8.314
17224SOL    HW253607   4.536   8.536   8.324
17225SOL     OW53608   4.829   8.442   7.531
17225SOL    HW153609   4.791   8.496   7.457
17225SOL    HW253610   4.907   8.389   7.497
17226SOL     OW53611   5.601   8.930   8.376
17226SOL    HW153612   5.551   8.893   8.298
17226SOL    HW253613   5.650   8.856   8.423
17227SOL     OW53614   3.983   8.731   9.276
17227SOL    HW153615   3.971   8.652   9.215
17227SOL    HW253616   3.909   8.734   9.342
17228SOL     OW53617   3.910   8.773   8.120
17228SOL    HW153618   3.895   8.741   8.214
17228SOL    HW253619   3.958   8.703   8.068
17229SOL     OW53620   4.465   8.860   9.006
17229SOL    HW153621   4.381   8.829   9.049
17229SOL    HW253622   4.503   8.936   9.059
17230SOL     OW53623   5.571   7.595   8.705
17230SOL    HW153624   5.643   7.527   8.721
17230SOL    HW253625   5.556   7.604   8.606
17231SOL     OW53626   4.113   7.859   7.989
17231SOL    HW153627   4.158   7.796   7.925
17231SOL    HW253628   4.059   7.806   8.054
17232SOL     OW53629   4.093   8.015   8.726
17232SOL    HW153630   4.132   7.944   8.785
17232SOL    HW253631   4.088   7.983   8.632
17233SOL     OW53632   4.558   9.063   8.114
17233SOL    HW153633   4.496   9.125   8.068
17233SOL    HW253634   4.507   8.988   8.156
17234SOL     OW53635   5.125   7.709   8.564
17234SOL    HW153636   5.137   7.611   8.584
17234SOL    HW253637   5.068   7.750   8.634
17235SOL     OW53638   4.481   8.790   7.771
17235SOL    HW153639   4.469   8.691   7.784
17235SOL    HW253640   4.555   8.822   7.829
17236SOL     OW53641   4.307   9.063   8.724
17236SOL    HW153642   4.303   9.145   8.782
17236SOL    HW253643   4.396   9.060   8.677
17237SOL     OW53644   5.074   7.486   7.634
17237SOL    HW153645   5.113   7.427   7.563
17237SOL    HW253646   4.982   7.454   7.657
17238SOL     OW53647   5.289   7.651   8.348
17238SOL    HW153648   5.233   7.691   8.420
17238SOL    HW253649   5.298   7.717   8.273
17239SOL     OW53650   3.772   8.463   7.757
17239SOL    HW153651   3.871   8.455   7.748
17239SOL    HW253652   3.732   8.371   7.762
17240SOL     OW53653   4.604   9.163   7.751
17240SOL    HW153654   4.519   9.139   7.705
17240SOL    HW253655   4.587   9.238   7.815
17241SOL     OW53656   3.962   8.106   9.443
17241SOL    HW153657   3.873   8.072   9.476
17241SOL    HW253658   3.963   8.106   9.343
17242SOL     OW53659   5.628   7.947   9.500
17242SOL    HW153660   5.647   7.899   9.415
17242SOL    HW253661   5.540   7.916   9.537
17243SOL     OW53662   3.936   9.219   9.751
17243SOL    HW153663   3.964   9.293   9.812
17243SOL    HW253664   4.017   9.184   9.703
17244SOL     OW53665   3.839   8.844   9.903
17244SOL    HW153666   3.804   8.903   9.976
17244SOL    HW253667   3.855   8.753   9.939
17245SOL     OW53668   4.315   8.434   9.454
17245SOL    HW153669   4.345   8.503   9.388
17245SOL    HW253670   4.358   8.451   9.542
17246SOL     OW53671   3.752   8.125   9.894
17246SOL    HW153672   3.659   8.092   9.875
17246SOL    HW253673   3.748   8.198   9.963
17247SOL     OW53674   5.559   9.164   9.642
17247SOL    HW153675   5.639   9.155   9.702
17247SOL    HW253676   5.552   9.259   9.611
17248SOL     OW53677   3.775   9.002   9.451
17248SOL    HW153678   3.758   8.904   9.456
17248SOL    HW253679   3.732   9.048   9.528
17249SOL     OW53680   5.423   8.299   9.899
17249SOL    HW153681   5.496   8.296   9.967
17249SOL    HW253682   5.425   8.388   9.853
17250SOL     OW53683   5.462   8.547   9.781
17250SOL    HW153684   5.552   8.552   9.737
17250SOL    HW253685   5.452   8.622   9.846
17251SOL     OW53686   4.328   8.754   0.016
17251SOL    HW153687   4.267   8.676   0.029
17251SOL    HW253688   4.326   8.782   9.920
17252SOL     OW53689   4.542   7.472   9.828
17252SOL    HW153690   4.594   7.553   9.801
17252SOL    HW253691   4.446   7.496   9.838
17253SOL     OW53692   5.353   8.457   9.538
17253SOL    HW153693   5.284   8.389   9.558
17253SOL    HW253694   5.390   8.493   9.624
17254SOL     OW53695   4.324   8.170   9.580
17254SOL    HW153696   4.332   8.255   9.528
17254SOL    HW253697   4.257   8.183   9.653
17255SOL     OW53698   5.295   9.065   9.657
17255SOL    HW153699   5.390   9.095   9.665
17255SOL    HW253700   5.271   9.056   9.560
17256SOL     OW53701   4.771   8.127   9.747
17256SOL    HW153702   4.813   8.084   9.827
17256SOL    HW253703   4.677   8.093   9.737
17257SOL     OW53704   3.706   8.322   0.067
17257SOL    HW153705   3.738   8.362   0.153
17257SOL    HW253706   3.657   8.390   0.014
17258SOL     OW53707   4.547   7.795   9.528
17258SOL    HW153708   4.592   7.837   9.448
17258SOL    HW253709   4.492   7.718   9.498
17259SOL     OW53710   4.697   8.879   9.818
17259SOL    HW153711   4.672   8.966   9.775
17259SOL    HW253712   4.657   8.874   9.909
17260SOL     OW53713   4.097   9.351   0.167
17260SOL    HW153714   4.107   9.289   0.244
17260SOL    HW253715   4.187   9.370   0.127
17261SOL     OW53716   4.048   8.365   9.525
17261SOL    HW153717   4.139   8.388   9.489
17261SOL    HW253718   4.024   8.272   9.496
17262SOL     OW53719   4.878   9.159   9.537
17262SOL    HW153720   4.794   9.143   9.589
17262SOL    HW253721   4.909   9.073   9.497
17263SOL     OW53722   5.402   8.827   9.414
17263SOL    HW153723   5.357   8.916   9.406
17263SOL    HW253724   5.336   8.755   9.395
17264SOL     OW53725   4.203   9.220   9.629
17264SOL    HW153726   4.248   9.277   9.699
17264SOL    HW253727   4.269   9.156   9.591
17265SOL     OW53728   5.154   7.615   9.737
17265SOL    HW153729   5.152   7.572   9.647
17265SOL    HW253730   5.249   7.630   9.765
17266SOL     OW53731   4.141   8.179   9.783
17266SOL    HW153732   4.155   8.086   9.816
17266SOL    HW253733   4.043   8.198   9.775
17267SOL     OW53734   4.387   7.574   9.482
17267SOL    HW153735   4.423   7.485   9.510
17267SOL    HW253736   4.335   7.563   9.396
17268SOL     OW53737   4.279   7.552   9.864
17268SOL    HW153738   4.191   7.531   9.907
17268SOL    HW253739   4.266   7.625   9.797
17269SOL     OW53740   5.217   8.631   9.377
17269SOL    HW153741   5.269   8.564   9.429
17269SOL    HW253742   5.131   8.651   9.425
17270SOL     OW53743   4.005   7.517   9.489
17270SOL    HW153744   4.046   7.597   9.446
17270SOL    HW253745   4.073   7.473   9.549
17271SOL     OW53746   4.671   7.694   9.747
17271SOL    HW153747   4.630   7.730   9.664
17271SOL    HW253748   4.770   7.710   9.745
17272SOL     OW53749   4.149   8.548   0.034
17272SOL    HW153750   4.052   8.567   0.026
17272SOL    HW253751   4.181   8.501   9.952
17273SOL     OW53752   5.029   9.273   9.912
17273SOL    HW153753   5.064   9.330   9.838
17273SOL    HW253754   5.035   9.322   9.999
17274SOL     OW53755   4.687   7.940   9.340
17274SOL    HW153756   4.656   8.031   9.311
17274SOL    HW253757   4.752   7.949   9.415
17275SOL     OW53758   4.598   7.889   9.925
17275SOL    HW153759   4.549   7.952   9.865
17275SOL    HW253760   4.619   7.805   9.875
17276SOL     OW53761   5.611   8.239   9.638
17276SOL    HW153762   5.667   8.202   9.564
17276SOL    HW253763   5.523   8.191   9.640
17277SOL     OW53764   4.161   8.862   9.543
17277SOL    HW153765   4.076   8.842   9.592
17277SOL    HW253766   4.154   8.830   9.448
17278SOL     OW53767   5.050   7.971   9.368
17278SOL    HW153768   4.975   7.971   9.435
17278SOL    HW253769   5.115   7.899   9.392
17279SOL     OW53770   4.253   7.735   9.667
17279SOL    HW153771   4.304   7.678   9.603
17279SOL    HW253772   4.216   7.815   9.619
17280SOL     OW53773   4.453   8.473   9.684
17280SOL    HW153774   4.404   8.440   9.765
17280SOL    HW253775   4.544   8.431   9.682
17281SOL     OW53776   4.028   8.529   9.742
17281SOL    HW153777   4.010   8.620   9.705
17281SOL    HW253778   4.041   8.464   9.668
17282SOL     OW53779   4.952   8.802   9.766
17282SOL    HW153780   5.007   8.885   9.779
17282SOL    HW253781   4.856   8.823   9.780
17283SOL     OW53782   5.356   8.132   9.695
17283SOL    HW153783   5.379   8.180   9.780
17283SOL    HW253784   5.278   8.177   9.652
17284SOL     OW53785   4.856   7.958   9.554
17284SOL    HW153786   4.886   7.882   9.612
17284SOL    HW253787   4.829   8.035   9.611
17285SOL     OW53788   4.036   7.493   9.975
17285SOL    HW153789   3.967   7.565   9.987
17285SOL    HW253790   4.057   7.453   0.064
17286SOL     OW53791   5.382   7.874   9.612
17286SOL    HW153792   5.395   7.810   9.688
17286SOL    HW253793   5.369   7.966   9.648
17287SOL     OW53794   5.221   7.762   9.426
17287SOL    HW153795   5.178   7.675   9.452
17287SOL    HW253796   5.275   7.797   9.502
17288SOL     OW53797   5.027   8.248   9.353
17288SOL    HW153798   5.034   8.148   9.350
17288SOL    HW253799   5.056   8.286   9.265
17289SOL     OW53800   3.751   8.725   9.452
17289SOL    HW153801   3.660   8.745   9.416
17289SOL    HW253802   3.757   8.629   9.475
17290SOL     OW53803   4.524   8.019   9.691
17290SOL    HW153804   4.527   7.938   9.634
17290SOL    HW253805   4.454   8.081   9.657
17291SOL     OW53806   4.176   7.947   9.507
17291SOL    HW153807   4.248   8.013   9.525
17291SOL    HW253808   4.090   7.995   9.490
17292SOL     OW53809   5.149   8.282   9.594
17292SOL    HW153810   5.079   8.300   9.662
17292SOL    HW253811   5.107   8.271   9.504
17293SOL     OW53812   5.428   7.661   9.780
17293SOL    HW153813   5.485   7.628   9.705
17293SOL    HW253814   5.480   7.660   9.865
17294SOL     OW53815   5.092   9.023   9.838
17294SOL    HW153816   5.169   9.030   9.775
17294SOL    HW253817   5.060   9.115   9.862
17295SOL     OW53818   4.381   9.028   9.537
17295SOL    HW153819   4.442   8.978   9.475
17295SOL    HW253820   4.297   8.976   9.551
17296SOL     OW53821   4.977   8.933   9.395
17296SOL    HW153822   4.984   8.844   9.441
17296SOL    HW253823   4.890   8.938   9.346
17297SOL     OW53824   4.701   8.377   9.663
17297SOL    HW153825   4.761   8.407   9.589
17297SOL    HW253826   4.735   8.290   9.699
17298SOL     OW53827   5.230   9.053   9.381
17298SOL    HW153828   5.140   9.010   9.373
17298SOL    HW253829   5.266   9.071   9.290
17299SOL     OW53830   4.330   8.812   9.756
17299SOL    HW153831   4.413   8.785   9.708
17299SOL    HW253832   4.257   8.829   9.689
17300SOL     OW53833   3.934   8.776   9.659
17300SOL    HW153834   3.858   8.766   9.594
17300SOL    HW253835   3.899   8.813   9.745
17301SOL     OW53836   3.883   7.834   9.240
17301SOL    HW153837   3.788   7.822   9.213
17301SOL    HW253838   3.915   7.924   9.212
17302SOL     OW53839   3.753   7.588   9.555
17302SOL    HW153840   3.724   7.658   9.489
17302SOL    HW253841   3.847   7.562   9.537
17303SOL     OW53842   4.985   8.686   9.513
17303SOL    HW153843   4.932   8.603   9.496
17303SOL    HW253844   4.972   8.714   9.608
17304SOL     OW53845   4.932   7.780   9.747
17304SOL    HW153846   5.016   7.725   9.751
17304SOL    HW253847   4.928   7.841   9.826
17305SOL     OW53848   4.311   8.361   9.891
17305SOL    HW153849   4.341   8.328   9.980
17305SOL    HW253850   4.246   8.296   9.851
17306SOL     OW53851   4.530   8.845   9.395
17306SOL    HW153852   4.551   8.799   9.480
17306SOL    HW253853   4.614   8.869   9.347
17307SOL     OW53854   4.856   8.448   9.447
17307SOL    HW153855   4.777   8.461   9.388
17307SOL    HW253856   4.916   8.378   9.408
17308SOL     OW53857   3.876   8.576   9.956
17308SOL    HW153858   3.782   8.544   9.947
17308SOL    HW253859   3.929   8.550   9.876
17309SOL     OW53860   4.185   7.930   9.868
17309SOL    HW153861   4.214   7.850   9.816
17309SOL    HW253862   4.175   7.906   9.964
17310SOL     OW53863   4.560   8.723   9.632
17310SOL    HW153864   4.532   8.630   9.654
17310SOL    HW253865   4.621   8.757   9.703
17311SOL     OW53866   5.110   7.512   9.482
17311SOL    HW153867   5.157   7.435   9.439
17311SOL    HW253868   5.016   7.486   9.503
17312SOL     OW53869   3.792   8.462   9.512
17312SOL    HW153870   3.891   8.445   9.510
17312SOL    HW253871   3.747   8.394   9.570
17313SOL     OW53872   4.620   9.112   9.684
17313SOL    HW153873   4.535   9.087   9.636
17313SOL    HW253874   4.608   9.202   9.727
17314SOL     OW53875   3.932   9.621   1.043
17314SOL    HW153876   3.984   9.582   1.119
17314SOL    HW253877   3.848   9.569   1.029
17315SOL     OW53878   3.731   9.734   0.633
17315SOL    HW153879   3.642   9.730   0.679
17315SOL    HW253880   3.727   9.682   0.548
17316SOL     OW53881   5.380   9.932   0.147
17316SOL    HW153882   5.436   9.894   0.073
17316SOL    HW253883   5.364   9.861   0.216
17317SOL     OW53884   4.173   9.727   1.440
17317SOL    HW153885   4.259   9.679   1.424
17317SOL    HW253886   4.105   9.663   1.477
17318SOL     OW53887   5.308   9.705   0.753
17318SOL    HW153888   5.226   9.715   0.697
17318SOL    HW253889   5.303   9.767   0.831
17319SOL     OW53890   5.438   9.395   1.511
17319SOL    HW153891   5.478   9.434   1.428
17319SOL    HW253892   5.397   9.467   1.566
17320SOL     OW53893   3.785   0.018   0.694
17320SOL    HW153894   3.771   9.922   0.669
17320SOL    HW253895   3.881   0.042   0.684
17321SOL     OW53896   4.562   9.383   0.506
17321SOL    HW153897   4.610   9.466   0.476
17321SOL    HW253898   4.464   9.401   0.510
17322SOL     OW53899   4.997   9.687   0.940
17322SOL    HW153900   4.902   9.654   0.931
17322SOL    HW253901   5.043   9.636   1.013
17323SOL     OW53902   4.577   9.885   1.415
17323SOL    HW153903   4.527   9.970   1.429
17323SOL    HW253904   4.531   9.829   1.346
17324SOL     OW53905   5.136   9.864   1.699
17324SOL    HW153906   5.078   9.888   1.777
17324SOL    HW253907   5.190   9.783   1.722
17325SOL     OW53908   4.744   9.726   1.181
17325SOL    HW153909   4.648   9.728   1.210
17325SOL    HW253910   4.751   9.671   1.097
17326SOL     OW53911   4.794   9.980   0.391
17326SOL    HW153912   4.784   0.073   0.426
17326SOL    HW253913   4.706   9.948   0.355
17327SOL     OW53914   4.591   9.633   0.165
17327SOL    HW153915   4.609   9.688   0.084
17327SOL    HW253916   4.601   9.536   0.142
17328SOL     OW53917   5.447   9.955   1.883
17328SOL    HW153918   5.522   0.018   1.899
17328SOL    HW253919   5.472   9.891   1.810
17329SOL     OW53920   4.283   9.425   0.983
17329SOL    HW153921   4.299   9.453   1.078
17329SOL    HW253922   4.294   9.505   0.924
17330SOL     OW53923   5.207   0.020   0.755
17330SOL    HW153924   5.215   9.965   0.838
17330SOL    HW253925   5.227   0.116   0.776
17331SOL     OW53926   3.971   9.554   1.513
17331SOL    HW153927   3.887   9.606   1.498
17331SOL    HW253928   3.950   9.472   1.567
17332SOL     OW53929   5.268   9.605   1.738
17332SOL    HW153930   5.293   9.582   1.832
17332SOL    HW253931   5.186   9.554   1.712
17333SOL     OW53932   4.342   9.402   0.065
17333SOL    HW153933   4.440   9.386   0.080
17333SOL    HW253934   4.326   9.414   9.967
17334SOL     OW53935   4.498   9.466   1.708
17334SOL    HW153936   4.578   9.429   1.755
17334SOL    HW253937   4.484   9.561   1.735
17335SOL     OW53938   5.065   9.909   1.444
17335SOL    HW153939   5.089   9.888   1.538
17335SOL    HW253940   5.113   9.992   1.415
17336SOL     OW53941   4.572   9.754   0.859
17336SOL    HW153942   4.589   9.756   0.760
17336SOL    HW253943   4.635   9.689   0.902
17337SOL     OW53944   4.291   9.429   0.501
17337SOL    HW153945   4.217   9.441   0.567
17337SOL    HW253946   4.294   9.509   0.440
17338SOL     OW53947   4.701   9.604   0.419
17338SOL    HW153948   4.683   9.618   0.322
17338SOL    HW253949   4.800   9.602   0.435
17339SOL     OW53950   4.803   9.935   1.552
17339SOL    HW153951   4.729   9.914   1.489
17339SOL    HW253952   4.888   9.947   1.502
17340SOL     OW53953   4.901   9.829   0.016
17340SOL    HW153954   4.806   9.803   9.996
17340SOL    HW253955   4.918   9.819   0.114
17341SOL     OW53956   3.854   9.904   1.383
17341SOL    HW153957   3.942   9.904   1.336
17341SOL    HW253958   3.841   9.992   1.430
17342SOL     OW53959   4.312   9.517   1.244
17342SOL    HW153960   4.355   9.467   1.318
17342SOL    HW253961   4.212   9.508   1.250
17343SOL     OW53962   4.604   9.789   0.599
17343SOL    HW153963   4.586   9.879   0.560
17343SOL    HW253964   4.642   9.729   0.529
17344SOL     OW53965   4.666   9.406   0.760
17344SOL    HW153966   4.629   9.399   0.667
17344SOL    HW253967   4.668   9.315   0.802
17345SOL     OW53968   5.231   9.857   0.969
17345SOL    HW153969   5.142   9.815   0.987
17345SOL    HW253970   5.278   9.874   1.056
17346SOL     OW53971   4.330   9.593   0.268
17346SOL    HW153972   4.308   9.523   0.200
17346SOL    HW253973   4.424   9.625   0.254
17347SOL     OW53974   4.684   9.329   1.372
17347SOL    HW153975   4.710   9.334   1.276
17347SOL    HW253976   4.743   9.389   1.426
17348SOL     OW53977   4.966   9.677   1.334
17348SOL    HW153978   5.005   9.760   1.373
17348SOL    HW253979   4.883   9.699   1.283
17349SOL     OW53980   4.314   9.664   0.850
17349SOL    HW153981   4.277   9.679   0.759
17349SOL    HW253982   4.408   9.699   0.855
17350SOL     OW53983   5.317   9.944   0.522
17350SOL    HW153984   5.273   9.966   0.609
17350SOL    HW253985   5.416   9.956   0.531
17351SOL     OW53986   4.198   9.379   1.820
17351SOL    HW153987   4.109   9.338   1.841
17351SOL    HW253988   4.189   9.441   1.742
17352SOL     OW53989   4.970   9.813   0.278
17352SOL    HW153990   4.986   9.733   0.336
17352SOL    HW253991   4.910   9.877   0.327
17353SOL     OW53992   4.043   9.484   1.258
17353SOL    HW153993   4.017   9.511   1.350
17353SOL    HW253994   4.008   9.392   1.239
17354SOL     OW53995   4.431   9.982   1.064
17354SOL    HW153996   4.450   9.993   0.966
17354SOL    HW253997   4.371   0.056   1.095
17355SOL     OW53998   4.051   9.399   0.663
17355SOL    HW153999   4.016   9.488   0.692
17355SOL    HW254000   4.066   9.342   0.744
17356SOL     OW54001   5.320   9.743   0.333
17356SOL    HW154002   5.374   9.667   0.368
17356SOL    HW254003   5.306   9.811   0.405
17357SOL     OW54004   5.222   9.601   0.116
17357SOL    HW154005   5.161   9.525   0.137
17357SOL    HW254006   5.240   9.653   0.200
17358SOL     OW54007   4.136   0.053   0.929
17358SOL    HW154008   4.180   0.110   0.999
17358SOL    HW254009   4.138   9.957   0.957
17359SOL     OW54010   4.142   9.794   1.017
17359SOL    HW154011   4.061   9.736   1.022
17359SOL    HW254012   4.211   9.750   0.960
17360SOL     OW54013   4.731   9.708   1.677
17360SOL    HW154014   4.782   9.690   1.761
17360SOL    HW254015   4.766   9.791   1.635
17361SOL     OW54016   4.848   9.497   1.516
17361SOL    HW154017   4.797   9.554   1.580
17361SOL    HW254018   4.900   9.555   1.453
17362SOL     OW54019   3.698   9.820   1.173
17362SOL    HW154020   3.755   9.781   1.101
17362SOL    HW254021   3.756   9.864   1.241
17363SOL     OW54022   3.933   9.844   1.722
17363SOL    HW154023   3.936   9.841   1.622
17363SOL    HW254024   3.847   9.886   1.751
17364SOL     OW54025   4.562   9.887   0.282
17364SOL    HW154026   4.564   9.794   0.245
17364SOL    HW254027   4.482   9.897   0.342
17365SOL     OW54028   5.373   9.899   1.201
17365SOL    HW154029   5.338   9.866   1.289
17365SOL    HW254030   5.466   9.863   1.187
17366SOL     OW54031   4.469   9.745   1.211
17366SOL    HW154032   4.407   9.666   1.208
17366SOL    HW254033   4.436   9.815   1.147
17367SOL     OW54034   4.617   9.374   0.072
17367SOL    HW154035   4.615   9.364   9.973
17367SOL    HW254036   4.695   9.325   0.110
17368SOL     OW54037   5.465   9.525   0.417
17368SOL    HW154038   5.522   9.484   0.345
17368SOL    HW254039   5.408   9.454   0.459
17369SOL     OW54040   5.545   9.463   1.016
17369SOL    HW154041   5.583   9.376   0.982
17369SOL    HW254042   5.455   9.477   0.976
17370SOL     OW54043   3.954   9.638   0.756
17370SOL    HW154044   3.872   9.677   0.716
17370SOL    HW254045   3.947   9.642   0.856
17371SOL     OW54046   4.749   9.560   0.961
17371SOL    HW154047   4.722   9.518   0.874
17371SOL    HW254048   4.757   9.488   1.031
17372SOL     OW54049   5.598   9.695   1.454
17372SOL    HW154050   5.640   9.779   1.422
17372SOL    HW254051   5.585   9.632   1.377
17373SOL     OW54052   4.432   9.390   1.458
17373SOL    HW154053   4.519   9.364   1.417
17373SOL    HW254054   4.447   9.422   1.551
17374SOL     OW54055   3.797   9.569   9.961
17374SOL    HW154056   3.739   9.522   9.894
17374SOL    HW254057   3.782   9.668   9.955
17375SOL     OW54058   3.837   9.445   0.207
17375SOL    HW154059   3.811   9.492   0.122
17375SOL    HW254060   3.932   9.414   0.201
17376SOL     OW54061   4.971   9.603   0.469
17376SOL    HW154062   5.003   9.510   0.486
17376SOL    HW254063   4.998   9.662   0.544
17377SOL     OW54064   5.494   9.756   1.695
17377SOL    HW154065   5.527   9.736   1.603
17377SOL    HW254066   5.410   9.704   1.712
17378SOL     OW54067   4.872   0.144   0.074
17378SOL    HW154068   4.883   0.242   0.058
17378SOL    HW254069   4.961   0.103   0.096
17379SOL     OW54070   5.575   9.470   1.287
17379SOL    HW154071   5.647   9.401   1.291
17379SOL    HW254072   5.547   9.484   1.192
17380SOL     OW54073   4.181   9.704   0.615
17380SOL    HW154074   4.164   9.748   0.527
17380SOL    HW254075   4.095   9.690   0.663
17381SOL     OW54076   4.093   9.914   1.259
17381SOL    HW154077   4.135   9.857   1.330
17381SOL    HW254078   4.119   9.880   1.169
17382SOL     OW54079   5.119   9.552   1.140
17382SOL    HW154080   5.146   9.459   1.163
17382SOL    HW254081   5.071   9.593   1.217
17383SOL     OW54082   4.756   9.326   1.107
17383SOL    HW154083   4.698   9.273   1.045
17383SOL    HW254084   4.849   9.288   1.106
17384SOL     OW54085   5.067   9.374   0.167
17384SOL    HW154086   5.125   9.295   0.186
17384SOL    HW254087   4.972   9.353   0.192
17385SOL     OW54088   5.049   9.764   0.678
17385SOL    HW154089   5.053   9.863   0.671
17385SOL    HW254090   5.023   9.737   0.771
17386SOL     OW54091   5.294   9.498   0.927
17386SOL    HW154092   5.229   9.533   0.995
17386SOL    HW254093   5.299   9.561   0.850
17387SOL     OW54094   3.917   9.512   2.933
17387SOL    HW154095   3.975   9.487   3.011
17387SOL    HW254096   3.888   9.429   2.886
17388SOL     OW54097   3.684   9.711   2.487
17388SOL    HW154098   3.599   9.707   2.539
17388SOL    HW254099   3.672   9.664   2.400
17389SOL     OW54100   5.241   9.867   2.031
17389SOL    HW154101   5.318   9.904   1.979
17389SOL    HW254102   5.275   9.806   2.102
17390SOL     OW54103   4.109   9.709   3.345
17390SOL    HW154104   4.201   9.673   3.328
17390SOL    HW254105   4.046   9.633   3.361
17391SOL     OW54106   5.347   9.746   2.630
17391SOL    HW154107   5.339   9.785   2.539
17391SOL    HW254108   5.296   9.802   2.695
17392SOL     OW54109   5.327   9.409   3.304
17392SOL    HW154110   5.405   9.437   3.247
17392SOL    HW254111   5.315   9.476   3.377
17393SOL     OW54112   3.744   9.972   2.413
17393SOL    HW154113   3.730   9.877   2.443
17393SOL    HW254114   3.838   9.999   2.432
17394SOL     OW54115   4.535   9.366   2.401
17394SOL    HW154116   4.582   9.437   2.348
17394SOL    HW254117   4.436   9.379   2.395
17395SOL     OW54118   4.097   9.551   3.693
17395SOL    HW154119   4.140   9.639   3.675
17395SOL    HW254120   3.998   9.563   3.701
17396SOL     OW54121   4.994   9.698   2.787
17396SOL    HW154122   4.902   9.657   2.783
17396SOL    HW254123   5.051   9.645   2.849
17397SOL     OW54124   4.586   9.865   3.273
17397SOL    HW154125   4.572   9.820   3.362
17397SOL    HW254126   4.518   9.831   3.208
17398SOL     OW54127   5.157   9.764   3.533
17398SOL    HW154128   5.212   9.824   3.591
17398SOL    HW254129   5.190   9.670   3.542
17399SOL     OW54130   4.776   9.831   3.074
17399SOL    HW154131   4.709   9.837   3.148
17399SOL    HW254132   4.733   9.794   2.992
17400SOL     OW54133   4.752   9.977   2.311
17400SOL    HW154134   4.841   0.020   2.329
17400SOL    HW254135   4.679   0.039   2.338
17401SOL     OW54136   4.526   9.655   2.051
17401SOL    HW154137   4.537   9.694   1.960
17401SOL    HW254138   4.481   9.566   2.045
17402SOL     OW54139   5.368   9.895   3.664
17402SOL    HW154140   5.411   9.980   3.635
17402SOL    HW254141   5.419   9.817   3.627
17403SOL     OW54142   4.259   9.440   2.854
17403SOL    HW154143   4.283   9.465   2.947
17403SOL    HW254144   4.254   9.522   2.797
17404SOL     OW54145   5.168   0.063   2.549
17404SOL    HW154146   5.170   0.007   2.631
17404SOL    HW254147   5.180   0.159   2.574
17405SOL     OW54148   3.923   9.509   3.378
17405SOL    HW154149   3.839   9.557   3.357
17405SOL    HW254150   3.902   9.424   3.426
17406SOL     OW54151   5.111   9.392   2.305
17406SOL    HW154152   5.130   9.376   2.208
17406SOL    HW254153   5.188   9.361   2.360
17407SOL     OW54154   5.262   9.512   3.573
17407SOL    HW154155   5.264   9.523   3.672
17407SOL    HW254156   5.212   9.428   3.550
17408SOL     OW54157   4.378   9.424   2.027
17408SOL    HW154158   4.445   9.350   2.024
17408SOL    HW254159   4.314   9.414   1.951
17409SOL     OW54160   4.515   9.499   3.598
17409SOL    HW154161   4.608   9.464   3.602
17409SOL    HW254162   4.463   9.467   3.677
17410SOL     OW54163   5.169   9.896   3.292
17410SOL    HW154164   5.160   9.844   3.376
17410SOL    HW254165   5.204   9.988   3.313
17411SOL     OW54166   4.628   9.801   2.716
17411SOL    HW154167   4.621   9.792   2.616
17411SOL    HW254168   4.669   9.717   2.753
17412SOL     OW54169   4.267   9.398   2.371
17412SOL    HW154170   4.192   9.396   2.438
17412SOL    HW254171   4.262   9.484   2.320
17413SOL     OW54172   4.049   9.401   2.130
17413SOL    HW154173   4.107   9.481   2.146
17413SOL    HW254174   4.089   9.321   2.175
17414SOL     OW54175   4.661   9.568   2.275
17414SOL    HW154176   4.628   9.607   2.189
17414SOL    HW254177   4.761   9.576   2.278
17415SOL     OW54178   4.780   0.004   3.427
17415SOL    HW154179   4.724   9.939   3.375
17415SOL    HW254180   4.800   0.084   3.369
17416SOL     OW54181   3.758   9.867   3.215
17416SOL    HW154182   3.854   9.891   3.207
17416SOL    HW254183   3.701   9.944   3.187
17417SOL     OW54184   4.307   9.531   3.113
17417SOL    HW154185   4.367   9.498   3.186
17417SOL    HW254186   4.214   9.500   3.130
17418SOL     OW54187   4.623   9.778   2.449
17418SOL    HW154188   4.673   9.850   2.401
17418SOL    HW254189   4.627   9.693   2.396
17419SOL     OW54190   4.731   9.367   2.593
17419SOL    HW154191   4.663   9.376   2.520
17419SOL    HW254192   4.702   9.296   2.657
17420SOL     OW54193   5.173   9.907   2.776
17420SOL    HW154194   5.099   9.840   2.786
17420SOL    HW254195   5.199   9.942   2.866
17421SOL     OW54196   4.237   9.601   2.184
17421SOL    HW154197   4.294   9.542   2.127
17421SOL    HW254198   4.261   9.697   2.167
17422SOL     OW54199   4.698   9.359   3.234
17422SOL    HW154200   4.717   9.340   3.138
17422SOL    HW254201   4.771   9.417   3.271
17423SOL     OW54202   5.008   9.711   3.163
17423SOL    HW154203   5.066   9.779   3.208
17423SOL    HW254204   4.926   9.756   3.127
17424SOL     OW54205   4.236   9.687   2.733
17424SOL    HW154206   4.223   9.689   2.634
17424SOL    HW254207   4.300   9.759   2.759
17425SOL     OW54208   5.344   9.898   2.401
17425SOL    HW154209   5.286   9.969   2.440
17425SOL    HW254210   5.437   9.933   2.388
17426SOL     OW54211   4.771   9.423   3.611
17426SOL    HW154212   4.826   9.506   3.609
17426SOL    HW254213   4.824   9.347   3.574
17427SOL     OW54214   4.220   9.325   3.609
17427SOL    HW154215   4.165   9.264   3.552
17427SOL    HW254216   4.168   9.409   3.627
17428SOL     OW54217   4.848   9.793   2.124
17428SOL    HW154218   4.893   9.729   2.187
17428SOL    HW254219   4.804   9.866   2.177
17429SOL     OW54220   4.057   9.444   3.153
17429SOL    HW154221   4.008   9.461   3.239
17429SOL    HW254222   4.046   9.348   3.127
17430SOL     OW54223   4.391   9.891   2.826
17430SOL    HW154224   4.480   9.874   2.785
17430SOL    HW254225   4.365   9.987   2.811
17431SOL     OW54226   4.038   9.385   2.533
17431SOL    HW154227   3.996   9.472   2.556
17431SOL    HW254228   4.058   9.335   2.617
17432SOL     OW54229   5.333   9.690   2.223
17432SOL    HW154230   5.373   9.611   2.271
17432SOL    HW254231   5.328   9.768   2.286
17433SOL     OW54232   5.325   9.532   1.995
17433SOL    HW154233   5.259   9.460   2.016
17433SOL    HW254234   5.324   9.600   2.068
17434SOL     OW54235   4.035   0.009   2.763
17434SOL    HW154236   4.117   0.061   2.787
17434SOL    HW254237   4.032   9.925   2.817
17435SOL     OW54238   4.025   9.754   2.890
17435SOL    HW154239   3.983   9.666   2.914
17435SOL    HW254240   4.108   9.738   2.836
17436SOL     OW54241   4.900   9.665   3.569
17436SOL    HW154242   4.843   9.724   3.626
17436SOL    HW254243   4.989   9.708   3.555
17437SOL     OW54244   4.904   9.514   3.329
17437SOL    HW154245   4.892   9.562   3.416
17437SOL    HW254246   4.946   9.576   3.263
17438SOL     OW54247   3.750   9.779   2.954
17438SOL    HW154248   3.841   9.787   2.913
17438SOL    HW254249   3.755   9.802   3.051
17439SOL     OW54250   4.045   9.823   3.589
17439SOL    HW154251   4.066   9.789   3.497
17439SOL    HW254252   4.084   9.914   3.600
17440SOL     OW54253   4.340   9.859   2.156
17440SOL    HW154254   4.429   9.814   2.151
17440SOL    HW254255   4.333   9.910   2.243
17441SOL     OW54256   5.264   9.970   3.042
17441SOL    HW154257   5.225   9.931   3.126
17441SOL    HW254258   5.341   9.914   3.012
17442SOL     OW54259   4.421   9.779   3.080
17442SOL    HW154260   4.378   9.689   3.082
17442SOL    HW254261   4.405   9.821   2.990
17443SOL     OW54262   5.459   9.471   2.339
17443SOL    HW154263   5.503   9.443   2.254
17443SOL    HW254264   5.414   9.393   2.381
17444SOL     OW54265   5.575   9.440   2.882
17444SOL    HW154266   5.604   9.356   2.836
17444SOL    HW254267   5.491   9.473   2.839
17445SOL     OW54268   3.918   9.622   2.594
17445SOL    HW154269   3.834   9.656   2.553
17445SOL    HW254270   3.926   9.655   2.688
17446SOL     OW54271   4.756   9.557   2.795
17446SOL    HW154272   4.751   9.505   2.709
17446SOL    HW254273   4.758   9.494   2.872
17447SOL     OW54274   5.580   9.667   3.303
17447SOL    HW154275   5.608   9.753   3.260
17447SOL    HW254276   5.563   9.598   3.233
17448SOL     OW54277   4.455   9.445   3.330
17448SOL    HW154278   4.542   9.417   3.292
17448SOL    HW254279   4.467   9.468   3.427
17449SOL     OW54280   3.819   9.622   1.865
17449SOL    HW154281   3.736   9.624   1.809
17449SOL    HW254282   3.884   9.690   1.832
17450SOL     OW54283   3.793   9.475   2.091
17450SOL    HW154284   3.792   9.528   2.006
17450SOL    HW254285   3.888   9.454   2.116
17451SOL     OW54286   4.571   9.757   3.522
17451SOL    HW154287   4.629   9.792   3.595
17451SOL    HW254288   4.542   9.664   3.544
17452SOL     OW54289   4.933   9.605   2.302
17452SOL    HW154290   5.000   9.530   2.301
17452SOL    HW254291   4.950   9.663   2.382
17453SOL     OW54292   5.485   9.677   3.555
17453SOL    HW154293   5.518   9.679   3.460
17453SOL    HW254294   5.415   9.607   3.565
17454SOL     OW54295   4.995   0.202   1.901
17454SOL    HW154296   4.936   0.235   1.827
17454SOL    HW254297   4.992   0.102   1.904
17455SOL     OW54298   5.555   9.442   3.152
17455SOL    HW154299   5.618   9.369   3.180
17455SOL    HW254300   5.554   9.448   3.052
17456SOL     OW54301   4.160   9.685   2.471
17456SOL    HW154302   4.168   9.682   2.371
17456SOL    HW254303   4.065   9.670   2.497
17457SOL     OW54304   4.025   9.886   3.150
17457SOL    HW154305   4.063   9.829   3.223
17457SOL    HW254306   4.043   9.844   3.061
17458SOL     OW54307   5.136   9.558   2.976
17458SOL    HW154308   5.150   9.464   3.005
17458SOL    HW254309   5.095   9.611   3.050
17459SOL     OW54310   4.770   9.313   2.961
17459SOL    HW154311   4.706   9.258   2.907
17459SOL    HW254312   4.861   9.272   2.955
17460SOL     OW54313   5.162   9.319   2.041
17460SOL    HW154314   5.223   9.260   1.988
17460SOL    HW254315   5.077   9.269   2.061
17461SOL     OW54316   4.979   9.765   2.514
17461SOL    HW154317   4.980   9.864   2.503
17461SOL    HW254318   4.990   9.741   2.610
17462SOL     OW54319   5.335   9.523   2.791
17462SOL    HW154320   5.265   9.550   2.857
17462SOL    HW254321   5.343   9.593   2.720
17463SOL     OW54322   3.944   9.649   4.804
17463SOL    HW154323   3.995   9.592   4.867
17463SOL    HW254324   3.874   9.594   4.758
17464SOL     OW54325   3.714   9.690   4.346
17464SOL    HW154326   3.637   9.684   4.410
17464SOL    HW254327   3.696   9.630   4.268
17465SOL     OW54328   5.322   9.879   3.934
17465SOL    HW154329   5.345   9.881   3.837
17465SOL    HW254330   5.345   9.789   3.972
17466SOL     OW54331   5.378   9.743   4.438
17466SOL    HW154332   5.324   9.789   4.367
17466SOL    HW254333   5.327   9.745   4.525
17467SOL     OW54334   5.439   9.326   5.263
17467SOL    HW154335   5.475   9.378   5.186
17467SOL    HW254336   5.375   9.383   5.315
17468SOL     OW54337   3.734   9.953   4.268
17468SOL    HW154338   3.730   9.858   4.299
17468SOL    HW254339   3.829   9.979   4.252
17469SOL     OW54340   4.570   9.378   4.213
17469SOL    HW154341   4.603   9.471   4.196
17469SOL    HW254342   4.472   9.380   4.232
17470SOL     OW54343   4.089   9.559   5.567
17470SOL    HW154344   4.136   9.644   5.544
17470SOL    HW254345   3.990   9.573   5.564
17471SOL     OW54346   5.031   9.589   4.761
17471SOL    HW154347   4.948   9.556   4.716
17471SOL    HW254348   5.007   9.632   4.848
17472SOL     OW54349   5.144   9.722   5.361
17472SOL    HW154350   5.196   9.788   5.414
17472SOL    HW254351   5.180   9.630   5.377
17473SOL     OW54352   4.702   9.779   4.882
17473SOL    HW154353   4.645   9.702   4.908
17473SOL    HW254354   4.720   9.776   4.783
17474SOL     OW54355   4.785   9.949   4.197
17474SOL    HW154356   4.843   9.912   4.270
17474SOL    HW254357   4.704   9.992   4.237
17475SOL     OW54358   4.579   9.688   3.920
17475SOL    HW154359   4.638   9.738   3.856
17475SOL    HW254360   4.553   9.600   3.880
17476SOL     OW54361   5.329   9.893   5.465
17476SOL    HW154362   5.336   9.957   5.389
17476SOL    HW254363   5.396   9.819   5.452
17477SOL     OW54364   4.324   9.472   4.674
17477SOL    HW154365   4.327   9.498   4.771
17477SOL    HW254366   4.326   9.555   4.617
17478SOL     OW54367   5.155   9.976   4.475
17478SOL    HW154368   5.181   9.913   4.549
17478SOL    HW254369   5.190   0.067   4.496
17479SOL     OW54370   3.918   9.581   5.212
17479SOL    HW154371   3.823   9.594   5.183
17479SOL    HW254372   3.923   9.504   5.275
17480SOL     OW54373   5.096   9.426   4.161
17480SOL    HW154374   5.089   9.392   4.067
17480SOL    HW254375   5.192   9.428   4.188
17481SOL     OW54376   5.260   9.477   5.421
17481SOL    HW154377   5.254   9.499   5.518
17481SOL    HW254378   5.179   9.425   5.393
17482SOL     OW54379   4.371   9.404   3.825
17482SOL    HW154380   4.402   9.321   3.870
17482SOL    HW254381   4.308   9.380   3.751
17483SOL     OW54382   4.551   9.525   5.425
17483SOL    HW154383   4.648   9.503   5.437
17483SOL    HW254384   4.501   9.501   5.508
17484SOL     OW54385   5.147   9.873   5.133
17484SOL    HW154386   5.144   9.804   5.205
17484SOL    HW254387   5.199   9.952   5.164
17485SOL     OW54388   4.741   9.755   4.608
17485SOL    HW154389   4.675   9.763   4.534
17485SOL    HW254390   4.762   9.658   4.624
17486SOL     OW54391   4.301   9.405   4.236
17486SOL    HW154392   4.226   9.405   4.301
17486SOL    HW254393   4.290   9.481   4.172
17487SOL     OW54394   4.027   9.376   3.901
17487SOL    HW154395   4.075   9.433   3.835
17487SOL    HW254396   4.093   9.324   3.955
17488SOL     OW54397   4.654   9.637   4.180
17488SOL    HW154398   4.625   9.663   4.088
17488SOL    HW254399   4.754   9.639   4.186
17489SOL     OW54400   4.882   9.959   5.200
17489SOL    HW154401   4.859   0.055   5.216
17489SOL    HW254402   4.976   9.952   5.166
17490SOL     OW54403   4.747   9.828   3.747
17490SOL    HW154404   4.733   9.924   3.723
17490SOL    HW254405   4.806   9.822   3.827
17491SOL     OW54406   3.880   9.989   5.063
17491SOL    HW154407   3.943   9.930   5.114
17491SOL    HW254408   3.929   0.071   5.033
17492SOL     OW54409   4.313   9.536   4.940
17492SOL    HW154410   4.368   9.519   5.022
17492SOL    HW254411   4.218   9.511   4.958
17493SOL     OW54412   4.570   9.786   4.402
17493SOL    HW154413   4.560   9.881   4.370
17493SOL    HW254414   4.594   9.728   4.324
17494SOL     OW54415   4.739   9.340   4.429
17494SOL    HW154416   4.685   9.363   4.348
17494SOL    HW254417   4.700   9.259   4.473
17495SOL     OW54418   5.212   9.780   4.661
17495SOL    HW154419   5.149   9.706   4.685
17495SOL    HW254420   5.252   9.819   4.744
17496SOL     OW54421   4.274   9.586   4.032
17496SOL    HW154422   4.298   9.526   3.956
17496SOL    HW254423   4.294   9.681   4.006
17497SOL     OW54424   4.683   9.343   5.109
17497SOL    HW154425   4.694   9.320   5.012
17497SOL    HW254426   4.755   9.407   5.136
17498SOL     OW54427   4.954   9.713   4.993
17498SOL    HW154428   5.017   9.779   5.033
17498SOL    HW254429   4.868   9.758   4.969
17499SOL     OW54430   4.322   9.706   4.514
17499SOL    HW154431   4.271   9.703   4.428
17499SOL    HW254432   4.416   9.734   4.496
17500SOL     OW54433   5.252   9.871   4.231
17500SOL    HW154434   5.203   9.927   4.298
17500SOL    HW254435   5.268   9.923   4.148
17501SOL     OW54436   4.810   9.472   5.498
17501SOL    HW154437   4.832   9.544   5.565
17501SOL    HW254438   4.892   9.419   5.477
17502SOL     OW54439   4.241   9.341   5.502
17502SOL    HW154440   4.195   9.283   5.435
17502SOL    HW254441   4.186   9.423   5.518
17503SOL     OW54442   4.885   9.826   3.981
17503SOL    HW154443   4.915   9.742   4.026
17503SOL    HW254444   4.840   9.885   4.048
17504SOL     OW54445   4.049   9.477   4.994
17504SOL    HW154446   4.007   9.516   5.076
17504SOL    HW254447   4.028   9.379   4.989
17505SOL     OW54448   4.073   9.395   4.393
17505SOL    HW154449   4.030   9.483   4.411
17505SOL    HW254450   4.092   9.349   4.480
17506SOL     OW54451   5.340   9.651   4.087
17506SOL    HW154452   5.352   9.565   4.136
17506SOL    HW254453   5.298   9.718   4.148
17507SOL     OW54454   5.256   9.538   3.840
17507SOL    HW154455   5.195   9.463   3.867
17507SOL    HW254456   5.294   9.581   3.922
17508SOL     OW54457   4.003   0.084   4.598
17508SOL    HW154458   4.088   0.136   4.611
17508SOL    HW254459   4.021   9.987   4.614
17509SOL     OW54460   4.072   9.811   4.621
17509SOL    HW154461   4.032   9.760   4.696
17509SOL    HW254462   4.166   9.781   4.605
17510SOL     OW54463   4.877   9.750   5.371
17510SOL    HW154464   4.856   9.826   5.310
17510SOL    HW254465   4.975   9.733   5.371
17511SOL     OW54466   4.874   9.527   5.185
17511SOL    HW154467   4.846   9.585   5.262
17511SOL    HW254468   4.908   9.585   5.111
17512SOL     OW54469   3.751   9.770   4.966
17512SOL    HW154470   3.814   9.731   4.898
17512SOL    HW254471   3.790   9.855   5.001
17513SOL     OW54472   3.991   9.835   5.457
17513SOL    HW154473   3.997   9.831   5.357
17513SOL    HW254474   4.055   9.904   5.491
17514SOL     OW54475   4.361   9.843   3.985
17514SOL    HW154476   4.451   9.801   3.975
17514SOL    HW254477   4.359   9.898   4.069
17515SOL     OW54478   5.311   9.877   4.896
17515SOL    HW154479   5.260   9.862   4.981
17515SOL    HW254480   5.403   9.839   4.905
17516SOL     OW54481   5.592   9.447   4.771
17516SOL    HW154482   5.654   9.369   4.769
17516SOL    HW254483   5.527   9.441   4.695
17517SOL     OW54484   3.968   9.645   4.424
17517SOL    HW154485   3.873   9.659   4.398
17517SOL    HW254486   3.992   9.706   4.500
17518SOL     OW54487   4.792   9.488   4.659
17518SOL    HW154488   4.782   9.444   4.570
17518SOL    HW254489   4.761   9.427   4.731
17519SOL     OW54490   5.599   9.687   5.191
17519SOL    HW154491   5.629   9.779   5.165
17519SOL    HW254492   5.575   9.635   5.109
17520SOL     OW54493   4.453   9.474   5.173
17520SOL    HW154494   4.533   9.424   5.139
17520SOL    HW254495   4.472   9.506   5.266
17521SOL     OW54496   3.845   9.660   3.709
17521SOL    HW154497   3.761   9.664   3.656
17521SOL    HW254498   3.907   9.733   3.679
17522SOL     OW54499   3.782   9.472   3.920
17522SOL    HW154500   3.777   9.547   3.853
17522SOL    HW254501   3.874   9.434   3.920
17523SOL     OW54502   4.926   9.642   4.188
17523SOL    HW154503   4.990   9.565   4.186
17523SOL    HW254504   4.949   9.701   4.265
17524SOL     OW54505   5.471   9.664   5.424
17524SOL    HW154506   5.517   9.668   5.336
17524SOL    HW254507   5.403   9.590   5.422
17525SOL     OW54508   4.915   0.266   3.752
17525SOL    HW154509   4.867   0.354   3.759
17525SOL    HW254510   4.999   0.270   3.806
17526SOL     OW54511   5.574   9.420   5.044
17526SOL    HW154512   5.650   9.356   5.052
17526SOL    HW254513   5.558   9.442   4.948
17527SOL     OW54514   4.189   9.709   4.277
17527SOL    HW154515   4.201   9.672   4.185
17527SOL    HW254516   4.099   9.681   4.312
17528SOL     OW54517   4.711   9.282   4.837
17528SOL    HW154518   4.626   9.234   4.816
17528SOL    HW254519   4.789   9.223   4.817
17529SOL     OW54520   5.108   9.320   3.908
17529SOL    HW154521   5.158   9.249   3.859
17529SOL    HW254522   5.014   9.289   3.925
17530SOL     OW54523   4.933   9.832   4.400
17530SOL    HW154524   5.012   9.889   4.423
17530SOL    HW254525   4.884   9.807   4.484
17531SOL     OW54526   3.891   9.645   6.634
17531SOL    HW154527   3.937   9.597   6.709
17531SOL    HW254528   3.818   9.587   6.597
17532SOL     OW54529   3.714   9.704   6.220
17532SOL    HW154530   3.634   9.705   6.280
17532SOL    HW254531   3.695   9.644   6.142
17533SOL     OW54532   5.418   9.932   5.722
17533SOL    HW154533   5.377   9.930   5.631
17533SOL    HW254534   5.381   9.858   5.777
17534SOL     OW54535   4.137   9.718   7.051
17534SOL    HW154536   4.220   9.696   7.102
17534SOL    HW254537   4.066   9.652   7.072
17535SOL     OW54538   5.295   9.711   6.315
17535SOL    HW154539   5.218   9.715   6.251
17535SOL    HW254540   5.279   9.775   6.390
17536SOL     OW54541   5.266   9.413   6.992
17536SOL    HW154542   5.339   9.463   6.945
17536SOL    HW254543   5.251   9.453   7.082
17537SOL     OW54544   3.740   9.973   6.157
17537SOL    HW154545   3.739   9.876   6.178
17537SOL    HW254546   3.832   0.010   6.170
17538SOL     OW54547   4.552   9.361   6.093
17538SOL    HW154548   4.591   9.445   6.058
17538SOL    HW254549   4.453   9.373   6.106
17539SOL     OW54550   4.081   9.596   7.407
17539SOL    HW154551   4.115   9.687   7.430
17539SOL    HW254552   3.992   9.604   7.362
17540SOL     OW54553   4.995   9.680   6.501
17540SOL    HW154554   4.904   9.638   6.496
17540SOL    HW254555   5.052   9.628   6.564
17541SOL     OW54556   4.591   9.841   6.988
17541SOL    HW154557   4.554   9.820   7.079
17541SOL    HW254558   4.523   9.820   6.919
17542SOL     OW54559   5.155   9.739   7.249
17542SOL    HW154560   5.220   9.789   7.307
17542SOL    HW254561   5.176   9.641   7.252
17543SOL     OW54562   4.772   9.816   6.784
17543SOL    HW154563   4.711   9.818   6.863
17543SOL    HW254564   4.725   9.774   6.707
17544SOL     OW54565   4.897   0.001   6.146
17544SOL    HW154566   4.935   0.092   6.132
17544SOL    HW254567   4.827   0.004   6.218
17545SOL     OW54568   4.586   9.672   5.748
17545SOL    HW154569   4.668   9.685   5.692
17545SOL    HW254570   4.530   9.599   5.709
17546SOL     OW54571   5.376   9.847   7.380
17546SOL    HW154572   5.436   9.926   7.366
17546SOL    HW254573   5.421   9.765   7.345
17547SOL     OW54574   4.275   9.422   6.576
17547SOL    HW154575   4.281   9.450   6.672
17547SOL    HW254576   4.285   9.503   6.518
17548SOL     OW54577   5.256   0.041   6.309
17548SOL    HW154578   5.225   9.979   6.382
17548SOL    HW254579   5.288   0.127   6.350
17549SOL     OW54580   3.929   9.539   7.098
17549SOL    HW154581   3.893   9.604   7.164
17549SOL    HW254582   3.894   9.448   7.118
17550SOL     OW54583   5.101   9.388   6.023
17550SOL    HW154584   5.104   9.364   5.926
17550SOL    HW254585   5.194   9.388   6.061
17551SOL     OW54586   5.213   9.471   7.264
17551SOL    HW154587   5.230   9.476   7.362
17551SOL    HW254588   5.141   9.403   7.247
17552SOL     OW54589   4.434   9.450   5.665
17552SOL    HW154590   4.464   9.383   5.733
17552SOL    HW254591   4.361   9.411   5.610
17553SOL     OW54592   4.516   9.529   7.297
17553SOL    HW154593   4.608   9.490   7.300
17553SOL    HW254594   4.466   9.503   7.379
17554SOL     OW54595   5.175   9.859   7.004
17554SOL    HW154596   5.165   9.814   7.093
17554SOL    HW254597   5.198   9.956   7.019
17555SOL     OW54598   4.657   9.785   6.451
17555SOL    HW154599   4.632   9.778   6.354
17555SOL    HW254600   4.691   9.697   6.483
17556SOL     OW54601   4.283   9.428   6.103
17556SOL    HW154602   4.209   9.413   6.168
17556SOL    HW254603   4.289   9.525   6.080
17557SOL     OW54604   4.010   9.353   5.731
17557SOL    HW154605   4.052   9.426   5.677
17557SOL    HW254606   4.078   9.316   5.795
17558SOL     OW54607   4.654   9.592   6.001
17558SOL    HW154608   4.635   9.620   5.908
17558SOL    HW254609   4.753   9.589   6.016
17559SOL     OW54610   4.747   0.018   7.135
17559SOL    HW154611   4.698   9.959   7.072
17559SOL    HW254612   4.781   0.098   7.086
17560SOL     OW54613   3.812   9.932   6.925
17560SOL    HW154614   3.910   9.921   6.912
17560SOL    HW254615   3.794   0.012   6.982
17561SOL     OW54616   4.282   9.534   6.824
17561SOL    HW154617   4.332   9.506   6.907
17561SOL    HW254618   4.184   9.533   6.843
17562SOL     OW54619   4.597   9.779   6.194
17562SOL    HW154620   4.572   9.864   6.146
17562SOL    HW254621   4.611   9.706   6.127
17563SOL     OW54622   4.726   9.349   6.306
17563SOL    HW154623   4.663   9.358   6.229
17563SOL    HW254624   4.692   9.279   6.369
17564SOL     OW54625   5.193   9.872   6.513
17564SOL    HW154626   5.110   9.816   6.518
17564SOL    HW254627   5.230   9.883   6.605
17565SOL     OW54628   4.261   9.685   5.957
17565SOL    HW154629   4.223   9.644   5.874
17565SOL    HW254630   4.320   9.762   5.933
17566SOL     OW54631   4.689   9.364   6.950
17566SOL    HW154632   4.709   9.341   6.855
17566SOL    HW254633   4.763   9.422   6.986
17567SOL     OW54634   5.004   9.694   6.869
17567SOL    HW154635   5.064   9.759   6.916
17567SOL    HW254636   4.924   9.742   6.834
17568SOL     OW54637   4.291   9.677   6.470
17568SOL    HW154638   4.262   9.682   6.375
17568SOL    HW254639   4.351   9.754   6.491
17569SOL     OW54640   5.318   9.958   6.057
17569SOL    HW154641   5.288   9.983   6.150
17569SOL    HW254642   5.414   9.981   6.046
17570SOL     OW54643   4.765   9.434   7.325
17570SOL    HW154644   4.816   9.520   7.322
17570SOL    HW254645   4.828   9.357   7.310
17571SOL     OW54646   4.225   9.369   7.348
17571SOL    HW154647   4.174   9.306   7.290
17571SOL    HW254648   4.172   9.453   7.361
17572SOL     OW54649   4.002   9.498   6.840
17572SOL    HW154650   3.973   9.522   6.932
17572SOL    HW254651   3.987   9.401   6.824
17573SOL     OW54652   4.428   9.900   6.549
17573SOL    HW154653   4.518   9.874   6.513
17573SOL    HW254654   4.406   9.993   6.519
17574SOL     OW54655   4.051   9.381   6.254
17574SOL    HW154656   4.012   9.469   6.278
17574SOL    HW254657   4.064   9.326   6.337
17575SOL     OW54658   5.309   9.735   5.885
17575SOL    HW154659   5.371   9.668   5.927
17575SOL    HW254660   5.293   9.810   5.949
17576SOL     OW54661   5.225   9.553   5.677
17576SOL    HW154662   5.177   9.476   5.720
17576SOL    HW254663   5.247   9.621   5.747
17577SOL     OW54664   4.115   0.011   6.434
17577SOL    HW154665   4.195   0.067   6.454
17577SOL    HW254666   4.105   9.940   6.504
17578SOL     OW54667   4.105   9.809   6.622
17578SOL    HW154668   4.022   9.753   6.625
17578SOL    HW254669   4.177   9.758   6.576
17579SOL     OW54670   4.890   9.673   7.289
17579SOL    HW154671   4.847   9.726   7.362
17579SOL    HW254672   4.983   9.707   7.274
17580SOL     OW54673   4.895   9.518   7.050
17580SOL    HW154674   4.881   9.575   7.131
17580SOL    HW254675   4.939   9.572   6.978
17581SOL     OW54676   3.731   9.882   6.669
17581SOL    HW154677   3.782   9.803   6.634
17581SOL    HW254678   3.766   9.907   6.759
17582SOL     OW54679   4.042   9.883   7.389
17582SOL    HW154680   4.117   9.919   7.334
17582SOL    HW254681   4.026   9.942   7.467
17583SOL     OW54682   4.441   9.880   5.862
17583SOL    HW154683   4.500   9.811   5.821
17583SOL    HW254684   4.489   9.925   5.937
17584SOL     OW54685   5.305   9.890   6.761
17584SOL    HW154686   5.263   9.862   6.847
17584SOL    HW254687   5.393   9.843   6.750
17585SOL     OW54688   4.422   9.775   6.794
17585SOL    HW154689   4.367   9.691   6.794
17585SOL    HW254690   4.412   9.821   6.706
17586SOL     OW54691   5.479   9.554   6.001
17586SOL    HW154692   5.541   9.520   5.930
17586SOL    HW254693   5.433   9.476   6.045
17587SOL     OW54694   5.569   9.469   6.571
17587SOL    HW154695   5.610   9.380   6.551
17587SOL    HW254696   5.480   9.476   6.526
17588SOL     OW54697   3.946   9.622   6.332
17588SOL    HW154698   3.862   9.653   6.289
17588SOL    HW254699   3.939   9.633   6.431
17589SOL     OW54700   4.761   9.535   6.510
17589SOL    HW154701   4.751   9.483   6.425
17589SOL    HW254702   4.760   9.472   6.588
17590SOL     OW54703   5.572   9.654   7.024
17590SOL    HW154704   5.597   9.745   6.991
17590SOL    HW254705   5.544   9.596   6.948
17591SOL     OW54706   4.442   9.455   7.039
17591SOL    HW154707   4.528   9.429   6.996
17591SOL    HW254708   4.459   9.487   7.132
17592SOL     OW54709   3.828   9.637   5.563
17592SOL    HW154710   3.749   9.623   5.504
17592SOL    HW254711   3.876   9.720   5.535
17593SOL     OW54712   3.768   9.454   5.792
17593SOL    HW154713   3.753   9.525   5.724
17593SOL    HW254714   3.859   9.414   5.778
17594SOL     OW54715   4.505   9.796   7.248
17594SOL    HW154716   4.583   9.838   7.295
17594SOL    HW254717   4.507   9.697   7.263
17595SOL     OW54718   4.917   9.586   6.053
17595SOL    HW154719   4.982   9.512   6.037
17595SOL    HW254720   4.957   9.652   6.116
17596SOL     OW54721   5.477   9.622   7.273
17596SOL    HW154722   5.509   9.630   7.179
17596SOL    HW254723   5.410   9.548   7.279
17597SOL     OW54724   4.799   0.160   5.705
17597SOL    HW154725   4.869   0.215   5.660
17597SOL    HW254726   4.842   0.101   5.774
17598SOL     OW54727   5.498   9.464   6.840
17598SOL    HW154728   5.508   9.365   6.845
17598SOL    HW254729   5.517   9.495   6.746
17599SOL     OW54730   4.192   9.696   6.223
17599SOL    HW154731   4.204   9.709   6.125
17599SOL    HW254732   4.095   9.681   6.244
17600SOL     OW54733   4.078   9.915   6.875
17600SOL    HW154734   4.109   9.848   6.942
17600SOL    HW254735   4.099   9.882   6.783
17601SOL     OW54736   5.139   9.541   6.688
17601SOL    HW154737   5.159   9.448   6.722
17601SOL    HW254738   5.095   9.593   6.761
17602SOL     OW54739   4.764   9.305   6.682
17602SOL    HW154740   4.701   9.249   6.627
17602SOL    HW254741   4.855   9.265   6.679
17603SOL     OW54742   5.108   9.315   5.760
17603SOL    HW154743   5.170   9.247   5.721
17603SOL    HW254744   5.016   9.275   5.769
17604SOL     OW54745   5.028   9.761   6.231
17604SOL    HW154746   4.992   9.851   6.207
17604SOL    HW254747   5.008   9.741   6.327
17605SOL     OW54748   5.314   9.493   6.482
17605SOL    HW154749   5.252   9.522   6.554
17605SOL    HW254750   5.312   9.559   6.406
17606SOL     OW54751   3.917   9.615   8.458
17606SOL    HW154752   3.961   9.584   8.542
17606SOL    HW254753   3.828   9.571   8.448
17607SOL     OW54754   3.723   9.760   8.061
17607SOL    HW154755   3.643   9.779   8.117
17607SOL    HW254756   3.703   9.682   8.001
17608SOL     OW54757   5.328   9.852   7.648
17608SOL    HW154758   5.346   9.845   7.550
17608SOL    HW254759   5.350   9.765   7.692
17609SOL     OW54760   4.142   9.629   9.052
17609SOL    HW154761   4.228   9.592   9.016
17609SOL    HW254762   4.065   9.581   9.011
17610SOL     OW54763   5.302   9.534   8.869
17610SOL    HW154764   5.389   9.583   8.862
17610SOL    HW254765   5.271   9.535   8.964
17611SOL     OW54766   3.803   0.002   7.925
17611SOL    HW154767   3.768   9.918   7.967
17611SOL    HW254768   3.898   0.015   7.952
17612SOL     OW54769   4.555   9.372   7.926
17612SOL    HW154770   4.600   9.460   7.913
17612SOL    HW254771   4.456   9.387   7.938
17613SOL     OW54772   4.059   9.544   9.294
17613SOL    HW154773   4.105   9.586   9.216
17613SOL    HW254774   3.970   9.589   9.308
17614SOL     OW54775   5.022   9.610   8.388
17614SOL    HW154776   4.942   9.551   8.376
17614SOL    HW254777   5.070   9.585   8.472
17615SOL     OW54778   5.154   9.771   9.098
17615SOL    HW154779   5.222   9.829   9.142
17615SOL    HW254780   5.180   9.675   9.108
17616SOL     OW54781   4.680   9.743   8.613
17616SOL    HW154782   4.588   9.723   8.648
17616SOL    HW254783   4.684   9.723   8.515
17617SOL     OW54784   4.807   0.004   7.906
17617SOL    HW154785   4.862   0.074   7.953
17617SOL    HW254786   4.710   0.022   7.923
17618SOL     OW54787   4.583   9.689   7.644
17618SOL    HW154788   4.652   9.731   7.585
17618SOL    HW254789   4.541   9.612   7.597
17619SOL     OW54790   5.375   9.895   9.212
17619SOL    HW154791   5.425   9.977   9.183
17619SOL    HW254792   5.429   9.814   9.190
17620SOL     OW54793   4.267   9.479   8.406
17620SOL    HW154794   4.276   9.482   8.506
17620SOL    HW254795   4.273   9.571   8.369
17621SOL     OW54796   5.276   0.038   8.188
17621SOL    HW154797   5.220   9.979   8.245
17621SOL    HW254798   5.291   0.125   8.234
17622SOL     OW54799   3.917   9.507   8.963
17622SOL    HW154800   3.849   9.579   8.948
17622SOL    HW254801   3.875   9.430   9.009
17623SOL     OW54802   5.129   9.398   7.881
17623SOL    HW154803   5.129   9.359   7.789
17623SOL    HW254804   5.218   9.382   7.924
17624SOL     OW54805   5.232   9.508   9.134
17624SOL    HW154806   5.238   9.518   9.234
17624SOL    HW254807   5.193   9.419   9.112
17625SOL     OW54808   4.403   9.449   7.541
17625SOL    HW154809   4.453   9.372   7.581
17625SOL    HW254810   4.330   9.415   7.482
17626SOL     OW54811   4.477   9.605   9.217
17626SOL    HW154812   4.575   9.584   9.218
17626SOL    HW254813   4.427   9.532   9.264
17627SOL     OW54814   5.043   9.914   8.888
17627SOL    HW154815   5.082   9.859   8.962
17627SOL    HW254816   5.106   9.988   8.866
17628SOL     OW54817   4.681   9.687   8.349
17628SOL    HW154818   4.651   9.718   8.259
17628SOL    HW254819   4.722   9.596   8.342
17629SOL     OW54820   4.283   9.416   7.932
17629SOL    HW154821   4.207   9.416   7.998
17629SOL    HW254822   4.274   9.494   7.871
17630SOL     OW54823   3.990   9.418   7.597
17630SOL    HW154824   4.034   9.489   7.541
17630SOL    HW254825   4.060   9.367   7.647
17631SOL     OW54826   4.687   9.610   7.887
17631SOL    HW154827   4.654   9.643   7.799
17631SOL    HW254828   4.787   9.609   7.887
17632SOL     OW54829   4.801   0.023   8.970
17632SOL    HW154830   4.793   0.110   8.922
17632SOL    HW254831   4.883   9.975   8.938
17633SOL     OW54832   4.776   9.819   7.497
17633SOL    HW154833   4.758   9.912   7.465
17633SOL    HW254834   4.836   9.822   7.577
17634SOL     OW54835   3.954   9.892   8.893
17634SOL    HW154836   4.049   9.915   8.870
17634SOL    HW254837   3.945   9.884   8.992
17635SOL     OW54838   4.276   9.491   8.678
17635SOL    HW154839   4.299   9.414   8.737
17635SOL    HW254840   4.177   9.509   8.683
17636SOL     OW54841   4.613   9.772   8.098
17636SOL    HW154842   4.534   9.824   8.064
17636SOL    HW254843   4.646   9.710   8.027
17637SOL     OW54844   4.736   9.278   8.116
17637SOL    HW154845   4.681   9.325   8.047
17637SOL    HW254846   4.691   9.192   8.141
17638SOL     OW54847   5.152   9.866   8.362
17638SOL    HW154848   5.094   9.785   8.371
17638SOL    HW254849   5.208   9.877   8.445
17639SOL     OW54850   4.273   9.603   7.738
17639SOL    HW154851   4.314   9.548   7.665
17639SOL    HW254852   4.288   9.700   7.720
17640SOL     OW54853   4.595   9.452   8.830
17640SOL    HW154854   4.609   9.426   8.735
17640SOL    HW254855   4.682   9.481   8.870
17641SOL     OW54856   4.920   9.707   8.742
17641SOL    HW154857   4.953   9.791   8.786
17641SOL    HW254858   4.835   9.726   8.694
17642SOL     OW54859   4.275   9.763   8.340
17642SOL    HW154860   4.253   9.758   8.242
17642SOL    HW254861   4.344   9.834   8.354
17643SOL     OW54862   4.730   9.497   9.246
17643SOL    HW154863   4.799   9.565   9.221
17643SOL    HW254864   4.757   9.408   9.209
17644SOL     OW54865   4.176   9.315   9.206
17644SOL    HW154866   4.128   9.259   9.138
17644SOL    HW254867   4.117   9.391   9.234
17645SOL     OW54868   4.917   9.835   7.731
17645SOL    HW154869   4.941   9.751   7.779
17645SOL    HW254870   4.871   9.898   7.794
17646SOL     OW54871   4.008   9.505   8.701
17646SOL    HW154872   3.984   9.522   8.796
17646SOL    HW254873   3.978   9.413   8.675
17647SOL     OW54874   4.435   9.995   8.367
17647SOL    HW154875   4.514   0.007   8.307
17647SOL    HW254876   4.376   0.075   8.360
17648SOL     OW54877   4.051   9.406   8.088
17648SOL    HW154878   4.010   9.495   8.110
17648SOL    HW254879   4.062   9.353   8.172
17649SOL     OW54880   5.329   9.607   7.778
17649SOL    HW154881   5.372   9.546   7.845
17649SOL    HW254882   5.237   9.632   7.809
17650SOL     OW54883   5.258   9.497   7.529
17650SOL    HW154884   5.200   9.423   7.563
17650SOL    HW254885   5.294   9.549   7.606
17651SOL     OW54886   4.065   0.080   8.286
17651SOL    HW154887   4.144   0.132   8.320
17651SOL    HW254888   4.044   0.007   8.351
17652SOL     OW54889   4.038   9.856   8.453
17652SOL    HW154890   3.982   9.773   8.454
17652SOL    HW254891   4.131   9.833   8.423
17653SOL     OW54892   4.897   9.690   9.154
17653SOL    HW154893   4.851   9.749   9.220
17653SOL    HW254894   4.988   9.725   9.133
17654SOL     OW54895   4.840   9.530   8.935
17654SOL    HW154896   4.853   9.585   9.018
17654SOL    HW254897   4.872   9.581   8.855
17655SOL     OW54898   3.822   9.904   8.653
17655SOL    HW154899   3.888   9.902   8.578
17655SOL    HW254900   3.870   9.917   8.739
17656SOL     OW54901   4.010   9.840   9.165
17656SOL    HW154902   4.066   9.770   9.120
17656SOL    HW254903   4.069   9.900   9.220
17657SOL     OW54904   4.363   9.858   7.694
17657SOL    HW154905   4.454   9.816   7.695
17657SOL    HW254906   4.356   9.923   7.769
17658SOL     OW54907   5.303   9.856   8.597
17658SOL    HW154908   5.242   9.791   8.642
17658SOL    HW254909   5.392   9.814   8.580
17659SOL     OW54910   5.433   9.416   7.958
17659SOL    HW154911   5.510   9.414   7.894
17659SOL    HW254912   5.412   9.323   7.987
17660SOL     OW54913   5.563   9.444   8.413
17660SOL    HW154914   5.589   9.348   8.400
17660SOL    HW254915   5.518   9.478   8.331
17661SOL     OW54916   3.948   9.646   8.177
17661SOL    HW154917   3.868   9.692   8.139
17661SOL    HW254918   3.939   9.640   8.276
17662SOL     OW54919   4.791   9.435   8.342
17662SOL    HW154920   4.786   9.388   8.254
17662SOL    HW254921   4.745   9.380   8.412
17663SOL     OW54922   5.554   9.656   8.878
17663SOL    HW154923   5.577   9.748   8.844
17663SOL    HW254924   5.567   9.589   8.805
17664SOL     OW54925   4.380   9.513   8.981
17664SOL    HW154926   4.456   9.496   8.918
17664SOL    HW254927   4.416   9.554   9.065
17665SOL     OW54928   3.851   9.703   7.293
17665SOL    HW154929   3.753   9.723   7.297
17665SOL    HW254930   3.902   9.782   7.327
17666SOL     OW54931   3.734   9.478   7.674
17666SOL    HW154932   3.690   9.551   7.622
17666SOL    HW254933   3.829   9.468   7.643
17667SOL     OW54934   4.425   9.888   9.209
17667SOL    HW154935   4.514   9.933   9.205
17667SOL    HW254936   4.438   9.789   9.211
17668SOL     OW54937   4.965   9.618   7.894
17668SOL    HW154938   5.014   9.532   7.882
17668SOL    HW254939   4.990   9.660   7.981
17669SOL     OW54940   5.502   9.663   9.146
17669SOL    HW154941   5.525   9.659   9.048
17669SOL    HW254942   5.446   9.584   9.170
17670SOL     OW54943   4.909   0.255   7.467
17670SOL    HW154944   4.867   0.346   7.469
17670SOL    HW254945   4.998   0.258   7.513
17671SOL     OW54946   5.575   9.457   8.696
17671SOL    HW154947   5.636   9.379   8.709
17671SOL    HW254948   5.548   9.462   8.600
17672SOL     OW54949   4.188   9.739   8.083
17672SOL    HW154950   4.193   9.727   7.984
17672SOL    HW254951   4.099   9.708   8.115
17673SOL     OW54952   5.136   9.570   8.651
17673SOL    HW154953   5.198   9.556   8.728
17673SOL    HW254954   5.053   9.616   8.683
17674SOL     OW54955   4.674   9.227   8.505
17674SOL    HW154956   4.623   9.153   8.548
17674SOL    HW254957   4.772   9.203   8.502
17675SOL     OW54958   5.114   9.293   7.630
17675SOL    HW154959   5.158   9.218   7.581
17675SOL    HW254960   5.017   9.274   7.641
17676SOL     OW54961   5.051   9.713   8.130
17676SOL    HW154962   5.089   9.803   8.155
17676SOL    HW254963   5.038   9.658   8.213
17677SOL     OW54964   5.288   9.881   9.471
17677SOL    HW154965   5.320   9.895   9.377
17677SOL    HW254966   5.304   9.787   9.499
17678SOL     OW54967   3.738   9.831   9.910
17678SOL    HW154968   3.678   9.858   9.835
17678SOL    HW254969   3.808   9.901   9.924
17679SOL     OW54970   4.570   9.367   9.800
17679SOL    HW154971   4.628   9.444   9.772
17679SOL    HW254972   4.474   9.392   9.787
17680SOL     OW54973   4.854   9.999   9.798
17680SOL    HW154974   4.879   9.962   9.888
17680SOL    HW254975   4.802   0.084   9.811
17681SOL     OW54976   4.633   9.648   9.479
17681SOL    HW154977   4.681   9.720   9.431
17681SOL    HW254978   4.643   9.562   9.430
17682SOL     OW54979   5.150   9.413   9.715
17682SOL    HW154980   5.142   9.359   9.631
17682SOL    HW254981   5.246   9.415   9.745
17683SOL     OW54982   4.287   9.429   9.796
17683SOL    HW154983   4.191   9.441   9.821
17683SOL    HW254984   4.304   9.473   9.709
17684SOL     OW54985   4.019   9.362   9.490
17684SOL    HW154986   4.061   9.432   9.431
17684SOL    HW254987   4.091   9.312   9.538
17685SOL     OW54988   4.717   9.593   9.733
17685SOL    HW154989   4.685   9.614   9.640
17685SOL    HW254990   4.817   9.600   9.736
17686SOL     OW54991   4.775   9.836   9.346
17686SOL    HW154992   4.735   9.919   9.309
17686SOL    HW254993   4.826   9.857   9.429
17687SOL     OW54994   4.646   9.763   9.937
17687SOL    HW154995   4.606   9.847   9.900
17687SOL    HW254996   4.667   9.700   9.862
17688SOL     OW54997   4.368   9.516   9.553
17688SOL    HW154998   4.366   9.454   9.475
17688SOL    HW254999   4.430   9.592   9.535
17689SOL     OW55000   5.329   9.891   9.755
17689SOL    HW155001   5.254   9.858   9.812
17689SOL    HW255002   5.295   9.912   9.663
17690SOL     OW55003   4.907   9.859   9.581
17690SOL    HW155004   4.940   9.770   9.612
17690SOL    HW255005   4.878   9.914   9.660
17691SOL     OW55006   4.029   9.429   9.910
17691SOL    HW155007   3.949   9.489   9.918
17691SOL    HW255008   4.049   9.389  10.000
17692SOL     OW55009   5.359   9.652   9.615
17692SOL    HW155010   5.371   9.571   9.672
17692SOL    HW255011   5.366   9.734   9.671
17693SOL     OW55012   5.245   9.519   9.400
17693SOL    HW155013   5.192   9.439   9.429
17693SOL    HW255014   5.281   9.566   9.480
17694SOL     OW55015   4.121   9.757   0.341
17694SOL    HW155016   4.038   9.706   0.322
17694SOL    HW255017   4.201   9.703   0.311
17695SOL     OW55018   4.524   9.908   9.562
17695SOL    HW155019   4.555   9.815   9.541
17695SOL    HW255020   4.539   9.926   9.659
17696SOL     OW55021   5.412   9.448   9.785
17696SOL    HW155022   5.492   9.427   9.729
17696SOL    HW255023   5.442   9.477   9.876
17697SOL     OW55024   3.826   9.686   9.311
17697SOL    HW155025   3.743   9.685   9.256
17697SOL    HW255026   3.886   9.759   9.280
17698SOL     OW55027   3.782   9.489   9.521
17698SOL    HW155028   3.782   9.563   9.455
17698SOL    HW255029   3.870   9.441   9.518
17699SOL     OW55030   4.991   9.634   9.721
17699SOL    HW155031   5.040   9.548   9.707
17699SOL    HW255032   5.039   9.689   9.790
17700SOL     OW55033   4.854   0.187   9.352
17700SOL    HW155034   4.830   0.283   9.364
17700SOL    HW255035   4.933   0.165   9.410
17701SOL     OW55036   4.078   9.895   9.755
17701SOL    HW155037   4.064   9.796   9.753
17701SOL    HW255038   4.020   9.935   9.826
17702SOL     OW55039   5.113   9.288   9.477
17702SOL    HW155040   5.166   9.212   9.442
17702SOL    HW255041   5.020   9.258   9.498
17703SOL     OW55042   5.141   9.769   9.911
17703SOL    HW155043   5.056   9.807   9.946
17703SOL    HW255044   5.180   9.705   9.978
17704SOL     OW55045   5.726   0.510   0.036
17704SOL    HW155046   5.653   0.495   0.103
17704SOL    HW255047   5.697   0.579   9.970
17705SOL     OW55048   5.689   0.391   1.076
17705SOL    HW155049   5.741   0.329   1.135
17705SOL    HW255050   5.622   0.338   1.023
17706SOL     OW55051   5.557   0.437   0.663
17706SOL    HW155052   5.468   0.458   0.703
17706SOL    HW255053   5.548   0.359   0.601
17707SOL     OW55054   6.166   1.287   1.251
17707SOL    HW155055   6.084   1.282   1.194
17707SOL    HW255056   6.184   1.382   1.276
17708SOL     OW55057   7.191   1.464   0.695
17708SOL    HW155058   7.130   1.439   0.770
17708SOL    HW255059   7.138   1.481   0.613
17709SOL     OW55060   6.682   0.727   0.654
17709SOL    HW155061   6.740   0.808   0.646
17709SOL    HW255062   6.622   0.736   0.734
17710SOL     OW55063   7.284   0.532   0.231
17710SOL    HW155064   7.204   0.555   0.176
17710SOL    HW255065   7.270   0.443   0.274
17711SOL     OW55066   6.300   1.123   1.070
17711SOL    HW155067   6.252   1.157   1.151
17711SOL    HW255068   6.342   1.200   1.021
17712SOL     OW55069   6.533   0.726   1.825
17712SOL    HW155070   6.573   0.790   1.891
17712SOL    HW255071   6.526   0.771   1.736
17713SOL     OW55072   6.272   0.949   0.636
17713SOL    HW155073   6.340   0.955   0.709
17713SOL    HW255074   6.196   1.011   0.656
17714SOL     OW55075   6.316   1.153   1.872
17714SOL    HW155076   6.372   1.227   1.911
17714SOL    HW255077   6.239   1.193   1.822
17715SOL     OW55078   5.951   1.327   1.083
17715SOL    HW155079   5.902   1.258   1.031
17715SOL    HW255080   5.990   1.395   1.021
17716SOL     OW55081   7.022   1.523   1.385
17716SOL    HW155082   7.081   1.603   1.393
17716SOL    HW255083   6.946   1.532   1.449
17717SOL     OW55084   6.066   0.333   1.341
17717SOL    HW155085   6.148   0.311   1.395
17717SOL    HW255086   5.985   0.311   1.395
17718SOL     OW55087   7.165   0.487   0.722
17718SOL    HW155088   7.130   0.518   0.634
17718SOL    HW255089   7.120   0.539   0.795
17719SOL     OW55090   5.847   1.715   0.470
17719SOL    HW155091   5.850   1.792   0.534
17719SOL    HW255092   5.939   1.698   0.435
17720SOL     OW55093   6.692   1.382   1.737
17720SOL    HW155094   6.733   1.375   1.828
17720SOL    HW255095   6.651   1.294   1.712
17721SOL     OW55096   5.814   1.449   0.521
17721SOL    HW155097   5.817   1.549   0.519
17721SOL    HW255098   5.785   1.418   0.612
17722SOL     OW55099   5.823   1.113   0.952
17722SOL    HW155100   5.866   1.023   0.955
17722SOL    HW255101   5.728   1.105   0.984
17723SOL     OW55102   6.150   1.763   1.474
17723SOL    HW155103   6.073   1.749   1.536
17723SOL    HW255104   6.183   1.858   1.481
17724SOL     OW55105   6.133   0.933   0.199
17724SOL    HW155106   6.103   0.995   0.127
17724SOL    HW255107   6.207   0.975   0.251
17725SOL     OW55108   7.042   0.136   1.431
17725SOL    HW155109   7.120   0.165   1.375
17725SOL    HW255110   7.037   0.193   1.513
17726SOL     OW55111   5.688   0.674   0.614
17726SOL    HW155112   5.644   0.588   0.640
17726SOL    HW255113   5.674   0.742   0.686
17727SOL     OW55114   7.498   1.715   0.307
17727SOL    HW155115   7.568   1.694   0.375
17727SOL    HW255116   7.506   1.810   0.279
17728SOL     OW55117   5.470   1.575   0.086
17728SOL    HW155118   5.438   1.485   0.116
17728SOL    HW255119   5.546   1.604   0.145
17729SOL     OW55120   7.296   0.919   0.683
17729SOL    HW155121   7.384   0.873   0.690
17729SOL    HW255122   7.290   0.967   0.595
17730SOL     OW55123   7.288   1.064   0.448
17730SOL    HW155124   7.362   1.042   0.385
17730SOL    HW255125   7.313   1.144   0.502
17731SOL     OW55126   5.702   0.803   1.565
17731SOL    HW155127   5.736   0.855   1.487
17731SOL    HW255128   5.682   0.866   1.640
17732SOL     OW55129   6.204   1.344   0.751
17732SOL    HW155130   6.160   1.255   0.741
17732SOL    HW255131   6.212   1.388   0.662
17733SOL     OW55132   6.828   1.182   1.442
17733SOL    HW155133   6.851   1.123   1.365
17733SOL    HW255134   6.899   1.175   1.512
17734SOL     OW55135   6.353   0.150   0.501
17734SOL    HW155136   6.377   0.246   0.488
17734SOL    HW255137   6.254   0.142   0.514
17735SOL     OW55138   5.805   0.954   1.358
17735SOL    HW155139   5.891   0.908   1.336
17735SOL    HW255140   5.773   1.005   1.278
17736SOL     OW55141   7.052   1.032   0.314
17736SOL    HW155142   7.014   0.940   0.328
17736SOL    HW255143   7.142   1.038   0.358
17737SOL     OW55144   6.926   1.849   1.601
17737SOL    HW155145   6.863   1.908   1.551
17737SOL    HW255146   6.898   1.753   1.590
17738SOL     OW55147   5.942   0.325   1.756
17738SOL    HW155148   5.999   0.391   1.805
17738SOL    HW255149   5.847   0.334   1.786
17739SOL     OW55150   7.024   1.402   0.908
17739SOL    HW155151   6.980   1.435   0.992
17739SOL    HW255152   7.006   1.305   0.896
17740SOL     OW55153   7.245   1.847   0.508
17740SOL    HW155154   7.242   1.776   0.437
17740SOL    HW255155   7.264   1.805   0.597
17741SOL     OW55156   6.138   0.660   0.248
17741SOL    HW155157   6.137   0.757   0.226
17741SOL    HW255158   6.090   0.644   0.334
17742SOL     OW55159   6.848   0.400   0.908
17742SOL    HW155160   6.760   0.354   0.916
17742SOL    HW255161   6.918   0.348   0.958
17743SOL     OW55162   7.233   1.647   0.322
17743SOL    HW155163   7.332   1.658   0.315
17743SOL    HW255164   7.198   1.614   0.234
17744SOL     OW55165   7.011   0.532   1.679
17744SOL    HW155166   6.995   0.556   1.775
17744SOL    HW255167   7.020   0.433   1.671
17745SOL     OW55168   6.541   0.874   1.592
17745SOL    HW155169   6.582   0.798   1.541
17745SOL    HW255170   6.478   0.923   1.532
17746SOL     OW55171   6.649   0.707   0.382
17746SOL    HW155172   6.656   0.709   0.482
17746SOL    HW255173   6.560   0.670   0.356
17747SOL     OW55174   5.669   0.875   0.813
17747SOL    HW155175   5.764   0.861   0.840
17747SOL    HW255176   5.625   0.936   0.879
17748SOL     OW55177   5.695   1.847   1.599
17748SOL    HW155178   5.684   1.851   1.698
17748SOL    HW255179   5.634   1.777   1.561
17749SOL     OW55180   6.972   1.175   0.586
17749SOL    HW155181   7.053   1.155   0.530
17749SOL    HW255182   6.911   1.236   0.537
17750SOL     OW55183   5.969   0.298   0.906
17750SOL    HW155184   6.017   0.249   0.979
17750SOL    HW255185   6.020   0.381   0.883
17751SOL     OW55186   6.587   1.474   0.495
17751SOL    HW155187   6.569   1.546   0.428
17751SOL    HW255188   6.551   1.500   0.584
17752SOL     OW55189   5.992   1.768   0.863
17752SOL    HW155190   6.020   1.673   0.880
17752SOL    HW255191   6.059   1.830   0.904
17753SOL     OW55192   7.376   1.037   0.922
17753SOL    HW155193   7.336   1.018   0.833
17753SOL    HW255194   7.304   1.059   0.988
17754SOL     OW55195   6.806   1.575   1.550
17754SOL    HW155196   6.780   1.502   1.614
17754SOL    HW255197   6.725   1.603   1.499
17755SOL     OW55198   5.904   0.916   0.358
17755SOL    HW155199   5.980   0.928   0.294
17755SOL    HW255200   5.914   0.830   0.406
17756SOL     OW55201   7.060   0.786   0.693
17756SOL    HW155202   7.046   0.739   0.780
17756SOL    HW255203   7.146   0.837   0.696
17757SOL     OW55204   6.077   1.269   1.763
17757SOL    HW155205   6.049   1.290   1.669
17757SOL    HW255206   5.999   1.233   1.814
17758SOL     OW55207   6.754   1.756   0.241
17758SOL    HW155208   6.666   1.729   0.279
17758SOL    HW255209   6.792   1.680   0.188
17759SOL     OW55210   5.848   0.265   1.490
17759SOL    HW155211   5.750   0.285   1.482
17759SOL    HW255212   5.878   0.285   1.583
17760SOL     OW55213   7.225   1.288   0.053
17760SOL    HW155214   7.203   1.384   0.068
17760SOL    HW255215   7.141   1.234   0.058
17761SOL     OW55216   6.112   1.699   0.388
17761SOL    HW155217   6.130   1.786   0.433
17761SOL    HW255218   6.181   1.684   0.317
17762SOL     OW55219   6.913   0.118   0.461
17762SOL    HW155220   6.983   0.183   0.431
17762SOL    HW255221   6.936   0.084   0.552
17763SOL     OW55222   5.817   1.758   1.208
17763SOL    HW155223   5.872   1.678   1.231
17763SOL    HW255224   5.782   1.749   1.115
17764SOL     OW55225   6.541   1.661   0.889
17764SOL    HW155226   6.627   1.611   0.886
17764SOL    HW255227   6.482   1.630   0.814
17765SOL     OW55228   5.932   0.680   0.492
17765SOL    HW155229   5.949   0.583   0.470
17765SOL    HW255230   5.845   0.688   0.540
17766SOL     OW55231   6.144   0.020   0.137
17766SOL    HW155232   6.234   0.018   0.182
17766SOL    HW255233   6.157   0.025   0.038
17767SOL     OW55234   6.378   0.319   1.734
17767SOL    HW155235   6.476   0.302   1.721
17767SOL    HW255236   6.340   0.249   1.794
17768SOL     OW55237   6.450   1.489   1.218
17768SOL    HW155238   6.423   1.461   1.126
17768SOL    HW255239   6.504   1.416   1.260
17769SOL     OW55240   6.878   0.627   1.464
17769SOL    HW155241   6.929   0.603   1.546
17769SOL    HW255242   6.914   0.712   1.426
17770SOL     OW55243   6.392   1.354   0.958
17770SOL    HW155244   6.485   1.357   0.922
17770SOL    HW255245   6.327   1.362   0.883
17771SOL     OW55246   6.505   0.528   0.910
17771SOL    HW155247   6.465   0.530   0.818
17771SOL    HW255248   6.543   0.437   0.928
17772SOL     OW55249   6.084   0.115   0.503
17772SOL    HW155250   6.006   0.080   0.555
17772SOL    HW255251   6.053   0.148   0.414
17773SOL     OW55252   6.977   1.166   0.087
17773SOL    HW155253   7.005   1.112   0.167
17773SOL    HW255254   6.896   1.219   0.110
17774SOL     OW55255   5.805   0.038   0.200
17774SOL    HW155256   5.861   0.114   0.234
17774SOL    HW255257   5.847   9.951   0.226
17775SOL     OW55258   6.458   0.398   0.441
17775SOL    HW155259   6.440   0.465   0.370
17775SOL    HW255260   6.553   0.367   0.435
17776SOL     OW55261   6.806   1.545   0.785
17776SOL    HW155262   6.827   1.609   0.711
17776SOL    HW255263   6.892   1.509   0.823
17777SOL     OW55264   6.062   1.111   0.713
17777SOL    HW155265   6.008   1.090   0.794
17777SOL    HW255266   6.002   1.125   0.635
17778SOL     OW55267   6.866   1.727   0.577
17778SOL    HW155268   6.910   1.799   0.524
17778SOL    HW255269   6.775   1.758   0.605
17779SOL     OW55270   6.624   0.644   0.026
17779SOL    HW155271   6.654   0.740   0.026
17779SOL    HW255272   6.685   0.590   0.084
17780SOL     OW55273   5.680   0.578   1.403
17780SOL    HW155274   5.772   0.573   1.364
17780SOL    HW255275   5.676   0.652   1.470
17781SOL     OW55276   6.113   0.176   1.117
17781SOL    HW155277   6.210   0.153   1.113
17781SOL    HW255278   6.096   0.237   1.195
17782SOL     OW55279   6.388   0.537   0.671
17782SOL    HW155280   6.304   0.589   0.653
17782SOL    HW255281   6.412   0.484   0.590
17783SOL     OW55282   6.483   0.087   0.741
17783SOL    HW155283   6.436   0.115   0.656
17783SOL    HW255284   6.523   9.997   0.728
17784SOL     OW55285   6.986   1.130   0.870
17784SOL    HW155286   6.931   1.050   0.892
17784SOL    HW255287   6.986   1.144   0.771
17785SOL     OW55288   7.003   0.635   0.913
17785SOL    HW155289   6.936   0.561   0.911
17785SOL    HW255290   7.057   0.629   0.996
17786SOL     OW55291   7.393   0.747   0.372
17786SOL    HW155292   7.440   0.714   0.453
17786SOL    HW255293   7.346   0.671   0.327
17787SOL     OW55294   6.135   1.428   0.197
17787SOL    HW155295   6.054   1.383   0.236
17787SOL    HW255296   6.171   1.373   0.122
17788SOL     OW55297   7.362   1.261   0.609
17788SOL    HW155298   7.457   1.264   0.640
17788SOL    HW255299   7.312   1.340   0.645
17789SOL     OW55300   7.024   0.520   0.107
17789SOL    HW155301   6.930   0.518   0.143
17789SOL    HW255302   7.053   0.427   0.085
17790SOL     OW55303   6.009   0.224   0.254
17790SOL    HW155304   6.060   0.151   0.208
17790SOL    HW255305   6.004   0.304   0.195
17791SOL     OW55306   7.305   1.258   1.531
17791SOL    HW155307   7.389   1.205   1.521
17791SOL    HW255308   7.328   1.353   1.554
17792SOL     OW55309   6.594   1.292   1.343
17792SOL    HW155310   6.512   1.275   1.397
17792SOL    HW255311   6.675   1.259   1.393
17793SOL     OW55312   7.194   1.654   1.683
17793SOL    HW155313   7.159   1.709   1.608
17793SOL    HW255314   7.274   1.602   1.651
17794SOL     OW55315   6.741   1.277   1.116
17794SOL    HW155316   6.675   1.284   1.190
17794SOL    HW255317   6.696   1.298   1.029
17795SOL     OW55318   7.166   1.094   1.089
17795SOL    HW155319   7.159   1.163   1.160
17795SOL    HW255320   7.097   1.111   1.019
17796SOL     OW55321   6.499   0.166   1.372
17796SOL    HW155322   6.520   0.138   1.278
17796SOL    HW255323   6.554   0.112   1.435
17797SOL     OW55324   6.573   1.103   1.751
17797SOL    HW155325   6.481   1.118   1.786
17797SOL    HW255326   6.573   1.026   1.687
17798SOL     OW55327   6.338   1.031   0.365
17798SOL    HW155328   6.327   0.993   0.457
17798SOL    HW255329   6.421   0.995   0.324
17799SOL     OW55330   6.028   0.815   1.286
17799SOL    HW155331   6.097   0.813   1.358
17799SOL    HW255332   5.985   0.725   1.280
17800SOL     OW55333   6.939   0.453   1.265
17800SOL    HW155334   6.920   0.522   1.335
17800SOL    HW255335   6.878   0.374   1.278
17801SOL     OW55336   5.682   1.594   1.389
17801SOL    HW155337   5.692   1.677   1.334
17801SOL    HW255338   5.764   1.536   1.378
17802SOL     OW55339   5.883   1.141   0.511
17802SOL    HW155340   5.869   1.217   0.448
17802SOL    HW255341   5.888   1.055   0.459
17803SOL     OW55342   6.090   0.538   0.870
17803SOL    HW155343   6.114   0.588   0.787
17803SOL    HW255344   6.159   0.556   0.940
17804SOL     OW55345   6.825   1.354   0.434
17804SOL    HW155346   6.901   1.419   0.443
17804SOL    HW255347   6.740   1.397   0.465
17805SOL     OW55348   6.915   1.483   1.140
17805SOL    HW155349   6.953   1.497   1.231
17805SOL    HW255350   6.849   1.408   1.142
17806SOL     OW55351   7.070   0.601   0.491
17806SOL    HW155352   7.068   0.672   0.561
17806SOL    HW255353   7.031   0.637   0.406
17807SOL     OW55354   5.928   1.497   1.299
17807SOL    HW155355   5.922   1.434   1.221
17807SOL    HW255356   6.023   1.525   1.310
17808SOL     OW55357   6.086   0.698   1.691
17808SOL    HW155358   6.126   0.731   1.605
17808SOL    HW255359   6.156   0.649   1.743
17809SOL     OW55360   6.556   9.969   1.778
17809SOL    HW155361   6.570   0.039   1.847
17809SOL    HW255362   6.590   0.002   1.689
17810SOL     OW55363   6.095   0.112   1.681
17810SOL    HW155364   6.151   0.142   1.603
17810SOL    HW255365   6.035   0.187   1.709
17811SOL     OW55366   6.171   0.876   1.058
17811SOL    HW155367   6.219   0.964   1.062
17811SOL    HW255368   6.123   0.861   1.144
17812SOL     OW55369   6.859   0.883   0.964
17812SOL    HW155370   6.763   0.857   0.953
17812SOL    HW255371   6.917   0.803   0.948
17813SOL     OW55372   6.772   0.519   0.224
17813SOL    HW155373   6.763   0.430   0.268
17813SOL    HW255374   6.739   0.590   0.287
17814SOL     OW55375   5.808   0.192   1.223
17814SOL    HW155376   5.832   0.206   1.319
17814SOL    HW255377   5.847   0.106   1.191
17815SOL     OW55378   6.285   0.620   1.051
17815SOL    HW155379   6.364   0.597   0.995
17815SOL    HW255380   6.259   0.715   1.036
17816SOL     OW55381   7.236   0.843   1.932
17816SOL    HW155382   7.195   0.861   1.842
17816SOL    HW255383   7.200   0.909   1.998
17817SOL     OW55384   5.836   0.070   0.636
17817SOL    HW155385   5.830   0.169   0.621
17817SOL    HW255386   5.820   0.050   0.733
17818SOL     OW55387   7.112   0.324   0.412
17818SOL    HW155388   7.196   0.291   0.455
17818SOL    HW255389   7.093   0.417   0.442
17819SOL     OW55390   6.597   0.780   0.959
17819SOL    HW155391   6.580   0.803   1.055
17819SOL    HW255392   6.575   0.683   0.944
17820SOL     OW55393   6.533   1.612   1.707
17820SOL    HW155394   6.534   1.629   1.609
17820SOL    HW255395   6.575   1.524   1.726
17821SOL     OW55396   7.405   1.504   1.589
17821SOL    HW155397   7.437   1.530   1.498
17821SOL    HW255398   7.481   1.507   1.653
17822SOL     OW55399   5.972   0.902   1.837
17822SOL    HW155400   6.041   0.938   1.900
17822SOL    HW255401   6.013   0.831   1.780
17823SOL     OW55402   7.108   0.257   0.145
17823SOL    HW155403   7.052   0.179   0.120
17823SOL    HW255404   7.096   0.278   0.242
17824SOL     OW55405   6.990   0.786   0.054
17824SOL    HW155406   7.008   0.688   0.054
17824SOL    HW255407   7.069   0.833   0.013
17825SOL     OW55408   6.644   1.345   0.866
17825SOL    HW155409   6.650   1.261   0.813
17825SOL    HW255410   6.705   1.414   0.826
17826SOL     OW55411   5.918   0.855   0.945
17826SOL    HW155412   6.015   0.865   0.968
17826SOL    HW255413   5.886   0.765   0.972
17827SOL     OW55414   5.860   0.594   1.008
17827SOL    HW155415   5.792   0.521   1.018
17827SOL    HW255416   5.935   0.564   0.950
17828SOL     OW55417   5.552   1.231   0.251
17828SOL    HW155418   5.465   1.280   0.244
17828SOL    HW255419   5.538   1.143   0.297
17829SOL     OW55420   5.737   1.732   0.953
17829SOL    HW155421   5.679   1.681   0.890
17829SOL    HW255422   5.826   1.748   0.911
17830SOL     OW55423   6.084   1.512   0.928
17830SOL    HW155424   6.156   1.569   0.968
17830SOL    HW255425   6.123   1.452   0.859
17831SOL     OW55426   6.539   0.830   1.219
17831SOL    HW155427   6.618   0.835   1.280
17831SOL    HW255428   6.474   0.763   1.253
17832SOL     OW55429   5.519   0.588   1.187
17832SOL    HW155430   5.563   0.521   1.128
17832SOL    HW255431   5.568   0.593   1.274
17833SOL     OW55432   5.821   0.635   1.746
17833SOL    HW155433   5.919   0.644   1.729
17833SOL    HW255434   5.770   0.689   1.679
17834SOL     OW55435   6.419   0.601   0.258
17834SOL    HW155436   6.461   0.617   0.168
17834SOL    HW255437   6.321   0.618   0.252
17835SOL     OW55438   7.144   0.605   1.139
17835SOL    HW155439   7.077   0.558   1.197
17835SOL    HW255440   7.232   0.557   1.144
17836SOL     OW55441   5.794   1.500   1.778
17836SOL    HW155442   5.748   1.529   1.862
17836SOL    HW255443   5.817   1.403   1.784
17837SOL     OW55444   6.558   1.649   1.435
17837SOL    HW155445   6.522   1.592   1.361
17837SOL    HW255446   6.545   1.746   1.413
17838SOL     OW55447   5.995   0.453   0.104
17838SOL    HW155448   6.044   0.529   0.148
17838SOL    HW255449   5.901   0.481   0.086
17839SOL     OW55450   5.764   1.139   1.557
17839SOL    HW155451   5.741   1.094   1.643
17839SOL    HW255452   5.782   1.070   1.486
17840SOL     OW55453   6.851   1.041   1.190
17840SOL    HW155454   6.858   0.982   1.109
17840SOL    HW255455   6.815   1.130   1.164
17841SOL     OW55456   6.933   0.781   0.321
17841SOL    HW155457   6.835   0.773   0.338
17841SOL    HW255458   6.949   0.784   0.222
17842SOL     OW55459   7.336   1.697   1.170
17842SOL    HW155460   7.404   1.728   1.103
17842SOL    HW255461   7.296   1.610   1.139
17843SOL     OW55462   6.872   1.752   1.102
17843SOL    HW155463   6.961   1.797   1.091
17843SOL    HW255464   6.885   1.654   1.112
17844SOL     OW55465   6.259   1.665   1.778
17844SOL    HW155466   6.203   1.746   1.763
17844SOL    HW255467   6.350   1.680   1.740
17845SOL     OW55468   7.361   0.207   0.489
17845SOL    HW155469   7.367   0.195   0.390
17845SOL    HW255470   7.401   0.128   0.535
17846SOL     OW55471   7.032   1.534   0.482
17846SOL    HW155472   7.100   1.571   0.419
17846SOL    HW255473   6.970   1.606   0.512
17847SOL     OW55474   5.679   1.818   1.866
17847SOL    HW155475   5.652   1.727   1.898
17847SOL    HW255476   5.753   1.853   1.923
17848SOL     OW55477   6.845   0.941   0.638
17848SOL    HW155478   6.922   0.879   0.654
17848SOL    HW255479   6.879   1.029   0.604
17849SOL     OW55480   6.350   1.257   1.457
17849SOL    HW155481   6.334   1.315   1.536
17849SOL    HW255482   6.273   1.267   1.392
17850SOL     OW55483   6.287   1.649   0.183
17850SOL    HW155484   6.305   1.680   0.090
17850SOL    HW255485   6.235   1.563   0.180
17851SOL     OW55486   7.184   1.747   1.399
17851SOL    HW155487   7.245   1.732   1.322
17851SOL    HW255488   7.174   1.845   1.415
17852SOL     OW55489   7.397   0.159   0.988
17852SOL    HW155490   7.426   0.063   0.985
17852SOL    HW255491   7.333   0.177   0.913
17853SOL     OW55492   5.826   0.342   0.668
17853SOL    HW155493   5.734   0.380   0.681
17853SOL    HW255494   5.871   0.333   0.756
17854SOL     OW55495   6.862   1.553   0.088
17854SOL    HW155496   6.823   1.463   0.108
17854SOL    HW255497   6.872   1.564   9.989
17855SOL     OW55498   6.384   0.994   1.409
17855SOL    HW155499   6.428   0.985   1.320
17855SOL    HW255500   6.370   1.091   1.429
17856SOL     OW55501   6.564   0.933   0.248
17856SOL    HW155502   6.616   0.944   0.163
17856SOL    HW255503   6.604   0.858   0.301
17857SOL     OW55504   7.137   1.555   0.081
17857SOL    HW155505   7.038   1.554   0.099
17857SOL    HW255506   7.153   1.591   9.989
17858SOL     OW55507   5.962   1.324   1.527
17858SOL    HW155508   5.947   1.387   1.451
17858SOL    HW255509   5.883   1.263   1.535
17859SOL     OW55510   7.164   1.299   1.291
17859SOL    HW155511   7.222   1.269   1.366
17859SOL    HW255512   7.102   1.370   1.323
17860SOL     OW55513   6.646   1.109   0.742
17860SOL    HW155514   6.566   1.059   0.773
17860SOL    HW255515   6.712   1.044   0.702
17861SOL     OW55516   6.605   0.264   0.931
17861SOL    HW155517   6.568   0.216   0.852
17861SOL    HW255518   6.602   0.203   1.011
17862SOL     OW55519   6.226   1.466   0.508
17862SOL    HW155520   6.275   1.410   0.441
17862SOL    HW255521   6.166   1.530   0.461
17863SOL     OW55522   7.392   0.276   1.419
17863SOL    HW155523   7.439   0.364   1.406
17863SOL    HW255524   7.341   0.253   1.336
17864SOL     OW55525   5.805   1.321   0.290
17864SOL    HW155526   5.710   1.290   0.279
17864SOL    HW255527   5.811   1.382   0.368
17865SOL     OW55528   5.713   0.982   1.789
17865SOL    HW155529   5.643   0.952   1.854
17865SOL    HW255530   5.802   0.945   1.816
17866SOL     OW55531   6.270   0.243   1.496
17866SOL    HW155532   6.348   0.209   1.443
17866SOL    HW255533   6.304   0.285   1.581
17867SOL     OW55534   5.783   0.315   9.844
17867SOL    HW155535   5.739   0.369   9.915
17867SOL    HW255536   5.868   0.359   9.815
17868SOL     OW55537   6.969   0.843   1.334
17868SOL    HW155538   6.918   0.917   1.290
17868SOL    HW255539   7.065   0.848   1.305
17869SOL     OW55540   6.756   1.314   0.163
17869SOL    HW155541   6.658   1.311   0.144
17869SOL    HW255542   6.771   1.315   0.262
17870SOL     OW55543   6.226   0.781   1.464
17870SOL    HW155544   6.276   0.867   1.462
17870SOL    HW255545   6.276   0.711   1.414
17871SOL     OW55546   7.117   1.871   1.075
17871SOL    HW155547   7.157   1.935   1.010
17871SOL    HW255548   7.190   1.819   1.120
17872SOL     OW55549   6.298   0.573   1.805
17872SOL    HW155550   6.377   0.631   1.821
17872SOL    HW255551   6.328   0.482   1.774
17873SOL     OW55552   7.061   1.160   1.637
17873SOL    HW155553   7.042   1.200   1.727
17873SOL    HW255554   7.141   1.204   1.598
17874SOL     OW55555   5.933   1.719   1.650
17874SOL    HW155556   5.851   1.768   1.619
17874SOL    HW255557   5.907   1.632   1.692
17875SOL     OW55558   7.224   0.858   1.225
17875SOL    HW155559   7.203   0.774   1.174
17875SOL    HW255560   7.209   0.937   1.166
17876SOL     OW55561   6.724   0.324   0.426
17876SOL    HW155562   6.777   0.239   0.428
17876SOL    HW255563   6.748   0.380   0.506
17877SOL     OW55564   6.161   0.694   0.649
17877SOL    HW155565   6.204   0.785   0.643
17877SOL    HW255566   6.078   0.693   0.594
17878SOL     OW55567   7.410   0.169   1.663
17878SOL    HW155568   7.394   0.210   1.573
17878SOL    HW255569   7.373   0.229   1.734
17879SOL     OW55570   6.472   1.349   0.100
17879SOL    HW155571   6.393   1.322   0.046
17879SOL    HW255572   6.449   1.346   0.198
17880SOL     OW55573   6.279   1.687   0.994
17880SOL    HW155574   6.254   1.783   0.990
17880SOL    HW255575   6.376   1.676   0.975
17881SOL     OW55576   6.435   0.975   0.858
17881SOL    HW155577   6.492   0.903   0.897
17881SOL    HW255578   6.388   1.023   0.932
17882SOL     OW55579   6.741   0.895   0.019
17882SOL    HW155580   6.743   0.968   9.950
17882SOL    HW255581   6.833   0.859   0.032
17883SOL     OW55582   7.380   1.567   0.866
17883SOL    HW155583   7.325   1.540   0.787
17883SOL    HW255584   7.350   1.515   0.946
17884SOL     OW55585   5.840   1.224   1.877
17884SOL    HW155586   5.782   1.146   1.853
17884SOL    HW255587   5.826   1.246   1.974
17885SOL     OW55588   5.748   1.257   0.723
17885SOL    HW155589   5.775   1.215   0.809
17885SOL    HW255590   5.793   1.211   0.646
17886SOL     OW55591   6.288   1.411   1.671
17886SOL    HW155592   6.209   1.359   1.705
17886SOL    HW255593   6.280   1.506   1.701
17887SOL     OW55594   7.240   0.148   1.211
17887SOL    HW155595   7.221   0.050   1.213
17887SOL    HW255596   7.304   0.168   1.137
17888SOL     OW55597   5.968   0.422   0.448
17888SOL    HW155598   5.986   0.348   0.383
17888SOL    HW255599   5.921   0.386   0.528
17889SOL     OW55600   7.244   1.457   1.078
17889SOL    HW155601   7.169   1.441   1.014
17889SOL    HW255602   7.235   1.395   1.156
17890SOL     OW55603   5.923   0.565   1.274
17890SOL    HW155604   5.982   0.486   1.291
17890SOL    HW255605   5.900   0.569   1.177
17891SOL     OW55606   6.394   1.617   0.661
17891SOL    HW155607   6.389   1.708   0.620
17891SOL    HW255608   6.330   1.556   0.616
17892SOL     OW55609   7.049   0.293   1.074
17892SOL    HW155610   7.111   0.232   1.124
17892SOL    HW255611   7.013   0.362   1.137
17893SOL     OW55612   6.568   0.064   1.125
17893SOL    HW155613   6.488   0.033   1.075
17893SOL    HW255614   6.623   9.985   1.151
17894SOL     OW55615   6.399   1.306   0.361
17894SOL    HW155616   6.381   1.208   0.367
17894SOL    HW255617   6.476   1.329   0.420
17895SOL     OW55618   6.196   1.550   1.315
17895SOL    HW155619   6.186   1.629   1.375
17895SOL    HW255620   6.289   1.549   1.276
17896SOL     OW55621   6.940   0.040   0.102
17896SOL    HW155622   6.968   9.967   0.039
17896SOL    HW255623   6.895  10.000   0.181
17897SOL     OW55624   6.781   0.469   0.646
17897SOL    HW155625   6.748   0.563   0.648
17897SOL    HW255626   6.811   0.443   0.737
17898SOL     OW55627   7.173   0.241   0.836
17898SOL    HW155628   7.126   0.257   0.922
17898SOL    HW255629   7.177   0.327   0.784
17899SOL     OW55630   5.631   0.947   0.324
17899SOL    HW155631   5.731   0.947   0.330
17899SOL    HW255632   5.596   0.855   0.345
17900SOL     OW55633   6.505   1.687   0.342
17900SOL    HW155634   6.433   1.665   0.277
17900SOL    HW255635   6.474   1.759   0.405
17901SOL     OW55636   5.808   0.678   2.020
17901SOL    HW155637   5.733   0.620   2.052
17901SOL    HW255638   5.809   0.679   1.920
17902SOL     OW55639   5.803   0.294   2.957
17902SOL    HW155640   5.850   0.258   3.037
17902SOL    HW255641   5.731   0.231   2.929
17903SOL     OW55642   5.679   0.425   2.407
17903SOL    HW155643   5.590   0.467   2.427
17903SOL    HW255644   5.665   0.340   2.355
17904SOL     OW55645   6.117   1.310   3.065
17904SOL    HW155646   6.048   1.321   2.993
17904SOL    HW255647   6.176   1.390   3.067
17905SOL     OW55648   7.160   1.567   2.562
17905SOL    HW155649   7.110   1.528   2.639
17905SOL    HW255650   7.099   1.570   2.482
17906SOL     OW55651   6.725   0.703   2.532
17906SOL    HW155652   6.762   0.796   2.531
17906SOL    HW255653   6.662   0.693   2.610
17907SOL     OW55654   6.256   1.136   2.895
17907SOL    HW155655   6.216   1.186   2.972
17907SOL    HW255656   6.262   1.197   2.816
17908SOL     OW55657   6.476   0.717   3.726
17908SOL    HW155658   6.467   0.772   3.809
17908SOL    HW255659   6.490   0.777   3.647
17909SOL     OW55660   6.274   0.927   2.541
17909SOL    HW155661   6.343   0.949   2.611
17909SOL    HW255662   6.200   0.995   2.545
17910SOL     OW55663   6.199   1.119   3.677
17910SOL    HW155664   6.217   1.202   3.730
17910SOL    HW255665   6.139   1.141   3.600
17911SOL     OW55666   5.927   1.334   2.871
17911SOL    HW155667   5.828   1.341   2.858
17911SOL    HW255668   5.972   1.410   2.823
17912SOL     OW55669   7.021   1.507   3.254
17912SOL    HW155670   7.080   1.586   3.268
17912SOL    HW255671   6.949   1.506   3.323
17913SOL     OW55672   6.114   0.422   3.319
17913SOL    HW155673   6.183   0.360   3.356
17913SOL    HW255674   6.024   0.398   3.356
17914SOL     OW55675   7.164   0.451   2.608
17914SOL    HW155676   7.097   0.446   2.535
17914SOL    HW255677   7.140   0.526   2.670
17915SOL     OW55678   5.847   1.737   2.339
17915SOL    HW155679   5.868   1.809   2.405
17915SOL    HW255680   5.916   1.736   2.267
17916SOL     OW55681   6.687   1.336   3.619
17916SOL    HW155682   6.739   1.302   3.697
17916SOL    HW255683   6.609   1.276   3.601
17917SOL     OW55684   5.824   1.462   2.363
17917SOL    HW155685   5.832   1.561   2.376
17917SOL    HW255686   5.802   1.419   2.450
17918SOL     OW55687   5.895   1.090   2.738
17918SOL    HW155688   5.887   1.000   2.781
17918SOL    HW255689   5.908   1.160   2.808
17919SOL     OW55690   6.067   1.827   3.282
17919SOL    HW155691   6.017   1.813   3.367
17919SOL    HW255692   6.146   1.886   3.299
17920SOL     OW55693   6.160   0.987   2.040
17920SOL    HW155694   6.216   1.037   1.973
17920SOL    HW255695   6.200   0.997   2.131
17921SOL     OW55696   7.100   0.107   3.337
17921SOL    HW155697   7.168   0.160   3.286
17921SOL    HW255698   7.098   0.139   3.432
17922SOL     OW55699   5.734   0.700   2.384
17922SOL    HW155700   5.720   0.602   2.399
17922SOL    HW255701   5.725   0.749   2.472
17923SOL     OW55702   7.442   1.771   2.172
17923SOL    HW155703   7.519   1.756   2.233
17923SOL    HW255704   7.445   1.865   2.137
17924SOL     OW55705   5.638   1.570   1.992
17924SOL    HW155706   5.600   1.479   2.005
17924SOL    HW255707   5.626   1.624   2.075
17925SOL     OW55708   7.273   0.978   2.541
17925SOL    HW155709   7.350   1.019   2.589
17925SOL    HW255710   7.256   1.028   2.456
17926SOL     OW55711   7.242   1.139   2.305
17926SOL    HW155712   7.320   1.091   2.266
17926SOL    HW255713   7.260   1.237   2.308
17927SOL     OW55714   5.682   0.742   3.396
17927SOL    HW155715   5.740   0.808   3.348
17927SOL    HW255716   5.588   0.775   3.397
17928SOL     OW55717   6.168   1.376   2.540
17928SOL    HW155718   6.143   1.281   2.554
17928SOL    HW255719   6.160   1.400   2.444
17929SOL     OW55720   6.848   1.193   3.311
17929SOL    HW155721   6.873   1.143   3.228
17929SOL    HW255722   6.927   1.197   3.372
17930SOL     OW55723   6.398   0.082   2.392
17930SOL    HW155724   6.429   0.177   2.382
17930SOL    HW255725   6.306   0.073   2.354
17931SOL     OW55726   5.792   0.940   3.236
17931SOL    HW155727   5.885   0.910   3.217
17931SOL    HW255728   5.743   0.954   3.150
17932SOL     OW55729   7.092   1.034   2.081
17932SOL    HW155730   7.020   0.966   2.095
17932SOL    HW255731   7.128   1.061   2.170
17933SOL     OW55732   6.648   1.770   3.449
17933SOL    HW155733   6.691   1.849   3.406
17933SOL    HW255734   6.707   1.690   3.440
17934SOL     OW55735   5.927   0.312   3.681
17934SOL    HW155736   5.977   0.369   3.746
17934SOL    HW255737   5.828   0.323   3.695
17935SOL     OW55738   7.020   1.441   2.763
17935SOL    HW155739   6.978   1.465   2.851
17935SOL    HW255740   7.016   1.341   2.751
17936SOL     OW55741   7.211   1.867   2.393
17936SOL    HW155742   7.204   1.802   2.317
17936SOL    HW255743   7.215   1.816   2.479
17937SOL     OW55744   6.179   0.712   2.115
17937SOL    HW155745   6.176   0.806   2.080
17937SOL    HW255746   6.116   0.704   2.193
17938SOL     OW55747   6.868   0.386   2.776
17938SOL    HW155748   6.778   0.343   2.781
17938SOL    HW255749   6.933   0.336   2.833
17939SOL     OW55750   7.181   1.693   2.181
17939SOL    HW155751   7.279   1.711   2.175
17939SOL    HW255752   7.144   1.685   2.089
17940SOL     OW55753   6.394   0.579   3.357
17940SOL    HW155754   6.353   0.536   3.438
17940SOL    HW255755   6.370   0.525   3.276
17941SOL     OW55756   6.525   0.882   3.504
17941SOL    HW155757   6.588   0.821   3.456
17941SOL    HW255758   6.465   0.927   3.437
17942SOL     OW55759   6.599   0.454   2.960
17942SOL    HW155760   6.520   0.455   3.021
17942SOL    HW255761   6.607   0.364   2.917
17943SOL     OW55762   6.649   0.681   2.271
17943SOL    HW155763   6.666   0.683   2.370
17943SOL    HW255764   6.557   0.647   2.254
17944SOL     OW55765   5.704   0.853   2.628
17944SOL    HW155766   5.785   0.823   2.680
17944SOL    HW255767   5.660   0.928   2.676
17945SOL     OW55768   5.665   1.880   3.469
17945SOL    HW155769   5.662   1.835   3.559
17945SOL    HW255770   5.572   1.905   3.442
17946SOL     OW55771   6.435   0.338   2.058
17946SOL    HW155772   6.486   0.391   1.991
17946SOL    HW255773   6.359   0.291   2.013
17947SOL     OW55774   7.207   0.610   3.729
17947SOL    HW155775   7.213   0.698   3.680
17947SOL    HW255776   7.227   0.536   3.665
17948SOL     OW55777   6.987   1.172   2.434
17948SOL    HW155778   7.075   1.158   2.388
17948SOL    HW255779   6.931   1.236   2.381
17949SOL     OW55780   6.207   0.206   2.825
17949SOL    HW155781   6.213   0.217   2.924
17949SOL    HW255782   6.214   0.295   2.780
17950SOL     OW55783   6.591   1.423   2.362
17950SOL    HW155784   6.541   1.497   2.317
17950SOL    HW255785   6.572   1.426   2.460
17951SOL     OW55786   5.958   1.771   2.738
17951SOL    HW155787   5.988   1.675   2.735
17951SOL    HW255788   6.028   1.827   2.782
17952SOL     OW55789   6.767   1.511   3.412
17952SOL    HW155790   6.750   1.450   3.490
17952SOL    HW255791   6.722   1.474   3.331
17953SOL     OW55792   5.885   0.944   2.130
17953SOL    HW155793   5.976   0.963   2.093
17953SOL    HW255794   5.858   0.851   2.103
17954SOL     OW55795   7.081   0.785   2.551
17954SOL    HW155796   7.073   0.737   2.638
17954SOL    HW255797   7.156   0.851   2.556
17955SOL     OW55798   6.033   1.305   3.502
17955SOL    HW155799   5.992   1.327   3.413
17955SOL    HW255800   5.961   1.305   3.572
17956SOL     OW55801   5.877   0.327   3.406
17956SOL    HW155802   5.800   0.386   3.384
17956SOL    HW255803   5.889   0.323   3.506
17957SOL     OW55804   7.270   1.379   1.910
17957SOL    HW155805   7.282   1.415   1.818
17957SOL    HW255806   7.182   1.333   1.917
17958SOL     OW55807   6.058   1.777   2.161
17958SOL    HW155808   6.104   1.833   2.230
17958SOL    HW255809   6.125   1.715   2.120
17959SOL     OW55810   7.021   0.135   2.306
17959SOL    HW155811   7.005   0.098   2.214
17959SOL    HW255812   7.077   0.218   2.300
17960SOL     OW55813   5.733   1.809   3.062
17960SOL    HW155814   5.796   1.741   3.098
17960SOL    HW255815   5.732   1.803   2.962
17961SOL     OW55816   6.534   1.672   2.730
17961SOL    HW155817   6.625   1.632   2.728
17961SOL    HW255818   6.476   1.627   2.662
17962SOL     OW55819   6.010   0.665   2.326
17962SOL    HW155820   6.017   0.565   2.320
17962SOL    HW255821   5.914   0.691   2.339
17963SOL     OW55822   7.069   0.206   3.595
17963SOL    HW155823   7.059   0.218   3.694
17963SOL    HW255824   6.996   0.257   3.549
17964SOL     OW55825   6.259   0.142   1.904
17964SOL    HW155826   6.294   0.063   1.954
17964SOL    HW255827   6.202   0.110   1.828
17965SOL     OW55828   6.356   0.236   3.701
17965SOL    HW155829   6.441   0.186   3.686
17965SOL    HW255830   6.290   0.178   3.747
17966SOL     OW55831   6.556   0.626   2.751
17966SOL    HW155832   6.516   0.580   2.672
17966SOL    HW255833   6.578   0.559   2.821
17967SOL     OW55834   6.159   0.054   2.264
17967SOL    HW155835   6.074   0.023   2.307
17967SOL    HW255836   6.140   0.130   2.202
17968SOL     OW55837   7.026   1.242   1.909
17968SOL    HW155838   7.051   1.162   1.964
17968SOL    HW255839   6.935   1.273   1.934
17969SOL     OW55840   5.851   0.112   2.110
17969SOL    HW155841   5.934   0.166   2.093
17969SOL    HW255842   5.859   0.066   2.198
17970SOL     OW55843   6.513   0.321   2.332
17970SOL    HW155844   6.485   0.336   2.237
17970SOL    HW255845   6.613   0.322   2.337
17971SOL     OW55846   6.631   0.705   3.318
17971SOL    HW155847   6.554   0.644   3.337
17971SOL    HW255848   6.715   0.651   3.308
17972SOL     OW55849   6.786   1.571   2.648
17972SOL    HW155850   6.804   1.641   2.580
17972SOL    HW255851   6.873   1.537   2.684
17973SOL     OW55852   6.078   1.117   2.542
17973SOL    HW155853   6.012   1.101   2.615
17973SOL    HW255854   6.029   1.123   2.455
17974SOL     OW55855   6.825   1.784   2.462
17974SOL    HW155856   6.872   1.852   2.406
17974SOL    HW255857   6.744   1.826   2.504
17975SOL     OW55858   6.615   0.477   1.902
17975SOL    HW155859   6.589   0.569   1.872
17975SOL    HW255860   6.673   0.483   1.983
17976SOL     OW55861   5.708   0.507   3.267
17976SOL    HW155862   5.796   0.520   3.220
17976SOL    HW255863   5.687   0.589   3.320
17977SOL     OW55864   6.213   0.242   3.093
17977SOL    HW155865   6.282   0.208   3.157
17977SOL    HW255866   6.122   0.228   3.132
17978SOL     OW55867   6.446   0.516   2.531
17978SOL    HW155868   6.360   0.564   2.514
17978SOL    HW255869   6.461   0.448   2.460
17979SOL     OW55870   6.546   0.064   2.637
17979SOL    HW155871   6.487   0.087   2.559
17979SOL    HW255872   6.528   9.969   2.665
17980SOL     OW55873   7.020   1.163   2.725
17980SOL    HW155874   6.976   1.082   2.761
17980SOL    HW255875   7.013   1.164   2.625
17981SOL     OW55876   7.038   0.639   2.787
17981SOL    HW155877   6.966   0.570   2.793
17981SOL    HW255878   7.099   0.630   2.865
17982SOL     OW55879   7.394   0.758   2.230
17982SOL    HW155880   7.459   0.724   2.297
17982SOL    HW255881   7.411   0.714   2.141
17983SOL     OW55882   6.064   1.411   2.019
17983SOL    HW155883   5.972   1.392   2.053
17983SOL    HW255884   6.073   1.377   1.925
17984SOL     OW55885   6.966   0.530   1.956
17984SOL    HW155886   6.886   0.525   2.015
17984SOL    HW255887   7.022   0.448   1.968
17985SOL     OW55888   6.088   0.258   2.080
17985SOL    HW155889   6.146   0.212   2.013
17985SOL    HW255890   6.061   0.348   2.046
17986SOL     OW55891   7.329   1.226   3.386
17986SOL    HW155892   7.418   1.180   3.388
17986SOL    HW255893   7.340   1.321   3.416
17987SOL     OW55894   6.634   1.339   3.237
17987SOL    HW155895   6.545   1.309   3.271
17987SOL    HW255896   6.705   1.280   3.273
17988SOL     OW55897   7.197   1.615   3.533
17988SOL    HW155898   7.181   1.664   3.447
17988SOL    HW255899   7.279   1.557   3.524
17989SOL     OW55900   6.744   1.291   2.992
17989SOL    HW155901   6.684   1.315   3.069
17989SOL    HW255902   6.696   1.309   2.906
17990SOL     OW55903   7.225   1.096   2.958
17990SOL    HW155904   7.207   1.169   3.024
17990SOL    HW255905   7.174   1.115   2.874
17991SOL     OW55906   6.458   0.184   3.235
17991SOL    HW155907   6.478   0.116   3.164
17991SOL    HW255908   6.544   0.223   3.268
17992SOL     OW55909   6.487   1.117   3.639
17992SOL    HW155910   6.387   1.121   3.649
17992SOL    HW255911   6.511   1.034   3.588
17993SOL     OW55912   6.304   1.001   2.274
17993SOL    HW155913   6.289   0.967   2.367
17993SOL    HW255914   6.391   0.965   2.240
17994SOL     OW55915   6.031   0.824   3.173
17994SOL    HW155916   6.098   0.821   3.247
17994SOL    HW255917   5.993   0.732   3.160
17995SOL     OW55918   6.843   0.415   3.091
17995SOL    HW155919   6.861   0.487   3.158
17995SOL    HW255920   6.763   0.440   3.036
17996SOL     OW55921   5.908   1.138   2.325
17996SOL    HW155922   5.898   1.216   2.263
17996SOL    HW255923   5.900   1.053   2.273
17997SOL     OW55924   6.180   0.482   2.745
17997SOL    HW155925   6.181   0.523   2.654
17997SOL    HW255926   6.231   0.541   2.808
17998SOL     OW55927   6.846   1.362   2.280
17998SOL    HW155928   6.901   1.442   2.302
17998SOL    HW255929   6.752   1.376   2.311
17999SOL     OW55930   6.915   1.500   3.004
17999SOL    HW155931   6.957   1.506   3.095
17999SOL    HW255932   6.850   1.423   3.002
18000SOL     OW55933   7.170   0.626   2.335
18000SOL    HW155934   7.126   0.679   2.407
18000SOL    HW255935   7.245   0.680   2.295
18001SOL     OW55936   5.915   1.637   3.159
18001SOL    HW155937   5.925   1.548   3.204
18001SOL    HW255938   5.979   1.702   3.199
18002SOL     OW55939   6.068   0.677   3.574
18002SOL    HW155940   6.106   0.729   3.497
18002SOL    HW255941   6.135   0.609   3.604
18003SOL     OW55942   7.200   0.838   3.578
18003SOL    HW155943   7.104   0.860   3.567
18003SOL    HW255944   7.250   0.861   3.494
18004SOL     OW55945   6.584   0.094   3.661
18004SOL    HW155946   6.659   0.157   3.683
18004SOL    HW255947   6.599   0.056   3.569
18005SOL     OW55948   6.049   0.087   3.592
18005SOL    HW155949   6.109   0.112   3.516
18005SOL    HW255950   5.999   0.168   3.623
18006SOL     OW55951   6.153   0.882   2.931
18006SOL    HW155952   6.189   0.974   2.919
18006SOL    HW255953   6.111   0.873   3.021
18007SOL     OW55954   6.914   0.918   2.838
18007SOL    HW155955   6.815   0.901   2.841
18007SOL    HW255956   6.961   0.832   2.818
18008SOL     OW55957   6.764   0.484   2.130
18008SOL    HW155958   6.784   0.409   2.192
18008SOL    HW255959   6.725   0.561   2.182
18009SOL     OW55960   5.938   0.187   3.175
18009SOL    HW155961   5.916   0.232   3.262
18009SOL    HW255962   5.938   0.088   3.189
18010SOL     OW55963   6.316   0.665   2.904
18010SOL    HW155964   6.391   0.679   2.839
18010SOL    HW255965   6.257   0.746   2.904
18011SOL     OW55966   7.361   0.992   3.739
18011SOL    HW155967   7.310   0.929   3.681
18011SOL    HW255968   7.306   1.015   3.819
18012SOL     OW55969   5.903   0.012   2.373
18012SOL    HW155970   5.891   0.103   2.413
18012SOL    HW255971   5.933   9.948   2.444
18013SOL     OW55972   7.165   0.363   2.264
18013SOL    HW155973   7.251   0.323   2.295
18013SOL    HW255974   7.162   0.459   2.290
18014SOL     OW55975   6.647   0.852   2.871
18014SOL    HW155976   6.610   0.854   2.964
18014SOL    HW255977   6.621   0.766   2.827
18015SOL     OW55978   7.422   1.478   3.443
18015SOL    HW155979   7.440   1.511   3.350
18015SOL    HW255980   7.501   1.496   3.501
18016SOL     OW55981   5.935   0.882   3.718
18016SOL    HW155982   5.996   0.913   3.791
18016SOL    HW255983   5.979   0.809   3.666
18017SOL     OW55984   7.096   0.292   2.011
18017SOL    HW155985   7.045   0.206   2.017
18017SOL    HW255986   7.123   0.320   2.103
18018SOL     OW55987   6.650   1.349   2.745
18018SOL    HW155988   6.653   1.268   2.687
18018SOL    HW255989   6.696   1.425   2.699
18019SOL     OW55990   5.916   0.802   2.809
18019SOL    HW155991   6.008   0.831   2.838
18019SOL    HW255992   5.904   0.705   2.830
18020SOL     OW55993   5.943   0.524   2.880
18020SOL    HW155994   5.884   0.444   2.892
18020SOL    HW255995   6.021   0.501   2.822
18021SOL     OW55996   6.722   0.260   3.281
18021SOL    HW155997   6.770   0.282   3.366
18021SOL    HW255998   6.765   0.308   3.205
18022SOL     OW55999   5.571   1.304   2.039
18022SOL    HW156000   5.498   1.301   1.971
18022SOL    HW256001   5.580   1.214   2.083
18023SOL     OW56002   5.689   1.789   2.791
18023SOL    HW156003   5.639   1.704   2.776
18023SOL    HW256004   5.783   1.778   2.759
18024SOL     OW56005   6.081   1.525   2.750
18024SOL    HW156006   6.161   1.565   2.795
18024SOL    HW256007   6.111   1.476   2.668
18025SOL     OW56008   6.506   0.825   3.106
18025SOL    HW156009   6.559   0.789   3.183
18025SOL    HW256010   6.435   0.759   3.081
18026SOL     OW56011   5.582   0.496   3.019
18026SOL    HW156012   5.640   0.437   2.963
18026SOL    HW256013   5.623   0.506   3.110
18027SOL     OW56014   5.800   0.604   3.599
18027SOL    HW156015   5.898   0.621   3.592
18027SOL    HW256016   5.752   0.661   3.532
18028SOL     OW56017   6.956   0.928   3.488
18028SOL    HW156018   6.990   1.022   3.485
18028SOL    HW256019   6.939   0.896   3.395
18029SOL     OW56020   6.411   0.588   2.188
18029SOL    HW156021   6.402   0.497   2.146
18029SOL    HW256022   6.330   0.643   2.166
18030SOL     OW56023   7.209   0.599   2.998
18030SOL    HW156024   7.169   0.546   3.073
18030SOL    HW256025   7.301   0.565   2.978
18031SOL     OW56026   5.765   1.535   3.558
18031SOL    HW156027   5.736   1.605   3.623
18031SOL    HW256028   5.787   1.451   3.608
18032SOL     OW56029   6.359   0.478   3.098
18032SOL    HW156030   6.299   0.398   3.095
18032SOL    HW256031   6.329   0.543   3.028
18033SOL     OW56032   6.031   0.505   1.983
18033SOL    HW156033   6.112   0.562   1.998
18033SOL    HW256034   5.949   0.557   2.005
18034SOL     OW56035   5.629   1.074   3.420
18034SOL    HW156036   5.664   1.070   3.514
18034SOL    HW256037   5.698   1.038   3.357
18035SOL     OW56038   6.876   1.065   3.066
18035SOL    HW156039   6.902   1.013   2.985
18035SOL    HW256040   6.827   1.148   3.038
18036SOL     OW56041   6.906   0.831   2.094
18036SOL    HW156042   6.842   0.801   2.165
18036SOL    HW256043   6.947   0.751   2.050
18037SOL     OW56044   7.342   1.721   3.021
18037SOL    HW156045   7.408   1.748   2.950
18037SOL    HW256046   7.300   1.634   2.996
18038SOL     OW56047   6.868   1.771   2.964
18038SOL    HW156048   6.957   1.817   2.960
18038SOL    HW256049   6.882   1.673   2.978
18039SOL     OW56050   5.651   1.315   2.842
18039SOL    HW156051   5.631   1.310   2.939
18039SOL    HW256052   5.620   1.231   2.797
18040SOL     OW56053   6.262   1.690   3.600
18040SOL    HW156054   6.202   1.770   3.608
18040SOL    HW256055   6.318   1.698   3.518
18041SOL     OW56056   7.390   0.222   2.333
18041SOL    HW156057   7.408   0.213   2.235
18041SOL    HW256058   7.416   0.137   2.379
18042SOL     OW56059   6.988   1.588   2.348
18042SOL    HW156060   7.051   1.627   2.281
18042SOL    HW256061   6.924   1.659   2.378
18043SOL     OW56062   5.681   1.753   3.707
18043SOL    HW156063   5.625   1.688   3.758
18043SOL    HW256064   5.737   1.806   3.770
18044SOL     OW56065   6.860   0.943   2.514
18044SOL    HW156066   6.936   0.880   2.525
18044SOL    HW256067   6.893   1.030   2.477
18045SOL     OW56068   6.376   1.273   3.312
18045SOL    HW156069   6.352   1.317   3.398
18045SOL    HW256070   6.325   1.316   3.237
18046SOL     OW56071   6.252   1.607   2.048
18046SOL    HW156072   6.271   1.640   1.956
18046SOL    HW256073   6.185   1.533   2.044
18047SOL     OW56074   7.198   1.724   3.274
18047SOL    HW156075   7.245   1.718   3.186
18047SOL    HW256076   7.224   1.809   3.320
18048SOL     OW56077   7.437   0.142   2.872
18048SOL    HW156078   7.446   0.043   2.869
18048SOL    HW256079   7.355   0.171   2.823
18049SOL     OW56080   5.883   0.256   2.483
18049SOL    HW156081   5.808   0.321   2.474
18049SOL    HW256082   5.904   0.242   2.579
18050SOL     OW56083   6.386   0.999   3.303
18050SOL    HW156084   6.431   0.968   3.218
18050SOL    HW256085   6.382   1.099   3.304
18051SOL     OW56086   6.540   0.918   2.186
18051SOL    HW156087   6.579   0.936   2.096
18051SOL    HW256088   6.582   0.835   2.224
18052SOL     OW56089   7.072   1.671   1.927
18052SOL    HW156090   7.003   1.599   1.920
18052SOL    HW256091   7.124   1.676   1.842
18053SOL     OW56092   7.187   1.303   3.150
18053SOL    HW156093   7.247   1.272   3.223
18053SOL    HW256094   7.118   1.366   3.188
18054SOL     OW56095   6.653   1.120   2.600
18054SOL    HW156096   6.573   1.074   2.638
18054SOL    HW256097   6.719   1.052   2.568
18055SOL     OW56098   6.648   0.219   2.838
18055SOL    HW156099   6.611   0.168   2.760
18055SOL    HW256100   6.656   0.158   2.917
18056SOL     OW56101   6.170   1.398   2.274
18056SOL    HW156102   6.256   1.348   2.259
18056SOL    HW256103   6.121   1.406   2.187
18057SOL     OW56104   7.347   0.381   3.290
18057SOL    HW156105   7.426   0.439   3.269
18057SOL    HW256106   7.349   0.300   3.232
18058SOL     OW56107   5.823   1.337   2.132
18058SOL    HW156108   5.728   1.334   2.101
18058SOL    HW256109   5.830   1.390   2.216
18059SOL     OW56110   5.721   1.050   3.675
18059SOL    HW156111   5.634   1.018   3.714
18059SOL    HW256112   5.793   0.983   3.694
18060SOL     OW56113   6.271   0.226   3.432
18060SOL    HW156114   6.344   0.201   3.369
18060SOL    HW256115   6.307   0.234   3.524
18061SOL     OW56116   5.689   0.405   1.823
18061SOL    HW156117   5.603   0.395   1.772
18061SOL    HW256118   5.731   0.492   1.799
18062SOL     OW56119   6.951   0.845   3.217
18062SOL    HW156120   6.899   0.918   3.173
18062SOL    HW256121   7.046   0.847   3.184
18063SOL     OW56122   5.619   0.202   2.003
18063SOL    HW156123   5.641   0.279   1.944
18063SOL    HW256124   5.703   0.160   2.036
18064SOL     OW56125   6.769   1.331   2.005
18064SOL    HW156126   6.670   1.325   2.003
18064SOL    HW256127   6.801   1.338   2.100
18065SOL     OW56128   6.218   0.793   3.366
18065SOL    HW156129   6.270   0.878   3.354
18065SOL    HW256130   6.280   0.715   3.364
18066SOL     OW56131   7.115   1.897   2.949
18066SOL    HW156132   7.144   1.951   2.870
18066SOL    HW256133   7.193   1.843   2.983
18067SOL     OW56134   6.304   0.518   3.618
18067SOL    HW156135   6.364   0.584   3.664
18067SOL    HW256136   6.321   0.427   3.656
18068SOL     OW56137   7.070   1.177   3.481
18068SOL    HW156138   7.062   1.203   3.577
18068SOL    HW256139   7.162   1.197   3.447
18069SOL     OW56140   5.917   1.766   3.498
18069SOL    HW156141   5.833   1.817   3.479
18069SOL    HW256142   5.895   1.669   3.511
18070SOL     OW56143   7.199   0.862   3.104
18070SOL    HW156144   7.215   0.777   3.054
18070SOL    HW256145   7.210   0.939   3.042
18071SOL     OW56146   6.795   0.289   2.336
18071SOL    HW156147   6.872   0.226   2.326
18071SOL    HW256148   6.817   0.358   2.405
18072SOL     OW56149   6.209   0.659   2.521
18072SOL    HW156150   6.237   0.755   2.533
18072SOL    HW256151   6.138   0.654   2.452
18073SOL     OW56152   7.245   0.419   3.540
18073SOL    HW156153   7.285   0.410   3.449
18073SOL    HW256154   7.207   0.331   3.569
18074SOL     OW56155   7.306   0.929   3.346
18074SOL    HW156156   7.301   1.029   3.355
18074SOL    HW256157   7.271   0.902   3.257
18075SOL     OW56158   6.479   1.351   1.998
18075SOL    HW156159   6.449   1.315   2.087
18075SOL    HW256160   6.445   1.444   1.987
18076SOL     OW56161   6.294   1.661   2.875
18076SOL    HW156162   6.253   1.752   2.866
18076SOL    HW256163   6.383   1.660   2.829
18077SOL     OW56164   6.449   0.995   2.745
18077SOL    HW156165   6.524   0.950   2.793
18077SOL    HW256166   6.390   1.040   2.811
18078SOL     OW56167   6.670   0.933   1.949
18078SOL    HW156168   6.655   1.005   1.883
18078SOL    HW256169   6.768   0.926   1.971
18079SOL     OW56170   5.835   1.302   3.694
18079SOL    HW156171   5.788   1.214   3.683
18079SOL    HW256172   5.837   1.327   3.791
18080SOL     OW56173   5.761   1.242   2.539
18080SOL    HW156174   5.792   1.191   2.619
18080SOL    HW256175   5.803   1.204   2.457
18081SOL     OW56176   6.280   1.413   3.532
18081SOL    HW156177   6.188   1.375   3.525
18081SOL    HW256178   6.275   1.511   3.552
18082SOL     OW56179   7.346   0.157   3.135
18082SOL    HW156180   7.291   0.074   3.130
18082SOL    HW256181   7.385   0.178   3.045
18083SOL     OW56182   6.042   0.400   2.317
18083SOL    HW156183   6.064   0.344   2.237
18083SOL    HW256184   5.989   0.345   2.382
18084SOL     OW56185   7.237   1.487   2.948
18084SOL    HW156186   7.171   1.470   2.876
18084SOL    HW256187   7.229   1.417   3.018
18085SOL     OW56188   5.949   0.565   3.150
18085SOL    HW156189   6.022   0.514   3.197
18085SOL    HW256190   5.955   0.548   3.052
18086SOL     OW56191   6.385   1.549   2.541
18086SOL    HW156192   6.390   1.582   2.446
18086SOL    HW256193   6.311   1.483   2.550
18087SOL     OW56194   7.002   0.226   2.958
18087SOL    HW156195   6.982   0.130   2.977
18087SOL    HW256196   6.950   0.284   3.021
18088SOL     OW56197   6.660   0.061   3.061
18088SOL    HW156198   6.645   9.962   3.063
18088SOL    HW256199   6.707   0.089   3.145
18089SOL     OW56200   6.398   1.257   2.237
18089SOL    HW156201   6.370   1.164   2.256
18089SOL    HW256202   6.475   1.282   2.296
18090SOL     OW56203   6.974   0.048   2.055
18090SOL    HW156204   7.053   9.997   2.022
18090SOL    HW256205   6.899   9.986   2.074
18091SOL     OW56206   6.872   0.471   2.519
18091SOL    HW156207   6.825   0.559   2.516
18091SOL    HW256208   6.872   0.436   2.613
18092SOL     OW56209   7.200   0.226   2.768
18092SOL    HW156210   7.133   0.235   2.842
18092SOL    HW256211   7.192   0.304   2.705
18093SOL     OW56212   5.628   1.062   2.158
18093SOL    HW156213   5.726   1.047   2.148
18093SOL    HW256214   5.582   0.975   2.176
18094SOL     OW56215   6.423   1.627   2.276
18094SOL    HW156216   6.362   1.617   2.197
18094SOL    HW256217   6.432   1.724   2.298
18095SOL     OW56218   5.791   0.604   3.880
18095SOL    HW156219   5.697   0.595   3.914
18095SOL    HW256220   5.789   0.632   3.784
18096SOL     OW56221   5.777   0.235   4.672
18096SOL    HW156222   5.840   0.157   4.674
18096SOL    HW256223   5.684   0.202   4.654
18097SOL     OW56224   5.593   0.464   4.370
18097SOL    HW156225   5.509   0.477   4.424
18097SOL    HW256226   5.577   0.394   4.301
18098SOL     OW56227   6.195   1.362   4.967
18098SOL    HW156228   6.112   1.357   4.910
18098SOL    HW256229   6.215   1.458   4.988
18099SOL     OW56230   7.170   1.572   4.403
18099SOL    HW156231   7.122   1.522   4.476
18099SOL    HW256232   7.109   1.582   4.324
18100SOL     OW56233   6.707   0.735   4.388
18100SOL    HW156234   6.762   0.814   4.361
18100SOL    HW256235   6.668   0.751   4.479
18101SOL     OW56236   7.259   0.577   3.995
18101SOL    HW156237   7.248   0.601   3.898
18101SOL    HW256238   7.249   0.478   4.006
18102SOL     OW56239   6.338   1.167   4.810
18102SOL    HW156240   6.277   1.208   4.878
18102SOL    HW256241   6.378   1.239   4.754
18103SOL     OW56242   6.503   0.751   5.525
18103SOL    HW156243   6.526   0.820   5.594
18103SOL    HW256244   6.504   0.793   5.435
18104SOL     OW56245   6.266   0.972   4.381
18104SOL    HW156246   6.346   0.977   4.441
18104SOL    HW256247   6.193   1.030   4.417
18105SOL     OW56248   6.306   1.175   5.586
18105SOL    HW156249   6.363   1.250   5.618
18105SOL    HW256250   6.237   1.210   5.523
18106SOL     OW56251   5.991   1.408   4.790
18106SOL    HW156252   5.958   1.321   4.753
18106SOL    HW256253   6.037   1.459   4.717
18107SOL     OW56254   7.050   1.461   5.079
18107SOL    HW156255   7.122   1.522   5.111
18107SOL    HW256256   6.971   1.467   5.141
18108SOL     OW56257   6.078   0.334   5.207
18108SOL    HW156258   6.161   0.303   5.254
18108SOL    HW256259   6.047   0.262   5.145
18109SOL     OW56260   7.191   0.472   4.489
18109SOL    HW156261   7.161   0.486   4.395
18109SOL    HW256262   7.140   0.533   4.550
18110SOL     OW56263   5.892   1.693   4.184
18110SOL    HW156264   5.913   1.753   4.261
18110SOL    HW256265   5.950   1.717   4.106
18111SOL     OW56266   6.699   1.345   5.430
18111SOL    HW156267   6.735   1.336   5.524
18111SOL    HW256268   6.641   1.267   5.409
18112SOL     OW56269   5.832   1.434   4.242
18112SOL    HW156270   5.867   1.523   4.213
18112SOL    HW256271   5.776   1.446   4.324
18113SOL     OW56272   5.908   1.155   4.718
18113SOL    HW156273   5.906   1.055   4.716
18113SOL    HW256274   5.840   1.188   4.785
18114SOL     OW56275   6.192   1.865   5.143
18114SOL    HW156276   6.129   1.816   5.203
18114SOL    HW256277   6.233   1.942   5.194
18115SOL     OW56278   6.126   0.979   3.906
18115SOL    HW156279   6.154   1.023   3.821
18115SOL    HW256280   6.191   1.003   3.979
18116SOL     OW56281   7.099   0.202   5.189
18116SOL    HW156282   7.135   0.294   5.172
18116SOL    HW256283   7.082   0.191   5.287
18117SOL     OW56284   5.725   0.699   4.306
18117SOL    HW156285   5.680   0.616   4.339
18117SOL    HW256286   5.734   0.764   4.381
18118SOL     OW56287   5.572   1.566   3.859
18118SOL    HW156288   5.561   1.468   3.876
18118SOL    HW256289   5.595   1.612   3.945
18119SOL     OW56290   7.264   0.914   4.332
18119SOL    HW156291   7.315   0.853   4.270
18119SOL    HW256292   7.250   1.002   4.287
18120SOL     OW56293   7.265   1.147   4.181
18120SOL    HW156294   7.346   1.107   4.140
18120SOL    HW256295   7.289   1.230   4.231
18121SOL     OW56296   6.231   1.364   4.438
18121SOL    HW156297   6.181   1.281   4.463
18121SOL    HW256298   6.214   1.386   4.341
18122SOL     OW56299   6.816   1.200   5.140
18122SOL    HW156300   6.844   1.136   5.069
18122SOL    HW256301   6.883   1.201   5.213
18123SOL     OW56302   6.437   0.055   4.254
18123SOL    HW156303   6.468   0.146   4.226
18123SOL    HW256304   6.337   0.049   4.245
18124SOL     OW56305   5.875   1.039   5.069
18124SOL    HW156306   5.941   0.978   5.024
18124SOL    HW256307   5.837   1.103   5.002
18125SOL     OW56308   7.173   1.067   3.933
18125SOL    HW156309   7.092   1.010   3.949
18125SOL    HW256310   7.208   1.101   4.020
18126SOL     OW56311   6.875   1.876   5.361
18126SOL    HW156312   6.828   1.933   5.294
18126SOL    HW256313   6.854   1.780   5.344
18127SOL     OW56314   5.897   0.284   5.405
18127SOL    HW156315   5.962   0.325   5.341
18127SOL    HW256316   5.861   0.355   5.466
18128SOL     OW56317   7.039   1.441   4.615
18128SOL    HW156318   6.993   1.460   4.702
18128SOL    HW256319   7.030   1.344   4.593
18129SOL     OW56320   7.309   1.792   4.489
18129SOL    HW156321   7.280   1.866   4.428
18129SOL    HW256322   7.264   1.707   4.461
18130SOL     OW56323   6.149   0.708   3.989
18130SOL    HW156324   6.146   0.799   3.947
18130SOL    HW256325   6.081   0.704   4.062
18131SOL     OW56326   6.863   0.397   4.664
18131SOL    HW156327   6.773   0.354   4.669
18131SOL    HW256328   6.928   0.343   4.717
18132SOL     OW56329   6.393   0.599   5.179
18132SOL    HW156330   6.366   0.564   5.269
18132SOL    HW256331   6.366   0.533   5.109
18133SOL     OW56332   6.992   0.524   5.356
18133SOL    HW156333   6.995   0.550   5.452
18133SOL    HW256334   7.084   0.501   5.324
18134SOL     OW56335   6.527   0.894   5.290
18134SOL    HW156336   6.585   0.831   5.239
18134SOL    HW256337   6.469   0.946   5.226
18135SOL     OW56338   6.604   0.409   4.919
18135SOL    HW156339   6.510   0.427   4.948
18135SOL    HW256340   6.603   0.363   4.831
18136SOL     OW56341   6.608   0.697   4.137
18136SOL    HW156342   6.636   0.706   4.233
18136SOL    HW256343   6.519   0.652   4.132
18137SOL     OW56344   5.760   0.921   4.470
18137SOL    HW156345   5.806   0.987   4.411
18137SOL    HW256346   5.669   0.954   4.493
18138SOL     OW56347   5.775   1.854   5.333
18138SOL    HW156348   5.769   1.824   5.428
18138SOL    HW256349   5.714   1.800   5.276
18139SOL     OW56350   6.442   0.374   3.927
18139SOL    HW156351   6.518   0.424   3.885
18139SOL    HW256352   6.397   0.318   3.858
18140SOL     OW56353   7.248   0.618   5.593
18140SOL    HW156354   7.231   0.706   5.549
18140SOL    HW256355   7.332   0.579   5.556
18141SOL     OW56356   7.002   1.180   4.275
18141SOL    HW156357   7.093   1.173   4.234
18141SOL    HW256358   6.949   1.250   4.227
18142SOL     OW56359   6.197   0.192   4.669
18142SOL    HW156360   6.211   0.203   4.768
18142SOL    HW256361   6.192   0.281   4.626
18143SOL     OW56362   6.595   1.451   4.161
18143SOL    HW156363   6.571   1.527   4.101
18143SOL    HW256364   6.556   1.467   4.252
18144SOL     OW56365   5.993   1.782   4.636
18144SOL    HW156366   6.036   1.691   4.632
18144SOL    HW256367   6.063   1.851   4.655
18145SOL     OW56368   7.385   1.008   4.561
18145SOL    HW156369   7.335   0.968   4.484
18145SOL    HW256370   7.321   1.029   4.635
18146SOL     OW56371   6.823   1.493   5.226
18146SOL    HW156372   6.798   1.434   5.302
18146SOL    HW256373   6.752   1.488   5.155
18147SOL     OW56374   5.899   0.981   4.086
18147SOL    HW156375   5.969   0.998   4.017
18147SOL    HW256376   5.901   0.884   4.111
18148SOL     OW56377   7.047   0.763   4.400
18148SOL    HW156378   7.044   0.725   4.492
18148SOL    HW256379   7.132   0.815   4.388
18149SOL     OW56380   6.111   1.267   5.415
18149SOL    HW156381   6.086   1.220   5.331
18149SOL    HW256382   6.030   1.279   5.472
18150SOL     OW56383   6.762   1.723   3.967
18150SOL    HW156384   6.666   1.717   3.994
18150SOL    HW256385   6.780   1.656   3.895
18151SOL     OW56386   5.748   0.187   5.193
18151SOL    HW156387   5.698   0.267   5.160
18151SOL    HW256388   5.791   0.208   5.281
18152SOL     OW56389   7.231   1.424   3.834
18152SOL    HW156390   7.186   1.513   3.824
18152SOL    HW256391   7.174   1.353   3.794
18153SOL     OW56392   6.066   1.802   4.000
18153SOL    HW156393   6.114   1.849   4.073
18153SOL    HW256394   6.131   1.752   3.943
18154SOL     OW56395   6.933   0.089   4.210
18154SOL    HW156396   6.986   0.050   4.134
18154SOL    HW256397   6.989   0.087   4.294
18155SOL     OW56398   5.747   1.766   4.938
18155SOL    HW156399   5.826   1.711   4.964
18155SOL    HW256400   5.723   1.748   4.843
18156SOL     OW56401   6.568   1.675   4.556
18156SOL    HW156402   6.662   1.640   4.566
18156SOL    HW256403   6.519   1.621   4.488
18157SOL     OW56404   5.971   0.682   4.195
18157SOL    HW156405   5.995   0.585   4.200
18157SOL    HW256406   5.878   0.695   4.229
18158SOL     OW56407   7.080   0.144   5.460
18158SOL    HW156408   7.043   0.176   5.546
18158SOL    HW256409   7.044   0.053   5.438
18159SOL     OW56410   6.181   0.070   3.830
18159SOL    HW156411   6.190   9.983   3.878
18159SOL    HW256412   6.128   0.057   3.747
18160SOL     OW56413   6.384   0.197   5.583
18160SOL    HW156414   6.458   0.132   5.566
18160SOL    HW256415   6.310   0.151   5.634
18161SOL     OW56416   6.478   1.560   4.893
18161SOL    HW156417   6.451   1.513   4.809
18161SOL    HW256418   6.535   1.499   4.948
18162SOL     OW56419   6.918   0.613   5.110
18162SOL    HW156420   6.941   0.585   5.203
18162SOL    HW256421   6.931   0.712   5.101
18163SOL     OW56422   6.420   1.381   4.664
18163SOL    HW156423   6.512   1.381   4.624
18163SOL    HW256424   6.353   1.381   4.590
18164SOL     OW56425   6.515   0.514   4.603
18164SOL    HW156426   6.485   0.507   4.508
18164SOL    HW256427   6.544   0.423   4.635
18165SOL     OW56428   6.165   0.047   4.200
18165SOL    HW156429   6.093   0.036   4.268
18165SOL    HW256430   6.143   0.124   4.140
18166SOL     OW56431   7.057   1.228   3.750
18166SOL    HW156432   7.106   1.162   3.806
18166SOL    HW256433   6.969   1.250   3.792
18167SOL     OW56434   5.830   0.130   4.032
18167SOL    HW156435   5.921   0.171   4.027
18167SOL    HW256436   5.836   0.040   4.076
18168SOL     OW56437   6.539   0.288   4.168
18168SOL    HW156438   6.502   0.316   4.080
18168SOL    HW256439   6.637   0.303   4.170
18169SOL     OW56440   6.635   0.710   5.120
18169SOL    HW156441   6.556   0.653   5.141
18169SOL    HW256442   6.716   0.652   5.110
18170SOL     OW56443   6.825   1.583   4.503
18170SOL    HW156444   6.847   1.667   4.454
18170SOL    HW256445   6.909   1.545   4.543
18171SOL     OW56446   6.068   1.148   4.486
18171SOL    HW156447   6.024   1.148   4.575
18171SOL    HW256448   5.998   1.152   4.414
18172SOL     OW56449   6.870   1.821   4.360
18172SOL    HW156450   6.932   1.895   4.334
18172SOL    HW256451   6.781   1.859   4.385
18173SOL     OW56452   6.639   0.509   3.805
18173SOL    HW156453   6.591   0.588   3.768
18173SOL    HW256454   6.706   0.538   3.873
18174SOL     OW56455   5.640   0.429   5.099
18174SOL    HW156456   5.736   0.441   5.073
18174SOL    HW256457   5.615   0.497   5.167
18175SOL     OW56458   6.224   0.206   4.942
18175SOL    HW156459   6.292   0.176   5.008
18175SOL    HW256460   6.133   0.179   4.974
18176SOL     OW56461   6.442   0.477   4.348
18176SOL    HW156462   6.383   0.532   4.288
18176SOL    HW256463   6.480   0.401   4.295
18177SOL     OW56464   6.565   0.051   4.502
18177SOL    HW156465   6.516   0.057   4.416
18177SOL    HW256466   6.560   9.958   4.538
18178SOL     OW56467   6.999   1.175   4.555
18178SOL    HW156468   6.918   1.123   4.581
18178SOL    HW256469   7.007   1.176   4.455
18179SOL     OW56470   7.021   0.632   4.651
18179SOL    HW156471   6.955   0.557   4.655
18179SOL    HW256472   7.066   0.642   4.740
18180SOL     OW56473   7.397   0.770   4.138
18180SOL    HW156474   7.473   0.727   4.187
18180SOL    HW256475   7.352   0.702   4.079
18181SOL     OW56476   6.073   1.470   3.940
18181SOL    HW156477   5.979   1.438   3.941
18181SOL    HW256478   6.129   1.407   3.886
18182SOL     OW56479   7.334   1.357   4.327
18182SOL    HW156480   7.411   1.331   4.385
18182SOL    HW256481   7.297   1.445   4.357
18183SOL     OW56482   6.944   0.647   3.804
18183SOL    HW156483   6.913   0.605   3.889
18183SOL    HW256484   7.040   0.624   3.789
18184SOL     OW56485   6.081   0.241   4.017
18184SOL    HW156486   6.124   0.182   3.948
18184SOL    HW256487   6.064   0.331   3.977
18185SOL     OW56488   7.285   1.209   5.302
18185SOL    HW156489   7.320   1.242   5.214
18185SOL    HW256490   7.318   1.268   5.375
18186SOL     OW56491   6.616   1.363   5.053
18186SOL    HW156492   6.529   1.338   5.095
18186SOL    HW256493   6.689   1.305   5.089
18187SOL     OW56494   6.740   1.279   4.820
18187SOL    HW156495   6.676   1.306   4.892
18187SOL    HW256496   6.703   1.305   4.731
18188SOL     OW56497   7.189   1.078   4.748
18188SOL    HW156498   7.183   1.139   4.826
18188SOL    HW256499   7.119   1.103   4.680
18189SOL     OW56500   6.463   0.167   5.112
18189SOL    HW156501   6.486   0.124   5.024
18189SOL    HW256502   6.547   0.197   5.157
18190SOL     OW56503   6.541   1.117   5.447
18190SOL    HW156504   6.449   1.129   5.485
18190SOL    HW256505   6.541   1.038   5.385
18191SOL     OW56506   6.317   1.022   4.104
18191SOL    HW156507   6.301   0.995   4.199
18191SOL    HW256508   6.382   0.958   4.062
18192SOL     OW56509   6.851   0.365   5.011
18192SOL    HW156510   6.886   0.451   5.049
18192SOL    HW256511   6.759   0.379   4.975
18193SOL     OW56512   5.866   1.159   4.296
18193SOL    HW156513   5.867   1.254   4.265
18193SOL    HW256514   5.879   1.098   4.218
18194SOL     OW56515   6.155   0.466   4.590
18194SOL    HW156516   6.149   0.511   4.501
18194SOL    HW256517   6.207   0.522   4.653
18195SOL     OW56518   6.859   1.379   4.142
18195SOL    HW156519   6.911   1.462   4.164
18195SOL    HW256520   6.761   1.397   4.154
18196SOL     OW56521   6.913   1.486   4.847
18196SOL    HW156522   6.968   1.481   4.930
18196SOL    HW256523   6.851   1.408   4.843
18197SOL     OW56524   7.119   0.547   4.236
18197SOL    HW156525   7.069   0.622   4.278
18197SOL    HW256526   7.165   0.580   4.154
18198SOL     OW56527   5.964   1.608   4.972
18198SOL    HW156528   5.961   1.539   4.899
18198SOL    HW256529   6.060   1.628   4.994
18199SOL     OW56530   6.138   0.753   5.402
18199SOL    HW156531   6.150   0.779   5.306
18199SOL    HW256532   6.193   0.672   5.421
18200SOL     OW56533   7.213   0.845   5.443
18200SOL    HW156534   7.119   0.868   5.420
18200SOL    HW256535   7.272   0.863   5.365
18201SOL     OW56536   6.581   0.012   5.530
18201SOL    HW156537   6.646   0.079   5.567
18201SOL    HW256538   6.609   9.987   5.437
18202SOL     OW56539   6.038   0.073   5.488
18202SOL    HW156540   6.115   0.070   5.425
18202SOL    HW256541   5.977   0.148   5.463
18203SOL     OW56542   6.286   0.899   4.824
18203SOL    HW156543   6.302   0.997   4.811
18203SOL    HW256544   6.195   0.885   4.863
18204SOL     OW56545   6.868   0.874   4.690
18204SOL    HW156546   6.775   0.840   4.672
18204SOL    HW256547   6.933   0.799   4.677
18205SOL     OW56548   6.804   0.552   4.018
18205SOL    HW156549   6.819   0.468   4.071
18205SOL    HW256550   6.740   0.611   4.066
18206SOL     OW56551   5.980   0.135   5.050
18206SOL    HW156552   5.891   0.163   5.085
18206SOL    HW256553   5.982   0.036   5.036
18207SOL     OW56554   6.307   0.624   4.750
18207SOL    HW156555   6.387   0.599   4.695
18207SOL    HW256556   6.303   0.723   4.760
18208SOL     OW56557   7.322   1.039   5.608
18208SOL    HW156558   7.291   0.967   5.546
18208SOL    HW256559   7.255   1.053   5.680
18209SOL     OW56560   5.928   0.081   4.369
18209SOL    HW156561   5.901   0.177   4.372
18209SOL    HW256562   5.949   0.049   4.462
18210SOL     OW56563   7.164   0.322   4.074
18210SOL    HW156564   7.240   0.270   4.113
18210SOL    HW256565   7.126   0.384   4.143
18211SOL     OW56566   6.614   0.763   4.645
18211SOL    HW156567   6.597   0.790   4.740
18211SOL    HW256568   6.585   0.669   4.631
18212SOL     OW56569   6.652   1.617   5.456
18212SOL    HW156570   6.587   1.665   5.398
18212SOL    HW256571   6.653   1.520   5.432
18213SOL     OW56572   6.014   0.916   5.580
18213SOL    HW156573   6.084   0.947   5.644
18213SOL    HW256574   6.054   0.852   5.515
18214SOL     OW56575   7.006   0.230   3.864
18214SOL    HW156576   6.994   0.134   3.889
18214SOL    HW256577   7.063   0.275   3.932
18215SOL     OW56578   6.839   0.880   3.731
18215SOL    HW156579   6.870   0.788   3.754
18215SOL    HW256580   6.872   0.904   3.639
18216SOL     OW56581   6.670   1.362   4.568
18216SOL    HW156582   6.688   1.277   4.518
18216SOL    HW256583   6.727   1.436   4.530
18217SOL     OW56584   5.957   0.416   4.775
18217SOL    HW156585   5.890   0.350   4.741
18217SOL    HW256586   6.025   0.434   4.704
18218SOL     OW56587   6.752   0.395   5.415
18218SOL    HW156588   6.704   0.451   5.483
18218SOL    HW256589   6.836   0.442   5.389
18219SOL     OW56590   6.719   0.213   5.213
18219SOL    HW156591   6.725   0.275   5.291
18219SOL    HW256592   6.776   0.247   5.139
18220SOL     OW56593   5.568   1.287   3.914
18220SOL    HW156594   5.472   1.308   3.895
18220SOL    HW256595   5.577   1.190   3.936
18221SOL     OW56596   5.733   1.711   4.667
18221SOL    HW156597   5.717   1.639   4.600
18221SOL    HW256598   5.825   1.747   4.656
18222SOL     OW56599   6.131   1.549   4.611
18222SOL    HW156600   6.208   1.606   4.638
18222SOL    HW256601   6.160   1.487   4.539
18223SOL     OW56602   6.547   0.835   4.891
18223SOL    HW156603   6.579   0.796   4.977
18223SOL    HW256604   6.447   0.843   4.892
18224SOL     OW56605   5.570   0.464   4.833
18224SOL    HW156606   5.636   0.418   4.773
18224SOL    HW256607   5.599   0.454   4.928
18225SOL     OW56608   6.968   0.925   5.350
18225SOL    HW156609   6.977   1.025   5.355
18225SOL    HW256610   6.962   0.897   5.254
18226SOL     OW56611   6.367   0.582   4.093
18226SOL    HW156612   6.383   0.502   4.035
18226SOL    HW256613   6.288   0.633   4.058
18227SOL     OW56614   7.130   0.639   4.900
18227SOL    HW156615   7.063   0.616   4.971
18227SOL    HW256616   7.213   0.584   4.914
18228SOL     OW56617   5.875   1.529   5.427
18228SOL    HW156618   5.846   1.600   5.490
18228SOL    HW256619   5.883   1.442   5.476
18229SOL     OW56620   6.335   0.454   4.960
18229SOL    HW156621   6.284   0.369   4.950
18229SOL    HW256622   6.312   0.516   4.885
18230SOL     OW56623   6.463   1.725   5.290
18230SOL    HW156624   6.408   1.660   5.238
18230SOL    HW256625   6.477   1.808   5.236
18231SOL     OW56626   6.027   0.476   3.889
18231SOL    HW156627   6.094   0.547   3.909
18231SOL    HW256628   5.935   0.515   3.894
18232SOL     OW56629   5.679   1.070   5.257
18232SOL    HW156630   5.716   1.066   5.350
18232SOL    HW256631   5.753   1.061   5.191
18233SOL     OW56632   6.854   1.044   4.905
18233SOL    HW156633   6.862   0.980   4.829
18233SOL    HW256634   6.815   1.130   4.872
18234SOL     OW56635   6.944   0.939   3.984
18234SOL    HW156636   6.891   0.898   4.058
18234SOL    HW256637   6.903   0.914   3.896
18235SOL     OW56638   7.305   1.755   4.855
18235SOL    HW156639   7.385   1.784   4.803
18235SOL    HW256640   7.282   1.661   4.831
18236SOL     OW56641   6.833   1.754   4.825
18236SOL    HW156642   6.917   1.803   4.799
18236SOL    HW256643   6.852   1.656   4.834
18237SOL     OW56644   6.310   1.685   5.520
18237SOL    HW156645   6.242   1.758   5.527
18237SOL    HW256646   6.383   1.713   5.457
18238SOL     OW56647   7.388   0.215   4.198
18238SOL    HW156648   7.459   0.258   4.143
18238SOL    HW256649   7.420   0.125   4.229
18239SOL     OW56650   6.982   1.624   4.199
18239SOL    HW156651   6.993   1.659   4.106
18239SOL    HW256652   6.930   1.690   4.253
18240SOL     OW56653   5.777   1.735   5.577
18240SOL    HW156654   5.700   1.682   5.611
18240SOL    HW256655   5.825   1.777   5.654
18241SOL     OW56656   6.867   0.947   4.318
18241SOL    HW156657   6.935   0.879   4.345
18241SOL    HW256658   6.913   1.031   4.291
18242SOL     OW56659   6.373   1.298   5.157
18242SOL    HW156660   6.356   1.355   5.238
18242SOL    HW256661   6.303   1.317   5.088
18243SOL     OW56662   6.266   1.657   3.876
18243SOL    HW156663   6.275   1.665   3.776
18243SOL    HW256664   6.201   1.584   3.898
18244SOL     OW56665   7.441   0.143   4.776
18244SOL    HW156666   7.431   0.043   4.777
18244SOL    HW256667   7.366   0.183   4.724
18245SOL     OW56668   5.831   0.333   4.421
18245SOL    HW156669   5.752   0.387   4.394
18245SOL    HW256670   5.824   0.307   4.517
18246SOL     OW56671   6.825   1.536   3.779
18246SOL    HW156672   6.830   1.448   3.826
18246SOL    HW256673   6.769   1.527   3.697
18247SOL     OW56674   6.388   1.031   5.103
18247SOL    HW156675   6.429   1.030   5.012
18247SOL    HW256676   6.380   1.126   5.135
18248SOL     OW56677   6.503   0.877   3.960
18248SOL    HW156678   6.568   0.946   3.927
18248SOL    HW256679   6.551   0.815   4.023
18249SOL     OW56680   7.078   1.648   3.776
18249SOL    HW156681   6.986   1.611   3.768
18249SOL    HW256682   7.122   1.647   3.686
18250SOL     OW56683   5.839   1.390   5.084
18250SOL    HW156684   5.892   1.472   5.063
18250SOL    HW256685   5.776   1.409   5.160
18251SOL     OW56686   7.177   1.242   4.962
18251SOL    HW156687   7.270   1.255   4.997
18251SOL    HW256688   7.116   1.310   5.002
18252SOL     OW56689   6.700   1.116   4.463
18252SOL    HW156690   6.615   1.072   4.493
18252SOL    HW256691   6.751   1.053   4.405
18253SOL     OW56692   6.611   0.252   4.689
18253SOL    HW156693   6.602   0.201   4.604
18253SOL    HW256694   6.594   0.191   4.767
18254SOL     OW56695   6.211   1.428   4.178
18254SOL    HW156696   6.282   1.375   4.130
18254SOL    HW256697   6.144   1.461   4.111
18255SOL     OW56698   7.232   0.445   5.190
18255SOL    HW156699   7.308   0.410   5.245
18255SOL    HW256700   7.266   0.472   5.100
18256SOL     OW56701   5.820   1.366   3.971
18256SOL    HW156702   5.726   1.339   3.947
18256SOL    HW256703   5.825   1.388   4.068
18257SOL     OW56704   5.786   1.041   5.508
18257SOL    HW156705   5.710   0.991   5.549
18257SOL    HW256706   5.872   0.993   5.526
18258SOL     OW56707   6.282   0.199   5.323
18258SOL    HW156708   6.349   0.180   5.251
18258SOL    HW256709   6.329   0.206   5.411
18259SOL     OW56710   5.664   0.381   3.686
18259SOL    HW156711   5.574   0.370   3.643
18259SOL    HW256712   5.704   0.468   3.658
18260SOL     OW56713   6.978   0.878   5.082
18260SOL    HW156714   6.920   0.934   5.023
18260SOL    HW256715   7.073   0.889   5.054
18261SOL     OW56716   5.636   0.295   3.946
18261SOL    HW156717   5.645   0.320   3.850
18261SOL    HW256718   5.709   0.232   3.971
18262SOL     OW56719   6.822   1.281   3.884
18262SOL    HW156720   6.767   1.198   3.882
18262SOL    HW256721   6.841   1.307   3.979
18263SOL     OW56722   6.221   0.810   5.138
18263SOL    HW156723   6.273   0.895   5.131
18263SOL    HW256724   6.284   0.733   5.149
18264SOL     OW56725   7.075   1.873   4.757
18264SOL    HW156726   7.107   1.906   4.668
18264SOL    HW256727   7.151   1.826   4.803
18265SOL     OW56728   6.330   0.551   5.443
18265SOL    HW156729   6.391   0.620   5.484
18265SOL    HW256730   6.334   0.467   5.498
18266SOL     OW56731   7.014   1.191   5.352
18266SOL    HW156732   7.004   1.214   5.448
18266SOL    HW256733   7.110   1.200   5.325
18267SOL     OW56734   6.018   1.742   5.311
18267SOL    HW156735   5.931   1.791   5.307
18267SOL    HW256736   6.001   1.646   5.335
18268SOL     OW56737   7.229   0.893   4.970
18268SOL    HW156738   7.208   0.802   4.934
18268SOL    HW256739   7.226   0.959   4.896
18269SOL     OW56740   6.807   0.331   4.180
18269SOL    HW156741   6.860   0.247   4.186
18269SOL    HW256742   6.819   0.385   4.264
18270SOL     OW56743   6.165   0.702   4.400
18270SOL    HW156744   6.208   0.792   4.397
18270SOL    HW256745   6.096   0.696   4.327
18271SOL     OW56746   7.349   0.939   5.226
18271SOL    HW156747   7.333   1.034   5.252
18271SOL    HW256748   7.317   0.923   5.133
18272SOL     OW56749   6.271   1.336   3.813
18272SOL    HW156750   6.331   1.321   3.891
18272SOL    HW256751   6.324   1.376   3.738
18273SOL     OW56752   6.323   1.722   4.669
18273SOL    HW156753   6.294   1.817   4.667
18273SOL    HW256754   6.419   1.716   4.640
18274SOL     OW56755   6.473   0.993   4.567
18274SOL    HW156756   6.516   0.907   4.594
18274SOL    HW256757   6.434   1.038   4.648
18275SOL     OW56758   6.667   1.060   3.834
18275SOL    HW156759   6.598   1.087   3.767
18275SOL    HW256760   6.730   0.994   3.792
18276SOL     OW56761   5.882   1.291   5.557
18276SOL    HW156762   5.838   1.203   5.536
18276SOL    HW256763   5.865   1.314   5.653
18277SOL     OW56764   5.645   1.253   4.443
18277SOL    HW156765   5.595   1.175   4.480
18277SOL    HW256766   5.727   1.221   4.396
18278SOL     OW56767   6.297   1.459   5.361
18278SOL    HW156768   6.222   1.397   5.385
18278SOL    HW256769   6.297   1.537   5.423
18279SOL     OW56770   6.015   0.421   4.234
18279SOL    HW156771   6.043   0.346   4.174
18279SOL    HW256772   5.955   0.387   4.306
18280SOL     OW56773   5.896   0.455   5.036
18280SOL    HW156774   5.972   0.436   5.097
18280SOL    HW256775   5.926   0.444   4.941
18281SOL     OW56776   6.430   1.543   4.365
18281SOL    HW156777   6.389   1.603   4.297
18281SOL    HW256778   6.364   1.474   4.394
18282SOL     OW56779   7.025   0.238   4.831
18282SOL    HW156780   7.056   0.147   4.857
18282SOL    HW256781   6.971   0.277   4.906
18283SOL     OW56782   6.541   0.055   4.873
18283SOL    HW156783   6.459   0.023   4.826
18283SOL    HW256784   6.599   9.977   4.897
18284SOL     OW56785   6.400   1.281   4.045
18284SOL    HW156786   6.383   1.187   4.072
18284SOL    HW256787   6.485   1.313   4.086
18285SOL     OW56788   6.238   1.631   5.009
18285SOL    HW156789   6.234   1.722   5.052
18285SOL    HW256790   6.325   1.623   4.959
18286SOL     OW56791   6.986   9.966   3.916
18286SOL    HW156792   7.042   9.938   3.838
18286SOL    HW256793   6.911   9.901   3.928
18287SOL     OW56794   6.823   0.481   4.400
18287SOL    HW156795   6.781   0.572   4.398
18287SOL    HW256796   6.839   0.454   4.495
18288SOL     OW56797   7.222   0.245   4.638
18288SOL    HW156798   7.150   0.246   4.707
18288SOL    HW256799   7.217   0.327   4.582
18289SOL     OW56800   5.620   1.034   4.040
18289SOL    HW156801   5.720   1.034   4.045
18289SOL    HW256802   5.586   0.940   4.045
18290SOL     OW56803   6.495   1.682   4.040
18290SOL    HW156804   6.416   1.675   3.979
18290SOL    HW256805   6.484   1.761   4.100
18291SOL     OW56806   5.749   0.332   6.676
18291SOL    HW156807   5.804   0.280   6.741
18291SOL    HW256808   5.683   0.271   6.632
18292SOL     OW56809   5.576   0.451   6.190
18292SOL    HW156810   5.489   0.470   6.235
18292SOL    HW256811   5.565   0.373   6.129
18293SOL     OW56812   6.152   1.330   6.832
18293SOL    HW156813   6.085   1.321   6.759
18293SOL    HW256814   6.169   1.427   6.850
18294SOL     OW56815   7.200   1.465   6.267
18294SOL    HW156816   7.134   1.457   6.342
18294SOL    HW256817   7.150   1.479   6.181
18295SOL     OW56818   6.746   0.764   6.276
18295SOL    HW156819   6.812   0.839   6.271
18295SOL    HW256820   6.695   0.770   6.362
18296SOL     OW56821   7.264   0.554   5.861
18296SOL    HW156822   7.252   0.574   5.763
18296SOL    HW256823   7.215   0.469   5.883
18297SOL     OW56824   6.302   1.128   6.675
18297SOL    HW156825   6.246   1.161   6.750
18297SOL    HW256826   6.335   1.206   6.621
18298SOL     OW56827   6.488   0.728   7.400
18298SOL    HW156828   6.498   0.790   7.478
18298SOL    HW256829   6.492   0.781   7.315
18299SOL     OW56830   6.266   0.945   6.263
18299SOL    HW156831   6.339   0.959   6.331
18299SOL    HW256832   6.189   1.005   6.285
18300SOL     OW56833   6.268   1.134   7.432
18300SOL    HW156834   6.300   1.222   7.468
18300SOL    HW256835   6.189   1.149   7.373
18301SOL     OW56836   5.967   1.338   6.634
18301SOL    HW156837   5.932   1.256   6.588
18301SOL    HW256838   5.993   1.406   6.566
18302SOL     OW56839   7.006   1.497   6.952
18302SOL    HW156840   7.064   1.578   6.964
18302SOL    HW256841   6.928   1.503   7.014
18303SOL     OW56842   6.051   0.433   7.026
18303SOL    HW156843   6.134   0.381   7.048
18303SOL    HW256844   5.971   0.386   7.063
18304SOL     OW56845   7.134   0.551   6.308
18304SOL    HW156846   7.048   0.530   6.262
18304SOL    HW256847   7.116   0.590   6.398
18305SOL     OW56848   5.813   1.681   6.068
18305SOL    HW156849   5.810   1.759   6.131
18305SOL    HW256850   5.905   1.676   6.027
18306SOL     OW56851   6.693   1.317   7.261
18306SOL    HW156852   6.780   1.275   7.233
18306SOL    HW256853   6.629   1.246   7.287
18307SOL     OW56854   5.813   1.410   6.084
18307SOL    HW156855   5.809   1.510   6.087
18307SOL    HW256856   5.753   1.373   6.155
18308SOL     OW56857   5.873   1.088   6.512
18308SOL    HW156858   5.898   0.995   6.538
18308SOL    HW256859   5.775   1.093   6.493
18309SOL     OW56860   6.156   1.835   7.001
18309SOL    HW156861   6.073   1.805   7.048
18309SOL    HW256862   6.200   1.908   7.054
18310SOL     OW56863   6.177   1.036   5.785
18310SOL    HW156864   6.231   1.076   5.711
18310SOL    HW256865   6.228   1.044   5.871
18311SOL     OW56866   7.139   0.060   7.118
18311SOL    HW156867   7.191   0.111   7.050
18311SOL    HW256868   7.108   0.122   7.190
18312SOL     OW56869   5.687   0.701   6.123
18312SOL    HW156870   5.652   0.610   6.142
18312SOL    HW256871   5.712   0.746   6.208
18313SOL     OW56872   7.477   1.742   5.876
18313SOL    HW156873   7.550   1.727   5.943
18313SOL    HW256874   7.480   1.837   5.844
18314SOL     OW56875   5.587   1.585   5.687
18314SOL    HW156876   5.577   1.486   5.698
18314SOL    HW256877   5.579   1.630   5.776
18315SOL     OW56878   5.702   0.808   7.167
18315SOL    HW156879   5.774   0.869   7.199
18315SOL    HW256880   5.621   0.861   7.144
18316SOL     OW56881   6.192   1.350   6.340
18316SOL    HW156882   6.148   1.260   6.330
18316SOL    HW256883   6.199   1.393   6.250
18317SOL     OW56884   6.831   1.219   7.002
18317SOL    HW156885   6.843   1.157   6.925
18317SOL    HW256886   6.913   1.215   7.060
18318SOL     OW56887   6.449   0.054   6.138
18318SOL    HW156888   6.478   0.138   6.091
18318SOL    HW256889   6.350   0.043   6.130
18319SOL     OW56890   7.119   1.054   5.805
18319SOL    HW156891   7.047   0.984   5.814
18319SOL    HW256892   7.198   1.026   5.859
18320SOL     OW56893   6.715   1.805   7.197
18320SOL    HW156894   6.746   1.881   7.141
18320SOL    HW256895   6.757   1.720   7.164
18321SOL     OW56896   5.939   0.312   7.381
18321SOL    HW156897   5.998   0.374   7.433
18321SOL    HW256898   5.844   0.327   7.409
18322SOL     OW56899   7.027   1.422   6.474
18322SOL    HW156900   6.972   1.447   6.554
18322SOL    HW256901   7.025   1.323   6.461
18323SOL     OW56902   7.242   1.883   6.108
18323SOL    HW156903   7.228   1.812   6.039
18323SOL    HW256904   7.250   1.840   6.198
18324SOL     OW56905   6.197   0.755   5.913
18324SOL    HW156906   6.182   0.839   5.862
18324SOL    HW256907   6.113   0.731   5.963
18325SOL     OW56908   6.843   0.397   6.504
18325SOL    HW156909   6.756   0.350   6.516
18325SOL    HW256910   6.912   0.355   6.563
18326SOL     OW56911   7.214   1.692   5.913
18326SOL    HW156912   7.313   1.700   5.900
18326SOL    HW256913   7.169   1.686   5.823
18327SOL     OW56914   6.377   0.588   7.061
18327SOL    HW156915   6.342   0.550   7.147
18327SOL    HW256916   6.351   0.528   6.985
18328SOL     OW56917   7.005   0.537   7.243
18328SOL    HW156918   6.989   0.570   7.336
18328SOL    HW256919   7.101   0.510   7.233
18329SOL     OW56920   6.522   0.894   7.175
18329SOL    HW156921   6.576   0.828   7.123
18329SOL    HW256922   6.462   0.945   7.114
18330SOL     OW56923   6.592   0.436   6.764
18330SOL    HW156924   6.500   0.444   6.802
18330SOL    HW256925   6.593   0.366   6.693
18331SOL     OW56926   6.666   0.737   6.008
18331SOL    HW156927   6.688   0.742   6.105
18331SOL    HW256928   6.578   0.691   5.996
18332SOL     OW56929   5.738   0.834   6.350
18332SOL    HW156930   5.818   0.817   6.409
18332SOL    HW256931   5.685   0.910   6.388
18333SOL     OW56932   5.687   1.870   7.196
18333SOL    HW156933   5.699   1.823   7.283
18333SOL    HW256934   5.590   1.889   7.181
18334SOL     OW56935   6.455   0.387   5.769
18334SOL    HW156936   6.525   0.441   5.723
18334SOL    HW256937   6.422   0.315   5.708
18335SOL     OW56938   7.249   0.607   7.448
18335SOL    HW156939   7.235   0.691   7.395
18335SOL    HW256940   7.268   0.531   7.387
18336SOL     OW56941   6.954   1.133   6.042
18336SOL    HW156942   7.017   1.112   5.967
18336SOL    HW256943   6.899   1.213   6.019
18337SOL     OW56944   6.147   0.207   6.543
18337SOL    HW156945   6.160   0.219   6.641
18337SOL    HW256946   6.149   0.297   6.498
18338SOL     OW56947   6.593   1.487   6.025
18338SOL    HW156948   6.562   1.559   5.963
18338SOL    HW256949   6.568   1.510   6.118
18339SOL     OW56950   5.910   1.777   6.471
18339SOL    HW156951   5.957   1.688   6.472
18339SOL    HW256952   5.974   1.848   6.500
18340SOL     OW56953   7.391   1.059   6.508
18340SOL    HW156954   7.365   1.115   6.429
18340SOL    HW256955   7.316   1.056   6.574
18341SOL     OW56956   6.767   1.538   7.095
18341SOL    HW156957   6.745   1.466   7.161
18341SOL    HW256958   6.698   1.538   7.022
18342SOL     OW56959   5.905   1.023   5.850
18342SOL    HW156960   6.001   1.038   5.830
18342SOL    HW256961   5.868   0.952   5.791
18343SOL     OW56962   6.048   1.198   7.287
18343SOL    HW156963   6.027   1.203   7.189
18343SOL    HW256964   5.973   1.240   7.338
18344SOL     OW56965   6.753   1.734   5.850
18344SOL    HW156966   6.653   1.733   5.853
18344SOL    HW256967   6.784   1.676   5.775
18345SOL     OW56968   5.839   0.285   7.117
18345SOL    HW156969   5.743   0.310   7.111
18345SOL    HW256970   5.869   0.291   7.212
18346SOL     OW56971   7.184   1.405   5.717
18346SOL    HW156972   7.152   1.500   5.705
18346SOL    HW256973   7.117   1.342   5.679
18347SOL     OW56974   6.075   1.680   5.966
18347SOL    HW156975   6.086   1.769   6.009
18347SOL    HW256976   6.144   1.668   5.895
18348SOL     OW56977   6.961   0.152   6.075
18348SOL    HW156978   6.965   0.085   6.001
18348SOL    HW256979   7.008   0.117   6.156
18349SOL     OW56980   5.775   1.791   6.788
18349SOL    HW156981   5.836   1.714   6.802
18349SOL    HW256982   5.735   1.786   6.696
18350SOL     OW56983   5.969   0.680   6.054
18350SOL    HW156984   5.976   0.581   6.040
18350SOL    HW256985   5.873   0.705   6.067
18351SOL     OW56986   7.064   0.230   7.318
18351SOL    HW156987   7.092   0.209   7.412
18351SOL    HW256988   6.969   0.259   7.318
18352SOL     OW56989   6.184   0.073   5.717
18352SOL    HW156990   6.191   9.985   5.764
18352SOL    HW256991   6.125   0.064   5.638
18353SOL     OW56992   6.342   0.243   7.347
18353SOL    HW156993   6.411   0.174   7.326
18353SOL    HW256994   6.290   0.215   7.428
18354SOL     OW56995   6.444   1.523   6.763
18354SOL    HW156996   6.412   1.475   6.681
18354SOL    HW256997   6.498   1.461   6.819
18355SOL     OW56998   6.876   0.625   7.022
18355SOL    HW156999   6.925   0.599   7.106
18355SOL    HW257000   6.900   0.719   6.997
18356SOL     OW57001   6.375   1.356   6.545
18356SOL    HW157002   6.464   1.359   6.499
18356SOL    HW257003   6.302   1.361   6.478
18357SOL     OW57004   6.500   0.532   6.455
18357SOL    HW157005   6.485   0.518   6.358
18357SOL    HW257006   6.527   0.445   6.497
18358SOL     OW57007   6.178   0.028   6.085
18358SOL    HW157008   6.092   0.011   6.132
18358SOL    HW257009   6.172   0.115   6.035
18359SOL     OW57010   6.995   1.227   5.628
18359SOL    HW157011   7.036   1.159   5.689
18359SOL    HW257012   6.901   1.245   5.657
18360SOL     OW57013   5.841   0.054   5.719
18360SOL    HW157014   5.900   0.063   5.639
18360SOL    HW257015   5.896   0.025   5.798
18361SOL     OW57016   6.544   0.278   6.011
18361SOL    HW157017   6.508   0.309   5.923
18361SOL    HW257018   6.639   0.308   6.020
18362SOL     OW57019   6.614   0.709   7.001
18362SOL    HW157020   6.540   0.647   7.026
18362SOL    HW257021   6.702   0.661   7.008
18363SOL     OW57022   6.801   1.523   6.326
18363SOL    HW157023   6.811   1.581   6.245
18363SOL    HW257024   6.892   1.501   6.362
18364SOL     OW57025   6.057   1.116   6.311
18364SOL    HW157026   5.995   1.105   6.389
18364SOL    HW257027   6.004   1.120   6.227
18365SOL     OW57028   6.837   1.685   6.105
18365SOL    HW157029   6.849   1.773   6.150
18365SOL    HW257030   6.798   1.698   6.014
18366SOL     OW57031   6.635   0.533   5.624
18366SOL    HW157032   6.596   0.619   5.590
18366SOL    HW257033   6.701   0.552   5.696
18367SOL     OW57034   5.690   0.606   6.986
18367SOL    HW157035   5.779   0.606   6.941
18367SOL    HW257036   5.686   0.680   7.053
18368SOL     OW57037   6.158   0.240   6.814
18368SOL    HW157038   6.202   0.218   6.901
18368SOL    HW257039   6.059   0.231   6.824
18369SOL     OW57040   6.473   0.480   6.192
18369SOL    HW157041   6.439   0.546   6.125
18369SOL    HW257042   6.495   0.394   6.147
18370SOL     OW57043   6.517   0.044   6.413
18370SOL    HW157044   6.493   0.047   6.317
18370SOL    HW257045   6.553   9.953   6.436
18371SOL     OW57046   7.071   1.156   6.424
18371SOL    HW157047   7.010   1.091   6.379
18371SOL    HW257048   7.155   1.166   6.370
18372SOL     OW57049   7.020   0.621   6.549
18372SOL    HW157050   6.949   0.551   6.550
18372SOL    HW257051   7.078   0.610   6.630
18373SOL     OW57052   7.502   0.666   5.909
18373SOL    HW157053   7.523   0.668   6.007
18373SOL    HW257054   7.410   0.629   5.896
18374SOL     OW57055   6.105   1.376   5.777
18374SOL    HW157056   6.006   1.381   5.789
18374SOL    HW257057   6.134   1.281   5.781
18375SOL     OW57058   7.321   1.222   6.301
18375SOL    HW157059   7.412   1.215   6.260
18375SOL    HW257060   7.281   1.311   6.280
18376SOL     OW57061   6.974   0.591   5.624
18376SOL    HW157062   6.929   0.572   5.711
18376SOL    HW257063   7.073   0.596   5.637
18377SOL     OW57064   6.178   0.251   5.925
18377SOL    HW157065   6.175   0.193   5.843
18377SOL    HW257066   6.239   0.328   5.909
18378SOL     OW57067   7.323   1.227   7.104
18378SOL    HW157068   7.412   1.182   7.101
18378SOL    HW257069   7.334   1.321   7.136
18379SOL     OW57070   6.598   1.347   6.914
18379SOL    HW157071   6.516   1.320   6.963
18379SOL    HW257072   6.678   1.305   6.957
18380SOL     OW57073   7.193   1.613   7.226
18380SOL    HW157074   7.174   1.659   7.139
18380SOL    HW257075   7.279   1.562   7.220
18381SOL     OW57076   6.715   1.284   6.672
18381SOL    HW157077   6.655   1.304   6.750
18381SOL    HW257078   6.668   1.304   6.587
18382SOL     OW57079   7.176   1.086   6.674
18382SOL    HW157080   7.168   1.158   6.743
18382SOL    HW257081   7.117   1.107   6.596
18383SOL     OW57082   6.482   0.187   6.968
18383SOL    HW157083   6.488   0.119   6.896
18383SOL    HW257084   6.573   0.212   6.999
18384SOL     OW57085   6.526   1.112   7.336
18384SOL    HW157086   6.432   1.123   7.365
18384SOL    HW257087   6.533   1.033   7.274
18385SOL     OW57088   6.326   1.058   6.014
18385SOL    HW157089   6.301   1.012   6.099
18385SOL    HW257090   6.412   1.021   5.980
18386SOL     OW57091   6.022   0.854   6.882
18386SOL    HW157092   6.089   0.850   6.956
18386SOL    HW257093   5.979   0.765   6.871
18387SOL     OW57094   6.848   0.424   6.848
18387SOL    HW157095   6.866   0.502   6.908
18387SOL    HW257096   6.755   0.432   6.811
18388SOL     OW57097   5.668   1.549   6.919
18388SOL    HW157098   5.645   1.644   6.896
18388SOL    HW257099   5.762   1.530   6.891
18389SOL     OW57100   5.895   1.147   6.096
18389SOL    HW157101   5.885   1.244   6.074
18389SOL    HW257102   5.899   1.093   6.012
18390SOL     OW57103   6.135   0.477   6.456
18390SOL    HW157104   6.134   0.533   6.373
18390SOL    HW257105   6.195   0.521   6.524
18391SOL     OW57106   6.833   1.367   5.962
18391SOL    HW157107   6.913   1.418   5.993
18391SOL    HW257108   6.750   1.410   5.997
18392SOL     OW57109   6.897   1.481   6.705
18392SOL    HW157110   6.939   1.482   6.796
18392SOL    HW257111   6.831   1.407   6.699
18393SOL     OW57112   5.922   1.558   6.804
18393SOL    HW157113   5.923   1.478   6.744
18393SOL    HW257114   6.016   1.581   6.830
18394SOL     OW57115   6.073   0.703   7.275
18394SOL    HW157116   6.113   0.748   7.195
18394SOL    HW257117   6.137   0.635   7.310
18395SOL     OW57118   7.198   0.820   7.287
18395SOL    HW157119   7.103   0.851   7.283
18395SOL    HW257120   7.247   0.851   7.205
18396SOL     OW57121   6.525   0.007   7.332
18396SOL    HW157122   6.580   0.069   7.389
18396SOL    HW257123   6.576   9.986   7.248
18397SOL     OW57124   6.039   0.068   7.321
18397SOL    HW157125   6.098   0.077   7.240
18397SOL    HW257126   6.000   0.157   7.343
18398SOL     OW57127   6.178   0.881   6.656
18398SOL    HW157128   6.224   0.969   6.653
18398SOL    HW257129   6.124   0.874   6.740
18399SOL     OW57130   6.870   0.852   6.598
18399SOL    HW157131   6.778   0.821   6.574
18399SOL    HW257132   6.936   0.781   6.575
18400SOL     OW57133   6.801   0.561   5.843
18400SOL    HW157134   6.808   0.479   5.900
18400SOL    HW257135   6.762   0.636   5.897
18401SOL     OW57136   5.892   0.187   6.864
18401SOL    HW157137   5.874   0.219   6.957
18401SOL    HW257138   5.904   0.088   6.864
18402SOL     OW57139   6.296   0.632   6.619
18402SOL    HW157140   6.367   0.619   6.550
18402SOL    HW257141   6.258   0.724   6.611
18403SOL     OW57142   7.371   0.980   7.434
18403SOL    HW157143   7.318   0.914   7.381
18403SOL    HW257144   7.316   1.015   7.510
18404SOL     OW57145   5.897   0.060   6.198
18404SOL    HW157146   5.868   0.155   6.190
18404SOL    HW257147   5.914   0.039   6.295
18405SOL     OW57148   7.153   0.309   5.935
18405SOL    HW157149   7.242   0.275   5.967
18405SOL    HW257150   7.080   0.269   5.990
18406SOL     OW57151   6.614   0.764   6.533
18406SOL    HW157152   6.584   0.781   6.627
18406SOL    HW257153   6.581   0.675   6.503
18407SOL     OW57154   6.557   1.513   7.389
18407SOL    HW157155   6.518   1.578   7.324
18407SOL    HW257156   6.604   1.440   7.339
18408SOL     OW57157   7.425   1.481   7.157
18408SOL    HW157158   7.444   1.510   7.064
18408SOL    HW257159   7.505   1.500   7.215
18409SOL     OW57160   5.909   0.941   7.296
18409SOL    HW157161   5.965   1.023   7.289
18409SOL    HW257162   5.968   0.861   7.306
18410SOL     OW57163   7.004   0.212   5.717
18410SOL    HW157164   6.984   0.126   5.765
18410SOL    HW257165   7.062   0.269   5.775
18411SOL     OW57166   6.849   0.826   5.573
18411SOL    HW157167   6.888   0.735   5.584
18411SOL    HW257168   6.884   0.867   5.488
18412SOL     OW57169   6.609   1.361   6.416
18412SOL    HW157170   6.635   1.270   6.383
18412SOL    HW257171   6.678   1.427   6.387
18413SOL     OW57172   5.933   0.814   6.545
18413SOL    HW157173   6.028   0.834   6.566
18413SOL    HW257174   5.913   0.718   6.565
18414SOL     OW57175   5.911   0.540   6.599
18414SOL    HW157176   5.847   0.464   6.615
18414SOL    HW257177   5.986   0.509   6.540
18415SOL     OW57178   6.802   0.361   7.296
18415SOL    HW157179   6.736   0.413   7.350
18415SOL    HW257180   6.874   0.422   7.262
18416SOL     OW57181   6.745   0.243   7.030
18416SOL    HW157182   6.760   0.271   7.125
18416SOL    HW257183   6.790   0.309   6.969
18417SOL     OW57184   5.571   1.314   5.761
18417SOL    HW157185   5.474   1.339   5.751
18417SOL    HW257186   5.578   1.221   5.796
18418SOL     OW57187   5.650   1.765   6.544
18418SOL    HW157188   5.602   1.684   6.510
18418SOL    HW257189   5.742   1.767   6.507
18419SOL     OW57190   6.069   1.547   6.479
18419SOL    HW157191   6.135   1.620   6.492
18419SOL    HW257192   6.109   1.476   6.420
18420SOL     OW57193   6.496   0.805   6.774
18420SOL    HW157194   6.548   0.779   6.855
18420SOL    HW257195   6.414   0.748   6.768
18421SOL     OW57196   5.552   0.507   6.772
18421SOL    HW157197   5.619   0.450   6.725
18421SOL    HW257198   5.597   0.556   6.847
18422SOL     OW57199   5.813   0.620   7.329
18422SOL    HW157200   5.910   0.632   7.309
18422SOL    HW257201   5.759   0.681   7.271
18423SOL     OW57202   6.956   0.938   7.220
18423SOL    HW157203   6.982   1.034   7.221
18423SOL    HW257204   6.940   0.908   7.126
18424SOL     OW57205   6.425   0.613   5.952
18424SOL    HW157206   6.425   0.540   5.883
18424SOL    HW257207   6.343   0.669   5.941
18425SOL     OW57208   7.191   0.596   6.762
18425SOL    HW157209   7.169   0.548   6.846
18425SOL    HW257210   7.277   0.561   6.724
18426SOL     OW57211   5.835   1.530   7.285
18426SOL    HW157212   5.808   1.606   7.344
18426SOL    HW257213   5.846   1.447   7.341
18427SOL     OW57214   6.324   0.461   6.825
18427SOL    HW157215   6.261   0.383   6.819
18427SOL    HW257216   6.305   0.524   6.750
18428SOL     OW57217   6.466   1.694   7.193
18428SOL    HW157218   6.434   1.697   7.098
18428SOL    HW257219   6.552   1.744   7.200
18429SOL     OW57220   6.841   1.059   6.772
18429SOL    HW157221   6.857   0.987   6.705
18429SOL    HW257222   6.798   1.137   6.727
18430SOL     OW57223   6.913   0.885   5.833
18430SOL    HW157224   6.839   0.867   5.898
18430SOL    HW257225   6.883   0.863   5.740
18431SOL     OW57226   7.326   1.696   6.737
18431SOL    HW157227   7.398   1.730   6.676
18431SOL    HW257228   7.294   1.608   6.704
18432SOL     OW57229   6.846   1.754   6.725
18432SOL    HW157230   6.938   1.794   6.723
18432SOL    HW257231   6.853   1.655   6.712
18433SOL     OW57232   6.244   1.679   7.348
18433SOL    HW157233   6.181   1.755   7.333
18433SOL    HW257234   6.325   1.691   7.290
18434SOL     OW57235   7.394   0.221   6.040
18434SOL    HW157236   7.444   0.236   5.954
18434SOL    HW257237   7.422   0.134   6.080
18435SOL     OW57238   7.045   1.527   6.051
18435SOL    HW157239   7.112   1.576   5.996
18435SOL    HW257240   6.970   1.589   6.075
18436SOL     OW57241   5.747   1.745   7.430
18436SOL    HW157242   5.699   1.677   7.485
18436SOL    HW257243   5.795   1.808   7.491
18437SOL     OW57244   6.927   0.973   6.257
18437SOL    HW157245   7.005   0.911   6.252
18437SOL    HW257246   6.928   1.034   6.178
18438SOL     OW57247   6.352   1.286   7.015
18438SOL    HW157248   6.326   1.330   7.100
18438SOL    HW257249   6.281   1.300   6.946
18439SOL     OW57250   6.256   1.598   5.771
18439SOL    HW157251   6.270   1.629   5.677
18439SOL    HW257252   6.201   1.515   5.771
18440SOL     OW57253   7.170   1.716   6.968
18440SOL    HW157254   7.233   1.701   6.892
18440SOL    HW257255   7.163   1.814   6.987
18441SOL     OW57256   7.394   0.182   6.549
18441SOL    HW157257   7.396   0.084   6.527
18441SOL    HW257258   7.320   0.226   6.499
18442SOL     OW57259   5.819   0.323   6.239
18442SOL    HW157260   5.734   0.373   6.224
18442SOL    HW257261   5.840   0.322   6.337
18443SOL     OW57262   6.836   1.577   5.646
18443SOL    HW157263   6.815   1.483   5.673
18443SOL    HW257264   6.773   1.606   5.574
18444SOL     OW57265   6.378   1.016   6.981
18444SOL    HW157266   6.416   1.000   6.890
18444SOL    HW257267   6.370   1.114   6.997
18445SOL     OW57268   6.554   0.968   5.913
18445SOL    HW157269   6.580   0.975   5.816
18445SOL    HW257270   6.598   0.888   5.953
18446SOL     OW57271   7.085   1.674   5.670
18446SOL    HW157272   6.992   1.637   5.661
18446SOL    HW257273   7.119   1.701   5.580
18447SOL     OW57274   5.995   1.207   7.027
18447SOL    HW157275   6.049   1.258   6.960
18447SOL    HW257276   5.929   1.149   6.979
18448SOL     OW57277   7.176   1.294   6.864
18448SOL    HW157278   7.239   1.266   6.937
18448SOL    HW257279   7.109   1.358   6.901
18449SOL     OW57280   6.681   1.114   6.349
18449SOL    HW157281   6.604   1.055   6.375
18449SOL    HW257282   6.758   1.057   6.321
18450SOL     OW57283   6.617   0.248   6.567
18450SOL    HW157284   6.573   0.186   6.502
18450SOL    HW257285   6.653   0.196   6.644
18451SOL     OW57286   6.227   1.480   6.106
18451SOL    HW157287   6.269   1.424   6.033
18451SOL    HW257288   6.162   1.544   6.065
18452SOL     OW57289   7.305   0.386   6.983
18452SOL    HW157290   7.392   0.431   6.964
18452SOL    HW257291   7.287   0.316   6.914
18453SOL     OW57292   5.830   1.366   5.816
18453SOL    HW157293   5.735   1.353   5.789
18453SOL    HW257294   5.834   1.389   5.913
18454SOL     OW57295   5.677   1.090   7.371
18454SOL    HW157296   5.604   1.045   7.423
18454SOL    HW257297   5.752   1.025   7.358
18455SOL     OW57298   6.257   0.262   7.087
18455SOL    HW157299   6.341   0.236   7.040
18455SOL    HW257300   6.273   0.264   7.186
18456SOL     OW57301   6.944   0.878   6.955
18456SOL    HW157302   6.888   0.938   6.898
18456SOL    HW257303   7.036   0.871   6.916
18457SOL     OW57304   5.589   0.131   5.798
18457SOL    HW157305   5.523   0.063   5.767
18457SOL    HW257306   5.680   0.107   5.764
18458SOL     OW57307   6.745   1.324   5.708
18458SOL    HW157308   6.645   1.323   5.703
18458SOL    HW257309   6.774   1.326   5.804
18459SOL     OW57310   6.217   0.812   7.064
18459SOL    HW157311   6.271   0.894   7.043
18459SOL    HW257312   6.277   0.732   7.062
18460SOL     OW57313   7.100   1.860   6.667
18460SOL    HW157314   7.131   1.907   6.584
18460SOL    HW257315   7.176   1.806   6.705
18461SOL     OW57316   6.299   0.528   7.320
18461SOL    HW157317   6.364   0.590   7.363
18461SOL    HW257318   6.321   0.434   7.345
18462SOL     OW57319   7.041   1.198   7.197
18462SOL    HW157320   7.034   1.215   7.295
18462SOL    HW257321   7.135   1.215   7.167
18463SOL     OW57322   5.934   1.754   7.147
18463SOL    HW157323   5.844   1.798   7.142
18463SOL    HW257324   5.924   1.659   7.177
18464SOL     OW57325   7.187   0.864   6.835
18464SOL    HW157326   7.194   0.774   6.792
18464SOL    HW257327   7.185   0.935   6.765
18465SOL     OW57328   6.801   0.366   6.041
18465SOL    HW157329   6.860   0.286   6.047
18465SOL    HW257330   6.818   0.427   6.118
18466SOL     OW57331   6.145   0.687   6.271
18466SOL    HW157332   6.196   0.772   6.267
18466SOL    HW257333   6.080   0.683   6.194
18467SOL     OW57334   7.264   0.409   7.252
18467SOL    HW157335   7.281   0.402   7.153
18467SOL    HW257336   7.201   0.336   7.280
18468SOL     OW57337   7.305   0.934   7.067
18468SOL    HW157338   7.298   1.032   7.081
18468SOL    HW257339   7.264   0.909   6.980
18469SOL     OW57340   6.468   1.371   5.695
18469SOL    HW157341   6.429   1.356   5.786
18469SOL    HW257342   6.453   1.465   5.667
18470SOL     OW57343   6.238   1.756   6.483
18470SOL    HW157344   6.192   1.843   6.501
18470SOL    HW257345   6.320   1.773   6.428
18471SOL     OW57346   6.457   0.982   6.463
18471SOL    HW157347   6.510   0.902   6.491
18471SOL    HW257348   6.414   1.024   6.543
18472SOL     OW57349   6.630   0.962   5.654
18472SOL    HW157350   6.606   1.033   5.588
18472SOL    HW257351   6.713   0.915   5.623
18473SOL     OW57352   7.387   1.572   6.443
18473SOL    HW157353   7.339   1.544   6.360
18473SOL    HW257354   7.356   1.516   6.520
18474SOL     OW57355   5.846   1.300   7.434
18474SOL    HW157356   5.772   1.235   7.417
18474SOL    HW257357   5.853   1.317   7.533
18475SOL     OW57358   5.680   1.231   6.255
18475SOL    HW157359   5.649   1.175   6.331
18475SOL    HW257360   5.751   1.182   6.204
18476SOL     OW57361   6.241   1.410   7.229
18476SOL    HW157362   6.167   1.350   7.258
18476SOL    HW257363   6.235   1.497   7.278
18477SOL     OW57364   7.252   0.189   6.793
18477SOL    HW157365   7.221   0.094   6.791
18477SOL    HW257366   7.320   0.204   6.721
18478SOL     OW57367   5.981   0.414   6.036
18478SOL    HW157368   6.044   0.345   5.999
18478SOL    HW257369   5.925   0.373   6.108
18479SOL     OW57370   7.245   1.455   6.648
18479SOL    HW157371   7.167   1.443   6.586
18479SOL    HW257372   7.236   1.391   6.725
18480SOL     OW57373   5.928   0.605   6.861
18480SOL    HW157374   5.983   0.543   6.916
18480SOL    HW257375   5.929   0.576   6.766
18481SOL     OW57376   6.455   1.544   6.258
18481SOL    HW157377   6.369   1.515   6.217
18481SOL    HW257378   6.489   1.471   6.318
18482SOL     OW57379   7.034   0.316   6.681
18482SOL    HW157380   7.108   0.269   6.729
18482SOL    HW257381   6.968   0.350   6.747
18483SOL     OW57382   6.701   0.102   6.778
18483SOL    HW157383   6.695   0.002   6.770
18483SOL    HW257384   6.729   0.127   6.871
18484SOL     OW57385   6.384   1.318   5.948
18484SOL    HW157386   6.367   1.224   5.977
18484SOL    HW257387   6.470   1.349   5.987
18485SOL     OW57388   6.192   1.600   6.860
18485SOL    HW157389   6.185   1.686   6.910
18485SOL    HW257390   6.284   1.593   6.820
18486SOL     OW57391   6.960   9.989   5.863
18486SOL    HW157392   7.043   9.952   5.822
18486SOL    HW257393   6.890   9.917   5.865
18487SOL     OW57394   6.863   0.516   6.258
18487SOL    HW157395   6.818   0.605   6.261
18487SOL    HW257396   6.850   0.469   6.346
18488SOL     OW57397   7.169   0.295   6.438
18488SOL    HW157398   7.116   0.304   6.523
18488SOL    HW257399   7.167   0.382   6.389
18489SOL     OW57400   5.623   1.069   5.884
18489SOL    HW157401   5.722   1.082   5.877
18489SOL    HW257402   5.602   0.971   5.879
18490SOL     OW57403   6.486   1.695   5.877
18490SOL    HW157404   6.402   1.656   5.838
18490SOL    HW257405   6.466   1.786   5.913
18491SOL     OW57406   5.803   0.683   7.595
18491SOL    HW157407   5.713   0.652   7.627
18491SOL    HW257408   5.807   0.676   7.495
18492SOL     OW57409   5.767   0.296   8.510
18492SOL    HW157410   5.827   0.254   8.577
18492SOL    HW257411   5.706   0.227   8.472
18493SOL     OW57412   5.622   0.448   7.944
18493SOL    HW157413   5.525   0.472   7.942
18493SOL    HW257414   5.647   0.405   7.858
18494SOL     OW57415   6.142   1.321   8.669
18494SOL    HW157416   6.052   1.316   8.625
18494SOL    HW257417   6.162   1.417   8.692
18495SOL     OW57418   6.747   0.738   8.117
18495SOL    HW157419   6.808   0.806   8.076
18495SOL    HW257420   6.699   0.779   8.195
18496SOL     OW57421   7.414   0.623   7.667
18496SOL    HW157422   7.352   0.628   7.589
18496SOL    HW257423   7.409   0.532   7.708
18497SOL     OW57424   6.278   1.140   8.506
18497SOL    HW157425   6.223   1.180   8.579
18497SOL    HW257426   6.328   1.213   8.458
18498SOL     OW57427   6.494   0.718   9.261
18498SOL    HW157428   6.524   0.784   9.330
18498SOL    HW257429   6.499   0.760   9.170
18499SOL     OW57430   6.267   0.935   8.105
18499SOL    HW157431   6.331   0.958   8.178
18499SOL    HW257432   6.187   0.995   8.112
18500SOL     OW57433   6.323   1.175   9.291
18500SOL    HW157434   6.377   1.242   9.342
18500SOL    HW257435   6.251   1.223   9.240
18501SOL     OW57436   5.908   1.374   8.529
18501SOL    HW157437   5.841   1.305   8.501
18501SOL    HW257438   5.950   1.415   8.449
18502SOL     OW57439   7.036   1.494   8.852
18502SOL    HW157440   7.094   1.574   8.864
18502SOL    HW257441   6.958   1.499   8.914
18503SOL     OW57442   6.076   0.434   8.842
18503SOL    HW157443   6.128   0.371   8.785
18503SOL    HW257444   6.023   0.383   8.909
18504SOL     OW57445   7.140   0.435   8.098
18504SOL    HW157446   7.041   0.449   8.094
18504SOL    HW257447   7.187   0.521   8.079
18505SOL     OW57448   5.821   1.741   7.921
18505SOL    HW157449   5.846   1.805   7.993
18505SOL    HW257450   5.893   1.740   7.851
18506SOL     OW57451   6.724   1.330   9.193
18506SOL    HW157452   6.764   1.320   9.284
18506SOL    HW257453   6.671   1.248   9.171
18507SOL     OW57454   5.872   1.472   7.956
18507SOL    HW157455   5.834   1.565   7.959
18507SOL    HW257456   5.824   1.414   8.021
18508SOL     OW57457   5.875   1.073   8.301
18508SOL    HW157458   5.888   0.975   8.315
18508SOL    HW257459   5.823   1.111   8.378
18509SOL     OW57460   6.171   1.823   8.872
18509SOL    HW157461   6.087   1.809   8.925
18509SOL    HW257462   6.245   1.851   8.933
18510SOL     OW57463   6.170   0.977   7.644
18510SOL    HW157464   6.205   1.023   7.563
18510SOL    HW257465   6.220   1.010   7.725
18511SOL     OW57466   7.109   0.175   8.902
18511SOL    HW157467   7.187   0.231   8.873
18511SOL    HW257468   7.084   0.199   8.995
18512SOL     OW57469   5.732   0.703   8.006
18512SOL    HW157470   5.705   0.607   8.002
18512SOL    HW257471   5.713   0.740   8.096
18513SOL     OW57472   7.417   1.790   7.761
18513SOL    HW157473   7.497   1.786   7.820
18513SOL    HW257474   7.419   1.874   7.707
18514SOL     OW57475   5.642   1.562   7.592
18514SOL    HW157476   5.617   1.467   7.609
18514SOL    HW257477   5.612   1.619   7.669
18515SOL     OW57478   7.342   1.023   8.095
18515SOL    HW157479   7.387   0.938   8.067
18515SOL    HW257480   7.291   1.061   8.018
18516SOL     OW57481   7.281   1.149   7.856
18516SOL    HW157482   7.374   1.124   7.830
18516SOL    HW257483   7.273   1.248   7.863
18517SOL     OW57484   5.670   0.797   8.946
18517SOL    HW157485   5.728   0.850   8.885
18517SOL    HW257486   5.582   0.844   8.958
18518SOL     OW57487   6.212   1.345   8.162
18518SOL    HW157488   6.173   1.254   8.156
18518SOL    HW257489   6.191   1.396   8.079
18519SOL     OW57490   6.805   1.224   8.882
18519SOL    HW157491   6.828   1.151   8.818
18519SOL    HW257492   6.869   1.223   8.959
18520SOL     OW57493   6.420   0.078   7.974
18520SOL    HW157494   6.459   0.168   7.955
18520SOL    HW257495   6.320   0.085   7.974
18521SOL     OW57496   5.801   0.975   8.778
18521SOL    HW157497   5.890   0.932   8.760
18521SOL    HW257498   5.768   1.019   8.694
18522SOL     OW57499   7.184   1.053   7.620
18522SOL    HW157500   7.112   0.984   7.634
18522SOL    HW257501   7.215   1.087   7.709
18523SOL     OW57502   6.868   1.900   9.090
18523SOL    HW157503   6.822   1.944   9.013
18523SOL    HW257504   6.872   1.802   9.074
18524SOL     OW57505   5.946   0.282   9.266
18524SOL    HW157506   5.989   0.334   9.340
18524SOL    HW257507   5.856   0.320   9.247
18525SOL     OW57508   6.998   1.428   8.374
18525SOL    HW157509   6.954   1.445   8.462
18525SOL    HW257510   7.000   1.330   8.355
18526SOL     OW57511   6.171   0.706   7.706
18526SOL    HW157512   6.177   0.801   7.674
18526SOL    HW257513   6.110   0.701   7.784
18527SOL     OW57514   6.861   0.403   8.367
18527SOL    HW157515   6.781   0.344   8.375
18527SOL    HW257516   6.932   0.372   8.430
18528SOL     OW57517   7.151   1.705   7.719
18528SOL    HW157518   7.247   1.729   7.736
18528SOL    HW257519   7.143   1.662   7.629
18529SOL     OW57520   6.385   0.591   8.912
18529SOL    HW157521   6.342   0.551   8.993
18529SOL    HW257522   6.363   0.535   8.832
18530SOL     OW57523   6.931   0.466   9.143
18530SOL    HW157524   6.946   0.512   9.230
18530SOL    HW257525   6.977   0.377   9.143
18531SOL     OW57526   6.531   0.879   9.033
18531SOL    HW157527   6.586   0.818   8.976
18531SOL    HW257528   6.470   0.933   8.975
18532SOL     OW57529   6.606   0.444   8.560
18532SOL    HW157530   6.518   0.450   8.607
18532SOL    HW257531   6.612   0.357   8.512
18533SOL     OW57532   6.625   0.699   7.863
18533SOL    HW157533   6.641   0.686   7.961
18533SOL    HW257534   6.540   0.652   7.838
18534SOL     OW57535   5.673   0.827   8.248
18534SOL    HW157536   5.762   0.810   8.288
18534SOL    HW257537   5.619   0.886   8.308
18535SOL     OW57538   5.692   1.923   9.048
18535SOL    HW157539   5.709   1.876   9.135
18535SOL    HW257540   5.593   1.927   9.031
18536SOL     OW57541   6.499   0.345   7.620
18536SOL    HW157542   6.544   0.413   7.563
18536SOL    HW257543   6.526   0.254   7.592
18537SOL     OW57544   7.358   0.594   9.204
18537SOL    HW157545   7.301   0.674   9.187
18537SOL    HW257546   7.451   0.612   9.170
18538SOL     OW57547   6.927   1.174   8.086
18538SOL    HW157548   6.912   1.082   8.050
18538SOL    HW257549   6.892   1.241   8.021
18539SOL     OW57550   6.165   0.209   8.405
18539SOL    HW157551   6.185   0.231   8.500
18539SOL    HW257552   6.165   0.293   8.351
18540SOL     OW57553   6.585   1.479   7.922
18540SOL    HW157554   6.569   1.556   7.860
18540SOL    HW257555   6.535   1.494   8.007
18541SOL     OW57556   5.950   1.766   8.337
18541SOL    HW157557   5.977   1.670   8.330
18541SOL    HW257558   6.026   1.820   8.373
18542SOL     OW57559   7.398   1.054   8.363
18542SOL    HW157560   7.365   1.051   8.269
18542SOL    HW257561   7.321   1.072   8.425
18543SOL     OW57562   6.822   1.526   9.014
18543SOL    HW157563   6.802   1.448   9.074
18543SOL    HW257564   6.736   1.566   8.982
18544SOL     OW57565   5.898   0.928   7.697
18544SOL    HW157566   5.992   0.945   7.669
18544SOL    HW257567   5.869   0.838   7.665
18545SOL     OW57568   7.092   0.839   8.210
18545SOL    HW157569   7.058   0.769   8.272
18545SOL    HW257570   7.127   0.917   8.263
18546SOL     OW57571   6.114   1.318   9.152
18546SOL    HW157572   6.087   1.319   9.056
18546SOL    HW257573   6.034   1.301   9.210
18547SOL     OW57574   6.764   1.746   7.689
18547SOL    HW157575   6.670   1.735   7.721
18547SOL    HW257576   6.786   1.674   7.624
18548SOL     OW57577   5.912   0.264   8.992
18548SOL    HW157578   5.824   0.309   9.011
18548SOL    HW257579   5.963   0.253   9.078
18549SOL     OW57580   7.239   1.368   7.556
18549SOL    HW157581   7.206   1.460   7.534
18549SOL    HW257582   7.174   1.300   7.523
18550SOL     OW57583   6.045   1.775   7.765
18550SOL    HW157584   6.093   1.827   7.836
18550SOL    HW257585   6.112   1.724   7.710
18551SOL     OW57586   6.908   0.104   7.868
18551SOL    HW157587   6.900   0.093   7.768
18551SOL    HW257588   6.988   0.053   7.900
18552SOL     OW57589   5.782   1.802   8.668
18552SOL    HW157590   5.836   1.724   8.699
18552SOL    HW257591   5.754   1.788   8.573
18553SOL     OW57592   6.557   1.669   8.306
18553SOL    HW157593   6.645   1.624   8.294
18553SOL    HW257594   6.488   1.623   8.250
18554SOL     OW57595   6.000   0.675   7.917
18554SOL    HW157596   5.999   0.576   7.928
18554SOL    HW257597   5.910   0.712   7.939
18555SOL     OW57598   6.198   0.119   7.543
18555SOL    HW157599   6.240   0.046   7.597
18555SOL    HW257600   6.136   0.079   7.475
18556SOL     OW57601   6.412   1.508   8.600
18556SOL    HW157602   6.401   1.450   8.519
18556SOL    HW257603   6.485   1.471   8.658
18557SOL     OW57604   6.876   0.587   8.897
18557SOL    HW157605   6.906   0.552   8.986
18557SOL    HW257606   6.911   0.680   8.884
18558SOL     OW57607   6.394   1.345   8.376
18558SOL    HW157608   6.488   1.342   8.341
18558SOL    HW257609   6.330   1.347   8.299
18559SOL     OW57610   6.524   0.603   8.335
18559SOL    HW157611   6.509   0.564   8.245
18559SOL    HW257612   6.567   0.535   8.394
18560SOL     OW57613   6.157   0.107   7.941
18560SOL    HW157614   6.076   0.084   7.996
18560SOL    HW257615   6.130   0.168   7.867
18561SOL     OW57616   7.022   1.210   7.469
18561SOL    HW157617   7.075   1.142   7.519
18561SOL    HW257618   6.946   1.241   7.526
18562SOL     OW57619   5.861   0.114   7.730
18562SOL    HW157620   5.936   0.180   7.729
18562SOL    HW257621   5.898   0.022   7.735
18563SOL     OW57622   6.533   0.312   7.894
18563SOL    HW157623   6.506   0.328   7.799
18563SOL    HW257624   6.632   0.329   7.903
18564SOL     OW57625   6.628   0.700   8.854
18564SOL    HW157626   6.549   0.644   8.879
18564SOL    HW257627   6.712   0.647   8.867
18565SOL     OW57628   6.798   1.558   8.231
18565SOL    HW157629   6.823   1.633   8.170
18565SOL    HW257630   6.880   1.521   8.274
18566SOL     OW57631   6.068   1.117   8.117
18566SOL    HW157632   6.000   1.103   8.190
18566SOL    HW257633   6.021   1.122   8.029
18567SOL     OW57634   6.839   1.785   8.066
18567SOL    HW157635   6.900   1.858   8.038
18567SOL    HW257636   6.751   1.824   8.094
18568SOL     OW57637   6.648   0.515   7.463
18568SOL    HW157638   6.595   0.595   7.437
18568SOL    HW257639   6.702   0.536   7.545
18569SOL     OW57640   5.670   0.553   8.813
18569SOL    HW157641   5.762   0.561   8.774
18569SOL    HW257642   5.652   0.633   8.871
18570SOL     OW57643   6.200   0.250   8.677
18570SOL    HW157644   6.282   0.199   8.701
18570SOL    HW257645   6.119   0.193   8.693
18571SOL     OW57646   6.459   0.514   8.088
18571SOL    HW157647   6.372   0.562   8.072
18571SOL    HW257648   6.472   0.445   8.017
18572SOL     OW57649   6.528   0.057   8.244
18572SOL    HW157650   6.486   0.066   8.154
18572SOL    HW257651   6.538   9.960   8.268
18573SOL     OW57652   6.995   1.142   8.344
18573SOL    HW157653   6.939   1.066   8.378
18573SOL    HW257654   6.972   1.159   8.248
18574SOL     OW57655   6.990   0.664   8.393
18574SOL    HW157656   6.937   0.580   8.379
18574SOL    HW257657   7.058   0.648   8.464
18575SOL     OW57658   7.426   0.801   7.874
18575SOL    HW157659   7.499   0.765   7.933
18575SOL    HW257660   7.418   0.743   7.793
18576SOL     OW57661   6.141   1.437   7.677
18576SOL    HW157662   6.051   1.393   7.667
18576SOL    HW257663   6.207   1.393   7.617
18577SOL     OW57664   6.968   0.607   7.501
18577SOL    HW157665   6.915   0.582   7.582
18577SOL    HW257666   7.066   0.609   7.524
18578SOL     OW57667   6.080   0.278   7.727
18578SOL    HW157668   6.132   0.222   7.662
18578SOL    HW257669   6.056   0.365   7.684
18579SOL     OW57670   7.339   1.229   8.982
18579SOL    HW157671   7.430   1.187   8.978
18579SOL    HW257672   7.347   1.320   9.022
18580SOL     OW57673   6.583   1.345   8.760
18580SOL    HW157674   6.498   1.314   8.802
18580SOL    HW257675   6.660   1.315   8.817
18581SOL     OW57676   7.218   1.597   9.175
18581SOL    HW157677   7.170   1.642   9.100
18581SOL    HW257678   7.303   1.557   9.141
18582SOL     OW57679   6.725   1.258   8.547
18582SOL    HW157680   6.656   1.291   8.612
18582SOL    HW257681   6.696   1.279   8.454
18583SOL     OW57682   7.189   1.114   8.533
18583SOL    HW157683   7.195   1.191   8.596
18583SOL    HW257684   7.115   1.131   8.467
18584SOL     OW57685   6.451   0.161   8.728
18584SOL    HW157686   6.511   0.105   8.670
18584SOL    HW257687   6.507   0.210   8.795
18585SOL     OW57688   6.568   1.102   9.187
18585SOL    HW157689   6.475   1.127   9.214
18585SOL    HW257690   6.564   1.024   9.125
18586SOL     OW57691   6.326   1.051   7.860
18586SOL    HW157692   6.295   1.010   7.946
18586SOL    HW257693   6.416   1.016   7.837
18587SOL     OW57694   6.028   0.836   8.727
18587SOL    HW157695   6.095   0.830   8.801
18587SOL    HW257696   5.981   0.748   8.716
18588SOL     OW57697   6.830   0.390   8.714
18588SOL    HW157698   6.853   0.464   8.778
18588SOL    HW257699   6.757   0.420   8.653
18589SOL     OW57700   5.632   1.543   8.782
18589SOL    HW157701   5.583   1.615   8.732
18589SOL    HW257702   5.730   1.558   8.774
18590SOL     OW57703   5.915   1.130   7.889
18590SOL    HW157704   5.910   1.206   7.824
18590SOL    HW257705   5.908   1.044   7.840
18591SOL     OW57706   6.153   0.477   8.305
18591SOL    HW157707   6.165   0.511   8.212
18591SOL    HW257708   6.204   0.535   8.369
18592SOL     OW57709   6.839   1.371   7.903
18592SOL    HW157710   6.903   1.447   7.915
18592SOL    HW257711   6.745   1.403   7.918
18593SOL     OW57712   6.892   1.468   8.618
18593SOL    HW157713   6.938   1.470   8.707
18593SOL    HW257714   6.832   1.389   8.614
18594SOL     OW57715   7.245   0.675   8.045
18594SOL    HW157716   7.198   0.743   8.103
18594SOL    HW257717   7.302   0.723   7.978
18595SOL     OW57718   5.906   1.557   8.727
18595SOL    HW157719   5.897   1.489   8.654
18595SOL    HW257720   6.002   1.579   8.741
18596SOL     OW57721   6.071   0.709   9.131
18596SOL    HW157722   6.109   0.758   9.053
18596SOL    HW257723   6.134   0.637   9.160
18597SOL     OW57724   7.219   0.823   9.158
18597SOL    HW157725   7.121   0.843   9.164
18597SOL    HW257726   7.257   0.868   9.077
18598SOL     OW57727   6.823   0.055   9.196
18598SOL    HW157728   6.783   0.115   9.265
18598SOL    HW257729   6.757   0.039   9.123
18599SOL     OW57730   6.153   0.891   8.491
18599SOL    HW157731   6.196   0.981   8.489
18599SOL    HW257732   6.108   0.878   8.579
18600SOL     OW57733   6.873   0.907   8.435
18600SOL    HW157734   6.775   0.896   8.422
18600SOL    HW257735   6.919   0.818   8.423
18601SOL     OW57736   6.787   0.551   7.699
18601SOL    HW157737   6.801   0.470   7.756
18601SOL    HW257738   6.734   0.619   7.750
18602SOL     OW57739   5.926   0.175   8.727
18602SOL    HW157740   5.916   0.213   8.819
18602SOL    HW257741   5.919   0.076   8.731
18603SOL     OW57742   5.652   1.272   8.737
18603SOL    HW157743   5.675   1.232   8.826
18603SOL    HW257744   5.634   1.370   8.748
18604SOL     OW57745   6.290   0.653   8.469
18604SOL    HW157746   6.371   0.653   8.411
18604SOL    HW257747   6.245   0.742   8.463
18605SOL     OW57748   7.369   0.981   9.332
18605SOL    HW157749   7.313   0.920   9.276
18605SOL    HW257750   7.315   1.016   9.408
18606SOL     OW57751   5.929   0.073   8.093
18606SOL    HW157752   5.875   0.156   8.083
18606SOL    HW257753   5.946   0.055   8.190
18607SOL     OW57754   6.611   0.842   8.412
18607SOL    HW157755   6.579   0.853   8.506
18607SOL    HW257756   6.585   0.752   8.378
18608SOL     OW57757   6.602   1.574   9.229
18608SOL    HW157758   6.580   1.614   9.140
18608SOL    HW257759   6.629   1.479   9.217
18609SOL     OW57760   7.436   1.484   9.054
18609SOL    HW157761   7.453   1.503   8.957
18609SOL    HW257762   7.521   1.498   9.106
18610SOL     OW57763   5.985   0.892   9.323
18610SOL    HW157764   6.070   0.928   9.363
18610SOL    HW257765   6.007   0.825   9.252
18611SOL     OW57766   6.839   0.840   7.444
18611SOL    HW157767   6.875   0.747   7.454
18611SOL    HW257768   6.871   0.879   7.358
18612SOL     OW57769   6.650   1.329   8.287
18612SOL    HW157770   6.641   1.263   8.212
18612SOL    HW257771   6.705   1.406   8.256
18613SOL     OW57772   5.918   0.798   8.370
18613SOL    HW157773   6.007   0.831   8.402
18613SOL    HW257774   5.909   0.701   8.391
18614SOL     OW57775   5.916   0.521   8.437
18614SOL    HW157776   5.860   0.439   8.452
18614SOL    HW257777   5.996   0.496   8.382
18615SOL     OW57778   6.666   0.388   9.134
18615SOL    HW157779   6.634   0.424   9.222
18615SOL    HW257780   6.762   0.414   9.121
18616SOL     OW57781   6.652   0.262   8.889
18616SOL    HW157782   6.655   0.314   8.975
18616SOL    HW257783   6.720   0.299   8.826
18617SOL     OW57784   5.608   1.284   7.657
18617SOL    HW157785   5.518   1.310   7.623
18617SOL    HW257786   5.609   1.186   7.679
18618SOL     OW57787   5.686   1.769   8.413
18618SOL    HW157788   5.637   1.692   8.371
18618SOL    HW257789   5.779   1.773   8.377
18619SOL     OW57790   6.054   1.504   8.334
18619SOL    HW157791   6.128   1.558   8.373
18619SOL    HW257792   6.092   1.440   8.267
18620SOL     OW57793   6.492   0.829   8.655
18620SOL    HW157794   6.552   0.790   8.725
18620SOL    HW257795   6.415   0.768   8.640
18621SOL     OW57796   5.562   0.481   8.574
18621SOL    HW157797   5.629   0.420   8.533
18621SOL    HW257798   5.598   0.519   8.659
18622SOL     OW57799   5.803   0.647   9.141
18622SOL    HW157800   5.900   0.667   9.132
18622SOL    HW257801   5.751   0.707   9.078
18623SOL     OW57802   6.965   0.918   9.113
18623SOL    HW157803   6.983   1.016   9.111
18623SOL    HW257804   6.948   0.886   9.020
18624SOL     OW57805   6.408   0.578   7.758
18624SOL    HW157806   6.413   0.492   7.707
18624SOL    HW257807   6.321   0.623   7.739
18625SOL     OW57808   7.169   0.631   8.594
18625SOL    HW157809   7.125   0.567   8.657
18625SOL    HW257810   7.259   0.596   8.568
18626SOL     OW57811   5.813   1.550   9.124
18626SOL    HW157812   5.798   1.620   9.194
18626SOL    HW257813   5.839   1.464   9.168
18627SOL     OW57814   6.353   0.476   8.664
18627SOL    HW157815   6.298   0.393   8.663
18627SOL    HW257816   6.319   0.540   8.595
18628SOL     OW57817   6.570   1.629   8.959
18628SOL    HW157818   6.490   1.570   8.945
18628SOL    HW257819   6.568   1.703   8.892
18629SOL     OW57820   6.020   0.506   7.590
18629SOL    HW157821   6.094   0.569   7.616
18629SOL    HW257822   5.932   0.554   7.599
18630SOL     OW57823   5.727   1.146   8.976
18630SOL    HW157824   5.742   1.115   9.070
18630SOL    HW257825   5.760   1.077   8.912
18631SOL     OW57826   6.839   1.044   8.670
18631SOL    HW157827   6.865   0.982   8.596
18631SOL    HW257828   6.795   1.125   8.632
18632SOL     OW57829   7.379   1.704   8.646
18632SOL    HW157830   7.448   1.729   8.578
18632SOL    HW257831   7.310   1.646   8.604
18633SOL     OW57832   6.851   1.738   8.583
18633SOL    HW157833   6.940   1.775   8.553
18633SOL    HW257834   6.860   1.640   8.599
18634SOL     OW57835   5.716   1.168   8.498
18634SOL    HW157836   5.686   1.209   8.584
18634SOL    HW257837   5.638   1.122   8.455
18635SOL     OW57838   6.305   1.710   9.181
18635SOL    HW157839   6.218   1.750   9.209
18635SOL    HW257840   6.353   1.774   9.120
18636SOL     OW57841   7.391   0.032   8.004
18636SOL    HW157842   7.465   0.048   7.940
18636SOL    HW257843   7.427   9.989   8.087
18637SOL     OW57844   6.991   1.603   7.922
18637SOL    HW157845   7.030   1.637   7.837
18637SOL    HW257846   6.918   1.665   7.952
18638SOL     OW57847   5.747   1.776   9.273
18638SOL    HW157848   5.672   1.718   9.305
18638SOL    HW257849   5.796   1.813   9.352
18639SOL     OW57850   6.338   1.279   8.857
18639SOL    HW157851   6.333   1.349   8.928
18639SOL    HW257852   6.260   1.288   8.796
18640SOL     OW57853   6.263   1.672   7.619
18640SOL    HW157854   6.267   1.672   7.519
18640SOL    HW257855   6.228   1.584   7.650
18641SOL     OW57856   7.205   1.708   8.882
18641SOL    HW157857   7.265   1.703   8.802
18641SOL    HW257858   7.201   1.802   8.914
18642SOL     OW57859   7.413   0.153   8.353
18642SOL    HW157860   7.444   0.069   8.308
18642SOL    HW257861   7.326   0.181   8.314
18643SOL     OW57862   5.792   0.309   8.106
18643SOL    HW157863   5.724   0.356   8.049
18643SOL    HW257864   5.770   0.321   8.202
18644SOL     OW57865   6.812   1.539   7.514
18644SOL    HW157866   6.820   1.449   7.558
18644SOL    HW257867   6.724   1.545   7.467
18645SOL     OW57868   6.382   1.011   8.851
18645SOL    HW157869   6.423   0.986   8.763
18645SOL    HW257870   6.368   1.110   8.854
18646SOL     OW57871   6.570   0.959   7.811
18646SOL    HW157872   6.584   0.969   7.713
18646SOL    HW257873   6.593   0.866   7.839
18647SOL     OW57874   7.093   1.592   7.480
18647SOL    HW157875   6.994   1.580   7.480
18647SOL    HW257876   7.125   1.605   7.386
18648SOL     OW57877   5.956   1.328   8.929
18648SOL    HW157878   5.928   1.408   8.876
18648SOL    HW257879   5.875   1.274   8.952
18649SOL     OW57880   7.206   1.329   8.715
18649SOL    HW157881   7.277   1.293   8.776
18649SOL    HW257882   7.137   1.378   8.768
18650SOL     OW57883   6.579   1.140   8.099
18650SOL    HW157884   6.521   1.092   8.164
18650SOL    HW257885   6.582   1.090   8.013
18651SOL     OW57886   6.656   0.219   8.421
18651SOL    HW157887   6.607   0.171   8.347
18651SOL    HW257888   6.677   0.154   8.494
18652SOL     OW57889   6.144   1.486   7.946
18652SOL    HW157890   6.164   1.467   7.850
18652SOL    HW257891   6.045   1.490   7.959
18653SOL     OW57892   7.336   0.318   8.814
18653SOL    HW157893   7.394   0.399   8.805
18653SOL    HW257894   7.324   0.276   8.724
18654SOL     OW57895   5.866   1.343   7.715
18654SOL    HW157896   5.770   1.324   7.697
18654SOL    HW257897   5.874   1.403   7.794
18655SOL     OW57898   5.761   1.053   9.235
18655SOL    HW157899   5.674   1.023   9.273
18655SOL    HW257900   5.834   0.992   9.267
18656SOL     OW57901   5.687   0.397   7.429
18656SOL    HW157902   5.597   0.382   7.387
18656SOL    HW257903   5.726   0.482   7.395
18657SOL     OW57904   6.950   0.850   8.846
18657SOL    HW157905   6.884   0.910   8.800
18657SOL    HW257906   7.039   0.860   8.803
18658SOL     OW57907   5.681   0.327   7.697
18658SOL    HW157908   5.688   0.343   7.599
18658SOL    HW257909   5.730   0.243   7.721
18659SOL     OW57910   6.817   1.291   7.640
18659SOL    HW157911   6.729   1.243   7.635
18659SOL    HW257912   6.836   1.315   7.735
18660SOL     OW57913   6.216   0.809   8.918
18660SOL    HW157914   6.268   0.893   8.903
18660SOL    HW257915   6.278   0.730   8.917
18661SOL     OW57916   7.096   1.824   8.497
18661SOL    HW157917   7.130   1.872   8.417
18661SOL    HW257918   7.140   1.734   8.505
18662SOL     OW57919   6.293   0.542   9.173
18662SOL    HW157920   6.357   0.606   9.217
18662SOL    HW257921   6.327   0.448   9.185
18663SOL     OW57922   7.034   1.182   9.093
18663SOL    HW157923   7.029   1.208   9.189
18663SOL    HW257924   7.122   1.213   9.055
18664SOL     OW57925   5.931   1.779   9.008
18664SOL    HW157926   5.850   1.836   9.002
18664SOL    HW257927   5.904   1.685   9.032
18665SOL     OW57928   7.181   0.890   8.701
18665SOL    HW157929   7.184   0.803   8.652
18665SOL    HW257930   7.184   0.965   8.635
18666SOL     OW57931   6.804   0.354   7.890
18666SOL    HW157932   6.848   0.264   7.889
18666SOL    HW257933   6.832   0.403   7.973
18667SOL     OW57934   6.221   0.663   8.085
18667SOL    HW157935   6.248   0.758   8.098
18667SOL    HW257936   6.142   0.658   8.024
18668SOL     OW57937   7.449   0.201   9.030
18668SOL    HW157938   7.411   0.230   8.942
18668SOL    HW257939   7.397   0.243   9.104
18669SOL     OW57940   7.302   0.953   8.936
18669SOL    HW157941   7.300   1.051   8.952
18669SOL    HW257942   7.259   0.932   8.849
18670SOL     OW57943   6.363   1.367   7.531
18670SOL    HW157944   6.404   1.340   7.618
18670SOL    HW257945   6.427   1.425   7.480
18671SOL     OW57946   6.252   1.661   8.417
18671SOL    HW157947   6.240   1.760   8.419
18671SOL    HW257948   6.332   1.636   8.472
18672SOL     OW57949   6.433   1.015   8.302
18672SOL    HW157950   6.505   0.956   8.340
18672SOL    HW257951   6.380   1.054   8.377
18673SOL     OW57952   6.612   0.954   7.542
18673SOL    HW157953   6.581   1.023   7.476
18673SOL    HW257954   6.695   0.909   7.507
18674SOL     OW57955   7.516   1.487   8.373
18674SOL    HW157956   7.482   1.487   8.279
18674SOL    HW257957   7.534   1.394   8.403
18675SOL     OW57958   5.868   1.307   9.259
18675SOL    HW157959   5.820   1.219   9.256
18675SOL    HW257960   5.854   1.349   9.348
18676SOL     OW57961   5.769   1.249   8.097
18676SOL    HW157962   5.792   1.196   8.179
18676SOL    HW257963   5.807   1.203   8.016
18677SOL     OW57964   6.320   1.471   9.051
18677SOL    HW157965   6.250   1.414   9.094
18677SOL    HW257966   6.323   1.560   9.098
18678SOL     OW57967   7.276   0.172   8.591
18678SOL    HW157968   7.252   0.078   8.613
18678SOL    HW257969   7.335   0.173   8.509
18679SOL     OW57970   6.000   0.414   7.958
18679SOL    HW157971   6.032   0.354   7.885
18679SOL    HW257972   5.934   0.366   8.015
18680SOL     OW57973   7.195   1.546   8.531
18680SOL    HW157974   7.137   1.517   8.455
18680SOL    HW257975   7.207   1.471   8.595
18681SOL     OW57976   5.914   0.593   8.700
18681SOL    HW157977   5.978   0.536   8.752
18681SOL    HW257978   5.918   0.567   8.604
18682SOL     OW57979   6.397   1.552   8.114
18682SOL    HW157980   6.342   1.610   8.054
18682SOL    HW257981   6.343   1.474   8.144
18683SOL     OW57982   7.045   0.314   8.544
18683SOL    HW157983   7.125   0.265   8.577
18683SOL    HW257984   6.979   0.324   8.619
18684SOL     OW57985   6.696   0.047   8.629
18684SOL    HW157986   6.677   9.950   8.640
18684SOL    HW257987   6.773   0.073   8.687
18685SOL     OW57988   6.453   1.289   7.768
18685SOL    HW157989   6.404   1.215   7.815
18685SOL    HW257990   6.501   1.344   7.835
18686SOL     OW57991   6.182   1.587   8.731
18686SOL    HW157992   6.187   1.673   8.782
18686SOL    HW257993   6.269   1.572   8.683
18687SOL     OW57994   6.888   0.051   7.601
18687SOL    HW157995   6.984   0.068   7.577
18687SOL    HW257996   6.874   9.953   7.612
18688SOL     OW57997   6.871   0.493   8.113
18688SOL    HW157998   6.825   0.581   8.109
18688SOL    HW257999   6.862   0.455   8.205
18689SOL     OW58000   7.158   0.241   8.288
18689SOL    HW158001   7.118   0.270   8.375
18689SOL    HW258002   7.151   0.315   8.221
18690SOL     OW58003   5.638   1.018   7.744
18690SOL    HW158004   5.733   1.000   7.720
18690SOL    HW258005   5.590   0.932   7.759
18691SOL     OW58006   6.502   1.699   7.775
18691SOL    HW158007   6.426   1.686   7.712
18691SOL    HW258008   6.482   1.776   7.835
18692SOL     OW58009   5.806   0.559   9.405
18692SOL    HW158010   5.713   0.552   9.441
18692SOL    HW258011   5.804   0.599   9.314
18693SOL     OW58012   7.441   0.588   9.465
18693SOL    HW158013   7.405   0.591   9.371
18693SOL    HW258014   7.387   0.524   9.519
18694SOL     OW58015   5.803   1.707   9.722
18694SOL    HW158016   5.834   1.760   9.802
18694SOL    HW258017   5.844   1.616   9.725
18695SOL     OW58018   6.225   0.960   9.443
18695SOL    HW158019   6.264   1.028   9.382
18695SOL    HW258020   6.253   0.980   9.537
18696SOL     OW58021   5.591   0.695   9.880
18696SOL    HW158022   5.501   0.674   9.841
18696SOL    HW258023   5.582   0.770   9.945
18697SOL     OW58024   7.406   1.763   9.675
18697SOL    HW158025   7.494   1.751   9.721
18697SOL    HW258026   7.408   1.845   9.618
18698SOL     OW58027   5.564   1.609   9.371
18698SOL    HW158028   5.512   1.523   9.364
18698SOL    HW258029   5.555   1.645   9.464
18699SOL     OW58030   7.226   0.880   9.939
18699SOL    HW158031   7.314   0.852   9.980
18699SOL    HW258032   7.240   0.963   9.886
18700SOL     OW58033   7.308   1.110   9.798
18700SOL    HW158034   7.398   1.110   9.755
18700SOL    HW258035   7.300   1.188   9.860
18701SOL     OW58036   6.230   1.297   9.978
18701SOL    HW158037   6.176   1.213   9.978
18701SOL    HW258038   6.211   1.350   9.895
18702SOL     OW58039   7.194   1.068   9.539
18702SOL    HW158040   7.104   1.029   9.557
18702SOL    HW258041   7.240   1.088   9.626
18703SOL     OW58042   6.216   0.677   9.532
18703SOL    HW158043   6.227   0.764   9.482
18703SOL    HW258044   6.163   0.694   9.615
18704SOL     OW58045   7.145   1.670   9.667
18704SOL    HW158046   7.241   1.696   9.676
18704SOL    HW258047   7.119   1.673   9.571
18705SOL     OW58048   6.615   0.686   9.741
18705SOL    HW158049   6.627   0.678   9.840
18705SOL    HW258050   6.535   0.635   9.713
18706SOL     OW58051   5.557   0.905   0.055
18706SOL    HW158052   5.579   0.904   0.153
18706SOL    HW258053   5.584   0.993   0.016
18707SOL     OW58054   6.431   0.296   9.520
18707SOL    HW158055   6.464   0.351   9.443
18707SOL    HW258056   6.480   0.208   9.521
18708SOL     OW58057   6.851   1.102   9.843
18708SOL    HW158058   6.910   1.114   9.924
18708SOL    HW258059   6.835   1.191   9.800
18709SOL     OW58060   6.560   1.411   9.837
18709SOL    HW158061   6.531   1.499   9.799
18709SOL    HW258062   6.537   1.409   9.935
18710SOL     OW58063   6.021   1.842   0.164
18710SOL    HW158064   6.030   1.779   0.241
18710SOL    HW258065   6.093   1.911   0.169
18711SOL     OW58066   5.906   0.842   9.582
18711SOL    HW158067   5.929   0.851   9.485
18711SOL    HW258068   5.811   0.809   9.590
18712SOL     OW58069   6.714   1.764   9.591
18712SOL    HW158070   6.633   1.725   9.635
18712SOL    HW258071   6.750   1.699   9.524
18713SOL     OW58072   7.260   1.384   9.360
18713SOL    HW158073   7.246   1.465   9.303
18713SOL    HW258074   7.175   1.331   9.362
18714SOL     OW58075   6.175   1.711   9.692
18714SOL    HW158076   6.159   1.777   9.766
18714SOL    HW258077   6.154   1.755   9.605
18715SOL     OW58078   7.101   0.232   9.708
18715SOL    HW158079   7.056   0.179   9.637
18715SOL    HW258080   7.154   0.305   9.667
18716SOL     OW58081   6.060   0.697   9.756
18716SOL    HW158082   6.035   0.603   9.777
18716SOL    HW258083   5.989   0.740   9.701
18717SOL     OW58084   6.153   0.072   9.843
18717SOL    HW158085   6.058   0.067   9.872
18717SOL    HW258086   6.163   0.144   9.774
18718SOL     OW58087   7.032   1.229   9.368
18718SOL    HW158088   7.085   1.167   9.426
18718SOL    HW258089   6.944   1.248   9.411
18719SOL     OW58090   6.040   1.096   0.001
18719SOL    HW158091   5.965   1.158   0.021
18719SOL    HW258092   6.032   1.062   9.907
18720SOL     OW58093   6.873   1.875   9.910
18720SOL    HW158094   6.917   1.940   9.848
18720SOL    HW258095   6.781   1.907   9.933
18721SOL     OW58096   6.596   0.486   9.377
18721SOL    HW158097   6.557   0.570   9.340
18721SOL    HW258098   6.655   0.508   9.455
18722SOL     OW58099   6.494   0.434   9.904
18722SOL    HW158100   6.452   0.466   9.819
18722SOL    HW258101   6.540   0.511   9.950
18723SOL     OW58102   7.460   0.802   9.629
18723SOL    HW158103   7.526   0.774   9.699
18723SOL    HW258104   7.456   0.733   9.557
18724SOL     OW58105   6.110   1.501   9.387
18724SOL    HW158106   6.018   1.491   9.424
18724SOL    HW258107   6.114   1.456   9.298
18725SOL     OW58108   6.967   0.573   9.402
18725SOL    HW158109   6.895   0.552   9.468
18725SOL    HW258110   7.055   0.581   9.450
18726SOL     OW58111   6.179   0.279   9.649
18726SOL    HW158112   6.271   0.276   9.610
18726SOL    HW258113   6.118   0.328   9.587
18727SOL     OW58114   6.301   1.008   9.711
18727SOL    HW158115   6.274   0.955   9.792
18727SOL    HW258116   6.395   0.984   9.685
18728SOL     OW58117   6.022   1.037   9.736
18728SOL    HW158118   6.119   1.041   9.713
18728SOL    HW258119   5.978   0.965   9.682
18729SOL     OW58120   6.809   1.365   9.742
18729SOL    HW158121   6.863   1.446   9.765
18729SOL    HW258122   6.716   1.376   9.778
18730SOL     OW58123   7.236   0.687   9.736
18730SOL    HW158124   7.202   0.740   9.813
18730SOL    HW258125   7.309   0.738   9.690
18731SOL     OW58126   6.770   0.523   9.585
18731SOL    HW158127   6.805   0.455   9.649
18731SOL    HW258128   6.725   0.597   9.636
18732SOL     OW58129   5.900   0.086   9.943
18732SOL    HW158130   5.851   0.166   9.910
18732SOL    HW258131   5.862   0.057   0.031
18733SOL     OW58132   7.269   0.440   9.631
18733SOL    HW158133   7.333   0.386   9.686
18733SOL    HW258134   7.248   0.526   9.679
18734SOL     OW58135   6.870   0.828   9.353
18734SOL    HW158136   6.907   0.737   9.367
18734SOL    HW258137   6.902   0.865   9.266
18735SOL     OW58138   5.622   1.307   9.488
18735SOL    HW158139   5.531   1.331   9.455
18735SOL    HW258140   5.622   1.212   9.519
18736SOL     OW58141   6.408   0.530   9.662
18736SOL    HW158142   6.418   0.443   9.614
18736SOL    HW258143   6.340   0.586   9.615
18737SOL     OW58144   6.047   0.452   9.473
18737SOL    HW158145   6.114   0.525   9.477
18737SOL    HW258146   5.956   0.491   9.458
18738SOL     OW58147   6.945   0.994   9.592
18738SOL    HW158148   6.897   1.013   9.678
18738SOL    HW258149   6.888   0.934   9.535
18739SOL     OW58150   7.444   0.261   9.751
18739SOL    HW158151   7.487   0.252   9.661
18739SOL    HW258152   7.395   0.176   9.773
18740SOL     OW58153   6.932   1.614   9.827
18740SOL    HW158154   7.009   1.622   9.765
18740SOL    HW258155   6.898   1.705   9.851
18741SOL     OW58156   6.362   1.592   9.440
18741SOL    HW158157   6.391   1.634   9.355
18741SOL    HW258158   6.267   1.562   9.433
18742SOL     OW58159   7.351   0.159   0.224
18742SOL    HW158160   7.349   0.060   0.211
18742SOL    HW258161   7.275   0.201   0.174
18743SOL     OW58162   6.810   1.590   9.402
18743SOL    HW158163   6.811   1.495   9.433
18743SOL    HW258164   6.737   1.602   9.335
18744SOL     OW58165   6.544   0.932   9.644
18744SOL    HW158166   6.575   0.938   9.549
18744SOL    HW258167   6.580   0.849   9.686
18745SOL     OW58168   7.064   1.695   9.402
18745SOL    HW158169   6.975   1.652   9.393
18745SOL    HW258170   7.123   1.666   9.326
18746SOL     OW58171   6.177   1.448   9.748
18746SOL    HW158172   6.248   1.393   9.703
18746SOL    HW258173   6.189   1.544   9.724
18747SOL     OW58174   5.851   1.447   9.488
18747SOL    HW158175   5.758   1.410   9.488
18747SOL    HW258176   5.881   1.460   9.582
18748SOL     OW58177   5.712   0.390   9.136
18748SOL    HW158178   5.612   0.385   9.139
18748SOL    HW258179   5.741   0.485   9.137
18749SOL     OW58180   6.771   1.323   9.471
18749SOL    HW158181   6.672   1.317   9.460
18749SOL    HW258182   6.793   1.326   9.568
18750SOL     OW58183   6.863   0.349   9.767
18750SOL    HW158184   6.954   0.309   9.753
18750SOL    HW258185   6.833   0.331   9.860
18751SOL     OW58186   6.222   0.850   9.913
18751SOL    HW158187   6.195   0.851   0.010
18751SOL    HW258188   6.162   0.788   9.863
18752SOL     OW58189   6.488   1.343   9.444
18752SOL    HW158190   6.449   1.312   9.530
18752SOL    HW258191   6.462   1.438   9.428
18753SOL     OW58192   6.624   0.926   9.389
18753SOL    HW158193   6.609   1.001   9.324
18753SOL    HW258194   6.717   0.890   9.377
18754SOL     OW58195   5.613   1.163   9.996
18754SOL    HW158196   5.575   1.194   0.084
18754SOL    HW258197   5.707   1.196   9.987
18755SOL     OW58198   6.027   0.434   9.826
18755SOL    HW158199   6.096   0.379   9.780
18755SOL    HW258200   6.040   0.429   9.925
18756SOL     OW58201   6.378   1.274   9.681
18756SOL    HW158202   6.354   1.179   9.699
18756SOL    HW258203   6.451   1.303   9.743
18757SOL     OW58204   6.973   0.064   9.536
18757SOL    HW158205   7.057   0.012   9.522
18757SOL    HW258206   6.902   0.003   9.571
18758SOL     OW58207   5.674   1.050   9.600
18758SOL    HW158208   5.773   1.064   9.603
18758SOL    HW258209   5.653   0.953   9.590
18759SOL     OW58210   6.472   1.635   9.693
18759SOL    HW158211   6.433   1.620   9.602
18759SOL    HW258212   6.404   1.676   9.752
18760SOL     OW58213   5.691   2.415   0.132
18760SOL    HW158214   5.596   2.425   0.162
18760SOL    HW258215   5.699   2.443   0.036
18761SOL     OW58216   5.790   2.164   1.033
18761SOL    HW158217   5.840   2.107   1.099
18761SOL    HW258218   5.695   2.174   1.063
18762SOL     OW58219   5.564   2.291   0.654
18762SOL    HW158220   5.477   2.314   0.699
18762SOL    HW258221   5.548   2.226   0.581
18763SOL     OW58222   6.205   3.149   1.309
18763SOL    HW158223   6.147   3.115   1.236
18763SOL    HW258224   6.197   3.248   1.316
18764SOL     OW58225   7.182   3.348   0.725
18764SOL    HW158226   7.118   3.350   0.802
18764SOL    HW258227   7.133   3.367   0.640
18765SOL     OW58228   6.699   2.590   0.657
18765SOL    HW158229   6.748   2.671   0.626
18765SOL    HW258230   6.661   2.606   0.748
18766SOL     OW58231   7.308   2.466   0.177
18766SOL    HW158232   7.222   2.486   0.130
18766SOL    HW258233   7.296   2.387   0.237
18767SOL     OW58234   6.427   2.996   1.092
18767SOL    HW158235   6.349   2.958   1.043
18767SOL    HW258236   6.432   3.095   1.075
18768SOL     OW58237   6.496   2.573   1.775
18768SOL    HW158238   6.526   2.639   1.843
18768SOL    HW258239   6.501   2.613   1.684
18769SOL     OW58240   6.286   2.953   1.854
18769SOL    HW158241   6.349   3.017   1.897
18769SOL    HW258242   6.213   3.004   1.808
18770SOL     OW58243   5.912   3.325   1.036
18770SOL    HW158244   5.865   3.256   0.980
18770SOL    HW258245   5.973   3.379   0.979
18771SOL     OW58246   7.042   3.367   1.406
18771SOL    HW158247   7.097   3.449   1.418
18771SOL    HW258248   6.960   3.373   1.464
18772SOL     OW58249   6.061   2.208   1.456
18772SOL    HW158250   6.144   2.152   1.462
18772SOL    HW258251   5.982   2.152   1.483
18773SOL     OW58252   7.227   2.333   0.776
18773SOL    HW158253   7.204   2.367   0.685
18773SOL    HW258254   7.195   2.398   0.845
18774SOL     OW58255   5.812   3.510   0.479
18774SOL    HW158256   5.818   3.596   0.530
18774SOL    HW258257   5.903   3.485   0.446
18775SOL     OW58258   6.665   3.196   1.703
18775SOL    HW158259   6.712   3.186   1.792
18775SOL    HW258260   6.620   3.110   1.680
18776SOL     OW58261   5.822   3.233   0.447
18776SOL    HW158262   5.803   3.325   0.481
18776SOL    HW258263   5.821   3.168   0.523
18777SOL     OW58264   5.887   2.900   0.868
18777SOL    HW158265   5.893   2.811   0.914
18777SOL    HW258266   5.833   2.963   0.925
18778SOL     OW58267   6.168   3.604   1.539
18778SOL    HW158268   6.070   3.588   1.555
18778SOL    HW258269   6.187   3.702   1.551
18779SOL     OW58270   7.182   2.020   1.442
18779SOL    HW158271   7.227   2.106   1.416
18779SOL    HW258272   7.136   2.031   1.530
18780SOL     OW58273   5.629   2.560   0.637
18780SOL    HW158274   5.612   2.462   0.637
18780SOL    HW258275   5.647   2.592   0.730
18781SOL     OW58276   7.496   3.572   0.318
18781SOL    HW158277   7.567   3.555   0.386
18781SOL    HW258278   7.506   3.664   0.281
18782SOL     OW58279   5.777   3.430   0.133
18782SOL    HW158280   5.742   3.359   0.072
18782SOL    HW258281   5.705   3.459   0.196
18783SOL     OW58282   7.297   2.772   0.646
18783SOL    HW158283   7.377   2.749   0.702
18783SOL    HW258284   7.318   2.852   0.590
18784SOL     OW58285   7.358   3.006   0.508
18784SOL    HW158286   7.417   2.981   0.431
18784SOL    HW258287   7.284   3.065   0.476
18785SOL     OW58288   5.666   2.678   1.574
18785SOL    HW158289   5.702   2.753   1.629
18785SOL    HW258290   5.583   2.708   1.526
18786SOL     OW58291   6.227   3.256   0.795
18786SOL    HW158292   6.186   3.165   0.797
18786SOL    HW258293   6.242   3.284   0.700
18787SOL     OW58294   6.849   3.067   1.443
18787SOL    HW158295   6.864   2.998   1.372
18787SOL    HW258296   6.925   3.067   1.507
18788SOL     OW58297   6.400   1.879   0.520
18788SOL    HW158298   6.448   1.956   0.480
18788SOL    HW258299   6.302   1.901   0.526
18789SOL     OW58300   5.712   2.833   1.288
18789SOL    HW158301   5.795   2.779   1.294
18789SOL    HW258302   5.651   2.793   1.220
18790SOL     OW58303   6.885   3.743   1.629
18790SOL    HW158304   6.834   3.793   1.560
18790SOL    HW258305   6.879   3.645   1.611
18791SOL     OW58306   5.962   2.123   1.860
18791SOL    HW158307   5.999   2.197   1.916
18791SOL    HW258308   5.889   2.159   1.801
18792SOL     OW58309   7.010   3.320   0.935
18792SOL    HW158310   6.967   3.342   1.022
18792SOL    HW258311   7.014   3.221   0.923
18793SOL     OW58312   7.229   3.755   0.490
18793SOL    HW158313   7.228   3.673   0.433
18793SOL    HW258314   7.253   3.730   0.584
18794SOL     OW58315   6.137   2.563   0.184
18794SOL    HW158316   6.160   2.552   0.088
18794SOL    HW258317   6.120   2.660   0.203
18795SOL     OW58318   6.906   2.304   0.920
18795SOL    HW158319   6.814   2.278   0.891
18795SOL    HW258320   6.938   2.242   0.990
18796SOL     OW58321   7.225   3.528   0.339
18796SOL    HW158322   7.325   3.529   0.332
18796SOL    HW258323   7.185   3.506   0.250
18797SOL     OW58324   6.273   2.505   1.427
18797SOL    HW158325   6.272   2.469   1.521
18797SOL    HW258326   6.275   2.429   1.362
18798SOL     OW58327   6.973   2.322   1.654
18798SOL    HW158328   6.977   2.370   1.741
18798SOL    HW258329   7.022   2.236   1.661
18799SOL     OW58330   6.524   2.709   1.533
18799SOL    HW158331   6.567   2.630   1.489
18799SOL    HW258332   6.479   2.766   1.464
18800SOL     OW58333   6.552   2.273   1.267
18800SOL    HW158334   6.454   2.290   1.267
18800SOL    HW258335   6.575   2.208   1.194
18801SOL     OW58336   6.599   2.563   0.395
18801SOL    HW158337   6.627   2.561   0.491
18801SOL    HW258338   6.506   2.527   0.386
18802SOL     OW58339   5.661   2.661   0.882
18802SOL    HW158340   5.748   2.655   0.930
18802SOL    HW258341   5.608   2.737   0.919
18803SOL     OW58342   6.484   2.147   0.134
18803SOL    HW158343   6.454   2.225   0.078
18803SOL    HW258344   6.553   2.095   0.083
18804SOL     OW58345   7.241   2.430   1.839
18804SOL    HW158346   7.240   2.514   1.785
18804SOL    HW258347   7.271   2.354   1.781
18805SOL     OW58348   6.184   1.945   0.961
18805SOL    HW158349   6.178   1.986   1.052
18805SOL    HW258350   6.209   2.016   0.895
18806SOL     OW58351   6.598   3.406   0.468
18806SOL    HW158352   6.571   3.475   0.401
18806SOL    HW258353   6.562   3.431   0.558
18807SOL     OW58354   5.908   3.676   0.867
18807SOL    HW158355   5.979   3.607   0.879
18807SOL    HW258356   5.948   3.767   0.879
18808SOL     OW58357   7.393   2.932   0.942
18808SOL    HW158358   7.360   2.990   0.867
18808SOL    HW258359   7.323   2.930   1.014
18809SOL     OW58360   6.808   3.397   1.535
18809SOL    HW158361   6.775   3.314   1.579
18809SOL    HW258362   6.733   3.442   1.487
18810SOL     OW58363   7.056   2.695   0.728
18810SOL    HW158364   7.066   2.634   0.807
18810SOL    HW258365   7.146   2.728   0.701
18811SOL     OW58366   6.075   3.109   1.745
18811SOL    HW158367   6.042   3.126   1.652
18811SOL    HW258368   5.998   3.101   1.808
18812SOL     OW58369   6.733   3.640   0.171
18812SOL    HW158370   6.647   3.620   0.218
18812SOL    HW258371   6.767   3.558   0.126
18813SOL     OW58372   5.831   2.065   1.508
18813SOL    HW158373   5.807   2.136   1.573
18813SOL    HW258374   5.783   1.981   1.531
18814SOL     OW58375   7.199   3.194   0.119
18814SOL    HW158376   7.174   3.291   0.122
18814SOL    HW258377   7.126   3.142   0.075
18815SOL     OW58378   6.073   3.484   0.399
18815SOL    HW158379   6.094   3.581   0.402
18815SOL    HW258380   6.073   3.453   0.304
18816SOL     OW58381   6.993   1.931   0.440
18816SOL    HW158382   6.986   1.935   0.341
18816SOL    HW258383   7.088   1.913   0.466
18817SOL     OW58384   5.855   3.678   1.217
18817SOL    HW158385   5.891   3.592   1.252
18817SOL    HW258386   5.799   3.661   1.136
18818SOL     OW58387   6.545   3.564   0.874
18818SOL    HW158388   6.633   3.516   0.872
18818SOL    HW258389   6.490   3.537   0.796
18819SOL     OW58390   5.909   2.538   0.586
18819SOL    HW158391   5.916   2.440   0.565
18819SOL    HW258392   5.813   2.563   0.592
18820SOL     OW58393   7.078   2.066   1.699
18820SOL    HW158394   7.086   2.082   1.797
18820SOL    HW258395   7.024   1.983   1.683
18821SOL     OW58396   6.224   2.035   0.140
18821SOL    HW158397   6.317   2.069   0.147
18821SOL    HW258398   6.200   2.022   0.044
18822SOL     OW58399   6.378   2.161   1.682
18822SOL    HW158400   6.475   2.185   1.684
18822SOL    HW258401   6.357   2.098   1.757
18823SOL     OW58402   6.459   3.365   1.244
18823SOL    HW158403   6.442   3.341   1.148
18823SOL    HW258404   6.513   3.293   1.287
18824SOL     OW58405   6.901   2.458   1.429
18824SOL    HW158406   6.937   2.420   1.514
18824SOL    HW258407   6.937   2.551   1.416
18825SOL     OW58408   6.431   3.255   0.989
18825SOL    HW158409   6.517   3.241   0.940
18825SOL    HW258410   6.356   3.262   0.924
18826SOL     OW58411   6.464   2.375   0.817
18826SOL    HW158412   6.452   2.366   0.718
18826SOL    HW258413   6.376   2.365   0.863
18827SOL     OW58414   6.131   1.943   0.506
18827SOL    HW158415   6.053   1.934   0.567
18827SOL    HW258416   6.117   2.022   0.446
18828SOL     OW58417   6.978   3.089   0.002
18828SOL    HW158418   6.966   3.065   9.906
18828SOL    HW258419   6.892   3.123   0.039
18829SOL     OW58420   6.534   2.088   0.409
18829SOL    HW158421   6.525   2.111   0.311
18829SOL    HW258422   6.630   2.079   0.432
18830SOL     OW58423   6.635   2.500   1.392
18830SOL    HW158424   6.599   2.413   1.358
18830SOL    HW258425   6.733   2.492   1.408
18831SOL     OW58426   6.792   3.451   0.804
18831SOL    HW158427   6.816   3.513   0.730
18831SOL    HW258428   6.875   3.421   0.851
18832SOL     OW58429   6.107   3.009   0.758
18832SOL    HW158430   6.023   2.975   0.799
18832SOL    HW258431   6.093   3.021   0.659
18833SOL     OW58432   6.845   3.640   0.604
18833SOL    HW158433   6.892   3.696   0.537
18833SOL    HW258434   6.767   3.690   0.641
18834SOL     OW58435   6.685   2.397   9.967
18834SOL    HW158436   6.586   2.390   9.979
18834SOL    HW258437   6.728   2.419   0.055
18835SOL     OW58438   5.699   2.462   1.406
18835SOL    HW158439   5.795   2.439   1.390
18835SOL    HW258440   5.694   2.539   1.469
18836SOL     OW58441   6.161   2.066   1.203
18836SOL    HW158442   6.211   2.043   1.287
18836SOL    HW258443   6.063   2.054   1.218
18837SOL     OW58444   6.418   2.313   0.549
18837SOL    HW158445   6.383   2.368   0.473
18837SOL    HW258446   6.455   2.227   0.514
18838SOL     OW58447   6.626   1.808   0.666
18838SOL    HW158448   6.546   1.841   0.617
18838SOL    HW258449   6.598   1.774   0.756
18839SOL     OW58450   7.040   3.053   0.897
18839SOL    HW158451   6.957   3.018   0.853
18839SOL    HW258452   7.117   3.044   0.835
18840SOL     OW58453   7.071   2.518   0.940
18840SOL    HW158454   7.006   2.441   0.940
18840SOL    HW258455   7.127   2.513   1.022
18841SOL     OW58456   7.391   2.641   0.376
18841SOL    HW158457   7.437   2.603   0.456
18841SOL    HW258458   7.354   2.567   0.320
18842SOL     OW58459   6.061   3.388   0.144
18842SOL    HW158460   5.962   3.387   0.134
18842SOL    HW258461   6.100   3.307   0.099
18843SOL     OW58462   7.277   3.091   0.752
18843SOL    HW158463   7.316   3.057   0.667
18843SOL    HW258464   7.247   3.185   0.740
18844SOL     OW58465   7.030   2.456   0.108
18844SOL    HW158466   6.938   2.466   0.147
18844SOL    HW258467   7.053   2.359   0.101
18845SOL     OW58468   6.071   2.149   0.335
18845SOL    HW158469   6.129   2.108   0.265
18845SOL    HW258470   6.019   2.224   0.295
18846SOL     OW58471   7.336   3.107   1.545
18846SOL    HW158472   7.427   3.067   1.537
18846SOL    HW258473   7.344   3.201   1.578
18847SOL     OW58474   6.609   3.171   1.362
18847SOL    HW158475   6.534   3.142   1.422
18847SOL    HW258476   6.696   3.139   1.400
18848SOL     OW58477   7.212   3.516   1.695
18848SOL    HW158478   7.189   3.554   1.605
18848SOL    HW258479   7.289   3.453   1.686
18849SOL     OW58480   6.752   3.132   1.129
18849SOL    HW158481   6.682   3.141   1.200
18849SOL    HW258482   6.712   3.151   1.040
18850SOL     OW58483   7.185   2.963   1.119
18850SOL    HW158484   7.185   3.034   1.190
18850SOL    HW258485   7.117   2.986   1.049
18851SOL     OW58486   6.533   1.912   1.361
18851SOL    HW158487   6.555   1.894   1.266
18851SOL    HW258488   6.610   1.959   1.405
18852SOL     OW58489   6.537   2.928   1.708
18852SOL    HW158490   6.442   2.935   1.738
18852SOL    HW258491   6.544   2.855   1.640
18853SOL     OW58492   5.940   2.684   1.296
18853SOL    HW158493   6.017   2.726   1.345
18853SOL    HW258494   5.943   2.585   1.310
18854SOL     OW58495   6.826   2.227   1.308
18854SOL    HW158496   6.863   2.311   1.347
18854SOL    HW258497   6.730   2.241   1.283
18855SOL     OW58498   5.898   2.909   0.365
18855SOL    HW158499   5.894   2.996   0.316
18855SOL    HW258500   5.974   2.854   0.330
18856SOL     OW58501   6.202   2.383   0.912
18856SOL    HW158502   6.181   2.422   0.823
18856SOL    HW258503   6.233   2.455   0.974
18857SOL     OW58504   6.805   3.292   0.339
18857SOL    HW158505   6.893   3.321   0.377
18857SOL    HW258506   6.730   3.331   0.393
18858SOL     OW58507   6.901   3.357   1.175
18858SOL    HW158508   6.951   3.359   1.262
18858SOL    HW258509   6.846   3.274   1.170
18859SOL     OW58510   7.166   2.459   0.541
18859SOL    HW158511   7.070   2.460   0.571
18859SOL    HW258512   7.198   2.554   0.531
18860SOL     OW58513   5.941   3.351   1.298
18860SOL    HW158514   5.932   3.343   1.198
18860SOL    HW258515   6.033   3.385   1.320
18861SOL     OW58516   6.069   2.622   1.670
18861SOL    HW158517   6.096   2.677   1.591
18861SOL    HW258518   6.136   2.549   1.685
18862SOL     OW58519   7.232   2.665   1.705
18862SOL    HW158520   7.140   2.702   1.695
18862SOL    HW258521   7.290   2.698   1.630
18863SOL     OW58522   6.096   1.898   1.776
18863SOL    HW158523   6.031   1.833   1.736
18863SOL    HW258524   6.049   1.983   1.799
18864SOL     OW58525   6.858   2.682   1.039
18864SOL    HW158526   6.775   2.649   0.992
18864SOL    HW258527   6.938   2.639   0.998
18865SOL     OW58528   6.779   2.450   0.218
18865SOL    HW158529   6.821   2.384   0.281
18865SOL    HW258530   6.715   2.509   0.269
18866SOL     OW58531   5.894   2.017   1.242
18866SOL    HW158532   5.868   2.044   1.335
18866SOL    HW258533   5.869   1.921   1.228
18867SOL     OW58534   5.705   3.201   1.264
18867SOL    HW158535   5.699   3.136   1.340
18867SOL    HW258536   5.785   3.259   1.276
18868SOL     OW58537   7.352   2.853   1.873
18868SOL    HW158538   7.312   2.777   1.822
18868SOL    HW258539   7.287   2.883   1.943
18869SOL     OW58540   5.903   1.915   0.655
18869SOL    HW158541   5.852   1.995   0.687
18869SOL    HW258542   5.931   1.860   0.733
18870SOL     OW58543   7.244   2.271   0.352
18870SOL    HW158544   7.299   2.199   0.393
18870SOL    HW258545   7.208   2.331   0.423
18871SOL     OW58546   6.600   2.593   0.935
18871SOL    HW158547   6.574   2.602   1.031
18871SOL    HW258548   6.552   2.516   0.895
18872SOL     OW58549   6.568   3.456   1.698
18872SOL    HW158550   6.572   3.490   1.605
18872SOL    HW258551   6.587   3.358   1.698
18873SOL     OW58552   7.427   3.363   1.600
18873SOL    HW158553   7.444   3.392   1.506
18873SOL    HW258554   7.512   3.370   1.653
18874SOL     OW58555   5.950   2.799   1.846
18874SOL    HW158556   6.005   2.811   1.929
18874SOL    HW258557   5.995   2.736   1.784
18875SOL     OW58558   7.083   2.188   0.141
18875SOL    HW158559   7.027   2.107   0.158
18875SOL    HW258560   7.135   2.211   0.223
18876SOL     OW58561   7.005   2.732   0.093
18876SOL    HW158562   7.010   2.633   0.096
18876SOL    HW258563   7.064   2.767   0.020
18877SOL     OW58564   6.673   3.210   0.872
18877SOL    HW158565   6.714   3.132   0.824
18877SOL    HW258566   6.714   3.295   0.838
18878SOL     OW58567   5.885   2.648   1.029
18878SOL    HW158568   5.906   2.679   1.121
18878SOL    HW258569   5.917   2.554   1.017
18879SOL     OW58570   5.957   2.381   1.039
18879SOL    HW158571   5.896   2.303   1.027
18879SOL    HW258572   6.041   2.366   0.987
18880SOL     OW58573   6.736   2.203   1.714
18880SOL    HW158574   6.681   2.258   1.777
18880SOL    HW258575   6.815   2.256   1.684
18881SOL     OW58576   6.749   2.036   1.490
18881SOL    HW158577   6.734   2.091   1.572
18881SOL    HW258578   6.788   2.093   1.418
18882SOL     OW58579   5.601   3.090   0.127
18882SOL    HW158580   5.512   3.135   0.119
18882SOL    HW258581   5.594   3.015   0.193
18883SOL     OW58582   5.667   3.630   0.997
18883SOL    HW158583   5.602   3.567   0.956
18883SOL    HW258584   5.749   3.636   0.939
18884SOL     OW58585   6.100   3.477   0.900
18884SOL    HW158586   6.171   3.536   0.936
18884SOL    HW258587   6.141   3.397   0.857
18885SOL     OW58588   6.510   2.640   1.195
18885SOL    HW158589   6.561   2.585   1.262
18885SOL    HW258590   6.491   2.730   1.234
18886SOL     OW58591   5.612   2.502   1.154
18886SOL    HW158592   5.686   2.505   1.087
18886SOL    HW258593   5.649   2.488   1.245
18887SOL     OW58594   5.822   2.506   1.722
18887SOL    HW158595   5.915   2.541   1.706
18887SOL    HW258596   5.757   2.563   1.672
18888SOL     OW58597   6.996   2.789   1.647
18888SOL    HW158598   7.016   2.887   1.647
18888SOL    HW258599   6.979   2.757   1.554
18889SOL     OW58600   6.348   2.448   0.324
18889SOL    HW158601   6.384   2.390   0.252
18889SOL    HW258602   6.266   2.495   0.291
18890SOL     OW58603   7.230   2.486   1.156
18890SOL    HW158604   7.202   2.419   1.225
18890SOL    HW258605   7.326   2.471   1.133
18891SOL     OW58606   5.910   3.384   1.760
18891SOL    HW158607   5.880   3.447   1.832
18891SOL    HW258608   5.871   3.294   1.777
18892SOL     OW58609   6.286   2.318   1.229
18892SOL    HW158610   6.234   2.235   1.207
18892SOL    HW258611   6.267   2.389   1.161
18893SOL     OW58612   6.581   3.528   1.431
18893SOL    HW158613   6.537   3.470   1.363
18893SOL    HW258614   6.576   3.624   1.402
18894SOL     OW58615   5.948   2.351   0.203
18894SOL    HW158616   6.007   2.431   0.204
18894SOL    HW258617   5.853   2.379   0.191
18895SOL     OW58618   5.701   3.017   1.481
18895SOL    HW158619   5.717   2.976   1.570
18895SOL    HW258620   5.706   2.947   1.410
18896SOL     OW58621   6.854   2.890   1.218
18896SOL    HW158622   6.854   2.817   1.149
18896SOL    HW258623   6.823   2.975   1.177
18897SOL     OW58624   7.373   3.580   1.162
18897SOL    HW158625   7.431   3.596   1.082
18897SOL    HW258626   7.320   3.496   1.149
18898SOL     OW58627   6.892   3.625   1.108
18898SOL    HW158628   6.986   3.657   1.095
18898SOL    HW258629   6.893   3.530   1.138
18899SOL     OW58630   5.730   3.062   1.018
18899SOL    HW158631   5.721   3.108   1.106
18899SOL    HW258632   5.649   3.007   1.000
18900SOL     OW58633   6.310   3.512   1.763
18900SOL    HW158634   6.260   3.549   1.684
18900SOL    HW258635   6.407   3.510   1.743
18901SOL     OW58636   7.398   2.071   0.456
18901SOL    HW158637   7.468   2.044   0.390
18901SOL    HW258638   7.342   1.992   0.480
18902SOL     OW58639   7.034   3.404   0.491
18902SOL    HW158640   7.103   3.449   0.434
18902SOL    HW258641   6.966   3.471   0.521
18903SOL     OW58642   5.813   3.564   1.926
18903SOL    HW158643   5.719   3.532   1.941
18903SOL    HW258644   5.828   3.649   1.976
18904SOL     OW58645   6.859   2.792   0.577
18904SOL    HW158646   6.936   2.757   0.631
18904SOL    HW258647   6.889   2.808   0.483
18905SOL     OW58648   6.385   3.103   1.503
18905SOL    HW158649   6.366   3.150   1.589
18905SOL    HW258650   6.311   3.122   1.438
18906SOL     OW58651   6.304   3.511   0.122
18906SOL    HW158652   6.368   3.442   0.089
18906SOL    HW258653   6.212   3.471   0.131
18907SOL     OW58654   7.198   3.590   1.421
18907SOL    HW158655   7.257   3.576   1.341
18907SOL    HW258656   7.191   3.688   1.441
18908SOL     OW58657   7.432   2.002   1.069
18908SOL    HW158658   7.457   1.917   1.023
18908SOL    HW258659   7.352   2.042   1.025
18909SOL     OW58660   5.781   2.143   0.752
18909SOL    HW158661   5.705   2.200   0.721
18909SOL    HW258662   5.789   2.148   0.851
18910SOL     OW58663   6.846   3.425   0.032
18910SOL    HW158664   6.809   3.334   0.050
18910SOL    HW258665   6.880   3.429   9.938
18911SOL     OW58666   6.417   2.882   1.341
18911SOL    HW158667   6.422   2.924   1.250
18911SOL    HW258668   6.412   2.954   1.411
18912SOL     OW58669   6.585   2.821   0.306
18912SOL    HW158670   6.649   2.840   0.231
18912SOL    HW258671   6.600   2.728   0.340
18913SOL     OW58672   7.113   3.459   0.101
18913SOL    HW158673   7.013   3.452   0.093
18913SOL    HW258674   7.152   3.481   0.011
18914SOL     OW58675   5.942   3.162   1.512
18914SOL    HW158676   5.950   3.233   1.443
18914SOL    HW258677   5.859   3.109   1.497
18915SOL     OW58678   7.190   3.162   1.311
18915SOL    HW158679   7.253   3.132   1.383
18915SOL    HW258680   7.125   3.228   1.347
18916SOL     OW58681   6.803   2.983   0.772
18916SOL    HW158682   6.735   2.939   0.831
18916SOL    HW258683   6.819   2.926   0.691
18917SOL     OW58684   6.620   2.106   1.073
18917SOL    HW158685   6.644   2.136   0.981
18917SOL    HW258686   6.620   2.007   1.077
18918SOL     OW58687   6.254   3.333   0.534
18918SOL    HW158688   6.307   3.288   0.462
18918SOL    HW258689   6.177   3.382   0.492
18919SOL     OW58690   7.358   2.250   1.418
18919SOL    HW158691   7.408   2.337   1.408
18919SOL    HW258692   7.413   2.176   1.381
18920SOL     OW58693   5.859   3.128   0.204
18920SOL    HW158694   5.765   3.122   0.169
18920SOL    HW258695   5.859   3.182   0.289
18921SOL     OW58696   5.726   2.899   1.732
18921SOL    HW158697   5.644   2.885   1.787
18921SOL    HW258698   5.806   2.861   1.779
18922SOL     OW58699   6.291   2.025   1.453
18922SOL    HW158700   6.372   1.980   1.415
18922SOL    HW258701   6.318   2.077   1.534
18923SOL     OW58702   5.690   2.039   9.939
18923SOL    HW158703   5.628   2.067   9.866
18923SOL    HW258704   5.764   2.106   9.947
18924SOL     OW58705   6.984   2.716   1.387
18924SOL    HW158706   6.924   2.774   1.331
18924SOL    HW258707   7.077   2.722   1.352
18925SOL     OW58708   6.738   3.178   0.103
18925SOL    HW158709   6.640   3.189   0.087
18925SOL    HW258710   6.760   3.208   0.196
18926SOL     OW58711   6.169   2.748   1.431
18926SOL    HW158712   6.236   2.818   1.406
18926SOL    HW258713   6.211   2.658   1.425
18927SOL     OW58714   7.144   3.726   1.064
18927SOL    HW158715   7.170   3.771   0.978
18927SOL    HW258716   7.223   3.679   1.102
18928SOL     OW58717   6.274   2.430   1.690
18928SOL    HW158718   6.350   2.479   1.733
18928SOL    HW258719   6.291   2.332   1.693
18929SOL     OW58720   7.068   3.051   1.628
18929SOL    HW158721   7.055   3.085   1.722
18929SOL    HW258722   7.161   3.073   1.598
18930SOL     OW58723   7.229   2.740   1.271
18930SOL    HW158724   7.235   2.655   1.218
18930SOL    HW258725   7.215   2.817   1.210
18931SOL     OW58726   6.881   2.294   0.408
18931SOL    HW158727   6.847   2.204   0.434
18931SOL    HW258728   6.902   2.346   0.490
18932SOL     OW58729   6.163   2.506   0.678
18932SOL    HW158730   6.214   2.472   0.599
18932SOL    HW258731   6.070   2.530   0.649
18933SOL     OW58732   7.319   2.211   1.688
18933SOL    HW158733   7.334   2.227   1.590
18933SOL    HW258734   7.244   2.146   1.700
18934SOL     OW58735   7.363   2.793   1.504
18934SOL    HW158736   7.346   2.889   1.524
18934SOL    HW258737   7.323   2.770   1.415
18935SOL     OW58738   6.447   3.272   0.074
18935SOL    HW158739   6.364   3.231   0.036
18935SOL    HW258740   6.448   3.260   0.173
18936SOL     OW58741   6.613   2.873   0.924
18936SOL    HW158742   6.600   2.774   0.927
18936SOL    HW258743   6.551   2.917   0.990
18937SOL     OW58744   6.754   2.873   0.103
18937SOL    HW158745   6.766   2.971   0.088
18937SOL    HW258746   6.842   2.827   0.089
18938SOL     OW58747   7.445   3.386   0.794
18938SOL    HW158748   7.350   3.376   0.766
18938SOL    HW258749   7.495   3.301   0.776
18939SOL     OW58750   5.809   3.140   1.844
18939SOL    HW158751   5.783   3.060   1.791
18939SOL    HW258752   5.752   3.147   1.926
18940SOL     OW58753   5.834   3.016   0.615
18940SOL    HW158754   5.836   2.963   0.700
18940SOL    HW258755   5.854   2.957   0.538
18941SOL     OW58756   6.312   3.240   1.739
18941SOL    HW158757   6.220   3.200   1.742
18941SOL    HW258758   6.305   3.339   1.746
18942SOL     OW58759   7.519   2.057   1.331
18942SOL    HW158760   7.529   1.984   1.398
18942SOL    HW258761   7.482   2.019   1.246
18943SOL     OW58762   5.932   2.272   0.551
18943SOL    HW158763   5.980   2.216   0.484
18943SOL    HW258764   5.889   2.214   0.619
18944SOL     OW58765   7.232   3.360   1.121
18944SOL    HW158766   7.166   3.346   1.047
18944SOL    HW258767   7.228   3.283   1.185
18945SOL     OW58768   5.950   2.413   1.315
18945SOL    HW158769   5.999   2.345   1.370
18945SOL    HW258770   5.961   2.392   1.218
18946SOL     OW58771   6.413   3.523   0.647
18946SOL    HW158772   6.395   3.609   0.598
18946SOL    HW258773   6.350   3.453   0.614
18947SOL     OW58774   6.993   2.130   1.114
18947SOL    HW158775   7.010   2.032   1.128
18947SOL    HW258776   6.934   2.164   1.187
18948SOL     OW58777   6.617   1.836   1.102
18948SOL    HW158778   6.573   1.776   1.036
18948SOL    HW258779   6.714   1.810   1.110
18949SOL     OW58780   6.430   3.229   0.343
18949SOL    HW158781   6.426   3.131   0.365
18949SOL    HW258782   6.504   3.272   0.394
18950SOL     OW58783   6.203   3.421   1.339
18950SOL    HW158784   6.199   3.490   1.412
18950SOL    HW258785   6.296   3.416   1.303
18951SOL     OW58786   6.939   1.939   0.173
18951SOL    HW158787   6.947   1.924   0.075
18951SOL    HW258788   6.866   1.882   0.210
18952SOL     OW58789   6.915   2.418   0.651
18952SOL    HW158790   6.838   2.482   0.650
18952SOL    HW258791   6.924   2.379   0.742
18953SOL     OW58792   7.212   2.107   0.948
18953SOL    HW158793   7.135   2.131   1.007
18953SOL    HW258794   7.221   2.177   0.876
18954SOL     OW58795   5.632   2.877   0.306
18954SOL    HW158796   5.729   2.887   0.332
18954SOL    HW258797   5.598   2.789   0.340
18955SOL     OW58798   6.493   3.595   0.303
18955SOL    HW158799   6.422   3.570   0.237
18955SOL    HW258800   6.456   3.659   0.369
18956SOL     OW58801   5.783   2.423   1.983
18956SOL    HW158802   5.687   2.424   2.013
18956SOL    HW258803   5.789   2.462   1.891
18957SOL     OW58804   5.812   2.178   2.872
18957SOL    HW158805   5.852   2.137   2.954
18957SOL    HW258806   5.723   2.137   2.854
18958SOL     OW58807   5.605   2.289   2.512
18958SOL    HW158808   5.523   2.310   2.565
18958SOL    HW258809   5.582   2.222   2.441
18959SOL     OW58810   6.183   3.147   3.092
18959SOL    HW158811   6.102   3.143   3.034
18959SOL    HW258812   6.195   3.241   3.126
18960SOL     OW58813   7.169   3.381   2.559
18960SOL    HW158814   7.131   3.338   2.641
18960SOL    HW258815   7.100   3.379   2.486
18961SOL     OW58816   6.702   2.576   2.522
18961SOL    HW158817   6.754   2.657   2.494
18961SOL    HW258818   6.658   2.593   2.610
18962SOL     OW58819   7.384   2.428   2.065
18962SOL    HW158820   7.338   2.441   1.977
18962SOL    HW258821   7.334   2.359   2.118
18963SOL     OW58822   6.362   2.993   2.952
18963SOL    HW158823   6.287   3.029   3.007
18963SOL    HW258824   6.403   3.067   2.899
18964SOL     OW58825   6.497   2.573   3.633
18964SOL    HW158826   6.527   2.641   3.700
18964SOL    HW258827   6.490   2.615   3.543
18965SOL     OW58828   6.286   2.861   2.530
18965SOL    HW158829   6.358   2.852   2.600
18965SOL    HW258830   6.214   2.921   2.565
18966SOL     OW58831   6.286   2.977   3.699
18966SOL    HW158832   6.346   3.050   3.732
18966SOL    HW258833   6.209   3.018   3.649
18967SOL     OW58834   5.963   3.212   2.936
18967SOL    HW158835   5.886   3.170   2.887
18967SOL    HW258836   6.002   3.285   2.880
18968SOL     OW58837   7.019   3.361   3.229
18968SOL    HW158838   7.084   3.435   3.247
18968SOL    HW258839   6.939   3.372   3.287
18969SOL     OW58840   6.064   2.204   3.316
18969SOL    HW158841   6.143   2.143   3.315
18969SOL    HW258842   5.984   2.154   3.350
18970SOL     OW58843   7.203   2.337   2.600
18970SOL    HW158844   7.194   2.372   2.507
18970SOL    HW258845   7.150   2.394   2.663
18971SOL     OW58846   5.820   3.638   2.368
18971SOL    HW158847   5.848   3.703   2.438
18971SOL    HW258848   5.892   3.631   2.298
18972SOL     OW58849   6.658   3.194   3.535
18972SOL    HW158850   6.698   3.190   3.626
18972SOL    HW258851   6.616   3.105   3.513
18973SOL     OW58852   5.837   3.366   2.395
18973SOL    HW158853   5.822   3.464   2.401
18973SOL    HW258854   5.797   3.321   2.475
18974SOL     OW58855   5.911   2.872   2.780
18974SOL    HW158856   5.929   2.804   2.851
18974SOL    HW258857   5.849   2.941   2.816
18975SOL     OW58858   6.151   3.610   3.369
18975SOL    HW158859   6.052   3.614   3.354
18975SOL    HW258860   6.191   3.700   3.353
18976SOL     OW58861   6.148   2.832   2.063
18976SOL    HW158862   6.195   2.862   1.979
18976SOL    HW258863   6.200   2.863   2.143
18977SOL     OW58864   7.287   1.952   3.395
18977SOL    HW158865   7.316   2.021   3.328
18977SOL    HW258866   7.220   1.993   3.457
18978SOL     OW58867   5.695   2.549   2.450
18978SOL    HW158868   5.673   2.456   2.477
18978SOL    HW258869   5.699   2.608   2.530
18979SOL     OW58870   7.412   3.640   2.198
18979SOL    HW158871   7.482   3.619   2.267
18979SOL    HW258872   7.411   3.739   2.182
18980SOL     OW58873   5.564   3.480   1.976
18980SOL    HW158874   5.517   3.392   1.983
18980SOL    HW258875   5.571   3.521   2.067
18981SOL     OW58876   7.291   2.800   2.528
18981SOL    HW158877   7.381   2.757   2.523
18981SOL    HW258878   7.276   2.856   2.446
18982SOL     OW58879   7.263   2.975   2.307
18982SOL    HW158880   7.346   2.947   2.260
18982SOL    HW258881   7.284   3.046   2.374
18983SOL     OW58882   5.680   2.663   3.416
18983SOL    HW158883   5.766   2.714   3.410
18983SOL    HW258884   5.606   2.717   3.377
18984SOL     OW58885   6.216   3.250   2.609
18984SOL    HW158886   6.173   3.161   2.623
18984SOL    HW258887   6.198   3.281   2.516
18985SOL     OW58888   6.832   3.057   3.285
18985SOL    HW158889   6.853   2.989   3.214
18985SOL    HW258890   6.907   3.059   3.352
18986SOL     OW58891   6.424   1.890   2.363
18986SOL    HW158892   6.469   1.970   2.325
18986SOL    HW258893   6.325   1.905   2.367
18987SOL     OW58894   7.150   2.928   2.060
18987SOL    HW158895   7.070   2.870   2.075
18987SOL    HW258896   7.192   2.950   2.148
18988SOL     OW58897   6.748   3.671   3.510
18988SOL    HW158898   6.747   3.751   3.451
18988SOL    HW258899   6.774   3.590   3.456
18989SOL     OW58900   5.920   2.120   3.754
18989SOL    HW158901   5.958   2.196   3.806
18989SOL    HW258902   5.850   2.154   3.691
18990SOL     OW58903   7.083   3.252   2.783
18990SOL    HW158904   7.021   3.288   2.853
18990SOL    HW258905   7.047   3.166   2.748
18991SOL     OW58906   7.172   3.644   2.465
18991SOL    HW158907   7.159   3.630   2.367
18991SOL    HW258908   7.188   3.556   2.509
18992SOL     OW58909   6.144   2.560   2.141
18992SOL    HW158910   6.154   2.651   2.101
18992SOL    HW258911   6.072   2.562   2.210
18993SOL     OW58912   6.873   2.262   2.791
18993SOL    HW158913   6.792   2.206   2.774
18993SOL    HW258914   6.922   2.227   2.871
18994SOL     OW58915   7.156   3.562   2.192
18994SOL    HW158916   7.253   3.586   2.192
18994SOL    HW258917   7.123   3.552   2.098
18995SOL     OW58918   6.399   2.451   3.261
18995SOL    HW158919   6.347   2.439   3.345
18995SOL    HW258920   6.385   2.372   3.201
18996SOL     OW58921   6.468   2.691   3.382
18996SOL    HW158922   6.457   2.599   3.345
18996SOL    HW258923   6.423   2.757   3.323
18997SOL     OW58924   6.633   2.218   3.041
18997SOL    HW158925   6.537   2.224   3.068
18997SOL    HW258926   6.639   2.185   2.947
18998SOL     OW58927   6.616   2.532   2.262
18998SOL    HW158928   6.641   2.538   2.359
18998SOL    HW258929   6.525   2.491   2.253
18999SOL     OW58930   5.698   2.740   2.647
18999SOL    HW158931   5.791   2.766   2.672
18999SOL    HW258932   5.633   2.785   2.707
19000SOL     OW58933   5.710   3.777   3.469
19000SOL    HW158934   5.719   3.727   3.555
19000SOL    HW258935   5.620   3.821   3.465
19001SOL     OW58936   6.408   2.195   2.043
19001SOL    HW158937   6.470   2.249   1.986
19001SOL    HW258938   6.374   2.117   1.991
19002SOL     OW58939   7.232   2.451   3.699
19002SOL    HW158940   7.227   2.537   3.649
19002SOL    HW258941   7.275   2.381   3.642
19003SOL     OW58942   6.985   3.026   2.398
19003SOL    HW158943   7.074   3.015   2.354
19003SOL    HW258944   6.930   3.091   2.345
19004SOL     OW58945   6.180   1.908   2.832
19004SOL    HW158946   6.173   1.958   2.918
19004SOL    HW258947   6.212   1.970   2.760
19005SOL     OW58948   6.573   3.318   2.319
19005SOL    HW158949   6.547   3.395   2.261
19005SOL    HW258950   6.552   3.339   2.414
19006SOL     OW58951   7.367   2.900   2.775
19006SOL    HW158952   7.329   2.883   2.684
19006SOL    HW258953   7.294   2.916   2.840
19007SOL     OW58954   6.789   3.403   3.376
19007SOL    HW158955   6.762   3.319   3.424
19007SOL    HW258956   6.710   3.438   3.325
19008SOL     OW58957   5.910   2.818   2.232
19008SOL    HW158958   5.983   2.835   2.165
19008SOL    HW258959   5.921   2.725   2.268
19009SOL     OW58960   7.067   2.646   2.548
19009SOL    HW158961   7.056   2.597   2.635
19009SOL    HW258962   7.147   2.705   2.554
19010SOL     OW58963   6.066   3.102   3.587
19010SOL    HW158964   6.039   3.076   3.494
19010SOL    HW258965   5.986   3.140   3.635
19011SOL     OW58966   6.708   3.628   2.068
19011SOL    HW158967   6.623   3.599   2.112
19011SOL    HW258968   6.737   3.558   2.003
19012SOL     OW58969   5.825   2.085   3.380
19012SOL    HW158970   5.799   2.156   3.446
19012SOL    HW258971   5.771   2.003   3.396
19013SOL     OW58972   7.242   3.296   1.967
19013SOL    HW158973   7.190   3.381   1.962
19013SOL    HW258974   7.185   3.220   1.936
19014SOL     OW58975   6.038   3.639   2.199
19014SOL    HW158976   6.093   3.690   2.265
19014SOL    HW258977   6.098   3.584   2.140
19015SOL     OW58978   6.964   1.955   2.300
19015SOL    HW158979   6.967   1.936   2.202
19015SOL    HW258980   7.057   1.945   2.338
19016SOL     OW58981   5.752   3.614   3.077
19016SOL    HW158982   5.812   3.610   3.157
19016SOL    HW258983   5.807   3.603   2.994
19017SOL     OW58984   6.561   3.552   2.756
19017SOL    HW158985   6.656   3.534   2.782
19017SOL    HW258986   6.533   3.486   2.687
19018SOL     OW58987   5.947   2.562   2.341
19018SOL    HW158988   5.981   2.469   2.357
19018SOL    HW258989   5.853   2.569   2.373
19019SOL     OW58990   7.114   2.096   3.554
19019SOL    HW158991   7.108   2.084   3.653
19019SOL    HW258992   7.036   2.151   3.523
19020SOL     OW58993   6.332   1.982   1.887
19020SOL    HW158994   6.389   1.902   1.906
19020SOL    HW258995   6.242   1.952   1.855
19021SOL     OW58996   6.312   2.136   3.547
19021SOL    HW158997   6.390   2.082   3.578
19021SOL    HW258998   6.232   2.114   3.604
19022SOL     OW58999   6.451   3.358   3.075
19022SOL    HW159000   6.429   3.334   2.980
19022SOL    HW259001   6.507   3.287   3.116
19023SOL     OW59002   6.414   3.232   2.821
19023SOL    HW159003   6.503   3.228   2.775
19023SOL    HW259004   6.342   3.244   2.753
19024SOL     OW59005   6.524   2.339   2.712
19024SOL    HW159006   6.494   2.333   2.617
19024SOL    HW259007   6.565   2.252   2.739
19025SOL     OW59008   6.157   1.943   2.353
19025SOL    HW159009   6.079   1.941   2.416
19025SOL    HW259010   6.154   2.029   2.300
19026SOL     OW59011   7.036   3.115   1.896
19026SOL    HW159012   7.075   3.043   1.954
19026SOL    HW259013   6.942   3.133   1.924
19027SOL     OW59014   5.869   1.928   2.029
19027SOL    HW159015   5.911   1.999   1.973
19027SOL    HW259016   5.940   1.873   2.072
19028SOL     OW59017   6.543   2.114   2.272
19028SOL    HW159018   6.505   2.144   2.184
19028SOL    HW259019   6.640   2.135   2.275
19029SOL     OW59020   6.778   3.411   2.593
19029SOL    HW159021   6.788   3.478   2.519
19029SOL    HW259022   6.810   3.451   2.679
19030SOL     OW59023   6.075   3.013   2.612
19030SOL    HW159024   6.026   2.958   2.680
19030SOL    HW259025   6.017   3.026   2.531
19031SOL     OW59026   6.820   3.644   2.441
19031SOL    HW159027   6.869   3.716   2.392
19031SOL    HW259028   6.742   3.684   2.490
19032SOL     OW59029   6.588   2.342   1.895
19032SOL    HW159030   6.557   2.428   1.854
19032SOL    HW259031   6.656   2.361   1.965
19033SOL     OW59032   5.657   2.429   3.273
19033SOL    HW159033   5.749   2.403   3.247
19033SOL    HW259034   5.660   2.510   3.331
19034SOL     OW59035   6.160   2.052   3.059
19034SOL    HW159036   6.202   2.024   3.145
19034SOL    HW259037   6.061   2.058   3.072
19035SOL     OW59038   6.449   2.299   2.457
19035SOL    HW159039   6.398   2.359   2.394
19035SOL    HW259040   6.487   2.223   2.405
19036SOL     OW59041   6.597   1.893   2.576
19036SOL    HW159042   6.534   1.896   2.498
19036SOL    HW259043   6.570   1.820   2.639
19037SOL     OW59044   6.980   3.020   2.689
19037SOL    HW159045   6.886   2.989   2.702
19037SOL    HW259046   7.001   3.023   2.591
19038SOL     OW59047   7.034   2.489   2.773
19038SOL    HW159048   6.969   2.413   2.782
19038SOL    HW259049   7.095   2.490   2.852
19039SOL     OW59050   7.404   2.631   2.244
19039SOL    HW159051   7.466   2.598   2.315
19039SOL    HW259052   7.401   2.565   2.169
19040SOL     OW59053   6.069   3.306   2.021
19040SOL    HW159054   6.000   3.264   2.079
19040SOL    HW259055   6.039   3.303   1.926
19041SOL     OW59056   7.334   3.147   2.493
19041SOL    HW159057   7.428   3.136   2.525
19041SOL    HW259058   7.298   3.236   2.523
19042SOL     OW59059   6.963   2.432   1.901
19042SOL    HW159060   6.911   2.403   1.981
19042SOL    HW259061   7.060   2.421   1.919
19043SOL     OW59062   6.162   2.166   2.200
19043SOL    HW159063   6.254   2.168   2.161
19043SOL    HW259064   6.100   2.218   2.141
19044SOL     OW59065   7.318   3.090   3.381
19044SOL    HW159066   7.409   3.055   3.357
19044SOL    HW259067   7.328   3.179   3.426
19045SOL     OW59068   6.598   3.160   3.190
19045SOL    HW159069   6.518   3.134   3.244
19045SOL    HW259070   6.681   3.130   3.237
19046SOL     OW59071   7.204   3.440   3.557
19046SOL    HW159072   7.156   3.478   3.478
19046SOL    HW259073   7.295   3.409   3.529
19047SOL     OW59074   6.742   3.123   2.962
19047SOL    HW159075   6.677   3.138   3.036
19047SOL    HW259076   6.701   3.151   2.875
19048SOL     OW59077   7.154   2.951   2.938
19048SOL    HW159078   7.149   3.018   3.011
19048SOL    HW259079   7.082   2.968   2.871
19049SOL     OW59080   6.508   1.957   3.177
19049SOL    HW159081   6.542   1.926   3.088
19049SOL    HW259082   6.586   1.980   3.235
19050SOL     OW59083   6.523   2.921   3.553
19050SOL    HW159084   6.433   2.938   3.592
19050SOL    HW259085   6.517   2.847   3.486
19051SOL     OW59086   6.319   2.911   2.264
19051SOL    HW159087   6.308   2.892   2.361
19051SOL    HW259088   6.400   2.863   2.230
19052SOL     OW59089   5.681   3.372   3.194
19052SOL    HW159090   5.681   3.459   3.143
19052SOL    HW259091   5.775   3.345   3.213
19053SOL     OW59092   5.903   3.037   2.399
19053SOL    HW159093   5.903   3.108   2.330
19053SOL    HW259094   5.902   2.947   2.355
19054SOL     OW59095   6.096   2.478   2.764
19054SOL    HW159096   6.108   2.531   2.680
19054SOL    HW259097   6.185   2.464   2.808
19055SOL     OW59098   6.827   3.222   2.256
19055SOL    HW159099   6.889   3.294   2.287
19055SOL    HW259100   6.733   3.244   2.284
19056SOL     OW59101   6.916   3.332   2.980
19056SOL    HW159102   6.954   3.346   3.071
19056SOL    HW259103   6.855   3.253   2.981
19057SOL     OW59104   7.187   2.483   2.361
19057SOL    HW159105   7.123   2.540   2.413
19057SOL    HW259106   7.255   2.541   2.316
19058SOL     OW59107   5.943   3.304   3.191
19058SOL    HW159108   5.941   3.270   3.097
19058SOL    HW259109   6.029   3.352   3.207
19059SOL     OW59110   6.065   2.596   3.514
19059SOL    HW159111   6.083   2.651   3.432
19059SOL    HW259112   6.135   2.525   3.522
19060SOL     OW59113   7.204   2.682   3.561
19060SOL    HW159114   7.109   2.711   3.549
19060SOL    HW259115   7.258   2.710   3.482
19061SOL     OW59116   6.511   1.965   3.635
19061SOL    HW159117   6.586   2.031   3.627
19061SOL    HW259118   6.538   1.879   3.592
19062SOL     OW59119   6.080   1.918   3.657
19062SOL    HW159120   6.023   1.858   3.603
19062SOL    HW259121   6.025   1.993   3.694
19063SOL     OW59122   6.853   2.692   2.857
19063SOL    HW159123   6.764   2.658   2.827
19063SOL    HW259124   6.925   2.631   2.826
19064SOL     OW59125   6.770   2.374   2.099
19064SOL    HW159126   6.794   2.297   2.158
19064SOL    HW259127   6.724   2.445   2.153
19065SOL     OW59128   5.886   2.045   3.102
19065SOL    HW159129   5.866   2.079   3.193
19065SOL    HW259130   5.845   1.955   3.090
19066SOL     OW59131   5.674   3.113   3.107
19066SOL    HW159132   5.686   3.060   3.191
19066SOL    HW259133   5.663   3.210   3.130
19067SOL     OW59134   6.339   2.447   2.883
19067SOL    HW159135   6.400   2.409   2.813
19067SOL    HW259136   6.387   2.517   2.934
19068SOL     OW59137   7.330   2.873   3.719
19068SOL    HW159138   7.283   2.797   3.673
19068SOL    HW259139   7.276   2.902   3.798
19069SOL     OW59140   5.935   1.930   2.515
19069SOL    HW159141   5.900   2.021   2.539
19069SOL    HW259142   5.940   1.873   2.597
19070SOL     OW59143   7.207   2.263   2.193
19070SOL    HW159144   7.258   2.197   2.247
19070SOL    HW259145   7.177   2.338   2.252
19071SOL     OW59146   6.603   2.587   2.794
19071SOL    HW159147   6.579   2.592   2.891
19071SOL    HW259148   6.583   2.496   2.760
19072SOL     OW59149   6.527   3.439   3.538
19072SOL    HW159150   6.538   3.477   3.446
19072SOL    HW259151   6.560   3.345   3.539
19073SOL     OW59152   7.435   3.341   3.456
19073SOL    HW159153   7.452   3.369   3.362
19073SOL    HW259154   7.518   3.354   3.511
19074SOL     OW59155   5.956   2.786   3.690
19074SOL    HW159156   6.020   2.806   3.764
19074SOL    HW259157   5.998   2.721   3.627
19075SOL     OW59158   7.112   2.130   1.963
19075SOL    HW159159   7.066   2.050   2.001
19075SOL    HW259160   7.149   2.187   2.036
19076SOL     OW59161   6.870   2.684   1.864
19076SOL    HW159162   6.902   2.590   1.872
19076SOL    HW259163   6.912   2.726   1.783
19077SOL     OW59164   6.657   3.201   2.712
19077SOL    HW159165   6.680   3.111   2.673
19077SOL    HW259166   6.702   3.272   2.658
19078SOL     OW59167   5.876   2.439   2.904
19078SOL    HW159168   5.843   2.346   2.890
19078SOL    HW259169   5.956   2.455   2.845
19079SOL     OW59170   6.697   2.158   3.579
19079SOL    HW159171   6.654   2.224   3.641
19079SOL    HW259172   6.785   2.194   3.549
19080SOL     OW59173   6.721   2.020   3.342
19080SOL    HW159174   6.703   2.064   3.430
19080SOL    HW259175   6.777   2.080   3.286
19081SOL     OW59176   5.635   3.131   2.059
19081SOL    HW159177   5.544   3.170   2.045
19081SOL    HW259178   5.625   3.039   2.098
19082SOL     OW59179   6.090   3.415   2.794
19082SOL    HW159180   6.162   3.478   2.822
19082SOL    HW259181   6.123   3.356   2.720
19083SOL     OW59182   6.502   2.604   3.050
19083SOL    HW159183   6.541   2.688   3.088
19083SOL    HW259184   6.469   2.546   3.124
19084SOL     OW59185   5.609   2.476   3.005
19084SOL    HW159186   5.697   2.476   2.956
19084SOL    HW259187   5.624   2.458   3.102
19085SOL     OW59188   5.808   2.503   3.606
19085SOL    HW159189   5.903   2.524   3.585
19085SOL    HW259190   5.748   2.560   3.549
19086SOL     OW59191   6.961   2.783   3.494
19086SOL    HW159192   6.982   2.880   3.492
19086SOL    HW259193   6.949   2.750   3.400
19087SOL     OW59194   6.371   2.421   2.214
19087SOL    HW159195   6.377   2.346   2.149
19087SOL    HW259196   6.291   2.478   2.192
19088SOL     OW59197   7.204   2.479   2.983
19088SOL    HW159198   7.181   2.407   3.048
19088SOL    HW259199   7.303   2.477   2.965
19089SOL     OW59200   5.801   3.421   3.541
19089SOL    HW159201   5.797   3.497   3.605
19089SOL    HW259202   5.821   3.336   3.590
19090SOL     OW59203   6.357   2.254   3.071
19090SOL    HW159204   6.288   2.181   3.068
19090SOL    HW259205   6.337   2.321   2.999
19091SOL     OW59206   6.559   3.517   3.275
19091SOL    HW159207   6.519   3.467   3.198
19091SOL    HW259208   6.542   3.615   3.264
19092SOL     OW59209   6.028   2.332   2.032
19092SOL    HW159210   6.083   2.412   2.056
19092SOL    HW259211   5.933   2.359   2.020
19093SOL     OW59212   5.681   2.987   3.363
19093SOL    HW159213   5.706   2.976   3.459
19093SOL    HW259214   5.612   2.918   3.339
19094SOL     OW59215   6.837   2.882   3.052
19094SOL    HW159216   6.846   2.815   2.978
19094SOL    HW259217   6.805   2.969   3.014
19095SOL     OW59218   6.927   2.789   2.109
19095SOL    HW159219   6.853   2.772   2.175
19095SOL    HW259220   6.901   2.749   2.021
19096SOL     OW59221   7.352   3.543   3.034
19096SOL    HW159222   7.406   3.597   2.969
19096SOL    HW259223   7.328   3.455   2.993
19097SOL     OW59224   6.830   3.541   2.827
19097SOL    HW159225   6.907   3.596   2.796
19097SOL    HW259226   6.862   3.471   2.891
19098SOL     OW59227   5.726   3.067   2.845
19098SOL    HW159228   5.710   3.087   2.942
19098SOL    HW259229   5.649   3.014   2.810
19099SOL     OW59230   6.274   3.513   3.601
19099SOL    HW159231   6.229   3.554   3.521
19099SOL    HW259232   6.372   3.504   3.582
19100SOL     OW59233   7.368   2.088   2.326
19100SOL    HW159234   7.423   2.065   2.246
19100SOL    HW259235   7.317   2.007   2.356
19101SOL     OW59236   6.981   3.430   2.349
19101SOL    HW159237   7.046   3.468   2.283
19101SOL    HW259238   6.920   3.502   2.380
19102SOL     OW59239   5.755   3.639   3.701
19102SOL    HW159240   5.688   3.585   3.752
19102SOL    HW259241   5.809   3.694   3.764
19103SOL     OW59242   6.857   2.794   2.467
19103SOL    HW159243   6.933   2.735   2.494
19103SOL    HW259244   6.893   2.879   2.429
19104SOL     OW59245   6.356   3.107   3.309
19104SOL    HW159246   6.338   3.159   3.392
19104SOL    HW259247   6.285   3.126   3.242
19105SOL     OW59248   6.239   3.515   2.025
19105SOL    HW159249   6.272   3.518   1.930
19105SOL    HW259250   6.182   3.433   2.037
19106SOL     OW59251   7.204   3.558   3.273
19106SOL    HW159252   7.249   3.553   3.183
19106SOL    HW259253   7.238   3.639   3.322
19107SOL     OW59254   7.423   2.008   2.848
19107SOL    HW159255   7.439   1.918   2.807
19107SOL    HW259256   7.339   2.047   2.809
19108SOL     OW59257   5.849   2.179   2.591
19108SOL    HW159258   5.764   2.221   2.559
19108SOL    HW259259   5.855   2.186   2.691
19109SOL     OW59260   6.798   3.445   1.885
19109SOL    HW159261   6.786   3.353   1.921
19109SOL    HW259262   6.734   3.461   1.810
19110SOL     OW59263   6.346   2.859   3.206
19110SOL    HW159264   6.360   2.877   3.108
19110SOL    HW259265   6.353   2.945   3.257
19111SOL     OW59266   6.531   2.776   2.171
19111SOL    HW159267   6.560   2.785   2.075
19111SOL    HW259268   6.565   2.690   2.208
19112SOL     OW59269   7.067   3.528   1.929
19112SOL    HW159270   6.974   3.496   1.909
19112SOL    HW259271   7.119   3.534   1.843
19113SOL     OW59272   5.946   3.077   3.346
19113SOL    HW159273   5.951   3.160   3.290
19113SOL    HW259274   5.853   3.042   3.344
19114SOL     OW59275   7.157   3.132   3.146
19114SOL    HW159276   7.222   3.112   3.219
19114SOL    HW259277   7.098   3.209   3.172
19115SOL     OW59278   6.710   2.944   2.645
19115SOL    HW159279   6.622   2.905   2.673
19115SOL    HW259280   6.751   2.886   2.575
19116SOL     OW59281   6.646   2.092   2.778
19116SOL    HW159282   6.639   2.053   2.686
19116SOL    HW259283   6.637   2.019   2.846
19117SOL     OW59284   6.176   3.323   2.354
19117SOL    HW159285   6.234   3.276   2.288
19117SOL    HW259286   6.086   3.341   2.314
19118SOL     OW59287   7.432   2.226   3.298
19118SOL    HW159288   7.465   2.315   3.266
19118SOL    HW259289   7.422   2.164   3.221
19119SOL     OW59290   5.869   3.211   2.182
19119SOL    HW159291   5.783   3.187   2.138
19119SOL    HW259292   5.851   3.278   2.254
19120SOL     OW59293   5.735   2.938   3.625
19120SOL    HW159294   5.652   2.910   3.673
19120SOL    HW259295   5.812   2.880   3.653
19121SOL     OW59296   6.276   2.012   3.305
19121SOL    HW159297   6.361   1.986   3.260
19121SOL    HW259298   6.297   2.057   3.392
19122SOL     OW59299   5.764   2.241   1.703
19122SOL    HW159300   5.664   2.238   1.703
19122SOL    HW259301   5.795   2.336   1.708
19123SOL     OW59302   6.961   2.718   3.232
19123SOL    HW159303   6.902   2.772   3.172
19123SOL    HW259304   7.054   2.716   3.195
19124SOL     OW59305   5.617   1.990   2.112
19124SOL    HW159306   5.567   2.001   2.026
19124SOL    HW259307   5.715   1.980   2.092
19125SOL     OW59308   6.750   3.190   1.982
19125SOL    HW159309   6.653   3.165   1.979
19125SOL    HW259310   6.781   3.191   2.077
19126SOL     OW59311   7.051   3.672   2.723
19126SOL    HW159312   7.072   3.673   2.626
19126SOL    HW259313   7.131   3.700   2.775
19127SOL     OW59314   6.292   2.418   3.515
19127SOL    HW159315   6.359   2.462   3.575
19127SOL    HW259316   6.297   2.319   3.526
19128SOL     OW59317   7.046   3.041   3.477
19128SOL    HW159318   7.037   3.069   3.573
19128SOL    HW259319   7.139   3.062   3.446
19129SOL     OW59320   5.871   3.596   3.332
19129SOL    HW159321   5.814   3.669   3.369
19129SOL    HW259322   5.859   3.514   3.388
19130SOL     OW59323   7.204   2.734   3.104
19130SOL    HW159324   7.209   2.648   3.053
19130SOL    HW259325   7.189   2.809   3.040
19131SOL     OW59326   6.806   2.180   2.291
19131SOL    HW159327   6.867   2.101   2.296
19131SOL    HW259328   6.817   2.235   2.374
19132SOL     OW59329   6.136   2.628   2.543
19132SOL    HW159330   6.193   2.708   2.527
19132SOL    HW259331   6.074   2.615   2.466
19133SOL     OW59332   7.338   2.247   3.553
19133SOL    HW159333   7.374   2.245   3.460
19133SOL    HW259334   7.257   2.188   3.558
19134SOL     OW59335   7.326   2.793   3.345
19134SOL    HW159336   7.310   2.890   3.362
19134SOL    HW259337   7.289   2.768   3.255
19135SOL     OW59338   6.468   3.154   1.954
19135SOL    HW159339   6.420   3.175   2.039
19135SOL    HW259340   6.422   3.200   1.878
19136SOL     OW59341   6.295   3.584   2.832
19136SOL    HW159342   6.276   3.681   2.845
19136SOL    HW259343   6.393   3.571   2.818
19137SOL     OW59344   6.472   2.836   2.739
19137SOL    HW159345   6.505   2.745   2.762
19137SOL    HW259346   6.429   2.878   2.819
19138SOL     OW59347   6.621   2.773   1.915
19138SOL    HW159348   6.597   2.845   1.851
19138SOL    HW259349   6.715   2.742   1.898
19139SOL     OW59350   7.402   3.428   2.700
19139SOL    HW159351   7.321   3.426   2.642
19139SOL    HW259352   7.386   3.373   2.782
19140SOL     OW59353   5.831   3.189   3.688
19140SOL    HW159354   5.786   3.103   3.664
19140SOL    HW259355   5.814   3.210   3.784
19141SOL     OW59356   5.739   3.179   2.581
19141SOL    HW159357   5.739   3.146   2.675
19141SOL    HW259358   5.795   3.118   2.524
19142SOL     OW59359   6.282   3.247   3.527
19142SOL    HW159360   6.196   3.201   3.549
19142SOL    HW259361   6.275   3.344   3.550
19143SOL     OW59362   7.406   2.022   3.122
19143SOL    HW159363   7.430   1.929   3.148
19143SOL    HW259364   7.410   2.031   3.022
19144SOL     OW59365   6.014   2.310   2.394
19144SOL    HW159366   6.072   2.248   2.342
19144SOL    HW259367   5.968   2.259   2.467
19145SOL     OW59368   7.316   3.298   2.923
19145SOL    HW159369   7.230   3.269   2.881
19145SOL    HW259370   7.343   3.231   2.992
19146SOL     OW59371   5.902   2.380   3.186
19146SOL    HW159372   5.973   2.325   3.231
19146SOL    HW259373   5.924   2.390   3.089
19147SOL     OW59374   6.435   3.423   2.544
19147SOL    HW159375   6.396   3.497   2.489
19147SOL    HW259376   6.363   3.359   2.570
19148SOL     OW59377   7.008   2.156   3.003
19148SOL    HW159378   7.035   2.060   3.012
19148SOL    HW259379   6.952   2.182   3.082
19149SOL     OW59380   6.618   1.866   2.932
19149SOL    HW159381   6.573   1.799   2.874
19149SOL    HW259382   6.712   1.836   2.952
19150SOL     OW59383   6.361   3.178   2.206
19150SOL    HW159384   6.346   3.082   2.229
19150SOL    HW259385   6.443   3.210   2.253
19151SOL     OW59386   6.205   3.400   3.196
19151SOL    HW159387   6.195   3.476   3.260
19151SOL    HW259388   6.294   3.405   3.152
19152SOL     OW59389   6.973   1.907   2.033
19152SOL    HW159390   7.010   1.824   1.992
19152SOL    HW259391   6.899   1.942   1.977
19153SOL     OW59392   6.826   2.327   2.518
19153SOL    HW159393   6.781   2.417   2.515
19153SOL    HW259394   6.855   2.307   2.612
19154SOL     OW59395   7.184   2.116   2.778
19154SOL    HW159396   7.124   2.152   2.849
19154SOL    HW259397   7.189   2.181   2.702
19155SOL     OW59398   5.636   2.881   2.195
19155SOL    HW159399   5.735   2.870   2.203
19155SOL    HW259400   5.592   2.792   2.197
19156SOL     OW59401   6.470   3.538   2.186
19156SOL    HW159402   6.390   3.524   2.128
19156SOL    HW259403   6.452   3.611   2.252
19157SOL     OW59404   5.761   2.436   3.879
19157SOL    HW159405   5.668   2.440   3.913
19157SOL    HW259406   5.764   2.471   3.785
19158SOL     OW59407   5.781   2.100   4.697
19158SOL    HW159408   5.821   2.065   4.782
19158SOL    HW259409   5.687   2.068   4.689
19159SOL     OW59410   6.160   3.178   4.967
19159SOL    HW159411   6.078   3.174   4.910
19159SOL    HW259412   6.186   3.273   4.982
19160SOL     OW59413   7.224   3.346   4.390
19160SOL    HW159414   7.166   3.317   4.466
19160SOL    HW259415   7.169   3.357   4.307
19161SOL     OW59416   6.728   2.593   4.362
19161SOL    HW159417   6.776   2.680   4.348
19161SOL    HW259418   6.683   2.595   4.452
19162SOL     OW59419   7.393   2.417   3.915
19162SOL    HW159420   7.339   2.439   3.834
19162SOL    HW259421   7.347   2.345   3.967
19163SOL     OW59422   6.304   2.987   4.827
19163SOL    HW159423   6.244   3.037   4.889
19163SOL    HW259424   6.339   3.048   4.757
19164SOL     OW59425   6.555   2.621   5.508
19164SOL    HW159426   6.580   2.692   5.574
19164SOL    HW259427   6.539   2.663   5.419
19165SOL     OW59428   6.261   2.834   4.374
19165SOL    HW159429   6.334   2.831   4.443
19165SOL    HW259430   6.193   2.903   4.401
19166SOL     OW59431   6.306   3.030   5.578
19166SOL    HW159432   6.369   3.097   5.617
19166SOL    HW259433   6.229   3.077   5.535
19167SOL     OW59434   5.942   3.240   4.807
19167SOL    HW159435   5.871   3.180   4.771
19167SOL    HW259436   5.982   3.292   4.732
19168SOL     OW59437   6.992   3.380   5.049
19168SOL    HW159438   7.053   3.453   5.081
19168SOL    HW259439   6.912   3.376   5.108
19169SOL     OW59440   6.058   2.212   5.154
19169SOL    HW159441   6.143   2.168   5.182
19169SOL    HW259442   5.981   2.157   5.186
19170SOL     OW59443   7.176   2.331   4.436
19170SOL    HW159444   7.108   2.339   4.363
19170SOL    HW259445   7.160   2.403   4.504
19171SOL     OW59446   5.816   3.596   4.174
19171SOL    HW159447   5.836   3.663   4.245
19171SOL    HW259448   5.895   3.590   4.112
19172SOL     OW59449   6.697   3.206   5.414
19172SOL    HW159450   6.786   3.177   5.450
19172SOL    HW259451   6.634   3.128   5.417
19173SOL     OW59452   5.795   3.321   4.210
19173SOL    HW159453   5.800   3.421   4.211
19173SOL    HW259454   5.722   3.291   4.272
19174SOL     OW59455   5.949   2.922   4.663
19174SOL    HW159456   5.935   2.824   4.681
19174SOL    HW259457   5.870   2.973   4.696
19175SOL     OW59458   6.171   3.689   5.127
19175SOL    HW159459   6.099   3.655   5.187
19175SOL    HW259460   6.219   3.765   5.171
19176SOL     OW59461   6.153   2.847   3.904
19176SOL    HW159462   6.202   2.882   3.824
19176SOL    HW259463   6.207   2.865   3.986
19177SOL     OW59464   7.244   1.921   5.233
19177SOL    HW159465   7.261   1.972   5.148
19177SOL    HW259466   7.180   1.972   5.290
19178SOL     OW59467   5.716   2.559   4.331
19178SOL    HW159468   5.778   2.535   4.406
19178SOL    HW259469   5.623   2.570   4.366
19179SOL     OW59470   5.589   3.489   3.847
19179SOL    HW159471   5.565   3.392   3.858
19179SOL    HW259472   5.559   3.540   3.928
19180SOL     OW59473   7.278   2.770   4.350
19180SOL    HW159474   7.361   2.769   4.405
19180SOL    HW259475   7.286   2.838   4.278
19181SOL     OW59476   7.310   2.975   4.170
19181SOL    HW159477   7.394   2.956   4.119
19181SOL    HW259478   7.330   3.030   4.250
19182SOL     OW59479   5.680   2.656   5.201
19182SOL    HW159480   5.746   2.708   5.147
19182SOL    HW259481   5.593   2.705   5.204
19183SOL     OW59482   6.195   3.255   4.428
19183SOL    HW159483   6.156   3.164   4.441
19183SOL    HW259484   6.184   3.282   4.332
19184SOL     OW59485   6.821   3.063   5.130
19184SOL    HW159486   6.862   3.005   5.060
19184SOL    HW259487   6.885   3.075   5.206
19185SOL     OW59488   6.461   1.897   4.210
19185SOL    HW159489   6.505   1.983   4.181
19185SOL    HW259490   6.362   1.910   4.213
19186SOL     OW59491   5.845   2.812   5.047
19186SOL    HW159492   5.928   2.756   5.038
19186SOL    HW259493   5.827   2.858   4.960
19187SOL     OW59494   7.159   2.940   3.934
19187SOL    HW159495   7.084   2.876   3.949
19187SOL    HW259496   7.207   2.957   4.020
19188SOL     OW59497   6.899   3.769   5.343
19188SOL    HW159498   6.840   3.819   5.280
19188SOL    HW259499   6.917   3.678   5.305
19189SOL     OW59500   5.944   2.067   5.618
19189SOL    HW159501   5.984   2.153   5.653
19189SOL    HW259502   5.846   2.080   5.602
19190SOL     OW59503   7.061   3.259   4.594
19190SOL    HW159504   6.992   3.287   4.660
19190SOL    HW259505   7.017   3.216   4.515
19191SOL     OW59506   6.152   2.564   3.994
19191SOL    HW159507   6.159   2.655   3.953
19191SOL    HW259508   6.079   2.564   4.063
19192SOL     OW59509   6.862   2.323   4.644
19192SOL    HW159510   6.764   2.332   4.663
19192SOL    HW259511   6.899   2.247   4.698
19193SOL     OW59512   7.183   3.477   3.995
19193SOL    HW159513   7.211   3.562   4.040
19193SOL    HW259514   7.133   3.498   3.911
19194SOL     OW59515   6.405   2.410   5.171
19194SOL    HW159516   6.413   2.350   5.251
19194SOL    HW259517   6.372   2.356   5.093
19195SOL     OW59518   6.960   2.325   5.370
19195SOL    HW159519   6.970   2.377   5.455
19195SOL    HW259520   7.010   2.239   5.376
19196SOL     OW59521   6.540   2.764   5.268
19196SOL    HW159522   6.588   2.696   5.213
19196SOL    HW259523   6.473   2.811   5.211
19197SOL     OW59524   6.596   2.219   4.892
19197SOL    HW159525   6.504   2.237   4.925
19197SOL    HW259526   6.592   2.154   4.816
19198SOL     OW59527   6.634   2.534   4.112
19198SOL    HW159528   6.664   2.547   4.206
19198SOL    HW259529   6.542   2.495   4.112
19199SOL     OW59530   5.732   3.712   5.313
19199SOL    HW159531   5.712   3.686   5.407
19199SOL    HW259532   5.659   3.679   5.253
19200SOL     OW59533   6.441   2.217   3.928
19200SOL    HW159534   6.495   2.260   3.856
19200SOL    HW259535   6.385   2.144   3.888
19201SOL     OW59536   7.264   2.452   5.550
19201SOL    HW159537   7.257   2.532   5.490
19201SOL    HW259538   7.281   2.370   5.495
19202SOL     OW59539   6.198   1.967   4.667
19202SOL    HW159540   6.194   1.997   4.762
19202SOL    HW259541   6.206   2.047   4.607
19203SOL     OW59542   6.552   3.338   4.202
19203SOL    HW159543   6.521   3.407   4.136
19203SOL    HW259544   6.520   3.362   4.293
19204SOL     OW59545   5.941   3.638   4.591
19204SOL    HW159546   5.977   3.546   4.598
19204SOL    HW259547   6.010   3.704   4.622
19205SOL     OW59548   7.384   2.972   4.650
19205SOL    HW159549   7.364   3.021   4.566
19205SOL    HW259550   7.303   2.968   4.707
19206SOL     OW59551   6.777   3.390   5.213
19206SOL    HW159552   6.755   3.314   5.274
19206SOL    HW259553   6.697   3.448   5.202
19207SOL     OW59554   5.900   2.889   4.034
19207SOL    HW159555   5.987   2.890   3.984
19207SOL    HW259556   5.868   2.795   4.043
19208SOL     OW59557   7.054   2.641   4.387
19208SOL    HW159558   7.055   2.593   4.475
19208SOL    HW259559   7.141   2.689   4.375
19209SOL     OW59560   6.078   3.169   5.481
19209SOL    HW159561   6.046   3.172   5.387
19209SOL    HW259562   5.999   3.161   5.543
19210SOL     OW59563   6.699   3.626   3.951
19210SOL    HW159564   6.609   3.597   3.984
19210SOL    HW259565   6.726   3.567   3.874
19211SOL     OW59566   5.814   2.085   5.198
19211SOL    HW159567   5.724   2.129   5.195
19211SOL    HW259568   5.809   2.003   5.255
19212SOL     OW59569   7.264   3.227   3.749
19212SOL    HW159570   7.251   3.308   3.692
19212SOL    HW259571   7.178   3.175   3.751
19213SOL     OW59572   6.051   3.616   4.028
19213SOL    HW159573   6.094   3.675   4.096
19213SOL    HW259574   6.121   3.570   3.974
19214SOL     OW59575   7.075   2.024   4.141
19214SOL    HW159576   7.033   1.962   4.075
19214SOL    HW259577   7.173   2.005   4.147
19215SOL     OW59578   5.817   3.635   4.923
19215SOL    HW159579   5.864   3.554   4.959
19215SOL    HW259580   5.771   3.611   4.838
19216SOL     OW59581   5.954   2.532   4.183
19216SOL    HW159582   5.964   2.433   4.187
19216SOL    HW259583   5.864   2.558   4.219
19217SOL     OW59584   7.074   2.064   5.420
19217SOL    HW159585   7.081   2.082   5.518
19217SOL    HW259586   7.002   1.997   5.403
19218SOL     OW59587   6.293   2.006   3.820
19218SOL    HW159588   6.376   1.974   3.776
19218SOL    HW259589   6.214   1.961   3.779
19219SOL     OW59590   6.435   3.351   4.891
19219SOL    HW159591   6.409   3.308   4.805
19219SOL    HW259592   6.496   3.290   4.942
19220SOL     OW59593   6.874   2.461   5.144
19220SOL    HW159594   6.911   2.422   5.228
19220SOL    HW259595   6.917   2.550   5.126
19221SOL     OW59596   6.377   3.195   4.657
19221SOL    HW159597   6.471   3.197   4.625
19221SOL    HW259598   6.315   3.219   4.582
19222SOL     OW59599   6.530   2.330   4.592
19222SOL    HW159600   6.506   2.326   4.495
19222SOL    HW259601   6.538   2.237   4.628
19223SOL     OW59602   6.191   1.933   4.206
19223SOL    HW159603   6.121   1.911   4.274
19223SOL    HW259604   6.167   2.017   4.159
19224SOL     OW59605   7.020   3.093   3.749
19224SOL    HW159606   7.062   3.034   3.818
19224SOL    HW259607   6.927   3.117   3.777
19225SOL     OW59608   5.829   1.893   3.890
19225SOL    HW159609   5.849   1.982   3.848
19225SOL    HW259610   5.912   1.856   3.930
19226SOL     OW59611   6.584   2.132   4.146
19226SOL    HW159612   6.539   2.165   4.063
19226SOL    HW259613   6.682   2.151   4.141
19227SOL     OW59614   6.621   2.563   5.102
19227SOL    HW159615   6.548   2.499   5.128
19227SOL    HW259616   6.709   2.519   5.116
19228SOL     OW59617   6.069   3.015   4.443
19228SOL    HW159618   6.031   2.981   4.529
19228SOL    HW259619   5.996   3.026   4.376
19229SOL     OW59620   6.599   2.345   3.749
19229SOL    HW159621   6.567   2.430   3.706
19229SOL    HW259622   6.673   2.367   3.813
19230SOL     OW59623   5.680   2.402   5.106
19230SOL    HW159624   5.774   2.396   5.073
19230SOL    HW259625   5.664   2.494   5.144
19231SOL     OW59626   6.164   2.035   4.926
19231SOL    HW159627   6.190   1.969   4.996
19231SOL    HW259628   6.064   2.045   4.924
19232SOL     OW59629   6.472   2.308   4.329
19232SOL    HW159630   6.420   2.366   4.266
19232SOL    HW259631   6.517   2.235   4.278
19233SOL     OW59632   6.619   1.910   4.439
19233SOL    HW159633   6.563   1.914   4.356
19233SOL    HW259634   6.598   1.827   4.490
19234SOL     OW59635   7.064   2.510   4.629
19234SOL    HW159636   6.994   2.441   4.647
19234SOL    HW259637   7.130   2.511   4.704
19235SOL     OW59638   7.402   2.645   4.066
19235SOL    HW159639   7.453   2.624   4.150
19235SOL    HW259640   7.403   2.565   4.005
19236SOL     OW59641   6.066   3.272   3.903
19236SOL    HW159642   5.967   3.270   3.916
19236SOL    HW259643   6.097   3.186   3.863
19237SOL     OW59644   7.375   3.112   4.402
19237SOL    HW159645   7.474   3.125   4.394
19237SOL    HW259646   7.329   3.201   4.394
19238SOL     OW59647   6.957   2.410   3.718
19238SOL    HW159648   6.913   2.391   3.806
19238SOL    HW259649   7.056   2.419   3.732
19239SOL     OW59650   6.134   2.134   4.030
19239SOL    HW159651   6.193   2.084   3.966
19239SOL    HW259652   6.089   2.209   3.981
19240SOL     OW59653   6.582   3.163   5.034
19240SOL    HW159654   6.502   3.149   5.093
19240SOL    HW259655   6.664   3.134   5.083
19241SOL     OW59656   7.207   3.472   5.390
19241SOL    HW159657   7.187   3.509   5.299
19241SOL    HW259658   7.291   3.419   5.386
19242SOL     OW59659   6.736   3.116   4.812
19242SOL    HW159660   6.671   3.129   4.887
19242SOL    HW259661   6.690   3.132   4.725
19243SOL     OW59662   7.171   2.961   4.852
19243SOL    HW159663   7.184   3.042   4.909
19243SOL    HW259664   7.073   2.940   4.846
19244SOL     OW59665   6.503   1.955   5.129
19244SOL    HW159666   6.511   1.921   5.035
19244SOL    HW259667   6.592   1.990   5.159
19245SOL     OW59668   6.548   2.975   5.444
19245SOL    HW159669   6.456   2.985   5.480
19245SOL    HW259670   6.550   2.902   5.376
19246SOL     OW59671   6.321   2.897   4.114
19246SOL    HW159672   6.300   2.871   4.209
19246SOL    HW259673   6.407   2.853   4.087
19247SOL     OW59674   6.054   2.640   5.017
19247SOL    HW159675   6.118   2.638   5.094
19247SOL    HW259676   6.007   2.552   5.010
19248SOL     OW59677   6.837   2.227   5.008
19248SOL    HW159678   6.854   2.315   5.052
19248SOL    HW259679   6.746   2.229   4.965
19249SOL     OW59680   5.672   3.390   5.094
19249SOL    HW159681   5.628   3.480   5.101
19249SOL    HW259682   5.770   3.402   5.078
19250SOL     OW59683   5.873   3.056   4.255
19250SOL    HW159684   5.869   3.152   4.227
19250SOL    HW259685   5.886   2.998   4.174
19251SOL     OW59686   6.068   2.463   4.616
19251SOL    HW159687   6.089   2.506   4.528
19251SOL    HW259688   6.153   2.444   4.665
19252SOL     OW59689   6.779   3.272   4.059
19252SOL    HW159690   6.861   3.311   4.102
19252SOL    HW259691   6.700   3.290   4.117
19253SOL     OW59692   6.886   3.343   4.802
19253SOL    HW159693   6.934   3.357   4.888
19253SOL    HW259694   6.831   3.260   4.808
19254SOL     OW59695   7.163   2.502   4.164
19254SOL    HW159696   7.107   2.548   4.233
19254SOL    HW259697   7.230   2.567   4.127
19255SOL     OW59698   5.936   3.399   5.022
19255SOL    HW159699   5.929   3.337   4.944
19255SOL    HW259700   6.031   3.427   5.034
19256SOL     OW59701   6.033   2.652   5.406
19256SOL    HW159702   6.108   2.642   5.340
19256SOL    HW259703   5.965   2.580   5.390
19257SOL     OW59704   7.238   2.681   5.402
19257SOL    HW159705   7.145   2.717   5.388
19257SOL    HW259706   7.298   2.714   5.329
19258SOL     OW59707   6.641   1.973   5.505
19258SOL    HW159708   6.661   2.068   5.482
19258SOL    HW259709   6.719   1.916   5.482
19259SOL     OW59710   6.118   1.873   5.530
19259SOL    HW159711   6.078   1.827   5.451
19259SOL    HW259712   6.058   1.947   5.560
19260SOL     OW59713   6.263   2.710   4.845
19260SOL    HW159714   6.261   2.807   4.822
19260SOL    HW259715   6.180   2.686   4.896
19261SOL     OW59716   6.869   2.700   4.708
19261SOL    HW159717   6.782   2.665   4.673
19261SOL    HW259718   6.944   2.642   4.674
19262SOL     OW59719   6.792   2.381   3.945
19262SOL    HW159720   6.824   2.308   4.005
19262SOL    HW259721   6.742   2.449   3.999
19263SOL     OW59722   5.889   2.013   4.938
19263SOL    HW159723   5.863   2.051   5.027
19263SOL    HW259724   5.859   1.917   4.934
19264SOL     OW59725   5.660   3.133   5.005
19264SOL    HW159726   5.693   3.082   5.084
19264SOL    HW259727   5.655   3.230   5.027
19265SOL     OW59728   6.307   2.438   4.745
19265SOL    HW159729   6.389   2.416   4.691
19265SOL    HW259730   6.311   2.535   4.771
19266SOL     OW59731   7.343   2.839   5.608
19266SOL    HW159732   7.302   2.773   5.544
19266SOL    HW259733   7.274   2.866   5.675
19267SOL     OW59734   5.987   1.870   4.377
19267SOL    HW159735   5.956   1.964   4.396
19267SOL    HW259736   5.989   1.818   4.462
19268SOL     OW59737   7.194   2.261   4.040
19268SOL    HW159738   7.150   2.187   4.092
19268SOL    HW259739   7.173   2.349   4.082
19269SOL     OW59740   6.618   2.589   4.619
19269SOL    HW159741   6.592   2.616   4.712
19269SOL    HW259742   6.590   2.495   4.603
19270SOL     OW59743   6.597   3.455   5.471
19270SOL    HW159744   6.578   3.499   5.383
19270SOL    HW259745   6.618   3.358   5.456
19271SOL     OW59746   7.447   3.331   5.313
19271SOL    HW159747   7.462   3.395   5.237
19271SOL    HW259748   7.529   3.330   5.371
19272SOL     OW59749   5.958   2.811   5.609
19272SOL    HW159750   6.040   2.835   5.660
19272SOL    HW259751   5.983   2.752   5.532
19273SOL     OW59752   7.104   2.090   3.823
19273SOL    HW159753   7.067   2.009   3.869
19273SOL    HW259754   7.144   2.152   3.890
19274SOL     OW59755   6.863   2.673   3.720
19274SOL    HW159756   6.891   2.577   3.718
19274SOL    HW259757   6.894   2.719   3.637
19275SOL     OW59758   6.632   3.192   4.572
19275SOL    HW159759   6.621   3.136   4.491
19275SOL    HW259760   6.685   3.274   4.549
19276SOL     OW59761   5.900   2.660   4.714
19276SOL    HW159762   5.972   2.601   4.677
19276SOL    HW259763   5.831   2.604   4.761
19277SOL     OW59764   5.854   2.356   4.744
19277SOL    HW159765   5.830   2.263   4.717
19277SOL    HW259766   5.931   2.388   4.688
19278SOL     OW59767   6.710   2.227   5.412
19278SOL    HW159768   6.667   2.280   5.486
19278SOL    HW259769   6.799   2.266   5.391
19279SOL     OW59770   6.744   2.057   5.203
19279SOL    HW159771   6.722   2.120   5.278
19279SOL    HW259772   6.786   2.108   5.128
19280SOL     OW59773   5.537   3.210   3.891
19280SOL    HW159774   5.443   3.240   3.876
19280SOL    HW259775   5.539   3.110   3.901
19281SOL     OW59776   5.684   3.593   4.679
19281SOL    HW159777   5.651   3.507   4.641
19281SOL    HW259778   5.774   3.614   4.639
19282SOL     OW59779   6.076   3.401   4.627
19282SOL    HW159780   6.153   3.454   4.662
19282SOL    HW259781   6.107   3.345   4.550
19283SOL     OW59782   6.530   2.656   4.860
19283SOL    HW159783   6.569   2.629   4.948
19283SOL    HW259784   6.434   2.679   4.871
19284SOL     OW59785   5.602   2.419   4.843
19284SOL    HW159786   5.685   2.398   4.791
19284SOL    HW259787   5.621   2.413   4.940
19285SOL     OW59788   5.809   2.486   5.378
19285SOL    HW159789   5.809   2.403   5.322
19285SOL    HW259790   5.759   2.558   5.331
19286SOL     OW59791   7.000   2.801   5.339
19286SOL    HW159792   6.999   2.901   5.337
19286SOL    HW259793   6.980   2.767   5.247
19287SOL     OW59794   6.379   2.430   4.092
19287SOL    HW159795   6.392   2.350   4.033
19287SOL    HW259796   6.301   2.483   4.061
19288SOL     OW59797   7.258   2.501   4.829
19288SOL    HW159798   7.247   2.413   4.874
19288SOL    HW259799   7.355   2.522   4.820
19289SOL     OW59800   5.832   3.399   5.459
19289SOL    HW159801   5.802   3.480   5.509
19289SOL    HW259802   5.844   3.323   5.523
19290SOL     OW59803   6.330   2.261   4.953
19290SOL    HW159804   6.268   2.183   4.948
19290SOL    HW259805   6.310   2.325   4.878
19291SOL     OW59806   6.539   3.538   5.215
19291SOL    HW159807   6.466   3.482   5.176
19291SOL    HW259808   6.535   3.630   5.174
19292SOL     OW59809   6.012   2.338   3.901
19292SOL    HW159810   6.075   2.414   3.916
19292SOL    HW259811   5.918   2.372   3.900
19293SOL     OW59812   5.750   2.996   5.229
19293SOL    HW159813   5.754   2.975   5.327
19293SOL    HW259814   5.794   2.923   5.178
19294SOL     OW59815   6.897   2.904   4.882
19294SOL    HW159816   6.883   2.829   4.818
19294SOL    HW259817   6.839   2.982   4.856
19295SOL     OW59818   6.944   2.782   3.961
19295SOL    HW159819   6.877   2.761   4.033
19295SOL    HW259820   6.914   2.740   3.875
19296SOL     OW59821   7.332   3.552   4.893
19296SOL    HW159822   7.399   3.593   4.830
19296SOL    HW259823   7.300   3.465   4.855
19297SOL     OW59824   6.837   3.626   4.846
19297SOL    HW159825   6.928   3.668   4.839
19297SOL    HW259826   6.847   3.527   4.848
19298SOL     OW59827   5.734   3.063   4.751
19298SOL    HW159828   5.696   3.087   4.840
19298SOL    HW259829   5.660   3.043   4.687
19299SOL     OW59830   6.314   3.556   5.532
19299SOL    HW159831   6.258   3.633   5.502
19299SOL    HW259832   6.410   3.573   5.510
19300SOL     OW59833   7.015   3.379   4.189
19300SOL    HW159834   7.076   3.382   4.110
19300SOL    HW259835   6.983   3.472   4.210
19301SOL     OW59836   5.736   3.619   5.584
19301SOL    HW159837   5.678   3.564   5.645
19301SOL    HW259838   5.795   3.678   5.639
19302SOL     OW59839   6.342   3.142   5.175
19302SOL    HW159840   6.331   3.204   5.253
19302SOL    HW259841   6.267   3.155   5.111
19303SOL     OW59842   6.234   3.483   3.870
19303SOL    HW159843   6.247   3.505   3.773
19303SOL    HW259844   6.174   3.404   3.878
19304SOL     OW59845   7.174   3.570   5.125
19304SOL    HW159846   7.235   3.557   5.047
19304SOL    HW259847   7.170   3.667   5.148
19305SOL     OW59848   7.391   2.072   4.722
19305SOL    HW159849   7.432   1.983   4.702
19305SOL    HW259850   7.308   2.084   4.667
19306SOL     OW59851   5.908   2.117   4.456
19306SOL    HW159852   5.835   2.113   4.388
19306SOL    HW259853   5.869   2.111   4.548
19307SOL     OW59854   6.781   3.472   3.738
19307SOL    HW159855   6.755   3.376   3.749
19307SOL    HW259856   6.733   3.510   3.659
19308SOL     OW59857   6.353   2.877   5.111
19308SOL    HW159858   6.352   2.882   5.011
19308SOL    HW259859   6.345   2.969   5.149
19309SOL     OW59860   6.551   2.783   4.034
19309SOL    HW159861   6.572   2.795   3.937
19309SOL    HW259862   6.584   2.694   4.065
19310SOL     OW59863   7.046   3.537   3.767
19310SOL    HW159864   6.952   3.508   3.750
19310SOL    HW259865   7.105   3.506   3.692
19311SOL     OW59866   5.961   3.188   5.238
19311SOL    HW159867   5.955   3.260   5.168
19311SOL    HW259868   5.882   3.127   5.229
19312SOL     OW59869   7.179   3.183   5.014
19312SOL    HW159870   7.225   3.165   5.101
19312SOL    HW259871   7.104   3.247   5.028
19313SOL     OW59872   6.569   3.008   4.382
19313SOL    HW159873   6.529   2.942   4.445
19313SOL    HW259874   6.603   2.960   4.301
19314SOL     OW59875   6.572   2.048   4.681
19314SOL    HW159876   6.595   2.013   4.590
19314SOL    HW259877   6.565   1.972   4.745
19315SOL     OW59878   6.181   3.317   4.167
19315SOL    HW159879   6.256   3.264   4.129
19315SOL    HW259880   6.113   3.334   4.096
19316SOL     OW59881   7.434   2.191   5.170
19316SOL    HW159882   7.470   2.277   5.135
19316SOL    HW259883   7.400   2.136   5.094
19317SOL     OW59884   5.796   3.245   3.953
19317SOL    HW159885   5.699   3.235   3.929
19317SOL    HW259886   5.804   3.276   4.047
19318SOL     OW59887   5.742   2.943   5.499
19318SOL    HW159888   5.653   2.912   5.533
19318SOL    HW259889   5.814   2.886   5.538
19319SOL     OW59890   5.737   2.241   3.588
19319SOL    HW159891   5.637   2.236   3.593
19319SOL    HW259892   5.765   2.337   3.594
19320SOL     OW59893   6.981   2.713   5.081
19320SOL    HW159894   6.929   2.769   5.017
19320SOL    HW259895   7.077   2.712   5.054
19321SOL     OW59896   6.720   3.205   3.804
19321SOL    HW159897   6.624   3.179   3.804
19321SOL    HW259898   6.750   3.224   3.898
19322SOL     OW59899   6.237   2.634   5.213
19322SOL    HW159900   6.282   2.721   5.190
19322SOL    HW259901   6.303   2.560   5.205
19323SOL     OW59902   7.095   3.723   4.816
19323SOL    HW159903   7.125   3.778   4.737
19323SOL    HW259904   7.173   3.672   4.852
19324SOL     OW59905   7.014   3.077   5.339
19324SOL    HW159906   7.010   3.081   5.438
19324SOL    HW259907   7.101   3.115   5.307
19325SOL     OW59908   5.978   3.597   5.306
19325SOL    HW159909   5.892   3.646   5.293
19325SOL    HW259910   5.960   3.506   5.343
19326SOL     OW59911   7.240   2.730   4.986
19326SOL    HW159912   7.247   2.650   4.926
19326SOL    HW259913   7.227   2.812   4.930
19327SOL     OW59914   6.855   2.199   4.148
19327SOL    HW159915   6.930   2.133   4.146
19327SOL    HW259916   6.864   2.258   4.228
19328SOL     OW59917   6.126   2.594   4.390
19328SOL    HW159918   6.179   2.678   4.380
19328SOL    HW259919   6.072   2.578   4.307
19329SOL     OW59920   7.306   2.215   5.410
19329SOL    HW159921   7.352   2.207   5.322
19329SOL    HW259922   7.225   2.157   5.411
19330SOL     OW59923   6.442   3.181   3.804
19330SOL    HW159924   6.416   3.181   3.901
19330SOL    HW259925   6.413   3.266   3.761
19331SOL     OW59926   6.292   3.569   4.656
19331SOL    HW159927   6.256   3.661   4.642
19331SOL    HW259928   6.346   3.542   4.577
19332SOL     OW59929   6.463   2.826   4.564
19332SOL    HW159930   6.518   2.743   4.574
19332SOL    HW259931   6.436   2.859   4.654
19333SOL     OW59932   6.619   2.780   3.770
19333SOL    HW159933   6.596   2.847   3.699
19333SOL    HW259934   6.711   2.745   3.754
19334SOL     OW59935   7.389   3.443   4.585
19334SOL    HW159936   7.343   3.419   4.500
19334SOL    HW259937   7.354   3.386   4.659
19335SOL     OW59938   5.836   3.171   5.621
19335SOL    HW159939   5.802   3.094   5.568
19335SOL    HW259940   5.780   3.183   5.703
19336SOL     OW59941   5.620   3.148   4.350
19336SOL    HW159942   5.591   3.126   4.443
19336SOL    HW259943   5.702   3.095   4.328
19337SOL     OW59944   6.290   3.315   5.384
19337SOL    HW159945   6.210   3.267   5.421
19337SOL    HW259946   6.302   3.402   5.433
19338SOL     OW59947   7.332   2.009   4.982
19338SOL    HW159948   7.320   1.911   4.969
19338SOL    HW259949   7.351   2.053   4.894
19339SOL     OW59950   5.972   2.263   4.221
19339SOL    HW159951   6.037   2.216   4.161
19339SOL    HW259952   5.979   2.226   4.313
19340SOL     OW59953   7.252   3.314   4.784
19340SOL    HW159954   7.185   3.287   4.715
19340SOL    HW259955   7.238   3.260   4.867
19341SOL     OW59956   5.930   2.398   5.006
19341SOL    HW159957   5.987   2.330   5.052
19341SOL    HW259958   5.916   2.371   4.911
19342SOL     OW59959   6.394   3.458   4.416
19342SOL    HW159960   6.372   3.531   4.352
19342SOL    HW259961   6.321   3.389   4.413
19343SOL     OW59962   6.978   2.129   4.796
19343SOL    HW159963   7.000   2.032   4.802
19343SOL    HW259964   6.935   2.159   4.881
19344SOL     OW59965   6.573   1.832   4.872
19344SOL    HW159966   6.524   1.745   4.870
19344SOL    HW259967   6.671   1.815   4.859
19345SOL     OW59968   6.381   3.162   4.068
19345SOL    HW159969   6.363   3.067   4.090
19345SOL    HW259970   6.454   3.197   4.126
19346SOL     OW59971   6.208   3.446   5.008
19346SOL    HW159972   6.206   3.539   5.045
19346SOL    HW259973   6.294   3.431   4.959
19347SOL     OW59974   6.998   1.852   3.946
19347SOL    HW159975   7.046   1.790   3.883
19347SOL    HW259976   6.903   1.822   3.955
19348SOL     OW59977   6.884   2.359   4.368
19348SOL    HW159978   6.837   2.445   4.352
19348SOL    HW259979   6.877   2.334   4.464
19349SOL     OW59980   7.158   2.101   4.586
19349SOL    HW159981   7.089   2.122   4.655
19349SOL    HW259982   7.165   2.177   4.521
19350SOL     OW59983   5.615   2.946   4.025
19350SOL    HW159984   5.713   2.961   4.015
19350SOL    HW259985   5.597   2.848   4.031
19351SOL     OW59986   6.449   3.533   4.039
19351SOL    HW159987   6.377   3.513   3.973
19351SOL    HW259988   6.412   3.587   4.114
19352SOL     OW59989   5.787   2.389   5.639
19352SOL    HW159990   5.709   2.423   5.691
19352SOL    HW259991   5.792   2.438   5.552
19353SOL     OW59992   5.783   2.145   6.595
19353SOL    HW159993   5.828   2.108   6.676
19353SOL    HW259994   5.691   2.105   6.587
19354SOL     OW59995   5.561   2.289   6.220
19354SOL    HW159996   5.471   2.306   6.260
19354SOL    HW259997   5.553   2.221   6.147
19355SOL     OW59998   6.146   3.149   6.894
19355SOL    HW159999   6.070   3.126   6.956
19355SOL    HW260000   6.153   3.248   6.885
19356SOL     OW60001   7.165   3.413   6.257
19356SOL    HW160002   7.117   3.374   6.335
19356SOL    HW260003   7.105   3.415   6.177
19357SOL     OW60004   6.695   2.591   6.251
19357SOL    HW160005   6.755   2.670   6.240
19357SOL    HW260006   6.635   2.606   6.329
19358SOL     OW60007   7.408   2.437   5.779
19358SOL    HW160008   7.365   2.458   5.691
19358SOL    HW260009   7.355   2.367   5.826
19359SOL     OW60010   6.280   2.993   6.674
19359SOL    HW160011   6.221   3.024   6.750
19359SOL    HW260012   6.312   3.073   6.623
19360SOL     OW60013   6.490   2.574   7.423
19360SOL    HW160014   6.491   2.625   7.509
19360SOL    HW260015   6.500   2.637   7.346
19361SOL     OW60016   6.287   2.822   6.255
19361SOL    HW160017   6.354   2.838   6.327
19361SOL    HW260018   6.208   2.881   6.270
19362SOL     OW60019   7.027   3.394   6.950
19362SOL    HW160020   7.105   3.455   6.968
19362SOL    HW260021   6.947   3.426   7.000
19363SOL     OW60022   6.056   2.203   7.039
19363SOL    HW160023   6.137   2.153   7.070
19363SOL    HW260024   5.974   2.161   7.077
19364SOL     OW60025   7.203   2.323   6.343
19364SOL    HW160026   7.182   2.360   6.252
19364SOL    HW260027   7.165   2.384   6.413
19365SOL     OW60028   6.741   3.276   7.235
19365SOL    HW160029   6.713   3.237   7.323
19365SOL    HW260030   6.776   3.204   7.175
19366SOL     OW60031   5.852   3.388   6.211
19366SOL    HW160032   5.810   3.478   6.223
19366SOL    HW260033   5.795   3.319   6.255
19367SOL     OW60034   5.929   2.937   6.516
19367SOL    HW160035   5.914   2.843   6.544
19367SOL    HW260036   5.847   2.991   6.536
19368SOL     OW60037   6.159   3.594   7.129
19368SOL    HW160038   6.065   3.604   7.161
19368SOL    HW260039   6.201   3.685   7.122
19369SOL     OW60040   6.178   2.873   5.773
19369SOL    HW160041   6.226   2.918   5.698
19369SOL    HW260042   6.232   2.880   5.857
19370SOL     OW60043   7.191   1.983   6.999
19370SOL    HW160044   7.273   2.010   6.950
19370SOL    HW260045   7.172   2.050   7.071
19371SOL     OW60046   5.671   2.548   6.171
19371SOL    HW160047   5.641   2.454   6.187
19371SOL    HW260048   5.685   2.595   6.259
19372SOL     OW60049   7.469   3.585   5.903
19372SOL    HW160050   7.545   3.584   5.969
19372SOL    HW260051   7.458   3.677   5.867
19373SOL     OW60052   5.607   3.459   5.759
19373SOL    HW160053   5.621   3.363   5.784
19373SOL    HW260054   5.523   3.492   5.801
19374SOL     OW60055   7.282   2.807   6.262
19374SOL    HW160056   7.365   2.754   6.243
19374SOL    HW260057   7.263   2.869   6.186
19375SOL     OW60058   7.259   2.981   6.042
19375SOL    HW160059   7.340   2.943   5.996
19375SOL    HW260060   7.285   3.062   6.094
19376SOL     OW60061   5.662   2.649   7.157
19376SOL    HW160062   5.708   2.719   7.212
19376SOL    HW260063   5.581   2.688   7.115
19377SOL     OW60064   6.249   3.189   6.312
19377SOL    HW160065   6.186   3.111   6.313
19377SOL    HW260066   6.241   3.236   6.224
19378SOL     OW60067   6.832   3.086   7.056
19378SOL    HW160068   6.835   3.020   6.982
19378SOL    HW260069   6.912   3.075   7.115
19379SOL     OW60070   5.807   2.807   6.867
19379SOL    HW160071   5.894   2.758   6.881
19379SOL    HW260072   5.773   2.788   6.775
19380SOL     OW60073   7.145   2.919   5.790
19380SOL    HW160074   7.072   2.853   5.810
19380SOL    HW260075   7.184   2.953   5.875
19381SOL     OW60076   6.870   3.762   7.178
19381SOL    HW160077   6.820   3.823   7.116
19381SOL    HW260078   6.861   3.668   7.145
19382SOL     OW60079   5.948   2.130   7.458
19382SOL    HW160080   5.990   2.208   7.504
19382SOL    HW260081   5.855   2.154   7.430
19383SOL     OW60082   7.035   3.301   6.471
19383SOL    HW160083   6.988   3.330   6.554
19383SOL    HW260084   7.016   3.204   6.454
19384SOL     OW60085   7.202   3.691   6.113
19384SOL    HW160086   7.202   3.634   6.031
19384SOL    HW260087   7.199   3.633   6.195
19385SOL     OW60088   6.128   2.558   5.869
19385SOL    HW160089   6.139   2.650   5.832
19385SOL    HW260090   6.063   2.561   5.945
19386SOL     OW60091   6.861   2.287   6.527
19386SOL    HW160092   6.765   2.259   6.530
19386SOL    HW260093   6.916   2.224   6.582
19387SOL     OW60094   7.205   3.525   5.891
19387SOL    HW160095   7.305   3.533   5.893
19387SOL    HW260096   7.174   3.516   5.796
19388SOL     OW60097   6.373   2.414   7.065
19388SOL    HW160098   6.343   2.382   7.155
19388SOL    HW260099   6.344   2.348   6.995
19389SOL     OW60100   7.034   2.315   7.202
19389SOL    HW160101   7.101   2.382   7.235
19389SOL    HW260102   7.064   2.223   7.227
19390SOL     OW60103   6.532   2.750   7.206
19390SOL    HW160104   6.594   2.682   7.167
19390SOL    HW260105   6.472   2.785   7.133
19391SOL     OW60106   6.588   2.263   6.795
19391SOL    HW160107   6.494   2.262   6.828
19391SOL    HW260108   6.592   2.219   6.705
19392SOL     OW60109   6.629   2.558   5.985
19392SOL    HW160110   6.651   2.562   6.082
19392SOL    HW260111   6.536   2.521   5.974
19393SOL     OW60112   5.692   2.687   6.403
19393SOL    HW160113   5.776   2.681   6.457
19393SOL    HW260114   5.630   2.753   6.445
19394SOL     OW60115   5.699   3.786   7.259
19394SOL    HW160116   5.685   3.799   7.357
19394SOL    HW260117   5.611   3.773   7.214
19395SOL     OW60118   6.445   2.265   5.767
19395SOL    HW160119   6.517   2.306   5.710
19395SOL    HW260120   6.370   2.234   5.709
19396SOL     OW60121   6.998   3.019   6.144
19396SOL    HW160122   7.087   3.007   6.101
19396SOL    HW260123   6.941   3.079   6.088
19397SOL     OW60124   6.089   1.982   6.532
19397SOL    HW160125   6.116   2.003   6.626
19397SOL    HW260126   6.074   2.067   6.482
19398SOL     OW60127   6.610   3.308   6.099
19398SOL    HW160128   6.576   3.388   6.049
19398SOL    HW260129   6.610   3.328   6.197
19399SOL     OW60130   5.890   3.726   6.457
19399SOL    HW160131   5.947   3.644   6.448
19399SOL    HW260132   5.949   3.807   6.461
19400SOL     OW60133   7.362   2.909   6.510
19400SOL    HW160134   7.320   2.892   6.421
19400SOL    HW260135   7.290   2.921   6.579
19401SOL     OW60136   6.807   3.497   7.082
19401SOL    HW160137   6.790   3.419   7.142
19401SOL    HW260138   6.723   3.519   7.032
19402SOL     OW60139   5.897   2.886   5.869
19402SOL    HW160140   5.995   2.905   5.882
19402SOL    HW260141   5.883   2.847   5.778
19403SOL     OW60142   7.072   2.636   6.311
19403SOL    HW160143   7.066   2.595   6.402
19403SOL    HW260144   7.150   2.699   6.306
19404SOL     OW60145   6.058   3.077   7.341
19404SOL    HW160146   6.039   3.081   7.243
19404SOL    HW260147   5.975   3.100   7.392
19405SOL     OW60148   6.788   3.550   5.883
19405SOL    HW160149   6.692   3.550   5.913
19405SOL    HW260150   6.795   3.506   5.794
19406SOL     OW60151   5.807   2.091   7.090
19406SOL    HW160152   5.732   2.158   7.088
19406SOL    HW260153   5.776   2.008   7.136
19407SOL     OW60154   7.218   3.239   5.674
19407SOL    HW160155   7.191   3.334   5.662
19407SOL    HW260156   7.143   3.179   5.646
19408SOL     OW60157   6.145   3.703   5.868
19408SOL    HW160158   6.156   3.738   5.961
19408SOL    HW260159   6.195   3.617   5.858
19409SOL     OW60160   7.023   2.030   6.030
19409SOL    HW160161   7.002   1.987   5.942
19409SOL    HW260162   7.112   1.996   6.063
19410SOL     OW60163   5.757   3.671   6.809
19410SOL    HW160164   5.819   3.595   6.827
19410SOL    HW260165   5.721   3.664   6.716
19411SOL     OW60166   6.460   3.597   6.524
19411SOL    HW160167   6.472   3.507   6.566
19411SOL    HW260168   6.421   3.586   6.433
19412SOL     OW60169   5.951   2.544   6.082
19412SOL    HW160170   5.958   2.446   6.098
19412SOL    HW260171   5.858   2.575   6.101
19413SOL     OW60172   7.121   2.070   7.291
19413SOL    HW160173   7.113   2.092   7.388
19413SOL    HW260174   7.082   1.979   7.274
19414SOL     OW60175   6.215   1.954   5.804
19414SOL    HW160176   6.299   1.946   5.857
19414SOL    HW260177   6.233   1.931   5.709
19415SOL     OW60178   6.365   2.120   7.411
19415SOL    HW160179   6.453   2.078   7.389
19415SOL    HW260180   6.311   2.057   7.467
19416SOL     OW60181   6.427   3.366   6.787
19416SOL    HW160182   6.396   3.318   6.706
19416SOL    HW260183   6.489   3.308   6.840
19417SOL     OW60184   6.948   2.458   6.986
19417SOL    HW160185   6.976   2.413   7.070
19417SOL    HW260186   6.929   2.555   7.005
19418SOL     OW60187   6.375   3.225   6.550
19418SOL    HW160188   6.472   3.218   6.524
19418SOL    HW260189   6.319   3.219   6.468
19419SOL     OW60190   6.506   2.403   6.453
19419SOL    HW160191   6.485   2.388   6.357
19419SOL    HW260192   6.546   2.320   6.492
19420SOL     OW60193   6.043   1.919   6.079
19420SOL    HW160194   5.965   1.919   6.140
19420SOL    HW260195   6.046   2.005   6.028
19421SOL     OW60196   7.002   3.076   5.612
19421SOL    HW160197   7.050   3.011   5.670
19421SOL    HW260198   6.917   3.105   5.656
19422SOL     OW60199   5.901   1.851   5.791
19422SOL    HW160200   5.948   1.927   5.746
19422SOL    HW260201   5.966   1.801   5.848
19423SOL     OW60202   6.564   2.152   5.986
19423SOL    HW160203   6.525   2.195   5.904
19423SOL    HW260204   6.661   2.174   5.992
19424SOL     OW60205   6.614   2.536   7.039
19424SOL    HW160206   6.529   2.486   7.054
19424SOL    HW260207   6.690   2.472   7.035
19425SOL     OW60208   6.775   3.428   6.403
19425SOL    HW160209   6.774   3.501   6.471
19425SOL    HW260210   6.870   3.404   6.381
19426SOL     OW60211   6.073   2.983   6.296
19426SOL    HW160212   6.026   2.966   6.383
19426SOL    HW260213   6.005   3.001   6.225
19427SOL     OW60214   6.632   2.387   5.615
19427SOL    HW160215   6.601   2.473   5.575
19427SOL    HW260216   6.703   2.405   5.683
19428SOL     OW60217   5.690   2.449   6.975
19428SOL    HW160218   5.787   2.436   6.951
19428SOL    HW260219   5.682   2.524   7.040
19429SOL     OW60220   6.150   2.041   6.792
19429SOL    HW160221   6.185   1.967   6.850
19429SOL    HW260222   6.054   2.057   6.812
19430SOL     OW60223   6.465   2.332   6.191
19430SOL    HW160224   6.412   2.390   6.129
19430SOL    HW260225   6.508   2.258   6.140
19431SOL     OW60226   6.976   3.041   6.428
19431SOL    HW160227   6.882   3.009   6.440
19431SOL    HW260228   7.002   3.030   6.332
19432SOL     OW60229   7.042   2.496   6.550
19432SOL    HW160230   6.971   2.427   6.542
19432SOL    HW260231   7.085   2.490   6.641
19433SOL     OW60232   7.386   2.606   5.993
19433SOL    HW160233   7.452   2.582   6.064
19433SOL    HW260234   7.401   2.551   5.912
19434SOL     OW60235   6.077   3.312   5.816
19434SOL    HW160236   5.991   3.301   5.867
19434SOL    HW260237   6.069   3.265   5.728
19435SOL     OW60238   7.336   3.183   6.195
19435SOL    HW160239   7.431   3.179   6.226
19435SOL    HW260240   7.297   3.273   6.218
19436SOL     OW60241   6.984   2.454   5.609
19436SOL    HW160242   6.938   2.435   5.695
19436SOL    HW260243   7.083   2.448   5.622
19437SOL     OW60244   6.061   2.141   5.917
19437SOL    HW160245   6.121   2.073   5.875
19437SOL    HW260246   6.054   2.221   5.858
19438SOL     OW60247   7.319   3.097   7.111
19438SOL    HW160248   7.401   3.047   7.083
19438SOL    HW260249   7.345   3.183   7.154
19439SOL     OW60250   6.597   3.195   6.933
19439SOL    HW160251   6.515   3.159   6.977
19439SOL    HW260252   6.678   3.169   6.987
19440SOL     OW60253   7.207   3.446   7.260
19440SOL    HW160254   7.193   3.495   7.173
19440SOL    HW260255   7.295   3.399   7.258
19441SOL     OW60256   6.745   3.148   6.714
19441SOL    HW160257   6.683   3.167   6.790
19441SOL    HW260258   6.698   3.165   6.628
19442SOL     OW60259   7.152   2.954   6.685
19442SOL    HW160260   7.155   3.029   6.752
19442SOL    HW260261   7.078   2.970   6.620
19443SOL     OW60262   6.507   1.960   7.005
19443SOL    HW160263   6.528   1.881   6.947
19443SOL    HW260264   6.592   2.004   7.035
19444SOL     OW60265   6.539   2.999   7.333
19444SOL    HW160266   6.454   3.048   7.315
19444SOL    HW260267   6.538   2.913   7.282
19445SOL     OW60268   6.338   2.897   5.994
19445SOL    HW160269   6.320   2.865   6.087
19445SOL    HW260270   6.425   2.860   5.963
19446SOL     OW60271   6.035   2.659   6.888
19446SOL    HW160272   6.102   2.664   6.963
19446SOL    HW260273   5.996   2.567   6.886
19447SOL     OW60274   6.840   2.230   6.880
19447SOL    HW160275   6.878   2.316   6.915
19447SOL    HW260276   6.746   2.245   6.850
19448SOL     OW60277   5.638   3.396   6.920
19448SOL    HW160278   5.580   3.471   6.887
19448SOL    HW260279   5.734   3.419   6.902
19449SOL     OW60280   5.879   3.035   6.110
19449SOL    HW160281   5.884   3.121   6.060
19449SOL    HW260282   5.872   2.959   6.045
19450SOL     OW60283   6.097   2.406   6.483
19450SOL    HW160284   6.110   2.462   6.401
19450SOL    HW260285   6.176   2.417   6.543
19451SOL     OW60286   6.844   3.203   6.001
19451SOL    HW160287   6.909   3.279   6.010
19451SOL    HW260288   6.756   3.230   6.040
19452SOL     OW60289   6.917   3.358   6.707
19452SOL    HW160290   6.962   3.374   6.794
19452SOL    HW260291   6.856   3.279   6.715
19453SOL     OW60292   7.171   2.466   6.105
19453SOL    HW160293   7.108   2.524   6.158
19453SOL    HW260294   7.239   2.524   6.060
19454SOL     OW60295   5.901   3.436   6.833
19454SOL    HW160296   5.897   3.371   6.757
19454SOL    HW260297   5.995   3.442   6.866
19455SOL     OW60298   6.072   2.526   7.271
19455SOL    HW160299   6.114   2.576   7.196
19455SOL    HW260300   6.137   2.461   7.309
19456SOL     OW60301   6.604   2.016   7.351
19456SOL    HW160302   6.673   2.088   7.341
19456SOL    HW260303   6.640   1.930   7.315
19457SOL     OW60304   6.064   1.902   7.342
19457SOL    HW160305   6.011   1.852   7.274
19457SOL    HW260306   6.020   1.988   7.363
19458SOL     OW60307   6.178   2.720   6.662
19458SOL    HW160308   6.207   2.816   6.656
19458SOL    HW260309   6.128   2.706   6.748
19459SOL     OW60310   6.858   2.717   6.633
19459SOL    HW160311   6.769   2.693   6.595
19459SOL    HW260312   6.927   2.652   6.602
19460SOL     OW60313   6.807   2.421   5.826
19460SOL    HW160314   6.828   2.342   5.883
19460SOL    HW260315   6.747   2.484   5.877
19461SOL     OW60316   5.878   2.038   6.829
19461SOL    HW160317   5.857   2.067   6.922
19461SOL    HW260318   5.846   1.944   6.815
19462SOL     OW60319   5.670   3.143   6.816
19462SOL    HW160320   5.694   3.082   6.892
19462SOL    HW260321   5.648   3.234   6.852
19463SOL     OW60322   6.310   2.477   6.645
19463SOL    HW160323   6.375   2.465   6.570
19463SOL    HW260324   6.269   2.568   6.639
19464SOL     OW60325   7.328   2.859   7.413
19464SOL    HW160326   7.276   2.842   7.329
19464SOL    HW260327   7.269   2.844   7.492
19465SOL     OW60328   5.827   1.896   6.241
19465SOL    HW160329   5.801   1.990   6.262
19465SOL    HW260330   5.855   1.850   6.325
19466SOL     OW60331   7.220   2.272   5.901
19466SOL    HW160332   7.277   2.205   5.949
19466SOL    HW260333   7.179   2.334   5.967
19467SOL     OW60334   6.600   2.637   6.553
19467SOL    HW160335   6.574   2.644   6.650
19467SOL    HW260336   6.572   2.548   6.517
19468SOL     OW60337   6.515   3.426   7.211
19468SOL    HW160338   6.522   3.475   7.124
19468SOL    HW260339   6.594   3.366   7.222
19469SOL     OW60340   7.448   3.327   7.194
19469SOL    HW160341   7.472   3.361   7.103
19469SOL    HW260342   7.526   3.339   7.255
19470SOL     OW60343   5.937   2.745   7.367
19470SOL    HW160344   5.997   2.793   7.431
19470SOL    HW260345   5.983   2.663   7.333
19471SOL     OW60346   7.096   2.118   5.685
19471SOL    HW160347   7.042   2.049   5.732
19471SOL    HW260348   7.138   2.179   5.752
19472SOL     OW60349   6.893   2.708   5.571
19472SOL    HW160350   6.920   2.612   5.578
19472SOL    HW260351   6.929   2.747   5.486
19473SOL     OW60352   6.633   3.212   6.476
19473SOL    HW160353   6.662   3.129   6.427
19473SOL    HW260354   6.685   3.290   6.442
19474SOL     OW60355   5.906   2.669   6.580
19474SOL    HW160356   6.006   2.680   6.584
19474SOL    HW260357   5.882   2.575   6.601
19475SOL     OW60358   5.870   2.396   6.620
19475SOL    HW160359   5.826   2.307   6.610
19475SOL    HW260360   5.953   2.400   6.564
19476SOL     OW60361   6.782   2.227   7.290
19476SOL    HW160362   6.743   2.281   7.365
19476SOL    HW260363   6.871   2.264   7.264
19477SOL     OW60364   6.762   2.052   7.077
19477SOL    HW160365   6.764   2.112   7.157
19477SOL    HW260366   6.799   2.100   6.998
19478SOL     OW60367   5.621   3.177   5.819
19478SOL    HW160368   5.531   3.196   5.781
19478SOL    HW260369   5.625   3.082   5.851
19479SOL     OW60370   5.648   3.651   6.557
19479SOL    HW160371   5.606   3.582   6.498
19479SOL    HW260372   5.735   3.680   6.517
19480SOL     OW60373   6.502   2.636   6.806
19480SOL    HW160374   6.553   2.608   6.888
19480SOL    HW260375   6.430   2.569   6.788
19481SOL     OW60376   5.561   2.449   6.736
19481SOL    HW160377   5.630   2.445   6.664
19481SOL    HW260378   5.605   2.452   6.825
19482SOL     OW60379   5.805   2.466   7.322
19482SOL    HW160380   5.902   2.475   7.297
19482SOL    HW260381   5.749   2.522   7.261
19483SOL     OW60382   6.905   2.816   7.272
19483SOL    HW160383   6.959   2.900   7.266
19483SOL    HW260384   6.907   2.769   7.184
19484SOL     OW60385   6.376   2.455   5.952
19484SOL    HW160386   6.396   2.383   5.884
19484SOL    HW260387   6.288   2.497   5.930
19485SOL     OW60388   5.785   3.369   7.314
19485SOL    HW160389   5.726   3.413   7.381
19485SOL    HW260390   5.811   3.278   7.346
19486SOL     OW60391   6.315   2.270   6.836
19486SOL    HW160392   6.254   2.192   6.824
19486SOL    HW260393   6.296   2.339   6.765
19487SOL     OW60394   6.557   3.545   6.970
19487SOL    HW160395   6.511   3.497   6.895
19487SOL    HW260396   6.535   3.642   6.966
19488SOL     OW60397   6.045   2.339   5.718
19488SOL    HW160398   6.084   2.417   5.767
19488SOL    HW260399   5.951   2.361   5.690
19489SOL     OW60400   5.723   2.982   7.050
19489SOL    HW160401   5.722   2.945   7.143
19489SOL    HW260402   5.752   2.912   6.986
19490SOL     OW60403   6.830   2.913   6.826
19490SOL    HW160404   6.844   2.840   6.758
19490SOL    HW260405   6.803   2.997   6.779
19491SOL     OW60406   6.938   2.757   5.838
19491SOL    HW160407   6.860   2.733   5.896
19491SOL    HW260408   6.916   2.736   5.743
19492SOL     OW60409   7.370   3.524   6.769
19492SOL    HW160410   7.420   3.578   6.700
19492SOL    HW260411   7.324   3.448   6.725
19493SOL     OW60412   6.819   3.601   6.619
19493SOL    HW160413   6.896   3.657   6.588
19493SOL    HW260414   6.855   3.518   6.663
19494SOL     OW60415   5.693   3.067   6.555
19494SOL    HW160416   5.683   3.101   6.649
19494SOL    HW260417   5.623   2.998   6.536
19495SOL     OW60418   6.289   3.451   7.348
19495SOL    HW160419   6.226   3.498   7.287
19495SOL    HW260420   6.380   3.448   7.307
19496SOL     OW60421   7.390   2.098   6.026
19496SOL    HW160422   7.447   2.070   5.948
19496SOL    HW260423   7.343   2.018   6.062
19497SOL     OW60424   6.995   3.432   6.031
19497SOL    HW160425   7.076   3.456   5.978
19497SOL    HW260426   6.916   3.483   5.997
19498SOL     OW60427   6.867   2.798   6.236
19498SOL    HW160428   6.939   2.735   6.263
19498SOL    HW260429   6.907   2.877   6.189
19499SOL     OW60430   6.369   3.102   7.038
19499SOL    HW160431   6.351   3.130   7.132
19499SOL    HW260432   6.287   3.120   6.982
19500SOL     OW60433   6.295   3.481   5.795
19500SOL    HW160434   6.301   3.506   5.699
19500SOL    HW260435   6.221   3.414   5.807
19501SOL     OW60436   7.230   3.564   7.003
19501SOL    HW160437   7.281   3.555   6.917
19501SOL    HW260438   7.256   3.649   7.049
19502SOL     OW60439   7.431   2.022   6.582
19502SOL    HW160440   7.460   1.931   6.553
19502SOL    HW260441   7.343   2.044   6.540
19503SOL     OW60442   5.785   2.155   6.315
19503SOL    HW160443   5.706   2.209   6.286
19503SOL    HW260444   5.793   2.160   6.415
19504SOL     OW60445   6.818   3.431   5.640
19504SOL    HW160446   6.808   3.335   5.667
19504SOL    HW260447   6.745   3.456   5.576
19505SOL     OW60448   6.393   2.835   6.990
19505SOL    HW160449   6.432   2.806   6.903
19505SOL    HW260450   6.389   2.935   6.994
19506SOL     OW60451   6.572   2.810   5.901
19506SOL    HW160452   6.605   2.826   5.808
19506SOL    HW260453   6.596   2.717   5.930
19507SOL     OW60454   7.090   3.498   5.637
19507SOL    HW160455   6.994   3.472   5.629
19507SOL    HW260456   7.132   3.499   5.546
19508SOL     OW60457   5.947   3.140   7.089
19508SOL    HW160458   5.917   3.233   7.110
19508SOL    HW260459   5.867   3.083   7.071
19509SOL     OW60460   7.172   3.167   6.868
19509SOL    HW160461   7.235   3.139   6.940
19509SOL    HW260462   7.111   3.238   6.901
19510SOL     OW60463   6.704   2.966   6.384
19510SOL    HW160464   6.614   2.930   6.409
19510SOL    HW260465   6.751   2.901   6.325
19511SOL     OW60466   6.604   2.151   6.544
19511SOL    HW160467   6.518   2.115   6.506
19511SOL    HW260468   6.669   2.077   6.556
19512SOL     OW60469   6.219   3.291   6.058
19512SOL    HW160470   6.300   3.245   6.020
19512SOL    HW260471   6.152   3.305   5.986
19513SOL     OW60472   5.853   3.269   5.965
19513SOL    HW160473   5.760   3.253   5.933
19513SOL    HW260474   5.851   3.323   6.049
19514SOL     OW60475   5.717   2.885   7.308
19514SOL    HW160476   5.639   2.866   7.368
19514SOL    HW260477   5.797   2.834   7.340
19515SOL     OW60478   6.279   2.049   7.126
19515SOL    HW160479   6.364   2.024   7.079
19515SOL    HW260480   6.299   2.074   7.221
19516SOL     OW60481   5.673   2.142   5.607
19516SOL    HW160482   5.594   2.150   5.547
19516SOL    HW260483   5.711   2.232   5.625
19517SOL     OW60484   6.930   2.729   7.008
19517SOL    HW160485   6.869   2.789   6.956
19517SOL    HW260486   7.023   2.737   6.973
19518SOL     OW60487   5.661   1.975   5.832
19518SOL    HW160488   5.650   2.035   5.753
19518SOL    HW260489   5.751   1.932   5.829
19519SOL     OW60490   6.774   3.176   5.729
19519SOL    HW160491   6.676   3.162   5.715
19519SOL    HW260492   6.794   3.170   5.827
19520SOL     OW60493   6.226   2.642   7.076
19520SOL    HW160494   6.282   2.721   7.052
19520SOL    HW260495   6.282   2.559   7.071
19521SOL     OW60496   7.009   3.760   6.513
19521SOL    HW160497   6.938   3.816   6.470
19521SOL    HW260498   7.095   3.811   6.516
19522SOL     OW60499   6.307   2.378   7.330
19522SOL    HW160500   6.370   2.443   7.372
19522SOL    HW260501   6.324   2.286   7.365
19523SOL     OW60502   7.046   3.057   7.233
19523SOL    HW160503   7.049   3.063   7.333
19523SOL    HW260504   7.134   3.088   7.196
19524SOL     OW60505   5.907   3.610   7.238
19524SOL    HW160506   5.830   3.675   7.234
19524SOL    HW260507   5.873   3.519   7.262
19525SOL     OW60508   7.171   2.744   6.879
19525SOL    HW160509   7.184   2.653   6.839
19525SOL    HW260510   7.169   2.813   6.807
19526SOL     OW60511   6.830   2.225   6.017
19526SOL    HW160512   6.906   2.160   6.016
19526SOL    HW260513   6.830   2.274   6.104
19527SOL     OW60514   6.143   2.582   6.281
19527SOL    HW160515   6.200   2.664   6.268
19527SOL    HW260516   6.077   2.575   6.207
19528SOL     OW60517   7.385   2.127   7.239
19528SOL    HW160518   7.381   2.179   7.154
19528SOL    HW260519   7.292   2.101   7.267
19529SOL     OW60520   7.258   2.826   7.131
19529SOL    HW160521   7.265   2.925   7.130
19529SOL    HW260522   7.225   2.794   7.042
19530SOL     OW60523   6.486   3.207   5.695
19530SOL    HW160524   6.460   3.191   5.790
19530SOL    HW260525   6.474   3.304   5.673
19531SOL     OW60526   6.256   3.770   6.615
19531SOL    HW160527   6.214   3.811   6.534
19531SOL    HW260528   6.326   3.705   6.586
19532SOL     OW60529   6.460   2.862   6.473
19532SOL    HW160530   6.506   2.780   6.507
19532SOL    HW260531   6.402   2.899   6.545
19533SOL     OW60532   6.665   2.833   5.648
19533SOL    HW160533   6.631   2.899   5.581
19533SOL    HW260534   6.752   2.795   5.617
19534SOL     OW60535   7.373   3.458   6.437
19534SOL    HW160536   7.307   3.453   6.363
19534SOL    HW260537   7.348   3.392   6.508
19535SOL     OW60538   5.802   3.119   7.427
19535SOL    HW160539   5.766   3.039   7.379
19535SOL    HW260540   5.749   3.134   7.511
19536SOL     OW60541   5.715   3.169   6.300
19536SOL    HW160542   5.711   3.138   6.395
19536SOL    HW260543   5.770   3.105   6.246
19537SOL     OW60544   6.313   3.164   7.299
19537SOL    HW160545   6.223   3.128   7.324
19537SOL    HW260546   6.317   3.262   7.320
19538SOL     OW60547   7.429   2.046   6.853
19538SOL    HW160548   7.496   1.978   6.882
19538SOL    HW260549   7.423   2.047   6.754
19539SOL     OW60550   5.951   2.282   6.127
19539SOL    HW160551   5.991   2.221   6.059
19539SOL    HW260552   5.900   2.229   6.195
19540SOL     OW60553   7.255   3.312   6.643
19540SOL    HW160554   7.178   3.303   6.580
19540SOL    HW260555   7.242   3.250   6.720
19541SOL     OW60556   5.944   2.405   6.892
19541SOL    HW160557   5.993   2.332   6.939
19541SOL    HW260558   5.930   2.380   6.796
19542SOL     OW60559   7.002   2.121   6.693
19542SOL    HW160560   7.023   2.024   6.710
19542SOL    HW260561   6.947   2.157   6.768
19543SOL     OW60562   6.592   1.739   6.863
19543SOL    HW160563   6.537   1.672   6.813
19543SOL    HW260564   6.680   1.750   6.817
19544SOL     OW60565   6.428   3.155   5.953
19544SOL    HW160566   6.400   3.061   5.972
19544SOL    HW260567   6.501   3.182   6.016
19545SOL     OW60568   6.171   3.424   6.909
19545SOL    HW160569   6.173   3.484   6.989
19545SOL    HW260570   6.261   3.424   6.865
19546SOL     OW60571   6.968   1.900   5.800
19546SOL    HW160572   7.022   1.829   5.754
19546SOL    HW260573   6.877   1.864   5.820
19547SOL     OW60574   6.831   2.351   6.255
19547SOL    HW160575   6.780   2.437   6.251
19547SOL    HW260576   6.851   2.329   6.351
19548SOL     OW60577   7.184   2.086   6.491
19548SOL    HW160578   7.118   2.111   6.562
19548SOL    HW260579   7.191   2.160   6.424
19549SOL     OW60580   5.626   2.903   5.910
19549SOL    HW160581   5.726   2.900   5.898
19549SOL    HW260582   5.590   2.810   5.911
19550SOL     OW60583   6.517   3.532   5.961
19550SOL    HW160584   6.440   3.506   5.901
19550SOL    HW260585   6.494   3.616   6.010
19551SOL     OW60586   5.793   2.529   7.593
19551SOL    HW160587   5.702   2.499   7.623
19551SOL    HW260588   5.800   2.521   7.494
19552SOL     OW60589   5.815   2.162   8.450
19552SOL    HW160590   5.860   2.127   8.533
19552SOL    HW260591   5.724   2.123   8.443
19553SOL     OW60592   5.606   2.286   8.098
19553SOL    HW160593   5.523   2.308   8.150
19553SOL    HW260594   5.583   2.220   8.026
19554SOL     OW60595   6.118   3.214   8.739
19554SOL    HW160596   6.048   3.212   8.668
19554SOL    HW260597   6.147   3.308   8.755
19555SOL     OW60598   7.155   3.302   8.110
19555SOL    HW160599   7.088   3.285   8.182
19555SOL    HW260600   7.110   3.344   8.031
19556SOL     OW60601   6.678   2.598   8.114
19556SOL    HW160602   6.742   2.675   8.122
19556SOL    HW260603   6.592   2.623   8.157
19557SOL     OW60604   7.418   2.385   7.653
19557SOL    HW160605   7.452   2.333   7.575
19557SOL    HW260606   7.336   2.341   7.690
19558SOL     OW60607   6.256   3.018   8.602
19558SOL    HW160608   6.203   3.083   8.657
19558SOL    HW260609   6.308   3.067   8.532
19559SOL     OW60610   6.532   2.612   9.197
19559SOL    HW160611   6.547   2.678   9.271
19559SOL    HW260612   6.535   2.659   9.109
19560SOL     OW60613   6.297   2.887   7.993
19560SOL    HW160614   6.381   2.932   8.025
19560SOL    HW260615   6.218   2.932   8.034
19561SOL     OW60616   6.333   3.048   9.243
19561SOL    HW160617   6.393   3.120   9.279
19561SOL    HW260618   6.247   3.089   9.213
19562SOL     OW60619   5.940   3.255   8.536
19562SOL    HW160620   5.869   3.191   8.508
19562SOL    HW260621   5.982   3.295   8.454
19563SOL     OW60622   7.040   3.374   8.782
19563SOL    HW160623   7.095   3.454   8.805
19563SOL    HW260624   6.958   3.372   8.839
19564SOL     OW60625   6.041   2.274   9.038
19564SOL    HW160626   6.102   2.304   8.965
19564SOL    HW260627   5.970   2.214   9.001
19565SOL     OW60628   7.181   2.305   8.185
19565SOL    HW160629   7.159   2.341   8.094
19565SOL    HW260630   7.133   2.358   8.254
19566SOL     OW60631   6.720   3.213   9.122
19566SOL    HW160632   6.763   3.214   9.213
19566SOL    HW260633   6.674   3.126   9.108
19567SOL     OW60634   5.721   3.324   8.034
19567SOL    HW160635   5.674   3.372   8.109
19567SOL    HW260636   5.736   3.229   8.061
19568SOL     OW60637   5.882   2.958   8.296
19568SOL    HW160638   5.888   2.860   8.317
19568SOL    HW260639   5.844   3.006   8.375
19569SOL     OW60640   6.151   3.720   8.853
19569SOL    HW160641   6.083   3.696   8.922
19569SOL    HW260642   6.213   3.789   8.891
19570SOL     OW60643   6.089   2.884   7.546
19570SOL    HW160644   6.099   2.959   7.480
19570SOL    HW260645   6.170   2.880   7.604
19571SOL     OW60646   7.219   1.964   8.966
19571SOL    HW160647   7.265   2.037   8.915
19571SOL    HW260648   7.156   2.005   9.032
19572SOL     OW60649   5.714   2.548   8.049
19572SOL    HW160650   5.686   2.454   8.070
19572SOL    HW260651   5.689   2.608   8.124
19573SOL     OW60652   7.452   3.599   7.766
19573SOL    HW160653   7.526   3.584   7.832
19573SOL    HW260654   7.455   3.692   7.732
19574SOL     OW60655   5.608   3.440   7.499
19574SOL    HW160656   5.536   3.373   7.513
19574SOL    HW260657   5.602   3.512   7.568
19575SOL     OW60658   7.277   2.725   8.109
19575SOL    HW160659   7.367   2.715   8.150
19575SOL    HW260660   7.284   2.778   8.025
19576SOL     OW60661   7.235   2.920   7.890
19576SOL    HW160662   7.319   2.907   7.838
19576SOL    HW260663   7.254   2.977   7.970
19577SOL     OW60664   5.740   2.565   9.031
19577SOL    HW160665   5.822   2.619   9.048
19577SOL    HW260666   5.664   2.627   9.007
19578SOL     OW60667   6.200   3.231   8.145
19578SOL    HW160668   6.155   3.142   8.149
19578SOL    HW260669   6.218   3.256   8.050
19579SOL     OW60670   6.825   3.060   8.866
19579SOL    HW160671   6.846   2.992   8.796
19579SOL    HW260672   6.901   3.067   8.930
19580SOL     OW60673   6.435   1.911   7.935
19580SOL    HW160674   6.481   1.996   7.909
19580SOL    HW260675   6.337   1.928   7.944
19581SOL     OW60676   5.857   2.902   8.794
19581SOL    HW160677   5.906   2.815   8.784
19581SOL    HW260678   5.838   2.939   8.703
19582SOL     OW60679   7.143   2.817   7.629
19582SOL    HW160680   7.102   2.726   7.625
19582SOL    HW260681   7.166   2.839   7.724
19583SOL     OW60682   6.810   3.638   9.066
19583SOL    HW160683   6.800   3.717   9.007
19583SOL    HW260684   6.816   3.555   9.010
19584SOL     OW60685   6.965   3.248   8.299
19584SOL    HW160686   6.941   3.275   8.392
19584SOL    HW260687   6.991   3.152   8.297
19585SOL     OW60688   7.193   3.712   7.958
19585SOL    HW160689   7.191   3.647   7.882
19585SOL    HW260690   7.198   3.662   8.044
19586SOL     OW60691   6.156   2.553   7.756
19586SOL    HW160692   6.169   2.647   7.723
19586SOL    HW260693   6.094   2.553   7.834
19587SOL     OW60694   6.861   2.243   8.373
19587SOL    HW160695   6.777   2.190   8.360
19587SOL    HW260696   6.923   2.193   8.433
19588SOL     OW60697   7.184   3.541   7.750
19588SOL    HW160698   7.284   3.553   7.749
19588SOL    HW260699   7.152   3.514   7.659
19589SOL     OW60700   6.401   2.411   8.814
19589SOL    HW160701   6.412   2.393   8.911
19589SOL    HW260702   6.320   2.363   8.780
19590SOL     OW60703   6.925   2.323   9.088
19590SOL    HW160704   6.932   2.380   9.169
19590SOL    HW260705   6.983   2.242   9.099
19591SOL     OW60706   6.540   2.759   8.963
19591SOL    HW160707   6.586   2.701   8.898
19591SOL    HW260708   6.470   2.813   8.916
19592SOL     OW60709   6.585   2.291   8.614
19592SOL    HW160710   6.513   2.331   8.670
19592SOL    HW260711   6.558   2.293   8.518
19593SOL     OW60712   6.624   2.557   7.849
19593SOL    HW160713   6.649   2.570   7.945
19593SOL    HW260714   6.538   2.506   7.844
19594SOL     OW60715   5.643   2.732   8.252
19594SOL    HW160716   5.730   2.714   8.298
19594SOL    HW260717   5.598   2.810   8.297
19595SOL     OW60718   5.719   3.779   9.063
19595SOL    HW160719   5.725   3.734   9.152
19595SOL    HW260720   5.625   3.775   9.030
19596SOL     OW60721   6.487   2.249   7.633
19596SOL    HW160722   6.565   2.291   7.587
19596SOL    HW260723   6.433   2.198   7.566
19597SOL     OW60724   7.207   2.441   9.254
19597SOL    HW160725   7.209   2.528   9.205
19597SOL    HW260726   7.248   2.369   9.197
19598SOL     OW60727   6.965   2.975   7.960
19598SOL    HW160728   7.054   2.957   7.919
19598SOL    HW260729   6.925   3.057   7.919
19599SOL     OW60730   6.169   1.923   8.416
19599SOL    HW160731   6.172   1.958   8.510
19599SOL    HW260732   6.208   1.992   8.354
19600SOL     OW60733   6.620   3.329   7.939
19600SOL    HW160734   6.589   3.409   7.888
19600SOL    HW260735   6.676   3.358   8.016
19601SOL     OW60736   5.942   3.632   8.295
19601SOL    HW160737   5.981   3.542   8.312
19601SOL    HW260738   6.007   3.703   8.323
19602SOL     OW60739   7.403   2.924   8.364
19602SOL    HW160740   7.379   2.964   8.275
19602SOL    HW260741   7.322   2.925   8.423
19603SOL     OW60742   6.802   3.396   8.926
19603SOL    HW160743   6.786   3.318   8.986
19603SOL    HW260744   6.715   3.428   8.888
19604SOL     OW60745   5.868   2.799   7.685
19604SOL    HW160746   5.946   2.829   7.631
19604SOL    HW260747   5.844   2.705   7.660
19605SOL     OW60748   7.039   2.618   8.153
19605SOL    HW160749   7.037   2.559   8.233
19605SOL    HW260750   7.130   2.658   8.143
19606SOL     OW60751   6.068   3.161   9.201
19606SOL    HW160752   6.059   3.121   9.109
19606SOL    HW260753   5.977   3.175   9.240
19607SOL     OW60754   6.771   3.584   7.686
19607SOL    HW160755   6.681   3.567   7.727
19607SOL    HW260756   6.792   3.511   7.620
19608SOL     OW60757   5.828   2.136   8.940
19608SOL    HW160758   5.765   2.210   8.917
19608SOL    HW260759   5.779   2.062   8.984
19609SOL     OW60760   7.247   3.223   7.564
19609SOL    HW160761   7.197   3.308   7.552
19609SOL    HW260762   7.187   3.145   7.544
19610SOL     OW60763   7.019   1.964   7.959
19610SOL    HW160764   7.008   1.952   7.860
19610SOL    HW260765   7.090   1.902   7.992
19611SOL     OW60766   5.773   3.690   8.621
19611SOL    HW160767   5.830   3.617   8.657
19611SOL    HW260768   5.750   3.670   8.526
19612SOL     OW60769   6.534   3.547   8.339
19612SOL    HW160770   6.627   3.530   8.371
19612SOL    HW260771   6.508   3.477   8.273
19613SOL     OW60772   5.997   2.538   7.980
19613SOL    HW160773   6.006   2.439   7.983
19613SOL    HW260774   5.902   2.564   7.998
19614SOL     OW60775   7.060   2.087   9.162
19614SOL    HW160776   7.065   2.106   9.260
19614SOL    HW260777   6.991   2.017   9.145
19615SOL     OW60778   6.216   1.949   7.564
19615SOL    HW160779   6.250   1.864   7.602
19615SOL    HW260780   6.157   1.930   7.486
19616SOL     OW60781   6.428   3.356   8.663
19616SOL    HW160782   6.401   3.324   8.572
19616SOL    HW260783   6.486   3.287   8.706
19617SOL     OW60784   6.866   2.456   8.854
19617SOL    HW160785   6.894   2.415   8.941
19617SOL    HW260786   6.907   2.547   8.846
19618SOL     OW60787   6.370   3.203   8.425
19618SOL    HW160788   6.460   3.191   8.383
19618SOL    HW260789   6.304   3.228   8.354
19619SOL     OW60790   6.488   2.274   8.341
19619SOL    HW160791   6.473   2.296   8.245
19619SOL    HW260792   6.545   2.192   8.349
19620SOL     OW60793   6.160   1.943   7.948
19620SOL    HW160794   6.085   1.934   8.014
19620SOL    HW260795   6.141   2.020   7.886
19621SOL     OW60796   7.044   3.041   7.509
19621SOL    HW160797   7.076   2.954   7.547
19621SOL    HW260798   6.959   3.068   7.555
19622SOL     OW60799   5.870   1.913   7.607
19622SOL    HW160800   5.912   1.991   7.561
19622SOL    HW260801   5.937   1.867   7.664
19623SOL     OW60802   6.577   2.138   7.872
19623SOL    HW160803   6.545   2.174   7.784
19623SOL    HW260804   6.675   2.153   7.880
19624SOL     OW60805   6.622   2.568   8.784
19624SOL    HW160806   6.548   2.503   8.799
19624SOL    HW260807   6.710   2.524   8.801
19625SOL     OW60808   6.769   3.381   8.161
19625SOL    HW160809   6.801   3.472   8.134
19625SOL    HW260810   6.842   3.332   8.207
19626SOL     OW60811   6.071   2.995   8.102
19626SOL    HW160812   6.012   2.976   8.180
19626SOL    HW260813   6.017   2.996   8.018
19627SOL     OW60814   6.834   3.629   8.051
19627SOL    HW160815   6.880   3.700   7.999
19627SOL    HW260816   6.760   3.669   8.105
19628SOL     OW60817   6.682   2.382   7.493
19628SOL    HW160818   6.624   2.459   7.465
19628SOL    HW260819   6.744   2.412   7.566
19629SOL     OW60820   5.718   2.379   8.836
19629SOL    HW160821   5.805   2.385   8.787
19629SOL    HW260822   5.716   2.448   8.908
19630SOL     OW60823   6.158   2.013   8.674
19630SOL    HW160824   6.182   1.942   8.741
19630SOL    HW260825   6.059   2.027   8.674
19631SOL     OW60826   6.459   2.301   8.070
19631SOL    HW160827   6.413   2.362   8.005
19631SOL    HW260828   6.511   2.232   8.019
19632SOL     OW60829   6.601   1.887   8.151
19632SOL    HW160830   6.538   1.894   8.073
19632SOL    HW260831   6.574   1.811   8.209
19633SOL     OW60832   7.067   2.995   8.266
19633SOL    HW160833   7.000   2.941   8.215
19633SOL    HW260834   7.148   3.010   8.209
19634SOL     OW60835   7.028   2.468   8.377
19634SOL    HW160836   6.962   2.394   8.390
19634SOL    HW260837   7.091   2.471   8.455
19635SOL     OW60838   7.371   2.592   7.826
19635SOL    HW160839   7.435   2.574   7.901
19635SOL    HW260840   7.382   2.522   7.756
19636SOL     OW60841   7.299   3.060   8.119
19636SOL    HW160842   7.398   3.058   8.111
19636SOL    HW260843   7.266   3.154   8.109
19637SOL     OW60844   6.101   2.125   7.754
19637SOL    HW160845   6.146   2.067   7.686
19637SOL    HW260846   6.066   2.208   7.710
19638SOL     OW60847   7.331   3.086   9.012
19638SOL    HW160848   7.421   3.043   9.008
19638SOL    HW260849   7.341   3.183   9.037
19639SOL     OW60850   6.582   3.166   8.786
19639SOL    HW160851   6.506   3.155   8.851
19639SOL    HW260852   6.666   3.133   8.828
19640SOL     OW60853   7.266   3.554   9.109
19640SOL    HW160854   7.227   3.575   9.020
19640SOL    HW260855   7.322   3.472   9.102
19641SOL     OW60856   6.718   3.111   8.554
19641SOL    HW160857   6.653   3.130   8.628
19641SOL    HW260858   6.673   3.128   8.466
19642SOL     OW60859   7.180   2.962   8.516
19642SOL    HW160860   7.186   3.052   8.560
19642SOL    HW260861   7.121   2.968   8.435
19643SOL     OW60862   6.567   1.854   8.796
19643SOL    HW160863   6.571   1.846   8.697
19643SOL    HW260864   6.634   1.922   8.827
19644SOL     OW60865   6.577   2.970   9.141
19644SOL    HW160866   6.483   2.995   9.165
19644SOL    HW260867   6.577   2.897   9.073
19645SOL     OW60868   6.302   2.855   7.721
19645SOL    HW160869   6.296   2.856   7.821
19645SOL    HW260870   6.383   2.804   7.693
19646SOL     OW60871   6.004   2.675   8.760
19646SOL    HW160872   6.086   2.670   8.818
19646SOL    HW260873   5.972   2.583   8.738
19647SOL     OW60874   6.828   2.225   8.713
19647SOL    HW160875   6.854   2.309   8.761
19647SOL    HW260876   6.742   2.239   8.665
19648SOL     OW60877   5.648   3.423   8.773
19648SOL    HW160878   5.594   3.486   8.716
19648SOL    HW260879   5.745   3.445   8.763
19649SOL     OW60880   5.911   3.000   7.879
19649SOL    HW160881   5.906   3.087   7.831
19649SOL    HW260882   5.899   2.925   7.814
19650SOL     OW60883   6.112   2.479   8.327
19650SOL    HW160884   6.150   2.529   8.250
19650SOL    HW260885   6.187   2.451   8.388
19651SOL     OW60886   6.857   3.204   7.859
19651SOL    HW160887   6.916   3.283   7.875
19651SOL    HW260888   6.762   3.229   7.878
19652SOL     OW60889   6.888   3.323   8.553
19652SOL    HW160890   6.941   3.338   8.636
19652SOL    HW260891   6.828   3.244   8.565
19653SOL     OW60892   7.148   2.458   7.948
19653SOL    HW160893   7.082   2.512   8.001
19653SOL    HW260894   7.216   2.519   7.908
19654SOL     OW60895   5.912   3.471   8.698
19654SOL    HW160896   5.913   3.392   8.638
19654SOL    HW260897   6.004   3.488   8.733
19655SOL     OW60898   6.023   2.621   9.099
19655SOL    HW160899   6.097   2.646   9.036
19655SOL    HW260900   6.036   2.527   9.130
19656SOL     OW60901   7.198   2.681   9.133
19656SOL    HW160902   7.103   2.714   9.130
19656SOL    HW260903   7.249   2.718   9.055
19657SOL     OW60904   6.591   1.978   9.180
19657SOL    HW160905   6.619   2.074   9.170
19657SOL    HW260906   6.671   1.921   9.194
19658SOL     OW60907   6.083   1.866   9.224
19658SOL    HW160908   6.019   1.837   9.152
19658SOL    HW260909   6.102   1.963   9.214
19659SOL     OW60910   6.073   2.816   8.535
19659SOL    HW160911   6.143   2.886   8.550
19659SOL    HW260912   6.058   2.766   8.620
19660SOL     OW60913   6.892   2.726   8.423
19660SOL    HW160914   6.875   2.765   8.332
19660SOL    HW260915   6.936   2.637   8.414
19661SOL     OW60916   6.836   2.437   7.723
19661SOL    HW160917   6.855   2.352   7.773
19661SOL    HW260918   6.765   2.488   7.771
19662SOL     OW60919   5.895   2.048   8.689
19662SOL    HW160920   5.873   2.085   8.779
19662SOL    HW260921   5.855   1.956   8.680
19663SOL     OW60922   5.656   3.151   8.740
19663SOL    HW160923   5.647   3.103   8.828
19663SOL    HW260924   5.650   3.250   8.756
19664SOL     OW60925   6.313   2.403   8.500
19664SOL    HW160926   6.371   2.352   8.438
19664SOL    HW260927   6.363   2.483   8.535
19665SOL     OW60928   7.351   2.836   9.305
19665SOL    HW160929   7.298   2.772   9.248
19665SOL    HW260930   7.290   2.881   9.369
19666SOL     OW60931   5.933   1.912   8.105
19666SOL    HW160932   5.894   2.002   8.126
19666SOL    HW260933   5.939   1.858   8.188
19667SOL     OW60934   7.203   2.262   7.765
19667SOL    HW160935   7.251   2.193   7.820
19667SOL    HW260936   7.162   2.330   7.825
19668SOL     OW60937   6.566   3.446   9.138
19668SOL    HW160938   6.547   3.475   9.045
19668SOL    HW260939   6.614   3.358   9.137
19669SOL     OW60940   7.440   3.349   9.050
19669SOL    HW160941   7.467   3.367   8.955
19669SOL    HW260942   7.518   3.364   9.110
19670SOL     OW60943   5.975   2.796   9.313
19670SOL    HW160944   6.063   2.831   9.347
19670SOL    HW260945   5.992   2.734   9.236
19671SOL     OW60946   7.096   2.117   7.555
19671SOL    HW160947   7.043   2.045   7.600
19671SOL    HW260948   7.132   2.180   7.623
19672SOL     OW60949   6.613   3.164   8.307
19672SOL    HW160950   6.608   3.080   8.253
19672SOL    HW260951   6.647   3.238   8.250
19673SOL     OW60952   5.880   2.700   8.385
19673SOL    HW160953   5.957   2.738   8.437
19673SOL    HW260954   5.877   2.601   8.399
19674SOL     OW60955   5.874   2.425   8.436
19674SOL    HW160956   5.848   2.329   8.430
19674SOL    HW260957   5.960   2.439   8.386
19675SOL     OW60958   6.672   2.235   9.130
19675SOL    HW160959   6.647   2.278   9.216
19675SOL    HW260960   6.764   2.264   9.102
19676SOL     OW60961   6.733   2.050   8.902
19676SOL    HW160962   6.690   2.111   8.968
19676SOL    HW260963   6.774   2.104   8.829
19677SOL     OW60964   5.640   3.137   7.650
19677SOL    HW160965   5.554   3.183   7.626
19677SOL    HW260966   5.619   3.047   7.689
19678SOL     OW60967   5.679   3.620   8.367
19678SOL    HW160968   5.635   3.544   8.321
19678SOL    HW260969   5.773   3.630   8.334
19679SOL     OW60970   6.071   3.387   8.332
19679SOL    HW160971   6.143   3.448   8.364
19679SOL    HW260972   6.106   3.331   8.257
19680SOL     OW60973   5.610   2.441   8.580
19680SOL    HW160974   5.687   2.450   8.517
19680SOL    HW260975   5.645   2.420   8.672
19681SOL     OW60976   5.817   2.355   9.198
19681SOL    HW160977   5.897   2.319   9.151
19681SOL    HW260978   5.777   2.430   9.144
19682SOL     OW60979   6.957   2.799   9.081
19682SOL    HW160980   6.984   2.895   9.074
19682SOL    HW260981   6.943   2.763   8.989
19683SOL     OW60982   6.389   2.424   7.824
19683SOL    HW160983   6.413   2.356   7.754
19683SOL    HW260984   6.302   2.468   7.800
19684SOL     OW60985   7.207   2.482   8.586
19684SOL    HW160986   7.185   2.414   8.655
19684SOL    HW260987   7.306   2.481   8.568
19685SOL     OW60988   5.820   3.425   9.140
19685SOL    HW160989   5.801   3.500   9.204
19685SOL    HW260990   5.823   3.338   9.190
19686SOL     OW60991   6.186   2.283   8.705
19686SOL    HW160992   6.186   2.183   8.697
19686SOL    HW260993   6.226   2.323   8.623
19687SOL     OW60994   6.553   3.510   8.864
19687SOL    HW160995   6.506   3.459   8.791
19687SOL    HW260996   6.541   3.608   8.849
19688SOL     OW60997   6.013   2.353   7.625
19688SOL    HW160998   6.082   2.416   7.661
19688SOL    HW260999   5.925   2.400   7.618
19689SOL     OW61000   5.657   2.966   8.964
19689SOL    HW161001   5.687   2.956   9.059
19689SOL    HW261002   5.732   2.943   8.902
19690SOL     OW61003   6.841   2.884   8.641
19690SOL    HW161004   6.862   2.823   8.564
19690SOL    HW261005   6.796   2.967   8.606
19691SOL     OW61006   7.404   3.576   8.650
19691SOL    HW161007   7.416   3.667   8.611
19691SOL    HW261008   7.369   3.514   8.580
19692SOL     OW61009   6.804   3.566   8.442
19692SOL    HW161010   6.885   3.611   8.404
19692SOL    HW261011   6.832   3.480   8.484
19693SOL     OW61012   5.736   3.071   8.498
19693SOL    HW161013   5.705   3.103   8.588
19693SOL    HW261014   5.660   3.028   8.449
19694SOL     OW61015   6.312   3.580   9.259
19694SOL    HW161016   6.252   3.659   9.247
19694SOL    HW261017   6.404   3.602   9.225
19695SOL     OW61018   7.369   2.085   7.895
19695SOL    HW161019   7.420   2.071   7.809
19695SOL    HW261020   7.338   1.997   7.930
19696SOL     OW61021   7.001   3.432   7.923
19696SOL    HW161022   7.059   3.471   7.852
19696SOL    HW261023   6.937   3.501   7.956
19697SOL     OW61024   5.755   3.643   9.296
19697SOL    HW161025   5.703   3.573   9.346
19697SOL    HW261026   5.807   3.698   9.361
19698SOL     OW61027   6.859   2.810   8.140
19698SOL    HW161028   6.924   2.734   8.140
19698SOL    HW261029   6.882   2.874   8.067
19699SOL     OW61030   6.341   3.166   8.924
19699SOL    HW161031   6.331   3.226   9.003
19699SOL    HW261032   6.269   3.187   8.858
19700SOL     OW61033   6.290   3.529   7.620
19700SOL    HW161034   6.294   3.499   7.525
19700SOL    HW261035   6.210   3.489   7.665
19701SOL     OW61036   7.197   3.600   8.840
19701SOL    HW161037   7.276   3.590   8.779
19701SOL    HW261038   7.167   3.696   8.840
19702SOL     OW61039   7.430   1.991   8.421
19702SOL    HW161040   7.456   1.897   8.401
19702SOL    HW261041   7.341   2.010   8.379
19703SOL     OW61042   5.837   2.157   8.173
19703SOL    HW161043   5.755   2.206   8.143
19703SOL    HW261044   5.843   2.160   8.273
19704SOL     OW61045   6.826   3.396   7.491
19704SOL    HW161046   6.769   3.317   7.511
19704SOL    HW261047   6.816   3.420   7.394
19705SOL     OW61048   6.339   2.900   8.844
19705SOL    HW161049   6.323   2.919   8.747
19705SOL    HW261050   6.337   2.986   8.896
19706SOL     OW61051   6.535   2.727   7.650
19706SOL    HW161052   6.609   2.768   7.597
19706SOL    HW261053   6.574   2.672   7.725
19707SOL     OW61054   7.099   3.444   7.510
19707SOL    HW161055   7.001   3.430   7.507
19707SOL    HW261056   7.135   3.455   7.417
19708SOL     OW61057   6.021   3.067   8.950
19708SOL    HW161058   6.056   3.128   8.879
19708SOL    HW261059   5.960   2.999   8.909
19709SOL     OW61060   7.229   3.213   8.636
19709SOL    HW161061   7.310   3.181   8.685
19709SOL    HW261062   7.164   3.253   8.702
19710SOL     OW61063   6.599   2.924   8.175
19710SOL    HW161064   6.541   2.845   8.193
19710SOL    HW261065   6.693   2.893   8.158
19711SOL     OW61066   6.650   2.059   8.357
19711SOL    HW161067   6.643   2.010   8.271
19711SOL    HW261068   6.640   1.996   8.434
19712SOL     OW61069   6.248   3.274   7.887
19712SOL    HW161070   6.303   3.218   7.824
19712SOL    HW261071   6.183   3.328   7.834
19713SOL     OW61072   7.374   2.186   8.868
19713SOL    HW161073   7.436   2.263   8.854
19713SOL    HW261074   7.391   2.116   8.798
19714SOL     OW61075   5.842   3.264   7.792
19714SOL    HW161076   5.772   3.230   7.730
19714SOL    HW261077   5.799   3.296   7.877
19715SOL     OW61078   5.743   2.918   9.218
19715SOL    HW161079   5.663   2.892   9.272
19715SOL    HW261080   5.824   2.873   9.256
19716SOL     OW61081   6.400   1.896   9.007
19716SOL    HW161082   6.451   1.883   8.922
19716SOL    HW261083   6.461   1.933   9.077
19717SOL     OW61084   5.699   2.228   7.402
19717SOL    HW161085   5.605   2.227   7.371
19717SOL    HW261086   5.742   2.315   7.377
19718SOL     OW61087   6.956   2.713   8.820
19718SOL    HW161088   6.895   2.768   8.764
19718SOL    HW261089   7.049   2.718   8.783
19719SOL     OW61090   5.629   2.009   7.679
19719SOL    HW161091   5.599   2.073   7.608
19719SOL    HW261092   5.720   1.974   7.658
19720SOL     OW61093   6.229   2.655   8.907
19720SOL    HW161094   6.267   2.746   8.895
19720SOL    HW261095   6.296   2.587   8.878
19721SOL     OW61096   6.444   2.383   9.072
19721SOL    HW161097   6.462   2.467   9.123
19721SOL    HW261098   6.519   2.319   9.085
19722SOL     OW61099   7.052   3.054   9.055
19722SOL    HW161100   7.035   3.085   9.148
19722SOL    HW261101   7.148   3.068   9.031
19723SOL     OW61102   5.966   3.654   9.046
19723SOL    HW161103   5.883   3.708   9.040
19723SOL    HW261104   5.943   3.558   9.064
19724SOL     OW61105   7.194   2.746   8.688
19724SOL    HW161106   7.203   2.659   8.640
19724SOL    HW261107   7.187   2.820   8.622
19725SOL     OW61108   6.848   2.206   7.900
19725SOL    HW161109   6.910   2.130   7.918
19725SOL    HW261110   6.842   2.264   7.981
19726SOL     OW61111   6.228   2.642   8.095
19726SOL    HW161112   6.246   2.729   8.049
19726SOL    HW261113   6.146   2.599   8.056
19727SOL     OW61114   7.314   2.225   9.127
19727SOL    HW161115   7.337   2.213   9.031
19727SOL    HW261116   7.236   2.167   9.151
19728SOL     OW61117   7.311   2.810   8.926
19728SOL    HW161118   7.301   2.907   8.945
19728SOL    HW261119   7.272   2.789   8.836
19729SOL     OW61120   6.260   3.568   8.387
19729SOL    HW161121   6.229   3.663   8.378
19729SOL    HW261122   6.359   3.563   8.374
19730SOL     OW61123   6.715   2.834   7.475
19730SOL    HW161124   6.654   2.898   7.429
19730SOL    HW261125   6.793   2.812   7.416
19731SOL     OW61126   7.396   3.362   8.221
19731SOL    HW161127   7.310   3.347   8.172
19731SOL    HW261128   7.377   3.379   8.318
19732SOL     OW61129   5.801   3.181   9.270
19732SOL    HW161130   5.787   3.089   9.235
19732SOL    HW261131   5.736   3.199   9.344
19733SOL     OW61132   5.743   3.059   8.088
19733SOL    HW161133   5.788   3.020   8.169
19733SOL    HW261134   5.790   3.028   8.006
19734SOL     OW61135   6.270   3.334   9.127
19734SOL    HW161136   6.184   3.296   9.158
19734SOL    HW261137   6.284   3.424   9.169
19735SOL     OW61138   7.398   1.985   8.693
19735SOL    HW161139   7.387   1.887   8.704
19735SOL    HW261140   7.411   2.007   8.596
19736SOL     OW61141   6.007   2.272   7.981
19736SOL    HW161142   6.036   2.209   7.909
19736SOL    HW261143   5.952   2.222   8.049
19737SOL     OW61144   5.947   2.414   8.698
19737SOL    HW161145   6.033   2.363   8.706
19737SOL    HW261146   5.922   2.422   8.601
19738SOL     OW61147   6.442   3.371   8.153
19738SOL    HW161148   6.492   3.347   8.070
19738SOL    HW261149   6.353   3.327   8.153
19739SOL     OW61150   7.012   2.098   8.548
19739SOL    HW161151   7.028   2.001   8.567
19739SOL    HW261152   6.952   2.135   8.619
19740SOL     OW61153   6.612   1.836   8.522
19740SOL    HW161154   6.575   1.776   8.451
19740SOL    HW261155   6.703   1.804   8.549
19741SOL     OW61156   6.189   3.472   8.753
19741SOL    HW161157   6.189   3.565   8.790
19741SOL    HW261158   6.280   3.451   8.717
19742SOL     OW61159   6.979   1.911   7.695
19742SOL    HW161160   7.048   1.838   7.696
19742SOL    HW261161   6.888   1.870   7.689
19743SOL     OW61162   6.825   2.359   8.120
19743SOL    HW161163   6.768   2.441   8.123
19743SOL    HW261164   6.837   2.322   8.212
19744SOL     OW61165   7.182   2.057   8.334
19744SOL    HW161166   7.122   2.082   8.410
19744SOL    HW261167   7.179   2.129   8.264
19745SOL     OW61168   5.619   2.879   7.771
19745SOL    HW161169   5.711   2.862   7.735
19745SOL    HW261170   5.577   2.792   7.796
19746SOL     OW61171   6.518   3.545   7.795
19746SOL    HW161172   6.441   3.531   7.732
19746SOL    HW261173   6.496   3.619   7.858
19747SOL     OW61174   5.806   2.407   9.466
19747SOL    HW161175   5.709   2.420   9.487
19747SOL    HW261176   5.817   2.389   9.369
19748SOL     OW61177   7.378   2.400   9.455
19748SOL    HW161178   7.318   2.417   9.377
19748SOL    HW261179   7.328   2.351   9.526
19749SOL     OW61180   5.799   3.631   9.763
19749SOL    HW161181   5.797   3.707   9.828
19749SOL    HW261182   5.885   3.633   9.712
19750SOL     OW61183   5.882   3.373   9.793
19750SOL    HW161184   5.843   3.465   9.792
19750SOL    HW261185   5.824   3.313   9.848
19751SOL     OW61186   6.211   2.880   9.423
19751SOL    HW161187   6.261   2.929   9.352
19751SOL    HW261188   6.242   2.908   9.513
19752SOL     OW61189   5.661   2.556   9.883
19752SOL    HW161190   5.574   2.523   9.847
19752SOL    HW261191   5.644   2.624   9.954
19753SOL     OW61192   7.437   3.655   9.645
19753SOL    HW161193   7.520   3.634   9.696
19753SOL    HW261194   7.454   3.733   9.585
19754SOL     OW61195   5.639   3.453   9.441
19754SOL    HW161196   5.614   3.358   9.460
19754SOL    HW261197   5.601   3.513   9.512
19755SOL     OW61198   7.207   2.763   9.897
19755SOL    HW161199   7.285   2.755   9.960
19755SOL    HW261200   7.224   2.836   9.832
19756SOL     OW61201   7.309   2.953   9.722
19756SOL    HW161202   7.381   2.932   9.656
19756SOL    HW261203   7.350   2.994   9.804
19757SOL     OW61204   6.196   3.184   0.003
19757SOL    HW161205   6.140   3.101   0.015
19757SOL    HW261206   6.182   3.220   9.910
19758SOL     OW61207   7.154   2.943   9.494
19758SOL    HW161208   7.071   2.893   9.518
19758SOL    HW261209   7.206   2.964   9.577
19759SOL     OW61210   6.154   2.619   9.626
19759SOL    HW161211   6.228   2.660   9.573
19759SOL    HW261212   6.072   2.676   9.618
19760SOL     OW61213   7.184   3.537   9.626
19760SOL    HW161214   7.275   3.576   9.640
19760SOL    HW261215   7.165   3.532   9.528
19761SOL     OW61216   6.631   2.527   9.720
19761SOL    HW161217   6.669   2.523   9.812
19761SOL    HW261218   6.561   2.456   9.709
19762SOL     OW61219   5.561   2.712   0.086
19762SOL    HW161220   5.528   2.636   0.142
19762SOL    HW261221   5.599   2.782   0.146
19763SOL     OW61222   6.911   3.044   9.743
19763SOL    HW161223   6.912   2.974   9.671
19763SOL    HW261224   6.870   3.128   9.707
19764SOL     OW61225   6.557   3.339   9.791
19764SOL    HW161226   6.532   3.428   9.752
19764SOL    HW261227   6.527   3.335   9.886
19765SOL     OW61228   5.876   3.687   0.157
19765SOL    HW161229   5.850   3.591   0.148
19765SOL    HW261230   5.976   3.696   0.150
19766SOL     OW61231   5.923   2.768   9.584
19766SOL    HW161232   5.939   2.783   9.487
19766SOL    HW261233   5.834   2.725   9.597
19767SOL     OW61234   6.763   3.631   9.534
19767SOL    HW161235   6.674   3.601   9.570
19767SOL    HW261236   6.787   3.575   9.454
19768SOL     OW61237   7.241   3.277   9.378
19768SOL    HW161238   7.211   3.372   9.374
19768SOL    HW261239   7.166   3.217   9.350
19769SOL     OW61240   6.049   3.643   9.647
19769SOL    HW161241   6.086   3.700   9.721
19769SOL    HW261242   6.124   3.593   9.603
19770SOL     OW61243   6.983   2.061   9.745
19770SOL    HW161244   6.968   2.006   9.663
19770SOL    HW261245   7.082   2.071   9.759
19771SOL     OW61246   5.928   2.465   9.860
19771SOL    HW161247   5.951   2.436   9.767
19771SOL    HW261248   5.836   2.503   9.861
19772SOL     OW61249   6.138   1.894   9.485
19772SOL    HW161250   6.236   1.914   9.491
19772SOL    HW261251   6.113   1.876   9.390
19773SOL     OW61252   6.152   1.932   9.879
19773SOL    HW161253   6.060   1.904   9.905
19773SOL    HW261254   6.147   2.006   9.812
19774SOL     OW61255   7.023   3.117   9.321
19774SOL    HW161256   7.065   3.052   9.384
19774SOL    HW261257   6.935   3.148   9.359
19775SOL     OW61258   5.860   1.866   9.510
19775SOL    HW161259   5.958   1.883   9.503
19775SOL    HW261260   5.842   1.803   9.585
19776SOL     OW61261   6.489   2.290   9.709
19776SOL    HW161262   6.445   2.272   9.621
19776SOL    HW261263   6.574   2.237   9.715
19777SOL     OW61264   6.004   2.982   0.024
19777SOL    HW161265   5.946   3.041   0.081
19777SOL    HW261266   5.966   2.977   9.932
19778SOL     OW61267   6.926   3.730   9.887
19778SOL    HW161268   6.969   3.793   9.822
19778SOL    HW261269   6.827   3.744   9.886
19779SOL     OW61270   6.598   2.385   9.344
19779SOL    HW161271   6.583   2.473   9.300
19779SOL    HW261272   6.672   2.392   9.411
19780SOL     OW61273   6.407   2.350   9.963
19780SOL    HW161274   6.328   2.411   9.962
19780SOL    HW261275   6.427   2.321   9.870
19781SOL     OW61276   7.465   2.635   9.565
19781SOL    HW161277   7.564   2.623   9.576
19781SOL    HW261278   7.429   2.560   9.509
19782SOL     OW61279   6.110   3.265   9.473
19782SOL    HW161280   6.021   3.239   9.510
19782SOL    HW261281   6.123   3.221   9.384
19783SOL     OW61282   6.943   2.454   9.326
19783SOL    HW161283   6.907   2.418   9.412
19783SOL    HW261284   7.042   2.442   9.325
19784SOL     OW61285   6.114   2.112   9.682
19784SOL    HW161286   6.102   2.058   9.599
19784SOL    HW261287   6.084   2.206   9.665
19785SOL     OW61288   6.328   2.946   9.666
19785SOL    HW161289   6.300   2.942   9.762
19785SOL    HW261290   6.396   2.875   9.648
19786SOL     OW61291   5.897   2.985   9.759
19786SOL    HW161292   5.913   3.064   9.700
19786SOL    HW261293   5.924   2.901   9.711
19787SOL     OW61294   6.800   3.288   9.665
19787SOL    HW161295   6.865   3.356   9.701
19787SOL    HW261296   6.712   3.299   9.710
19788SOL     OW61297   7.286   2.539   9.751
19788SOL    HW161298   7.238   2.606   9.807
19788SOL    HW261299   7.337   2.586   9.679
19789SOL     OW61300   6.788   2.385   9.545
19789SOL    HW161301   6.805   2.300   9.596
19789SOL    HW261302   6.743   2.451   9.606
19790SOL     OW61303   5.892   1.852   9.932
19790SOL    HW161304   5.817   1.918   9.935
19790SOL    HW261305   5.928   1.838   0.024
19791SOL     OW61306   7.212   2.290   9.641
19791SOL    HW161307   7.233   2.213   9.701
19791SOL    HW261308   7.222   2.375   9.692
19792SOL     OW61309   7.074   2.140   9.428
19792SOL    HW161310   7.023   2.064   9.467
19792SOL    HW261311   7.114   2.195   9.501
19793SOL     OW61312   6.867   2.714   9.321
19793SOL    HW161313   6.892   2.617   9.323
19793SOL    HW261314   6.894   2.754   9.234
19794SOL     OW61315   5.618   3.174   9.480
19794SOL    HW161316   5.527   3.199   9.446
19794SOL    HW261317   5.612   3.086   9.528
19795SOL     OW61318   6.022   2.373   9.623
19795SOL    HW161319   6.081   2.453   9.613
19795SOL    HW261320   5.944   2.381   9.561
19796SOL     OW61321   6.919   2.826   9.564
19796SOL    HW161322   6.885   2.765   9.636
19796SOL    HW261323   6.897   2.787   9.475
19797SOL     OW61324   7.268   2.043   9.755
19797SOL    HW161325   7.333   2.036   9.679
19797SOL    HW261326   7.267   1.958   9.806
19798SOL     OW61327   6.970   3.478   9.788
19798SOL    HW161328   7.049   3.481   9.728
19798SOL    HW261329   6.950   3.569   9.822
19799SOL     OW61330   6.251   3.500   9.513
19799SOL    HW161331   6.275   3.534   9.422
19799SOL    HW261332   6.206   3.411   9.506
19800SOL     OW61333   6.858   3.498   9.310
19800SOL    HW161334   6.819   3.406   9.317
19800SOL    HW261335   6.827   3.540   9.224
19801SOL     OW61336   6.499   2.747   9.608
19801SOL    HW161337   6.542   2.773   9.521
19801SOL    HW261338   6.551   2.674   9.651
19802SOL     OW61339   7.125   3.539   9.352
19802SOL    HW161340   7.029   3.518   9.332
19802SOL    HW261341   7.174   3.553   9.266
19803SOL     OW61342   6.138   3.275   9.761
19803SOL    HW161343   6.164   3.269   9.665
19803SOL    HW261344   6.051   3.325   9.769
19804SOL     OW61345   5.871   3.199   9.589
19804SOL    HW161346   5.782   3.196   9.544
19804SOL    HW261347   5.873   3.274   9.656
19805SOL     OW61348   5.615   2.185   9.309
19805SOL    HW161349   5.537   2.210   9.251
19805SOL    HW261350   5.697   2.234   9.278
19806SOL     OW61351   5.620   1.999   9.512
19806SOL    HW161352   5.608   2.067   9.440
19806SOL    HW261353   5.713   1.964   9.511
19807SOL     OW61354   6.772   3.236   9.396
19807SOL    HW161355   6.674   3.225   9.381
19807SOL    HW261356   6.789   3.254   9.493
19808SOL     OW61357   6.746   2.194   9.788
19808SOL    HW161358   6.838   2.158   9.779
19808SOL    HW261359   6.745   2.270   9.854
19809SOL     OW61360   6.189   2.524   9.914
19809SOL    HW161361   6.217   2.568   9.829
19809SOL    HW261362   6.092   2.497   9.907
19810SOL     OW61363   6.500   3.241   9.347
19810SOL    HW161364   6.462   3.238   9.439
19810SOL    HW261365   6.477   3.329   9.304
19811SOL     OW61366   6.618   2.808   9.368
19811SOL    HW161367   6.601   2.885   9.306
19811SOL    HW261368   6.712   2.776   9.357
19812SOL     OW61369   5.743   3.176   9.914
19812SOL    HW161370   5.681   3.141   9.984
19812SOL    HW261371   5.784   3.100   9.864
19813SOL     OW61372   5.897   2.206   9.969
19813SOL    HW161373   5.924   2.278   9.905
19813SOL    HW261374   5.916   2.237   0.063
19814SOL     OW61375   6.414   3.202   9.596
19814SOL    HW161376   6.379   3.112   9.622
19814SOL    HW261377   6.463   3.242   9.674
19815SOL     OW61378   6.940   1.913   9.525
19815SOL    HW161379   6.995   1.844   9.477
19815SOL    HW261380   6.851   1.874   9.550
19816SOL     OW61381   5.644   2.949   9.645
19816SOL    HW161382   5.734   2.965   9.685
19816SOL    HW261383   5.637   2.853   9.617
19817SOL     OW61384   6.488   3.570   9.649
19817SOL    HW161385   6.406   3.538   9.603
19817SOL    HW261386   6.483   3.669   9.661
19818SOL     OW61387   5.714   4.247   0.074
19818SOL    HW161388   5.650   4.292   0.136
19818SOL    HW261389   5.708   4.291   9.984
19819SOL     OW61390   5.792   4.027   1.063
19819SOL    HW161391   5.829   3.995   1.151
19819SOL    HW261392   5.704   3.982   1.046
19820SOL     OW61393   5.562   4.151   0.628
19820SOL    HW161394   5.476   4.169   0.677
19820SOL    HW261395   5.546   4.081   0.558
19821SOL     OW61396   6.139   4.985   1.231
19821SOL    HW161397   6.060   5.016   1.178
19821SOL    HW261398   6.213   5.052   1.224
19822SOL     OW61399   7.166   5.223   0.733
19822SOL    HW161400   7.116   5.170   0.801
19822SOL    HW261401   7.104   5.253   0.661
19823SOL     OW61402   6.699   4.437   0.655
19823SOL    HW161403   6.747   4.521   0.631
19823SOL    HW261404   6.659   4.445   0.746
19824SOL     OW61405   7.393   4.298   0.157
19824SOL    HW161406   7.369   4.342   0.070
19824SOL    HW261407   7.316   4.243   0.189
19825SOL     OW61408   6.299   4.811   1.087
19825SOL    HW161409   6.227   4.852   1.145
19825SOL    HW261410   6.339   4.882   1.029
19826SOL     OW61411   6.477   4.435   1.771
19826SOL    HW161412   6.503   4.500   1.842
19826SOL    HW261413   6.477   4.479   1.682
19827SOL     OW61414   6.292   4.654   0.652
19827SOL    HW161415   6.358   4.663   0.727
19827SOL    HW261416   6.215   4.715   0.667
19828SOL     OW61417   6.268   4.856   1.849
19828SOL    HW161418   6.333   4.915   1.897
19828SOL    HW261419   6.193   4.912   1.814
19829SOL     OW61420   5.931   5.087   1.089
19829SOL    HW161421   5.860   5.026   1.054
19829SOL    HW261422   5.973   5.137   1.013
19830SOL     OW61423   6.973   5.189   1.404
19830SOL    HW161424   7.026   5.271   1.426
19830SOL    HW261425   6.889   5.187   1.459
19831SOL     OW61426   6.029   4.232   1.651
19831SOL    HW161427   6.126   4.218   1.672
19831SOL    HW261428   5.993   4.151   1.606
19832SOL     OW61429   7.190   4.180   0.718
19832SOL    HW161430   7.169   4.217   0.628
19832SOL    HW261431   7.148   4.237   0.789
19833SOL     OW61432   5.854   5.386   0.504
19833SOL    HW161433   5.863   5.470   0.557
19833SOL    HW261434   5.936   5.373   0.448
19834SOL     OW61435   6.694   5.001   1.716
19834SOL    HW161436   6.720   5.020   1.811
19834SOL    HW261437   6.629   4.924   1.715
19835SOL     OW61438   5.745   5.157   0.603
19835SOL    HW161439   5.790   5.240   0.571
19835SOL    HW261440   5.680   5.181   0.675
19836SOL     OW61441   5.870   4.796   0.855
19836SOL    HW161442   5.890   4.700   0.875
19836SOL    HW261443   5.821   4.837   0.932
19837SOL     OW61444   6.185   5.590   1.422
19837SOL    HW161445   6.104   5.556   1.469
19837SOL    HW261446   6.228   5.662   1.477
19838SOL     OW61447   6.185   4.665   0.205
19838SOL    HW161448   6.139   4.745   0.166
19838SOL    HW261449   6.251   4.695   0.274
19839SOL     OW61450   7.201   3.851   1.481
19839SOL    HW161451   7.263   3.925   1.455
19839SOL    HW261452   7.143   3.881   1.557
19840SOL     OW61453   5.698   4.401   0.589
19840SOL    HW161454   5.652   4.313   0.598
19840SOL    HW261455   5.685   4.455   0.672
19841SOL     OW61456   7.479   5.430   0.325
19841SOL    HW161457   7.552   5.403   0.388
19841SOL    HW261458   7.496   5.523   0.293
19842SOL     OW61459   5.608   5.278   0.122
19842SOL    HW161460   5.605   5.178   0.121
19842SOL    HW261461   5.613   5.311   0.216
19843SOL     OW61462   7.285   4.658   0.692
19843SOL    HW161463   7.379   4.624   0.701
19843SOL    HW261464   7.280   4.723   0.616
19844SOL     OW61465   7.277   4.844   0.490
19844SOL    HW161466   7.356   4.805   0.442
19844SOL    HW261467   7.305   4.926   0.539
19845SOL     OW61468   5.727   4.468   1.547
19845SOL    HW161469   5.811   4.522   1.552
19845SOL    HW261470   5.650   4.528   1.524
19846SOL     OW61471   6.195   5.056   0.740
19846SOL    HW161472   6.156   4.967   0.719
19846SOL    HW261473   6.209   5.108   0.656
19847SOL     OW61474   6.795   4.898   1.413
19847SOL    HW161475   6.824   4.828   1.348
19847SOL    HW261476   6.862   4.905   1.487
19848SOL     OW61477   6.378   3.754   0.501
19848SOL    HW161478   6.418   3.842   0.477
19848SOL    HW261479   6.279   3.757   0.489
19849SOL     OW61480   5.821   4.718   1.290
19849SOL    HW161481   5.887   4.644   1.282
19849SOL    HW261482   5.803   4.757   1.200
19850SOL     OW61483   7.145   4.764   0.262
19850SOL    HW161484   7.052   4.729   0.278
19850SOL    HW261485   7.183   4.797   0.348
19851SOL     OW61486   5.915   3.983   1.874
19851SOL    HW161487   5.963   4.062   1.912
19851SOL    HW261488   5.824   4.011   1.842
19852SOL     OW61489   7.037   5.078   0.919
19852SOL    HW161490   6.991   5.098   1.006
19852SOL    HW261491   7.024   4.982   0.896
19853SOL     OW61492   7.216   5.613   0.519
19853SOL    HW161493   7.215   5.535   0.456
19853SOL    HW261494   7.230   5.580   0.612
19854SOL     OW61495   6.092   4.410   0.251
19854SOL    HW161496   6.134   4.500   0.238
19854SOL    HW261497   6.045   4.408   0.340
19855SOL     OW61498   6.882   4.128   0.920
19855SOL    HW161499   6.792   4.086   0.913
19855SOL    HW261500   6.940   4.075   0.982
19856SOL     OW61501   7.204   5.401   0.352
19856SOL    HW161502   7.304   5.397   0.346
19856SOL    HW261503   7.165   5.381   0.262
19857SOL     OW61504   6.378   4.301   1.455
19857SOL    HW161505   6.349   4.260   1.542
19857SOL    HW261506   6.366   4.235   1.381
19858SOL     OW61507   6.959   4.188   1.654
19858SOL    HW161508   6.962   4.238   1.740
19858SOL    HW261509   7.004   4.100   1.664
19859SOL     OW61510   6.512   4.604   1.543
19859SOL    HW161511   6.568   4.539   1.492
19859SOL    HW261512   6.464   4.664   1.479
19860SOL     OW61513   6.617   4.099   1.162
19860SOL    HW161514   6.526   4.117   1.199
19860SOL    HW261515   6.608   4.062   1.070
19861SOL     OW61516   6.596   4.371   0.404
19861SOL    HW161517   6.626   4.381   0.499
19861SOL    HW261518   6.500   4.343   0.403
19862SOL     OW61519   5.663   4.560   0.809
19862SOL    HW161520   5.757   4.552   0.842
19862SOL    HW261521   5.611   4.618   0.872
19863SOL     OW61522   5.707   5.605   1.588
19863SOL    HW161523   5.720   5.572   1.682
19863SOL    HW261524   5.618   5.575   1.555
19864SOL     OW61525   7.244   4.304   1.839
19864SOL    HW161526   7.238   4.388   1.785
19864SOL    HW261527   7.267   4.227   1.780
19865SOL     OW61528   6.998   4.889   0.591
19865SOL    HW161529   7.091   4.887   0.553
19865SOL    HW261530   6.945   4.961   0.546
19866SOL     OW61531   5.961   3.960   0.864
19866SOL    HW161532   5.904   3.980   0.943
19866SOL    HW261533   6.024   4.037   0.849
19867SOL     OW61534   6.593   5.191   0.451
19867SOL    HW161535   6.565   5.239   0.368
19867SOL    HW261536   6.555   5.237   0.531
19868SOL     OW61537   5.950   5.483   0.899
19868SOL    HW161538   5.989   5.391   0.895
19868SOL    HW261539   6.022   5.548   0.921
19869SOL     OW61540   7.364   4.784   0.927
19869SOL    HW161541   7.318   4.754   0.843
19869SOL    HW261542   7.297   4.789   1.001
19870SOL     OW61543   6.726   5.185   1.525
19870SOL    HW161544   6.721   5.117   1.597
19870SOL    HW261545   6.668   5.158   1.448
19871SOL     OW61546   5.868   4.620   0.176
19871SOL    HW161547   5.935   4.547   0.159
19871SOL    HW261548   5.800   4.587   0.242
19872SOL     OW61549   7.063   4.502   0.685
19872SOL    HW161550   7.056   4.448   0.769
19872SOL    HW261551   7.144   4.561   0.691
19873SOL     OW61552   6.069   5.031   1.759
19873SOL    HW161553   6.069   5.030   1.659
19873SOL    HW261554   5.975   5.022   1.792
19874SOL     OW61555   6.660   5.482   0.129
19874SOL    HW161556   6.592   5.436   0.186
19874SOL    HW261557   6.709   5.414   0.074
19875SOL     OW61558   5.832   4.049   1.537
19875SOL    HW161559   5.781   4.117   1.484
19875SOL    HW261560   5.781   4.027   1.620
19876SOL     OW61561   7.267   5.106   0.152
19876SOL    HW161562   7.233   5.200   0.150
19876SOL    HW261563   7.192   5.042   0.136
19877SOL     OW61564   6.087   5.389   0.357
19877SOL    HW161565   6.119   5.477   0.392
19877SOL    HW261566   6.133   5.367   0.272
19878SOL     OW61567   6.967   3.812   0.426
19878SOL    HW161568   6.957   3.817   0.327
19878SOL    HW261569   7.065   3.806   0.450
19879SOL     OW61570   5.865   5.519   1.168
19879SOL    HW161571   5.885   5.436   1.220
19879SOL    HW261572   5.889   5.505   1.072
19880SOL     OW61573   6.522   5.407   0.856
19880SOL    HW161574   6.613   5.367   0.872
19880SOL    HW261575   6.484   5.371   0.771
19881SOL     OW61576   5.954   4.376   0.482
19881SOL    HW161577   5.963   4.277   0.472
19881SOL    HW261578   5.865   4.398   0.523
19882SOL     OW61579   7.062   3.937   1.707
19882SOL    HW161580   7.064   3.955   1.805
19882SOL    HW261581   6.998   3.864   1.687
19883SOL     OW61582   6.142   3.738   0.097
19883SOL    HW161583   6.213   3.668   0.101
19883SOL    HW261584   6.130   3.767   0.002
19884SOL     OW61585   6.343   3.965   1.824
19884SOL    HW161586   6.425   3.919   1.789
19884SOL    HW261587   6.283   3.898   1.867
19885SOL     OW61588   6.357   5.148   1.197
19885SOL    HW161589   6.369   5.125   1.100
19885SOL    HW261590   6.439   5.122   1.248
19886SOL     OW61591   6.879   4.312   1.424
19886SOL    HW161592   6.916   4.276   1.511
19886SOL    HW261593   6.916   4.403   1.408
19887SOL     OW61594   6.383   5.034   0.945
19887SOL    HW161595   6.475   5.053   0.913
19887SOL    HW261596   6.318   5.045   0.870
19888SOL     OW61597   6.499   4.213   0.857
19888SOL    HW161598   6.461   4.209   0.764
19888SOL    HW261599   6.549   4.129   0.877
19889SOL     OW61600   6.107   3.755   0.447
19889SOL    HW161601   6.029   3.751   0.509
19889SOL    HW261602   6.094   3.829   0.381
19890SOL     OW61603   7.035   4.970   0.094
19890SOL    HW161604   7.062   4.884   0.136
19890SOL    HW261605   6.944   4.996   0.127
19891SOL     OW61606   6.505   3.981   0.434
19891SOL    HW161607   6.482   4.018   0.344
19891SOL    HW261608   6.604   3.986   0.448
19892SOL     OW61609   6.624   4.410   1.392
19892SOL    HW161610   6.550   4.349   1.421
19892SOL    HW261611   6.712   4.362   1.403
19893SOL     OW61612   6.786   5.326   0.840
19893SOL    HW161613   6.812   5.380   0.760
19893SOL    HW261614   6.853   5.339   0.913
19894SOL     OW61615   6.075   4.818   0.680
19894SOL    HW161616   6.004   4.818   0.751
19894SOL    HW261617   6.037   4.780   0.595
19895SOL     OW61618   6.830   5.518   0.632
19895SOL    HW161619   6.873   5.580   0.567
19895SOL    HW261620   6.747   5.560   0.669
19896SOL     OW61621   6.662   4.361   9.974
19896SOL    HW161622   6.631   4.453   9.998
19896SOL    HW261623   6.660   4.303   0.055
19897SOL     OW61624   5.712   4.254   1.385
19897SOL    HW161625   5.800   4.249   1.338
19897SOL    HW261626   5.711   4.332   1.447
19898SOL     OW61627   6.411   4.178   0.606
19898SOL    HW161628   6.351   4.233   0.548
19898SOL    HW261629   6.447   4.101   0.553
19899SOL     OW61630   6.616   3.775   0.701
19899SOL    HW161631   6.549   3.788   0.628
19899SOL    HW261632   6.583   3.707   0.766
19900SOL     OW61633   7.000   4.812   0.873
19900SOL    HW161634   6.945   4.731   0.894
19900SOL    HW261635   6.997   4.829   0.774
19901SOL     OW61636   7.046   4.351   0.912
19901SOL    HW161637   6.982   4.275   0.925
19901SOL    HW261638   7.113   4.352   0.986
19902SOL     OW61639   7.387   4.461   0.382
19902SOL    HW161640   7.452   4.430   0.452
19902SOL    HW261641   7.401   4.408   0.298
19903SOL     OW61642   7.357   5.052   0.631
19903SOL    HW161643   7.450   5.083   0.653
19903SOL    HW261644   7.291   5.118   0.667
19904SOL     OW61645   6.908   4.253   9.929
19904SOL    HW161646   6.818   4.295   9.939
19904SOL    HW261647   6.930   4.200   0.011
19905SOL     OW61648   6.065   3.950   0.255
19905SOL    HW161649   6.099   3.879   0.192
19905SOL    HW261650   6.038   4.031   0.202
19906SOL     OW61651   7.329   4.970   1.521
19906SOL    HW161652   7.419   4.926   1.511
19906SOL    HW261653   7.341   5.060   1.562
19907SOL     OW61654   6.564   5.030   1.349
19907SOL    HW161655   6.489   5.017   1.414
19907SOL    HW261656   6.643   4.975   1.379
19908SOL     OW61657   7.211   5.346   1.697
19908SOL    HW161658   7.172   5.370   1.608
19908SOL    HW261659   7.297   5.297   1.684
19909SOL     OW61660   6.692   4.949   1.114
19909SOL    HW161661   6.628   4.979   1.185
19909SOL    HW261662   6.666   4.990   1.027
19910SOL     OW61663   7.163   4.815   1.108
19910SOL    HW161664   7.154   4.893   1.171
19910SOL    HW261665   7.094   4.824   1.036
19911SOL     OW61666   6.565   3.783   1.314
19911SOL    HW161667   6.604   3.772   1.223
19911SOL    HW261668   6.629   3.833   1.372
19912SOL     OW61669   6.513   4.794   1.733
19912SOL    HW161670   6.418   4.810   1.760
19912SOL    HW261671   6.517   4.725   1.661
19913SOL     OW61672   6.370   4.737   0.399
19913SOL    HW161673   6.345   4.701   0.488
19913SOL    HW261674   6.459   4.700   0.372
19914SOL     OW61675   6.011   4.506   1.266
19914SOL    HW161676   6.084   4.521   1.333
19914SOL    HW261677   5.983   4.411   1.267
19915SOL     OW61678   6.858   4.088   1.274
19915SOL    HW161679   6.874   4.172   1.327
19915SOL    HW261680   6.769   4.093   1.229
19916SOL     OW61681   5.653   5.294   1.346
19916SOL    HW161682   5.609   5.347   1.273
19916SOL    HW261683   5.752   5.296   1.334
19917SOL     OW61684   5.943   4.731   0.461
19917SOL    HW161685   5.898   4.819   0.450
19917SOL    HW261686   5.942   4.682   0.373
19918SOL     OW61687   6.087   4.211   0.850
19918SOL    HW161688   6.107   4.271   0.772
19918SOL    HW261689   6.160   4.220   0.918
19919SOL     OW61690   6.853   5.095   0.463
19919SOL    HW161691   6.911   5.172   0.488
19919SOL    HW261692   6.757   5.121   0.472
19920SOL     OW61693   6.898   5.122   1.151
19920SOL    HW161694   6.920   5.137   1.248
19920SOL    HW261695   6.827   5.052   1.144
19921SOL     OW61696   7.166   4.335   0.487
19921SOL    HW161697   7.107   4.395   0.542
19921SOL    HW261698   7.241   4.390   0.448
19922SOL     OW61699   5.917   5.274   1.286
19922SOL    HW161700   5.915   5.201   1.217
19922SOL    HW261701   6.012   5.298   1.305
19923SOL     OW61702   6.014   4.502   1.608
19923SOL    HW161703   6.090   4.528   1.549
19923SOL    HW261704   6.017   4.404   1.626
19924SOL     OW61705   7.219   4.535   1.699
19924SOL    HW161706   7.124   4.564   1.686
19924SOL    HW261707   7.273   4.563   1.619
19925SOL     OW61708   6.576   3.851   1.748
19925SOL    HW161709   6.630   3.930   1.718
19925SOL    HW261710   6.637   3.775   1.770
19926SOL     OW61711   6.035   3.777   1.742
19926SOL    HW161712   5.974   3.714   1.695
19926SOL    HW261713   5.983   3.856   1.775
19927SOL     OW61714   6.182   4.551   1.054
19927SOL    HW161715   6.224   4.641   1.060
19927SOL    HW261716   6.118   4.539   1.130
19928SOL     OW61717   6.868   4.570   0.961
19928SOL    HW161718   6.777   4.535   0.943
19928SOL    HW261719   6.936   4.498   0.946
19929SOL     OW61720   6.690   4.213   0.202
19929SOL    HW161721   6.781   4.171   0.206
19929SOL    HW261722   6.675   4.269   0.283
19930SOL     OW61723   5.905   3.943   1.292
19930SOL    HW161724   5.885   3.961   1.388
19930SOL    HW261725   5.895   3.845   1.274
19931SOL     OW61726   5.628   5.032   1.264
19931SOL    HW161727   5.633   4.968   1.341
19931SOL    HW261728   5.633   5.126   1.299
19932SOL     OW61729   6.284   4.287   1.022
19932SOL    HW161730   6.363   4.273   0.962
19932SOL    HW261731   6.257   4.383   1.019
19933SOL     OW61732   7.335   4.732   1.857
19933SOL    HW161733   7.297   4.654   1.808
19933SOL    HW261734   7.273   4.759   1.931
19934SOL     OW61735   5.878   3.742   0.603
19934SOL    HW161736   5.840   3.835   0.603
19934SOL    HW261737   5.886   3.710   0.697
19935SOL     OW61738   7.194   4.150   0.286
19935SOL    HW161739   7.256   4.079   0.320
19935SOL    HW261740   7.172   4.213   0.360
19936SOL     OW61741   6.610   4.452   0.922
19936SOL    HW161742   6.583   4.472   1.017
19936SOL    HW261743   6.577   4.362   0.896
19937SOL     OW61744   6.726   5.404   1.684
19937SOL    HW161745   6.728   5.489   1.631
19937SOL    HW261746   6.721   5.326   1.623
19938SOL     OW61747   7.439   5.220   1.587
19938SOL    HW161748   7.458   5.249   1.493
19938SOL    HW261749   7.523   5.226   1.641
19939SOL     OW61750   5.936   4.664   1.815
19939SOL    HW161751   5.999   4.658   1.892
19939SOL    HW261752   5.968   4.604   1.741
19940SOL     OW61753   6.950   4.104   0.157
19940SOL    HW161754   6.934   4.006   0.159
19940SOL    HW261755   7.036   4.125   0.204
19941SOL     OW61756   6.885   4.595   0.016
19941SOL    HW161757   6.919   4.503   9.994
19941SOL    HW261758   6.923   4.661   9.951
19942SOL     OW61759   6.643   5.075   0.875
19942SOL    HW161760   6.662   4.997   0.816
19942SOL    HW261761   6.704   5.151   0.850
19943SOL     OW61762   5.919   4.536   0.925
19943SOL    HW161763   6.018   4.544   0.940
19943SOL    HW261764   5.889   4.445   0.953
19944SOL     OW61765   5.862   4.273   0.987
19944SOL    HW161766   5.819   4.185   1.007
19944SOL    HW261767   5.940   4.258   0.925
19945SOL     OW61768   6.710   4.079   1.673
19945SOL    HW161769   6.665   4.128   1.748
19945SOL    HW261770   6.800   4.119   1.656
19946SOL     OW61771   6.753   3.914   1.459
19946SOL    HW161772   6.724   3.974   1.533
19946SOL    HW261773   6.802   3.968   1.390
19947SOL     OW61774   5.585   5.002   0.129
19947SOL    HW161775   5.486   5.013   0.117
19947SOL    HW261776   5.603   4.932   0.199
19948SOL     OW61777   5.674   5.466   0.887
19948SOL    HW161778   5.644   5.382   0.842
19948SOL    HW261779   5.774   5.471   0.884
19949SOL     OW61780   6.074   5.235   0.907
19949SOL    HW161781   6.149   5.294   0.938
19949SOL    HW261782   6.110   5.167   0.843
19950SOL     OW61783   6.504   4.495   1.163
19950SOL    HW161784   6.559   4.473   1.243
19950SOL    HW261785   6.408   4.471   1.181
19951SOL     OW61786   5.608   4.324   1.132
19951SOL    HW161787   5.687   4.326   1.069
19951SOL    HW261788   5.639   4.299   1.223
19952SOL     OW61789   5.790   4.307   1.757
19952SOL    HW161790   5.883   4.283   1.731
19952SOL    HW261791   5.753   4.374   1.692
19953SOL     OW61792   6.976   4.640   1.627
19953SOL    HW161793   6.993   4.738   1.626
19953SOL    HW261794   6.961   4.608   1.534
19954SOL     OW61795   6.336   4.284   0.348
19954SOL    HW161796   6.368   4.211   0.288
19954SOL    HW261797   6.250   4.322   0.313
19955SOL     OW61798   7.238   4.347   1.110
19955SOL    HW161799   7.219   4.268   1.167
19955SOL    HW261800   7.337   4.359   1.100
19956SOL     OW61801   5.846   5.272   1.691
19956SOL    HW161802   5.825   5.349   1.752
19956SOL    HW261803   5.837   5.186   1.742
19957SOL     OW61804   6.355   4.135   1.243
19957SOL    HW161805   6.330   4.039   1.245
19957SOL    HW261806   6.313   4.179   1.163
19958SOL     OW61807   5.982   4.183   0.128
19958SOL    HW161808   6.026   4.261   0.174
19958SOL    HW261809   5.884   4.200   0.119
19959SOL     OW61810   5.659   4.845   1.469
19959SOL    HW161811   5.687   4.832   1.564
19959SOL    HW261812   5.726   4.801   1.409
19960SOL     OW61813   6.834   4.728   1.186
19960SOL    HW161814   6.851   4.668   1.108
19960SOL    HW261815   6.779   4.806   1.158
19961SOL     OW61816   6.889   4.681   0.275
19961SOL    HW161817   6.798   4.676   0.317
19961SOL    HW261818   6.885   4.646   0.182
19962SOL     OW61819   7.383   5.462   1.179
19962SOL    HW161820   7.429   5.489   1.095
19962SOL    HW261821   7.323   5.384   1.160
19963SOL     OW61822   5.720   4.885   1.059
19963SOL    HW161823   5.687   4.942   1.134
19963SOL    HW261824   5.642   4.841   1.014
19964SOL     OW61825   6.283   5.449   1.766
19964SOL    HW161826   6.206   5.512   1.756
19964SOL    HW261827   6.363   5.487   1.719
19965SOL     OW61828   7.375   3.963   0.390
19965SOL    HW161829   7.452   3.923   0.340
19965SOL    HW261830   7.318   3.890   0.427
19966SOL     OW61831   7.003   5.316   0.532
19966SOL    HW161832   7.068   5.348   0.464
19966SOL    HW261833   6.942   5.390   0.559
19967SOL     OW61834   5.755   5.492   1.830
19967SOL    HW161835   5.688   5.425   1.861
19967SOL    HW261836   5.794   5.540   1.908
19968SOL     OW61837   6.852   4.662   0.630
19968SOL    HW161838   6.924   4.596   0.647
19968SOL    HW261839   6.891   4.747   0.595
19969SOL     OW61840   6.343   5.009   1.512
19969SOL    HW161841   6.370   5.052   1.598
19969SOL    HW261842   6.247   5.029   1.493
19970SOL     OW61843   6.213   5.293   0.134
19970SOL    HW161844   6.217   5.318   0.037
19970SOL    HW261845   6.157   5.210   0.144
19971SOL     OW61846   7.147   5.403   1.429
19971SOL    HW161847   7.193   5.376   1.345
19971SOL    HW261848   7.162   5.500   1.446
19972SOL     OW61849   7.441   3.873   0.970
19972SOL    HW161850   7.465   3.780   0.942
19972SOL    HW261851   7.355   3.899   0.927
19973SOL     OW61852   5.800   4.000   0.642
19973SOL    HW161853   5.720   4.058   0.654
19973SOL    HW261854   5.850   3.994   0.728
19974SOL     OW61855   6.796   5.275   9.997
19974SOL    HW161856   6.773   5.212   0.071
19974SOL    HW261857   6.878   5.242   9.949
19975SOL     OW61858   6.365   4.760   1.377
19975SOL    HW161859   6.369   4.776   1.278
19975SOL    HW261860   6.351   4.848   1.423
19976SOL     OW61861   6.605   4.626   0.309
19976SOL    HW161862   6.600   4.625   0.209
19976SOL    HW261863   6.607   4.532   0.343
19977SOL     OW61864   7.120   5.340   0.098
19977SOL    HW161865   7.084   5.267   0.040
19977SOL    HW261866   7.094   5.429   0.059
19978SOL     OW61867   6.068   5.055   1.487
19978SOL    HW161868   6.009   5.135   1.477
19978SOL    HW261869   6.079   5.010   1.398
19979SOL     OW61870   7.163   5.019   1.307
19979SOL    HW161871   7.228   4.993   1.378
19979SOL    HW261872   7.085   5.066   1.348
19980SOL     OW61873   6.661   4.835   0.748
19980SOL    HW161874   6.585   4.783   0.785
19980SOL    HW261875   6.725   4.773   0.702
19981SOL     OW61876   6.645   3.974   0.907
19981SOL    HW161877   6.642   3.936   0.814
19981SOL    HW261878   6.655   3.900   0.973
19982SOL     OW61879   6.230   5.195   0.506
19982SOL    HW161880   6.276   5.128   0.447
19982SOL    HW261881   6.171   5.254   0.450
19983SOL     OW61882   7.405   4.044   1.433
19983SOL    HW161883   7.449   4.130   1.405
19983SOL    HW261884   7.420   3.974   1.363
19984SOL     OW61885   5.715   4.793   1.729
19984SOL    HW161886   5.633   4.768   1.781
19984SOL    HW261887   5.794   4.742   1.763
19985SOL     OW61888   5.605   3.996   0.040
19985SOL    HW161889   5.507   4.007   0.051
19985SOL    HW261890   5.650   4.085   0.052
19986SOL     OW61891   6.965   4.566   1.366
19986SOL    HW161892   6.905   4.618   1.307
19986SOL    HW261893   7.059   4.570   1.330
19987SOL     OW61894   5.657   3.824   0.256
19987SOL    HW161895   5.634   3.886   0.181
19987SOL    HW261896   5.746   3.783   0.240
19988SOL     OW61897   6.793   5.068   0.189
19988SOL    HW161898   6.696   5.051   0.176
19988SOL    HW261899   6.814   5.069   0.287
19989SOL     OW61900   6.222   4.531   1.432
19989SOL    HW161901   6.275   4.614   1.418
19989SOL    HW261902   6.284   4.454   1.445
19990SOL     OW61903   6.967   5.362   1.057
19990SOL    HW161904   7.066   5.356   1.049
19990SOL    HW261905   6.931   5.276   1.093
19991SOL     OW61906   6.300   4.211   1.703
19991SOL    HW161907   6.357   4.280   1.748
19991SOL    HW261908   6.317   4.122   1.746
19992SOL     OW61909   7.037   4.903   1.616
19992SOL    HW161910   7.016   4.932   1.709
19992SOL    HW261911   7.130   4.933   1.592
19993SOL     OW61912   5.959   5.495   1.558
19993SOL    HW161913   5.872   5.542   1.543
19993SOL    HW261914   5.942   5.400   1.586
19994SOL     OW61915   7.211   4.588   1.250
19994SOL    HW161916   7.223   4.508   1.191
19994SOL    HW261917   7.197   4.669   1.193
19995SOL     OW61918   6.769   4.004   0.471
19995SOL    HW161919   6.843   3.937   0.460
19995SOL    HW261920   6.799   4.076   0.534
19996SOL     OW61921   6.151   4.408   0.671
19996SOL    HW161922   6.208   4.490   0.661
19996SOL    HW261923   6.082   4.406   0.599
19997SOL     OW61924   7.305   4.077   1.694
19997SOL    HW161925   7.345   4.069   1.603
19997SOL    HW261926   7.221   4.022   1.699
19998SOL     OW61927   7.341   4.647   1.482
19998SOL    HW161928   7.327   4.744   1.499
19998SOL    HW261929   7.297   4.622   1.395
19999SOL     OW61930   6.523   5.055   0.141
19999SOL    HW161931   6.462   5.039   0.219
19999SOL    HW261932   6.469   5.064   0.058
20000SOL     OW61933   6.266   5.416   0.960
20000SOL    HW161934   6.237   5.511   0.963
20000SOL    HW261935   6.363   5.411   0.938
20001SOL     OW61936   6.462   4.681   0.868
20001SOL    HW161937   6.514   4.598   0.886
20001SOL    HW261938   6.418   4.712   0.953
20002SOL     OW61939   6.615   4.622   0.035
20002SOL    HW161940   6.569   4.690   9.977
20002SOL    HW261941   6.714   4.629   0.023
20003SOL     OW61942   7.392   5.283   0.869
20003SOL    HW161943   7.309   5.273   0.815
20003SOL    HW261944   7.413   5.197   0.915
20004SOL     OW61945   5.802   5.033   1.823
20004SOL    HW161946   5.773   4.949   1.777
20004SOL    HW261947   5.751   5.045   1.908
20005SOL     OW61948   5.651   4.909   0.696
20005SOL    HW161949   5.719   4.851   0.741
20005SOL    HW261950   5.695   4.991   0.661
20006SOL     OW61951   6.309   5.171   1.752
20006SOL    HW161952   6.217   5.132   1.753
20006SOL    HW261953   6.302   5.271   1.749
20007SOL     OW61954   7.435   3.855   1.244
20007SOL    HW161955   7.412   3.758   1.251
20007SOL    HW261956   7.446   3.879   1.148
20008SOL     OW61957   5.966   4.112   0.457
20008SOL    HW161958   6.005   4.048   0.391
20008SOL    HW261959   5.906   4.064   0.520
20009SOL     OW61960   7.230   5.237   1.146
20009SOL    HW161961   7.278   5.193   1.069
20009SOL    HW261962   7.196   5.167   1.208
20010SOL     OW61963   5.945   4.235   1.250
20010SOL    HW161964   5.969   4.140   1.268
20010SOL    HW261965   5.929   4.247   1.152
20011SOL     OW61966   6.429   5.347   0.612
20011SOL    HW161967   6.424   5.434   0.563
20011SOL    HW261968   6.352   5.290   0.585
20012SOL     OW61969   7.033   3.984   1.095
20012SOL    HW161970   7.059   3.889   1.114
20012SOL    HW261971   6.976   4.019   1.170
20013SOL     OW61972   6.660   3.745   1.058
20013SOL    HW161973   6.611   3.679   1.001
20013SOL    HW261974   6.751   3.709   1.080
20014SOL     OW61975   6.386   5.011   0.378
20014SOL    HW161976   6.378   4.912   0.388
20014SOL    HW261977   6.471   5.042   0.421
20015SOL     OW61978   6.175   5.328   1.316
20015SOL    HW161979   6.203   5.420   1.343
20015SOL    HW261980   6.252   5.283   1.270
20016SOL     OW61981   6.924   3.827   0.153
20016SOL    HW161982   6.964   3.802   0.065
20016SOL    HW261983   6.845   3.769   0.173
20017SOL     OW61984   6.837   4.195   0.651
20017SOL    HW161985   6.790   4.283   0.647
20017SOL    HW261986   6.864   4.175   0.745
20018SOL     OW61987   7.198   3.946   0.877
20018SOL    HW161988   7.137   3.971   0.952
20018SOL    HW261989   7.194   4.016   0.806
20019SOL     OW61990   5.643   4.821   0.328
20019SOL    HW161991   5.712   4.878   0.371
20019SOL    HW261992   5.664   4.724   0.345
20020SOL     OW61993   6.455   5.373   0.276
20020SOL    HW161994   6.375   5.342   0.224
20020SOL    HW261995   6.429   5.448   0.336
20021SOL     OW61996   5.767   4.271   2.025
20021SOL    HW161997   5.671   4.270   2.052
20021SOL    HW261998   5.774   4.300   1.929
20022SOL     OW61999   5.770   3.999   2.813
20022SOL    HW162000   5.813   3.956   2.892
20022SOL    HW262001   5.683   3.953   2.794
20023SOL     OW62002   5.530   4.193   2.476
20023SOL    HW162003   5.450   4.201   2.536
20023SOL    HW262004   5.524   4.108   2.424
20024SOL     OW62005   6.194   5.109   3.014
20024SOL    HW162006   6.109   5.092   2.964
20024SOL    HW262007   6.185   5.194   3.067
20025SOL     OW62008   7.139   5.163   2.568
20025SOL    HW162009   7.077   5.146   2.644
20025SOL    HW262010   7.087   5.192   2.488
20026SOL     OW62011   6.740   4.250   2.505
20026SOL    HW162012   6.804   4.314   2.548
20026SOL    HW262013   6.668   4.226   2.571
20027SOL     OW62014   7.370   4.268   2.072
20027SOL    HW162015   7.328   4.291   1.984
20027SOL    HW262016   7.316   4.198   2.118
20028SOL     OW62017   6.334   4.878   2.991
20028SOL    HW162018   6.279   4.961   2.995
20028SOL    HW262019   6.421   4.898   2.944
20029SOL     OW62020   6.390   4.424   3.697
20029SOL    HW162021   6.334   4.456   3.773
20029SOL    HW262022   6.434   4.502   3.652
20030SOL     OW62023   6.241   4.691   2.474
20030SOL    HW162024   6.327   4.683   2.524
20030SOL    HW262025   6.181   4.757   2.519
20031SOL     OW62026   6.223   4.876   3.673
20031SOL    HW162027   6.300   4.930   3.707
20031SOL    HW262028   6.148   4.937   3.649
20032SOL     OW62029   5.939   5.119   2.904
20032SOL    HW162030   5.868   5.063   2.860
20032SOL    HW262031   5.979   5.181   2.836
20033SOL     OW62032   7.026   5.245   3.212
20033SOL    HW162033   7.089   5.320   3.235
20033SOL    HW262034   6.944   5.253   3.268
20034SOL     OW62035   6.014   4.132   3.323
20034SOL    HW162036   6.110   4.151   3.342
20034SOL    HW262037   5.989   4.043   3.360
20035SOL     OW62038   7.272   4.210   2.563
20035SOL    HW162039   7.232   4.251   2.481
20035SOL    HW262040   7.239   4.257   2.644
20036SOL     OW62041   5.765   5.464   2.339
20036SOL    HW162042   5.713   5.536   2.384
20036SOL    HW262043   5.853   5.501   2.307
20037SOL     OW62044   6.794   5.057   3.513
20037SOL    HW162045   6.887   5.022   3.504
20037SOL    HW262046   6.733   4.984   3.543
20038SOL     OW62047   5.871   5.220   2.381
20038SOL    HW162048   5.829   5.310   2.372
20038SOL    HW262049   5.826   5.169   2.454
20039SOL     OW62050   5.896   4.736   2.754
20039SOL    HW162051   5.897   4.662   2.820
20039SOL    HW262052   5.840   4.812   2.789
20040SOL     OW62053   6.130   5.568   3.292
20040SOL    HW162054   6.054   5.546   3.353
20040SOL    HW262055   6.184   5.642   3.332
20041SOL     OW62056   6.137   4.690   2.035
20041SOL    HW162057   6.175   4.733   1.953
20041SOL    HW262058   6.190   4.718   2.115
20042SOL     OW62059   7.308   3.790   3.380
20042SOL    HW162060   7.342   3.835   3.298
20042SOL    HW262061   7.258   3.856   3.436
20043SOL     OW62062   5.686   4.411   2.425
20043SOL    HW162063   5.637   4.328   2.449
20043SOL    HW262064   5.690   4.472   2.504
20044SOL     OW62065   7.461   5.468   2.198
20044SOL    HW162066   7.543   5.460   2.255
20044SOL    HW262067   7.458   5.560   2.158
20045SOL     OW62068   5.597   5.300   1.922
20045SOL    HW162069   5.530   5.226   1.914
20045SOL    HW262070   5.588   5.344   2.011
20046SOL     OW62071   7.265   4.610   2.518
20046SOL    HW162072   7.357   4.599   2.556
20046SOL    HW262073   7.269   4.671   2.439
20047SOL     OW62074   7.246   4.826   2.321
20047SOL    HW162075   7.330   4.806   2.270
20047SOL    HW262076   7.269   4.878   2.403
20048SOL     OW62077   5.668   4.469   3.422
20048SOL    HW162078   5.742   4.510   3.475
20048SOL    HW262079   5.603   4.540   3.395
20049SOL     OW62080   6.204   5.102   2.580
20049SOL    HW162081   6.162   5.011   2.588
20049SOL    HW262082   6.185   5.139   2.489
20050SOL     OW62083   6.924   4.927   3.237
20050SOL    HW162084   6.914   4.836   3.197
20050SOL    HW262085   6.963   4.919   3.329
20051SOL     OW62086   6.414   3.739   2.367
20051SOL    HW162087   6.459   3.816   2.321
20051SOL    HW262088   6.318   3.760   2.380
20052SOL     OW62089   5.690   4.665   3.095
20052SOL    HW162090   5.749   4.615   3.031
20052SOL    HW262091   5.594   4.645   3.076
20053SOL     OW62092   7.140   4.788   2.059
20053SOL    HW162093   7.057   4.733   2.071
20053SOL    HW262094   7.181   4.808   2.148
20054SOL     OW62095   6.773   5.539   3.510
20054SOL    HW162096   6.775   5.613   3.443
20054SOL    HW262097   6.799   5.453   3.466
20055SOL     OW62098   7.013   5.088   2.814
20055SOL    HW162099   6.943   5.075   2.884
20055SOL    HW262100   7.040   4.999   2.777
20056SOL     OW62101   7.238   5.590   2.398
20056SOL    HW162102   7.226   5.518   2.330
20056SOL    HW262103   7.278   5.552   2.481
20057SOL     OW62104   6.142   4.420   2.129
20057SOL    HW162105   6.143   4.512   2.089
20057SOL    HW262106   6.069   4.415   2.198
20058SOL     OW62107   7.197   5.397   2.201
20058SOL    HW162108   7.297   5.408   2.196
20058SOL    HW262109   7.160   5.388   2.109
20059SOL     OW62110   6.412   4.299   3.296
20059SOL    HW162111   6.357   4.278   3.376
20059SOL    HW262112   6.377   4.248   3.217
20060SOL     OW62113   6.969   4.182   3.552
20060SOL    HW162114   6.989   4.227   3.639
20060SOL    HW262115   7.028   4.102   3.542
20061SOL     OW62116   6.527   4.620   3.566
20061SOL    HW162117   6.570   4.558   3.500
20061SOL    HW262118   6.460   4.677   3.519
20062SOL     OW62119   6.578   4.096   3.025
20062SOL    HW162120   6.487   4.115   3.060
20062SOL    HW262121   6.571   4.048   2.937
20063SOL     OW62122   6.610   4.395   2.300
20063SOL    HW162123   6.651   4.338   2.370
20063SOL    HW262124   6.522   4.357   2.272
20064SOL     OW62125   5.689   4.604   2.618
20064SOL    HW162126   5.782   4.634   2.638
20064SOL    HW262127   5.626   4.645   2.683
20065SOL     OW62128   5.686   5.623   3.490
20065SOL    HW162129   5.686   5.575   3.578
20065SOL    HW262130   5.592   5.632   3.457
20066SOL     OW62131   6.444   4.102   2.034
20066SOL    HW162132   6.519   4.147   1.985
20066SOL    HW262133   6.392   4.047   1.969
20067SOL     OW62134   7.283   4.323   3.679
20067SOL    HW162135   7.269   4.412   3.636
20067SOL    HW262136   7.311   4.257   3.610
20068SOL     OW62137   6.960   4.865   2.379
20068SOL    HW162138   7.051   4.858   2.338
20068SOL    HW262139   6.906   4.933   2.330
20069SOL     OW62140   6.257   3.850   2.861
20069SOL    HW162141   6.213   3.879   2.946
20069SOL    HW262142   6.314   3.924   2.826
20070SOL     OW62143   6.562   5.186   2.327
20070SOL    HW162144   6.541   5.264   2.267
20070SOL    HW262145   6.528   5.204   2.419
20071SOL     OW62146   5.941   5.517   2.761
20071SOL    HW162147   5.982   5.426   2.749
20071SOL    HW262148   6.012   5.581   2.789
20072SOL     OW62149   7.406   4.802   2.783
20072SOL    HW162150   7.369   4.854   2.705
20072SOL    HW262151   7.336   4.794   2.854
20073SOL     OW62152   6.799   5.291   3.363
20073SOL    HW162153   6.801   5.204   3.413
20073SOL    HW262154   6.704   5.321   3.353
20074SOL     OW62155   5.891   4.661   2.195
20074SOL    HW162156   5.964   4.679   2.129
20074SOL    HW262157   5.890   4.563   2.217
20075SOL     OW62158   7.047   4.468   2.569
20075SOL    HW162159   7.064   4.408   2.647
20075SOL    HW262160   7.128   4.524   2.552
20076SOL     OW62161   6.027   5.057   3.602
20076SOL    HW162162   6.013   5.053   3.503
20076SOL    HW262163   5.941   5.042   3.649
20077SOL     OW62164   6.714   5.515   2.056
20077SOL    HW162165   6.631   5.486   2.103
20077SOL    HW262166   6.752   5.438   2.004
20078SOL     OW62167   7.213   5.113   1.962
20078SOL    HW162168   7.188   5.210   1.954
20078SOL    HW262169   7.138   5.057   1.926
20079SOL     OW62170   6.026   5.491   2.211
20079SOL    HW162171   6.077   5.543   2.279
20079SOL    HW262172   6.085   5.419   2.173
20080SOL     OW62173   6.948   3.855   2.309
20080SOL    HW162174   6.944   3.819   2.216
20080SOL    HW262175   7.043   3.874   2.334
20081SOL     OW62176   5.809   5.497   3.089
20081SOL    HW162177   5.858   5.412   3.109
20081SOL    HW262178   5.768   5.492   2.998
20082SOL     OW62179   6.550   5.432   2.749
20082SOL    HW162180   6.649   5.432   2.735
20082SOL    HW262181   6.508   5.363   2.689
20083SOL     OW62182   5.934   4.381   2.313
20083SOL    HW162183   5.947   4.282   2.308
20083SOL    HW262184   5.845   4.401   2.352
20084SOL     OW62185   7.120   3.945   3.558
20084SOL    HW162186   7.115   3.950   3.657
20084SOL    HW262187   7.057   3.875   3.525
20085SOL     OW62188   6.189   3.783   1.960
20085SOL    HW162189   6.217   3.692   1.991
20085SOL    HW262190   6.133   3.775   1.878
20086SOL     OW62191   6.328   3.974   3.587
20086SOL    HW162192   6.417   3.930   3.604
20086SOL    HW262193   6.267   3.956   3.664
20087SOL     OW62194   6.412   5.201   3.193
20087SOL    HW162195   6.379   5.150   3.114
20087SOL    HW262196   6.426   5.138   3.270
20088SOL     OW62197   6.862   4.316   3.334
20088SOL    HW162198   6.908   4.275   3.413
20088SOL    HW262199   6.910   4.400   3.307
20089SOL     OW62200   6.532   4.175   2.672
20089SOL    HW162201   6.481   4.161   2.587
20089SOL    HW262202   6.545   4.086   2.717
20090SOL     OW62203   6.150   3.811   2.376
20090SOL    HW162204   6.082   3.824   2.448
20090SOL    HW262205   6.141   3.885   2.309
20091SOL     OW62206   6.999   4.955   1.886
20091SOL    HW162207   7.044   4.889   1.946
20091SOL    HW262208   6.909   4.977   1.923
20092SOL     OW62209   5.855   3.797   2.064
20092SOL    HW162210   5.892   3.863   1.999
20092SOL    HW262211   5.930   3.751   2.112
20093SOL     OW62212   6.526   3.958   2.252
20093SOL    HW162213   6.490   3.998   2.168
20093SOL    HW262214   6.621   3.986   2.264
20094SOL     OW62215   6.621   4.440   3.391
20094SOL    HW162216   6.545   4.391   3.349
20094SOL    HW262217   6.707   4.394   3.368
20095SOL     OW62218   6.812   5.446   2.695
20095SOL    HW162219   6.825   5.455   2.597
20095SOL    HW262220   6.900   5.459   2.742
20096SOL     OW62221   6.061   4.864   2.577
20096SOL    HW162222   6.010   4.816   2.649
20096SOL    HW262223   6.002   4.874   2.497
20097SOL     OW62224   6.836   5.477   2.421
20097SOL    HW162225   6.891   5.555   2.390
20097SOL    HW262226   6.743   5.486   2.387
20098SOL     OW62227   6.625   4.231   1.881
20098SOL    HW162228   6.581   4.312   1.841
20098SOL    HW262229   6.691   4.260   1.950
20099SOL     OW62230   5.612   4.279   3.233
20099SOL    HW162231   5.698   4.234   3.207
20099SOL    HW262232   5.631   4.349   3.302
20100SOL     OW62233   6.142   3.928   3.097
20100SOL    HW162234   6.174   3.894   3.185
20100SOL    HW262235   6.043   3.912   3.088
20101SOL     OW62236   6.421   4.136   2.433
20101SOL    HW162237   6.379   4.203   2.372
20101SOL    HW262238   6.454   4.058   2.380
20102SOL     OW62239   6.596   3.753   2.575
20102SOL    HW162240   6.528   3.748   2.502
20102SOL    HW262241   6.577   3.682   2.643
20103SOL     OW62242   7.097   4.853   2.715
20103SOL    HW162243   7.025   4.797   2.674
20103SOL    HW262244   7.169   4.870   2.648
20104SOL     OW62245   7.109   4.313   2.783
20104SOL    HW162246   7.065   4.224   2.782
20104SOL    HW262247   7.166   4.321   2.865
20105SOL     OW62248   7.378   4.482   2.237
20105SOL    HW162249   7.451   4.467   2.304
20105SOL    HW262250   7.381   4.410   2.168
20106SOL     OW62251   6.084   5.165   2.015
20106SOL    HW162252   6.009   5.130   2.070
20106SOL    HW262253   6.085   5.120   1.926
20107SOL     OW62254   7.317   4.949   2.559
20107SOL    HW162255   7.414   4.965   2.539
20107SOL    HW262256   7.268   5.036   2.558
20108SOL     OW62257   6.968   4.308   1.897
20108SOL    HW162258   6.923   4.281   1.982
20108SOL    HW262259   7.067   4.298   1.908
20109SOL     OW62260   6.112   3.969   2.149
20109SOL    HW162261   6.147   3.900   2.085
20109SOL    HW262262   6.093   4.053   2.100
20110SOL     OW62263   7.318   4.966   3.402
20110SOL    HW162264   7.408   4.922   3.403
20110SOL    HW262265   7.326   5.059   3.439
20111SOL     OW62266   7.192   5.369   3.529
20111SOL    HW162267   7.178   5.410   3.439
20111SOL    HW262268   7.273   5.310   3.527
20112SOL     OW62269   7.206   4.808   2.972
20112SOL    HW162270   7.197   4.885   3.035
20112SOL    HW262271   7.142   4.820   2.896
20113SOL     OW62272   6.525   3.787   3.237
20113SOL    HW162273   6.554   3.786   3.141
20113SOL    HW262274   6.592   3.836   3.292
20114SOL     OW62275   6.629   4.869   3.623
20114SOL    HW162276   6.555   4.922   3.664
20114SOL    HW262277   6.595   4.779   3.596
20115SOL     OW62278   6.314   4.772   2.228
20115SOL    HW162279   6.281   4.744   2.318
20115SOL    HW262280   6.403   4.729   2.210
20116SOL     OW62281   6.791   4.097   3.187
20116SOL    HW162282   6.815   4.181   3.234
20116SOL    HW262283   6.709   4.111   3.132
20117SOL     OW62284   5.641   5.263   3.189
20117SOL    HW162285   5.611   5.352   3.155
20117SOL    HW262286   5.741   5.259   3.188
20118SOL     OW62287   5.892   4.880   2.364
20118SOL    HW162288   5.895   4.951   2.294
20118SOL    HW262289   5.888   4.790   2.319
20119SOL     OW62290   6.081   4.301   2.743
20119SOL    HW162291   6.092   4.352   2.659
20119SOL    HW262292   6.171   4.277   2.781
20120SOL     OW62293   6.814   5.081   2.256
20120SOL    HW162294   6.883   5.146   2.287
20120SOL    HW262295   6.724   5.109   2.289
20121SOL     OW62296   7.164   4.343   2.348
20121SOL    HW162297   7.099   4.395   2.404
20121SOL    HW262298   7.230   4.406   2.307
20122SOL     OW62299   5.913   5.242   3.146
20122SOL    HW162300   5.915   5.191   3.060
20122SOL    HW262301   6.006   5.274   3.167
20123SOL     OW62302   6.077   4.428   3.464
20123SOL    HW162303   6.091   4.453   3.369
20123SOL    HW262304   6.143   4.358   3.491
20124SOL     OW62305   7.209   4.561   3.576
20124SOL    HW162306   7.111   4.581   3.571
20124SOL    HW262307   7.254   4.598   3.495
20125SOL     OW62308   6.566   3.858   3.641
20125SOL    HW162309   6.628   3.937   3.643
20125SOL    HW262310   6.618   3.776   3.616
20126SOL     OW62311   6.948   4.573   2.849
20126SOL    HW162312   6.926   4.613   2.760
20126SOL    HW262313   6.999   4.489   2.836
20127SOL     OW62314   6.782   4.272   2.106
20127SOL    HW162315   6.789   4.186   2.157
20127SOL    HW262316   6.734   4.340   2.162
20128SOL     OW62317   5.861   3.902   3.058
20128SOL    HW162318   5.833   3.989   3.099
20128SOL    HW262319   5.797   3.830   3.084
20129SOL     OW62320   5.669   5.017   3.069
20129SOL    HW162321   5.692   4.955   3.144
20129SOL    HW262322   5.643   5.106   3.105
20130SOL     OW62323   6.333   4.261   2.850
20130SOL    HW162324   6.407   4.235   2.787
20130SOL    HW262325   6.346   4.356   2.880
20131SOL     OW62326   7.336   4.719   3.762
20131SOL    HW162327   7.291   4.656   3.699
20131SOL    HW262328   7.281   4.729   3.845
20132SOL     OW62329   7.168   4.118   2.195
20132SOL    HW162330   7.180   4.041   2.258
20132SOL    HW262331   7.152   4.202   2.247
20133SOL     OW62332   6.603   5.230   3.616
20133SOL    HW162333   6.562   5.287   3.544
20133SOL    HW262334   6.665   5.163   3.574
20134SOL     OW62335   7.418   5.216   3.477
20134SOL    HW162336   7.454   5.241   3.388
20134SOL    HW262337   7.491   5.223   3.546
20135SOL     OW62338   5.872   4.557   3.586
20135SOL    HW162339   5.872   4.528   3.682
20135SOL    HW262340   5.950   4.518   3.539
20136SOL     OW62341   7.063   3.990   1.969
20136SOL    HW162342   7.013   3.911   2.006
20136SOL    HW262343   7.104   4.042   2.045
20137SOL     OW62344   6.851   4.546   1.849
20137SOL    HW162345   6.891   4.456   1.864
20137SOL    HW262346   6.889   4.586   1.766
20138SOL     OW62347   5.843   4.262   2.857
20138SOL    HW162348   5.807   4.172   2.832
20138SOL    HW262349   5.931   4.276   2.811
20139SOL     OW62350   6.717   4.087   3.602
20139SOL    HW162351   6.670   4.162   3.647
20139SOL    HW262352   6.810   4.115   3.579
20140SOL     OW62353   6.722   3.917   3.379
20140SOL    HW162354   6.705   3.972   3.460
20140SOL    HW262355   6.755   3.975   3.305
20141SOL     OW62356   5.632   5.000   2.046
20141SOL    HW162357   5.544   5.039   2.018
20141SOL    HW262358   5.619   4.906   2.078
20142SOL     OW62359   5.684   5.493   2.848
20142SOL    HW162360   5.631   5.435   2.788
20142SOL    HW262361   5.774   5.511   2.807
20143SOL     OW62362   6.083   5.282   2.743
20143SOL    HW162363   6.156   5.343   2.775
20143SOL    HW262364   6.122   5.214   2.681
20144SOL     OW62365   5.593   4.340   2.966
20144SOL    HW162366   5.675   4.312   2.916
20144SOL    HW262367   5.605   4.319   3.063
20145SOL     OW62368   5.773   4.251   3.561
20145SOL    HW162369   5.857   4.238   3.508
20145SOL    HW262370   5.716   4.320   3.516
20146SOL     OW62371   6.954   4.642   3.521
20146SOL    HW162372   6.969   4.741   3.518
20146SOL    HW262373   6.946   4.607   3.427
20147SOL     OW62374   6.372   4.295   2.212
20147SOL    HW162375   6.391   4.223   2.145
20147SOL    HW262376   6.290   4.346   2.184
20148SOL     OW62377   7.272   4.325   3.006
20148SOL    HW162378   7.270   4.261   3.083
20148SOL    HW262379   7.366   4.337   2.974
20149SOL     OW62380   5.789   5.272   3.569
20149SOL    HW162381   5.765   5.345   3.633
20149SOL    HW262382   5.790   5.184   3.617
20150SOL     OW62383   6.315   4.142   3.092
20150SOL    HW162384   6.247   4.068   3.096
20150SOL    HW262385   6.307   4.189   3.004
20151SOL     OW62386   6.540   5.381   3.356
20151SOL    HW162387   6.491   5.319   3.294
20151SOL    HW262388   6.526   5.475   3.327
20152SOL     OW62389   6.025   4.193   2.020
20152SOL    HW162390   6.085   4.270   2.041
20152SOL    HW262391   5.929   4.220   2.033
20153SOL     OW62392   5.723   4.854   3.291
20153SOL    HW162393   5.726   4.818   3.384
20153SOL    HW262394   5.719   4.778   3.226
20154SOL     OW62395   6.866   4.723   3.060
20154SOL    HW162396   6.895   4.663   2.986
20154SOL    HW262397   6.822   4.804   3.021
20155SOL     OW62398   6.904   4.667   2.089
20155SOL    HW162399   6.820   4.678   2.142
20155SOL    HW262400   6.883   4.621   2.002
20156SOL     OW62401   7.368   5.400   3.048
20156SOL    HW162402   7.426   5.440   2.977
20156SOL    HW262403   7.315   5.325   3.010
20157SOL     OW62404   6.885   5.504   3.042
20157SOL    HW162405   6.942   5.489   2.961
20157SOL    HW262406   6.892   5.425   3.104
20158SOL     OW62407   5.722   4.942   2.816
20158SOL    HW162408   5.704   4.974   2.909
20158SOL    HW262409   5.647   4.883   2.786
20159SOL     OW62410   6.294   5.470   3.640
20159SOL    HW162411   6.220   5.537   3.627
20159SOL    HW262412   6.377   5.503   3.594
20160SOL     OW62413   7.213   3.900   2.360
20160SOL    HW162414   7.293   3.899   2.300
20160SOL    HW262415   7.216   3.820   2.421
20161SOL     OW62416   7.000   5.267   2.352
20161SOL    HW162417   7.072   5.306   2.294
20161SOL    HW262418   6.938   5.340   2.381
20162SOL     OW62419   5.719   5.489   3.724
20162SOL    HW162420   5.675   5.418   3.779
20162SOL    HW262421   5.776   5.546   3.783
20163SOL     OW62422   6.907   4.701   2.586
20163SOL    HW162423   6.945   4.611   2.563
20163SOL    HW262424   6.916   4.762   2.507
20164SOL     OW62425   6.434   5.049   3.411
20164SOL    HW162426   6.377   5.104   3.471
20164SOL    HW262427   6.422   4.952   3.433
20165SOL     OW62428   6.252   5.381   2.031
20165SOL    HW162429   6.272   5.403   1.936
20165SOL    HW262430   6.196   5.298   2.035
20166SOL     OW62431   7.191   5.462   3.255
20166SOL    HW162432   7.263   5.442   3.188
20166SOL    HW262433   7.154   5.553   3.238
20167SOL     OW62434   7.443   3.883   2.877
20167SOL    HW162435   7.473   3.793   2.846
20167SOL    HW262436   7.370   3.916   2.817
20168SOL     OW62437   6.829   5.311   1.914
20168SOL    HW162438   6.797   5.218   1.933
20168SOL    HW262439   6.791   5.343   1.828
20169SOL     OW62440   6.548   4.639   2.189
20169SOL    HW162441   6.565   4.636   2.091
20169SOL    HW262442   6.575   4.552   2.230
20170SOL     OW62443   7.092   5.377   1.943
20170SOL    HW162444   6.998   5.346   1.931
20170SOL    HW262445   7.139   5.377   1.854
20171SOL     OW62446   5.937   5.036   3.344
20171SOL    HW162447   5.931   5.112   3.279
20171SOL    HW262448   5.867   4.968   3.323
20172SOL     OW62449   7.199   5.028   3.152
20172SOL    HW162450   7.249   5.005   3.236
20172SOL    HW262451   7.122   5.087   3.174
20173SOL     OW62452   6.665   4.804   2.678
20173SOL    HW162453   6.594   4.748   2.635
20173SOL    HW262454   6.755   4.774   2.647
20174SOL     OW62455   6.562   3.930   2.789
20174SOL    HW162456   6.573   3.879   2.704
20174SOL    HW262457   6.579   3.869   2.866
20175SOL     OW62458   6.151   5.209   2.340
20175SOL    HW162459   6.183   5.160   2.259
20175SOL    HW262460   6.051   5.216   2.339
20176SOL     OW62461   7.357   4.143   3.226
20176SOL    HW162462   7.438   4.201   3.227
20176SOL    HW262463   7.382   4.051   3.195
20177SOL     OW62464   5.872   5.069   2.160
20177SOL    HW162465   5.783   5.050   2.120
20177SOL    HW262466   5.862   5.135   2.235
20178SOL     OW62467   5.710   4.777   3.556
20178SOL    HW162468   5.625   4.757   3.605
20178SOL    HW262469   5.776   4.704   3.572
20179SOL     OW62470   6.276   3.852   3.333
20179SOL    HW162471   6.364   3.828   3.292
20179SOL    HW262472   6.291   3.902   3.418
20180SOL     OW62473   5.677   4.063   1.770
20180SOL    HW162474   5.579   4.059   1.751
20180SOL    HW262475   5.707   4.158   1.773
20181SOL     OW62476   6.971   4.560   3.258
20181SOL    HW162477   6.909   4.607   3.195
20181SOL    HW262478   7.062   4.556   3.219
20182SOL     OW62479   5.601   3.873   2.111
20182SOL    HW162480   5.565   3.922   2.032
20182SOL    HW262481   5.697   3.850   2.095
20183SOL     OW62482   6.739   5.054   1.986
20183SOL    HW162483   6.640   5.046   1.981
20183SOL    HW262484   6.767   5.055   2.083
20184SOL     OW62485   7.056   5.488   2.825
20184SOL    HW162486   7.096   5.579   2.817
20184SOL    HW262487   7.128   5.419   2.813
20185SOL     OW62488   6.274   4.239   3.526
20185SOL    HW162489   6.318   4.301   3.591
20185SOL    HW262490   6.298   4.145   3.547
20186SOL     OW62491   7.047   4.914   3.498
20186SOL    HW162492   7.047   4.919   3.598
20186SOL    HW262493   7.139   4.932   3.463
20187SOL     OW62494   5.931   5.499   3.470
20187SOL    HW162495   5.845   5.550   3.461
20187SOL    HW262496   5.910   5.403   3.489
20188SOL     OW62497   7.210   4.575   3.123
20188SOL    HW162498   7.233   4.491   3.074
20188SOL    HW262499   7.208   4.651   3.058
20189SOL     OW62500   6.774   4.068   2.294
20189SOL    HW162501   6.839   3.993   2.306
20189SOL    HW262502   6.771   4.124   2.376
20190SOL     OW62503   6.114   4.448   2.517
20190SOL    HW162504   6.158   4.535   2.494
20190SOL    HW262505   6.051   4.423   2.444
20191SOL     OW62506   7.328   4.118   3.503
20191SOL    HW162507   7.336   4.134   3.405
20191SOL    HW262508   7.251   4.056   3.521
20192SOL     OW62509   7.312   4.670   3.355
20192SOL    HW162510   7.301   4.769   3.356
20192SOL    HW262511   7.279   4.633   3.268
20193SOL     OW62512   6.461   5.049   1.949
20193SOL    HW162513   6.414   5.061   2.036
20193SOL    HW262514   6.417   5.106   1.879
20194SOL     OW62515   6.272   5.461   2.806
20194SOL    HW162516   6.238   5.555   2.804
20194SOL    HW262517   6.372   5.462   2.800
20195SOL     OW62518   6.606   4.625   1.925
20195SOL    HW162519   6.576   4.701   1.867
20195SOL    HW262520   6.697   4.594   1.896
20196SOL     OW62521   7.329   5.301   2.708
20196SOL    HW162522   7.271   5.261   2.637
20196SOL    HW262523   7.314   5.253   2.795
20197SOL     OW62524   5.771   5.017   3.682
20197SOL    HW162525   5.751   4.936   3.626
20197SOL    HW262526   5.711   5.018   3.762
20198SOL     OW62527   5.745   5.038   2.548
20198SOL    HW162528   5.742   5.009   2.644
20198SOL    HW262529   5.790   4.967   2.493
20199SOL     OW62530   6.265   5.203   3.556
20199SOL    HW162531   6.172   5.168   3.570
20199SOL    HW262532   6.269   5.300   3.583
20200SOL     OW62533   7.437   3.889   3.152
20200SOL    HW162534   7.521   3.840   3.176
20200SOL    HW262535   7.428   3.893   3.053
20201SOL     OW62536   5.930   4.106   2.308
20201SOL    HW162537   5.996   4.051   2.257
20201SOL    HW262538   5.838   4.074   2.289
20202SOL     OW62539   7.233   5.189   2.936
20202SOL    HW162540   7.149   5.165   2.889
20202SOL    HW262541   7.244   5.131   3.017
20203SOL     OW62542   5.834   4.169   3.130
20203SOL    HW162543   5.909   4.164   3.196
20203SOL    HW262544   5.868   4.204   3.043
20204SOL     OW62545   6.420   5.277   2.556
20204SOL    HW162546   6.368   5.346   2.505
20204SOL    HW262547   6.359   5.203   2.583
20205SOL     OW62548   6.643   3.763   2.989
20205SOL    HW162549   6.660   3.673   2.948
20205SOL    HW262550   6.731   3.805   3.013
20206SOL     OW62551   6.349   5.046   2.195
20206SOL    HW162552   6.333   4.949   2.211
20206SOL    HW262553   6.423   5.078   2.254
20207SOL     OW62554   6.167   5.325   3.184
20207SOL    HW162555   6.156   5.419   3.217
20207SOL    HW262556   6.260   5.294   3.206
20208SOL     OW62557   6.942   3.759   2.054
20208SOL    HW162558   6.998   3.693   2.005
20208SOL    HW262559   6.848   3.725   2.061
20209SOL     OW62560   7.248   3.975   2.715
20209SOL    HW162561   7.154   3.996   2.741
20209SOL    HW262562   7.278   4.039   2.644
20210SOL     OW62563   5.622   4.747   2.178
20210SOL    HW162564   5.721   4.729   2.177
20210SOL    HW262565   5.573   4.660   2.179
20211SOL     OW62566   6.484   5.411   2.186
20211SOL    HW162567   6.404   5.391   2.129
20211SOL    HW262568   6.458   5.478   2.256
20212SOL     OW62569   5.761   4.288   3.835
20212SOL    HW162570   5.666   4.285   3.864
20212SOL    HW262571   5.765   4.279   3.735
20213SOL     OW62572   5.806   3.987   4.714
20213SOL    HW162573   5.846   3.958   4.801
20213SOL    HW262574   5.716   3.944   4.704
20214SOL     OW62575   5.571   4.159   4.357
20214SOL    HW162576   5.483   4.167   4.404
20214SOL    HW262577   5.561   4.096   4.279
20215SOL     OW62578   6.148   5.071   4.970
20215SOL    HW162579   6.059   5.070   4.924
20215SOL    HW262580   6.178   5.165   4.985
20216SOL     OW62581   7.169   5.260   4.431
20216SOL    HW162582   7.124   5.210   4.505
20216SOL    HW262583   7.106   5.267   4.354
20217SOL     OW62584   6.743   4.428   4.400
20217SOL    HW162585   6.789   4.516   4.384
20217SOL    HW262586   6.680   4.438   4.477
20218SOL     OW62587   7.394   4.275   3.920
20218SOL    HW162588   7.356   4.299   3.830
20218SOL    HW262589   7.352   4.190   3.952
20219SOL     OW62590   6.293   4.881   4.797
20219SOL    HW162591   6.239   4.922   4.870
20219SOL    HW262592   6.331   4.953   4.739
20220SOL     OW62593   6.473   4.437   5.558
20220SOL    HW162594   6.475   4.495   5.640
20220SOL    HW262595   6.477   4.495   5.476
20221SOL     OW62596   6.263   4.704   4.370
20221SOL    HW162597   6.337   4.709   4.437
20221SOL    HW262598   6.189   4.766   4.396
20222SOL     OW62599   6.284   4.853   5.580
20222SOL    HW162600   6.333   4.931   5.618
20222SOL    HW262601   6.194   4.882   5.548
20223SOL     OW62602   5.912   5.142   4.831
20223SOL    HW162603   5.834   5.083   4.812
20223SOL    HW262604   5.956   5.170   4.745
20224SOL     OW62605   7.029   5.212   5.112
20224SOL    HW162606   7.090   5.290   5.129
20224SOL    HW262607   6.951   5.217   5.175
20225SOL     OW62608   6.086   4.067   5.166
20225SOL    HW162609   6.171   4.018   5.183
20225SOL    HW262610   6.008   4.010   5.193
20226SOL     OW62611   7.184   4.175   4.496
20226SOL    HW162612   7.100   4.182   4.441
20226SOL    HW262613   7.190   4.255   4.557
20227SOL     OW62614   5.835   5.475   4.196
20227SOL    HW162615   5.859   5.543   4.265
20227SOL    HW262616   5.908   5.471   4.127
20228SOL     OW62617   6.712   5.031   5.457
20228SOL    HW162618   6.766   5.016   5.539
20228SOL    HW262619   6.649   4.953   5.444
20229SOL     OW62620   5.803   5.205   4.233
20229SOL    HW162621   5.809   5.304   4.239
20229SOL    HW262622   5.781   5.167   4.323
20230SOL     OW62623   5.889   4.848   4.655
20230SOL    HW162624   5.930   4.771   4.705
20230SOL    HW262625   5.822   4.894   4.713
20231SOL     OW62626   6.166   5.598   5.091
20231SOL    HW162627   6.077   5.589   5.137
20231SOL    HW262628   6.224   5.660   5.145
20232SOL     OW62629   6.138   4.715   3.918
20232SOL    HW162630   6.158   4.761   3.831
20232SOL    HW262631   6.205   4.743   3.986
20233SOL     OW62632   7.194   3.834   5.169
20233SOL    HW162633   7.276   3.869   5.124
20233SOL    HW262634   7.171   3.891   5.248
20234SOL     OW62635   5.655   4.422   4.285
20234SOL    HW162636   5.632   4.330   4.314
20234SOL    HW262637   5.647   4.484   4.363
20235SOL     OW62638   7.446   5.453   4.051
20235SOL    HW162639   7.525   5.441   4.111
20235SOL    HW262640   7.444   5.547   4.018
20236SOL     OW62641   5.631   5.289   3.877
20236SOL    HW162642   5.611   5.193   3.897
20236SOL    HW262643   5.615   5.345   3.959
20237SOL     OW62644   7.298   4.674   4.401
20237SOL    HW162645   7.393   4.644   4.391
20237SOL    HW262646   7.276   4.739   4.329
20238SOL     OW62647   7.243   4.862   4.203
20238SOL    HW162648   7.313   4.826   4.143
20238SOL    HW262649   7.280   4.937   4.258
20239SOL     OW62650   5.714   4.452   5.240
20239SOL    HW162651   5.796   4.506   5.224
20239SOL    HW262652   5.634   4.512   5.240
20240SOL     OW62653   6.189   5.104   4.411
20240SOL    HW162654   6.148   5.015   4.429
20240SOL    HW262655   6.182   5.124   4.313
20241SOL     OW62656   6.809   4.943   5.147
20241SOL    HW162657   6.830   4.877   5.075
20241SOL    HW262658   6.884   4.947   5.213
20242SOL     OW62659   6.359   3.675   4.253
20242SOL    HW162660   6.431   3.742   4.272
20242SOL    HW262661   6.272   3.722   4.245
20243SOL     OW62662   7.127   4.748   3.961
20243SOL    HW162663   7.059   4.677   3.979
20243SOL    HW262664   7.155   4.791   4.047
20244SOL     OW62665   6.909   5.618   5.350
20244SOL    HW162666   6.846   5.671   5.292
20244SOL    HW262667   6.881   5.522   5.349
20245SOL     OW62668   5.929   3.972   5.578
20245SOL    HW162669   5.964   4.058   5.614
20245SOL    HW262670   5.837   3.986   5.540
20246SOL     OW62671   7.061   5.124   4.645
20246SOL    HW162672   6.999   5.156   4.717
20246SOL    HW262673   7.041   5.029   4.623
20247SOL     OW62674   7.193   5.548   4.267
20247SOL    HW162675   7.189   5.493   4.184
20247SOL    HW262676   7.195   5.488   4.347
20248SOL     OW62677   6.108   4.445   3.977
20248SOL    HW162678   6.127   4.540   3.951
20248SOL    HW262679   6.048   4.444   4.057
20249SOL     OW62680   6.866   4.123   4.668
20249SOL    HW162681   6.781   4.070   4.664
20249SOL    HW262682   6.927   4.084   4.738
20250SOL     OW62683   7.173   5.399   4.041
20250SOL    HW162684   7.273   5.400   4.038
20250SOL    HW262685   7.137   5.387   3.949
20251SOL     OW62686   6.338   4.305   5.141
20251SOL    HW162687   6.341   4.271   5.235
20251SOL    HW262688   6.319   4.229   5.078
20252SOL     OW62689   6.950   4.196   5.366
20252SOL    HW162690   6.956   4.249   5.450
20252SOL    HW262691   7.008   4.115   5.372
20253SOL     OW62692   6.497   4.590   5.325
20253SOL    HW162693   6.546   4.528   5.264
20253SOL    HW262694   6.433   4.646   5.271
20254SOL     OW62695   6.579   4.129   4.883
20254SOL    HW162696   6.485   4.122   4.916
20254SOL    HW262697   6.598   4.054   4.820
20255SOL     OW62698   6.696   4.452   4.125
20255SOL    HW162699   6.705   4.431   4.223
20255SOL    HW262700   6.670   4.369   4.076
20256SOL     OW62701   5.642   4.610   4.500
20256SOL    HW162702   5.729   4.565   4.521
20256SOL    HW262703   5.621   4.677   4.571
20257SOL     OW62704   5.667   5.597   5.285
20257SOL    HW162705   5.663   5.513   5.340
20257SOL    HW262706   5.574   5.632   5.272
20258SOL     OW62707   7.231   4.321   5.552
20258SOL    HW162708   7.228   4.405   5.498
20258SOL    HW262709   7.266   4.246   5.495
20259SOL     OW62710   6.992   4.900   4.319
20259SOL    HW162711   7.079   4.893   4.272
20259SOL    HW262712   6.933   4.965   4.271
20260SOL     OW62713   6.149   3.813   4.648
20260SOL    HW162714   6.158   3.834   4.746
20260SOL    HW262715   6.141   3.898   4.597
20261SOL     OW62716   6.583   5.185   4.183
20261SOL    HW162717   6.569   5.265   4.124
20261SOL    HW262718   6.536   5.199   4.270
20262SOL     OW62719   5.928   5.491   4.606
20262SOL    HW162720   5.962   5.397   4.605
20262SOL    HW262721   6.001   5.553   4.635
20263SOL     OW62722   7.389   4.775   4.642
20263SOL    HW162723   7.341   4.755   4.556
20263SOL    HW262724   7.322   4.793   4.714
20264SOL     OW62725   6.813   5.239   5.278
20264SOL    HW162726   6.791   5.155   5.327
20264SOL    HW262727   6.728   5.287   5.255
20265SOL     OW62728   5.883   4.677   4.044
20265SOL    HW162729   5.964   4.696   3.988
20265SOL    HW262730   5.891   4.585   4.082
20266SOL     OW62731   7.094   4.494   4.413
20266SOL    HW162732   7.073   4.459   4.504
20266SOL    HW262733   7.170   4.559   4.419
20267SOL     OW62734   6.051   4.973   5.519
20267SOL    HW162735   6.076   5.039   5.449
20267SOL    HW262736   5.953   4.958   5.518
20268SOL     OW62737   6.749   5.479   3.952
20268SOL    HW162738   6.658   5.464   3.991
20268SOL    HW262739   6.774   5.401   3.895
20269SOL     OW62740   5.848   3.944   5.222
20269SOL    HW162741   5.812   4.026   5.267
20269SOL    HW262742   5.802   3.863   5.258
20270SOL     OW62743   7.227   5.126   3.826
20270SOL    HW162744   7.180   5.214   3.812
20270SOL    HW262745   7.167   5.051   3.799
20271SOL     OW62746   6.059   5.508   4.033
20271SOL    HW162747   6.103   5.559   4.107
20271SOL    HW262748   6.127   5.455   3.984
20272SOL     OW62749   6.998   3.670   4.188
20272SOL    HW162750   6.968   3.699   4.097
20272SOL    HW262751   7.095   3.691   4.201
20273SOL     OW62752   5.767   5.559   4.935
20273SOL    HW162753   5.830   5.485   4.957
20273SOL    HW262754   5.736   5.551   4.840
20274SOL     OW62755   6.507   5.393   4.581
20274SOL    HW162756   6.602   5.363   4.585
20274SOL    HW262757   6.461   5.349   4.505
20275SOL     OW62758   5.916   4.431   4.187
20275SOL    HW162759   5.944   4.337   4.208
20275SOL    HW262760   5.821   4.445   4.215
20276SOL     OW62761   7.088   3.955   5.420
20276SOL    HW162762   7.100   3.956   5.519
20276SOL    HW262763   7.022   3.885   5.395
20277SOL     OW62764   6.401   3.958   5.473
20277SOL    HW162765   6.487   3.907   5.478
20277SOL    HW262766   6.343   3.932   5.551
20278SOL     OW62767   6.434   5.241   4.890
20278SOL    HW162768   6.412   5.196   4.804
20278SOL    HW262769   6.489   5.179   4.946
20279SOL     OW62770   6.837   4.339   5.160
20279SOL    HW162771   6.884   4.297   5.238
20279SOL    HW262772   6.879   4.428   5.140
20280SOL     OW62773   6.386   5.089   4.650
20280SOL    HW162774   6.481   5.092   4.620
20280SOL    HW262775   6.326   5.101   4.571
20281SOL     OW62776   6.539   4.273   4.653
20281SOL    HW162777   6.534   4.204   4.581
20281SOL    HW262778   6.566   4.230   4.739
20282SOL     OW62779   6.125   3.804   4.215
20282SOL    HW162780   6.042   3.797   4.270
20282SOL    HW262781   6.128   3.894   4.171
20283SOL     OW62782   7.045   4.927   3.769
20283SOL    HW162783   7.082   4.854   3.827
20283SOL    HW262784   6.964   4.966   3.812
20284SOL     OW62785   5.901   3.788   3.883
20284SOL    HW162786   5.961   3.860   3.848
20284SOL    HW262787   5.954   3.722   3.935
20285SOL     OW62788   6.568   3.855   4.277
20285SOL    HW162789   6.580   3.879   4.180
20285SOL    HW262790   6.645   3.799   4.307
20286SOL     OW62791   6.579   4.433   5.115
20286SOL    HW162792   6.502   4.370   5.124
20286SOL    HW262793   6.665   4.384   5.129
20287SOL     OW62794   6.773   5.338   4.547
20287SOL    HW162795   6.804   5.387   4.466
20287SOL    HW262796   6.815   5.378   4.628
20288SOL     OW62797   6.056   4.869   4.436
20288SOL    HW162798   5.998   4.858   4.518
20288SOL    HW262799   5.998   4.872   4.355
20289SOL     OW62800   6.824   5.515   4.334
20289SOL    HW162801   6.870   5.581   4.275
20289SOL    HW262802   6.740   5.555   4.371
20290SOL     OW62803   6.639   4.319   3.739
20290SOL    HW162804   6.547   4.353   3.718
20290SOL    HW262805   6.705   4.392   3.727
20291SOL     OW62806   5.666   4.243   5.076
20291SOL    HW162807   5.760   4.215   5.055
20291SOL    HW262808   5.668   4.323   5.136
20292SOL     OW62809   6.157   3.882   4.911
20292SOL    HW162810   6.189   3.812   4.975
20292SOL    HW262811   6.060   3.898   4.926
20293SOL     OW62812   6.490   4.042   4.470
20293SOL    HW162813   6.397   4.071   4.447
20293SOL    HW262814   6.523   3.978   4.399
20294SOL     OW62815   7.006   4.859   4.598
20294SOL    HW162816   6.952   4.779   4.624
20294SOL    HW262817   7.001   4.872   4.499
20295SOL     OW62818   7.027   4.384   4.663
20295SOL    HW162819   6.964   4.307   4.669
20295SOL    HW262820   7.098   4.375   4.733
20296SOL     OW62821   7.422   4.496   4.082
20296SOL    HW162822   7.487   4.473   4.155
20296SOL    HW262823   7.423   4.424   4.013
20297SOL     OW62824   6.076   5.169   3.877
20297SOL    HW162825   5.995   5.135   3.923
20297SOL    HW262826   6.078   5.137   3.782
20298SOL     OW62827   7.374   5.040   4.354
20298SOL    HW162828   7.472   5.034   4.371
20298SOL    HW262829   7.339   5.127   4.388
20299SOL     OW62830   7.037   4.305   3.788
20299SOL    HW162831   7.044   4.261   3.878
20299SOL    HW262832   7.129   4.319   3.751
20300SOL     OW62833   6.145   4.050   4.099
20300SOL    HW162834   6.240   4.070   4.076
20300SOL    HW262835   6.085   4.097   4.034
20301SOL     OW62836   7.344   4.953   5.239
20301SOL    HW162837   7.433   4.911   5.226
20301SOL    HW262838   7.355   5.043   5.281
20302SOL     OW62839   6.572   5.067   5.060
20302SOL    HW162840   6.490   5.035   5.108
20302SOL    HW262841   6.653   5.029   5.104
20303SOL     OW62842   7.214   5.301   5.453
20303SOL    HW162843   7.150   5.335   5.385
20303SOL    HW262844   7.299   5.272   5.409
20304SOL     OW62845   6.722   5.005   4.836
20304SOL    HW162846   6.654   5.026   4.907
20304SOL    HW262847   6.686   5.030   4.746
20305SOL     OW62848   7.182   4.823   4.813
20305SOL    HW162849   7.180   4.895   4.883
20305SOL    HW262850   7.114   4.843   4.742
20306SOL     OW62851   6.531   3.786   5.090
20306SOL    HW162852   6.544   3.771   4.992
20306SOL    HW262853   6.609   3.837   5.127
20307SOL     OW62854   6.537   4.813   5.474
20307SOL    HW162855   6.444   4.827   5.509
20307SOL    HW262856   6.538   4.731   5.416
20308SOL     OW62857   6.331   4.775   4.107
20308SOL    HW162858   6.307   4.747   4.200
20308SOL    HW262859   6.418   4.733   4.081
20309SOL     OW62860   6.816   4.118   5.010
20309SOL    HW162861   6.832   4.201   5.063
20309SOL    HW262862   6.730   4.126   4.960
20310SOL     OW62863   5.693   5.290   5.150
20310SOL    HW162864   5.625   5.329   5.088
20310SOL    HW262865   5.784   5.296   5.109
20311SOL     OW62866   5.893   4.887   4.217
20311SOL    HW162867   5.896   4.963   4.152
20311SOL    HW262868   5.884   4.801   4.168
20312SOL     OW62869   6.124   4.253   4.562
20312SOL    HW162870   6.119   4.321   4.489
20312SOL    HW262871   6.187   4.284   4.633
20313SOL     OW62872   6.841   5.086   4.180
20313SOL    HW162873   6.898   5.166   4.198
20313SOL    HW262874   6.744   5.112   4.187
20314SOL     OW62875   6.916   5.192   4.866
20314SOL    HW162876   6.956   5.196   4.957
20314SOL    HW262877   6.847   5.120   4.862
20315SOL     OW62878   7.212   4.353   4.194
20315SOL    HW162879   7.158   4.399   4.265
20315SOL    HW262880   7.274   4.419   4.152
20316SOL     OW62881   5.931   5.341   5.011
20316SOL    HW162882   5.910   5.268   4.945
20316SOL    HW262883   6.030   5.349   5.021
20317SOL     OW62884   7.211   4.555   5.416
20317SOL    HW162885   7.116   4.585   5.410
20317SOL    HW262886   7.260   4.582   5.333
20318SOL     OW62887   6.637   3.826   5.490
20318SOL    HW162888   6.674   3.917   5.473
20318SOL    HW262889   6.710   3.758   5.479
20319SOL     OW62890   6.099   3.774   5.477
20319SOL    HW162891   6.060   3.706   5.415
20319SOL    HW262892   6.032   3.846   5.495
20320SOL     OW62893   6.234   4.611   4.821
20320SOL    HW162894   6.260   4.706   4.807
20320SOL    HW262895   6.135   4.605   4.837
20321SOL     OW62896   6.882   4.623   4.696
20321SOL    HW162897   6.786   4.598   4.680
20321SOL    HW262898   6.940   4.542   4.685
20322SOL     OW62899   5.891   3.890   4.954
20322SOL    HW162900   5.868   3.923   5.046
20322SOL    HW262901   5.863   3.795   4.944
20323SOL     OW62902   5.613   5.035   5.081
20323SOL    HW162903   5.662   4.976   5.146
20323SOL    HW262904   5.634   5.131   5.101
20324SOL     OW62905   6.288   4.342   4.757
20324SOL    HW162906   6.380   4.333   4.720
20324SOL    HW262907   6.270   4.437   4.781
20325SOL     OW62908   7.377   4.696   5.586
20325SOL    HW162909   7.320   4.639   5.527
20325SOL    HW262910   7.325   4.726   5.665
20326SOL     OW62911   5.894   3.781   4.361
20326SOL    HW162912   5.856   3.871   4.383
20326SOL    HW262913   5.905   3.728   4.445
20327SOL     OW62914   7.103   4.169   4.024
20327SOL    HW162915   7.031   4.127   4.080
20327SOL    HW262916   7.150   4.239   4.077
20328SOL     OW62917   6.617   4.532   4.677
20328SOL    HW162918   6.588   4.564   4.767
20328SOL    HW262919   6.593   4.435   4.667
20329SOL     OW62920   6.587   5.265   5.493
20329SOL    HW162921   6.567   5.313   5.408
20329SOL    HW262922   6.624   5.174   5.473
20330SOL     OW62923   7.432   5.205   5.317
20330SOL    HW162924   7.450   5.231   5.222
20330SOL    HW262925   7.514   5.218   5.372
20331SOL     OW62926   7.073   3.966   3.824
20331SOL    HW162927   7.024   3.890   3.866
20331SOL    HW262928   7.093   4.036   3.893
20332SOL     OW62929   6.859   4.507   3.742
20332SOL    HW162930   6.922   4.430   3.755
20332SOL    HW262931   6.883   4.556   3.658
20333SOL     OW62932   6.648   5.089   4.585
20333SOL    HW162933   6.672   5.008   4.531
20333SOL    HW262934   6.706   5.166   4.557
20334SOL     OW62935   5.869   4.477   4.553
20334SOL    HW162936   5.955   4.485   4.502
20334SOL    HW262937   5.870   4.393   4.607
20335SOL     OW62938   5.894   4.238   4.699
20335SOL    HW162939   5.860   4.144   4.705
20335SOL    HW262940   5.980   4.239   4.648
20336SOL     OW62941   6.711   4.077   5.422
20336SOL    HW162942   6.662   4.126   5.494
20336SOL    HW262943   6.795   4.127   5.400
20337SOL     OW62944   6.737   3.931   5.192
20337SOL    HW162945   6.714   3.985   5.273
20337SOL    HW262946   6.774   3.992   5.122
20338SOL     OW62947   5.608   5.003   3.904
20338SOL    HW162948   5.516   5.032   3.877
20338SOL    HW262949   5.603   4.910   3.942
20339SOL     OW62950   5.667   5.521   4.685
20339SOL    HW162951   5.599   5.463   4.640
20339SOL    HW262952   5.757   5.506   4.643
20340SOL     OW62953   6.053   5.244   4.615
20340SOL    HW162954   6.127   5.301   4.649
20340SOL    HW262955   6.085   5.190   4.537
20341SOL     OW62956   6.499   4.596   4.912
20341SOL    HW162957   6.530   4.538   4.987
20341SOL    HW262958   6.400   4.583   4.899
20342SOL     OW62959   5.643   4.299   4.812
20342SOL    HW162960   5.726   4.275   4.762
20342SOL    HW262961   5.650   4.264   4.906
20343SOL     OW62962   5.840   4.220   5.331
20343SOL    HW162963   5.932   4.222   5.294
20343SOL    HW262964   5.794   4.306   5.311
20344SOL     OW62965   6.969   4.666   5.349
20344SOL    HW162966   6.996   4.762   5.343
20344SOL    HW262967   6.950   4.631   5.257
20345SOL     OW62968   7.227   4.347   4.843
20345SOL    HW162969   7.214   4.274   4.911
20345SOL    HW262970   7.325   4.361   4.829
20346SOL     OW62971   6.312   4.120   4.932
20346SOL    HW162972   6.252   4.039   4.928
20346SOL    HW262973   6.278   4.189   4.869
20347SOL     OW62974   6.560   5.362   5.233
20347SOL    HW162975   6.519   5.297   5.169
20347SOL    HW262976   6.552   5.455   5.195
20348SOL     OW62977   6.008   4.202   3.915
20348SOL    HW162978   6.059   4.287   3.929
20348SOL    HW262979   5.912   4.224   3.897
20349SOL     OW62980   6.845   4.778   4.920
20349SOL    HW162981   6.867   4.719   4.843
20349SOL    HW262982   6.800   4.861   4.887
20350SOL     OW62983   6.930   4.562   4.006
20350SOL    HW162984   6.856   4.533   4.067
20350SOL    HW262985   6.907   4.537   3.912
20351SOL     OW62986   7.343   5.439   4.891
20351SOL    HW162987   7.416   5.465   4.827
20351SOL    HW262988   7.310   5.347   4.868
20352SOL     OW62989   6.865   5.445   4.783
20352SOL    HW162990   6.948   5.500   4.791
20352SOL    HW262991   6.882   5.353   4.820
20353SOL     OW62992   5.696   4.973   4.808
20353SOL    HW162993   5.660   4.988   4.900
20353SOL    HW262994   5.627   4.929   4.751
20354SOL     OW62995   6.267   5.412   5.451
20354SOL    HW162996   6.190   5.476   5.442
20354SOL    HW262997   6.349   5.453   5.412
20355SOL     OW62998   6.987   5.310   4.230
20355SOL    HW162999   7.042   5.340   4.152
20355SOL    HW263000   6.924   5.383   4.256
20356SOL     OW63001   6.880   4.659   4.367
20356SOL    HW163002   6.957   4.597   4.375
20356SOL    HW263003   6.912   4.749   4.336
20357SOL     OW63004   6.327   5.004   5.170
20357SOL    HW163005   6.305   5.049   5.256
20357SOL    HW263006   6.256   5.024   5.102
20358SOL     OW63007   6.260   5.377   3.896
20358SOL    HW163008   6.282   5.405   3.802
20358SOL    HW263009   6.205   5.294   3.894
20359SOL     OW63010   7.205   5.418   5.146
20359SOL    HW163011   7.253   5.422   5.058
20359SOL    HW263012   7.227   5.500   5.199
20360SOL     OW63013   7.415   3.887   4.747
20360SOL    HW163014   7.448   3.800   4.713
20360SOL    HW263015   7.327   3.908   4.705
20361SOL     OW63016   5.807   4.031   4.438
20361SOL    HW163017   5.724   4.080   4.412
20361SOL    HW263018   5.810   4.020   4.537
20362SOL     OW63019   6.815   5.262   3.797
20362SOL    HW163020   6.821   5.171   3.838
20362SOL    HW263021   6.740   5.263   3.731
20363SOL     OW63022   6.366   4.736   5.132
20363SOL    HW163023   6.427   4.725   5.054
20363SOL    HW263024   6.352   4.833   5.151
20364SOL     OW63025   6.568   4.675   4.034
20364SOL    HW163026   6.629   4.715   3.966
20364SOL    HW263027   6.611   4.593   4.073
20365SOL     OW63028   7.076   5.364   3.782
20365SOL    HW163029   6.982   5.333   3.778
20365SOL    HW263030   7.112   5.374   3.689
20366SOL     OW63031   7.194   5.016   5.013
20366SOL    HW163032   7.255   4.988   5.087
20366SOL    HW263033   7.125   5.079   5.050
20367SOL     OW63034   6.680   4.848   4.465
20367SOL    HW163035   6.593   4.805   4.491
20367SOL    HW263036   6.741   4.778   4.427
20368SOL     OW63037   6.638   3.958   4.686
20368SOL    HW163038   6.582   3.972   4.604
20368SOL    HW263039   6.621   3.868   4.724
20369SOL     OW63040   6.199   5.159   4.144
20369SOL    HW163041   6.278   5.114   4.101
20369SOL    HW263042   6.128   5.175   4.076
20370SOL     OW63043   7.387   4.133   5.145
20370SOL    HW163044   7.453   4.205   5.125
20370SOL    HW263045   7.411   4.050   5.095
20371SOL     OW63046   5.859   5.074   4.010
20371SOL    HW163047   5.774   5.046   3.965
20371SOL    HW263048   5.837   5.132   4.089
20372SOL     OW63049   5.712   4.655   5.592
20372SOL    HW163050   5.617   4.683   5.599
20372SOL    HW263051   5.718   4.555   5.591
20373SOL     OW63052   6.312   3.902   5.218
20373SOL    HW163053   6.392   3.870   5.168
20373SOL    HW263054   6.339   3.930   5.311
20374SOL     OW63055   5.632   4.038   3.685
20374SOL    HW163056   5.542   4.050   3.643
20374SOL    HW263057   5.695   4.106   3.647
20375SOL     OW63058   6.945   4.584   5.090
20375SOL    HW163059   6.889   4.649   5.038
20375SOL    HW263060   7.036   4.580   5.051
20376SOL     OW63061   5.655   3.898   3.926
20376SOL    HW163062   5.632   3.951   3.845
20376SOL    HW263063   5.748   3.862   3.917
20377SOL     OW63064   6.831   5.012   3.915
20377SOL    HW163065   6.791   4.921   3.903
20377SOL    HW263066   6.837   5.032   4.013
20378SOL     OW63067   6.180   4.536   5.156
20378SOL    HW163068   6.247   4.610   5.148
20378SOL    HW263069   6.228   4.448   5.152
20379SOL     OW63070   7.103   5.582   4.808
20379SOL    HW163071   7.135   5.657   4.750
20379SOL    HW263072   7.181   5.530   4.842
20380SOL     OW63073   6.368   4.225   5.395
20380SOL    HW163074   6.395   4.292   5.463
20380SOL    HW263075   6.386   4.133   5.429
20381SOL     OW63076   7.063   4.920   5.335
20381SOL    HW163077   7.060   4.937   5.434
20381SOL    HW263078   7.155   4.937   5.301
20382SOL     OW63079   5.921   5.543   5.205
20382SOL    HW163080   5.829   5.573   5.231
20382SOL    HW263081   5.915   5.463   5.146
20383SOL     OW63082   7.186   4.595   4.964
20383SOL    HW163083   7.205   4.511   4.913
20383SOL    HW263084   7.186   4.673   4.902
20384SOL     OW63085   6.098   4.479   4.399
20384SOL    HW163086   6.164   4.553   4.385
20384SOL    HW263087   6.043   4.468   4.316
20385SOL     OW63088   7.320   4.108   5.403
20385SOL    HW163089   7.340   4.122   5.306
20385SOL    HW263090   7.241   4.047   5.413
20386SOL     OW63091   7.317   4.665   5.191
20386SOL    HW163092   7.309   4.764   5.202
20386SOL    HW263093   7.273   4.637   5.106
20387SOL     OW63094   6.442   5.024   3.751
20387SOL    HW163095   6.433   5.034   3.850
20387SOL    HW263096   6.476   5.110   3.712
20388SOL     OW63097   6.247   5.419   4.674
20388SOL    HW163098   6.219   5.515   4.668
20388SOL    HW263099   6.345   5.412   4.655
20389SOL     OW63100   6.451   4.729   4.574
20389SOL    HW163101   6.508   4.654   4.607
20389SOL    HW263102   6.406   4.774   4.651
20390SOL     OW63103   6.744   4.759   3.840
20390SOL    HW163104   6.706   4.802   3.758
20390SOL    HW263105   6.786   4.672   3.815
20391SOL     OW63106   7.384   5.302   4.589
20391SOL    HW163107   7.310   5.298   4.522
20391SOL    HW263108   7.361   5.246   4.668
20392SOL     OW63109   5.781   4.910   5.528
20392SOL    HW163110   5.771   4.812   5.543
20392SOL    HW263111   5.732   4.961   5.599
20393SOL     OW63112   5.749   4.999   4.427
20393SOL    HW163113   5.780   4.952   4.510
20393SOL    HW263114   5.791   4.956   4.347
20394SOL     OW63115   6.265   5.140   5.401
20394SOL    HW163116   6.315   5.106   5.481
20394SOL    HW263117   6.256   5.239   5.407
20395SOL     OW63118   7.429   3.891   5.020
20395SOL    HW163119   7.504   3.828   5.038
20395SOL    HW263120   7.415   3.899   4.922
20396SOL     OW63121   5.974   4.184   4.271
20396SOL    HW163122   6.040   4.125   4.223
20396SOL    HW263123   5.920   4.129   4.334
20397SOL     OW63124   7.266   5.191   4.813
20397SOL    HW163125   7.193   5.169   4.747
20397SOL    HW263126   7.264   5.125   4.888
20398SOL     OW63127   5.921   4.211   5.000
20398SOL    HW163128   5.993   4.164   5.052
20398SOL    HW263129   5.953   4.224   4.906
20399SOL     OW63130   6.391   5.284   4.365
20399SOL    HW163131   6.366   5.338   4.285
20399SOL    HW263132   6.318   5.219   4.386
20400SOL     OW63133   7.012   3.999   4.864
20400SOL    HW163134   7.030   3.905   4.893
20400SOL    HW263135   6.948   4.042   4.928
20401SOL     OW63136   6.585   3.722   4.821
20401SOL    HW163137   6.524   3.646   4.798
20401SOL    HW263138   6.678   3.687   4.832
20402SOL     OW63139   6.411   5.029   4.026
20402SOL    HW163140   6.388   4.936   4.057
20402SOL    HW263141   6.487   5.064   4.082
20403SOL     OW63142   6.208   5.341   5.009
20403SOL    HW163143   6.209   5.437   5.036
20403SOL    HW263144   6.292   5.319   4.958
20404SOL     OW63145   6.945   3.739   3.927
20404SOL    HW163146   6.989   3.675   3.863
20404SOL    HW263147   6.848   3.716   3.936
20405SOL     OW63148   6.915   4.206   4.414
20405SOL    HW163149   6.863   4.290   4.401
20405SOL    HW263150   6.895   4.167   4.504
20406SOL     OW63151   7.172   3.945   4.651
20406SOL    HW163152   7.113   3.976   4.725
20406SOL    HW263153   7.178   4.016   4.581
20407SOL     OW63154   5.609   4.747   4.019
20407SOL    HW163155   5.708   4.733   4.021
20407SOL    HW263156   5.562   4.659   4.025
20408SOL     OW63157   6.490   5.416   4.057
20408SOL    HW163158   6.412   5.397   3.999
20408SOL    HW263159   6.470   5.496   4.115
20409SOL     OW63160   5.771   4.025   6.613
20409SOL    HW163161   5.817   3.991   6.695
20409SOL    HW263162   5.676   3.992   6.613
20410SOL     OW63163   5.557   4.112   6.219
20410SOL    HW163164   5.474   4.135   6.269
20410SOL    HW263165   5.536   4.045   6.148
20411SOL     OW63166   6.147   4.999   6.822
20411SOL    HW163167   6.072   5.002   6.756
20411SOL    HW263168   6.168   5.092   6.853
20412SOL     OW63169   7.168   5.239   6.284
20412SOL    HW163170   7.118   5.210   6.366
20412SOL    HW263171   7.102   5.260   6.211
20413SOL     OW63172   6.709   4.460   6.242
20413SOL    HW163173   6.761   4.544   6.227
20413SOL    HW263174   6.660   4.466   6.329
20414SOL     OW63175   7.363   4.297   5.782
20414SOL    HW163176   7.317   4.314   5.695
20414SOL    HW263177   7.320   4.220   5.829
20415SOL     OW63178   6.304   4.843   6.650
20415SOL    HW163179   6.245   4.875   6.724
20415SOL    HW263180   6.350   4.921   6.608
20416SOL     OW63181   6.492   4.431   7.389
20416SOL    HW163182   6.519   4.501   7.456
20416SOL    HW263183   6.487   4.473   7.298
20417SOL     OW63184   6.296   4.656   6.212
20417SOL    HW163185   6.354   4.679   6.290
20417SOL    HW263186   6.215   4.715   6.212
20418SOL     OW63187   6.281   4.867   7.452
20418SOL    HW163188   6.343   4.934   7.492
20418SOL    HW263189   6.204   4.915   7.409
20419SOL     OW63190   5.944   5.068   6.650
20419SOL    HW163191   5.870   5.010   6.616
20419SOL    HW263192   5.981   5.122   6.575
20420SOL     OW63193   7.001   5.231   6.976
20420SOL    HW163194   7.049   5.316   6.995
20420SOL    HW263195   6.919   5.225   7.033
20421SOL     OW63196   6.094   4.048   7.044
20421SOL    HW163197   6.166   3.982   7.065
20421SOL    HW263198   6.006   4.013   7.077
20422SOL     OW63199   7.213   4.185   6.326
20422SOL    HW163200   7.190   4.219   6.235
20422SOL    HW263201   7.168   4.242   6.395
20423SOL     OW63202   5.839   5.418   6.056
20423SOL    HW163203   5.851   5.494   6.120
20423SOL    HW263204   5.902   5.428   5.979
20424SOL     OW63205   6.686   5.029   7.279
20424SOL    HW163206   6.776   4.997   7.305
20424SOL    HW263207   6.620   4.955   7.287
20425SOL     OW63208   5.956   5.197   6.179
20425SOL    HW163209   5.906   5.270   6.132
20425SOL    HW263210   5.892   5.125   6.206
20426SOL     OW63211   5.887   4.796   6.414
20426SOL    HW163212   5.905   4.699   6.428
20426SOL    HW263213   5.833   4.831   6.491
20427SOL     OW63214   6.159   5.471   7.065
20427SOL    HW163215   6.060   5.482   7.074
20427SOL    HW263216   6.199   5.557   7.033
20428SOL     OW63217   6.149   4.690   5.771
20428SOL    HW163218   6.187   4.727   5.686
20428SOL    HW263219   6.209   4.713   5.848
20429SOL     OW63220   7.302   3.800   7.117
20429SOL    HW163221   7.330   3.854   7.038
20429SOL    HW263222   7.226   3.846   7.163
20430SOL     OW63223   5.692   4.358   6.165
20430SOL    HW163224   5.649   4.270   6.186
20430SOL    HW263225   5.685   4.418   6.245
20431SOL     OW63226   7.443   5.490   5.929
20431SOL    HW163227   7.526   5.478   5.985
20431SOL    HW263228   7.446   5.581   5.886
20432SOL     OW63229   7.284   4.624   6.205
20432SOL    HW163230   7.319   4.568   6.130
20432SOL    HW263231   7.271   4.718   6.172
20433SOL     OW63232   7.275   4.857   6.037
20433SOL    HW163233   7.359   4.820   5.997
20433SOL    HW263234   7.299   4.923   6.108
20434SOL     OW63235   5.704   4.440   7.145
20434SOL    HW163236   5.761   4.494   7.207
20434SOL    HW263237   5.626   4.494   7.115
20435SOL     OW63238   6.839   4.891   7.015
20435SOL    HW163239   6.867   4.830   6.941
20435SOL    HW263240   6.916   4.905   7.078
20436SOL     OW63241   6.442   3.769   6.106
20436SOL    HW163242   6.508   3.834   6.068
20436SOL    HW263243   6.350   3.808   6.100
20437SOL     OW63244   5.844   4.723   6.867
20437SOL    HW163245   5.906   4.645   6.863
20437SOL    HW263246   5.819   4.751   6.774
20438SOL     OW63247   7.185   4.774   5.785
20438SOL    HW163248   7.117   4.702   5.800
20438SOL    HW263249   7.216   4.810   5.873
20439SOL     OW63250   6.764   5.490   7.234
20439SOL    HW163251   6.776   5.561   7.164
20439SOL    HW263252   6.780   5.401   7.193
20440SOL     OW63253   6.003   4.042   7.388
20440SOL    HW163254   6.039   4.100   7.460
20440SOL    HW263255   5.951   4.098   7.323
20441SOL     OW63256   7.049   5.148   6.508
20441SOL    HW163257   6.989   5.169   6.586
20441SOL    HW263258   7.018   5.063   6.465
20442SOL     OW63259   7.211   5.619   6.130
20442SOL    HW163260   7.202   5.548   6.060
20442SOL    HW263261   7.224   5.575   6.219
20443SOL     OW63262   6.171   4.445   5.911
20443SOL    HW163263   6.158   4.524   5.852
20443SOL    HW263264   6.084   4.421   5.955
20444SOL     OW63265   7.176   5.428   5.934
20444SOL    HW163266   7.275   5.437   5.928
20444SOL    HW263267   7.139   5.412   5.842
20445SOL     OW63268   6.396   4.278   7.046
20445SOL    HW163269   6.367   4.243   7.135
20445SOL    HW263270   6.354   4.224   6.973
20446SOL     OW63271   6.970   4.188   7.233
20446SOL    HW163272   6.975   4.232   7.323
20446SOL    HW263273   7.018   4.100   7.236
20447SOL     OW63274   6.512   4.591   7.158
20447SOL    HW163275   6.574   4.530   7.107
20447SOL    HW263276   6.455   4.641   7.093
20448SOL     OW63277   6.568   4.157   6.767
20448SOL    HW163278   6.475   4.162   6.804
20448SOL    HW263279   6.567   4.102   6.683
20449SOL     OW63280   6.625   4.418   5.981
20449SOL    HW163281   6.650   4.434   6.076
20449SOL    HW263282   6.537   4.370   5.977
20450SOL     OW63283   5.671   4.540   6.374
20450SOL    HW163284   5.766   4.536   6.405
20450SOL    HW263285   5.617   4.595   6.436
20451SOL     OW63286   5.697   5.654   7.206
20451SOL    HW163287   5.700   5.624   7.302
20451SOL    HW263288   5.602   5.654   7.175
20452SOL     OW63289   6.431   4.064   5.795
20452SOL    HW163290   6.489   4.109   5.727
20452SOL    HW263291   6.368   4.001   5.750
20453SOL     OW63292   7.238   4.333   7.420
20453SOL    HW163293   7.245   4.411   7.358
20453SOL    HW263294   7.263   4.249   7.372
20454SOL     OW63295   7.002   4.891   6.110
20454SOL    HW163296   7.095   4.883   6.074
20454SOL    HW263297   6.952   4.961   6.059
20455SOL     OW63298   6.079   3.938   6.466
20455SOL    HW163299   6.085   3.959   6.564
20455SOL    HW263300   6.077   4.024   6.414
20456SOL     OW63301   5.935   5.487   6.467
20456SOL    HW163302   5.968   5.393   6.463
20456SOL    HW263303   6.007   5.547   6.502
20457SOL     OW63304   6.767   5.239   7.115
20457SOL    HW163305   6.739   5.157   7.165
20457SOL    HW263306   6.687   5.277   7.068
20458SOL     OW63307   5.878   4.718   5.805
20458SOL    HW163308   5.976   4.705   5.790
20458SOL    HW263309   5.828   4.689   5.724
20459SOL     OW63310   7.053   4.499   6.287
20459SOL    HW163311   7.055   4.445   6.370
20459SOL    HW263312   7.141   4.545   6.274
20460SOL     OW63313   6.061   5.019   7.335
20460SOL    HW163314   6.045   5.015   7.237
20460SOL    HW263315   5.974   5.010   7.383
20461SOL     OW63316   6.696   5.532   5.729
20461SOL    HW163317   6.607   5.515   5.771
20461SOL    HW263318   6.739   5.444   5.706
20462SOL     OW63319   5.836   3.977   7.109
20462SOL    HW163320   5.823   4.067   7.150
20462SOL    HW263321   5.786   3.908   7.163
20463SOL     OW63322   7.277   5.112   5.649
20463SOL    HW163323   7.263   5.184   5.582
20463SOL    HW263324   7.202   5.046   5.643
20464SOL     OW63325   6.022   5.476   5.854
20464SOL    HW163326   6.057   5.542   5.920
20464SOL    HW263327   6.098   5.430   5.809
20465SOL     OW63328   7.012   3.866   6.009
20465SOL    HW163329   6.999   3.817   5.922
20465SOL    HW263330   7.076   3.815   6.066
20466SOL     OW63331   5.863   5.548   6.840
20466SOL    HW163332   5.868   5.516   6.934
20466SOL    HW263333   5.886   5.473   6.778
20467SOL     OW63334   6.514   5.479   6.461
20467SOL    HW163335   6.593   5.421   6.444
20467SOL    HW263336   6.443   5.460   6.393
20468SOL     OW63337   5.949   4.329   6.054
20468SOL    HW163338   5.976   4.243   6.098
20468SOL    HW263339   5.860   4.358   6.090
20469SOL     OW63340   7.083   3.924   7.265
20469SOL    HW163341   7.082   3.925   7.365
20469SOL    HW263342   7.012   3.863   7.231
20470SOL     OW63343   6.239   3.877   5.682
20470SOL    HW163344   6.223   3.813   5.757
20470SOL    HW263345   6.190   3.847   5.600
20471SOL     OW63346   6.386   3.940   7.360
20471SOL    HW163347   6.481   3.909   7.358
20471SOL    HW263348   6.336   3.890   7.431
20472SOL     OW63349   6.448   5.190   6.812
20472SOL    HW163350   6.427   5.160   6.719
20472SOL    HW263351   6.506   5.121   6.856
20473SOL     OW63352   6.893   4.333   7.011
20473SOL    HW163353   6.930   4.288   7.092
20473SOL    HW263354   6.949   4.413   6.988
20474SOL     OW63355   6.409   5.083   6.560
20474SOL    HW163356   6.502   5.085   6.522
20474SOL    HW263357   6.349   5.140   6.504
20475SOL     OW63358   6.476   4.241   6.445
20475SOL    HW163359   6.463   4.220   6.348
20475SOL    HW263360   6.496   4.157   6.495
20476SOL     OW63361   6.194   3.876   6.087
20476SOL    HW163362   6.165   3.920   6.172
20476SOL    HW263363   6.165   3.932   6.009
20477SOL     OW63364   7.064   4.943   5.611
20477SOL    HW163365   7.107   4.872   5.667
20477SOL    HW263366   6.978   4.972   5.654
20478SOL     OW63367   5.896   3.769   5.754
20478SOL    HW163368   5.910   3.847   5.694
20478SOL    HW263369   5.983   3.740   5.793
20479SOL     OW63370   6.583   3.978   6.006
20479SOL    HW163371   6.528   4.008   5.929
20479SOL    HW263372   6.678   4.005   5.993
20480SOL     OW63373   6.630   4.416   6.987
20480SOL    HW163374   6.562   4.345   7.009
20480SOL    HW263375   6.722   4.378   6.996
20481SOL     OW63376   6.750   5.350   6.409
20481SOL    HW163377   6.786   5.398   6.329
20481SOL    HW263378   6.800   5.382   6.491
20482SOL     OW63379   6.075   4.813   6.211
20482SOL    HW163380   6.013   4.812   6.289
20482SOL    HW263381   6.027   4.849   6.131
20483SOL     OW63382   6.826   5.538   6.212
20483SOL    HW163383   6.878   5.597   6.149
20483SOL    HW263384   6.756   5.593   6.258
20484SOL     OW63385   6.600   4.211   5.634
20484SOL    HW163386   6.554   4.295   5.605
20484SOL    HW263387   6.675   4.233   5.696
20485SOL     OW63388   5.722   4.278   6.928
20485SOL    HW163389   5.818   4.257   6.908
20485SOL    HW263390   5.716   4.344   7.003
20486SOL     OW63391   6.119   3.974   6.737
20486SOL    HW163392   6.176   3.892   6.721
20486SOL    HW263393   6.038   3.948   6.789
20487SOL     OW63394   6.463   4.155   6.188
20487SOL    HW163395   6.417   4.216   6.123
20487SOL    HW263396   6.512   4.084   6.138
20488SOL     OW63397   6.601   3.800   6.357
20488SOL    HW163398   6.556   3.791   6.267
20488SOL    HW263399   6.574   3.723   6.415
20489SOL     OW63400   6.965   4.927   6.382
20489SOL    HW163401   6.938   4.838   6.418
20489SOL    HW263402   6.984   4.919   6.284
20490SOL     OW63403   7.055   4.330   6.515
20490SOL    HW163404   7.011   4.245   6.544
20490SOL    HW263405   7.117   4.362   6.587
20491SOL     OW63406   7.373   4.471   5.990
20491SOL    HW163407   7.448   4.430   6.042
20491SOL    HW263408   7.362   4.423   5.903
20492SOL     OW63409   6.102   5.125   5.749
20492SOL    HW163410   6.016   5.118   5.799
20492SOL    HW263411   6.100   5.062   5.671
20493SOL     OW63412   7.330   5.015   6.243
20493SOL    HW163413   7.366   4.976   6.328
20493SOL    HW263414   7.276   5.096   6.263
20494SOL     OW63415   6.958   4.322   5.603
20494SOL    HW163416   6.911   4.298   5.688
20494SOL    HW263417   7.057   4.315   5.616
20495SOL     OW63418   6.091   4.013   5.877
20495SOL    HW163419   6.140   3.981   5.796
20495SOL    HW263420   6.040   4.096   5.854
20496SOL     OW63421   7.325   4.950   7.113
20496SOL    HW163422   7.415   4.907   7.110
20496SOL    HW263423   7.333   5.043   7.151
20497SOL     OW63424   6.598   4.991   6.926
20497SOL    HW163425   6.518   4.976   6.984
20497SOL    HW263426   6.680   4.960   6.974
20498SOL     OW63427   7.163   5.320   7.261
20498SOL    HW163428   7.141   5.373   7.179
20498SOL    HW263429   7.246   5.267   7.245
20499SOL     OW63430   6.753   4.967   6.700
20499SOL    HW163431   6.687   4.973   6.775
20499SOL    HW263432   6.712   5.002   6.616
20500SOL     OW63433   6.512   3.814   6.949
20500SOL    HW163434   6.529   3.805   6.851
20500SOL    HW263435   6.586   3.867   6.991
20501SOL     OW63436   6.522   4.812   7.318
20501SOL    HW163437   6.430   4.828   7.354
20501SOL    HW263438   6.521   4.733   7.257
20502SOL     OW63439   6.350   4.728   5.947
20502SOL    HW163440   6.337   4.694   6.040
20502SOL    HW263441   6.411   4.667   5.897
20503SOL     OW63442   6.026   4.510   6.850
20503SOL    HW163443   6.097   4.515   6.920
20503SOL    HW263444   5.994   4.416   6.843
20504SOL     OW63445   6.822   4.130   6.846
20504SOL    HW163446   6.854   4.206   6.901
20504SOL    HW263447   6.728   4.147   6.817
20505SOL     OW63448   5.658   5.266   6.919
20505SOL    HW163449   5.615   5.335   6.861
20505SOL    HW263450   5.756   5.266   6.905
20506SOL     OW63451   5.908   4.904   6.004
20506SOL    HW163452   5.894   4.989   5.954
20506SOL    HW263453   5.902   4.827   5.941
20507SOL     OW63454   6.109   4.225   6.438
20507SOL    HW163455   6.127   4.282   6.357
20507SOL    HW263456   6.173   4.249   6.511
20508SOL     OW63457   6.845   5.093   5.998
20508SOL    HW163458   6.892   5.175   6.031
20508SOL    HW263459   6.752   5.092   6.033
20509SOL     OW63460   6.900   5.197   6.729
20509SOL    HW163461   6.938   5.208   6.821
20509SOL    HW263462   6.848   5.112   6.724
20510SOL     OW63463   7.153   4.317   6.090
20510SOL    HW163464   7.087   4.373   6.140
20510SOL    HW263465   7.224   4.376   6.052
20511SOL     OW63466   5.924   5.238   6.861
20511SOL    HW163467   5.919   5.175   6.784
20511SOL    HW263468   6.020   5.257   6.882
20512SOL     OW63469   6.093   4.368   7.227
20512SOL    HW163470   6.132   4.422   7.153
20512SOL    HW263471   6.163   4.307   7.265
20513SOL     OW63472   7.241   4.555   7.251
20513SOL    HW163473   7.143   4.577   7.249
20513SOL    HW263474   7.282   4.579   7.164
20514SOL     OW63475   6.650   3.863   7.355
20514SOL    HW163476   6.676   3.954   7.321
20514SOL    HW263477   6.716   3.795   7.320
20515SOL     OW63478   6.048   3.778   7.409
20515SOL    HW163479   6.004   3.718   7.342
20515SOL    HW263480   6.031   3.873   7.384
20516SOL     OW63481   6.164   4.592   6.623
20516SOL    HW163482   6.209   4.681   6.630
20516SOL    HW263483   6.115   4.574   6.708
20517SOL     OW63484   6.865   4.544   6.583
20517SOL    HW163485   6.773   4.519   6.551
20517SOL    HW263486   6.929   4.470   6.560
20518SOL     OW63487   6.793   4.280   5.817
20518SOL    HW163488   6.818   4.197   5.868
20518SOL    HW263489   6.735   4.338   5.874
20519SOL     OW63490   5.876   3.913   6.844
20519SOL    HW163491   5.860   3.945   6.937
20519SOL    HW263492   5.839   3.821   6.833
20520SOL     OW63493   5.650   5.002   6.841
20520SOL    HW163494   5.653   4.942   6.921
20520SOL    HW263495   5.643   5.097   6.871
20521SOL     OW63496   6.287   4.346   6.617
20521SOL    HW163497   6.355   4.326   6.546
20521SOL    HW263498   6.249   4.437   6.602
20522SOL     OW63499   7.359   4.708   7.453
20522SOL    HW163500   7.314   4.649   7.386
20522SOL    HW263501   7.294   4.730   7.526
20523SOL     OW63502   7.212   4.109   5.911
20523SOL    HW163503   7.255   4.036   5.965
20523SOL    HW263504   7.169   4.174   5.973
20524SOL     OW63505   6.597   4.476   6.506
20524SOL    HW163506   6.575   4.495   6.601
20524SOL    HW263507   6.559   4.387   6.480
20525SOL     OW63508   6.565   5.249   7.389
20525SOL    HW163509   6.535   5.317   7.321
20525SOL    HW263510   6.601   5.169   7.341
20526SOL     OW63511   7.400   5.205   7.180
20526SOL    HW163512   7.419   5.244   7.090
20526SOL    HW263513   7.480   5.216   7.239
20527SOL     OW63514   5.888   4.538   7.332
20527SOL    HW163515   5.868   4.485   7.415
20527SOL    HW263516   5.973   4.505   7.291
20528SOL     OW63517   7.117   3.956   5.691
20528SOL    HW163518   7.062   3.880   5.725
20528SOL    HW263519   7.143   4.016   5.767
20529SOL     OW63520   6.872   4.577   5.583
20529SOL    HW163521   6.890   4.479   5.584
20529SOL    HW263522   6.900   4.615   5.495
20530SOL     OW63523   6.663   5.085   6.464
20530SOL    HW163524   6.683   5.017   6.394
20530SOL    HW263525   6.704   5.173   6.438
20531SOL     OW63526   5.923   4.534   6.490
20531SOL    HW163527   6.016   4.554   6.523
20531SOL    HW263528   5.899   4.440   6.517
20532SOL     OW63529   5.868   4.270   6.550
20532SOL    HW163530   5.824   4.183   6.575
20532SOL    HW263531   5.952   4.252   6.500
20533SOL     OW63532   6.712   4.109   7.261
20533SOL    HW163533   6.670   4.151   7.341
20533SOL    HW263534   6.803   4.147   7.247
20534SOL     OW63535   6.730   3.953   7.037
20534SOL    HW163536   6.712   4.014   7.114
20534SOL    HW263537   6.771   4.005   6.962
20535SOL     OW63538   5.619   4.986   5.733
20535SOL    HW163539   5.539   5.018   5.682
20535SOL    HW263540   5.594   4.906   5.786
20536SOL     OW63541   5.670   5.497   6.538
20536SOL    HW163542   5.625   5.419   6.494
20536SOL    HW263543   5.767   5.497   6.515
20537SOL     OW63544   6.077   5.245   6.480
20537SOL    HW163545   6.147   5.297   6.529
20537SOL    HW263546   6.112   5.219   6.389
20538SOL     OW63547   6.505   4.506   6.758
20538SOL    HW163548   6.559   4.483   6.838
20538SOL    HW263549   6.425   4.446   6.753
20539SOL     OW63550   5.621   4.334   6.681
20539SOL    HW163551   5.698   4.330   6.617
20539SOL    HW263552   5.654   4.316   6.774
20540SOL     OW63553   5.858   4.228   7.234
20540SOL    HW163554   5.947   4.272   7.224
20540SOL    HW263555   5.786   4.288   7.199
20541SOL     OW63556   6.983   4.636   7.210
20541SOL    HW163557   6.998   4.735   7.211
20541SOL    HW263558   6.976   4.604   7.115
20542SOL     OW63559   6.388   4.289   5.958
20542SOL    HW163560   6.386   4.211   5.896
20542SOL    HW263561   6.308   4.347   5.941
20543SOL     OW63562   7.209   4.404   6.721
20543SOL    HW163563   7.168   4.437   6.805
20543SOL    HW263564   7.308   4.398   6.732
20544SOL     OW63565   5.815   5.265   7.279
20544SOL    HW163566   5.827   5.332   7.353
20544SOL    HW263567   5.820   5.172   7.317
20545SOL     OW63568   6.300   4.166   6.818
20545SOL    HW163569   6.235   4.091   6.805
20545SOL    HW263570   6.287   4.234   6.746
20546SOL     OW63571   6.555   5.358   6.999
20546SOL    HW163572   6.511   5.305   6.927
20546SOL    HW263573   6.546   5.456   6.979
20547SOL     OW63574   5.670   4.818   7.052
20547SOL    HW163575   5.700   4.807   7.146
20547SOL    HW263576   5.739   4.783   6.990
20548SOL     OW63577   6.890   4.736   6.778
20548SOL    HW163578   6.881   4.665   6.708
20548SOL    HW263579   6.848   4.821   6.745
20549SOL     OW63580   6.988   4.597   5.829
20549SOL    HW163581   6.934   4.545   5.896
20549SOL    HW263582   6.944   4.592   5.740
20550SOL     OW63583   7.342   5.456   6.746
20550SOL    HW163584   7.413   5.483   6.681
20550SOL    HW263585   7.307   5.366   6.720
20551SOL     OW63586   6.871   5.453   6.635
20551SOL    HW163587   6.959   5.501   6.638
20551SOL    HW263588   6.881   5.363   6.678
20552SOL     OW63589   5.729   4.876   6.619
20552SOL    HW163590   5.697   4.926   6.699
20552SOL    HW263591   5.651   4.830   6.575
20553SOL     OW63592   6.241   5.417   7.322
20553SOL    HW163593   6.171   5.473   7.368
20553SOL    HW263594   6.231   5.427   7.223
20554SOL     OW63595   7.353   3.914   6.047
20554SOL    HW163596   7.401   3.887   5.963
20554SOL    HW263597   7.303   3.836   6.083
20555SOL     OW63598   6.977   5.321   6.095
20555SOL    HW163599   7.045   5.359   6.032
20555SOL    HW263600   6.920   5.394   6.131
20556SOL     OW63601   5.820   5.471   7.474
20556SOL    HW163602   5.759   5.398   7.505
20556SOL    HW263603   5.823   5.544   7.542
20557SOL     OW63604   6.863   4.684   6.220
20557SOL    HW163605   6.931   4.617   6.249
20557SOL    HW263606   6.907   4.756   6.167
20558SOL     OW63607   6.342   4.974   7.034
20558SOL    HW163608   6.331   5.037   7.111
20558SOL    HW263609   6.266   4.986   6.970
20559SOL     OW63610   6.228   5.362   5.718
20559SOL    HW163611   6.246   5.373   5.620
20559SOL    HW263612   6.194   5.270   5.736
20560SOL     OW63613   7.146   5.456   7.016
20560SOL    HW163614   7.216   5.451   6.944
20560SOL    HW263615   7.129   5.552   7.038
20561SOL     OW63616   7.421   3.886   6.616
20561SOL    HW163617   7.445   3.795   6.582
20561SOL    HW263618   7.335   3.916   6.574
20562SOL     OW63619   5.793   4.025   6.331
20562SOL    HW163620   5.704   4.058   6.297
20562SOL    HW263621   5.791   4.020   6.430
20563SOL     OW63622   6.809   5.287   5.655
20563SOL    HW163623   6.819   5.194   5.690
20563SOL    HW263624   6.731   5.290   5.592
20564SOL     OW63625   6.374   4.715   6.961
20564SOL    HW163626   6.417   4.712   6.871
20564SOL    HW263627   6.363   4.811   6.989
20565SOL     OW63628   6.531   4.590   5.790
20565SOL    HW163629   6.596   4.661   5.763
20565SOL    HW263630   6.574   4.529   5.858
20566SOL     OW63631   7.064   5.396   5.681
20566SOL    HW163632   6.975   5.353   5.668
20566SOL    HW263633   7.125   5.368   5.606
20567SOL     OW63634   5.986   5.021   7.074
20567SOL    HW163635   5.945   5.102   7.032
20567SOL    HW263636   6.002   4.952   7.003
20568SOL     OW63637   7.216   5.080   6.895
20568SOL    HW163638   7.254   5.026   6.971
20568SOL    HW263639   7.133   5.126   6.927
20569SOL     OW63640   6.637   4.861   6.282
20569SOL    HW163641   6.571   4.809   6.337
20569SOL    HW263642   6.713   4.801   6.258
20570SOL     OW63643   6.546   3.992   6.554
20570SOL    HW163644   6.552   3.952   6.462
20570SOL    HW263645   6.562   3.921   6.622
20571SOL     OW63646   7.444   4.108   7.062
20571SOL    HW163647   7.481   4.195   7.030
20571SOL    HW263648   7.438   4.044   6.985
20572SOL     OW63649   5.839   5.109   5.837
20572SOL    HW163650   5.755   5.063   5.810
20572SOL    HW263651   5.843   5.200   5.795
20573SOL     OW63652   5.730   4.763   7.311
20573SOL    HW163653   5.649   4.747   7.368
20573SOL    HW263654   5.796   4.689   7.325
20574SOL     OW63655   6.285   3.849   7.112
20574SOL    HW163656   6.362   3.838   7.049
20574SOL    HW263657   6.318   3.885   7.199
20575SOL     OW63658   5.690   4.050   5.477
20575SOL    HW163659   5.591   4.061   5.468
20575SOL    HW263660   5.735   4.125   5.429
20576SOL     OW63661   7.035   4.567   6.943
20576SOL    HW163662   6.980   4.622   6.881
20576SOL    HW263663   7.124   4.610   6.956
20577SOL     OW63664   6.825   5.013   5.733
20577SOL    HW163665   6.776   4.926   5.727
20577SOL    HW263666   6.835   5.040   5.829
20578SOL     OW63667   6.230   4.496   7.027
20578SOL    HW163668   6.278   4.582   7.008
20578SOL    HW263669   6.297   4.422   7.032
20579SOL     OW63670   7.112   5.589   6.642
20579SOL    HW163671   7.145   5.648   6.568
20579SOL    HW263672   7.190   5.542   6.684
20580SOL     OW63673   6.319   4.216   7.302
20580SOL    HW163674   6.378   4.279   7.353
20580SOL    HW263675   6.339   4.122   7.329
20581SOL     OW63676   7.052   4.899   7.205
20581SOL    HW163677   7.037   4.920   7.302
20581SOL    HW263678   7.146   4.922   7.180
20582SOL     OW63679   5.878   5.473   7.101
20582SOL    HW163680   5.813   5.541   7.135
20582SOL    HW263681   5.863   5.386   7.148
20583SOL     OW63682   6.840   4.074   5.981
20583SOL    HW163683   6.908   4.001   5.990
20583SOL    HW263684   6.843   4.132   6.062
20584SOL     OW63685   6.165   4.408   6.244
20584SOL    HW163686   6.219   4.491   6.230
20584SOL    HW263687   6.099   4.399   6.169
20585SOL     OW63688   7.301   4.098   7.292
20585SOL    HW163689   7.352   4.104   7.207
20585SOL    HW263690   7.226   4.033   7.282
20586SOL     OW63691   7.279   4.687   6.980
20586SOL    HW163692   7.285   4.778   7.021
20586SOL    HW263693   7.335   4.684   6.897
20587SOL     OW63694   6.414   5.088   5.632
20587SOL    HW163695   6.432   5.058   5.726
20587SOL    HW263696   6.474   5.165   5.610
20588SOL     OW63697   6.266   5.408   6.584
20588SOL    HW163698   6.219   5.495   6.576
20588SOL    HW263699   6.364   5.421   6.568
20589SOL     OW63700   6.460   4.713   6.435
20589SOL    HW163701   6.507   4.630   6.462
20589SOL    HW263702   6.406   4.747   6.512
20590SOL     OW63703   6.709   4.772   5.677
20590SOL    HW163704   6.641   4.791   5.607
20590SOL    HW263705   6.771   4.700   5.645
20591SOL     OW63706   7.378   5.320   6.440
20591SOL    HW163707   7.314   5.300   6.367
20591SOL    HW263708   7.354   5.267   6.522
20592SOL     OW63709   5.795   5.013   7.402
20592SOL    HW163710   5.777   4.926   7.355
20592SOL    HW263711   5.737   5.020   7.483
20593SOL     OW63712   5.785   4.983   6.234
20593SOL    HW163713   5.812   4.918   6.305
20593SOL    HW263714   5.817   4.950   6.145
20594SOL     OW63715   6.284   5.149   7.240
20594SOL    HW163716   6.204   5.102   7.278
20594SOL    HW263717   6.287   5.243   7.274
20595SOL     OW63718   7.440   3.892   6.889
20595SOL    HW163719   7.507   3.819   6.901
20595SOL    HW263720   7.420   3.902   6.791
20596SOL     OW63721   5.987   4.080   6.153
20596SOL    HW163722   5.975   4.024   6.071
20596SOL    HW263723   5.917   4.057   6.220
20597SOL     OW63724   7.262   5.211   6.666
20597SOL    HW163725   7.187   5.185   6.604
20597SOL    HW263726   7.255   5.158   6.751
20598SOL     OW63727   5.984   4.232   6.868
20598SOL    HW163728   6.032   4.179   6.937
20598SOL    HW263729   5.997   4.190   6.778
20599SOL     OW63730   6.333   5.432   6.274
20599SOL    HW163731   6.340   5.485   6.189
20599SOL    HW263732   6.278   5.350   6.257
20600SOL     OW63733   6.955   4.086   6.611
20600SOL    HW163734   6.898   4.025   6.557
20600SOL    HW263735   6.915   4.098   6.702
20601SOL     OW63736   6.600   3.758   6.693
20601SOL    HW163737   6.536   3.703   6.640
20601SOL    HW263738   6.691   3.718   6.687
20602SOL     OW63739   6.457   4.973   5.874
20602SOL    HW163740   6.410   4.886   5.887
20602SOL    HW263741   6.487   5.008   5.963
20603SOL     OW63742   6.196   5.254   6.904
20603SOL    HW163743   6.193   5.328   6.971
20603SOL    HW263744   6.290   5.245   6.870
20604SOL     OW63745   6.980   3.725   5.777
20604SOL    HW163746   7.030   3.662   5.719
20604SOL    HW263747   6.901   3.679   5.817
20605SOL     OW63748   7.189   3.978   6.510
20605SOL    HW163749   7.114   4.016   6.563
20605SOL    HW263750   7.209   4.038   6.432
20606SOL     OW63751   5.613   4.747   5.890
20606SOL    HW163752   5.711   4.748   5.870
20606SOL    HW263753   5.585   4.655   5.916
20607SOL     OW63754   6.451   5.479   5.831
20607SOL    HW163755   6.377   5.424   5.792
20607SOL    HW263756   6.422   5.515   5.920
20608SOL     OW63757   5.832   4.324   7.500
20608SOL    HW163758   5.742   4.341   7.540
20608SOL    HW263759   5.822   4.277   7.413
20609SOL     OW63760   5.820   4.032   8.419
20609SOL    HW163761   5.854   4.001   8.508
20609SOL    HW263762   5.733   3.987   8.400
20610SOL     OW63763   5.575   4.158   8.091
20610SOL    HW163764   5.498   4.185   8.148
20610SOL    HW263765   5.551   4.076   8.039
20611SOL     OW63766   6.117   5.084   8.733
20611SOL    HW163767   6.042   5.087   8.667
20611SOL    HW263768   6.146   5.177   8.755
20612SOL     OW63769   7.165   5.258   8.140
20612SOL    HW163770   7.126   5.207   8.217
20612SOL    HW263771   7.097   5.264   8.067
20613SOL     OW63772   6.697   4.445   8.124
20613SOL    HW163773   6.751   4.526   8.099
20613SOL    HW263774   6.667   4.452   8.219
20614SOL     OW63775   7.383   4.324   7.651
20614SOL    HW163776   7.335   4.338   7.564
20614SOL    HW263777   7.338   4.253   7.703
20615SOL     OW63778   6.236   4.880   8.595
20615SOL    HW163779   6.184   4.946   8.649
20615SOL    HW263780   6.290   4.928   8.526
20616SOL     OW63781   6.490   4.435   9.206
20616SOL    HW163782   6.504   4.500   9.281
20616SOL    HW263783   6.491   4.484   9.119
20617SOL     OW63784   6.288   4.878   9.262
20617SOL    HW163785   6.339   4.954   9.301
20617SOL    HW263786   6.200   4.912   9.226
20618SOL     OW63787   5.924   5.124   8.547
20618SOL    HW163788   5.860   5.053   8.520
20618SOL    HW263789   5.961   5.169   8.466
20619SOL     OW63790   7.018   5.229   8.801
20619SOL    HW163791   7.071   5.314   8.808
20619SOL    HW263792   6.945   5.230   8.870
20620SOL     OW63793   6.098   4.082   8.879
20620SOL    HW163794   6.178   4.025   8.896
20620SOL    HW263795   6.017   4.037   8.917
20621SOL     OW63796   5.823   5.455   7.929
20621SOL    HW163797   5.830   5.532   7.993
20621SOL    HW263798   5.893   5.464   7.858
20622SOL     OW63799   6.684   5.053   9.157
20622SOL    HW163800   6.709   5.062   9.254
20622SOL    HW263801   6.633   4.968   9.144
20623SOL     OW63802   5.905   5.200   7.964
20623SOL    HW163803   5.867   5.293   7.967
20623SOL    HW263804   5.858   5.142   8.031
20624SOL     OW63805   5.889   4.817   8.299
20624SOL    HW163806   5.888   4.717   8.305
20624SOL    HW263807   5.854   4.856   8.384
20625SOL     OW63808   6.144   5.598   8.844
20625SOL    HW163809   6.065   5.566   8.897
20625SOL    HW263810   6.200   5.659   8.901
20626SOL     OW63811   6.191   4.697   7.665
20626SOL    HW163812   6.216   4.741   7.579
20626SOL    HW263813   6.246   4.735   7.739
20627SOL     OW63814   7.158   3.878   8.852
20627SOL    HW163815   7.252   3.899   8.825
20627SOL    HW263816   7.142   3.911   8.944
20628SOL     OW63817   5.693   4.404   8.016
20628SOL    HW163818   5.656   4.314   8.039
20628SOL    HW263819   5.685   4.465   8.095
20629SOL     OW63820   7.436   5.511   7.759
20629SOL    HW163821   7.506   5.499   7.829
20629SOL    HW263822   7.446   5.601   7.717
20630SOL     OW63823   5.658   5.287   7.578
20630SOL    HW163824   5.636   5.190   7.581
20630SOL    HW263825   5.622   5.333   7.659
20631SOL     OW63826   7.278   4.670   8.126
20631SOL    HW163827   7.369   4.631   8.114
20631SOL    HW263828   7.257   4.732   8.050
20632SOL     OW63829   7.247   4.845   7.903
20632SOL    HW163830   7.330   4.812   7.857
20632SOL    HW263831   7.270   4.927   7.957
20633SOL     OW63832   5.708   4.479   9.017
20633SOL    HW163833   5.763   4.554   9.053
20633SOL    HW263834   5.628   4.516   8.969
20634SOL     OW63835   6.200   5.094   8.196
20634SOL    HW163836   6.170   5.000   8.183
20634SOL    HW263837   6.193   5.144   8.110
20635SOL     OW63838   6.843   4.941   8.850
20635SOL    HW163839   6.873   4.885   8.773
20635SOL    HW263840   6.921   4.961   8.909
20636SOL     OW63841   6.446   3.757   7.958
20636SOL    HW163842   6.488   3.844   7.930
20636SOL    HW263843   6.348   3.772   7.972
20637SOL     OW63844   5.847   4.772   8.773
20637SOL    HW163845   5.891   4.682   8.774
20637SOL    HW263846   5.834   4.802   8.678
20638SOL     OW63847   7.153   4.769   7.644
20638SOL    HW163848   7.077   4.706   7.660
20638SOL    HW263849   7.185   4.805   7.732
20639SOL     OW63850   6.763   5.507   9.073
20639SOL    HW163851   6.770   5.577   9.002
20639SOL    HW263852   6.772   5.417   9.031
20640SOL     OW63853   5.979   4.001   9.347
20640SOL    HW163854   6.020   4.078   9.396
20640SOL    HW263855   5.887   4.026   9.317
20641SOL     OW63856   7.066   5.113   8.349
20641SOL    HW163857   7.007   5.146   8.422
20641SOL    HW263858   7.036   5.021   8.321
20642SOL     OW63859   7.220   5.503   8.014
20642SOL    HW163860   7.206   5.474   7.919
20642SOL    HW263861   7.209   5.425   8.075
20643SOL     OW63862   6.176   4.427   7.737
20643SOL    HW163863   6.190   4.520   7.703
20643SOL    HW263864   6.095   4.425   7.796
20644SOL     OW63865   6.900   4.133   8.403
20644SOL    HW163866   6.825   4.071   8.382
20644SOL    HW263867   6.952   4.097   8.480
20645SOL     OW63868   7.178   5.409   7.761
20645SOL    HW163869   7.271   5.444   7.749
20645SOL    HW263870   7.138   5.389   7.671
20646SOL     OW63871   6.340   4.296   8.861
20646SOL    HW163872   6.312   4.256   8.949
20646SOL    HW263873   6.309   4.237   8.786
20647SOL     OW63874   6.927   4.194   9.104
20647SOL    HW163875   6.942   4.259   9.178
20647SOL    HW263876   7.006   4.133   9.097
20648SOL     OW63877   6.510   4.608   8.980
20648SOL    HW163878   6.553   4.535   8.927
20648SOL    HW263879   6.456   4.666   8.919
20649SOL     OW63880   6.548   4.153   8.596
20649SOL    HW163881   6.451   4.147   8.620
20649SOL    HW263882   6.556   4.175   8.498
20650SOL     OW63883   6.636   4.412   7.859
20650SOL    HW163884   6.658   4.416   7.957
20650SOL    HW263885   6.547   4.368   7.847
20651SOL     OW63886   5.655   4.582   8.235
20651SOL    HW163887   5.741   4.557   8.281
20651SOL    HW263888   5.614   4.661   8.281
20652SOL     OW63889   5.708   5.637   9.073
20652SOL    HW163890   5.733   5.584   9.155
20652SOL    HW263891   5.612   5.665   9.080
20653SOL     OW63892   6.446   4.071   7.656
20653SOL    HW163893   6.506   4.115   7.589
20653SOL    HW263894   6.393   3.999   7.611
20654SOL     OW63895   7.258   4.385   9.281
20654SOL    HW163896   7.304   4.469   9.250
20654SOL    HW263897   7.257   4.318   9.207
20655SOL     OW63898   6.974   4.885   7.993
20655SOL    HW163899   7.064   4.878   7.950
20655SOL    HW263900   6.920   4.955   7.946
20656SOL     OW63901   6.140   3.818   8.363
20656SOL    HW163902   6.147   3.847   8.459
20656SOL    HW263903   6.147   3.898   8.304
20657SOL     OW63904   6.575   5.202   7.932
20657SOL    HW163905   6.556   5.280   7.873
20657SOL    HW263906   6.541   5.221   8.025
20658SOL     OW63907   5.924   5.517   8.332
20658SOL    HW163908   5.956   5.422   8.332
20658SOL    HW263909   5.998   5.578   8.360
20659SOL     OW63910   7.353   4.745   8.384
20659SOL    HW163911   7.305   4.731   8.296
20659SOL    HW263912   7.285   4.765   8.455
20660SOL     OW63913   6.781   5.242   8.965
20660SOL    HW163914   6.774   5.178   9.042
20660SOL    HW263915   6.721   5.211   8.891
20661SOL     OW63916   5.931   4.655   7.761
20661SOL    HW163917   6.017   4.667   7.711
20661SOL    HW263918   5.927   4.562   7.798
20662SOL     OW63919   7.064   4.502   8.154
20662SOL    HW163920   7.055   4.459   8.243
20662SOL    HW263921   7.143   4.564   8.155
20663SOL     OW63922   6.049   5.004   9.189
20663SOL    HW163923   6.042   4.971   9.095
20663SOL    HW263924   5.958   5.009   9.230
20664SOL     OW63925   6.744   5.457   7.722
20664SOL    HW163926   6.648   5.450   7.747
20664SOL    HW263927   6.766   5.389   7.653
20665SOL     OW63928   5.843   3.988   8.934
20665SOL    HW163929   5.791   4.072   8.947
20665SOL    HW263930   5.801   3.914   8.986
20666SOL     OW63931   7.205   5.104   7.556
20666SOL    HW163932   7.170   5.197   7.549
20666SOL    HW263933   7.137   5.040   7.520
20667SOL     OW63934   6.048   5.502   7.773
20667SOL    HW163935   6.094   5.552   7.846
20667SOL    HW263936   6.116   5.450   7.720
20668SOL     OW63937   6.953   3.827   7.905
20668SOL    HW163938   6.935   3.819   7.807
20668SOL    HW263939   7.048   3.800   7.924
20669SOL     OW63940   5.765   5.575   8.661
20669SOL    HW163941   5.824   5.499   8.689
20669SOL    HW263942   5.727   5.556   8.571
20670SOL     OW63943   6.524   5.421   8.337
20670SOL    HW163944   6.616   5.380   8.340
20670SOL    HW263945   6.470   5.376   8.265
20671SOL     OW63946   5.943   4.399   7.887
20671SOL    HW163947   5.981   4.310   7.912
20671SOL    HW263948   5.852   4.410   7.929
20672SOL     OW63949   7.090   3.958   9.112
20672SOL    HW163950   7.110   3.969   9.209
20672SOL    HW263951   7.016   3.892   9.100
20673SOL     OW63952   6.258   3.812   7.573
20673SOL    HW163953   6.291   3.723   7.605
20673SOL    HW263954   6.180   3.799   7.512
20674SOL     OW63955   6.395   3.978   9.190
20674SOL    HW163956   6.455   3.899   9.178
20674SOL    HW263957   6.394   4.004   9.287
20675SOL     OW63958   6.412   5.228   8.653
20675SOL    HW163959   6.390   5.179   8.569
20675SOL    HW263960   6.490   5.184   8.698
20676SOL     OW63961   6.842   4.305   8.872
20676SOL    HW163962   6.869   4.263   8.959
20676SOL    HW263963   6.900   4.384   8.853
20677SOL     OW63964   6.361   5.063   8.426
20677SOL    HW163965   6.453   5.062   8.386
20677SOL    HW263966   6.294   5.075   8.353
20678SOL     OW63967   6.569   4.197   8.322
20678SOL    HW163968   6.521   4.204   8.235
20678SOL    HW263969   6.616   4.109   8.328
20679SOL     OW63970   7.004   4.929   7.475
20679SOL    HW163971   7.054   4.864   7.531
20679SOL    HW263972   6.919   4.955   7.523
20680SOL     OW63973   5.897   3.817   7.629
20680SOL    HW163974   5.951   3.873   7.691
20680SOL    HW263975   5.953   3.787   7.553
20681SOL     OW63976   6.557   3.993   7.892
20681SOL    HW163977   6.520   4.023   7.805
20681SOL    HW263978   6.654   4.016   7.897
20682SOL     OW63979   6.591   4.408   8.821
20682SOL    HW163980   6.516   4.343   8.833
20682SOL    HW263981   6.678   4.360   8.835
20683SOL     OW63982   6.767   5.303   8.277
20683SOL    HW163983   6.795   5.364   8.202
20683SOL    HW263984   6.842   5.294   8.342
20684SOL     OW63985   6.102   4.848   8.132
20684SOL    HW163986   6.031   4.833   8.201
20684SOL    HW263987   6.060   4.860   8.042
20685SOL     OW63988   6.823   5.503   8.085
20685SOL    HW163989   6.883   5.568   8.038
20685SOL    HW263990   6.738   5.550   8.111
20686SOL     OW63991   6.616   4.213   7.494
20686SOL    HW163992   6.577   4.299   7.461
20686SOL    HW263993   6.686   4.233   7.563
20687SOL     OW63994   5.718   4.250   8.865
20687SOL    HW163995   5.809   4.252   8.823
20687SOL    HW263996   5.707   4.328   8.926
20688SOL     OW63997   6.149   3.893   8.625
20688SOL    HW163998   6.174   3.825   8.694
20688SOL    HW263999   6.054   3.921   8.639
20689SOL     OW64000   6.445   4.174   8.070
20689SOL    HW164001   6.419   4.238   7.997
20689SOL    HW264002   6.493   4.096   8.030
20690SOL     OW64003   6.618   3.747   8.174
20690SOL    HW164004   6.557   3.752   8.094
20690SOL    HW264005   6.583   3.679   8.238
20691SOL     OW64006   6.975   4.869   8.274
20691SOL    HW164007   6.934   4.783   8.307
20691SOL    HW264008   6.972   4.871   8.174
20692SOL     OW64009   7.034   4.386   8.410
20692SOL    HW164010   6.979   4.303   8.403
20692SOL    HW264011   7.107   4.372   8.477
20693SOL     OW64012   7.399   4.506   7.850
20693SOL    HW164013   7.468   4.473   7.914
20693SOL    HW264014   7.395   4.446   7.770
20694SOL     OW64015   6.099   5.177   7.575
20694SOL    HW164016   6.024   5.141   7.632
20694SOL    HW264017   6.099   5.131   7.487
20695SOL     OW64018   7.327   5.047   8.054
20695SOL    HW164019   7.420   5.047   8.092
20695SOL    HW264020   7.279   5.130   8.084
20696SOL     OW64021   6.964   4.302   7.480
20696SOL    HW164022   6.923   4.280   7.569
20696SOL    HW264023   7.063   4.314   7.492
20697SOL     OW64024   6.090   3.983   7.738
20697SOL    HW164025   6.162   3.928   7.697
20697SOL    HW264026   6.081   4.069   7.688
20698SOL     OW64027   7.359   4.965   8.962
20698SOL    HW164028   7.449   4.924   8.946
20698SOL    HW264029   7.370   5.055   9.004
20699SOL     OW64030   6.610   5.076   8.794
20699SOL    HW164031   6.528   5.047   8.844
20699SOL    HW264032   6.688   5.021   8.825
20700SOL     OW64033   7.215   5.365   9.066
20700SOL    HW164034   7.199   5.399   8.974
20700SOL    HW264035   7.300   5.312   9.067
20701SOL     OW64036   6.724   5.008   8.550
20701SOL    HW164037   6.665   5.030   8.628
20701SOL    HW264038   6.673   5.021   8.465
20702SOL     OW64039   7.176   4.804   8.592
20702SOL    HW164040   7.203   4.888   8.639
20702SOL    HW264041   7.076   4.801   8.585
20703SOL     OW64042   6.535   3.782   8.806
20703SOL    HW164043   6.556   3.779   8.708
20703SOL    HW264044   6.615   3.816   8.856
20704SOL     OW64045   6.531   4.822   9.151
20704SOL    HW164046   6.436   4.838   9.179
20704SOL    HW264047   6.535   4.744   9.089
20705SOL     OW64048   6.359   4.796   7.862
20705SOL    HW164049   6.348   4.772   7.959
20705SOL    HW264050   6.442   4.753   7.827
20706SOL     OW64051   5.987   4.540   8.772
20706SOL    HW164052   6.067   4.544   8.832
20706SOL    HW264053   5.961   4.444   8.758
20707SOL     OW64054   6.764   4.081   8.741
20707SOL    HW164055   6.795   4.166   8.784
20707SOL    HW264056   6.684   4.099   8.685
20708SOL     OW64057   5.644   5.290   8.782
20708SOL    HW164058   5.585   5.348   8.725
20708SOL    HW264059   5.740   5.315   8.767
20709SOL     OW64060   5.958   4.882   7.903
20709SOL    HW164061   5.951   4.953   7.833
20709SOL    HW264062   5.948   4.792   7.860
20710SOL     OW64063   6.175   4.284   8.418
20710SOL    HW164064   6.186   4.234   8.332
20710SOL    HW264065   6.230   4.368   8.415
20711SOL     OW64066   6.823   5.088   7.874
20711SOL    HW164067   6.887   5.163   7.892
20711SOL    HW264068   6.730   5.117   7.900
20712SOL     OW64069   6.909   5.202   8.552
20712SOL    HW164070   6.954   5.208   8.642
20712SOL    HW264071   6.842   5.128   8.553
20713SOL     OW64072   7.165   4.365   7.928
20713SOL    HW164073   7.109   4.403   8.002
20713SOL    HW264074   7.235   4.433   7.903
20714SOL     OW64075   5.904   5.344   8.706
20714SOL    HW164076   5.901   5.264   8.645
20714SOL    HW264077   5.997   5.358   8.738
20715SOL     OW64078   6.082   4.415   9.137
20715SOL    HW164079   6.113   4.471   9.061
20715SOL    HW264080   6.147   4.340   9.152
20716SOL     OW64081   7.372   4.641   9.227
20716SOL    HW164082   7.316   4.698   9.287
20716SOL    HW264083   7.345   4.657   9.132
20717SOL     OW64084   6.581   3.781   9.178
20717SOL    HW164085   6.644   3.858   9.186
20717SOL    HW264086   6.634   3.698   9.156
20718SOL     OW64087   6.120   3.781   9.249
20718SOL    HW164088   6.067   3.733   9.179
20718SOL    HW264089   6.076   3.868   9.271
20719SOL     OW64090   6.039   4.686   8.547
20719SOL    HW164091   6.114   4.752   8.558
20719SOL    HW264092   6.032   4.630   8.629
20720SOL     OW64093   6.872   4.609   8.418
20720SOL    HW164094   6.781   4.569   8.404
20720SOL    HW264095   6.941   4.537   8.419
20721SOL     OW64096   6.795   4.252   7.703
20721SOL    HW164097   6.815   4.176   7.766
20721SOL    HW264098   6.748   4.324   7.752
20722SOL     OW64099   5.885   3.934   8.667
20722SOL    HW164100   5.872   3.961   8.762
20722SOL    HW264101   5.846   3.843   8.653
20723SOL     OW64102   5.639   5.021   8.736
20723SOL    HW164103   5.637   4.971   8.822
20723SOL    HW264104   5.640   5.119   8.754
20724SOL     OW64105   6.640   4.455   8.392
20724SOL    HW164106   6.588   4.490   8.470
20724SOL    HW264107   6.616   4.359   8.376
20725SOL     OW64108   6.526   5.280   9.190
20725SOL    HW164109   6.508   5.338   9.110
20725SOL    HW264110   6.585   5.204   9.162
20726SOL     OW64111   7.447   5.223   9.028
20726SOL    HW164112   7.473   5.234   8.932
20726SOL    HW264113   7.530   5.225   9.085
20727SOL     OW64114   5.978   4.616   9.310
20727SOL    HW164115   6.056   4.658   9.357
20727SOL    HW264116   6.010   4.540   9.253
20728SOL     OW64117   6.856   4.545   7.432
20728SOL    HW164118   6.889   4.451   7.444
20728SOL    HW264119   6.896   4.584   7.349
20729SOL     OW64120   6.606   5.067   8.311
20729SOL    HW164121   6.608   4.991   8.246
20729SOL    HW264122   6.665   5.141   8.279
20730SOL     OW64123   5.888   4.546   8.374
20730SOL    HW164124   5.947   4.597   8.436
20730SOL    HW264125   5.891   4.449   8.397
20731SOL     OW64126   5.910   4.283   8.465
20731SOL    HW164127   5.873   4.195   8.436
20731SOL    HW264128   6.007   4.287   8.444
20732SOL     OW64129   6.722   4.025   9.158
20732SOL    HW164130   6.661   4.077   9.217
20732SOL    HW264131   6.802   4.080   9.134
20733SOL     OW64132   6.758   3.882   8.929
20733SOL    HW164133   6.738   3.932   9.014
20733SOL    HW264134   6.768   3.947   8.854
20734SOL     OW64135   5.630   5.011   7.623
20734SOL    HW164136   5.535   5.031   7.600
20734SOL    HW264137   5.635   4.920   7.663
20735SOL     OW64138   5.663   5.497   8.413
20735SOL    HW164139   5.620   5.420   8.366
20735SOL    HW264140   5.756   5.509   8.379
20736SOL     OW64141   6.053   5.268   8.353
20736SOL    HW164142   6.125   5.327   8.389
20736SOL    HW264143   6.092   5.203   8.288
20737SOL     OW64144   6.488   4.548   8.613
20737SOL    HW164145   6.529   4.486   8.679
20737SOL    HW264146   6.473   4.637   8.656
20738SOL     OW64147   5.641   4.308   8.595
20738SOL    HW164148   5.725   4.313   8.542
20738SOL    HW264149   5.663   4.291   8.691
20739SOL     OW64150   5.830   4.315   9.206
20739SOL    HW164151   5.924   4.338   9.180
20739SOL    HW264152   5.766   4.365   9.147
20740SOL     OW64153   6.396   4.290   7.822
20740SOL    HW164154   6.405   4.210   7.762
20740SOL    HW264155   6.317   4.344   7.794
20741SOL     OW64156   7.254   4.318   8.591
20741SOL    HW164157   7.232   4.276   8.679
20741SOL    HW264158   7.353   4.314   8.575
20742SOL     OW64159   5.823   5.259   9.130
20742SOL    HW164160   5.818   5.336   9.193
20742SOL    HW264161   5.820   5.173   9.182
20743SOL     OW64162   6.277   4.145   8.633
20743SOL    HW164163   6.235   4.055   8.638
20743SOL    HW264164   6.238   4.196   8.556
20744SOL     OW64165   6.442   5.431   8.964
20744SOL    HW164166   6.412   5.368   8.893
20744SOL    HW264167   6.481   5.513   8.921
20745SOL     OW64168   6.062   4.216   7.598
20745SOL    HW164169   6.120   4.285   7.639
20745SOL    HW264170   5.975   4.257   7.571
20746SOL     OW64171   5.656   4.827   8.952
20746SOL    HW164172   5.691   4.807   9.044
20746SOL    HW264173   5.727   4.808   8.884
20747SOL     OW64174   6.901   4.809   8.603
20747SOL    HW164175   6.888   4.730   8.544
20747SOL    HW264176   6.839   4.882   8.576
20748SOL     OW64177   6.931   4.625   7.685
20748SOL    HW164178   6.860   4.611   7.754
20748SOL    HW264179   6.897   4.597   7.596
20749SOL     OW64180   7.355   5.400   8.597
20749SOL    HW164181   7.420   5.446   8.536
20749SOL    HW264182   7.329   5.312   8.558
20750SOL     OW64183   6.860   5.473   8.555
20750SOL    HW164184   6.952   5.511   8.542
20750SOL    HW264185   6.865   5.374   8.559
20751SOL     OW64186   5.745   4.912   8.515
20751SOL    HW164187   5.703   4.954   8.596
20751SOL    HW264188   5.674   4.870   8.459
20752SOL     OW64189   6.254   5.439   9.163
20752SOL    HW164190   6.191   5.516   9.155
20752SOL    HW264191   6.326   5.447   9.094
20753SOL     OW64192   7.397   3.891   7.930
20753SOL    HW164193   7.435   3.893   7.838
20753SOL    HW264194   7.322   3.826   7.935
20754SOL     OW64195   6.982   5.305   7.939
20754SOL    HW164196   7.039   5.343   7.866
20754SOL    HW264197   6.916   5.374   7.969
20755SOL     OW64198   5.792   5.484   9.284
20755SOL    HW164199   5.735   5.418   9.334
20755SOL    HW264200   5.844   5.539   9.350
20756SOL     OW64201   6.853   4.654   8.066
20756SOL    HW164202   6.929   4.596   8.095
20756SOL    HW264203   6.889   4.739   8.028
20757SOL     OW64204   6.357   5.024   8.893
20757SOL    HW164205   6.331   5.072   8.977
20757SOL    HW264206   6.291   5.044   8.821
20758SOL     OW64207   6.265   5.388   7.610
20758SOL    HW164208   6.298   5.403   7.517
20758SOL    HW264209   6.209   5.306   7.613
20759SOL     OW64210   7.184   5.452   8.809
20759SOL    HW164211   7.251   5.428   8.739
20759SOL    HW264212   7.153   5.546   8.794
20760SOL     OW64213   7.398   3.820   8.522
20760SOL    HW164214   7.456   3.837   8.442
20760SOL    HW264215   7.304   3.845   8.500
20761SOL     OW64216   5.833   4.077   8.142
20761SOL    HW164217   5.740   4.111   8.126
20761SOL    HW264218   5.844   4.056   8.239
20762SOL     OW64219   6.804   5.272   7.530
20762SOL    HW164220   6.804   5.177   7.559
20762SOL    HW264221   6.726   5.288   7.469
20763SOL     OW64222   6.357   4.760   8.812
20763SOL    HW164223   6.311   4.779   8.726
20763SOL    HW264224   6.367   4.844   8.864
20764SOL     OW64225   6.574   4.664   7.776
20764SOL    HW164226   6.589   4.664   7.677
20764SOL    HW264227   6.600   4.574   7.812
20765SOL     OW64228   7.069   5.347   7.516
20765SOL    HW164229   6.971   5.327   7.519
20765SOL    HW264230   7.101   5.344   7.421
20766SOL     OW64231   6.014   4.927   8.934
20766SOL    HW164232   6.054   4.991   8.868
20766SOL    HW264233   5.951   4.866   8.886
20767SOL     OW64234   7.212   5.037   8.736
20767SOL    HW164235   7.268   5.012   8.816
20767SOL    HW264236   7.138   5.097   8.766
20768SOL     OW64237   6.588   4.849   8.149
20768SOL    HW164238   6.499   4.807   8.135
20768SOL    HW264239   6.659   4.791   8.111
20769SOL     OW64240   6.690   3.952   8.355
20769SOL    HW164241   6.680   3.891   8.277
20769SOL    HW264242   6.666   3.904   8.439
20770SOL     OW64243   6.185   5.221   7.959
20770SOL    HW164244   6.233   5.170   7.888
20770SOL    HW264245   6.086   5.217   7.941
20771SOL     OW64246   7.347   4.195   8.836
20771SOL    HW164247   7.435   4.241   8.842
20771SOL    HW264248   7.361   4.100   8.807
20772SOL     OW64249   5.890   5.079   7.723
20772SOL    HW164250   5.797   5.065   7.689
20772SOL    HW264251   5.887   5.136   7.806
20773SOL     OW64252   5.757   4.745   9.196
20773SOL    HW164253   5.672   4.719   9.242
20773SOL    HW264254   5.834   4.701   9.241
20774SOL     OW64255   6.318   3.916   8.932
20774SOL    HW164256   6.398   3.877   8.886
20774SOL    HW264257   6.343   3.942   9.026
20775SOL     OW64258   6.775   5.012   7.610
20775SOL    HW164259   6.678   4.990   7.596
20775SOL    HW264260   6.792   5.025   7.708
20776SOL     OW64261   6.211   4.534   8.916
20776SOL    HW164262   6.264   4.616   8.893
20776SOL    HW264263   6.263   4.452   8.894
20777SOL     OW64264   7.120   5.540   8.515
20777SOL    HW164265   7.146   5.627   8.474
20777SOL    HW264266   7.203   5.490   8.542
20778SOL     OW64267   6.302   4.240   9.134
20778SOL    HW164268   6.371   4.304   9.169
20778SOL    HW264269   6.332   4.146   9.152
20779SOL     OW64270   7.055   4.978   9.027
20779SOL    HW164271   7.050   5.048   9.099
20779SOL    HW264272   7.151   4.953   9.013
20780SOL     OW64273   5.931   5.497   8.992
20780SOL    HW164274   5.843   5.545   8.999
20780SOL    HW264275   5.917   5.400   9.013
20781SOL     OW64276   7.223   4.569   8.725
20781SOL    HW164277   7.244   4.491   8.666
20781SOL    HW264278   7.211   4.651   8.669
20782SOL     OW64279   6.819   4.064   7.906
20782SOL    HW164280   6.871   3.979   7.914
20782SOL    HW264281   6.832   4.119   7.988
20783SOL     OW64282   6.198   4.148   8.185
20783SOL    HW164283   6.292   4.154   8.150
20783SOL    HW264284   6.134   4.152   8.109
20784SOL     OW64285   7.243   4.195   9.087
20784SOL    HW164286   7.276   4.206   8.993
20784SOL    HW264287   7.207   4.102   9.099
20785SOL     OW64288   7.340   4.673   8.959
20785SOL    HW164289   7.335   4.772   8.947
20785SOL    HW264290   7.303   4.627   8.877
20786SOL     OW64291   6.463   5.047   7.556
20786SOL    HW164292   6.422   5.071   7.644
20786SOL    HW264293   6.487   5.131   7.507
20787SOL     OW64294   6.252   5.435   8.421
20787SOL    HW164295   6.220   5.529   8.409
20787SOL    HW264296   6.351   5.432   8.411
20788SOL     OW64297   6.619   4.645   7.511
20788SOL    HW164298   6.589   4.719   7.450
20788SOL    HW264299   6.708   4.611   7.480
20789SOL     OW64300   7.393   5.311   8.297
20789SOL    HW164301   7.321   5.308   8.227
20789SOL    HW264302   7.378   5.240   8.365
20790SOL     OW64303   5.791   5.012   9.268
20790SOL    HW164304   5.777   4.919   9.233
20790SOL    HW264305   5.727   5.029   9.344
20791SOL     OW64306   5.792   4.981   8.099
20791SOL    HW164307   5.816   4.928   8.180
20791SOL    HW264308   5.838   4.943   8.019
20792SOL     OW64309   6.242   5.172   9.087
20792SOL    HW164310   6.162   5.125   9.124
20792SOL    HW264311   6.242   5.268   9.117
20793SOL     OW64312   7.411   3.938   8.773
20793SOL    HW164313   7.501   3.940   8.818
20793SOL    HW264314   7.421   3.897   8.682
20794SOL     OW64315   6.026   4.145   7.965
20794SOL    HW164316   6.045   4.076   7.895
20794SOL    HW264317   5.953   4.113   8.025
20795SOL     OW64318   7.287   5.158   8.501
20795SOL    HW164319   7.211   5.135   8.439
20795SOL    HW264320   7.278   5.105   8.585
20796SOL     OW64321   5.954   4.270   8.743
20796SOL    HW164322   6.020   4.207   8.784
20796SOL    HW264323   5.956   4.260   8.643
20797SOL     OW64324   6.399   5.288   8.138
20797SOL    HW164325   6.341   5.317   8.062
20797SOL    HW264326   6.357   5.209   8.183
20798SOL     OW64327   7.001   3.989   8.648
20798SOL    HW164328   7.051   3.948   8.723
20798SOL    HW264329   6.911   4.018   8.680
20799SOL     OW64330   6.615   3.745   8.541
20799SOL    HW164331   6.539   3.703   8.492
20799SOL    HW264332   6.699   3.692   8.524
20800SOL     OW64333   6.365   5.067   7.814
20800SOL    HW164334   6.358   4.968   7.829
20800SOL    HW264335   6.447   5.101   7.860
20801SOL     OW64336   6.183   5.345   8.752
20801SOL    HW164337   6.184   5.442   8.779
20801SOL    HW264338   6.267   5.324   8.702
20802SOL     OW64339   6.870   3.826   7.640
20802SOL    HW164340   6.794   3.879   7.603
20802SOL    HW264341   6.841   3.732   7.656
20803SOL     OW64342   6.843   4.207   8.132
20803SOL    HW164343   6.792   4.293   8.131
20803SOL    HW264344   6.872   4.187   8.225
20804SOL     OW64345   7.147   3.901   8.442
20804SOL    HW164346   7.087   3.925   8.519
20804SOL    HW264347   7.186   3.984   8.404
20805SOL     OW64348   5.666   4.764   7.753
20805SOL    HW164349   5.764   4.745   7.746
20805SOL    HW264350   5.616   4.677   7.760
20806SOL     OW64351   6.478   5.419   7.795
20806SOL    HW164352   6.404   5.401   7.730
20806SOL    HW264353   6.452   5.494   7.856
20807SOL     OW64354   5.824   4.336   9.479
20807SOL    HW164355   5.754   4.397   9.517
20807SOL    HW264356   5.817   4.336   9.379
20808SOL     OW64357   7.398   4.341   9.516
20808SOL    HW164358   7.356   4.367   9.429
20808SOL    HW264359   7.353   4.259   9.551
20809SOL     OW64360   5.835   5.472   9.716
20809SOL    HW164361   5.838   5.531   9.797
20809SOL    HW264362   5.925   5.469   9.673
20810SOL     OW64363   5.914   5.230   9.819
20810SOL    HW164364   5.865   5.314   9.795
20810SOL    HW264365   5.852   5.168   9.869
20811SOL     OW64366   6.191   4.711   9.456
20811SOL    HW164367   6.236   4.764   9.384
20811SOL    HW264368   6.214   4.749   9.546
20812SOL     OW64369   5.624   4.404   9.861
20812SOL    HW164370   5.531   4.371   9.852
20812SOL    HW264371   5.625   4.484   9.922
20813SOL     OW64372   7.432   5.422   9.632
20813SOL    HW164373   7.512   5.422   9.691
20813SOL    HW264374   7.411   5.515   9.603
20814SOL     OW64375   5.662   5.295   9.420
20814SOL    HW164376   5.640   5.202   9.449
20814SOL    HW264377   5.626   5.360   9.486
20815SOL     OW64378   7.240   4.857   9.780
20815SOL    HW164379   7.285   4.837   9.693
20815SOL    HW264380   7.310   4.874   9.850
20816SOL     OW64381   6.219   4.446   9.547
20816SOL    HW164382   6.221   4.534   9.499
20816SOL    HW264383   6.184   4.460   9.639
20817SOL     OW64384   6.642   4.420   9.704
20817SOL    HW164385   6.649   4.395   9.800
20817SOL    HW264386   6.566   4.371   9.662
20818SOL     OW64387   5.615   4.625   0.020
20818SOL    HW164388   5.702   4.648   0.063
20818SOL    HW264389   5.542   4.628   0.089
20819SOL     OW64390   6.453   4.039   9.454
20819SOL    HW164391   6.513   4.102   9.404
20819SOL    HW264392   6.503   4.000   9.532
20820SOL     OW64393   6.983   4.756   9.828
20820SOL    HW164394   7.072   4.798   9.809
20820SOL    HW264395   6.940   4.729   9.742
20821SOL     OW64396   6.587   5.167   9.710
20821SOL    HW164397   6.548   5.244   9.659
20821SOL    HW264398   6.635   5.201   9.791
20822SOL     OW64399   5.938   5.597   0.205
20822SOL    HW164400   5.951   5.510   0.253
20822SOL    HW264401   6.027   5.637   0.183
20823SOL     OW64402   5.912   4.613   9.618
20823SOL    HW164403   5.951   4.614   9.526
20823SOL    HW264404   5.820   4.575   9.615
20824SOL     OW64405   7.221   5.057   9.422
20824SOL    HW164406   7.169   5.101   9.348
20824SOL    HW264407   7.224   5.118   9.501
20825SOL     OW64408   6.100   5.468   9.640
20825SOL    HW164409   6.132   5.424   9.724
20825SOL    HW264410   6.156   5.436   9.563
20826SOL     OW64411   7.045   3.894   9.709
20826SOL    HW164412   7.027   3.845   9.624
20826SOL    HW264413   7.143   3.909   9.719
20827SOL     OW64414   6.090   4.483   9.785
20827SOL    HW164415   6.067   4.391   9.816
20827SOL    HW264416   6.014   4.522   9.734
20828SOL     OW64417   6.245   3.862   9.499
20828SOL    HW164418   6.324   3.919   9.475
20828SOL    HW264419   6.208   3.820   9.416
20829SOL     OW64420   6.068   3.834   9.852
20829SOL    HW164421   5.972   3.847   9.877
20829SOL    HW264422   6.099   3.910   9.796
20830SOL     OW64423   5.885   3.788   9.487
20830SOL    HW164424   5.932   3.864   9.442
20830SOL    HW264425   5.951   3.734   9.539
20831SOL     OW64426   6.582   3.962   9.676
20831SOL    HW164427   6.516   3.984   9.747
20831SOL    HW264428   6.672   4.000   9.701
20832SOL     OW64429   6.005   4.837   0.060
20832SOL    HW164430   5.946   4.766   0.098
20832SOL    HW264431   6.002   4.834   9.960
20833SOL     OW64432   6.985   5.533   9.949
20833SOL    HW164433   6.989   5.601   9.876
20833SOL    HW264434   6.914   5.466   9.928
20834SOL     OW64435   6.611   4.213   9.325
20834SOL    HW164436   6.575   4.296   9.281
20834SOL    HW264437   6.684   4.238   9.388
20835SOL     OW64438   7.580   4.521   9.620
20835SOL    HW164439   7.603   4.482   9.709
20835SOL    HW264440   7.517   4.460   9.572
20836SOL     OW64441   6.136   5.136   9.427
20836SOL    HW164442   6.077   5.108   9.503
20836SOL    HW264443   6.106   5.091   9.343
20837SOL     OW64444   6.977   4.353   9.322
20837SOL    HW164445   6.940   4.309   9.403
20837SOL    HW264446   7.076   4.357   9.328
20838SOL     OW64447   6.160   4.036   9.687
20838SOL    HW164448   6.192   3.962   9.628
20838SOL    HW264449   6.121   4.109   9.631
20839SOL     OW64450   6.294   4.806   9.701
20839SOL    HW164451   6.264   4.766   9.787
20839SOL    HW264452   6.377   4.760   9.669
20840SOL     OW64453   5.900   4.840   9.774
20840SOL    HW164454   5.931   4.917   9.718
20840SOL    HW264455   5.920   4.754   9.727
20841SOL     OW64456   7.127   4.311   9.773
20841SOL    HW164457   7.045   4.291   9.826
20841SOL    HW264458   7.111   4.393   9.717
20842SOL     OW64459   6.800   4.263   9.527
20842SOL    HW164460   6.818   4.182   9.583
20842SOL    HW264461   6.750   4.330   9.582
20843SOL     OW64462   5.808   3.837   9.943
20843SOL    HW164463   5.735   3.902   9.966
20843SOL    HW264464   5.831   3.783   0.024
20844SOL     OW64465   7.230   4.134   9.594
20844SOL    HW164466   7.266   4.056   9.646
20844SOL    HW264467   7.185   4.197   9.657
20845SOL     OW64468   7.121   3.990   9.375
20845SOL    HW164469   7.072   3.915   9.418
20845SOL    HW264470   7.161   4.049   9.446
20846SOL     OW64471   6.836   4.585   9.347
20846SOL    HW164472   6.885   4.500   9.332
20846SOL    HW264473   6.847   4.645   9.267
20847SOL     OW64474   5.620   5.030   9.483
20847SOL    HW164475   5.525   5.045   9.456
20847SOL    HW264476   5.626   4.949   9.542
20848SOL     OW64477   6.438   4.293   9.590
20848SOL    HW164478   6.424   4.202   9.550
20848SOL    HW264479   6.359   4.350   9.570
20849SOL     OW64480   6.063   4.219   9.511
20849SOL    HW164481   6.129   4.295   9.509
20849SOL    HW264482   5.970   4.255   9.508
20850SOL     OW64483   6.844   4.595   9.618
20850SOL    HW164484   6.768   4.544   9.658
20850SOL    HW264485   6.831   4.604   9.520
20851SOL     OW64486   7.327   3.911   9.718
20851SOL    HW164487   7.400   3.925   9.651
20851SOL    HW264488   7.330   3.817   9.752
20852SOL     OW64489   6.261   5.377   9.427
20852SOL    HW164490   6.271   5.397   9.330
20852SOL    HW264491   6.211   5.292   9.439
20853SOL     OW64492   6.837   5.284   9.304
20853SOL    HW164493   6.776   5.229   9.361
20853SOL    HW264494   6.786   5.358   9.261
20854SOL     OW64495   6.503   4.655   9.624
20854SOL    HW164496   6.523   4.659   9.526
20854SOL    HW264497   6.544   4.573   9.663
20855SOL     OW64498   7.075   5.182   9.219
20855SOL    HW164499   6.989   5.217   9.254
20855SOL    HW264500   7.123   5.254   9.169
20856SOL     OW64501   6.178   5.292   9.850
20856SOL    HW164502   6.236   5.216   9.819
20856SOL    HW264503   6.082   5.263   9.849
20857SOL     OW64504   5.931   5.064   9.605
20857SOL    HW164505   5.844   5.073   9.556
20857SOL    HW264506   5.933   5.129   9.682
20858SOL     OW64507   5.716   4.076   9.284
20858SOL    HW164508   5.632   4.062   9.231
20858SOL    HW264509   5.754   4.165   9.264
20859SOL     OW64510   5.640   3.901   9.518
20859SOL    HW164511   5.638   3.972   9.447
20859SOL    HW264512   5.730   3.857   9.519
20860SOL     OW64513   6.668   5.110   9.440
20860SOL    HW164514   6.573   5.100   9.410
20860SOL    HW264515   6.672   5.110   9.540
20861SOL     OW64516   6.837   4.073   9.728
20861SOL    HW164517   6.911   4.006   9.716
20861SOL    HW264518   6.861   4.136   9.802
20862SOL     OW64519   6.235   4.664   9.924
20862SOL    HW164520   6.232   4.647   0.023
20862SOL    HW264521   6.186   4.591   9.877
20863SOL     OW64522   6.406   5.101   9.360
20863SOL    HW164523   6.319   5.123   9.403
20863SOL    HW264524   6.432   5.175   9.298
20864SOL     OW64525   6.575   4.648   9.362
20864SOL    HW164526   6.559   4.724   9.298
20864SOL    HW264527   6.671   4.622   9.360
20865SOL     OW64528   5.757   5.036   9.918
20865SOL    HW164529   5.692   5.019   9.993
20865SOL    HW264530   5.798   4.950   9.889
20866SOL     OW64531   6.043   4.230   9.865
20866SOL    HW164532   6.075   4.150   9.814
20866SOL    HW264533   6.023   4.204   9.959
20867SOL     OW64534   6.330   5.077   9.766
20867SOL    HW164535   6.308   4.983   9.739
20867SOL    HW264536   6.424   5.099   9.740
20868SOL     OW64537   6.997   3.764   9.479
20868SOL    HW164538   7.051   3.692   9.435
20868SOL    HW264539   6.906   3.729   9.501
20869SOL     OW64540   5.642   4.808   9.650
20869SOL    HW164541   5.724   4.828   9.704
20869SOL    HW264542   5.642   4.711   9.624
20870SOL     OW64543   5.755   6.150   0.143
20870SOL    HW164544   5.688   6.195   0.202
20870SOL    HW264545   5.810   6.219   0.096
20871SOL     OW64546   5.801   5.845   0.979
20871SOL    HW164547   5.841   5.825   1.068
20871SOL    HW264548   5.713   5.798   0.971
20872SOL     OW64549   5.576   5.993   0.627
20872SOL    HW164550   5.495   6.001   0.686
20872SOL    HW264551   5.560   5.921   0.559
20873SOL     OW64552   6.134   6.905   1.229
20873SOL    HW164553   6.047   6.897   1.180
20873SOL    HW264554   6.156   7.001   1.242
20874SOL     OW64555   7.169   7.176   0.661
20874SOL    HW164556   7.127   7.145   0.746
20874SOL    HW264557   7.099   7.177   0.588
20875SOL     OW64558   6.724   6.309   0.660
20875SOL    HW164559   6.781   6.390   0.652
20875SOL    HW264560   6.674   6.312   0.747
20876SOL     OW64561   7.302   6.151   0.163
20876SOL    HW164562   7.226   6.170   0.102
20876SOL    HW264563   7.274   6.085   0.233
20877SOL     OW64564   6.306   6.713   1.094
20877SOL    HW164565   6.236   6.751   1.154
20877SOL    HW264566   6.355   6.788   1.049
20878SOL     OW64567   6.405   6.335   1.814
20878SOL    HW164568   6.409   6.385   1.900
20878SOL    HW264569   6.429   6.396   1.739
20879SOL     OW64570   6.317   6.560   0.657
20879SOL    HW164571   6.384   6.558   0.731
20879SOL    HW264572   6.242   6.622   0.681
20880SOL     OW64573   6.328   6.793   1.894
20880SOL    HW164574   6.375   6.854   1.958
20880SOL    HW264575   6.292   6.847   1.817
20881SOL     OW64576   5.901   6.969   1.090
20881SOL    HW164577   5.826   6.916   1.051
20881SOL    HW264578   5.949   7.019   1.018
20882SOL     OW64579   7.014   7.103   1.376
20882SOL    HW164580   7.073   7.180   1.401
20882SOL    HW264581   6.936   7.099   1.438
20883SOL     OW64582   6.068   5.942   1.453
20883SOL    HW164583   6.149   5.894   1.487
20883SOL    HW264584   5.986   5.889   1.475
20884SOL     OW64585   5.865   7.288   0.489
20884SOL    HW164586   5.869   7.372   0.543
20884SOL    HW264587   5.956   7.267   0.454
20885SOL     OW64588   6.666   6.951   1.743
20885SOL    HW164589   6.697   6.968   1.836
20885SOL    HW264590   6.629   6.859   1.736
20886SOL     OW64591   5.762   7.060   0.589
20886SOL    HW164592   5.810   7.140   0.554
20886SOL    HW264593   5.693   7.089   0.655
20887SOL     OW64594   5.874   6.699   0.861
20887SOL    HW164595   5.896   6.603   0.876
20887SOL    HW264596   5.812   6.731   0.932
20888SOL     OW64597   6.164   7.438   1.384
20888SOL    HW164598   6.083   7.413   1.437
20888SOL    HW264599   6.218   7.505   1.435
20889SOL     OW64600   6.199   6.568   0.256
20889SOL    HW164601   6.221   6.596   0.162
20889SOL    HW264602   6.272   6.598   0.317
20890SOL     OW64603   7.211   5.663   1.466
20890SOL    HW164604   7.256   5.703   1.387
20890SOL    HW264605   7.192   5.735   1.533
20891SOL     OW64606   5.679   6.254   0.548
20891SOL    HW164607   5.646   6.161   0.567
20891SOL    HW264608   5.686   6.305   0.633
20892SOL     OW64609   7.481   7.308   0.286
20892SOL    HW164610   7.542   7.275   0.357
20892SOL    HW264611   7.502   7.405   0.267
20893SOL     OW64612   5.637   7.135   0.106
20893SOL    HW164613   5.621   7.040   0.134
20893SOL    HW264614   5.637   7.194   0.188
20894SOL     OW64615   7.311   6.541   0.713
20894SOL    HW164616   7.400   6.494   0.708
20894SOL    HW264617   7.304   6.606   0.638
20895SOL     OW64618   7.270   6.735   0.511
20895SOL    HW164619   7.340   6.701   0.447
20895SOL    HW264620   7.301   6.820   0.552
20896SOL     OW64621   5.805   6.307   1.623
20896SOL    HW164622   5.904   6.316   1.633
20896SOL    HW264623   5.761   6.393   1.651
20897SOL     OW64624   6.229   6.961   0.766
20897SOL    HW164625   6.196   6.867   0.776
20897SOL    HW264626   6.225   6.988   0.669
20898SOL     OW64627   6.403   5.581   0.471
20898SOL    HW164628   6.454   5.664   0.447
20898SOL    HW264629   6.306   5.603   0.479
20899SOL     OW64630   5.797   6.514   1.243
20899SOL    HW164631   5.890   6.476   1.242
20899SOL    HW264632   5.735   6.451   1.197
20900SOL     OW64633   7.086   6.616   0.302
20900SOL    HW164634   7.041   6.530   0.326
20900SOL    HW264635   7.146   6.643   0.377
20901SOL     OW64636   6.950   7.478   1.588
20901SOL    HW164637   6.879   7.529   1.539
20901SOL    HW264638   6.922   7.382   1.596
20902SOL     OW64639   5.914   5.838   1.882
20902SOL    HW164640   5.955   5.913   1.934
20902SOL    HW264641   5.815   5.852   1.876
20903SOL     OW64642   7.026   7.069   0.873
20903SOL    HW164643   7.004   7.094   0.968
20903SOL    HW264644   7.022   6.970   0.863
20904SOL     OW64645   7.228   7.424   0.512
20904SOL    HW164646   7.228   7.375   0.425
20904SOL    HW264647   7.226   7.358   0.587
20905SOL     OW64648   6.164   6.291   0.309
20905SOL    HW164649   6.179   6.388   0.287
20905SOL    HW264650   6.092   6.284   0.378
20906SOL     OW64651   6.901   5.837   0.835
20906SOL    HW164652   6.834   5.789   0.779
20906SOL    HW264653   6.878   5.827   0.931
20907SOL     OW64654   7.206   7.280   0.268
20907SOL    HW164655   7.306   7.282   0.273
20907SOL    HW264656   7.178   7.223   0.191
20908SOL     OW64657   6.349   6.166   1.457
20908SOL    HW164658   6.309   6.137   1.544
20908SOL    HW264659   6.324   6.101   1.385
20909SOL     OW64660   6.950   6.065   1.678
20909SOL    HW164661   6.974   6.112   1.763
20909SOL    HW264662   7.010   5.985   1.666
20910SOL     OW64663   6.501   6.493   1.609
20910SOL    HW164664   6.548   6.420   1.559
20910SOL    HW264665   6.455   6.553   1.545
20911SOL     OW64666   6.552   5.990   1.163
20911SOL    HW164667   6.459   5.996   1.198
20911SOL    HW264668   6.553   5.936   1.079
20912SOL     OW64669   6.660   6.278   0.391
20912SOL    HW164670   6.679   6.283   0.489
20912SOL    HW264671   6.569   6.239   0.377
20913SOL     OW64672   5.690   6.406   0.781
20913SOL    HW164673   5.786   6.407   0.809
20913SOL    HW264674   5.635   6.453   0.850
20914SOL     OW64675   5.696   7.454   1.575
20914SOL    HW164676   5.699   7.402   1.660
20914SOL    HW264677   5.602   7.456   1.541
20915SOL     OW64678   6.435   5.930   0.188
20915SOL    HW164679   6.426   5.984   0.104
20915SOL    HW264680   6.443   5.833   0.164
20916SOL     OW64681   7.266   6.224   1.794
20916SOL    HW164682   7.234   6.301   1.737
20916SOL    HW264683   7.290   6.147   1.734
20917SOL     OW64684   7.002   6.768   0.583
20917SOL    HW164685   7.095   6.761   0.549
20917SOL    HW264686   6.950   6.832   0.527
20918SOL     OW64687   6.147   5.666   0.953
20918SOL    HW164688   6.154   5.700   1.047
20918SOL    HW264689   6.158   5.743   0.890
20919SOL     OW64690   6.604   7.050   0.512
20919SOL    HW164691   6.562   7.132   0.472
20919SOL    HW264692   6.592   7.051   0.611
20920SOL     OW64693   5.950   7.365   0.894
20920SOL    HW164694   5.986   7.272   0.891
20920SOL    HW264695   6.025   7.429   0.911
20921SOL     OW64696   7.380   6.646   0.959
20921SOL    HW164697   7.356   6.606   0.870
20921SOL    HW264698   7.298   6.678   1.005
20922SOL     OW64699   6.794   7.108   1.534
20922SOL    HW164700   6.761   7.045   1.604
20922SOL    HW264701   6.717   7.151   1.488
20923SOL     OW64702   7.101   6.371   0.716
20923SOL    HW164703   7.094   6.326   0.805
20923SOL    HW264704   7.178   6.435   0.717
20924SOL     OW64705   6.014   6.836   1.769
20924SOL    HW164706   5.957   6.863   1.691
20924SOL    HW264707   6.005   6.738   1.784
20925SOL     OW64708   5.816   5.838   1.500
20925SOL    HW164709   5.783   5.914   1.556
20925SOL    HW264710   5.773   5.753   1.531
20926SOL     OW64711   7.236   6.885   0.030
20926SOL    HW164712   7.208   6.981   0.030
20926SOL    HW264713   7.155   6.827   0.044
20927SOL     OW64714   6.135   7.276   0.434
20927SOL    HW164715   6.147   7.369   0.468
20927SOL    HW264716   6.176   7.268   0.343
20928SOL     OW64717   6.955   5.675   0.449
20928SOL    HW164718   6.942   5.652   0.353
20928SOL    HW264719   7.053   5.670   0.471
20929SOL     OW64720   5.884   7.368   1.183
20929SOL    HW164721   5.888   7.285   1.239
20929SOL    HW264722   5.909   7.346   1.089
20930SOL     OW64723   6.569   7.289   0.891
20930SOL    HW164724   6.657   7.245   0.874
20930SOL    HW264725   6.500   7.249   0.832
20931SOL     OW64726   5.960   6.255   0.489
20931SOL    HW164727   5.979   6.159   0.506
20931SOL    HW264728   5.861   6.272   0.498
20932SOL     OW64729   7.095   5.825   1.675
20932SOL    HW164730   7.105   5.823   1.774
20932SOL    HW264731   7.027   5.757   1.647
20933SOL     OW64732   6.182   5.689   0.118
20933SOL    HW164733   6.281   5.671   0.116
20933SOL    HW264734   6.152   5.717   0.027
20934SOL     OW64735   6.320   5.866   1.823
20934SOL    HW164736   6.416   5.844   1.842
20934SOL    HW264737   6.261   5.820   1.889
20935SOL     OW64738   6.426   7.055   1.251
20935SOL    HW164739   6.422   7.017   1.158
20935SOL    HW264740   6.404   6.983   1.316
20936SOL     OW64741   6.837   6.187   1.455
20936SOL    HW164742   6.884   6.153   1.537
20936SOL    HW264743   6.890   6.260   1.413
20937SOL     OW64744   6.409   6.945   0.989
20937SOL    HW164745   6.501   6.952   0.950
20937SOL    HW264746   6.341   6.964   0.918
20938SOL     OW64747   6.500   6.078   0.851
20938SOL    HW164748   6.477   6.070   0.754
20938SOL    HW264749   6.539   5.991   0.882
20939SOL     OW64750   6.134   5.631   0.476
20939SOL    HW164751   6.062   5.624   0.545
20939SOL    HW264752   6.124   5.717   0.426
20940SOL     OW64753   7.008   6.749   0.077
20940SOL    HW164754   7.034   6.691   0.154
20940SOL    HW264755   6.943   6.818   0.108
20941SOL     OW64756   6.530   5.820   0.424
20941SOL    HW164757   6.487   5.864   0.345
20941SOL    HW264758   6.628   5.840   0.423
20942SOL     OW64759   6.586   6.302   1.432
20942SOL    HW164760   6.510   6.237   1.442
20942SOL    HW264761   6.673   6.253   1.442
20943SOL     OW64762   6.792   7.172   0.777
20943SOL    HW164763   6.804   7.242   0.707
20943SOL    HW264764   6.882   7.140   0.808
20944SOL     OW64765   6.102   6.725   0.711
20944SOL    HW164766   6.023   6.713   0.771
20944SOL    HW264767   6.071   6.756   0.621
20945SOL     OW64768   6.822   7.390   0.597
20945SOL    HW164769   6.877   7.458   0.549
20945SOL    HW264770   6.744   7.435   0.640
20946SOL     OW64771   6.691   6.100   9.957
20946SOL    HW164772   6.596   6.070   9.955
20946SOL    HW264773   6.724   6.103   0.051
20947SOL     OW64774   5.718   6.191   1.391
20947SOL    HW164775   5.808   6.162   1.357
20947SOL    HW264776   5.730   6.246   1.474
20948SOL     OW64777   6.153   5.762   1.207
20948SOL    HW164778   6.180   5.695   1.276
20948SOL    HW264779   6.056   5.783   1.217
20949SOL     OW64780   6.450   6.033   0.589
20949SOL    HW164781   6.424   6.096   0.516
20949SOL    HW264782   6.479   5.946   0.550
20950SOL     OW64783   6.599   5.640   0.737
20950SOL    HW164784   6.539   5.656   0.659
20950SOL    HW264785   6.566   5.561   0.789
20951SOL     OW64786   6.983   6.799   0.855
20951SOL    HW164787   6.892   6.762   0.875
20951SOL    HW264788   7.005   6.785   0.759
20952SOL     OW64789   7.434   6.352   0.303
20952SOL    HW164790   7.476   6.314   0.385
20952SOL    HW264791   7.376   6.282   0.260
20953SOL     OW64792   5.994   7.144   0.182
20953SOL    HW164793   5.930   7.089   0.236
20953SOL    HW264794   6.035   7.087   0.111
20954SOL     OW64795   7.353   6.969   0.642
20954SOL    HW164796   7.384   6.960   0.737
20954SOL    HW264797   7.288   7.044   0.635
20955SOL     OW64798   7.017   6.109   0.077
20955SOL    HW164799   6.932   6.115   0.128
20955SOL    HW264800   7.051   6.015   0.077
20956SOL     OW64801   6.110   5.854   0.320
20956SOL    HW164802   6.148   5.795   0.249
20956SOL    HW264803   6.077   5.940   0.279
20957SOL     OW64804   7.376   6.811   1.450
20957SOL    HW164805   7.453   6.795   1.389
20957SOL    HW264806   7.397   6.888   1.511
20958SOL     OW64807   7.235   7.106   1.626
20958SOL    HW164808   7.185   7.020   1.634
20958SOL    HW264809   7.332   7.087   1.608
20959SOL     OW64810   6.780   6.864   1.131
20959SOL    HW164811   6.743   6.848   1.222
20959SOL    HW264812   6.706   6.888   1.068
20960SOL     OW64813   7.145   6.724   1.071
20960SOL    HW164814   7.142   6.793   1.144
20960SOL    HW264815   7.085   6.753   0.996
20961SOL     OW64816   6.561   6.694   1.788
20961SOL    HW164817   6.473   6.721   1.829
20961SOL    HW264818   6.546   6.621   1.722
20962SOL     OW64819   6.409   6.650   0.407
20962SOL    HW164820   6.392   6.610   0.497
20962SOL    HW264821   6.487   6.604   0.364
20963SOL     OW64822   6.041   6.380   1.244
20963SOL    HW164823   6.099   6.404   1.322
20963SOL    HW264824   6.007   6.287   1.254
20964SOL     OW64825   6.758   5.961   1.323
20964SOL    HW164826   6.793   6.044   1.366
20964SOL    HW264827   6.682   5.983   1.263
20965SOL     OW64828   5.647   7.118   1.377
20965SOL    HW164829   5.614   7.167   1.297
20965SOL    HW264830   5.747   7.124   1.381
20966SOL     OW64831   6.070   6.166   0.883
20966SOL    HW164832   6.089   6.221   0.801
20966SOL    HW264833   6.155   6.155   0.936
20967SOL     OW64834   6.857   6.964   0.447
20967SOL    HW164835   6.912   7.048   0.453
20967SOL    HW264836   6.763   6.984   0.473
20968SOL     OW64837   6.920   7.098   1.124
20968SOL    HW164838   6.959   7.106   1.216
20968SOL    HW264839   6.868   7.013   1.117
20969SOL     OW64840   7.115   6.206   0.489
20969SOL    HW164841   7.115   6.256   0.576
20969SOL    HW264842   7.059   6.256   0.422
20970SOL     OW64843   5.915   7.108   1.322
20970SOL    HW164844   5.904   7.055   1.238
20970SOL    HW264845   6.011   7.136   1.331
20971SOL     OW64846   6.075   6.338   1.660
20971SOL    HW164847   6.121   6.378   1.580
20971SOL    HW264848   6.125   6.258   1.691
20972SOL     OW64849   7.159   6.443   1.664
20972SOL    HW164850   7.068   6.484   1.661
20972SOL    HW264851   7.212   6.474   1.586
20973SOL     OW64852   6.576   5.791   1.892
20973SOL    HW164853   6.635   5.842   1.829
20973SOL    HW264854   6.622   5.707   1.920
20974SOL     OW64855   6.066   5.634   1.766
20974SOL    HW164856   6.022   5.583   1.691
20974SOL    HW264857   6.008   5.710   1.793
20975SOL     OW64858   6.273   6.439   1.108
20975SOL    HW164859   6.279   6.539   1.100
20975SOL    HW264860   6.185   6.414   1.148
20976SOL     OW64861   6.872   6.404   0.992
20976SOL    HW164862   6.788   6.362   0.958
20976SOL    HW264863   6.949   6.342   0.977
20977SOL     OW64864   6.780   6.095   0.220
20977SOL    HW164865   6.790   6.013   0.277
20977SOL    HW264866   6.739   6.168   0.275
20978SOL     OW64867   5.884   5.781   1.232
20978SOL    HW164868   5.844   5.808   1.319
20978SOL    HW264869   5.868   5.683   1.217
20979SOL     OW64870   5.615   6.852   1.298
20979SOL    HW164871   5.662   6.788   1.358
20979SOL    HW264872   5.627   6.945   1.332
20980SOL     OW64873   6.301   6.167   1.022
20980SOL    HW164874   6.376   6.140   0.962
20980SOL    HW264875   6.309   6.265   1.043
20981SOL     OW64876   7.231   6.652   1.826
20981SOL    HW164877   7.221   6.569   1.772
20981SOL    HW264878   7.186   6.641   1.914
20982SOL     OW64879   5.920   5.611   0.651
20982SOL    HW164880   5.877   5.700   0.661
20982SOL    HW264881   5.929   5.568   0.741
20983SOL     OW64882   7.199   5.982   0.350
20983SOL    HW164883   7.268   5.926   0.396
20983SOL    HW264884   7.167   6.053   0.412
20984SOL     OW64885   6.615   6.312   0.923
20984SOL    HW164886   6.596   6.332   1.019
20984SOL    HW264887   6.577   6.223   0.899
20985SOL     OW64888   6.529   7.188   1.691
20985SOL    HW164889   6.536   7.212   1.595
20985SOL    HW264890   6.559   7.093   1.704
20986SOL     OW64891   7.488   7.045   1.556
20986SOL    HW164892   7.513   7.062   1.461
20986SOL    HW264893   7.564   7.069   1.616
20987SOL     OW64894   5.994   6.563   1.812
20987SOL    HW164895   6.039   6.569   1.901
20987SOL    HW264896   6.027   6.483   1.762
20988SOL     OW64897   7.075   5.851   0.140
20988SOL    HW164898   7.010   5.780   0.166
20988SOL    HW264899   7.119   5.889   0.222
20989SOL     OW64900   6.998   6.380   0.063
20989SOL    HW164901   7.007   6.281   0.049
20989SOL    HW264902   7.077   6.427   0.025
20990SOL     OW64903   6.656   6.948   0.885
20990SOL    HW164904   6.686   6.861   0.848
20990SOL    HW264905   6.708   7.022   0.842
20991SOL     OW64906   5.942   6.439   0.886
20991SOL    HW164907   6.009   6.415   0.816
20991SOL    HW264908   5.959   6.385   0.968
20992SOL     OW64909   5.853   6.107   1.025
20992SOL    HW164910   5.823   6.014   1.002
20992SOL    HW264911   5.930   6.131   0.967
20993SOL     OW64912   6.697   5.978   1.731
20993SOL    HW164913   6.659   6.053   1.786
20993SOL    HW264914   6.789   6.002   1.703
20994SOL     OW64915   6.594   5.841   1.517
20994SOL    HW164916   6.619   5.893   1.599
20994SOL    HW264917   6.640   5.880   1.438
20995SOL     OW64918   5.589   6.876   0.191
20995SOL    HW164919   5.494   6.904   0.183
20995SOL    HW264920   5.593   6.787   0.237
20996SOL     OW64921   5.674   7.362   0.907
20996SOL    HW164922   5.641   7.291   0.845
20996SOL    HW264923   5.774   7.369   0.899
20997SOL     OW64924   6.072   7.120   0.927
20997SOL    HW164925   6.144   7.177   0.968
20997SOL    HW264926   6.112   7.058   0.860
20998SOL     OW64927   6.534   6.381   1.169
20998SOL    HW164928   6.559   6.357   1.263
20998SOL    HW264929   6.436   6.400   1.165
20999SOL     OW64930   5.671   6.278   1.138
20999SOL    HW164931   5.734   6.222   1.084
20999SOL    HW264932   5.681   6.256   1.235
21000SOL     OW64933   5.784   6.044   1.693
21000SOL    HW164934   5.879   6.020   1.712
21000SOL    HW264935   5.779   6.138   1.660
21001SOL     OW64936   6.410   6.162   0.346
21001SOL    HW164937   6.414   6.080   0.289
21001SOL    HW264938   6.323   6.209   0.331
21002SOL     OW64939   7.282   6.271   1.117
21002SOL    HW164940   7.272   6.223   1.205
21002SOL    HW264941   7.377   6.266   1.087
21003SOL     OW64942   5.916   7.149   1.679
21003SOL    HW164943   5.845   7.191   1.736
21003SOL    HW264944   5.886   7.058   1.650
21004SOL     OW64945   6.294   6.003   1.240
21004SOL    HW164946   6.239   5.919   1.232
21004SOL    HW264947   6.278   6.061   1.160
21005SOL     OW64948   6.568   7.222   1.423
21005SOL    HW164949   6.520   7.165   1.355
21005SOL    HW264950   6.567   7.317   1.392
21006SOL     OW64951   6.026   6.076   0.188
21006SOL    HW164952   6.075   6.157   0.219
21006SOL    HW264953   5.928   6.095   0.186
21007SOL     OW64954   5.755   6.681   1.457
21007SOL    HW164955   5.738   6.631   1.542
21007SOL    HW264956   5.769   6.615   1.383
21008SOL     OW64957   6.839   6.594   1.177
21008SOL    HW164958   6.850   6.524   1.106
21008SOL    HW264959   6.840   6.685   1.135
21009SOL     OW64960   6.953   6.370   0.332
21009SOL    HW164961   6.856   6.353   0.353
21009SOL    HW264962   6.965   6.373   0.233
21010SOL     OW64963   6.952   7.374   1.104
21010SOL    HW164964   7.051   7.369   1.119
21010SOL    HW264965   6.914   7.281   1.104
21011SOL     OW64966   5.677   6.789   1.034
21011SOL    HW164967   5.662   6.794   1.133
21011SOL    HW264968   5.625   6.712   0.997
21012SOL     OW64969   6.274   7.238   1.787
21012SOL    HW164970   6.226   7.321   1.760
21012SOL    HW264971   6.367   7.238   1.749
21013SOL     OW64972   6.457   5.673   0.092
21013SOL    HW164973   6.444   5.694   9.995
21013SOL    HW264974   6.534   5.610   0.103
21014SOL     OW64975   7.393   5.806   0.441
21014SOL    HW164976   7.458   5.767   0.375
21014SOL    HW264977   7.330   5.734   0.470
21015SOL     OW64978   6.984   7.204   0.462
21015SOL    HW164979   7.035   7.240   0.385
21015SOL    HW264980   6.919   7.272   0.495
21016SOL     OW64981   5.734   7.316   1.808
21016SOL    HW164982   5.658   7.269   1.852
21016SOL    HW264983   5.785   7.368   1.876
21017SOL     OW64984   6.885   6.530   0.660
21017SOL    HW164985   6.962   6.469   0.681
21017SOL    HW264986   6.920   6.614   0.617
21018SOL     OW64987   6.313   6.881   1.439
21018SOL    HW164988   6.291   6.915   1.531
21018SOL    HW264989   6.230   6.882   1.383
21019SOL     OW64990   6.261   7.236   0.193
21019SOL    HW164991   6.330   7.180   0.146
21019SOL    HW264992   6.170   7.199   0.176
21020SOL     OW64993   7.219   7.291   1.424
21020SOL    HW164994   7.227   7.222   1.497
21020SOL    HW264995   7.250   7.380   1.459
21021SOL     OW64996   7.367   5.778   0.970
21021SOL    HW164997   7.390   5.686   0.939
21021SOL    HW264998   7.286   5.811   0.921
21022SOL     OW64999   5.816   5.862   0.703
21022SOL    HW165000   5.734   5.911   0.675
21022SOL    HW265001   5.822   5.862   0.803
21023SOL     OW65002   6.394   6.626   1.400
21023SOL    HW165003   6.459   6.625   1.324
21023SOL    HW265004   6.366   6.720   1.419
21024SOL     OW65005   6.606   6.521   0.270
21024SOL    HW165006   6.657   6.531   0.185
21024SOL    HW265007   6.627   6.433   0.312
21025SOL     OW65008   7.150   7.152   0.027
21025SOL    HW165009   7.093   7.161   9.945
21025SOL    HW265010   7.245   7.173   0.004
21026SOL     OW65011   5.880   6.910   1.541
21026SOL    HW165012   5.898   6.969   1.462
21026SOL    HW265013   5.835   6.826   1.510
21027SOL     OW65014   7.170   6.896   1.282
21027SOL    HW165015   7.230   6.858   1.353
21027SOL    HW265016   7.106   6.960   1.324
21028SOL     OW65017   6.724   6.691   0.819
21028SOL    HW165018   6.636   6.649   0.840
21028SOL    HW265019   6.778   6.629   0.762
21029SOL     OW65020   6.601   5.836   0.937
21029SOL    HW165021   6.593   5.765   0.867
21029SOL    HW265022   6.679   5.817   0.996
21030SOL     OW65023   6.222   7.026   0.510
21030SOL    HW165024   6.282   6.990   0.438
21030SOL    HW265025   6.182   7.112   0.480
21031SOL     OW65026   7.436   5.931   1.420
21031SOL    HW165027   7.471   6.015   1.378
21031SOL    HW265028   7.413   5.865   1.349
21032SOL     OW65029   5.819   6.985   0.324
21032SOL    HW165030   5.741   6.943   0.276
21032SOL    HW265031   5.796   6.997   0.420
21033SOL     OW65032   5.734   6.557   1.711
21033SOL    HW165033   5.658   6.562   1.776
21033SOL    HW265034   5.820   6.570   1.759
21034SOL     OW65035   6.301   5.804   1.554
21034SOL    HW165036   6.395   5.817   1.521
21034SOL    HW265037   6.297   5.826   1.651
21035SOL     OW65038   6.967   6.394   1.332
21035SOL    HW165039   6.898   6.448   1.283
21035SOL    HW265040   7.058   6.427   1.308
21036SOL     OW65041   5.665   5.658   0.273
21036SOL    HW165042   5.603   5.671   0.196
21036SOL    HW265043   5.759   5.654   0.240
21037SOL     OW65044   6.831   6.935   0.174
21037SOL    HW165045   6.735   6.913   0.156
21037SOL    HW265046   6.846   6.939   0.273
21038SOL     OW65047   6.224   6.413   1.441
21038SOL    HW165048   6.284   6.491   1.427
21038SOL    HW265049   6.279   6.329   1.442
21039SOL     OW65050   6.256   6.127   1.718
21039SOL    HW165051   6.311   6.198   1.762
21039SOL    HW265052   6.271   6.039   1.763
21040SOL     OW65053   7.122   6.866   1.680
21040SOL    HW165054   7.039   6.869   1.735
21040SOL    HW265055   7.177   6.787   1.708
21041SOL     OW65056   5.958   7.374   1.544
21041SOL    HW165057   5.865   7.410   1.539
21041SOL    HW265058   5.956   7.283   1.587
21042SOL     OW65059   7.197   6.507   1.229
21042SOL    HW165060   7.233   6.433   1.172
21042SOL    HW265061   7.172   6.584   1.171
21043SOL     OW65062   6.792   5.895   0.417
21043SOL    HW165063   6.856   5.819   0.427
21043SOL    HW265064   6.799   5.956   0.496
21044SOL     OW65065   6.115   6.360   0.691
21044SOL    HW165066   6.194   6.416   0.664
21044SOL    HW265067   6.067   6.329   0.610
21045SOL     OW65068   7.317   5.989   1.656
21045SOL    HW165069   7.361   5.972   1.568
21045SOL    HW265070   7.237   5.930   1.666
21046SOL     OW65071   7.313   6.546   1.468
21046SOL    HW165072   7.333   6.644   1.476
21046SOL    HW265073   7.270   6.528   1.379
21047SOL     OW65074   6.418   7.017   0.090
21047SOL    HW165075   6.429   6.977   0.181
21047SOL    HW265076   6.325   7.001   0.058
21048SOL     OW65077   6.275   7.288   0.988
21048SOL    HW165078   6.244   7.381   0.968
21048SOL    HW265079   6.375   7.287   0.995
21049SOL     OW65080   6.488   6.559   0.877
21049SOL    HW165081   6.530   6.470   0.894
21049SOL    HW265082   6.434   6.586   0.958
21050SOL     OW65083   6.762   6.520   0.041
21050SOL    HW165084   6.776   6.580   9.962
21050SOL    HW265085   6.843   6.463   0.054
21051SOL     OW65086   7.445   6.973   0.895
21051SOL    HW165087   7.393   7.011   0.971
21051SOL    HW265088   7.512   6.907   0.930
21052SOL     OW65089   5.691   6.813   0.684
21052SOL    HW165090   5.759   6.766   0.740
21052SOL    HW265091   5.731   6.896   0.644
21053SOL     OW65092   6.238   6.970   1.694
21053SOL    HW165093   6.148   6.932   1.715
21053SOL    HW265094   6.241   7.066   1.720
21054SOL     OW65095   7.360   5.733   1.242
21054SOL    HW165096   7.374   5.634   1.239
21054SOL    HW265097   7.355   5.769   1.149
21055SOL     OW65098   5.993   5.995   0.533
21055SOL    HW165099   6.037   5.933   0.468
21055SOL    HW265100   5.936   5.942   0.596
21056SOL     OW65101   7.326   7.058   1.129
21056SOL    HW165102   7.278   7.145   1.130
21056SOL    HW265103   7.272   6.989   1.176
21057SOL     OW65104   5.958   6.127   1.285
21057SOL    HW165105   6.007   6.058   1.338
21057SOL    HW265106   5.934   6.090   1.196
21058SOL     OW65107   6.414   7.176   0.706
21058SOL    HW165108   6.404   7.202   0.610
21058SOL    HW265109   6.343   7.109   0.730
21059SOL     OW65110   6.825   5.807   1.095
21059SOL    HW165111   6.853   5.716   1.126
21059SOL    HW265112   6.814   5.867   1.173
21060SOL     OW65113   6.426   6.916   0.347
21060SOL    HW165114   6.418   6.818   0.365
21060SOL    HW265115   6.498   6.955   0.405
21061SOL     OW65116   6.182   7.176   1.295
21061SOL    HW165117   6.177   7.272   1.321
21061SOL    HW265118   6.276   7.151   1.276
21062SOL     OW65119   6.899   5.628   0.188
21062SOL    HW165120   6.945   5.600   0.103
21062SOL    HW265121   6.806   5.594   0.189
21063SOL     OW65122   6.806   6.042   0.639
21063SOL    HW165123   6.779   6.138   0.649
21063SOL    HW265124   6.842   6.009   0.726
21064SOL     OW65125   5.627   6.630   0.307
21064SOL    HW165126   5.726   6.642   0.296
21064SOL    HW265127   5.605   6.533   0.305
21065SOL     OW65128   6.448   7.259   0.431
21065SOL    HW165129   6.396   7.252   0.346
21065SOL    HW265130   6.448   7.354   0.462
21066SOL     OW65131   5.767   6.135   1.965
21066SOL    HW165132   5.679   6.155   2.009
21066SOL    HW265133   5.752   6.121   1.867
21067SOL     OW65134   5.768   5.880   2.916
21067SOL    HW165135   5.826   5.831   2.980
21067SOL    HW265136   5.672   5.864   2.939
21068SOL     OW65137   6.226   6.916   3.020
21068SOL    HW165138   6.141   6.926   2.969
21068SOL    HW265139   6.217   6.960   3.109
21069SOL     OW65140   7.189   7.053   2.580
21069SOL    HW165141   7.133   7.016   2.655
21069SOL    HW265142   7.132   7.104   2.517
21070SOL     OW65143   6.640   6.402   2.505
21070SOL    HW165144   6.714   6.465   2.480
21070SOL    HW265145   6.637   6.392   2.604
21071SOL     OW65146   7.388   6.187   2.032
21071SOL    HW165147   7.352   6.212   1.942
21071SOL    HW265148   7.334   6.112   2.070
21072SOL     OW65149   6.359   6.680   2.949
21072SOL    HW165150   6.304   6.761   2.973
21072SOL    HW265151   6.456   6.700   2.963
21073SOL     OW65152   6.473   6.313   3.704
21073SOL    HW165153   6.470   6.363   3.790
21073SOL    HW265154   6.487   6.377   3.628
21074SOL     OW65155   6.200   6.565   2.555
21074SOL    HW165156   6.287   6.573   2.602
21074SOL    HW265157   6.126   6.594   2.615
21075SOL     OW65158   6.261   6.786   3.705
21075SOL    HW165159   6.310   6.858   3.755
21075SOL    HW265160   6.184   6.826   3.656
21076SOL     OW65161   5.980   6.965   2.901
21076SOL    HW165162   5.913   6.897   2.871
21076SOL    HW265163   6.003   7.025   2.824
21077SOL     OW65164   7.009   7.081   3.214
21077SOL    HW165165   7.067   7.160   3.231
21077SOL    HW265166   6.943   7.071   3.289
21078SOL     OW65167   6.063   5.942   3.316
21078SOL    HW165168   6.143   5.886   3.334
21078SOL    HW265169   5.982   5.898   3.354
21079SOL     OW65170   7.231   5.986   2.705
21079SOL    HW165171   7.143   6.026   2.681
21079SOL    HW265172   7.275   6.042   2.775
21080SOL     OW65173   5.828   7.312   2.328
21080SOL    HW165174   5.851   7.381   2.398
21080SOL    HW265175   5.904   7.305   2.263
21081SOL     OW65176   6.688   6.914   3.671
21081SOL    HW165177   6.745   6.904   3.752
21081SOL    HW265178   6.626   6.836   3.663
21082SOL     OW65179   5.716   7.062   2.353
21082SOL    HW165180   5.756   7.153   2.357
21082SOL    HW265181   5.712   7.023   2.446
21083SOL     OW65182   5.978   6.626   2.709
21083SOL    HW165183   5.971   6.534   2.747
21083SOL    HW265184   5.921   6.688   2.762
21084SOL     OW65185   6.142   6.623   2.047
21084SOL    HW165186   6.202   6.678   1.989
21084SOL    HW265187   6.190   6.595   2.129
21085SOL     OW65188   5.684   6.255   2.451
21085SOL    HW165189   5.660   6.160   2.470
21085SOL    HW265190   5.704   6.303   2.536
21086SOL     OW65191   7.453   7.357   2.211
21086SOL    HW165192   7.539   7.341   2.259
21086SOL    HW265193   7.461   7.438   2.153
21087SOL     OW65194   5.548   7.189   1.960
21087SOL    HW165195   5.561   7.091   1.975
21087SOL    HW265196   5.575   7.239   2.042
21088SOL     OW65197   7.288   6.555   2.495
21088SOL    HW165198   7.370   6.499   2.508
21088SOL    HW265199   7.290   6.597   2.404
21089SOL     OW65200   7.299   6.691   2.252
21089SOL    HW165201   7.385   6.660   2.210
21089SOL    HW265202   7.318   6.772   2.308
21090SOL     OW65203   5.695   6.369   3.394
21090SOL    HW165204   5.761   6.419   3.338
21090SOL    HW265205   5.609   6.420   3.396
21091SOL     OW65206   6.228   7.016   2.525
21091SOL    HW165207   6.251   6.927   2.563
21091SOL    HW265208   6.198   7.005   2.430
21092SOL     OW65209   6.856   6.788   3.280
21092SOL    HW165210   6.859   6.707   3.222
21092SOL    HW265211   6.925   6.781   3.352
21093SOL     OW65212   6.410   5.598   2.369
21093SOL    HW165213   6.455   5.679   2.331
21093SOL    HW265214   6.312   5.615   2.378
21094SOL     OW65215   5.819   6.515   3.187
21094SOL    HW165216   5.911   6.479   3.172
21094SOL    HW265217   5.766   6.507   3.102
21095SOL     OW65218   7.098   6.642   2.064
21095SOL    HW165219   7.032   6.579   2.104
21095SOL    HW265220   7.171   6.659   2.130
21096SOL     OW65221   5.948   5.867   3.748
21096SOL    HW165222   5.985   5.944   3.799
21096SOL    HW265223   5.861   5.892   3.708
21097SOL     OW65224   7.046   6.956   2.796
21097SOL    HW165225   6.969   6.998   2.846
21097SOL    HW265226   7.027   6.860   2.780
21098SOL     OW65227   6.145   6.249   2.163
21098SOL    HW165228   6.161   6.340   2.125
21098SOL    HW265229   6.074   6.254   2.233
21099SOL     OW65230   6.844   5.892   2.808
21099SOL    HW165231   6.748   5.865   2.804
21099SOL    HW265232   6.889   5.846   2.884
21100SOL     OW65233   6.375   6.175   3.321
21100SOL    HW165234   6.346   6.145   3.411
21100SOL    HW265235   6.346   6.108   3.253
21101SOL     OW65236   6.979   6.065   3.530
21101SOL    HW165237   6.975   6.095   3.625
21101SOL    HW265238   7.071   6.032   3.509
21102SOL     OW65239   6.521   6.486   3.479
21102SOL    HW165240   6.573   6.419   3.427
21102SOL    HW265241   6.473   6.547   3.416
21103SOL     OW65242   6.577   5.965   3.061
21103SOL    HW165243   6.484   5.981   3.094
21103SOL    HW265244   6.574   5.914   2.975
21104SOL     OW65245   6.463   6.384   2.302
21104SOL    HW165246   6.528   6.392   2.378
21104SOL    HW265247   6.436   6.288   2.291
21105SOL     OW65248   5.728   6.397   2.676
21105SOL    HW165249   5.814   6.388   2.725
21105SOL    HW265250   5.674   6.471   2.715
21106SOL     OW65251   5.672   7.477   3.524
21106SOL    HW165252   5.711   7.424   3.599
21106SOL    HW265253   5.582   7.512   3.551
21107SOL     OW65254   6.535   5.998   2.066
21107SOL    HW165255   6.572   6.076   2.016
21107SOL    HW265256   6.541   5.916   2.009
21108SOL     OW65257   7.297   6.137   3.670
21108SOL    HW165258   7.276   6.231   3.646
21108SOL    HW265259   7.273   6.077   3.593
21109SOL     OW65260   6.943   6.793   2.305
21109SOL    HW165261   7.039   6.797   2.277
21109SOL    HW265262   6.900   6.882   2.290
21110SOL     OW65263   6.141   5.704   2.811
21110SOL    HW165264   6.153   5.736   2.905
21110SOL    HW265265   6.139   5.782   2.749
21111SOL     OW65266   5.914   7.369   2.758
21111SOL    HW165267   5.959   7.282   2.737
21111SOL    HW265268   5.981   7.434   2.794
21112SOL     OW65269   7.372   6.653   2.749
21112SOL    HW165270   7.320   6.645   2.664
21112SOL    HW265271   7.308   6.656   2.827
21113SOL     OW65272   6.833   7.078   3.422
21113SOL    HW165273   6.872   7.033   3.502
21113SOL    HW265274   6.734   7.065   3.422
21114SOL     OW65275   7.039   6.503   2.578
21114SOL    HW165276   7.040   6.425   2.640
21114SOL    HW265277   7.131   6.518   2.542
21115SOL     OW65278   6.038   6.913   3.597
21115SOL    HW165279   6.026   6.939   3.501
21115SOL    HW265280   5.948   6.894   3.637
21116SOL     OW65281   6.593   7.470   1.980
21116SOL    HW165282   6.516   7.446   2.038
21116SOL    HW265283   6.637   7.387   1.947
21117SOL     OW65284   5.812   5.829   3.364
21117SOL    HW165285   5.738   5.893   3.344
21117SOL    HW265286   5.776   5.753   3.419
21118SOL     OW65287   7.336   6.881   1.932
21118SOL    HW165288   7.276   6.959   1.913
21118SOL    HW265289   7.300   6.800   1.886
21119SOL     OW65290   6.048   7.332   2.164
21119SOL    HW165291   6.095   7.391   2.230
21119SOL    HW265292   6.113   7.266   2.126
21120SOL     OW65293   6.994   5.676   2.317
21120SOL    HW165294   6.993   5.658   2.219
21120SOL    HW265295   7.085   5.657   2.354
21121SOL     OW65296   5.733   7.426   3.112
21121SOL    HW165297   5.745   7.364   3.190
21121SOL    HW265298   5.716   7.372   3.029
21122SOL     OW65299   6.481   7.259   2.830
21122SOL    HW165300   6.483   7.180   2.890
21122SOL    HW265301   6.466   7.229   2.736
21123SOL     OW65302   5.952   6.244   2.357
21123SOL    HW165303   5.965   6.145   2.372
21123SOL    HW265304   5.856   6.267   2.373
21124SOL     OW65305   6.198   5.672   1.998
21124SOL    HW165306   6.229   5.585   2.038
21124SOL    HW265307   6.148   5.653   1.914
21125SOL     OW65308   6.365   5.854   3.622
21125SOL    HW165309   6.452   5.805   3.622
21125SOL    HW265310   6.308   5.822   3.698
21126SOL     OW65311   6.472   7.043   2.989
21126SOL    HW165312   6.384   6.996   2.990
21126SOL    HW265313   6.529   7.009   3.064
21127SOL     OW65314   6.865   6.176   3.311
21127SOL    HW165315   6.905   6.140   3.395
21127SOL    HW265316   6.905   6.266   3.291
21128SOL     OW65317   6.520   6.106   2.731
21128SOL    HW165318   6.516   6.090   2.632
21128SOL    HW265319   6.549   6.022   2.777
21129SOL     OW65320   6.151   5.661   2.380
21129SOL    HW165321   6.079   5.666   2.450
21129SOL    HW265322   6.138   5.735   2.314
21130SOL     OW65323   6.929   6.766   1.871
21130SOL    HW165324   6.990   6.729   1.941
21130SOL    HW265325   6.862   6.827   1.915
21131SOL     OW65326   5.855   5.622   2.048
21131SOL    HW165327   5.902   5.700   2.005
21131SOL    HW265328   5.920   5.573   2.107
21132SOL     OW65329   6.534   5.817   2.280
21132SOL    HW165330   6.529   5.882   2.204
21132SOL    HW265331   6.628   5.810   2.313
21133SOL     OW65332   6.617   6.299   3.301
21133SOL    HW165333   6.537   6.240   3.311
21133SOL    HW265334   6.700   6.244   3.305
21134SOL     OW65335   6.802   7.370   2.454
21134SOL    HW165336   6.842   7.434   2.389
21134SOL    HW265337   6.728   7.415   2.504
21135SOL     OW65338   6.624   6.191   1.886
21135SOL    HW165339   6.539   6.238   1.861
21135SOL    HW265340   6.701   6.252   1.873
21136SOL     OW65341   5.700   6.146   3.240
21136SOL    HW165342   5.798   6.139   3.218
21136SOL    HW265343   5.686   6.222   3.304
21137SOL     OW65344   6.161   5.776   3.072
21137SOL    HW165345   6.201   5.705   3.129
21137SOL    HW265346   6.062   5.780   3.088
21138SOL     OW65347   6.532   6.040   2.463
21138SOL    HW165348   6.470   6.088   2.401
21138SOL    HW265349   6.528   5.942   2.446
21139SOL     OW65350   6.491   5.670   2.624
21139SOL    HW165351   6.460   5.652   2.531
21139SOL    HW265352   6.515   5.584   2.669
21140SOL     OW65353   6.992   6.689   2.775
21140SOL    HW165354   6.915   6.643   2.818
21140SOL    HW265355   7.016   6.641   2.690
21141SOL     OW65356   7.029   6.301   2.759
21141SOL    HW165357   7.002   6.215   2.715
21141SOL    HW265358   7.082   6.281   2.841
21142SOL     OW65359   7.465   6.374   2.219
21142SOL    HW165360   7.495   6.322   2.299
21142SOL    HW265361   7.434   6.311   2.148
21143SOL     OW65362   6.052   6.960   2.022
21143SOL    HW165363   5.959   6.975   2.058
21143SOL    HW265364   6.046   6.915   1.933
21144SOL     OW65365   7.356   6.889   2.428
21144SOL    HW165366   7.449   6.899   2.462
21144SOL    HW265367   7.295   6.949   2.479
21145SOL     OW65368   7.023   6.195   1.911
21145SOL    HW165369   7.017   6.201   2.011
21145SOL    HW265370   7.118   6.205   1.882
21146SOL     OW65371   6.096   5.839   2.187
21146SOL    HW165372   6.140   5.779   2.120
21146SOL    HW265373   6.061   5.921   2.141
21147SOL     OW65374   7.332   6.804   3.381
21147SOL    HW165375   7.421   6.767   3.355
21147SOL    HW265376   7.345   6.892   3.427
21148SOL     OW65377   6.645   6.934   3.185
21148SOL    HW165378   6.567   6.929   3.247
21148SOL    HW265379   6.725   6.894   3.228
21149SOL     OW65380   7.196   7.189   3.523
21149SOL    HW165381   7.175   7.230   3.434
21149SOL    HW265382   7.280   7.135   3.515
21150SOL     OW65383   6.618   6.755   2.985
21150SOL    HW165384   6.625   6.817   3.063
21150SOL    HW265385   6.663   6.796   2.905
21151SOL     OW65386   7.192   6.675   2.959
21151SOL    HW165387   7.188   6.745   3.030
21151SOL    HW265388   7.113   6.685   2.898
21152SOL     OW65389   6.519   5.644   3.252
21152SOL    HW165390   6.539   5.627   3.155
21152SOL    HW265391   6.597   5.691   3.294
21153SOL     OW65392   6.525   6.689   3.662
21153SOL    HW165393   6.431   6.719   3.677
21153SOL    HW265394   6.526   6.616   3.593
21154SOL     OW65395   6.259   6.558   2.287
21154SOL    HW165396   6.223   6.566   2.380
21154SOL    HW265397   6.334   6.491   2.287
21155SOL     OW65398   6.056   6.390   3.151
21155SOL    HW165399   6.119   6.404   3.227
21155SOL    HW265400   6.020   6.297   3.154
21156SOL     OW65401   6.822   5.951   3.167
21156SOL    HW165402   6.843   6.035   3.217
21156SOL    HW265403   6.732   5.960   3.124
21157SOL     OW65404   5.604   7.095   3.162
21157SOL    HW165405   5.550   7.170   3.124
21157SOL    HW265406   5.701   7.113   3.149
21158SOL     OW65407   6.117   6.097   2.744
21158SOL    HW165408   6.121   6.157   2.664
21158SOL    HW265409   6.194   6.115   2.804
21159SOL     OW65410   6.835   7.042   2.275
21159SOL    HW165411   6.914   7.096   2.303
21159SOL    HW265412   6.761   7.055   2.341
21160SOL     OW65413   6.819   7.082   3.017
21160SOL    HW165414   6.903   7.084   3.072
21160SOL    HW265415   6.744   7.047   3.072
21161SOL     OW65416   5.872   7.113   3.106
21161SOL    HW165417   5.908   7.057   3.031
21161SOL    HW265418   5.921   7.200   3.108
21162SOL     OW65419   6.081   6.282   3.538
21162SOL    HW165420   6.122   6.339   3.467
21162SOL    HW265421   6.146   6.211   3.565
21163SOL     OW65422   7.232   6.382   3.574
21163SOL    HW165423   7.137   6.413   3.566
21163SOL    HW265424   7.283   6.411   3.494
21164SOL     OW65425   6.590   5.707   3.633
21164SOL    HW165426   6.648   5.788   3.629
21164SOL    HW265427   6.644   5.626   3.609
21165SOL     OW65428   6.084   5.652   3.643
21165SOL    HW165429   6.028   5.594   3.584
21165SOL    HW265430   6.034   5.736   3.664
21166SOL     OW65431   6.209   6.441   2.931
21166SOL    HW165432   6.264   6.525   2.936
21166SOL    HW265433   6.156   6.430   3.015
21167SOL     OW65434   6.836   6.468   2.851
21167SOL    HW165435   6.746   6.434   2.824
21167SOL    HW265436   6.907   6.406   2.817
21168SOL     OW65437   5.894   5.751   3.116
21168SOL    HW165438   5.870   5.782   3.208
21168SOL    HW265439   5.869   5.654   3.107
21169SOL     OW65440   5.689   6.841   3.093
21169SOL    HW165441   5.715   6.800   3.180
21169SOL    HW265442   5.644   6.928   3.109
21170SOL     OW65443   6.319   6.188   2.905
21170SOL    HW165444   6.391   6.172   2.837
21170SOL    HW265445   6.287   6.282   2.898
21171SOL     OW65446   7.360   6.562   3.737
21171SOL    HW165447   7.314   6.489   3.687
21171SOL    HW265448   7.307   6.586   3.818
21172SOL     OW65449   5.943   5.685   2.545
21172SOL    HW165450   5.900   5.767   2.581
21172SOL    HW265451   5.931   5.610   2.611
21173SOL     OW65452   7.210   6.000   2.133
21173SOL    HW165453   7.250   5.945   2.206
21173SOL    HW265454   7.146   6.067   2.172
21174SOL     OW65455   6.589   6.366   2.783
21174SOL    HW165456   6.567   6.377   2.880
21174SOL    HW265457   6.572   6.271   2.756
21175SOL     OW65458   6.560   7.062   3.481
21175SOL    HW165459   6.566   7.162   3.490
21175SOL    HW265460   6.598   7.019   3.563
21176SOL     OW65461   7.427   7.048   3.467
21176SOL    HW165462   7.464   7.080   3.380
21176SOL    HW265463   7.501   7.045   3.535
21177SOL     OW65464   5.967   6.497   3.669
21177SOL    HW165465   6.033   6.534   3.734
21177SOL    HW265466   6.005   6.417   3.624
21178SOL     OW65467   7.109   5.826   1.940
21178SOL    HW165468   7.059   5.754   1.988
21178SOL    HW265469   7.145   5.892   2.006
21179SOL     OW65470   6.832   6.368   1.834
21179SOL    HW165471   6.905   6.305   1.860
21179SOL    HW265472   6.868   6.434   1.768
21180SOL     OW65473   5.957   6.380   2.828
21180SOL    HW165474   6.053   6.396   2.854
21180SOL    HW265475   5.931   6.287   2.853
21181SOL     OW65476   5.894   6.116   2.891
21181SOL    HW165477   5.842   6.031   2.898
21181SOL    HW265478   5.971   6.102   2.828
21182SOL     OW65479   6.734   5.934   3.577
21182SOL    HW165480   6.681   5.989   3.642
21182SOL    HW265481   6.823   5.977   3.562
21183SOL     OW65482   6.740   5.771   3.355
21183SOL    HW165483   6.731   5.824   3.439
21183SOL    HW265484   6.775   5.829   3.282
21184SOL     OW65485   5.578   6.855   1.997
21184SOL    HW165486   5.494   6.893   2.034
21184SOL    HW265487   5.594   6.764   2.036
21185SOL     OW65488   5.660   7.346   2.851
21185SOL    HW165489   5.611   7.282   2.791
21185SOL    HW265490   5.753   7.358   2.816
21186SOL     OW65491   6.063   7.138   2.711
21186SOL    HW165492   6.127   7.197   2.762
21186SOL    HW265493   6.111   7.099   2.632
21187SOL     OW65494   6.521   6.361   3.045
21187SOL    HW165495   6.570   6.357   3.133
21187SOL    HW265496   6.449   6.292   3.044
21188SOL     OW65497   5.623   6.199   2.981
21188SOL    HW165498   5.704   6.188   2.924
21188SOL    HW265499   5.647   6.181   3.076
21189SOL     OW65500   5.816   6.217   3.594
21189SOL    HW165501   5.913   6.227   3.575
21189SOL    HW265502   5.763   6.273   3.531
21190SOL     OW65503   6.987   6.491   3.517
21190SOL    HW165504   7.008   6.589   3.514
21190SOL    HW265505   6.968   6.458   3.425
21191SOL     OW65506   6.383   6.133   2.252
21191SOL    HW165507   6.427   6.080   2.180
21191SOL    HW265508   6.291   6.159   2.222
21192SOL     OW65509   7.166   6.224   2.981
21192SOL    HW165510   7.118   6.156   3.037
21192SOL    HW265511   7.256   6.189   2.955
21193SOL     OW65512   5.754   7.116   3.553
21193SOL    HW165513   5.766   7.191   3.618
21193SOL    HW265514   5.769   7.029   3.601
21194SOL     OW65515   6.312   6.009   3.112
21194SOL    HW165516   6.252   5.929   3.102
21194SOL    HW265517   6.300   6.070   3.033
21195SOL     OW65518   6.008   6.047   2.035
21195SOL    HW165519   6.069   6.118   2.071
21195SOL    HW265520   5.917   6.086   2.019
21196SOL     OW65521   5.753   6.727   3.340
21196SOL    HW165522   5.749   6.699   3.436
21196SOL    HW265523   5.784   6.651   3.284
21197SOL     OW65524   6.809   6.581   3.093
21197SOL    HW165525   6.832   6.529   3.011
21197SOL    HW265526   6.728   6.637   3.076
21198SOL     OW65527   6.893   6.480   2.172
21198SOL    HW165528   6.868   6.514   2.263
21198SOL    HW265529   6.824   6.510   2.105
21199SOL     OW65530   7.374   7.264   3.019
21199SOL    HW165531   7.429   7.294   2.941
21199SOL    HW265532   7.332   7.175   2.997
21200SOL     OW65533   6.864   7.368   2.961
21200SOL    HW165534   6.961   7.367   2.938
21200SOL    HW265535   6.834   7.276   2.984
21201SOL     OW65536   5.778   6.778   2.845
21201SOL    HW165537   5.749   6.801   2.938
21201SOL    HW265538   5.710   6.719   2.802
21202SOL     OW65539   7.342   5.829   2.306
21202SOL    HW165540   7.403   5.800   2.232
21202SOL    HW265541   7.300   5.749   2.348
21203SOL     OW65542   7.030   7.201   2.405
21203SOL    HW165543   7.096   7.233   2.338
21203SOL    HW265544   6.965   7.274   2.426
21204SOL     OW65545   5.770   7.326   3.727
21204SOL    HW165546   5.733   7.269   3.800
21204SOL    HW265547   5.825   7.400   3.767
21205SOL     OW65548   6.832   6.585   2.429
21205SOL    HW165549   6.904   6.550   2.488
21205SOL    HW265550   6.862   6.669   2.384
21206SOL     OW65551   6.406   6.911   3.322
21206SOL    HW165552   6.455   6.960   3.394
21206SOL    HW265553   6.321   6.960   3.300
21207SOL     OW65554   6.240   7.157   2.043
21207SOL    HW165555   6.255   7.190   1.950
21207SOL    HW265556   6.170   7.086   2.042
21208SOL     OW65557   7.161   7.300   3.271
21208SOL    HW165558   7.236   7.310   3.205
21208SOL    HW265559   7.127   7.391   3.297
21209SOL     OW65560   7.422   5.721   2.895
21209SOL    HW165561   7.453   5.633   2.858
21209SOL    HW265562   7.325   5.734   2.873
21210SOL     OW65563   5.840   5.912   2.651
21210SOL    HW165564   5.762   5.958   2.608
21210SOL    HW265565   5.819   5.895   2.747
21211SOL     OW65566   6.713   7.246   1.892
21211SOL    HW165567   6.727   7.158   1.937
21211SOL    HW265568   6.654   7.233   1.812
21212SOL     OW65569   6.391   6.636   3.289
21212SOL    HW165570   6.403   6.623   3.191
21212SOL    HW265571   6.392   6.734   3.310
21213SOL     OW65572   6.464   6.462   2.044
21213SOL    HW165573   6.552   6.506   2.025
21213SOL    HW265574   6.461   6.432   2.139
21214SOL     OW65575   5.957   6.950   3.317
21214SOL    HW165576   5.910   7.009   3.251
21214SOL    HW265577   5.900   6.870   3.336
21215SOL     OW65578   7.175   6.863   3.159
21215SOL    HW165579   7.230   6.840   3.239
21215SOL    HW265580   7.105   6.930   3.185
21216SOL     OW65581   6.567   6.715   2.477
21216SOL    HW165582   6.521   6.670   2.554
21216SOL    HW265583   6.656   6.672   2.462
21217SOL     OW65584   6.580   5.814   2.834
21217SOL    HW165585   6.541   5.780   2.748
21217SOL    HW265586   6.594   5.738   2.897
21218SOL     OW65587   6.177   6.943   2.271
21218SOL    HW165588   6.257   6.884   2.264
21218SOL    HW265589   6.126   6.940   2.185
21219SOL     OW65590   5.798   6.983   2.107
21219SOL    HW165591   5.725   6.932   2.061
21219SOL    HW265592   5.767   7.010   2.198
21220SOL     OW65593   5.737   6.627   3.593
21220SOL    HW165594   5.655   6.596   3.641
21220SOL    HW265595   5.816   6.572   3.622
21221SOL     OW65596   6.292   5.770   3.370
21221SOL    HW165597   6.374   5.734   3.326
21221SOL    HW265598   6.316   5.809   3.459
21222SOL     OW65599   5.605   5.879   1.851
21222SOL    HW165600   5.506   5.892   1.854
21222SOL    HW265601   5.644   5.939   1.780
21223SOL     OW65602   6.965   6.423   3.254
21223SOL    HW165603   6.897   6.476   3.203
21223SOL    HW265604   7.055   6.436   3.213
21224SOL     OW65605   5.599   5.709   2.071
21224SOL    HW165606   5.590   5.771   1.993
21224SOL    HW265607   5.694   5.680   2.080
21225SOL     OW65608   6.722   6.993   2.014
21225SOL    HW165609   6.625   6.978   2.033
21225SOL    HW265610   6.772   7.007   2.099
21226SOL     OW65611   6.235   6.412   3.347
21226SOL    HW165612   6.287   6.497   3.340
21226SOL    HW265613   6.297   6.334   3.338
21227SOL     OW65614   7.127   7.351   2.892
21227SOL    HW165615   7.149   7.341   2.795
21227SOL    HW265616   7.205   7.325   2.947
21228SOL     OW65617   6.307   6.123   3.580
21228SOL    HW165618   6.365   6.184   3.634
21228SOL    HW265619   6.331   6.028   3.601
21229SOL     OW65620   7.066   6.753   3.482
21229SOL    HW165621   7.060   6.773   3.580
21229SOL    HW265622   7.158   6.772   3.450
21230SOL     OW65623   5.768   7.294   3.344
21230SOL    HW165624   5.734   7.370   3.398
21230SOL    HW265625   5.780   7.214   3.402
21231SOL     OW65626   7.204   6.456   3.122
21231SOL    HW165627   7.196   6.373   3.067
21231SOL    HW265628   7.206   6.536   3.062
21232SOL     OW65629   6.778   5.821   2.383
21232SOL    HW165630   6.863   5.772   2.363
21232SOL    HW265631   6.800   5.913   2.416
21233SOL     OW65632   6.137   6.292   2.554
21233SOL    HW165633   6.168   6.387   2.551
21233SOL    HW265634   6.072   6.275   2.480
21234SOL     OW65635   7.346   6.495   3.353
21234SOL    HW165636   7.338   6.592   3.375
21234SOL    HW265637   7.299   6.476   3.267
21235SOL     OW65638   6.454   6.965   2.070
21235SOL    HW165639   6.442   6.905   2.149
21235SOL    HW265640   6.386   7.039   2.074
21236SOL     OW65641   6.214   7.310   2.845
21236SOL    HW165642   6.187   7.407   2.841
21236SOL    HW265643   6.314   7.303   2.846
21237SOL     OW65644   6.435   6.588   2.697
21237SOL    HW165645   6.488   6.506   2.716
21237SOL    HW265646   6.404   6.630   2.782
21238SOL     OW65647   6.710   6.559   1.978
21238SOL    HW165648   6.667   6.625   1.916
21238SOL    HW265649   6.753   6.486   1.924
21239SOL     OW65650   7.428   7.110   2.709
21239SOL    HW165651   7.344   7.092   2.657
21239SOL    HW265652   7.458   7.026   2.754
21240SOL     OW65653   5.780   6.877   3.681
21240SOL    HW165654   5.764   6.785   3.645
21240SOL    HW265655   5.728   6.889   3.765
21241SOL     OW65656   5.700   6.918   2.593
21241SOL    HW165657   5.716   6.919   2.692
21241SOL    HW265658   5.759   6.849   2.551
21242SOL     OW65659   7.538   5.693   3.141
21242SOL    HW165660   7.592   5.611   3.125
21242SOL    HW265661   7.476   5.708   3.064
21243SOL     OW65662   5.981   5.987   2.408
21243SOL    HW165663   6.018   5.915   2.349
21243SOL    HW265664   5.956   5.947   2.496
21244SOL     OW65665   7.253   7.034   2.961
21244SOL    HW165666   7.187   7.012   2.890
21244SOL    HW265667   7.242   6.970   3.038
21245SOL     OW65668   5.959   6.139   3.162
21245SOL    HW165669   6.007   6.068   3.214
21245SOL    HW265670   5.954   6.112   3.066
21246SOL     OW65671   6.441   7.189   2.576
21246SOL    HW165672   6.524   7.159   2.528
21246SOL    HW265673   6.363   7.134   2.546
21247SOL     OW65674   6.963   5.771   3.022
21247SOL    HW165675   6.930   5.679   3.042
21247SOL    HW265676   6.919   5.836   3.083
21248SOL     OW65677   6.622   5.586   2.986
21248SOL    HW165678   6.585   5.522   2.919
21248SOL    HW265679   6.715   5.558   3.011
21249SOL     OW65680   6.404   6.789   2.272
21249SOL    HW165681   6.353   6.704   2.261
21249SOL    HW265682   6.472   6.779   2.344
21250SOL     OW65683   6.974   5.611   2.053
21250SOL    HW165684   7.024   5.535   2.011
21250SOL    HW265685   6.876   5.590   2.055
21251SOL     OW65686   6.966   6.065   2.646
21251SOL    HW165687   6.907   6.079   2.567
21251SOL    HW265688   6.923   5.999   2.709
21252SOL     OW65689   7.160   5.745   2.832
21252SOL    HW165690   7.091   5.766   2.901
21252SOL    HW265691   7.174   5.826   2.775
21253SOL     OW65692   5.622   6.627   2.156
21253SOL    HW165693   5.722   6.628   2.148
21253SOL    HW265694   5.592   6.533   2.171
21254SOL     OW65695   6.385   7.389   2.130
21254SOL    HW165696   6.344   7.298   2.128
21254SOL    HW265697   6.395   7.419   2.225
21255SOL     OW65698   5.790   6.251   3.869
21255SOL    HW165699   5.699   6.218   3.895
21255SOL    HW265700   5.798   6.251   3.770
21256SOL     OW65701   5.785   5.887   4.737
21256SOL    HW165702   5.829   5.861   4.823
21256SOL    HW265703   5.692   5.852   4.735
21257SOL     OW65704   5.587   6.012   4.373
21257SOL    HW165705   5.503   6.034   4.423
21257SOL    HW265706   5.567   5.946   4.300
21258SOL     OW65707   6.184   6.882   5.002
21258SOL    HW165708   6.106   6.851   5.057
21258SOL    HW265709   6.190   6.982   5.007
21259SOL     OW65710   7.183   7.102   4.403
21259SOL    HW165711   7.130   7.057   4.476
21259SOL    HW265712   7.122   7.122   4.326
21260SOL     OW65713   6.719   6.272   4.386
21260SOL    HW165714   6.749   6.368   4.385
21260SOL    HW265715   6.658   6.256   4.463
21261SOL     OW65716   7.386   6.160   3.926
21261SOL    HW165717   7.351   6.161   3.832
21261SOL    HW265718   7.336   6.093   3.980
21262SOL     OW65719   6.254   6.727   4.754
21262SOL    HW165720   6.244   6.773   4.842
21262SOL    HW265721   6.229   6.789   4.680
21263SOL     OW65722   6.509   6.300   5.550
21263SOL    HW165723   6.542   6.368   5.616
21263SOL    HW265724   6.502   6.342   5.459
21264SOL     OW65725   6.291   6.548   4.353
21264SOL    HW165726   6.356   6.563   4.427
21264SOL    HW265727   6.211   6.606   4.366
21265SOL     OW65728   6.303   6.755   5.590
21265SOL    HW165729   6.367   6.827   5.615
21265SOL    HW265730   6.236   6.792   5.525
21266SOL     OW65731   6.109   5.959   5.144
21266SOL    HW165732   6.189   5.905   5.170
21266SOL    HW265733   6.031   5.932   5.201
21267SOL     OW65734   7.179   6.056   4.444
21267SOL    HW165735   7.082   6.035   4.435
21267SOL    HW265736   7.207   6.116   4.369
21268SOL     OW65737   5.887   7.300   4.278
21268SOL    HW165738   5.904   7.376   4.340
21268SOL    HW265739   5.968   7.286   4.220
21269SOL     OW65740   6.697   6.902   5.419
21269SOL    HW165741   6.785   6.880   5.461
21269SOL    HW265742   6.633   6.826   5.431
21270SOL     OW65743   5.861   7.032   4.236
21270SOL    HW165744   5.861   7.127   4.267
21270SOL    HW265745   5.819   6.974   4.306
21271SOL     OW65746   5.880   6.673   4.583
21271SOL    HW165747   5.887   6.579   4.617
21271SOL    HW265748   5.829   6.729   4.649
21272SOL     OW65749   6.188   7.339   5.255
21272SOL    HW165750   6.089   7.333   5.261
21272SOL    HW265751   6.214   7.434   5.232
21273SOL     OW65752   6.138   6.595   3.868
21273SOL    HW165753   6.176   6.661   3.803
21273SOL    HW265754   6.191   6.598   3.953
21274SOL     OW65755   7.278   5.651   5.274
21274SOL    HW165756   7.300   5.729   5.215
21274SOL    HW265757   7.211   5.679   5.343
21275SOL     OW65758   5.685   6.272   4.312
21275SOL    HW165759   5.661   6.178   4.336
21275SOL    HW265760   5.680   6.329   4.394
21276SOL     OW65761   7.422   7.376   4.098
21276SOL    HW165762   7.510   7.359   4.142
21276SOL    HW265763   7.431   7.454   4.036
21277SOL     OW65764   5.673   7.167   3.922
21277SOL    HW165765   5.647   7.071   3.936
21277SOL    HW265766   5.662   7.217   4.008
21278SOL     OW65767   7.280   6.478   4.407
21278SOL    HW165768   7.374   6.471   4.439
21278SOL    HW265769   7.275   6.543   4.331
21279SOL     OW65770   7.278   6.688   4.210
21279SOL    HW165771   7.359   6.665   4.155
21279SOL    HW265772   7.303   6.758   4.278
21280SOL     OW65773   5.696   6.351   5.267
21280SOL    HW165774   5.780   6.403   5.282
21280SOL    HW265775   5.621   6.414   5.245
21281SOL     OW65776   6.422   5.629   4.219
21281SOL    HW165777   6.467   5.717   4.202
21281SOL    HW265778   6.324   5.644   4.231
21282SOL     OW65779   5.807   6.539   5.050
21282SOL    HW165780   5.896   6.494   5.037
21282SOL    HW265781   5.752   6.526   4.967
21283SOL     OW65782   7.177   6.623   3.945
21283SOL    HW165783   7.104   6.558   3.964
21283SOL    HW265784   7.214   6.657   4.032
21284SOL     OW65785   6.881   7.498   5.345
21284SOL    HW165786   6.820   7.549   5.286
21284SOL    HW265787   6.871   7.400   5.327
21285SOL     OW65788   5.924   5.806   5.517
21285SOL    HW165789   5.981   5.870   5.569
21285SOL    HW265790   5.830   5.809   5.552
21286SOL     OW65791   7.051   6.975   4.609
21286SOL    HW165792   6.978   7.008   4.669
21286SOL    HW265793   7.034   6.878   4.587
21287SOL     OW65794   7.247   7.372   4.319
21287SOL    HW165795   7.316   7.371   4.246
21287SOL    HW265796   7.238   7.280   4.356
21288SOL     OW65797   6.146   6.292   4.028
21288SOL    HW165798   6.155   6.382   3.985
21288SOL    HW265799   6.073   6.294   4.096
21289SOL     OW65800   6.844   5.953   4.638
21289SOL    HW165801   6.762   5.895   4.638
21289SOL    HW265802   6.908   5.919   4.706
21290SOL     OW65803   7.151   7.341   4.005
21290SOL    HW165804   7.246   7.347   4.033
21290SOL    HW265805   7.144   7.283   3.923
21291SOL     OW65806   6.386   6.156   5.153
21291SOL    HW165807   6.378   6.117   5.245
21291SOL    HW265808   6.359   6.087   5.086
21292SOL     OW65809   6.974   6.035   5.365
21292SOL    HW165810   6.976   6.086   5.451
21292SOL    HW265811   7.025   5.950   5.376
21293SOL     OW65812   6.526   6.453   5.319
21293SOL    HW165813   6.584   6.393   5.265
21293SOL    HW265814   6.462   6.500   5.259
21294SOL     OW65815   6.581   5.996   4.811
21294SOL    HW165816   6.494   5.994   4.859
21294SOL    HW265817   6.594   5.910   4.761
21295SOL     OW65818   6.602   6.264   4.138
21295SOL    HW165819   6.643   6.265   4.229
21295SOL    HW265820   6.512   6.221   4.143
21296SOL     OW65821   5.665   6.446   4.525
21296SOL    HW165822   5.753   6.430   4.569
21296SOL    HW265823   5.617   6.521   4.572
21297SOL     OW65824   5.694   7.456   5.317
21297SOL    HW165825   5.708   7.412   5.406
21297SOL    HW265826   5.596   7.465   5.300
21298SOL     OW65827   6.424   5.943   3.944
21298SOL    HW165828   6.481   5.982   3.872
21298SOL    HW265829   6.365   5.872   3.905
21299SOL     OW65830   7.255   6.156   5.562
21299SOL    HW165831   7.245   6.238   5.505
21299SOL    HW265832   7.284   6.079   5.506
21300SOL     OW65833   7.005   6.736   4.294
21300SOL    HW165834   7.094   6.718   4.252
21300SOL    HW265835   6.959   6.809   4.244
21301SOL     OW65836   6.136   5.670   4.649
21301SOL    HW165837   6.142   5.717   4.737
21301SOL    HW265838   6.154   5.736   4.575
21302SOL     OW65839   6.611   6.996   4.237
21302SOL    HW165840   6.584   7.088   4.208
21302SOL    HW265841   6.577   6.978   4.329
21303SOL     OW65842   5.875   7.291   4.672
21303SOL    HW165843   5.881   7.193   4.692
21303SOL    HW265844   5.966   7.328   4.658
21304SOL     OW65845   7.424   6.713   4.606
21304SOL    HW165846   7.394   6.766   4.527
21304SOL    HW265847   7.347   6.698   4.668
21305SOL     OW65848   6.819   7.242   5.272
21305SOL    HW165849   6.835   7.145   5.293
21305SOL    HW265850   6.726   7.252   5.236
21306SOL     OW65851   5.878   6.509   3.973
21306SOL    HW165852   5.957   6.540   3.920
21306SOL    HW265853   5.851   6.418   3.941
21307SOL     OW65854   7.041   6.353   4.420
21307SOL    HW165855   7.020   6.303   4.505
21307SOL    HW265856   7.129   6.399   4.430
21308SOL     OW65857   6.087   6.854   5.424
21308SOL    HW165858   6.050   6.853   5.331
21308SOL    HW265859   6.012   6.863   5.490
21309SOL     OW65860   5.868   5.887   5.260
21309SOL    HW165861   5.769   5.886   5.245
21309SOL    HW265862   5.889   5.843   5.347
21310SOL     OW65863   7.232   6.971   3.843
21310SOL    HW165864   7.193   7.061   3.825
21310SOL    HW265865   7.172   6.900   3.805
21311SOL     OW65866   6.118   7.283   4.135
21311SOL    HW165867   6.145   7.371   4.174
21311SOL    HW265868   6.151   7.277   4.041
21312SOL     OW65869   6.971   5.683   4.172
21312SOL    HW165870   6.973   5.665   4.074
21312SOL    HW265871   7.055   5.651   4.215
21313SOL     OW65872   5.777   7.402   4.959
21313SOL    HW165873   5.834   7.323   4.979
21313SOL    HW265874   5.734   7.391   4.869
21314SOL     OW65875   6.522   7.258   4.604
21314SOL    HW165876   6.616   7.230   4.587
21314SOL    HW265877   6.459   7.191   4.565
21315SOL     OW65878   5.954   6.265   4.221
21315SOL    HW165879   5.964   6.166   4.231
21315SOL    HW265880   5.860   6.292   4.240
21316SOL     OW65881   7.096   5.789   5.446
21316SOL    HW165882   7.091   5.806   5.544
21316SOL    HW265883   7.023   5.725   5.420
21317SOL     OW65884   6.253   5.728   3.848
21317SOL    HW165885   6.312   5.652   3.876
21317SOL    HW265886   6.185   5.695   3.783
21318SOL     OW65887   6.349   5.814   5.492
21318SOL    HW165888   6.439   5.790   5.527
21318SOL    HW265889   6.279   5.782   5.556
21319SOL     OW65890   6.459   7.142   4.963
21319SOL    HW165891   6.486   7.189   4.879
21319SOL    HW265892   6.522   7.067   4.980
21320SOL     OW65893   6.880   6.175   5.141
21320SOL    HW165894   6.922   6.133   5.222
21320SOL    HW265895   6.923   6.263   5.124
21321SOL     OW65896   6.542   6.180   4.602
21321SOL    HW165897   6.508   6.131   4.522
21321SOL    HW265898   6.568   6.113   4.672
21322SOL     OW65899   6.152   5.673   4.230
21322SOL    HW165900   6.076   5.664   4.294
21322SOL    HW265901   6.136   5.751   4.171
21323SOL     OW65902   7.056   6.779   3.755
21323SOL    HW165903   7.104   6.714   3.815
21323SOL    HW265904   6.971   6.807   3.798
21324SOL     OW65905   5.870   5.645   3.889
21324SOL    HW165906   5.910   5.725   3.844
21324SOL    HW265907   5.941   5.596   3.939
21325SOL     OW65908   6.548   5.866   4.179
21325SOL    HW165909   6.508   5.899   4.093
21325SOL    HW265910   6.647   5.879   4.178
21326SOL     OW65911   6.628   6.282   5.134
21326SOL    HW165912   6.552   6.218   5.146
21326SOL    HW265913   6.714   6.232   5.139
21327SOL     OW65914   6.780   7.198   4.549
21327SOL    HW165915   6.813   7.249   4.470
21327SOL    HW265916   6.818   7.238   4.633
21328SOL     OW65917   6.074   6.707   4.394
21328SOL    HW165918   6.006   6.684   4.463
21328SOL    HW265919   6.030   6.709   4.304
21329SOL     OW65920   6.853   7.375   4.350
21329SOL    HW165921   6.924   7.443   4.331
21329SOL    HW265922   6.768   7.421   4.375
21330SOL     OW65923   6.593   6.075   3.768
21330SOL    HW165924   6.556   6.164   3.742
21330SOL    HW265925   6.657   6.086   3.844
21331SOL     OW65926   5.710   6.157   5.080
21331SOL    HW165927   5.806   6.151   5.052
21331SOL    HW265928   5.699   6.234   5.144
21332SOL     OW65929   6.146   5.790   4.891
21332SOL    HW165930   6.178   5.717   4.952
21332SOL    HW265931   6.053   5.817   4.918
21333SOL     OW65932   6.460   6.055   4.374
21333SOL    HW165933   6.396   6.103   4.315
21333SOL    HW265934   6.498   5.977   4.325
21334SOL     OW65935   6.587   5.613   4.442
21334SOL    HW165936   6.529   5.623   4.361
21334SOL    HW265937   6.552   5.538   4.499
21335SOL     OW65938   7.016   6.704   4.575
21335SOL    HW165939   6.963   6.626   4.607
21335SOL    HW265940   7.012   6.708   4.475
21336SOL     OW65941   6.962   6.219   4.659
21336SOL    HW165942   6.894   6.145   4.657
21336SOL    HW265943   7.050   6.183   4.689
21337SOL     OW65944   7.392   6.366   4.103
21337SOL    HW165945   7.467   6.348   4.166
21337SOL    HW265946   7.391   6.298   4.031
21338SOL     OW65947   6.077   7.058   3.835
21338SOL    HW165948   6.015   7.012   3.897
21338SOL    HW265949   6.074   7.014   3.745
21339SOL     OW65950   7.363   6.871   4.390
21339SOL    HW165951   7.461   6.883   4.378
21339SOL    HW265952   7.318   6.961   4.385
21340SOL     OW65953   6.946   6.123   3.794
21340SOL    HW165954   6.875   6.125   3.863
21340SOL    HW265955   7.009   6.047   3.812
21341SOL     OW65956   6.099   5.861   4.043
21341SOL    HW165957   6.154   5.814   3.974
21341SOL    HW265958   6.060   5.945   4.004
21342SOL     OW65959   7.361   6.786   5.313
21342SOL    HW165960   7.455   6.754   5.301
21342SOL    HW265961   7.361   6.885   5.330
21343SOL     OW65962   6.630   6.944   5.032
21343SOL    HW165963   6.567   6.899   5.095
21343SOL    HW265964   6.724   6.918   5.055
21344SOL     OW65965   7.186   7.217   5.413
21344SOL    HW165966   7.168   7.266   5.328
21344SOL    HW265967   7.263   7.153   5.399
21345SOL     OW65968   6.626   6.770   4.822
21345SOL    HW165969   6.610   6.835   4.897
21345SOL    HW265970   6.645   6.821   4.738
21346SOL     OW65971   7.207   6.719   4.775
21346SOL    HW165972   7.217   6.814   4.804
21346SOL    HW265973   7.134   6.713   4.706
21347SOL     OW65974   6.543   5.612   5.111
21347SOL    HW165975   6.560   5.595   5.014
21347SOL    HW265976   6.616   5.671   5.147
21348SOL     OW65977   6.546   6.677   5.472
21348SOL    HW165978   6.454   6.697   5.507
21348SOL    HW265979   6.542   6.597   5.412
21349SOL     OW65980   6.314   6.590   4.080
21349SOL    HW165981   6.309   6.565   4.177
21349SOL    HW265982   6.384   6.535   4.035
21350SOL     OW65983   6.036   6.398   5.007
21350SOL    HW165984   6.100   6.401   5.084
21350SOL    HW265985   6.004   6.304   4.995
21351SOL     OW65986   6.783   5.957   5.004
21351SOL    HW165987   6.820   6.041   5.046
21351SOL    HW265988   6.715   5.982   4.936
21352SOL     OW65989   5.657   7.119   5.080
21352SOL    HW165990   5.595   7.179   5.030
21352SOL    HW265991   5.751   7.144   5.059
21353SOL     OW65992   5.921   6.705   4.166
21353SOL    HW165993   5.928   6.783   4.103
21353SOL    HW265994   5.906   6.621   4.113
21354SOL     OW65995   6.108   6.143   4.606
21354SOL    HW165996   6.124   6.192   4.520
21354SOL    HW265997   6.185   6.159   4.668
21355SOL     OW65998   6.871   6.941   4.159
21355SOL    HW165999   6.921   7.027   4.168
21355SOL    HW266000   6.777   6.953   4.189
21356SOL     OW66001   6.877   7.030   4.815
21356SOL    HW166002   6.889   6.977   4.899
21356SOL    HW266003   6.804   6.990   4.760
21357SOL     OW66004   7.193   6.218   4.225
21357SOL    HW166005   7.120   6.268   4.272
21357SOL    HW266006   7.256   6.283   4.184
21358SOL     OW66007   5.914   7.157   4.983
21358SOL    HW166008   5.906   7.110   4.895
21358SOL    HW266009   6.010   7.167   5.008
21359SOL     OW66010   5.976   6.380   5.361
21359SOL    HW166011   6.064   6.382   5.312
21359SOL    HW266012   5.949   6.285   5.376
21360SOL     OW66013   7.214   6.378   5.413
21360SOL    HW166014   7.118   6.402   5.407
21360SOL    HW266015   7.265   6.424   5.341
21361SOL     OW66016   6.587   5.751   5.601
21361SOL    HW166017   6.653   5.802   5.545
21361SOL    HW266018   6.632   5.672   5.642
21362SOL     OW66019   6.065   5.586   5.430
21362SOL    HW166020   6.013   5.563   5.348
21362SOL    HW266021   6.021   5.664   5.476
21363SOL     OW66022   6.159   6.465   4.772
21363SOL    HW166023   6.195   6.558   4.764
21363SOL    HW266024   6.117   6.453   4.862
21364SOL     OW66025   6.880   6.481   4.685
21364SOL    HW166026   6.781   6.476   4.678
21364SOL    HW266027   6.920   6.390   4.681
21365SOL     OW66028   6.755   6.102   3.985
21365SOL    HW166029   6.786   6.028   4.045
21365SOL    HW266030   6.703   6.169   4.039
21366SOL     OW66031   5.883   5.806   4.979
21366SOL    HW166032   5.886   5.836   5.075
21366SOL    HW266033   5.846   5.713   4.974
21367SOL     OW66034   5.670   6.863   4.992
21367SOL    HW166035   5.692   6.806   5.071
21367SOL    HW266036   5.657   6.957   5.022
21368SOL     OW66037   6.313   6.236   4.766
21368SOL    HW166038   6.386   6.234   4.697
21368SOL    HW266039   6.262   6.322   4.758
21369SOL     OW66040   7.347   6.530   5.602
21369SOL    HW166041   7.297   6.470   5.540
21369SOL    HW266042   7.286   6.558   5.677
21370SOL     OW66043   5.926   5.650   4.383
21370SOL    HW166044   5.881   5.737   4.406
21370SOL    HW266045   5.924   5.589   4.463
21371SOL     OW66046   7.232   5.988   4.076
21371SOL    HW166047   7.267   5.914   4.134
21371SOL    HW266048   7.204   6.065   4.133
21372SOL     OW66049   6.610   6.428   4.692
21372SOL    HW166050   6.576   6.435   4.786
21372SOL    HW266051   6.590   6.336   4.657
21373SOL     OW66052   6.579   7.147   5.449
21373SOL    HW166053   6.571   7.195   5.362
21373SOL    HW266054   6.607   7.052   5.433
21374SOL     OW66055   7.401   7.056   5.338
21374SOL    HW166056   7.412   7.080   5.241
21374SOL    HW266057   7.485   7.076   5.387
21375SOL     OW66058   5.915   6.486   5.606
21375SOL    HW166059   5.976   6.444   5.673
21375SOL    HW266060   5.941   6.457   5.514
21376SOL     OW66061   7.081   5.897   3.862
21376SOL    HW166062   7.040   5.807   3.877
21376SOL    HW266063   7.134   5.923   3.943
21377SOL     OW66064   6.882   6.394   3.751
21377SOL    HW166065   6.906   6.298   3.758
21377SOL    HW266066   6.916   6.431   3.664
21378SOL     OW66067   6.713   6.936   4.618
21378SOL    HW166068   6.701   6.864   4.549
21378SOL    HW266069   6.732   7.023   4.573
21379SOL     OW66070   5.904   6.414   4.669
21379SOL    HW166071   6.000   6.430   4.689
21379SOL    HW266072   5.881   6.318   4.687
21380SOL     OW66073   5.867   6.142   4.714
21380SOL    HW166074   5.829   6.049   4.716
21380SOL    HW266075   5.954   6.141   4.665
21381SOL     OW66076   6.731   5.924   5.435
21381SOL    HW166077   6.689   5.981   5.505
21381SOL    HW266078   6.817   5.966   5.405
21382SOL     OW66079   6.733   5.779   5.206
21382SOL    HW166080   6.720   5.832   5.290
21382SOL    HW266081   6.754   5.841   5.130
21383SOL     OW66082   5.628   6.876   3.912
21383SOL    HW166083   5.540   6.905   3.876
21383SOL    HW266084   5.620   6.784   3.951
21384SOL     OW66085   5.624   7.372   4.718
21384SOL    HW166086   5.556   7.330   4.658
21384SOL    HW266087   5.716   7.347   4.685
21385SOL     OW66088   6.488   6.401   4.934
21385SOL    HW166089   6.547   6.364   5.006
21385SOL    HW266090   6.420   6.333   4.909
21386SOL     OW66091   5.608   6.189   4.830
21386SOL    HW166092   5.687   6.186   4.768
21386SOL    HW266093   5.639   6.177   4.924
21387SOL     OW66094   5.830   6.144   5.396
21387SOL    HW166095   5.844   6.065   5.336
21387SOL    HW266096   5.764   6.206   5.354
21388SOL     OW66097   6.973   6.492   5.353
21388SOL    HW166098   7.015   6.581   5.367
21388SOL    HW266099   6.963   6.475   5.255
21389SOL     OW66100   6.359   6.146   4.122
21389SOL    HW166101   6.371   6.070   4.059
21389SOL    HW266102   6.281   6.201   4.094
21390SOL     OW66103   5.815   7.106   5.425
21390SOL    HW166104   5.796   7.186   5.482
21390SOL    HW266105   5.838   7.028   5.483
21391SOL     OW66106   6.332   6.004   4.921
21391SOL    HW166107   6.262   5.933   4.912
21391SOL    HW266108   6.306   6.084   4.867
21392SOL     OW66109   6.553   7.263   5.199
21392SOL    HW166110   6.514   7.206   5.127
21392SOL    HW266111   6.539   7.359   5.177
21393SOL     OW66112   6.009   6.084   3.911
21393SOL    HW166113   6.077   6.149   3.942
21393SOL    HW266114   5.921   6.130   3.901
21394SOL     OW66115   5.728   6.724   5.226
21394SOL    HW166116   5.730   6.699   5.323
21394SOL    HW266117   5.759   6.647   5.171
21395SOL     OW66118   6.836   6.627   4.912
21395SOL    HW166119   6.871   6.573   4.836
21395SOL    HW266120   6.748   6.667   4.886
21396SOL     OW66121   6.968   6.465   4.002
21396SOL    HW166122   6.901   6.441   4.072
21396SOL    HW266123   6.934   6.437   3.912
21397SOL     OW66124   7.331   7.267   4.887
21397SOL    HW166125   7.403   7.297   4.824
21397SOL    HW266126   7.292   7.181   4.855
21398SOL     OW66127   6.864   7.304   4.789
21398SOL    HW166128   6.950   7.353   4.796
21398SOL    HW266129   6.877   7.210   4.821
21399SOL     OW66130   5.717   6.839   4.730
21399SOL    HW166131   5.696   6.845   4.828
21399SOL    HW266132   5.641   6.792   4.684
21400SOL     OW66133   6.306   7.225   5.480
21400SOL    HW166134   6.266   7.273   5.402
21400SOL    HW266135   6.406   7.232   5.476
21401SOL     OW66136   7.341   5.767   4.204
21401SOL    HW166137   7.396   5.748   4.123
21401SOL    HW266138   7.289   5.686   4.229
21402SOL     OW66139   7.004   7.189   4.205
21402SOL    HW166140   7.050   7.240   4.132
21402SOL    HW266141   6.942   7.250   4.255
21403SOL     OW66142   5.744   7.338   5.555
21403SOL    HW166143   5.690   7.279   5.615
21403SOL    HW266144   5.786   7.410   5.609
21404SOL     OW66145   6.843   6.525   4.357
21404SOL    HW166146   6.912   6.457   4.381
21404SOL    HW266147   6.887   6.606   4.320
21405SOL     OW66148   6.408   6.839   5.152
21405SOL    HW166149   6.390   6.886   5.238
21405SOL    HW266150   6.332   6.854   5.089
21406SOL     OW66151   6.243   7.264   3.888
21406SOL    HW166152   6.339   7.239   3.878
21406SOL    HW266153   6.185   7.187   3.862
21407SOL     OW66154   7.194   7.311   5.127
21407SOL    HW166155   7.251   7.310   5.045
21407SOL    HW266156   7.186   7.405   5.161
21408SOL     OW66157   7.424   5.735   4.685
21408SOL    HW166158   7.463   5.645   4.666
21408SOL    HW266159   7.402   5.780   4.598
21409SOL     OW66160   5.814   5.884   4.460
21409SOL    HW166161   5.734   5.934   4.427
21409SOL    HW266162   5.816   5.886   4.560
21410SOL     OW66163   6.378   6.570   5.128
21410SOL    HW166164   6.417   6.536   5.043
21410SOL    HW266165   6.393   6.669   5.134
21411SOL     OW66166   6.509   6.443   3.954
21411SOL    HW166167   6.582   6.504   3.923
21411SOL    HW266168   6.546   6.379   4.021
21412SOL     OW66169   7.100   7.206   3.776
21412SOL    HW166170   7.006   7.240   3.777
21412SOL    HW266171   7.133   7.203   3.681
21413SOL     OW66172   5.960   6.879   5.177
21413SOL    HW166173   5.933   6.974   5.160
21413SOL    HW266174   5.879   6.824   5.193
21414SOL     OW66175   6.664   6.726   4.455
21414SOL    HW166176   6.578   6.688   4.491
21414SOL    HW266177   6.721   6.651   4.420
21415SOL     OW66178   6.632   5.767   4.670
21415SOL    HW166179   6.618   5.728   4.579
21415SOL    HW266180   6.627   5.695   4.739
21416SOL     OW66181   6.289   7.088   4.222
21416SOL    HW166182   6.297   7.004   4.169
21416SOL    HW266183   6.208   7.139   4.193
21417SOL     OW66184   7.355   5.899   5.143
21417SOL    HW166185   7.305   5.980   5.113
21417SOL    HW266186   7.365   5.835   5.067
21418SOL     OW66187   5.895   6.923   3.997
21418SOL    HW166188   5.803   6.911   3.959
21418SOL    HW266189   5.890   6.975   4.082
21419SOL     OW66190   5.720   6.654   5.496
21419SOL    HW166191   5.628   6.635   5.532
21419SOL    HW266192   5.785   6.590   5.535
21420SOL     OW66193   6.322   5.775   5.221
21420SOL    HW166194   6.406   5.735   5.185
21420SOL    HW266195   6.332   5.793   5.318
21421SOL     OW66196   5.712   5.970   3.662
21421SOL    HW166197   5.621   5.962   3.623
21421SOL    HW266198   5.751   6.059   3.640
21422SOL     OW66199   6.974   6.442   5.081
21422SOL    HW166200   6.904   6.496   5.034
21422SOL    HW266201   7.064   6.462   5.042
21423SOL     OW66202   5.630   5.745   3.959
21423SOL    HW166203   5.600   5.807   3.887
21423SOL    HW266204   5.722   5.712   3.939
21424SOL     OW66205   6.830   6.838   3.898
21424SOL    HW166206   6.786   6.749   3.902
21424SOL    HW266207   6.846   6.872   3.991
21425SOL     OW66208   6.212   6.372   5.210
21425SOL    HW166209   6.267   6.453   5.191
21425SOL    HW266210   6.268   6.290   5.200
21426SOL     OW66211   7.109   7.432   4.793
21426SOL    HW166212   7.142   7.492   4.720
21426SOL    HW266213   7.186   7.382   4.833
21427SOL     OW66214   6.376   6.080   5.410
21427SOL    HW166215   6.414   6.142   5.478
21427SOL    HW266216   6.367   5.988   5.449
21428SOL     OW66217   7.107   6.721   5.402
21428SOL    HW166218   7.089   6.759   5.493
21428SOL    HW266219   7.200   6.745   5.374
21429SOL     OW66220   5.921   7.304   5.265
21429SOL    HW166221   5.844   7.368   5.262
21429SOL    HW266222   5.894   7.221   5.313
21430SOL     OW66223   7.216   6.519   4.966
21430SOL    HW166224   7.282   6.450   4.938
21430SOL    HW266225   7.213   6.592   4.897
21431SOL     OW66226   6.819   5.912   4.175
21431SOL    HW166227   6.872   5.828   4.169
21431SOL    HW266228   6.851   5.966   4.253
21432SOL     OW66229   6.163   6.304   4.396
21432SOL    HW166230   6.216   6.387   4.376
21432SOL    HW266231   6.088   6.296   4.330
21433SOL     OW66232   7.322   5.937   5.413
21433SOL    HW166233   7.342   5.928   5.316
21433SOL    HW266234   7.243   5.881   5.436
21434SOL     OW66235   7.322   6.528   5.216
21434SOL    HW166236   7.330   6.620   5.254
21434SOL    HW266237   7.278   6.533   5.126
21435SOL     OW66238   6.401   6.971   3.844
21435SOL    HW166239   6.391   6.932   3.936
21435SOL    HW266240   6.456   7.054   3.849
21436SOL     OW66241   6.124   7.393   4.624
21436SOL    HW166242   6.146   7.487   4.650
21436SOL    HW266243   6.209   7.344   4.603
21437SOL     OW66244   6.444   6.610   4.575
21437SOL    HW166245   6.507   6.547   4.620
21437SOL    HW266246   6.387   6.654   4.645
21438SOL     OW66247   6.707   6.594   3.843
21438SOL    HW166248   6.646   6.631   3.773
21438SOL    HW266249   6.768   6.526   3.801
21439SOL     OW66250   7.376   7.139   4.604
21439SOL    HW166251   7.313   7.137   4.526
21439SOL    HW266252   7.345   7.075   4.674
21440SOL     OW66253   5.859   6.881   5.575
21440SOL    HW166254   5.801   6.804   5.548
21440SOL    HW266255   5.845   6.900   5.673
21441SOL     OW66256   5.762   6.811   4.371
21441SOL    HW166257   5.793   6.761   4.452
21441SOL    HW266258   5.804   6.771   4.290
21442SOL     OW66259   6.319   6.974   5.367
21442SOL    HW166260   6.230   6.932   5.384
21442SOL    HW266261   6.321   7.066   5.407
21443SOL     OW66262   7.371   5.719   4.950
21443SOL    HW166263   7.367   5.619   4.961
21443SOL    HW266264   7.385   5.742   4.854
21444SOL     OW66265   5.968   6.001   4.255
21444SOL    HW166266   6.010   5.935   4.194
21444SOL    HW266267   5.922   5.953   4.330
21445SOL     OW66268   7.223   7.022   4.813
21445SOL    HW166269   7.154   7.011   4.741
21445SOL    HW266270   7.178   7.033   4.901
21446SOL     OW66271   5.965   6.137   4.991
21446SOL    HW166272   6.026   6.073   5.038
21446SOL    HW266273   5.957   6.111   4.895
21447SOL     OW66274   6.377   7.065   4.476
21447SOL    HW166275   6.347   7.081   4.382
21447SOL    HW266276   6.319   6.995   4.518
21448SOL     OW66277   6.974   5.836   4.846
21448SOL    HW166278   6.998   5.742   4.870
21448SOL    HW266279   6.910   5.872   4.914
21449SOL     OW66280   6.615   5.545   4.844
21449SOL    HW166281   6.550   5.475   4.813
21449SOL    HW266282   6.708   5.513   4.829
21450SOL     OW66283   6.384   6.862   4.094
21450SOL    HW166284   6.357   6.766   4.090
21450SOL    HW266285   6.473   6.869   4.140
21451SOL     OW66286   6.196   7.156   5.043
21451SOL    HW166287   6.191   7.216   5.123
21451SOL    HW266288   6.289   7.156   5.007
21452SOL     OW66289   6.973   5.630   3.905
21452SOL    HW166290   7.027   5.570   3.847
21452SOL    HW266291   6.882   5.592   3.918
21453SOL     OW66292   6.898   6.053   4.394
21453SOL    HW166293   6.846   6.138   4.383
21453SOL    HW266294   6.875   6.011   4.482
21454SOL     OW66295   5.623   6.606   4.026
21454SOL    HW166296   5.718   6.587   4.000
21454SOL    HW266297   5.577   6.520   4.047
21455SOL     OW66298   6.499   7.241   4.151
21455SOL    HW166299   6.418   7.191   4.179
21455SOL    HW266300   6.490   7.337   4.179
21456SOL     OW66301   5.818   6.097   5.664
21456SOL    HW166302   5.738   6.139   5.708
21456SOL    HW266303   5.823   6.126   5.568
21457SOL     OW66304   5.805   5.893   6.586
21457SOL    HW166305   5.846   5.867   6.673
21457SOL    HW266306   5.717   5.847   6.575
21458SOL     OW66307   5.586   6.021   6.203
21458SOL    HW166308   5.498   6.030   6.249
21458SOL    HW266309   5.581   5.950   6.134
21459SOL     OW66310   6.132   6.826   6.761
21459SOL    HW166311   6.062   6.794   6.697
21459SOL    HW266312   6.115   6.922   6.785
21460SOL     OW66313   7.203   7.058   6.283
21460SOL    HW166314   7.154   7.032   6.365
21460SOL    HW266315   7.138   7.081   6.211
21461SOL     OW66316   6.694   6.312   6.247
21461SOL    HW166317   6.757   6.384   6.219
21461SOL    HW266318   6.655   6.334   6.336
21462SOL     OW66319   7.391   6.144   5.794
21462SOL    HW166320   7.348   6.159   5.705
21462SOL    HW266321   7.337   6.079   5.847
21463SOL     OW66322   6.328   6.716   6.614
21463SOL    HW166323   6.258   6.745   6.679
21463SOL    HW266324   6.367   6.797   6.569
21464SOL     OW66325   6.276   6.561   6.249
21464SOL    HW166326   6.353   6.570   6.311
21464SOL    HW266327   6.201   6.621   6.280
21465SOL     OW66328   6.272   6.701   7.406
21465SOL    HW166329   6.306   6.782   7.454
21465SOL    HW266330   6.205   6.729   7.337
21466SOL     OW66331   5.914   7.039   6.632
21466SOL    HW166332   5.839   6.980   6.601
21466SOL    HW266333   5.968   7.069   6.553
21467SOL     OW66334   6.954   7.185   6.955
21467SOL    HW166335   7.034   7.244   6.962
21467SOL    HW266336   6.898   7.195   7.037
21468SOL     OW66337   7.223   6.059   6.347
21468SOL    HW166338   7.209   6.096   6.254
21468SOL    HW266339   7.178   6.119   6.413
21469SOL     OW66340   5.834   7.260   6.082
21469SOL    HW166341   5.835   7.341   6.141
21469SOL    HW266342   5.919   7.257   6.029
21470SOL     OW66343   6.670   6.867   7.256
21470SOL    HW166344   6.740   6.847   7.187
21470SOL    HW266345   6.621   6.783   7.279
21471SOL     OW66346   5.798   6.982   6.118
21471SOL    HW166347   5.811   7.082   6.119
21471SOL    HW266348   5.742   6.955   6.196
21472SOL     OW66349   5.950   6.710   6.567
21472SOL    HW166350   5.939   6.611   6.580
21472SOL    HW266351   5.861   6.755   6.581
21473SOL     OW66352   6.154   6.677   5.810
21473SOL    HW166353   6.202   6.687   5.723
21473SOL    HW266354   6.220   6.673   5.885
21474SOL     OW66355   7.125   5.719   7.075
21474SOL    HW166356   7.176   5.795   7.036
21474SOL    HW266357   7.093   5.743   7.167
21475SOL     OW66358   7.446   7.337   5.881
21475SOL    HW166359   7.521   7.319   5.944
21475SOL    HW266360   7.447   7.433   5.853
21476SOL     OW66361   5.614   7.159   5.706
21476SOL    HW166362   5.592   7.062   5.716
21476SOL    HW266363   5.611   7.203   5.796
21477SOL     OW66364   7.295   6.503   6.265
21477SOL    HW166365   7.385   6.489   6.306
21477SOL    HW266366   7.305   6.555   6.180
21478SOL     OW66367   7.281   6.683   6.033
21478SOL    HW166368   7.361   6.654   5.981
21478SOL    HW266369   7.308   6.749   6.103
21479SOL     OW66370   5.684   6.350   7.104
21479SOL    HW166371   5.762   6.412   7.100
21479SOL    HW266372   5.600   6.401   7.088
21480SOL     OW66373   6.217   6.948   6.293
21480SOL    HW166374   6.165   6.863   6.297
21480SOL    HW266375   6.213   6.985   6.200
21481SOL     OW66376   6.814   6.731   7.018
21481SOL    HW166377   6.848   6.685   6.936
21481SOL    HW266378   6.889   6.744   7.083
21482SOL     OW66379   6.356   5.598   6.061
21482SOL    HW166380   6.413   5.680   6.066
21482SOL    HW266381   6.260   5.625   6.054
21483SOL     OW66382   5.827   6.545   6.917
21483SOL    HW166383   5.916   6.501   6.911
21483SOL    HW266384   5.783   6.544   6.827
21484SOL     OW66385   7.149   6.602   5.801
21484SOL    HW166386   7.071   6.543   5.819
21484SOL    HW266387   7.195   6.624   5.887
21485SOL     OW66388   6.887   7.482   7.247
21485SOL    HW166389   6.851   7.535   7.170
21485SOL    HW266390   6.869   7.385   7.231
21486SOL     OW66391   5.864   5.900   7.556
21486SOL    HW166392   5.929   5.974   7.577
21486SOL    HW266393   5.783   5.939   7.512
21487SOL     OW66394   7.078   6.975   6.512
21487SOL    HW166395   7.017   7.010   6.583
21487SOL    HW266396   7.041   6.890   6.475
21488SOL     OW66397   7.218   7.456   6.106
21488SOL    HW166398   7.205   7.389   6.033
21488SOL    HW266399   7.250   7.409   6.188
21489SOL     OW66400   6.062   6.384   5.849
21489SOL    HW166401   6.105   6.473   5.860
21489SOL    HW266402   6.021   6.356   5.936
21490SOL     OW66403   6.883   6.006   6.540
21490SOL    HW166404   6.792   5.965   6.534
21490SOL    HW266405   6.940   5.950   6.601
21491SOL     OW66406   7.183   7.269   5.908
21491SOL    HW166407   7.281   7.281   5.894
21491SOL    HW266408   7.137   7.260   5.819
21492SOL     OW66409   6.556   6.418   7.151
21492SOL    HW166410   6.598   6.343   7.102
21492SOL    HW266411   6.496   6.469   7.089
21493SOL     OW66412   6.596   5.992   6.796
21493SOL    HW166413   6.498   5.984   6.816
21493SOL    HW266414   6.616   5.952   6.707
21494SOL     OW66415   5.734   7.416   7.158
21494SOL    HW166416   5.752   7.400   7.256
21494SOL    HW266417   5.726   7.328   7.112
21495SOL     OW66418   6.433   5.840   5.820
21495SOL    HW166419   6.398   5.933   5.820
21495SOL    HW266420   6.498   5.829   5.745
21496SOL     OW66421   7.227   6.125   7.464
21496SOL    HW166422   7.229   6.218   7.427
21496SOL    HW266423   7.270   6.062   7.399
21497SOL     OW66424   7.013   6.731   6.111
21497SOL    HW166425   7.104   6.718   6.073
21497SOL    HW266426   6.964   6.801   6.059
21498SOL     OW66427   6.141   5.651   6.545
21498SOL    HW166428   6.145   5.703   6.630
21498SOL    HW266429   6.170   5.708   6.468
21499SOL     OW66430   5.946   7.375   6.458
21499SOL    HW166431   5.991   7.286   6.448
21499SOL    HW266432   6.011   7.441   6.496
21500SOL     OW66433   7.357   6.742   6.482
21500SOL    HW166434   7.349   6.762   6.384
21500SOL    HW266435   7.273   6.697   6.514
21501SOL     OW66436   6.800   7.224   7.186
21501SOL    HW166437   6.802   7.154   7.257
21501SOL    HW266438   6.706   7.234   7.151
21502SOL     OW66439   5.881   6.635   5.847
21502SOL    HW166440   5.976   6.665   5.838
21502SOL    HW266441   5.857   6.577   5.769
21503SOL     OW66442   7.073   6.360   6.303
21503SOL    HW166443   7.072   6.315   6.392
21503SOL    HW266444   7.155   6.418   6.296
21504SOL     OW66445   6.083   6.833   7.254
21504SOL    HW166446   6.049   6.847   7.161
21504SOL    HW266447   6.013   6.860   7.320
21505SOL     OW66448   6.681   7.382   5.727
21505SOL    HW166449   6.595   7.359   5.773
21505SOL    HW266450   6.724   7.298   5.693
21506SOL     OW66451   5.834   5.897   7.105
21506SOL    HW166452   5.780   5.821   7.141
21506SOL    HW266453   5.929   5.889   7.135
21507SOL     OW66454   7.249   7.010   5.689
21507SOL    HW166455   7.192   7.092   5.684
21507SOL    HW266456   7.193   6.929   5.671
21508SOL     OW66457   6.080   7.294   5.960
21508SOL    HW166458   6.095   7.391   5.983
21508SOL    HW266459   6.125   7.272   5.874
21509SOL     OW66460   6.962   5.703   6.043
21509SOL    HW166461   6.959   5.676   5.946
21509SOL    HW266462   7.056   5.693   6.076
21510SOL     OW66463   6.514   7.199   6.579
21510SOL    HW166464   6.591   7.197   6.516
21510SOL    HW266465   6.456   7.119   6.564
21511SOL     OW66466   5.955   6.266   6.080
21511SOL    HW166467   5.978   6.169   6.087
21511SOL    HW266468   5.860   6.280   6.107
21512SOL     OW66469   7.075   5.794   7.331
21512SOL    HW166470   7.151   5.757   7.383
21512SOL    HW266471   7.027   5.863   7.386
21513SOL     OW66472   6.213   5.712   5.722
21513SOL    HW166473   6.297   5.745   5.765
21513SOL    HW266474   6.219   5.613   5.710
21514SOL     OW66475   6.453   5.826   7.485
21514SOL    HW166476   6.520   5.755   7.461
21514SOL    HW266477   6.370   5.783   7.521
21515SOL     OW66478   6.534   7.119   6.858
21515SOL    HW166479   6.528   7.143   6.761
21515SOL    HW266480   6.558   7.023   6.866
21516SOL     OW66481   6.879   6.153   7.073
21516SOL    HW166482   6.866   6.151   7.173
21516SOL    HW266483   6.943   6.227   7.049
21517SOL     OW66484   6.401   6.956   6.497
21517SOL    HW166485   6.495   6.942   6.468
21517SOL    HW266486   6.340   6.958   6.417
21518SOL     OW66487   6.496   6.093   6.471
21518SOL    HW166488   6.449   6.067   6.387
21518SOL    HW266489   6.549   6.016   6.504
21519SOL     OW66490   6.093   5.661   6.043
21519SOL    HW166491   6.028   5.650   6.117
21519SOL    HW266492   6.070   5.742   5.989
21520SOL     OW66493   7.057   6.813   5.654
21520SOL    HW166494   7.086   6.734   5.708
21520SOL    HW266495   6.964   6.839   5.680
21521SOL     OW66496   6.524   5.824   6.073
21521SOL    HW166497   6.487   5.828   5.980
21521SOL    HW266498   6.619   5.855   6.072
21522SOL     OW66499   6.643   6.214   6.957
21522SOL    HW166500   6.622   6.135   6.899
21522SOL    HW266501   6.731   6.199   7.002
21523SOL     OW66502   6.742   7.192   6.414
21523SOL    HW166503   6.771   7.228   6.325
21523SOL    HW266504   6.798   7.233   6.486
21524SOL     OW66505   6.064   6.722   6.314
21524SOL    HW166506   6.025   6.721   6.406
21524SOL    HW266507   5.990   6.714   6.247
21525SOL     OW66508   6.922   7.348   6.243
21525SOL    HW166509   6.920   7.421   6.174
21525SOL    HW266510   6.944   7.388   6.332
21526SOL     OW66511   6.639   6.074   5.635
21526SOL    HW166512   6.594   6.160   5.611
21526SOL    HW266513   6.702   6.090   5.712
21527SOL     OW66514   5.676   6.135   6.942
21527SOL    HW166515   5.772   6.122   6.919
21527SOL    HW266516   5.666   6.217   6.999
21528SOL     OW66517   6.152   5.792   6.777
21528SOL    HW166518   6.201   5.745   6.851
21528SOL    HW266519   6.055   5.801   6.801
21529SOL     OW66520   6.375   5.989   6.252
21529SOL    HW166521   6.292   6.026   6.212
21529SOL    HW266522   6.423   5.933   6.184
21530SOL     OW66523   6.618   5.702   6.315
21530SOL    HW166524   6.573   5.736   6.233
21530SOL    HW266525   6.562   5.631   6.358
21531SOL     OW66526   6.985   6.747   6.388
21531SOL    HW166527   6.888   6.726   6.394
21531SOL    HW266528   7.014   6.744   6.292
21532SOL     OW66529   7.064   6.211   6.534
21532SOL    HW166530   6.997   6.137   6.542
21532SOL    HW266531   7.119   6.217   6.617
21533SOL     OW66532   7.400   6.346   5.976
21533SOL    HW166533   7.463   6.321   6.049
21533SOL    HW266534   7.403   6.278   5.903
21534SOL     OW66535   6.088   6.952   5.810
21534SOL    HW166536   5.988   6.957   5.816
21534SOL    HW266537   6.116   6.856   5.799
21535SOL     OW66538   7.367   6.846   6.225
21535SOL    HW166539   7.466   6.861   6.232
21535SOL    HW266540   7.319   6.931   6.242
21536SOL     OW66541   6.981   6.147   5.612
21536SOL    HW166542   6.939   6.111   5.695
21536SOL    HW266543   7.081   6.143   5.621
21537SOL     OW66544   6.035   5.861   5.867
21537SOL    HW166545   6.093   5.805   5.808
21537SOL    HW266546   6.045   5.957   5.842
21538SOL     OW66547   6.597   6.853   6.893
21538SOL    HW166548   6.504   6.828   6.920
21538SOL    HW266549   6.662   6.810   6.956
21539SOL     OW66550   7.196   7.260   7.251
21539SOL    HW166551   7.160   7.293   7.163
21539SOL    HW266552   7.292   7.235   7.240
21540SOL     OW66553   6.766   6.835   6.685
21540SOL    HW166554   6.698   6.840   6.759
21540SOL    HW266555   6.724   6.865   6.599
21541SOL     OW66556   7.131   6.622   6.585
21541SOL    HW166557   7.070   6.620   6.665
21541SOL    HW266558   7.080   6.656   6.506
21542SOL     OW66559   6.550   5.626   6.925
21542SOL    HW166560   6.586   5.623   6.832
21542SOL    HW266561   6.619   5.667   6.985
21543SOL     OW66562   6.538   6.635   7.328
21543SOL    HW166563   6.441   6.648   7.347
21543SOL    HW266564   6.549   6.555   7.269
21544SOL     OW66565   6.341   6.660   6.003
21544SOL    HW166566   6.317   6.624   6.093
21544SOL    HW266567   6.427   6.619   5.972
21545SOL     OW66568   6.053   6.385   6.883
21545SOL    HW166569   6.107   6.391   6.968
21545SOL    HW266570   6.014   6.294   6.874
21546SOL     OW66571   6.849   5.937   6.906
21546SOL    HW166572   6.872   6.011   6.970
21546SOL    HW266573   6.757   5.954   6.869
21547SOL     OW66574   5.863   6.713   6.111
21547SOL    HW166575   5.847   6.812   6.110
21547SOL    HW266576   5.875   6.680   6.018
21548SOL     OW66577   6.094   6.178   6.474
21548SOL    HW166578   6.124   6.221   6.388
21548SOL    HW266579   6.173   6.168   6.534
21549SOL     OW66580   6.860   6.939   5.996
21549SOL    HW166581   6.921   7.013   6.026
21549SOL    HW266582   6.769   6.953   6.035
21550SOL     OW66583   6.921   7.062   6.717
21550SOL    HW166584   6.934   7.098   6.810
21550SOL    HW266585   6.865   6.979   6.722
21551SOL     OW66586   7.189   6.204   6.106
21551SOL    HW166587   7.129   6.261   6.163
21551SOL    HW266588   7.256   6.262   6.060
21552SOL     OW66589   5.952   6.396   7.233
21552SOL    HW166590   6.039   6.412   7.186
21552SOL    HW266591   5.930   6.299   7.230
21553SOL     OW66592   6.652   5.665   7.406
21553SOL    HW166593   6.702   5.745   7.374
21553SOL    HW266594   6.686   5.583   7.360
21554SOL     OW66595   6.208   6.454   6.658
21554SOL    HW166596   6.247   6.545   6.644
21554SOL    HW266597   6.161   6.452   6.746
21555SOL     OW66598   6.864   6.402   6.609
21555SOL    HW166599   6.777   6.379   6.566
21555SOL    HW266600   6.936   6.342   6.575
21556SOL     OW66601   6.825   6.100   5.843
21556SOL    HW166602   6.810   6.026   5.908
21556SOL    HW266603   6.840   6.185   5.893
21557SOL     OW66604   5.890   5.819   6.843
21557SOL    HW166605   5.855   5.853   6.930
21557SOL    HW266606   5.871   5.721   6.835
21558SOL     OW66607   5.716   6.904   6.870
21558SOL    HW166608   5.695   6.841   6.946
21558SOL    HW266609   5.717   6.998   6.904
21559SOL     OW66610   6.314   6.204   6.647
21559SOL    HW166611   6.377   6.181   6.574
21559SOL    HW266612   6.280   6.297   6.634
21560SOL     OW66613   7.325   6.519   7.375
21560SOL    HW166614   7.241   6.504   7.323
21560SOL    HW266615   7.301   6.549   7.468
21561SOL     OW66616   5.899   5.629   6.230
21561SOL    HW166617   5.860   5.718   6.253
21561SOL    HW266618   5.906   5.574   6.314
21562SOL     OW66619   7.212   5.987   5.933
21562SOL    HW166620   7.269   5.925   5.986
21562SOL    HW266621   7.181   6.062   5.991
21563SOL     OW66622   6.603   6.340   6.517
21563SOL    HW166623   6.581   6.361   6.613
21563SOL    HW266624   6.570   6.248   6.495
21564SOL     OW66625   6.550   7.060   7.403
21564SOL    HW166626   6.487   7.119   7.353
21564SOL    HW266627   6.587   6.991   7.341
21565SOL     OW66628   7.454   7.206   7.179
21565SOL    HW166629   7.462   7.177   7.084
21565SOL    HW266630   7.532   7.172   7.231
21566SOL     OW66631   5.912   6.521   7.469
21566SOL    HW166632   5.999   6.541   7.513
21566SOL    HW266633   5.928   6.486   7.377
21567SOL     OW66634   7.097   5.848   5.711
21567SOL    HW166635   7.039   5.774   5.746
21567SOL    HW266636   7.134   5.901   5.788
21568SOL     OW66637   6.870   6.393   5.582
21568SOL    HW166638   6.905   6.299   5.589
21568SOL    HW266639   6.900   6.433   5.496
21569SOL     OW66640   6.664   6.929   6.449
21569SOL    HW166641   6.694   6.856   6.387
21569SOL    HW266642   6.704   7.016   6.419
21570SOL     OW66643   5.932   6.440   6.595
21570SOL    HW166644   6.032   6.431   6.602
21570SOL    HW266645   5.891   6.349   6.593
21571SOL     OW66646   5.856   6.157   6.583
21571SOL    HW166647   5.826   6.062   6.577
21571SOL    HW266648   5.942   6.168   6.533
21572SOL     OW66649   6.677   5.921   7.289
21572SOL    HW166650   6.596   5.919   7.349
21572SOL    HW266651   6.726   6.007   7.303
21573SOL     OW66652   6.740   5.745   7.081
21573SOL    HW166653   6.715   5.803   7.159
21573SOL    HW266654   6.803   5.795   7.021
21574SOL     OW66655   5.564   6.887   5.772
21574SOL    HW166656   5.473   6.911   5.738
21574SOL    HW266657   5.562   6.793   5.807
21575SOL     OW66658   5.680   7.369   6.531
21575SOL    HW166659   5.622   7.299   6.490
21575SOL    HW266660   5.775   7.354   6.503
21576SOL     OW66661   6.081   7.135   6.441
21576SOL    HW166662   6.151   7.195   6.481
21576SOL    HW266663   6.125   7.066   6.384
21577SOL     OW66664   6.512   6.367   6.773
21577SOL    HW166665   6.569   6.326   6.844
21577SOL    HW266666   6.430   6.311   6.759
21578SOL     OW66667   5.598   6.193   6.688
21578SOL    HW166668   5.683   6.192   6.635
21578SOL    HW266669   5.619   6.169   6.783
21579SOL     OW66670   5.795   6.143   7.243
21579SOL    HW166671   5.809   6.063   7.185
21579SOL    HW266672   5.743   6.213   7.193
21580SOL     OW66673   7.071   6.497   7.258
21580SOL    HW166674   7.041   6.592   7.247
21580SOL    HW266675   7.037   6.442   7.182
21581SOL     OW66676   7.212   6.236   6.765
21581SOL    HW166677   7.156   6.261   6.844
21581SOL    HW266678   7.296   6.191   6.796
21582SOL     OW66679   5.903   7.150   7.270
21582SOL    HW166680   5.865   7.220   7.331
21582SOL    HW266681   5.904   7.062   7.317
21583SOL     OW66682   6.319   6.001   6.826
21583SOL    HW166683   6.260   5.926   6.795
21583SOL    HW266684   6.310   6.079   6.764
21584SOL     OW66685   6.546   7.267   7.083
21584SOL    HW166686   6.535   7.201   7.009
21584SOL    HW266687   6.561   7.358   7.044
21585SOL     OW66688   6.065   6.122   5.778
21585SOL    HW166689   6.073   6.219   5.803
21585SOL    HW266690   5.977   6.107   5.732
21586SOL     OW66691   5.696   6.725   7.078
21586SOL    HW166692   5.721   6.717   7.174
21586SOL    HW266693   5.747   6.657   7.024
21587SOL     OW66694   6.907   6.614   6.770
21587SOL    HW166695   6.884   6.535   6.714
21587SOL    HW266696   6.860   6.695   6.734
21588SOL     OW66697   6.918   6.463   5.842
21588SOL    HW166698   6.833   6.491   5.886
21588SOL    HW266699   6.900   6.437   5.748
21589SOL     OW66700   7.336   7.299   6.738
21589SOL    HW166701   7.408   7.329   6.675
21589SOL    HW266702   7.310   7.205   6.716
21590SOL     OW66703   6.888   7.312   6.610
21590SOL    HW166704   6.973   7.365   6.618
21590SOL    HW266705   6.899   7.224   6.657
21591SOL     OW66706   5.708   6.834   6.604
21591SOL    HW166707   5.704   6.864   6.699
21591SOL    HW266708   5.631   6.774   6.585
21592SOL     OW66709   6.360   7.223   7.281
21592SOL    HW166710   6.273   7.269   7.266
21592SOL    HW266711   6.425   7.250   7.211
21593SOL     OW66712   7.384   5.824   6.068
21593SOL    HW166713   7.435   5.796   5.987
21593SOL    HW266714   7.325   5.749   6.098
21594SOL     OW66715   7.022   7.142   6.092
21594SOL    HW166716   7.079   7.183   6.020
21594SOL    HW266717   6.978   7.214   6.145
21595SOL     OW66718   5.783   7.340   7.416
21595SOL    HW166719   5.725   7.272   7.461
21595SOL    HW266720   5.819   7.403   7.484
21596SOL     OW66721   6.875   6.508   6.196
21596SOL    HW166722   6.946   6.450   6.235
21596SOL    HW266723   6.917   6.585   6.148
21597SOL     OW66724   6.335   6.799   6.957
21597SOL    HW166725   6.328   6.863   7.033
21597SOL    HW266726   6.258   6.811   6.894
21598SOL     OW66727   6.216   7.191   5.739
21598SOL    HW166728   6.237   7.204   5.642
21598SOL    HW266729   6.172   7.102   5.751
21599SOL     OW66730   7.170   7.351   6.977
21599SOL    HW166731   7.234   7.343   6.901
21599SOL    HW266732   7.163   7.448   7.004
21600SOL     OW66733   7.446   5.767   6.584
21600SOL    HW166734   7.482   5.679   6.552
21600SOL    HW266735   7.359   5.786   6.538
21601SOL     OW66736   5.816   5.885   6.301
21601SOL    HW166737   5.733   5.933   6.272
21601SOL    HW266738   5.824   5.890   6.401
21602SOL     OW66739   6.799   7.156   5.624
21602SOL    HW166740   6.803   7.063   5.660
21602SOL    HW266741   6.731   7.162   5.551
21603SOL     OW66742   6.391   6.534   6.972
21603SOL    HW166743   6.433   6.506   6.886
21603SOL    HW266744   6.370   6.632   6.969
21604SOL     OW66745   6.565   6.538   5.922
21604SOL    HW166746   6.592   6.536   5.826
21604SOL    HW266747   6.567   6.446   5.960
21605SOL     OW66748   7.065   7.237   5.657
21605SOL    HW166749   6.970   7.207   5.644
21605SOL    HW266750   7.110   7.242   5.568
21606SOL     OW66751   5.974   6.902   7.018
21606SOL    HW166752   6.016   6.976   6.965
21606SOL    HW266753   5.896   6.865   6.967
21607SOL     OW66754   6.720   6.686   6.336
21607SOL    HW166755   6.630   6.653   6.365
21607SOL    HW266756   6.763   6.620   6.276
21608SOL     OW66757   6.644   5.860   6.545
21608SOL    HW166758   6.641   5.829   6.450
21608SOL    HW266759   6.650   5.781   6.606
21609SOL     OW66760   6.188   7.051   6.043
21609SOL    HW166761   6.152   7.005   5.962
21609SOL    HW266762   6.159   7.147   6.043
21610SOL     OW66763   7.383   5.921   7.028
21610SOL    HW166764   7.396   6.007   6.978
21610SOL    HW266765   7.377   5.845   6.963
21611SOL     OW66766   5.816   6.944   5.846
21611SOL    HW166767   5.723   6.927   5.817
21611SOL    HW266768   5.817   6.964   5.944
21612SOL     OW66769   5.717   6.692   7.353
21612SOL    HW166770   5.623   6.678   7.385
21612SOL    HW266771   5.777   6.627   7.398
21613SOL     OW66772   6.296   5.701   6.987
21613SOL    HW166773   6.387   5.666   6.965
21613SOL    HW266774   6.305   5.782   7.045
21614SOL     OW66775   5.677   5.867   5.617
21614SOL    HW166776   5.598   5.887   5.559
21614SOL    HW266777   5.721   5.953   5.645
21615SOL     OW66778   7.031   6.364   6.990
21615SOL    HW166779   6.983   6.427   6.930
21615SOL    HW266780   7.127   6.392   6.999
21616SOL     OW66781   5.721   5.721   5.844
21616SOL    HW166782   5.691   5.765   5.759
21616SOL    HW266783   5.819   5.737   5.857
21617SOL     OW66784   6.797   6.900   5.726
21617SOL    HW166785   6.700   6.884   5.713
21617SOL    HW266786   6.817   6.906   5.824
21618SOL     OW66787   6.195   6.397   7.111
21618SOL    HW166788   6.272   6.450   7.075
21618SOL    HW266789   6.227   6.331   7.178
21619SOL     OW66790   7.124   7.447   6.624
21619SOL    HW166791   7.164   7.509   6.557
21619SOL    HW266792   7.198   7.399   6.672
21620SOL     OW66793   7.020   6.767   7.192
21620SOL    HW166794   7.049   6.796   7.284
21620SOL    HW266795   7.087   6.799   7.125
21621SOL     OW66796   6.113   7.336   7.237
21621SOL    HW166797   6.114   7.372   7.143
21621SOL    HW266798   6.040   7.268   7.245
21622SOL     OW66799   7.350   6.449   6.641
21622SOL    HW166800   7.305   6.371   6.684
21622SOL    HW266801   7.281   6.517   6.615
21623SOL     OW66802   6.784   5.912   6.051
21623SOL    HW166803   6.851   5.838   6.048
21623SOL    HW266804   6.800   5.967   6.133
21624SOL     OW66805   6.173   6.305   6.249
21624SOL    HW166806   6.216   6.395   6.243
21624SOL    HW266807   6.098   6.299   6.183
21625SOL     OW66808   7.349   5.947   7.298
21625SOL    HW166809   7.352   5.942   7.198
21625SOL    HW266810   7.329   5.856   7.335
21626SOL     OW66811   6.507   6.932   5.685
21626SOL    HW166812   6.474   6.933   5.779
21626SOL    HW266813   6.502   7.025   5.647
21627SOL     OW66814   6.255   7.313   6.535
21627SOL    HW166815   6.232   7.410   6.542
21627SOL    HW266816   6.352   7.300   6.559
21628SOL     OW66817   6.483   6.578   6.432
21628SOL    HW166818   6.523   6.492   6.467
21628SOL    HW266819   6.432   6.623   6.506
21629SOL     OW66820   6.645   6.513   5.667
21629SOL    HW166821   6.616   6.585   5.604
21629SOL    HW266822   6.728   6.470   5.632
21630SOL     OW66823   7.402   7.155   6.443
21630SOL    HW166824   7.340   7.130   6.369
21630SOL    HW266825   7.379   7.102   6.525
21631SOL     OW66826   5.874   6.912   7.407
21631SOL    HW166827   5.809   6.841   7.382
21631SOL    HW266828   5.866   6.932   7.504
21632SOL     OW66829   5.658   6.852   6.323
21632SOL    HW166830   5.676   6.865   6.421
21632SOL    HW266831   5.661   6.755   6.302
21633SOL     OW66832   6.304   6.969   7.166
21633SOL    HW166833   6.224   6.925   7.209
21633SOL    HW266834   6.320   7.058   7.208
21634SOL     OW66835   7.375   5.726   6.845
21634SOL    HW166836   7.365   5.626   6.847
21634SOL    HW266837   7.404   5.755   6.754
21635SOL     OW66838   5.990   5.999   6.113
21635SOL    HW166839   5.996   5.941   6.032
21635SOL    HW266840   5.935   5.955   6.183
21636SOL     OW66841   7.297   7.039   6.668
21636SOL    HW166842   7.218   7.005   6.617
21636SOL    HW266843   7.324   6.971   6.736
21637SOL     OW66844   5.936   6.132   6.846
21637SOL    HW166845   5.968   6.038   6.860
21637SOL    HW266846   5.912   6.145   6.750
21638SOL     OW66847   7.019   5.847   6.710
21638SOL    HW166848   7.040   5.750   6.718
21638SOL    HW266849   6.968   5.877   6.791
21639SOL     OW66850   6.648   5.611   6.666
21639SOL    HW166851   6.584   5.568   6.602
21639SOL    HW266852   6.734   5.561   6.667
21640SOL     OW66853   6.411   6.920   5.935
21640SOL    HW166854   6.392   6.826   5.964
21640SOL    HW266855   6.352   6.983   5.986
21641SOL     OW66856   6.948   5.627   5.782
21641SOL    HW166857   7.002   5.552   5.744
21641SOL    HW266858   6.851   5.610   5.766
21642SOL     OW66859   6.814   6.063   6.271
21642SOL    HW166860   6.774   6.154   6.263
21642SOL    HW266861   6.854   6.051   6.362
21643SOL     OW66862   7.196   5.821   6.494
21643SOL    HW166863   7.135   5.848   6.568
21643SOL    HW266864   7.202   5.895   6.427
21644SOL     OW66865   5.601   6.643   5.913
21644SOL    HW166866   5.698   6.654   5.893
21644SOL    HW266867   5.581   6.545   5.923
21645SOL     OW66868   6.435   7.313   5.854
21645SOL    HW166869   6.366   7.254   5.812
21645SOL    HW266870   6.396   7.404   5.871
21646SOL     OW66871   5.870   6.238   7.490
21646SOL    HW166872   5.863   6.337   7.494
21646SOL    HW266873   5.838   6.205   7.401
21647SOL     OW66874   5.763   5.897   8.442
21647SOL    HW166875   5.812   5.874   8.526
21647SOL    HW266876   5.675   5.849   8.440
21648SOL     OW66877   5.502   5.985   8.083
21648SOL    HW166878   5.425   5.997   8.146
21648SOL    HW266879   5.501   5.893   8.045
21649SOL     OW66880   6.142   6.900   8.667
21649SOL    HW166881   6.065   6.903   8.604
21649SOL    HW266882   6.156   6.991   8.707
21650SOL     OW66883   7.167   7.171   8.152
21650SOL    HW166884   7.120   7.214   8.229
21650SOL    HW266885   7.103   7.156   8.077
21651SOL     OW66886   6.715   6.336   8.117
21651SOL    HW166887   6.768   6.421   8.110
21651SOL    HW266888   6.650   6.344   8.194
21652SOL     OW66889   7.390   6.136   7.687
21652SOL    HW166890   7.329   6.127   7.608
21652SOL    HW266891   7.366   6.066   7.755
21653SOL     OW66892   6.309   6.730   8.516
21653SOL    HW166893   6.237   6.763   8.577
21653SOL    HW266894   6.360   6.808   8.478
21654SOL     OW66895   6.480   6.301   9.291
21654SOL    HW166896   6.487   6.354   9.376
21654SOL    HW266897   6.484   6.362   9.213
21655SOL     OW66898   6.283   6.576   8.114
21655SOL    HW166899   6.358   6.584   8.180
21655SOL    HW266900   6.212   6.643   8.137
21656SOL     OW66901   6.196   6.691   9.301
21656SOL    HW166902   6.223   6.771   9.354
21656SOL    HW266903   6.136   6.720   9.226
21657SOL     OW66904   5.941   7.012   8.495
21657SOL    HW166905   5.874   6.956   8.446
21657SOL    HW266906   5.992   7.069   8.431
21658SOL     OW66907   6.092   5.946   8.899
21658SOL    HW166908   6.171   5.890   8.922
21658SOL    HW266909   6.009   5.904   8.937
21659SOL     OW66910   7.249   6.130   8.215
21659SOL    HW166911   7.222   6.162   8.125
21659SOL    HW266912   7.180   6.156   8.282
21660SOL     OW66913   5.845   7.303   7.881
21660SOL    HW166914   5.851   7.373   7.953
21660SOL    HW266915   5.922   7.314   7.818
21661SOL     OW66916   5.828   7.035   7.934
21661SOL    HW166917   5.834   7.134   7.923
21661SOL    HW266918   5.771   7.014   8.013
21662SOL     OW66919   5.953   6.684   8.388
21662SOL    HW166920   5.942   6.585   8.400
21662SOL    HW266921   5.866   6.729   8.410
21663SOL     OW66922   6.167   7.359   8.942
21663SOL    HW166923   6.071   7.362   8.968
21663SOL    HW266924   6.206   7.451   8.949
21664SOL     OW66925   6.156   6.574   7.624
21664SOL    HW166926   6.200   6.611   7.542
21664SOL    HW266927   6.208   6.600   7.705
21665SOL     OW66928   7.162   5.735   8.798
21665SOL    HW166929   7.262   5.739   8.794
21665SOL    HW266930   7.132   5.734   8.893
21666SOL     OW66931   7.440   7.336   7.724
21666SOL    HW166932   7.510   7.325   7.794
21666SOL    HW266933   7.443   7.430   7.688
21667SOL     OW66934   5.644   7.156   7.548
21667SOL    HW166935   5.620   7.061   7.568
21667SOL    HW266936   5.626   7.213   7.629
21668SOL     OW66937   7.285   6.529   8.125
21668SOL    HW166938   7.377   6.489   8.122
21668SOL    HW266939   7.271   6.584   8.043
21669SOL     OW66940   7.248   6.707   7.912
21669SOL    HW166941   7.340   6.698   7.873
21669SOL    HW266942   7.248   6.782   7.978
21670SOL     OW66943   5.690   6.357   9.036
21670SOL    HW166944   5.751   6.421   9.082
21670SOL    HW266945   5.605   6.404   9.010
21671SOL     OW66946   6.205   7.002   8.151
21671SOL    HW166947   6.170   6.909   8.165
21671SOL    HW266948   6.187   7.031   8.057
21672SOL     OW66949   6.401   5.628   7.960
21672SOL    HW166950   6.443   5.715   7.934
21672SOL    HW266951   6.303   5.640   7.973
21673SOL     OW66952   5.773   6.501   8.728
21673SOL    HW166953   5.869   6.475   8.724
21673SOL    HW266954   5.719   6.438   8.672
21674SOL     OW66955   7.211   6.606   7.610
21674SOL    HW166956   7.130   6.553   7.634
21674SOL    HW266957   7.266   6.622   7.692
21675SOL     OW66958   6.726   7.416   9.176
21675SOL    HW166959   6.752   7.483   9.106
21675SOL    HW266960   6.759   7.326   9.149
21676SOL     OW66961   5.961   5.857   9.305
21676SOL    HW166962   5.998   5.929   9.363
21676SOL    HW266963   5.867   5.878   9.279
21677SOL     OW66964   7.025   6.961   8.549
21677SOL    HW166965   6.933   6.932   8.575
21677SOL    HW266966   7.051   6.917   8.463
21678SOL     OW66967   7.235   7.383   7.973
21678SOL    HW166968   7.224   7.330   7.889
21678SOL    HW266969   7.232   7.323   8.052
21679SOL     OW66970   6.182   6.311   7.732
21679SOL    HW166971   6.176   6.401   7.688
21679SOL    HW266972   6.118   6.307   7.809
21680SOL     OW66973   6.868   5.992   8.396
21680SOL    HW166974   6.786   5.935   8.389
21680SOL    HW266975   6.928   5.955   8.466
21681SOL     OW66976   7.183   7.246   7.743
21681SOL    HW166977   7.280   7.267   7.729
21681SOL    HW266978   7.138   7.233   7.655
21682SOL     OW66979   6.370   6.143   8.909
21682SOL    HW166980   6.339   6.112   8.999
21682SOL    HW266981   6.346   6.075   8.840
21683SOL     OW66982   6.969   6.100   9.111
21683SOL    HW166983   6.964   6.149   9.198
21683SOL    HW266984   7.055   6.050   9.106
21684SOL     OW66985   6.505   6.468   9.067
21684SOL    HW166986   6.559   6.401   9.016
21684SOL    HW266987   6.451   6.523   9.004
21685SOL     OW66988   6.588   5.959   8.623
21685SOL    HW166989   6.493   5.966   8.651
21685SOL    HW266990   6.594   5.907   8.537
21686SOL     OW66991   6.653   6.343   7.845
21686SOL    HW166992   6.685   6.336   7.939
21686SOL    HW266993   6.566   6.295   7.835
21687SOL     OW66994   5.719   6.459   8.240
21687SOL    HW166995   5.805   6.436   8.284
21687SOL    HW266996   5.670   6.526   8.296
21688SOL     OW66997   5.716   7.547   9.087
21688SOL    HW166998   5.707   7.485   9.165
21688SOL    HW266999   5.638   7.610   9.085
21689SOL     OW67000   6.538   6.006   7.667
21689SOL    HW167001   6.638   6.008   7.669
21689SOL    HW267002   6.507   5.942   7.597
21690SOL     OW67003   7.243   6.155   9.302
21690SOL    HW167004   7.245   6.239   9.248
21690SOL    HW267005   7.235   6.076   9.240
21691SOL     OW67006   6.971   6.691   7.882
21691SOL    HW167007   7.071   6.700   7.887
21691SOL    HW267008   6.930   6.781   7.873
21692SOL     OW67009   6.137   5.684   8.387
21692SOL    HW167010   6.139   5.724   8.479
21692SOL    HW267011   6.155   5.756   8.319
21693SOL     OW67012   6.605   7.045   7.886
21693SOL    HW167013   6.583   7.119   7.821
21693SOL    HW267014   6.565   7.066   7.975
21694SOL     OW67015   5.903   7.380   8.324
21694SOL    HW167016   5.968   7.304   8.329
21694SOL    HW267017   5.950   7.466   8.341
21695SOL     OW67018   7.369   6.629   8.367
21695SOL    HW167019   7.329   6.610   8.277
21695SOL    HW267020   7.298   6.626   8.437
21696SOL     OW67021   5.880   6.615   7.737
21696SOL    HW167022   5.980   6.617   7.743
21696SOL    HW267023   5.852   6.580   7.648
21697SOL     OW67024   7.056   6.390   8.162
21697SOL    HW167025   7.050   6.334   8.245
21697SOL    HW267026   7.143   6.438   8.161
21698SOL     OW67027   6.030   6.853   9.141
21698SOL    HW167028   5.999   6.865   9.046
21698SOL    HW267029   5.953   6.869   9.203
21699SOL     OW67030   6.753   7.316   7.653
21699SOL    HW167031   6.662   7.306   7.692
21699SOL    HW267032   6.773   7.238   7.594
21700SOL     OW67033   5.837   5.857   8.964
21700SOL    HW167034   5.804   5.937   9.014
21700SOL    HW267035   5.795   5.775   9.002
21701SOL     OW67036   7.274   7.003   7.512
21701SOL    HW167037   7.216   7.085   7.509
21701SOL    HW267038   7.221   6.924   7.482
21702SOL     OW67039   6.078   7.365   7.738
21702SOL    HW167040   6.114   7.414   7.817
21702SOL    HW267041   6.154   7.335   7.680
21703SOL     OW67042   6.969   5.692   7.950
21703SOL    HW167043   6.970   5.670   7.853
21703SOL    HW267044   7.061   5.720   7.979
21704SOL     OW67045   5.780   7.393   8.661
21704SOL    HW167046   5.836   7.317   8.692
21704SOL    HW267047   5.741   7.372   8.571
21705SOL     OW67048   6.540   7.301   8.266
21705SOL    HW167049   6.629   7.273   8.301
21705SOL    HW267050   6.509   7.237   8.196
21706SOL     OW67051   5.997   6.283   7.931
21706SOL    HW167052   5.977   6.186   7.938
21706SOL    HW267053   5.914   6.336   7.949
21707SOL     OW67054   7.081   5.697   9.061
21707SOL    HW167055   7.116   5.612   9.098
21707SOL    HW267056   6.981   5.693   9.057
21708SOL     OW67057   6.234   5.682   7.592
21708SOL    HW167058   6.276   5.599   7.629
21708SOL    HW267059   6.162   5.657   7.528
21709SOL     OW67060   6.373   5.831   9.242
21709SOL    HW167061   6.461   5.786   9.228
21709SOL    HW267062   6.313   5.771   9.295
21710SOL     OW67063   6.456   7.099   8.670
21710SOL    HW167064   6.434   7.060   8.580
21710SOL    HW267065   6.508   7.032   8.723
21711SOL     OW67066   6.859   6.201   8.885
21711SOL    HW167067   6.901   6.167   8.970
21711SOL    HW267068   6.895   6.291   8.863
21712SOL     OW67069   6.416   6.971   8.422
21712SOL    HW167070   6.512   6.975   8.393
21712SOL    HW267071   6.357   6.991   8.344
21713SOL     OW67072   6.504   6.122   8.324
21713SOL    HW167073   6.478   6.113   8.228
21713SOL    HW267074   6.549   6.038   8.354
21714SOL     OW67075   6.132   5.679   7.964
21714SOL    HW167076   6.049   5.674   8.020
21714SOL    HW267077   6.126   5.758   7.902
21715SOL     OW67078   7.097   6.802   7.456
21715SOL    HW167079   7.139   6.725   7.503
21715SOL    HW267080   7.011   6.826   7.502
21716SOL     OW67081   5.848   5.656   7.663
21716SOL    HW167082   5.866   5.749   7.631
21716SOL    HW267083   5.931   5.619   7.705
21717SOL     OW67084   6.518   5.863   7.903
21717SOL    HW167085   6.506   5.911   7.816
21717SOL    HW267086   6.615   5.860   7.927
21718SOL     OW67087   6.600   6.288   8.886
21718SOL    HW167088   6.529   6.219   8.897
21718SOL    HW267089   6.690   6.244   8.886
21719SOL     OW67090   6.808   7.204   8.270
21719SOL    HW167091   6.805   7.258   8.185
21719SOL    HW267092   6.890   7.228   8.321
21720SOL     OW67093   6.088   6.757   8.168
21720SOL    HW167094   6.045   6.731   8.254
21720SOL    HW267095   6.020   6.756   8.095
21721SOL     OW67096   6.813   7.383   8.065
21721SOL    HW167097   6.878   7.428   8.003
21721SOL    HW267098   6.752   7.451   8.105
21722SOL     OW67099   5.716   6.164   8.846
21722SOL    HW167100   5.812   6.152   8.823
21722SOL    HW267101   5.708   6.234   8.917
21723SOL     OW67102   6.132   5.784   8.638
21723SOL    HW167103   6.154   5.712   8.704
21723SOL    HW267104   6.038   5.815   8.652
21724SOL     OW67105   6.452   6.080   8.064
21724SOL    HW167106   6.428   6.146   7.992
21724SOL    HW267107   6.470   5.991   8.022
21725SOL     OW67108   6.586   5.632   8.172
21725SOL    HW167109   6.523   5.632   8.095
21725SOL    HW267110   6.559   5.561   8.237
21726SOL     OW67111   7.071   6.808   8.317
21726SOL    HW167112   6.987   6.775   8.275
21726SOL    HW267113   7.136   6.835   8.245
21727SOL     OW67114   7.029   6.224   8.384
21727SOL    HW167115   6.965   6.147   8.382
21727SOL    HW267116   7.089   6.216   8.463
21728SOL     OW67117   7.397   6.359   7.843
21728SOL    HW167118   7.470   6.336   7.907
21728SOL    HW267119   7.391   6.287   7.773
21729SOL     OW67120   6.108   7.054   7.620
21729SOL    HW167121   6.017   7.013   7.628
21729SOL    HW267122   6.170   6.987   7.579
21730SOL     OW67123   7.246   6.890   8.118
21730SOL    HW167124   7.343   6.867   8.122
21730SOL    HW267125   7.235   6.989   8.122
21731SOL     OW67126   6.976   6.007   7.485
21731SOL    HW167127   6.933   5.994   7.575
21731SOL    HW267128   7.067   6.045   7.498
21732SOL     OW67129   6.109   5.865   7.764
21732SOL    HW167130   6.158   5.803   7.704
21732SOL    HW267131   6.089   5.951   7.716
21733SOL     OW67132   7.275   6.942   8.986
21733SOL    HW167133   7.368   6.921   8.956
21733SOL    HW267134   7.270   7.038   9.014
21734SOL     OW67135   6.578   6.886   8.805
21734SOL    HW167136   6.483   6.875   8.833
21734SOL    HW267137   6.635   6.820   8.855
21735SOL     OW67138   6.765   6.876   8.594
21735SOL    HW167139   6.694   6.886   8.664
21735SOL    HW267140   6.731   6.911   8.507
21736SOL     OW67141   7.142   6.638   8.522
21736SOL    HW167142   7.061   6.634   8.581
21736SOL    HW267143   7.124   6.699   8.444
21737SOL     OW67144   6.538   5.657   8.831
21737SOL    HW167145   6.552   5.642   8.733
21737SOL    HW267146   6.621   5.697   8.871
21738SOL     OW67147   6.476   6.643   9.273
21738SOL    HW167148   6.377   6.658   9.282
21738SOL    HW267149   6.494   6.582   9.196
21739SOL     OW67150   6.305   6.632   7.845
21739SOL    HW167151   6.290   6.606   7.941
21739SOL    HW267152   6.400   6.613   7.820
21740SOL     OW67153   6.031   6.394   8.726
21740SOL    HW167154   6.095   6.405   8.802
21740SOL    HW267155   6.000   6.299   8.722
21741SOL     OW67156   6.823   5.967   8.750
21741SOL    HW167157   6.836   6.054   8.797
21741SOL    HW267158   6.734   5.967   8.704
21742SOL     OW67159   5.630   7.127   8.777
21742SOL    HW167160   5.577   7.200   8.733
21742SOL    HW267161   5.728   7.149   8.771
21743SOL     OW67162   5.897   6.770   7.973
21743SOL    HW167163   5.888   6.866   7.944
21743SOL    HW267164   5.883   6.711   7.894
21744SOL     OW67165   6.104   6.142   8.338
21744SOL    HW167166   6.124   6.200   8.258
21744SOL    HW267167   6.181   6.146   8.401
21745SOL     OW67168   6.857   6.939   7.855
21745SOL    HW167169   6.916   7.013   7.888
21745SOL    HW267170   6.761   6.965   7.869
21746SOL     OW67171   7.179   6.225   7.968
21746SOL    HW167172   7.109   6.283   8.009
21746SOL    HW267173   7.245   6.283   7.919
21747SOL     OW67174   5.907   7.146   8.728
21747SOL    HW167175   5.911   7.096   8.641
21747SOL    HW267176   6.000   7.161   8.762
21748SOL     OW67177   6.070   6.260   9.126
21748SOL    HW167178   6.109   6.309   9.048
21748SOL    HW267179   6.137   6.194   9.161
21749SOL     OW67180   7.234   6.389   9.165
21749SOL    HW167181   7.140   6.423   9.155
21749SOL    HW267182   7.288   6.417   9.086
21750SOL     OW67183   6.607   5.704   9.205
21750SOL    HW167184   6.672   5.780   9.197
21750SOL    HW267185   6.650   5.620   9.174
21751SOL     OW67186   6.074   5.646   9.172
21751SOL    HW167187   6.011   5.594   9.114
21751SOL    HW267188   6.029   5.730   9.204
21752SOL     OW67189   6.197   6.454   8.511
21752SOL    HW167190   6.229   6.549   8.506
21752SOL    HW267191   6.134   6.444   8.589
21753SOL     OW67192   6.853   6.440   8.450
21753SOL    HW167193   6.760   6.414   8.425
21753SOL    HW267194   6.917   6.367   8.424
21754SOL     OW67195   6.818   6.025   7.718
21754SOL    HW167196   6.809   5.958   7.792
21754SOL    HW267197   6.844   6.114   7.756
21755SOL     OW67198   5.865   5.824   8.688
21755SOL    HW167199   5.855   5.852   8.783
21755SOL    HW267200   5.832   5.731   8.677
21756SOL     OW67201   5.658   6.878   8.671
21756SOL    HW167202   5.669   6.811   8.744
21756SOL    HW267203   5.638   6.968   8.709
21757SOL     OW67204   6.312   6.205   8.507
21757SOL    HW167205   6.380   6.185   8.436
21757SOL    HW267206   6.276   6.297   8.494
21758SOL     OW67207   7.373   6.567   9.333
21758SOL    HW167208   7.325   6.497   9.281
21758SOL    HW267209   7.327   6.582   9.420
21759SOL     OW67210   5.892   5.663   8.100
21759SOL    HW167211   5.842   5.748   8.115
21759SOL    HW267212   5.896   5.611   8.185
21760SOL     OW67213   7.290   5.977   7.894
21760SOL    HW167214   7.257   5.893   7.937
21760SOL    HW267215   7.230   6.053   7.921
21761SOL     OW67216   6.592   6.366   8.400
21761SOL    HW167217   6.566   6.381   8.495
21761SOL    HW267218   6.565   6.274   8.372
21762SOL     OW67219   5.904   6.467   9.217
21762SOL    HW167220   5.931   6.488   9.312
21762SOL    HW267221   5.966   6.398   9.180
21763SOL     OW67222   6.679   6.975   8.354
21763SOL    HW167223   6.693   6.895   8.297
21763SOL    HW267224   6.730   7.053   8.316
21764SOL     OW67225   5.938   6.409   8.398
21764SOL    HW167226   6.038   6.412   8.405
21764SOL    HW267227   5.906   6.318   8.425
21765SOL     OW67228   5.869   6.144   8.461
21765SOL    HW167229   5.818   6.059   8.446
21765SOL    HW267230   5.955   6.140   8.410
21766SOL     OW67231   6.761   5.929   9.155
21766SOL    HW167232   6.708   5.980   9.222
21766SOL    HW267233   6.841   5.981   9.128
21767SOL     OW67234   6.775   5.762   8.935
21767SOL    HW167235   6.761   5.820   9.016
21767SOL    HW267236   6.804   5.820   8.858
21768SOL     OW67237   5.579   6.897   7.623
21768SOL    HW167238   5.488   6.924   7.591
21768SOL    HW267239   5.573   6.808   7.668
21769SOL     OW67240   5.653   7.351   8.418
21769SOL    HW167241   5.605   7.280   8.367
21769SOL    HW267242   5.744   7.364   8.378
21770SOL     OW67243   6.095   7.180   8.327
21770SOL    HW167244   6.163   7.254   8.331
21770SOL    HW267245   6.126   7.110   8.262
21771SOL     OW67246   6.493   6.386   8.654
21771SOL    HW167247   6.542   6.361   8.738
21771SOL    HW267248   6.419   6.320   8.638
21772SOL     OW67249   5.658   6.264   8.601
21772SOL    HW167250   5.728   6.230   8.539
21772SOL    HW267251   5.674   6.227   8.693
21773SOL     OW67252   5.815   6.160   9.182
21773SOL    HW167253   5.910   6.185   9.161
21773SOL    HW267254   5.753   6.224   9.136
21774SOL     OW67255   6.998   6.516   9.096
21774SOL    HW167256   7.047   6.603   9.096
21774SOL    HW267257   6.973   6.492   9.002
21775SOL     OW67258   6.423   6.209   7.813
21775SOL    HW167259   6.452   6.134   7.753
21775SOL    HW267260   6.335   6.245   7.782
21776SOL     OW67261   7.188   6.172   8.597
21776SOL    HW167262   7.145   6.089   8.633
21776SOL    HW267263   7.287   6.157   8.588
21777SOL     OW67264   5.779   7.144   9.152
21777SOL    HW167265   5.759   7.213   9.222
21777SOL    HW267266   5.795   7.056   9.196
21778SOL     OW67267   6.322   5.989   8.679
21778SOL    HW167268   6.252   5.919   8.667
21778SOL    HW267269   6.305   6.066   8.617
21779SOL     OW67270   6.055   6.097   7.619
21779SOL    HW167271   6.115   6.161   7.666
21779SOL    HW267272   5.982   6.148   7.573
21780SOL     OW67273   5.699   6.708   8.886
21780SOL    HW167274   5.708   6.684   8.982
21780SOL    HW267275   5.725   6.630   8.829
21781SOL     OW67276   6.890   6.631   8.636
21781SOL    HW167277   6.869   6.564   8.565
21781SOL    HW267278   6.841   6.716   8.618
21782SOL     OW67279   6.985   6.488   7.696
21782SOL    HW167280   6.965   6.556   7.766
21782SOL    HW267281   6.900   6.449   7.661
21783SOL     OW67282   6.929   7.379   8.609
21783SOL    HW167283   6.965   7.357   8.518
21783SOL    HW267284   6.945   7.302   8.670
21784SOL     OW67285   5.717   6.821   8.416
21784SOL    HW167286   5.697   6.848   8.510
21784SOL    HW267287   5.649   6.754   8.386
21785SOL     OW67288   6.207   7.277   9.206
21785SOL    HW167289   6.143   7.347   9.238
21785SOL    HW267290   6.227   7.291   9.109
21786SOL     OW67291   6.997   7.165   7.936
21786SOL    HW167292   7.056   7.192   7.860
21786SOL    HW267293   6.925   7.233   7.948
21787SOL     OW67294   5.716   7.378   9.304
21787SOL    HW167295   5.664   7.306   9.351
21787SOL    HW267296   5.763   7.434   9.372
21788SOL     OW67297   6.864   6.564   8.096
21788SOL    HW167298   6.936   6.502   8.126
21788SOL    HW267299   6.893   6.612   8.013
21789SOL     OW67300   6.320   6.856   8.884
21789SOL    HW167301   6.299   6.909   8.967
21789SOL    HW267302   6.244   6.866   8.819
21790SOL     OW67303   6.286   7.256   7.574
21790SOL    HW167304   6.317   7.256   7.479
21790SOL    HW267305   6.220   7.181   7.587
21791SOL     OW67306   7.370   7.358   8.881
21791SOL    HW167307   7.347   7.328   8.788
21791SOL    HW267308   7.318   7.441   8.902
21792SOL     OW67309   7.424   5.728   8.515
21792SOL    HW167310   7.470   5.659   8.460
21792SOL    HW267311   7.340   5.758   8.469
21793SOL     OW67312   5.771   5.905   8.157
21793SOL    HW167313   5.682   5.939   8.128
21793SOL    HW267314   5.779   5.910   8.256
21794SOL     OW67315   6.808   7.104   7.485
21794SOL    HW167316   6.840   7.015   7.518
21794SOL    HW267317   6.712   7.097   7.458
21795SOL     OW67318   6.375   6.588   8.861
21795SOL    HW167319   6.409   6.569   8.768
21795SOL    HW267320   6.350   6.685   8.868
21796SOL     OW67321   6.560   6.600   7.782
21796SOL    HW167322   6.610   6.632   7.701
21796SOL    HW267323   6.601   6.515   7.815
21797SOL     OW67324   7.077   7.218   7.491
21797SOL    HW167325   6.985   7.182   7.479
21797SOL    HW267326   7.117   7.238   7.401
21798SOL     OW67327   5.910   6.899   8.903
21798SOL    HW167328   5.898   6.980   8.846
21798SOL    HW267329   5.837   6.834   8.885
21799SOL     OW67330   6.698   6.737   8.230
21799SOL    HW167331   6.613   6.691   8.255
21799SOL    HW267332   6.756   6.674   8.178
21800SOL     OW67333   6.641   5.818   8.386
21800SOL    HW167334   6.628   5.782   8.294
21800SOL    HW267335   6.641   5.743   8.453
21801SOL     OW67336   6.197   7.076   7.892
21801SOL    HW167337   6.266   7.011   7.859
21801SOL    HW267338   6.138   7.103   7.815
21802SOL     OW67339   7.413   5.950   8.958
21802SOL    HW167340   7.446   6.035   8.917
21802SOL    HW267341   7.423   5.876   8.891
21803SOL     OW67342   5.845   6.951   7.675
21803SOL    HW167343   5.750   6.927   7.654
21803SOL    HW267344   5.850   6.988   7.768
21804SOL     OW67345   5.706   6.645   9.154
21804SOL    HW167346   5.625   6.617   9.206
21804SOL    HW267347   5.784   6.588   9.182
21805SOL     OW67348   6.310   5.778   8.966
21805SOL    HW167349   6.392   5.748   8.918
21805SOL    HW267350   6.332   5.798   9.062
21806SOL     OW67351   5.637   5.997   7.416
21806SOL    HW167352   5.555   5.976   7.362
21806SOL    HW267353   5.697   6.056   7.362
21807SOL     OW67354   6.964   6.452   8.832
21807SOL    HW167355   6.917   6.518   8.774
21807SOL    HW267356   7.055   6.434   8.795
21808SOL     OW67357   5.591   5.677   7.735
21808SOL    HW167358   5.552   5.756   7.688
21808SOL    HW267359   5.688   5.668   7.713
21809SOL     OW67360   6.867   6.859   7.592
21809SOL    HW167361   6.805   6.783   7.574
21809SOL    HW267362   6.864   6.884   7.689
21810SOL     OW67363   6.218   6.373   8.922
21810SOL    HW167364   6.273   6.456   8.909
21810SOL    HW267365   6.276   6.293   8.914
21811SOL     OW67366   7.048   7.314   8.362
21811SOL    HW167367   7.039   7.410   8.336
21811SOL    HW267368   7.125   7.304   8.426
21812SOL     OW67369   6.305   6.102   9.177
21812SOL    HW167370   6.364   6.166   9.227
21812SOL    HW267371   6.326   6.008   9.206
21813SOL     OW67372   7.162   6.730   9.104
21813SOL    HW167373   7.156   6.749   9.202
21813SOL    HW267374   7.197   6.810   9.056
21814SOL     OW67375   5.912   7.360   9.036
21814SOL    HW167376   5.838   7.427   9.029
21814SOL    HW267377   5.874   7.271   9.063
21815SOL     OW67378   7.205   6.434   8.708
21815SOL    HW167379   7.210   6.342   8.670
21815SOL    HW267380   7.200   6.500   8.633
21816SOL     OW67381   6.782   5.885   7.947
21816SOL    HW167382   6.848   5.811   7.955
21816SOL    HW267383   6.801   5.954   8.018
21817SOL     OW67384   6.167   6.324   8.145
21817SOL    HW167385   6.215   6.411   8.134
21817SOL    HW267386   6.111   6.307   8.064
21818SOL     OW67387   7.195   5.949   9.116
21818SOL    HW167388   7.276   5.954   9.058
21818SOL    HW267389   7.155   5.858   9.109
21819SOL     OW67390   7.317   6.548   8.938
21819SOL    HW167391   7.254   6.609   8.985
21819SOL    HW267392   7.273   6.510   8.857
21820SOL     OW67393   6.347   6.925   7.537
21820SOL    HW167394   6.364   6.917   7.635
21820SOL    HW267395   6.423   6.974   7.494
21821SOL     OW67396   6.281   7.385   8.285
21821SOL    HW167397   6.259   7.425   8.196
21821SOL    HW267398   6.376   7.354   8.285
21822SOL     OW67399   6.469   6.601   8.318
21822SOL    HW167400   6.512   6.516   8.347
21822SOL    HW267401   6.414   6.637   8.393
21823SOL     OW67402   6.700   6.645   7.549
21823SOL    HW167403   6.643   6.652   7.467
21823SOL    HW267404   6.729   6.550   7.561
21824SOL     OW67405   7.415   7.118   8.269
21824SOL    HW167406   7.333   7.148   8.220
21824SOL    HW267407   7.388   7.078   8.357
21825SOL     OW67408   5.786   6.888   9.261
21825SOL    HW167409   5.755   6.808   9.210
21825SOL    HW267410   5.731   6.898   9.344
21826SOL     OW67411   5.706   6.884   8.145
21826SOL    HW167412   5.716   6.874   8.244
21826SOL    HW267413   5.768   6.820   8.099
21827SOL     OW67414   6.256   7.004   9.120
21827SOL    HW167415   6.173   6.949   9.134
21827SOL    HW267416   6.240   7.097   9.153
21828SOL     OW67417   7.434   5.738   8.783
21828SOL    HW167418   7.507   5.677   8.812
21828SOL    HW267419   7.434   5.745   8.683
21829SOL     OW67420   5.937   6.022   7.955
21829SOL    HW167421   5.984   5.952   7.900
21829SOL    HW267422   5.884   5.977   8.027
21830SOL     OW67423   7.301   7.050   8.523
21830SOL    HW167424   7.207   7.020   8.539
21830SOL    HW267425   7.363   6.998   8.581
21831SOL     OW67426   5.965   6.131   8.743
21831SOL    HW167427   6.021   6.067   8.795
21831SOL    HW267428   5.952   6.096   8.650
21832SOL     OW67429   6.430   7.147   8.078
21832SOL    HW167430   6.396   7.211   8.008
21832SOL    HW267431   6.355   7.087   8.106
21833SOL     OW67432   7.036   5.888   8.606
21833SOL    HW167433   7.089   5.826   8.665
21833SOL    HW267434   6.955   5.919   8.655
21834SOL     OW67435   6.619   5.597   8.552
21834SOL    HW167436   6.564   5.536   8.495
21834SOL    HW267437   6.711   5.559   8.564
21835SOL     OW67438   6.381   6.898   7.804
21835SOL    HW167439   6.361   6.802   7.827
21835SOL    HW267440   6.473   6.921   7.836
21836SOL     OW67441   6.192   7.145   8.777
21836SOL    HW167442   6.187   7.221   8.841
21836SOL    HW267443   6.286   7.134   8.745
21837SOL     OW67444   6.951   5.627   7.690
21837SOL    HW167445   7.000   5.593   7.609
21837SOL    HW267446   6.868   5.573   7.702
21838SOL     OW67447   6.825   6.077   8.131
21838SOL    HW167448   6.787   6.170   8.125
21838SOL    HW267449   6.844   6.055   8.226
21839SOL     OW67450   5.601   6.654   7.767
21839SOL    HW167451   5.700   6.648   7.767
21839SOL    HW267452   5.561   6.565   7.788
21840SOL     OW67453   6.498   7.269   7.753
21840SOL    HW167454   6.426   7.256   7.685
21840SOL    HW267455   6.467   7.332   7.823
21841SOL     OW67456   5.791   6.132   9.457
21841SOL    HW167457   5.694   6.122   9.481
21841SOL    HW267458   5.799   6.157   9.361
21842SOL     OW67459   7.445   6.190   9.483
21842SOL    HW167460   7.373   6.182   9.414
21842SOL    HW267461   7.427   6.128   9.559
21843SOL     OW67462   5.767   7.353   9.763
21843SOL    HW167463   5.771   7.425   9.832
21843SOL    HW267464   5.850   7.354   9.708
21844SOL     OW67465   5.739   7.101   9.854
21844SOL    HW167466   5.752   7.194   9.819
21844SOL    HW267467   5.703   7.106   9.947
21845SOL     OW67468   6.152   6.533   9.521
21845SOL    HW167469   6.164   6.580   9.433
21845SOL    HW267470   6.227   6.559   9.583
21846SOL     OW67471   5.671   6.302   9.802
21846SOL    HW167472   5.660   6.207   9.832
21846SOL    HW267473   5.636   6.363   9.874
21847SOL     OW67474   7.433   7.345   9.628
21847SOL    HW167475   7.520   7.333   9.675
21847SOL    HW267476   7.434   7.431   9.576
21848SOL     OW67477   5.605   7.173   9.435
21848SOL    HW167478   5.597   7.074   9.449
21848SOL    HW267479   5.566   7.221   9.514
21849SOL     OW67480   7.234   6.482   9.955
21849SOL    HW167481   7.318   6.478   0.009
21849SOL    HW267482   7.234   6.566   9.900
21850SOL     OW67483   7.298   6.710   9.811
21850SOL    HW167484   7.386   6.720   9.765
21850SOL    HW267485   7.286   6.785   9.876
21851SOL     OW67486   6.158   6.998   0.016
21851SOL    HW167487   6.098   6.918   0.022
21851SOL    HW267488   6.177   7.018   9.920
21852SOL     OW67489   6.394   5.758   9.842
21852SOL    HW167490   6.463   5.771   9.770
21852SOL    HW267491   6.304   5.749   9.799
21853SOL     OW67492   7.212   6.615   9.562
21853SOL    HW167493   7.126   6.568   9.579
21853SOL    HW267494   7.248   6.651   9.648
21854SOL     OW67495   6.157   6.268   9.606
21854SOL    HW167496   6.160   6.358   9.562
21854SOL    HW267497   6.082   6.264   9.672
21855SOL     OW67498   7.195   7.209   9.630
21855SOL    HW167499   7.282   7.258   9.637
21855SOL    HW267500   7.164   7.209   9.535
21856SOL     OW67501   6.625   6.263   9.726
21856SOL    HW167502   6.663   6.236   9.815
21856SOL    HW267503   6.536   6.220   9.714
21857SOL     OW67504   5.564   6.448   0.011
21857SOL    HW167505   5.570   6.423   0.108
21857SOL    HW267506   5.581   6.546   0.001
21858SOL     OW67507   6.456   5.967   9.476
21858SOL    HW167508   6.530   6.015   9.429
21858SOL    HW267509   6.402   5.914   9.410
21859SOL     OW67510   6.884   6.678   9.838
21859SOL    HW167511   6.941   6.693   9.919
21859SOL    HW267512   6.860   6.766   9.797
21860SOL     OW67513   6.569   6.998   9.847
21860SOL    HW167514   6.555   7.085   9.798
21860SOL    HW267515   6.524   7.002   9.936
21861SOL     OW67516   5.898   7.412   0.170
21861SOL    HW167517   5.903   7.313   0.177
21861SOL    HW267518   5.990   7.450   0.161
21862SOL     OW67519   5.910   6.533   9.649
21862SOL    HW167520   5.997   6.539   9.600
21862SOL    HW267521   5.896   6.440   9.682
21863SOL     OW67522   6.788   7.247   9.607
21863SOL    HW167523   6.694   7.243   9.638
21863SOL    HW267524   6.796   7.201   9.519
21864SOL     OW67525   6.008   7.392   9.642
21864SOL    HW167526   6.048   7.435   9.724
21864SOL    HW267527   6.080   7.347   9.589
21865SOL     OW67528   6.976   5.707   9.737
21865SOL    HW167529   6.891   5.672   9.698
21865SOL    HW267530   7.038   5.734   9.664
21866SOL     OW67531   5.945   6.251   9.777
21866SOL    HW167532   5.977   6.164   9.816
21866SOL    HW267533   5.846   6.246   9.763
21867SOL     OW67534   6.227   5.660   9.397
21867SOL    HW167535   6.256   5.569   9.426
21867SOL    HW267536   6.164   5.652   9.320
21868SOL     OW67537   6.077   5.762   9.872
21868SOL    HW167538   5.991   5.713   9.884
21868SOL    HW267539   6.096   5.773   9.774
21869SOL     OW67540   7.125   6.798   9.378
21869SOL    HW167541   7.155   6.727   9.442
21869SOL    HW267542   7.035   6.831   9.406
21870SOL     OW67543   5.922   5.639   9.466
21870SOL    HW167544   5.955   5.721   9.418
21870SOL    HW267545   5.990   5.611   9.534
21871SOL     OW67546   6.590   5.825   9.663
21871SOL    HW167547   6.540   5.877   9.594
21871SOL    HW267548   6.664   5.881   9.700
21872SOL     OW67549   5.986   6.795   0.038
21872SOL    HW167550   5.939   6.751   0.114
21872SOL    HW267551   5.934   6.780   9.954
21873SOL     OW67552   6.650   6.094   9.342
21873SOL    HW167553   6.599   6.176   9.317
21873SOL    HW267554   6.717   6.117   9.413
21874SOL     OW67555   6.432   6.017   9.925
21874SOL    HW167556   6.402   6.074   9.849
21874SOL    HW267557   6.413   5.921   9.904
21875SOL     OW67558   7.562   6.418   9.610
21875SOL    HW167559   7.561   6.378   9.701
21875SOL    HW267560   7.525   6.353   9.544
21876SOL     OW67561   6.063   7.051   9.548
21876SOL    HW167562   5.973   7.016   9.573
21876SOL    HW267563   6.112   6.983   9.494
21877SOL     OW67564   6.976   6.209   9.364
21877SOL    HW167565   6.929   6.178   9.446
21877SOL    HW267566   7.074   6.188   9.372
21878SOL     OW67567   6.152   5.811   9.616
21878SOL    HW167568   6.186   5.757   9.539
21878SOL    HW267569   6.111   5.896   9.582
21879SOL     OW67570   6.373   6.583   9.679
21879SOL    HW167571   6.381   6.546   9.772
21879SOL    HW267572   6.433   6.533   9.617
21880SOL     OW67573   5.844   6.742   9.811
21880SOL    HW167574   5.841   6.823   9.752
21880SOL    HW267575   5.872   6.663   9.758
21881SOL     OW67576   6.822   6.929   9.745
21881SOL    HW167577   6.887   7.001   9.769
21881SOL    HW267578   6.732   6.951   9.784
21882SOL     OW67579   7.272   6.277   9.781
21882SOL    HW167580   7.248   6.346   9.849
21882SOL    HW267581   7.225   6.298   9.695
21883SOL     OW67582   6.808   6.136   9.566
21883SOL    HW167583   6.827   6.057   9.625
21883SOL    HW267584   6.753   6.202   9.615
21884SOL     OW67585   5.855   5.617   9.948
21884SOL    HW167586   5.766   5.572   9.949
21884SOL    HW267587   5.893   5.617   0.040
21885SOL     OW67588   7.361   6.032   9.690
21885SOL    HW167589   7.358   5.950   9.747
21885SOL    HW267590   7.320   6.109   9.738
21886SOL     OW67591   6.876   6.460   9.331
21886SOL    HW167592   6.907   6.368   9.351
21886SOL    HW267593   6.913   6.490   9.243
21887SOL     OW67594   5.610   6.888   9.471
21887SOL    HW167595   5.522   6.902   9.426
21887SOL    HW267596   5.617   6.793   9.500
21888SOL     OW67597   6.386   6.139   9.680
21888SOL    HW167598   6.405   6.073   9.607
21888SOL    HW267599   6.302   6.189   9.659
21889SOL     OW67600   6.040   6.038   9.500
21889SOL    HW167601   6.098   6.114   9.528
21889SOL    HW267602   5.944   6.068   9.498
21890SOL     OW67603   6.972   6.515   9.625
21890SOL    HW167604   6.933   6.564   9.703
21890SOL    HW267605   6.906   6.513   9.550
21891SOL     OW67606   7.350   5.788   9.822
21891SOL    HW167607   7.386   5.742   9.741
21891SOL    HW267608   7.269   5.740   9.856
21892SOL     OW67609   6.984   7.155   9.785
21892SOL    HW167610   7.069   7.167   9.734
21892SOL    HW267611   6.909   7.200   9.737
21893SOL     OW67612   6.208   7.272   9.486
21893SOL    HW167613   6.230   7.268   9.389
21893SOL    HW267614   6.157   7.190   9.513
21894SOL     OW67615   6.850   7.116   9.363
21894SOL    HW167616   6.848   7.022   9.395
21894SOL    HW267617   6.823   7.120   9.267
21895SOL     OW67618   6.547   6.439   9.531
21895SOL    HW167619   6.611   6.510   9.503
21895SOL    HW267620   6.589   6.381   9.601
21896SOL     OW67621   6.229   7.040   9.762
21896SOL    HW167622   6.297   6.975   9.728
21896SOL    HW267623   6.160   7.056   9.692
21897SOL     OW67624   5.820   6.956   9.643
21897SOL    HW167625   5.742   6.940   9.582
21897SOL    HW267626   5.791   7.012   9.720
21898SOL     OW67627   5.700   5.919   9.235
21898SOL    HW167628   5.613   5.908   9.188
21898SOL    HW267629   5.732   6.013   9.226
21899SOL     OW67630   5.662   5.732   9.458
21899SOL    HW167631   5.659   5.808   9.392
21899SOL    HW267632   5.756   5.703   9.471
21900SOL     OW67633   6.859   6.866   9.476
21900SOL    HW167634   6.801   6.787   9.455
21900SOL    HW267635   6.852   6.888   9.573
21901SOL     OW67636   6.811   5.947   9.763
21901SOL    HW167637   6.879   5.880   9.792
21901SOL    HW267638   6.784   6.003   9.842
21902SOL     OW67639   6.276   6.912   9.430
21902SOL    HW167640   6.333   6.897   9.511
21902SOL    HW267641   6.330   6.957   9.359
21903SOL     OW67642   6.703   6.643   9.424
21903SOL    HW167643   6.621   6.655   9.367
21903SOL    HW267644   6.765   6.578   9.380
21904SOL     OW67645   5.614   6.713   9.959
21904SOL    HW167646   5.606   6.784   0.028
21904SOL    HW267647   5.697   6.728   9.905
21905SOL     OW67648   6.040   6.036   9.913
21905SOL    HW167649   6.054   5.939   9.894
21905SOL    HW267650   6.041   6.052   0.011
21906SOL     OW67651   6.410   6.859   9.663
21906SOL    HW167652   6.402   6.760   9.670
21906SOL    HW267653   6.482   6.891   9.724
21907SOL     OW67654   5.662   6.628   9.558
21907SOL    HW167655   5.757   6.612   9.586
21907SOL    HW267656   5.619   6.540   9.536
21908SOL     OW67657   6.529   7.234   9.713
21908SOL    HW167658   6.436   7.241   9.677
21908SOL    HW267659   6.549   7.312   9.771
21909SOL     OW67660   5.708   7.956   0.050
21909SOL    HW167661   5.627   7.988   0.098
21909SOL    HW267662   5.732   8.019   9.977
21910SOL     OW67663   5.787   7.728   0.985
21910SOL    HW167664   5.831   7.696   1.069
21910SOL    HW267665   5.696   7.688   0.977
21911SOL     OW67666   5.569   7.872   0.634
21911SOL    HW167667   5.482   7.884   0.681
21911SOL    HW267668   5.561   7.800   0.565
21912SOL     OW67669   6.182   8.879   1.067
21912SOL    HW167670   6.088   8.877   1.036
21912SOL    HW267671   6.191   8.943   1.143
21913SOL     OW67672   7.183   8.956   0.716
21913SOL    HW167673   7.130   8.914   0.789
21913SOL    HW267674   7.122   8.983   0.641
21914SOL     OW67675   6.710   8.175   0.647
21914SOL    HW167676   6.765   8.258   0.633
21914SOL    HW267677   6.660   8.183   0.733
21915SOL     OW67678   7.326   8.031   0.199
21915SOL    HW167679   7.254   8.062   0.136
21915SOL    HW267680   7.290   7.958   0.257
21916SOL     OW67681   6.306   8.546   1.016
21916SOL    HW167682   6.217   8.582   0.988
21916SOL    HW267683   6.364   8.622   1.047
21917SOL     OW67684   6.501   8.149   1.806
21917SOL    HW167685   6.533   8.211   1.877
21917SOL    HW267686   6.506   8.195   1.717
21918SOL     OW67687   6.271   8.424   0.609
21918SOL    HW167688   6.344   8.422   0.677
21918SOL    HW267689   6.195   8.479   0.643
21919SOL     OW67690   6.266   8.577   1.862
21919SOL    HW167691   6.301   8.654   1.914
21919SOL    HW267692   6.188   8.606   1.807
21920SOL     OW67693   5.913   8.904   1.012
21920SOL    HW167694   5.848   8.832   0.987
21920SOL    HW267695   5.942   8.952   0.929
21921SOL     OW67696   7.033   8.953   1.369
21921SOL    HW167697   7.097   9.027   1.391
21921SOL    HW267698   6.954   8.958   1.431
21922SOL     OW67699   6.062   7.790   1.425
21922SOL    HW167700   6.146   7.744   1.456
21922SOL    HW267701   5.984   7.753   1.474
21923SOL     OW67702   7.162   7.916   0.736
21923SOL    HW167703   7.121   7.934   0.646
21923SOL    HW267704   7.124   7.979   0.803
21924SOL     OW67705   5.826   9.176   0.432
21924SOL    HW167706   5.832   9.246   0.503
21924SOL    HW267707   5.907   9.183   0.372
21925SOL     OW67708   6.646   8.766   1.704
21925SOL    HW167709   6.713   8.794   1.772
21925SOL    HW267710   6.603   8.680   1.732
21926SOL     OW67711   5.772   8.909   0.442
21926SOL    HW167712   5.795   9.006   0.449
21926SOL    HW267713   5.755   8.872   0.533
21927SOL     OW67714   5.851   8.459   0.873
21927SOL    HW167715   5.870   8.391   0.944
21927SOL    HW267716   5.814   8.542   0.915
21928SOL     OW67717   6.157   9.278   1.417
21928SOL    HW167718   6.078   9.247   1.469
21928SOL    HW267719   6.230   9.305   1.480
21929SOL     OW67720   6.138   8.401   0.190
21929SOL    HW167721   6.093   8.476   0.141
21929SOL    HW267722   6.217   8.436   0.240
21930SOL     OW67723   7.322   7.528   1.522
21930SOL    HW167724   7.351   7.585   1.445
21930SOL    HW267725   7.254   7.576   1.577
21931SOL     OW67726   5.685   8.112   0.548
21931SOL    HW167727   5.644   8.027   0.580
21931SOL    HW267728   5.688   8.178   0.623
21932SOL     OW67729   7.472   9.184   0.287
21932SOL    HW167730   7.553   9.174   0.345
21932SOL    HW267731   7.472   9.276   0.246
21933SOL     OW67732   5.552   8.928   0.079
21933SOL    HW167733   5.639   8.914   0.030
21933SOL    HW267734   5.563   9.002   0.146
21934SOL     OW67735   7.320   8.356   0.686
21934SOL    HW167736   7.381   8.288   0.644
21934SOL    HW267737   7.297   8.426   0.619
21935SOL     OW67738   7.264   8.548   0.495
21935SOL    HW167739   7.339   8.530   0.431
21935SOL    HW267740   7.288   8.624   0.555
21936SOL     OW67741   5.690   8.230   1.592
21936SOL    HW167742   5.718   8.309   1.646
21936SOL    HW267743   5.607   8.252   1.540
21937SOL     OW67744   6.156   8.814   0.697
21937SOL    HW167745   6.122   8.721   0.714
21937SOL    HW267746   6.176   8.825   0.599
21938SOL     OW67747   6.874   8.647   1.419
21938SOL    HW167748   6.888   8.585   1.342
21938SOL    HW267749   6.953   8.642   1.480
21939SOL     OW67750   6.418   7.513   0.523
21939SOL    HW167751   6.463   7.594   0.484
21939SOL    HW267752   6.319   7.527   0.524
21940SOL     OW67753   5.825   8.393   1.313
21940SOL    HW167754   5.918   8.360   1.333
21940SOL    HW267755   5.800   8.364   1.221
21941SOL     OW67756   7.091   8.459   0.290
21941SOL    HW167757   7.042   8.376   0.315
21941SOL    HW267758   7.149   8.488   0.367
21942SOL     OW67759   6.820   9.251   1.636
21942SOL    HW167760   6.817   9.318   1.562
21942SOL    HW267761   6.833   9.159   1.597
21943SOL     OW67762   5.961   7.698   1.865
21943SOL    HW167763   6.007   7.772   1.913
21943SOL    HW267764   5.869   7.727   1.839
21944SOL     OW67765   7.052   8.833   0.924
21944SOL    HW167766   6.989   8.868   0.994
21944SOL    HW267767   7.031   8.738   0.904
21945SOL     OW67768   7.201   9.343   0.487
21945SOL    HW167769   7.202   9.264   0.426
21945SOL    HW267770   7.199   9.312   0.582
21946SOL     OW67771   6.123   8.127   0.254
21946SOL    HW167772   6.132   8.221   0.220
21946SOL    HW267773   6.060   8.126   0.332
21947SOL     OW67774   6.861   7.852   0.918
21947SOL    HW167775   6.766   7.820   0.915
21947SOL    HW267776   6.916   7.787   0.970
21948SOL     OW67777   7.199   9.128   0.325
21948SOL    HW167778   7.298   9.131   0.310
21948SOL    HW267779   7.154   9.096   0.242
21949SOL     OW67780   6.379   8.023   1.448
21949SOL    HW167781   6.345   7.994   1.538
21949SOL    HW267782   6.352   7.955   1.379
21950SOL     OW67783   6.983   7.898   1.646
21950SOL    HW167784   6.981   7.948   1.733
21950SOL    HW267785   7.040   7.816   1.656
21951SOL     OW67786   6.541   8.319   1.590
21951SOL    HW167787   6.589   8.256   1.529
21951SOL    HW267788   6.492   8.387   1.535
21952SOL     OW67789   6.588   7.814   1.176
21952SOL    HW167790   6.496   7.829   1.210
21952SOL    HW267791   6.584   7.781   1.081
21953SOL     OW67792   6.642   8.143   0.382
21953SOL    HW167793   6.660   8.148   0.480
21953SOL    HW267794   6.547   8.113   0.367
21954SOL     OW67795   5.696   9.313   1.587
21954SOL    HW167796   5.701   9.270   1.677
21954SOL    HW267797   5.600   9.328   1.563
21955SOL     OW67798   6.387   7.810   0.210
21955SOL    HW167799   6.404   7.816   0.112
21955SOL    HW267800   6.295   7.773   0.225
21956SOL     OW67801   7.250   8.033   1.883
21956SOL    HW167802   7.250   8.113   1.823
21956SOL    HW267803   7.282   7.953   1.831
21957SOL     OW67804   7.003   8.621   0.598
21957SOL    HW167805   7.092   8.609   0.552
21957SOL    HW267806   6.950   8.691   0.550
21958SOL     OW67807   6.162   7.535   0.933
21958SOL    HW167808   6.160   7.574   1.026
21958SOL    HW267809   6.187   7.605   0.868
21959SOL     OW67810   6.599   8.897   0.516
21959SOL    HW167811   6.564   8.976   0.466
21959SOL    HW267812   6.555   8.891   0.605
21960SOL     OW67813   5.918   9.270   0.872
21960SOL    HW167814   5.963   9.183   0.852
21960SOL    HW267815   5.986   9.335   0.908
21961SOL     OW67816   7.396   8.443   0.940
21961SOL    HW167817   7.366   8.426   0.847
21961SOL    HW267818   7.319   8.475   0.995
21962SOL     OW67819   6.814   8.983   1.528
21962SOL    HW167820   6.798   8.892   1.566
21962SOL    HW267821   6.728   9.020   1.493
21963SOL     OW67822   5.927   8.373   0.369
21963SOL    HW167823   5.998   8.381   0.298
21963SOL    HW267824   5.926   8.279   0.404
21964SOL     OW67825   7.078   8.228   0.704
21964SOL    HW167826   7.057   8.183   0.791
21964SOL    HW267827   7.165   8.276   0.712
21965SOL     OW67828   6.049   8.698   1.753
21965SOL    HW167829   6.023   8.672   1.660
21965SOL    HW267830   5.966   8.717   1.806
21966SOL     OW67831   6.652   9.186   0.209
21966SOL    HW167832   6.593   9.156   0.284
21966SOL    HW267833   6.699   9.107   0.170
21967SOL     OW67834   5.818   7.684   1.497
21967SOL    HW167835   5.748   7.755   1.498
21967SOL    HW267836   5.782   7.600   1.537
21968SOL     OW67837   7.216   8.796   0.129
21968SOL    HW167838   7.171   8.886   0.124
21968SOL    HW267839   7.151   8.725   0.101
21969SOL     OW67840   6.055   9.235   0.290
21969SOL    HW167841   6.092   9.293   0.362
21969SOL    HW267842   6.129   9.186   0.245
21970SOL     OW67843   6.985   7.552   0.449
21970SOL    HW167844   6.987   7.534   0.350
21970SOL    HW267845   7.074   7.529   0.489
21971SOL     OW67846   5.779   9.285   1.210
21971SOL    HW167847   5.838   9.209   1.237
21971SOL    HW267848   5.741   9.267   1.120
21972SOL     OW67849   6.507   9.132   0.873
21972SOL    HW167850   6.601   9.099   0.869
21972SOL    HW267851   6.449   9.074   0.815
21973SOL     OW67852   5.943   8.115   0.466
21973SOL    HW167853   5.973   8.020   0.477
21973SOL    HW267854   5.847   8.123   0.493
21974SOL     OW67855   7.123   7.653   1.699
21974SOL    HW167856   7.110   7.650   1.799
21974SOL    HW267857   7.061   7.588   1.656
21975SOL     OW67858   6.153   7.493   0.116
21975SOL    HW167859   6.213   7.414   0.127
21975SOL    HW267860   6.140   7.512   0.018
21976SOL     OW67861   6.318   7.720   1.780
21976SOL    HW167862   6.407   7.677   1.765
21976SOL    HW267863   6.279   7.686   1.865
21977SOL     OW67864   6.447   8.902   1.310
21977SOL    HW167865   6.439   8.869   1.216
21977SOL    HW267866   6.489   8.831   1.367
21978SOL     OW67867   6.880   8.024   1.421
21978SOL    HW167868   6.923   7.988   1.504
21978SOL    HW267869   6.912   8.118   1.405
21979SOL     OW67870   6.436   8.788   1.060
21979SOL    HW167871   6.497   8.809   0.983
21979SOL    HW267872   6.346   8.829   1.042
21980SOL     OW67873   6.507   7.950   0.855
21980SOL    HW167874   6.481   7.949   0.758
21980SOL    HW267875   6.543   7.860   0.881
21981SOL     OW67876   6.147   7.540   0.502
21981SOL    HW167877   6.064   7.536   0.557
21981SOL    HW267878   6.134   7.604   0.426
21982SOL     OW67879   7.019   8.615   0.075
21982SOL    HW167880   7.053   8.545   0.139
21982SOL    HW267881   6.939   8.659   0.114
21983SOL     OW67882   6.541   7.731   0.423
21983SOL    HW167883   6.499   7.759   0.337
21983SOL    HW267884   6.640   7.742   0.417
21984SOL     OW67885   6.625   8.138   1.406
21984SOL    HW167886   6.544   8.080   1.419
21984SOL    HW267887   6.707   8.081   1.410
21985SOL     OW67888   6.765   9.059   0.817
21985SOL    HW167889   6.802   9.102   0.734
21985SOL    HW267890   6.809   9.099   0.898
21986SOL     OW67891   6.046   8.560   0.702
21986SOL    HW167892   5.988   8.512   0.768
21986SOL    HW267893   5.995   8.578   0.619
21987SOL     OW67894   6.836   9.242   0.598
21987SOL    HW167895   6.872   9.312   0.536
21987SOL    HW267896   6.749   9.274   0.637
21988SOL     OW67897   6.698   7.939   9.968
21988SOL    HW167898   6.606   7.902   9.970
21988SOL    HW267899   6.732   7.949   0.062
21989SOL     OW67900   5.728   8.071   1.372
21989SOL    HW167901   5.822   8.052   1.345
21989SOL    HW267902   5.727   8.133   1.451
21990SOL     OW67903   6.150   7.629   1.185
21990SOL    HW167904   6.172   7.553   1.246
21990SOL    HW267905   6.059   7.664   1.207
21991SOL     OW67906   6.451   7.929   0.593
21991SOL    HW167907   6.408   7.991   0.527
21991SOL    HW267908   6.487   7.849   0.544
21992SOL     OW67909   6.602   7.504   0.722
21992SOL    HW167910   6.532   7.507   0.651
21992SOL    HW267911   6.581   7.430   0.786
21993SOL     OW67912   7.003   8.565   0.875
21993SOL    HW167913   6.943   8.488   0.896
21993SOL    HW267914   7.002   8.583   0.777
21994SOL     OW67915   7.014   8.084   0.928
21994SOL    HW167916   6.949   8.008   0.932
21994SOL    HW267917   7.076   8.080   1.006
21995SOL     OW67918   7.453   8.231   0.344
21995SOL    HW167919   7.477   8.194   0.434
21995SOL    HW267920   7.405   8.161   0.291
21996SOL     OW67921   6.073   8.877   0.219
21996SOL    HW167922   5.980   8.840   0.224
21996SOL    HW267923   6.119   8.839   0.139
21997SOL     OW67924   7.348   8.741   0.652
21997SOL    HW167925   7.445   8.751   0.674
21997SOL    HW267926   7.299   8.825   0.678
21998SOL     OW67927   7.020   7.984   0.097
21998SOL    HW167928   6.933   7.978   0.146
21998SOL    HW267929   7.060   7.893   0.088
21999SOL     OW67930   6.113   7.704   0.281
21999SOL    HW167931   6.128   7.626   0.220
21999SOL    HW267932   6.064   7.776   0.231
22000SOL     OW67933   7.340   8.699   1.496
22000SOL    HW167934   7.407   8.626   1.510
22000SOL    HW267935   7.373   8.783   1.539
22001SOL     OW67936   6.611   8.710   1.434
22001SOL    HW167937   6.601   8.731   1.531
22001SOL    HW267938   6.706   8.686   1.414
22002SOL     OW67939   7.212   9.065   1.690
22002SOL    HW167940   7.185   9.102   1.601
22002SOL    HW267941   7.295   9.009   1.679
22003SOL     OW67942   6.717   8.709   1.131
22003SOL    HW167943   6.636   8.713   1.189
22003SOL    HW267944   6.693   8.737   1.038
22004SOL     OW67945   7.183   8.535   1.084
22004SOL    HW167946   7.173   8.606   1.153
22004SOL    HW267947   7.115   8.549   1.012
22005SOL     OW67948   6.579   7.479   1.335
22005SOL    HW167949   6.605   7.487   1.238
22005SOL    HW267950   6.640   7.535   1.390
22006SOL     OW67951   6.523   8.532   1.768
22006SOL    HW167952   6.427   8.543   1.794
22006SOL    HW267953   6.533   8.455   1.705
22007SOL     OW67954   6.348   8.487   0.348
22007SOL    HW167955   6.326   8.459   0.441
22007SOL    HW267956   6.435   8.446   0.321
22008SOL     OW67957   6.069   8.249   1.274
22008SOL    HW167958   6.131   8.265   1.351
22008SOL    HW267959   6.036   8.154   1.277
22009SOL     OW67960   6.839   7.804   1.266
22009SOL    HW167961   6.862   7.888   1.317
22009SOL    HW267962   6.746   7.811   1.231
22010SOL     OW67963   5.662   8.981   1.310
22010SOL    HW167964   5.600   9.045   1.265
22010SOL    HW267965   5.757   9.010   1.294
22011SOL     OW67966   5.884   8.605   0.485
22011SOL    HW167967   5.882   8.673   0.411
22011SOL    HW267968   5.904   8.515   0.447
22012SOL     OW67969   6.067   8.051   0.895
22012SOL    HW167970   6.083   8.104   0.812
22012SOL    HW267971   6.154   8.037   0.942
22013SOL     OW67972   6.857   8.814   0.465
22013SOL    HW167973   6.917   8.893   0.479
22013SOL    HW267974   6.763   8.839   0.489
22014SOL     OW67975   6.900   8.913   1.137
22014SOL    HW167976   6.949   8.925   1.223
22014SOL    HW267977   6.835   8.837   1.146
22015SOL     OW67978   7.096   8.054   0.492
22015SOL    HW167979   7.093   8.117   0.570
22015SOL    HW267980   7.045   8.093   0.415
22016SOL     OW67981   5.919   9.050   1.238
22016SOL    HW167982   5.913   8.997   1.154
22016SOL    HW267983   6.013   9.050   1.272
22017SOL     OW67984   6.091   8.156   1.676
22017SOL    HW167985   6.130   8.211   1.602
22017SOL    HW267986   6.155   8.083   1.700
22018SOL     OW67987   7.247   8.243   1.704
22018SOL    HW167988   7.156   8.280   1.688
22018SOL    HW267989   7.300   8.245   1.620
22019SOL     OW67990   6.550   7.597   1.739
22019SOL    HW167991   6.626   7.658   1.717
22019SOL    HW267992   6.574   7.542   1.819
22020SOL     OW67993   6.101   7.479   1.757
22020SOL    HW167994   6.053   7.437   1.680
22020SOL    HW267995   6.057   7.565   1.782
22021SOL     OW67996   6.297   8.293   1.121
22021SOL    HW167997   6.300   8.386   1.086
22021SOL    HW267998   6.212   8.280   1.173
22022SOL     OW67999   6.865   8.326   0.961
22022SOL    HW168000   6.771   8.303   0.937
22022SOL    HW268001   6.922   8.244   0.955
22023SOL     OW68002   6.780   7.956   0.231
22023SOL    HW168003   6.798   7.881   0.295
22023SOL    HW268004   6.729   8.028   0.278
22024SOL     OW68005   5.865   7.631   1.232
22024SOL    HW168006   5.867   7.651   1.329
22024SOL    HW268007   5.874   7.532   1.218
22025SOL     OW68008   5.695   8.716   1.242
22025SOL    HW168009   5.680   8.658   1.322
22025SOL    HW268010   5.676   8.811   1.265
22026SOL     OW68011   6.306   8.031   1.028
22026SOL    HW168012   6.379   8.008   0.964
22026SOL    HW268013   6.314   8.126   1.056
22027SOL     OW68014   7.363   8.392   1.902
22027SOL    HW168015   7.328   8.332   1.830
22027SOL    HW268016   7.286   8.433   1.951
22028SOL     OW68017   5.918   7.507   0.651
22028SOL    HW168018   5.872   7.595   0.666
22028SOL    HW268019   5.925   7.457   0.737
22029SOL     OW68020   7.216   7.841   0.358
22029SOL    HW168021   7.272   7.780   0.414
22029SOL    HW268022   7.170   7.907   0.417
22030SOL     OW68023   6.603   8.201   0.904
22030SOL    HW168024   6.596   8.221   1.002
22030SOL    HW268025   6.572   8.107   0.887
22031SOL     OW68026   6.560   9.024   1.724
22031SOL    HW168027   6.568   9.066   1.634
22031SOL    HW268028   6.570   8.925   1.715
22032SOL     OW68029   7.446   8.937   1.581
22032SOL    HW168030   7.476   8.980   1.496
22032SOL    HW268031   7.519   8.946   1.650
22033SOL     OW68032   5.970   8.352   1.828
22033SOL    HW168033   6.034   8.380   1.901
22033SOL    HW268034   6.012   8.281   1.772
22034SOL     OW68035   7.114   7.730   0.128
22034SOL    HW168036   7.076   7.638   0.140
22034SOL    HW268037   7.152   7.762   0.215
22035SOL     OW68038   6.972   8.249   0.057
22035SOL    HW168039   6.988   8.150   0.052
22035SOL    HW268040   7.044   8.297   0.006
22036SOL     OW68041   6.650   8.807   0.882
22036SOL    HW168042   6.664   8.728   0.822
22036SOL    HW268043   6.699   8.886   0.846
22037SOL     OW68044   5.881   8.271   1.065
22037SOL    HW168045   5.960   8.268   1.126
22037SOL    HW268046   5.855   8.178   1.038
22038SOL     OW68047   5.840   7.992   1.017
22038SOL    HW168048   5.813   7.898   1.000
22038SOL    HW268049   5.921   8.014   0.963
22039SOL     OW68050   6.735   7.791   1.689
22039SOL    HW168051   6.693   7.841   1.764
22039SOL    HW268052   6.824   7.831   1.668
22040SOL     OW68053   6.762   7.635   1.466
22040SOL    HW168054   6.740   7.692   1.545
22040SOL    HW268055   6.795   7.692   1.391
22041SOL     OW68056   5.610   8.605   0.128
22041SOL    HW168057   5.523   8.639   0.091
22041SOL    HW268058   5.594   8.563   0.217
22042SOL     OW68059   5.668   9.224   0.966
22042SOL    HW168060   5.626   9.146   0.920
22042SOL    HW268061   5.757   9.243   0.925
22043SOL     OW68062   6.047   9.034   0.816
22043SOL    HW168063   6.124   9.091   0.846
22043SOL    HW268064   6.082   8.955   0.765
22044SOL     OW68065   6.565   8.251   1.162
22044SOL    HW168066   6.594   8.217   1.251
22044SOL    HW268067   6.467   8.271   1.164
22045SOL     OW68068   5.584   8.043   1.142
22045SOL    HW168069   5.657   8.026   1.076
22045SOL    HW268070   5.625   8.063   1.231
22046SOL     OW68071   5.836   8.061   1.755
22046SOL    HW168072   5.930   8.079   1.727
22046SOL    HW268073   5.774   8.112   1.695
22047SOL     OW68074   7.015   8.362   1.621
22047SOL    HW168075   7.038   8.459   1.615
22047SOL    HW268076   6.985   8.329   1.531
22048SOL     OW68077   6.383   8.050   0.343
22048SOL    HW168078   6.394   7.963   0.294
22048SOL    HW268079   6.296   8.092   0.318
22049SOL     OW68080   7.200   8.068   1.124
22049SOL    HW168081   7.198   8.000   1.197
22049SOL    HW268082   7.280   8.053   1.066
22050SOL     OW68083   5.825   8.970   1.704
22050SOL    HW168084   5.799   9.047   1.763
22050SOL    HW268085   5.820   8.886   1.757
22051SOL     OW68086   6.323   7.852   1.235
22051SOL    HW168087   6.261   7.774   1.226
22051SOL    HW268088   6.305   7.917   1.160
22052SOL     OW68089   6.577   9.091   1.458
22052SOL    HW168090   6.523   9.032   1.398
22052SOL    HW268091   6.570   9.186   1.426
22053SOL     OW68092   5.992   7.902   0.137
22053SOL    HW168093   6.037   7.985   0.168
22053SOL    HW268094   5.896   7.922   0.118
22054SOL     OW68095   5.687   8.546   1.477
22054SOL    HW168096   5.704   8.522   1.572
22054SOL    HW268097   5.740   8.486   1.417
22055SOL     OW68098   6.857   8.481   1.192
22055SOL    HW168099   6.862   8.421   1.112
22055SOL    HW268100   6.805   8.564   1.168
22056SOL     OW68101   6.941   8.223   0.327
22056SOL    HW168102   6.844   8.213   0.351
22056SOL    HW268103   6.950   8.231   0.227
22057SOL     OW68104   7.304   9.146   1.172
22057SOL    HW168105   7.400   9.173   1.160
22057SOL    HW268106   7.291   9.054   1.134
22058SOL     OW68107   6.854   9.167   1.053
22058SOL    HW168108   6.940   9.218   1.063
22058SOL    HW268109   6.866   9.074   1.090
22059SOL     OW68110   5.740   8.690   0.976
22059SOL    HW168111   5.738   8.692   1.076
22059SOL    HW268112   5.647   8.696   0.940
22060SOL     OW68113   6.306   9.117   1.752
22060SOL    HW168114   6.300   9.200   1.697
22060SOL    HW268115   6.400   9.085   1.753
22061SOL     OW68116   7.388   7.656   0.476
22061SOL    HW168117   7.454   7.633   0.406
22061SOL    HW268118   7.335   7.574   0.500
22062SOL     OW68119   7.012   9.039   0.515
22062SOL    HW168120   7.073   9.070   0.443
22062SOL    HW268121   6.948   9.113   0.538
22063SOL     OW68122   5.731   9.200   1.830
22063SOL    HW168123   5.675   9.133   1.878
22063SOL    HW268124   5.765   9.268   1.895
22064SOL     OW68125   6.870   8.392   0.638
22064SOL    HW168126   6.943   8.327   0.659
22064SOL    HW268127   6.910   8.478   0.607
22065SOL     OW68128   6.271   9.066   0.214
22065SOL    HW168129   6.339   9.024   0.154
22065SOL    HW268130   6.192   9.004   0.223
22066SOL     OW68131   7.206   9.160   1.426
22066SOL    HW168132   7.240   9.151   1.332
22066SOL    HW268133   7.246   9.241   1.468
22067SOL     OW68134   7.457   7.705   1.023
22067SOL    HW168135   7.478   7.609   1.003
22067SOL    HW268136   7.363   7.725   0.995
22068SOL     OW68137   5.814   7.752   0.707
22068SOL    HW168138   5.732   7.802   0.678
22068SOL    HW268139   5.819   7.751   0.806
22069SOL     OW68140   6.796   8.976   0.101
22069SOL    HW168141   6.789   8.882   0.136
22069SOL    HW268142   6.812   8.974   0.003
22070SOL     OW68143   6.414   8.503   1.444
22070SOL    HW168144   6.495   8.556   1.419
22070SOL    HW268145   6.336   8.565   1.455
22071SOL     OW68146   6.588   8.392   0.271
22071SOL    HW168147   6.644   8.408   0.189
22071SOL    HW268148   6.611   8.302   0.309
22072SOL     OW68149   7.069   9.031   0.104
22072SOL    HW168150   6.973   9.019   0.130
22072SOL    HW268151   7.075   9.043   0.005
22073SOL     OW68152   7.174   8.731   1.279
22073SOL    HW168153   7.230   8.706   1.358
22073SOL    HW268154   7.111   8.804   1.305
22074SOL     OW68155   6.673   8.572   0.744
22074SOL    HW168156   6.588   8.523   0.762
22074SOL    HW268157   6.739   8.510   0.703
22075SOL     OW68158   6.624   7.697   0.922
22075SOL    HW168159   6.615   7.654   0.832
22075SOL    HW268160   6.648   7.628   0.990
22076SOL     OW68161   6.224   8.845   0.442
22076SOL    HW168162   6.309   8.811   0.401
22076SOL    HW268163   6.156   8.861   0.370
22077SOL     OW68164   7.444   7.848   1.483
22077SOL    HW168165   7.458   7.939   1.444
22077SOL    HW268166   7.440   7.780   1.409
22078SOL     OW68167   5.827   8.747   0.238
22078SOL    HW168168   5.746   8.704   0.198
22078SOL    HW268169   5.799   8.814   0.306
22079SOL     OW68170   5.741   8.465   1.733
22079SOL    HW168171   5.664   8.451   1.795
22079SOL    HW268172   5.825   8.429   1.775
22080SOL     OW68173   6.288   7.644   1.513
22080SOL    HW168174   6.383   7.631   1.484
22080SOL    HW268175   6.286   7.666   1.611
22081SOL     OW68176   5.584   7.704   0.042
22081SOL    HW168177   5.488   7.716   0.069
22081SOL    HW268178   5.630   7.793   0.041
22082SOL     OW68179   6.958   8.286   1.366
22082SOL    HW168180   6.896   8.346   1.315
22082SOL    HW268181   7.050   8.292   1.327
22083SOL     OW68182   5.673   7.550   0.261
22083SOL    HW168183   5.642   7.605   0.184
22083SOL    HW268184   5.762   7.510   0.239
22084SOL     OW68185   6.803   8.722   0.206
22084SOL    HW168186   6.752   8.636   0.203
22084SOL    HW268187   6.825   8.744   0.301
22085SOL     OW68188   6.249   8.270   1.470
22085SOL    HW168189   6.306   8.352   1.463
22085SOL    HW268190   6.306   8.189   1.462
22086SOL     OW68191   7.093   9.293   1.079
22086SOL    HW168192   7.129   9.345   1.002
22086SOL    HW268193   7.167   9.238   1.119
22087SOL     OW68194   6.300   7.981   1.710
22087SOL    HW168195   6.370   8.034   1.759
22087SOL    HW268196   6.303   7.886   1.741
22088SOL     OW68197   7.088   8.624   1.598
22088SOL    HW168198   7.078   8.652   1.693
22088SOL    HW268199   7.178   8.654   1.564
22089SOL     OW68200   5.942   9.189   1.566
22089SOL    HW168201   5.854   9.234   1.552
22089SOL    HW268202   5.927   9.096   1.600
22090SOL     OW68203   7.200   8.314   1.246
22090SOL    HW168204   7.204   8.230   1.192
22090SOL    HW268205   7.195   8.393   1.185
22091SOL     OW68206   6.813   7.771   0.431
22091SOL    HW168207   6.877   7.694   0.437
22091SOL    HW268208   6.822   7.829   0.511
22092SOL     OW68209   6.117   8.198   0.671
22092SOL    HW168210   6.178   8.271   0.641
22092SOL    HW268211   6.055   8.172   0.597
22093SOL     OW68212   7.336   7.823   1.730
22093SOL    HW168213   7.375   7.838   1.639
22093SOL    HW268214   7.261   7.758   1.724
22094SOL     OW68215   7.366   8.288   1.460
22094SOL    HW168216   7.419   8.371   1.475
22094SOL    HW268217   7.301   8.305   1.385
22095SOL     OW68218   6.438   8.879   0.084
22095SOL    HW168219   6.355   8.837   0.049
22095SOL    HW268220   6.464   8.835   0.170
22096SOL     OW68221   6.233   9.210   0.897
22096SOL    HW168222   6.206   9.304   0.917
22096SOL    HW268223   6.332   9.201   0.904
22097SOL     OW68224   6.453   8.422   0.816
22097SOL    HW168225   6.499   8.339   0.848
22097SOL    HW268226   6.402   8.463   0.892
22098SOL     OW68227   6.763   8.430   0.064
22098SOL    HW168228   6.767   8.479   9.977
22098SOL    HW268229   6.834   8.360   0.066
22099SOL     OW68230   7.402   9.031   0.868
22099SOL    HW168231   7.334   9.022   0.795
22099SOL    HW268232   7.376   8.974   0.946
22100SOL     OW68233   5.788   8.727   1.833
22100SOL    HW168234   5.772   8.641   1.784
22100SOL    HW268235   5.730   8.731   1.914
22101SOL     OW68236   5.735   8.747   0.667
22101SOL    HW168237   5.757   8.731   0.763
22101SOL    HW268238   5.791   8.687   0.610
22102SOL     OW68239   6.223   8.877   1.636
22102SOL    HW168240   6.160   8.827   1.695
22102SOL    HW268241   6.244   8.966   1.677
22103SOL     OW68242   7.454   7.649   1.299
22103SOL    HW168243   7.524   7.578   1.301
22103SOL    HW268244   7.444   7.684   1.206
22104SOL     OW68245   5.990   7.856   0.501
22104SOL    HW168246   6.029   7.788   0.439
22104SOL    HW268247   5.938   7.810   0.573
22105SOL     OW68248   7.274   8.897   1.069
22105SOL    HW168249   7.196   8.874   1.011
22105SOL    HW268250   7.280   8.832   1.145
22106SOL     OW68251   5.972   7.999   1.277
22106SOL    HW168252   6.012   7.923   1.328
22106SOL    HW268253   5.941   7.967   1.188
22107SOL     OW68254   6.381   8.977   0.690
22107SOL    HW168255   6.366   9.016   0.599
22107SOL    HW268256   6.307   8.913   0.711
22108SOL     OW68257   6.978   7.660   1.079
22108SOL    HW168258   6.964   7.562   1.086
22108SOL    HW268259   6.934   7.706   1.156
22109SOL     OW68260   6.684   7.471   1.073
22109SOL    HW168261   6.636   7.403   1.018
22109SOL    HW268262   6.778   7.441   1.088
22110SOL     OW68263   6.452   8.747   0.325
22110SOL    HW168264   6.424   8.651   0.331
22110SOL    HW268265   6.520   8.767   0.395
22111SOL     OW68266   6.197   9.038   1.289
22111SOL    HW168267   6.193   9.129   1.331
22111SOL    HW268268   6.282   8.993   1.317
22112SOL     OW68269   7.021   7.471   0.192
22112SOL    HW168270   7.101   7.413   0.206
22112SOL    HW268271   6.948   7.418   0.148
22113SOL     OW68272   6.831   7.925   0.651
22113SOL    HW168273   6.788   8.015   0.647
22113SOL    HW268274   6.848   7.900   0.746
22114SOL     OW68275   7.206   7.740   0.947
22114SOL    HW168276   7.122   7.708   0.992
22114SOL    HW268277   7.181   7.790   0.864
22115SOL     OW68278   5.610   8.473   0.366
22115SOL    HW168279   5.696   8.488   0.414
22115SOL    HW268280   5.599   8.375   0.348
22116SOL     OW68281   6.462   9.116   0.407
22116SOL    HW168282   6.388   9.096   0.343
22116SOL    HW268283   6.449   9.206   0.447
22117SOL     OW68284   5.806   8.113   2.024
22117SOL    HW168285   5.712   8.086   2.047
22117SOL    HW268286   5.819   8.107   1.925
22118SOL     OW68287   5.815   7.709   2.866
22118SOL    HW168288   5.854   7.684   2.955
22118SOL    HW268289   5.720   7.677   2.862
22119SOL     OW68290   5.563   7.849   2.505
22119SOL    HW168291   5.475   7.869   2.547
22119SOL    HW268292   5.549   7.792   2.423
22120SOL     OW68293   6.192   8.753   3.093
22120SOL    HW168294   6.110   8.740   3.037
22120SOL    HW268295   6.207   8.851   3.109
22121SOL     OW68296   7.200   8.938   2.582
22121SOL    HW168297   7.153   8.893   2.659
22121SOL    HW268298   7.132   8.975   2.519
22122SOL     OW68299   6.781   8.156   2.582
22122SOL    HW168300   6.826   8.232   2.535
22122SOL    HW268301   6.721   8.192   2.653
22123SOL     OW68302   6.340   8.582   2.930
22123SOL    HW168303   6.284   8.614   3.007
22123SOL    HW268304   6.367   8.661   2.874
22124SOL     OW68305   6.420   8.217   3.684
22124SOL    HW168306   6.418   8.275   3.766
22124SOL    HW268307   6.447   8.272   3.605
22125SOL     OW68308   6.270   8.433   2.548
22125SOL    HW168309   6.347   8.439   2.611
22125SOL    HW268310   6.206   8.507   2.566
22126SOL     OW68311   6.314   8.620   3.698
22126SOL    HW168312   6.370   8.690   3.741
22126SOL    HW268313   6.239   8.664   3.648
22127SOL     OW68314   5.983   8.797   2.918
22127SOL    HW168315   5.947   8.724   2.859
22127SOL    HW268316   6.018   8.871   2.861
22128SOL     OW68317   7.026   8.945   3.244
22128SOL    HW168318   7.085   9.024   3.258
22128SOL    HW268319   6.943   8.955   3.299
22129SOL     OW68320   5.972   7.880   3.402
22129SOL    HW168321   6.048   7.863   3.465
22129SOL    HW268322   5.909   7.803   3.404
22130SOL     OW68323   7.161   7.875   2.621
22130SOL    HW168324   7.132   7.884   2.526
22130SOL    HW268325   7.133   7.956   2.673
22131SOL     OW68326   5.802   9.173   2.347
22131SOL    HW168327   5.834   9.236   2.418
22131SOL    HW268328   5.864   9.177   2.269
22132SOL     OW68329   6.719   8.794   3.568
22132SOL    HW168330   6.769   8.781   3.654
22132SOL    HW268331   6.660   8.715   3.552
22133SOL     OW68332   5.742   8.906   2.391
22133SOL    HW168333   5.759   9.005   2.386
22133SOL    HW268334   5.648   8.890   2.422
22134SOL     OW68335   6.145   9.212   3.302
22134SOL    HW168336   6.060   9.204   3.354
22134SOL    HW268337   6.186   9.302   3.319
22135SOL     OW68338   6.151   8.411   2.049
22135SOL    HW168339   6.197   8.464   1.978
22135SOL    HW268340   6.196   8.427   2.136
22136SOL     OW68341   5.699   8.082   2.445
22136SOL    HW168342   5.652   7.996   2.465
22136SOL    HW268343   5.773   8.095   2.510
22137SOL     OW68344   7.450   9.184   2.208
22137SOL    HW168345   7.523   9.174   2.275
22137SOL    HW268346   7.450   9.278   2.173
22138SOL     OW68347   5.603   9.015   1.969
22138SOL    HW168348   5.539   8.939   1.956
22138SOL    HW268349   5.594   9.050   2.062
22139SOL     OW68350   7.272   8.572   2.279
22139SOL    HW168351   7.354   8.534   2.236
22139SOL    HW268352   7.299   8.635   2.352
22140SOL     OW68353   5.700   8.243   3.455
22140SOL    HW168354   5.788   8.288   3.443
22140SOL    HW268355   5.626   8.306   3.428
22141SOL     OW68356   6.214   8.851   2.594
22141SOL    HW168357   6.166   8.764   2.590
22141SOL    HW268358   6.223   8.889   2.502
22142SOL     OW68359   6.830   8.654   3.281
22142SOL    HW168360   6.851   8.584   3.213
22142SOL    HW268361   6.895   8.649   3.356
22143SOL     OW68362   6.403   7.525   2.373
22143SOL    HW168363   6.435   7.618   2.353
22143SOL    HW268364   6.303   7.525   2.379
22144SOL     OW68365   5.817   8.407   3.223
22144SOL    HW168366   5.901   8.368   3.186
22144SOL    HW268367   5.744   8.399   3.156
22145SOL     OW68368   7.153   8.499   2.045
22145SOL    HW168369   7.073   8.441   2.060
22145SOL    HW268370   7.189   8.530   2.133
22146SOL     OW68371   6.775   9.248   3.471
22146SOL    HW168372   6.776   9.314   3.395
22146SOL    HW268373   6.781   9.155   3.434
22147SOL     OW68374   5.920   7.786   3.704
22147SOL    HW168375   5.964   7.831   3.782
22147SOL    HW268376   5.853   7.848   3.664
22148SOL     OW68377   7.079   8.816   2.792
22148SOL    HW168378   7.015   8.852   2.861
22148SOL    HW268379   7.051   8.724   2.765
22149SOL     OW68380   7.205   9.313   2.408
22149SOL    HW168381   7.203   9.245   2.335
22149SOL    HW268382   7.218   9.268   2.496
22150SOL     OW68383   6.186   8.142   2.127
22150SOL    HW168384   6.172   8.229   2.080
22150SOL    HW268385   6.119   8.134   2.201
22151SOL     OW68386   6.862   7.892   2.809
22151SOL    HW168387   6.766   7.917   2.819
22151SOL    HW268388   6.877   7.802   2.850
22152SOL     OW68389   7.179   9.125   2.206
22152SOL    HW168390   7.279   9.127   2.202
22152SOL    HW268391   7.142   9.112   2.114
22153SOL     OW68392   6.360   8.040   3.314
22153SOL    HW168393   6.324   8.016   3.404
22153SOL    HW268394   6.330   7.972   3.247
22154SOL     OW68395   6.967   7.894   3.540
22154SOL    HW168396   6.975   7.945   3.626
22154SOL    HW268397   7.018   7.808   3.548
22155SOL     OW68398   6.522   8.334   3.452
22155SOL    HW168399   6.571   8.261   3.406
22155SOL    HW268400   6.473   8.389   3.384
22156SOL     OW68401   6.550   7.825   3.033
22156SOL    HW168402   6.458   7.842   3.070
22156SOL    HW268403   6.542   7.778   2.945
22157SOL     OW68404   5.657   9.282   3.503
22157SOL    HW168405   5.681   9.249   3.594
22157SOL    HW268406   5.565   9.251   3.480
22158SOL     OW68407   6.510   7.732   2.046
22158SOL    HW168408   6.547   7.802   1.986
22158SOL    HW268409   6.542   7.642   2.016
22159SOL     OW68410   7.262   8.039   3.710
22159SOL    HW168411   7.252   8.122   3.656
22159SOL    HW268412   7.288   7.963   3.650
22160SOL     OW68413   7.018   8.587   2.425
22160SOL    HW168414   7.107   8.580   2.381
22160SOL    HW268415   6.969   8.666   2.389
22161SOL     OW68416   6.105   7.559   2.835
22161SOL    HW168417   6.128   7.590   2.927
22161SOL    HW268418   6.094   7.639   2.775
22162SOL     OW68419   6.589   8.871   2.347
22162SOL    HW168420   6.627   8.904   2.260
22162SOL    HW268421   6.534   8.943   2.389
22163SOL     OW68422   5.952   9.254   2.787
22163SOL    HW168423   5.997   9.165   2.777
22163SOL    HW268424   6.020   9.323   2.811
22164SOL     OW68425   6.781   8.978   3.371
22164SOL    HW168426   6.774   8.913   3.447
22164SOL    HW268427   6.719   8.951   3.298
22165SOL     OW68428   5.885   8.356   2.141
22165SOL    HW168429   5.974   8.383   2.103
22165SOL    HW268430   5.853   8.274   2.095
22166SOL     OW68431   7.125   8.183   2.525
22166SOL    HW168432   7.094   8.156   2.616
22166SOL    HW268433   7.221   8.210   2.529
22167SOL     OW68434   6.095   8.745   3.585
22167SOL    HW168435   6.062   8.754   3.491
22167SOL    HW268436   6.017   8.732   3.646
22168SOL     OW68437   5.780   7.691   3.386
22168SOL    HW168438   5.696   7.744   3.375
22168SOL    HW268439   5.762   7.610   3.441
22169SOL     OW68440   7.251   8.858   1.940
22169SOL    HW168441   7.211   8.949   1.931
22169SOL    HW268442   7.185   8.790   1.907
22170SOL     OW68443   5.996   9.233   2.159
22170SOL    HW168444   6.053   9.278   2.227
22170SOL    HW268445   6.054   9.180   2.096
22171SOL     OW68446   6.918   7.540   2.273
22171SOL    HW168447   6.902   7.501   2.182
22171SOL    HW268448   6.999   7.599   2.270
22172SOL     OW68449   5.865   9.229   3.055
22172SOL    HW168450   5.894   9.140   3.091
22172SOL    HW268451   5.894   9.237   2.959
22173SOL     OW68452   6.488   9.127   2.684
22173SOL    HW168453   6.579   9.087   2.697
22173SOL    HW268454   6.452   9.099   2.595
22174SOL     OW68455   5.996   8.119   2.321
22174SOL    HW168456   5.990   8.023   2.348
22174SOL    HW268457   5.906   8.152   2.291
22175SOL     OW68458   7.102   7.657   3.594
22175SOL    HW168459   7.079   7.609   3.678
22175SOL    HW268460   7.099   7.593   3.517
22176SOL     OW68461   6.221   7.560   1.992
22176SOL    HW168462   6.286   7.500   2.038
22176SOL    HW268463   6.183   7.512   1.912
22177SOL     OW68464   6.477   8.991   3.018
22177SOL    HW168465   6.443   8.937   2.941
22177SOL    HW268466   6.527   8.932   3.081
22178SOL     OW68467   6.863   8.017   3.296
22178SOL    HW168468   6.909   7.985   3.379
22178SOL    HW268469   6.898   8.107   3.271
22179SOL     OW68470   6.401   8.819   2.803
22179SOL    HW168471   6.494   8.818   2.768
22179SOL    HW268472   6.337   8.838   2.729
22180SOL     OW68473   6.515   7.971   2.737
22180SOL    HW168474   6.488   7.983   2.642
22180SOL    HW268475   6.531   7.875   2.756
22181SOL     OW68476   6.130   7.516   2.355
22181SOL    HW168477   6.055   7.507   2.420
22181SOL    HW268478   6.113   7.594   2.294
22182SOL     OW68479   7.058   8.679   1.865
22182SOL    HW168480   7.091   8.608   1.928
22182SOL    HW268481   6.966   8.707   1.892
22183SOL     OW68482   5.875   7.467   1.994
22183SOL    HW168483   5.923   7.543   1.951
22183SOL    HW268484   5.939   7.415   2.051
22184SOL     OW68485   6.512   7.771   2.312
22184SOL    HW168486   6.490   7.763   2.215
22184SOL    HW268487   6.611   7.780   2.323
22185SOL     OW68488   6.610   8.142   3.280
22185SOL    HW168489   6.527   8.088   3.292
22185SOL    HW268490   6.690   8.082   3.287
22186SOL     OW68491   6.757   9.059   2.668
22186SOL    HW168492   6.792   9.117   2.594
22186SOL    HW268493   6.795   9.090   2.755
22187SOL     OW68494   6.077   8.621   2.567
22187SOL    HW168495   6.007   8.619   2.637
22187SOL    HW268496   6.036   8.599   2.478
22188SOL     OW68497   6.832   9.254   2.477
22188SOL    HW168498   6.877   9.318   2.415
22188SOL    HW268499   6.751   9.296   2.517
22189SOL     OW68500   6.635   7.928   1.900
22189SOL    HW168501   6.586   8.009   1.866
22189SOL    HW268502   6.698   7.955   1.972
22190SOL     OW68503   5.668   8.047   3.271
22190SOL    HW168504   5.762   8.044   3.238
22190SOL    HW268505   5.659   8.118   3.340
22191SOL     OW68506   6.156   7.626   3.094
22191SOL    HW168507   6.196   7.546   3.138
22191SOL    HW268508   6.059   7.633   3.119
22192SOL     OW68509   6.439   7.983   2.477
22192SOL    HW168510   6.415   8.059   2.416
22192SOL    HW268511   6.457   7.901   2.423
22193SOL     OW68512   6.574   7.468   2.576
22193SOL    HW168513   6.514   7.490   2.499
22193SOL    HW268514   6.535   7.392   2.628
22194SOL     OW68515   7.008   8.560   2.727
22194SOL    HW168516   6.957   8.478   2.754
22194SOL    HW268517   7.013   8.564   2.627
22195SOL     OW68518   7.050   8.090   2.777
22195SOL    HW168519   6.977   8.023   2.790
22195SOL    HW268520   7.112   8.087   2.855
22196SOL     OW68521   6.075   8.877   2.095
22196SOL    HW168522   5.988   8.837   2.124
22196SOL    HW268523   6.131   8.807   2.050
22197SOL     OW68524   7.353   8.733   2.473
22197SOL    HW168525   7.446   8.724   2.508
22197SOL    HW268526   7.308   8.812   2.516
22198SOL     OW68527   6.973   8.021   1.888
22198SOL    HW168528   6.921   8.000   1.971
22198SOL    HW268529   7.071   8.023   1.909
22199SOL     OW68530   6.086   7.712   2.174
22199SOL    HW168531   6.139   7.656   2.110
22199SOL    HW268532   6.057   7.796   2.130
22200SOL     OW68533   7.319   8.673   3.401
22200SOL    HW168534   7.412   8.638   3.390
22200SOL    HW268535   7.322   8.767   3.435
22201SOL     OW68536   6.617   8.811   3.200
22201SOL    HW168537   6.530   8.785   3.243
22201SOL    HW268538   6.691   8.755   3.238
22202SOL     OW68539   7.200   9.071   3.552
22202SOL    HW168540   7.168   9.108   3.464
22202SOL    HW268541   7.281   9.015   3.537
22203SOL     OW68542   6.729   8.702   2.972
22203SOL    HW168543   6.670   8.740   3.043
22203SOL    HW268544   6.698   8.735   2.883
22204SOL     OW68545   7.173   8.536   2.966
22204SOL    HW168546   7.167   8.605   3.038
22204SOL    HW268547   7.102   8.552   2.898
22205SOL     OW68548   6.558   8.574   3.572
22205SOL    HW168549   6.468   8.592   3.611
22205SOL    HW268550   6.555   8.488   3.521
22206SOL     OW68551   6.311   8.426   2.281
22206SOL    HW168552   6.285   8.437   2.377
22206SOL    HW268553   6.354   8.337   2.267
22207SOL     OW68554   6.040   8.273   3.129
22207SOL    HW168555   6.104   8.285   3.205
22207SOL    HW268556   5.992   8.186   3.139
22208SOL     OW68557   6.791   7.801   3.140
22208SOL    HW168558   6.818   7.885   3.186
22208SOL    HW268559   6.699   7.811   3.103
22209SOL     OW68560   5.665   8.984   3.194
22209SOL    HW168561   5.618   9.044   3.130
22209SOL    HW268562   5.764   8.988   3.178
22210SOL     OW68563   5.961   8.556   2.330
22210SOL    HW168564   5.923   8.635   2.282
22210SOL    HW268565   5.933   8.472   2.284
22211SOL     OW68566   6.051   8.070   2.770
22211SOL    HW168567   6.063   8.122   2.686
22211SOL    HW268568   6.140   8.052   2.812
22212SOL     OW68569   6.871   8.821   2.339
22212SOL    HW168570   6.924   8.894   2.382
22212SOL    HW268571   6.781   8.815   2.384
22213SOL     OW68572   6.921   8.896   2.997
22213SOL    HW168573   6.960   8.909   3.088
22213SOL    HW268574   6.857   8.820   3.000
22214SOL     OW68575   7.147   7.966   2.350
22214SOL    HW168576   7.129   8.050   2.401
22214SOL    HW268577   7.205   7.986   2.271
22215SOL     OW68578   5.940   8.968   3.126
22215SOL    HW168579   5.937   8.900   3.053
22215SOL    HW268580   6.035   8.995   3.142
22216SOL     OW68581   6.028   8.245   3.515
22216SOL    HW168582   6.096   8.272   3.446
22216SOL    HW268583   6.047   8.152   3.545
22217SOL     OW68584   7.217   8.260   3.563
22217SOL    HW168585   7.121   8.283   3.547
22217SOL    HW268586   7.272   8.293   3.486
22218SOL     OW68587   6.272   8.307   2.980
22218SOL    HW168588   6.285   8.402   2.951
22218SOL    HW268589   6.183   8.296   3.023
22219SOL     OW68590   6.891   8.324   2.826
22219SOL    HW168591   6.797   8.291   2.822
22219SOL    HW268592   6.954   8.248   2.806
22220SOL     OW68593   6.811   7.986   2.107
22220SOL    HW168594   6.806   7.909   2.171
22220SOL    HW268595   6.802   8.072   2.157
22221SOL     OW68596   5.888   7.642   3.134
22221SOL    HW168597   5.861   7.680   3.222
22221SOL    HW268598   5.837   7.557   3.117
22222SOL     OW68599   5.595   8.721   3.201
22222SOL    HW168600   5.650   8.676   3.272
22222SOL    HW268601   5.624   8.816   3.192
22223SOL     OW68602   6.294   8.042   2.894
22223SOL    HW168603   6.374   8.021   2.838
22223SOL    HW268604   6.295   8.138   2.921
22224SOL     OW68605   7.332   8.428   3.747
22224SOL    HW168606   7.291   8.363   3.684
22224SOL    HW268607   7.269   8.446   3.823
22225SOL     OW68608   5.907   7.498   2.515
22225SOL    HW168609   5.866   7.588   2.530
22225SOL    HW268610   5.905   7.446   2.600
22226SOL     OW68611   7.123   7.715   2.237
22226SOL    HW168612   7.213   7.680   2.263
22226SOL    HW268613   7.112   7.808   2.272
22227SOL     OW68614   6.627   8.218   2.805
22227SOL    HW168615   6.603   8.240   2.900
22227SOL    HW268616   6.589   8.129   2.781
22228SOL     OW68617   6.579   9.016   3.645
22228SOL    HW168618   6.542   9.076   3.573
22228SOL    HW268619   6.617   8.934   3.603
22229SOL     OW68620   7.416   8.930   3.454
22229SOL    HW168621   7.435   8.964   3.362
22229SOL    HW268622   7.499   8.936   3.510
22230SOL     OW68623   5.938   8.401   3.721
22230SOL    HW168624   6.016   8.430   3.776
22230SOL    HW268625   5.970   8.344   3.645
22231SOL     OW68626   7.075   7.644   1.966
22231SOL    HW168627   7.000   7.578   1.978
22231SOL    HW268628   7.100   7.682   2.055
22232SOL     OW68629   6.866   8.265   1.827
22232SOL    HW168630   6.898   8.171   1.840
22232SOL    HW268631   6.912   8.305   1.747
22233SOL     OW68632   6.660   8.809   2.729
22233SOL    HW168633   6.670   8.736   2.661
22233SOL    HW268634   6.704   8.892   2.696
22234SOL     OW68635   5.929   8.359   2.756
22234SOL    HW168636   5.976   8.321   2.677
22234SOL    HW268637   5.930   8.292   2.831
22235SOL     OW68638   5.857   7.968   2.922
22235SOL    HW168639   5.841   7.874   2.892
22235SOL    HW268640   5.925   8.010   2.862
22236SOL     OW68641   6.704   7.832   3.539
22236SOL    HW168642   6.659   7.905   3.590
22236SOL    HW268643   6.802   7.852   3.532
22237SOL     OW68644   6.850   7.652   3.356
22237SOL    HW168645   6.799   7.691   3.432
22237SOL    HW268646   6.823   7.695   3.271
22238SOL     OW68647   5.622   8.697   2.047
22238SOL    HW168648   5.534   8.737   2.023
22238SOL    HW268649   5.608   8.607   2.088
22239SOL     OW68650   5.671   9.199   2.790
22239SOL    HW168651   5.650   9.131   2.719
22239SOL    HW268652   5.769   9.218   2.789
22240SOL     OW68653   6.087   9.010   2.776
22240SOL    HW168654   6.158   9.070   2.814
22240SOL    HW268655   6.126   8.955   2.703
22241SOL     OW68656   6.538   8.278   3.050
22241SOL    HW168657   6.566   8.233   3.135
22241SOL    HW268658   6.438   8.277   3.044
22242SOL     OW68659   5.601   8.029   3.007
22242SOL    HW168660   5.688   8.015   2.961
22242SOL    HW268661   5.617   8.042   3.105
22243SOL     OW68662   5.794   8.012   3.577
22243SOL    HW168663   5.855   7.978   3.505
22243SOL    HW268664   5.752   8.098   3.547
22244SOL     OW68665   6.966   8.343   3.496
22244SOL    HW168666   6.984   8.442   3.497
22244SOL    HW268667   6.949   8.313   3.402
22245SOL     OW68668   7.222   8.065   2.986
22245SOL    HW168669   7.210   7.979   3.036
22245SOL    HW268670   7.318   8.074   2.959
22246SOL     OW68671   5.805   8.965   3.588
22246SOL    HW168672   5.779   9.036   3.654
22246SOL    HW268673   5.833   8.882   3.637
22247SOL     OW68674   6.290   7.869   3.110
22247SOL    HW168675   6.237   7.785   3.102
22247SOL    HW268676   6.273   7.927   3.031
22248SOL     OW68677   6.459   9.151   3.427
22248SOL    HW168678   6.408   9.081   3.378
22248SOL    HW268679   6.491   9.221   3.362
22249SOL     OW68680   6.024   7.932   2.028
22249SOL    HW168681   6.102   7.993   2.045
22249SOL    HW268682   5.939   7.983   2.033
22250SOL     OW68683   5.764   8.613   3.388
22250SOL    HW168684   5.741   8.585   3.481
22250SOL    HW268685   5.788   8.533   3.334
22251SOL     OW68686   6.854   8.475   3.058
22251SOL    HW168687   6.877   8.417   2.980
22251SOL    HW268688   6.805   8.556   3.026
22252SOL     OW68689   6.931   8.354   2.073
22252SOL    HW168690   6.867   8.309   2.137
22252SOL    HW268691   6.908   8.327   1.980
22253SOL     OW68692   7.317   9.156   3.024
22253SOL    HW168693   7.386   9.194   2.961
22253SOL    HW268694   7.299   9.061   3.001
22254SOL     OW68695   6.853   9.143   2.908
22254SOL    HW168696   6.935   9.200   2.903
22254SOL    HW268697   6.877   9.053   2.945
22255SOL     OW68698   6.276   9.163   3.627
22255SOL    HW168699   6.200   9.226   3.610
22255SOL    HW268700   6.349   9.179   3.560
22256SOL     OW68701   7.368   7.623   2.316
22256SOL    HW168702   7.425   7.633   2.235
22256SOL    HW268703   7.369   7.528   2.346
22257SOL     OW68704   7.012   9.046   2.413
22257SOL    HW168705   7.069   9.072   2.335
22257SOL    HW268706   6.952   9.122   2.438
22258SOL     OW68707   5.726   9.175   3.744
22258SOL    HW168708   5.667   9.123   3.806
22258SOL    HW268709   5.780   9.241   3.796
22259SOL     OW68710   6.924   8.331   2.423
22259SOL    HW168711   7.002   8.274   2.451
22259SOL    HW268712   6.953   8.426   2.417
22260SOL     OW68713   6.372   8.744   3.299
22260SOL    HW168714   6.348   8.802   3.377
22260SOL    HW268715   6.297   8.743   3.233
22261SOL     OW68716   6.186   9.106   2.002
22261SOL    HW168717   6.219   9.101   1.908
22261SOL    HW268718   6.146   9.019   2.029
22262SOL     OW68719   7.192   9.163   3.275
22262SOL    HW168720   7.230   9.160   3.183
22262SOL    HW268721   7.226   9.245   3.322
22263SOL     OW68722   7.415   7.606   2.877
22263SOL    HW168723   7.432   7.519   2.830
22263SOL    HW268724   7.322   7.637   2.856
22264SOL     OW68725   5.807   7.742   2.585
22264SOL    HW168726   5.718   7.780   2.560
22264SOL    HW268727   5.815   7.739   2.684
22265SOL     OW68728   6.797   8.931   1.878
22265SOL    HW168729   6.774   8.935   1.975
22265SOL    HW268730   6.737   8.994   1.828
22266SOL     OW68731   6.408   8.477   3.255
22266SOL    HW168732   6.459   8.469   3.169
22266SOL    HW268733   6.395   8.573   3.277
22267SOL     OW68734   7.065   9.089   1.919
22267SOL    HW168735   6.980   9.038   1.902
22267SOL    HW268736   7.118   9.095   1.835
22268SOL     OW68737   5.974   8.784   3.349
22268SOL    HW168738   5.956   8.848   3.274
22268SOL    HW268739   5.895   8.724   3.361
22269SOL     OW68740   7.177   8.726   3.165
22269SOL    HW168741   7.236   8.701   3.241
22269SOL    HW268742   7.116   8.800   3.194
22270SOL     OW68743   6.662   8.590   2.570
22270SOL    HW168744   6.594   8.538   2.622
22270SOL    HW268745   6.707   8.529   2.505
22271SOL     OW68746   6.564   7.691   2.789
22271SOL    HW168747   6.569   7.656   2.695
22271SOL    HW268748   6.580   7.616   2.853
22272SOL     OW68749   6.233   8.913   2.324
22272SOL    HW168750   6.285   8.830   2.305
22272SOL    HW268751   6.160   8.923   2.256
22273SOL     OW68752   7.384   7.908   3.294
22273SOL    HW168753   7.437   7.986   3.259
22273SOL    HW268754   7.326   7.872   3.221
22274SOL     OW68755   5.846   8.763   2.191
22274SOL    HW168756   5.769   8.742   2.132
22274SOL    HW268757   5.815   8.817   2.270
22275SOL     OW68758   5.711   8.531   3.647
22275SOL    HW168759   5.623   8.499   3.683
22275SOL    HW268760   5.784   8.471   3.680
22276SOL     OW68761   5.717   7.820   1.829
22276SOL    HW168762   5.627   7.821   1.787
22276SOL    HW268763   5.765   7.905   1.808
22277SOL     OW68764   6.951   8.275   3.232
22277SOL    HW168765   6.895   8.339   3.180
22277SOL    HW268766   7.046   8.279   3.200
22278SOL     OW68767   5.660   7.611   2.071
22278SOL    HW168768   5.648   7.687   2.008
22278SOL    HW268769   5.743   7.560   2.047
22279SOL     OW68770   6.225   8.283   3.323
22279SOL    HW168771   6.285   8.360   3.303
22279SOL    HW268772   6.279   8.198   3.321
22280SOL     OW68773   7.086   9.279   2.896
22280SOL    HW168774   7.104   9.368   2.854
22280SOL    HW268775   7.167   9.249   2.946
22281SOL     OW68776   6.273   8.008   3.570
22281SOL    HW168777   6.314   8.086   3.617
22281SOL    HW268778   6.295   7.923   3.618
22282SOL     OW68779   7.041   8.607   3.490
22282SOL    HW168780   7.029   8.629   3.587
22282SOL    HW268781   7.133   8.633   3.461
22283SOL     OW68782   5.914   9.180   3.452
22283SOL    HW168783   5.824   9.225   3.445
22283SOL    HW268784   5.902   9.087   3.485
22284SOL     OW68785   7.201   8.307   3.124
22284SOL    HW168786   7.214   8.223   3.072
22284SOL    HW268787   7.196   8.385   3.062
22285SOL     OW68788   6.787   7.787   2.300
22285SOL    HW168789   6.828   7.697   2.293
22285SOL    HW268790   6.817   7.831   2.385
22286SOL     OW68791   6.076   8.238   2.556
22286SOL    HW168792   6.153   8.301   2.546
22286SOL    HW268793   6.054   8.198   2.467
22287SOL     OW68794   7.323   7.823   3.556
22287SOL    HW168795   7.337   7.847   3.460
22287SOL    HW268796   7.246   7.759   3.563
22288SOL     OW68797   7.339   8.380   3.354
22288SOL    HW168798   7.319   8.478   3.366
22288SOL    HW268799   7.299   8.349   3.268
22289SOL     OW68800   6.338   8.789   2.008
22289SOL    HW168801   6.361   8.755   2.099
22289SOL    HW268802   6.379   8.880   1.995
22290SOL     OW68803   6.269   9.195   2.841
22290SOL    HW168804   6.251   9.293   2.843
22290SOL    HW268805   6.355   9.178   2.793
22291SOL     OW68806   6.483   8.447   2.726
22291SOL    HW168807   6.531   8.364   2.753
22291SOL    HW268808   6.440   8.489   2.806
22292SOL     OW68809   6.630   8.346   1.939
22292SOL    HW168810   6.597   8.429   1.894
22292SOL    HW268811   6.718   8.319   1.898
22293SOL     OW68812   7.403   9.022   2.742
22293SOL    HW168813   7.339   9.000   2.668
22293SOL    HW268814   7.383   8.963   2.821
22294SOL     OW68815   5.870   8.739   3.731
22294SOL    HW168816   5.807   8.667   3.703
22294SOL    HW268817   5.853   8.762   3.827
22295SOL     OW68818   6.292   8.910   3.502
22295SOL    HW168819   6.217   8.852   3.532
22295SOL    HW268820   6.289   8.997   3.552
22296SOL     OW68821   7.454   7.504   3.129
22296SOL    HW168822   7.434   7.409   3.103
22296SOL    HW268823   7.446   7.563   3.049
22297SOL     OW68824   5.970   7.862   2.388
22297SOL    HW168825   6.008   7.795   2.324
22297SOL    HW268826   5.915   7.814   2.458
22298SOL     OW68827   7.286   8.894   2.956
22298SOL    HW168828   7.213   8.864   2.894
22298SOL    HW268829   7.293   8.830   3.032
22299SOL     OW68830   5.921   8.036   3.179
22299SOL    HW168831   5.956   7.970   3.244
22299SOL    HW268832   5.909   7.992   3.090
22300SOL     OW68833   6.424   9.080   2.422
22300SOL    HW168834   6.420   9.177   2.397
22300SOL    HW268835   6.346   9.032   2.383
22301SOL     OW68836   6.905   7.652   2.936
22301SOL    HW168837   6.885   7.554   2.938
22301SOL    HW268838   6.863   7.697   3.015
22302SOL     OW68839   6.606   7.470   2.944
22302SOL    HW168840   6.555   7.395   2.901
22302SOL    HW268841   6.701   7.442   2.959
22303SOL     OW68842   6.385   8.696   2.257
22303SOL    HW168843   6.368   8.598   2.267
22303SOL    HW268844   6.469   8.721   2.305
22304SOL     OW68845   6.215   9.020   3.131
22304SOL    HW168846   6.197   9.095   3.195
22304SOL    HW268847   6.298   9.039   3.079
22305SOL     OW68848   6.870   7.464   2.014
22305SOL    HW168849   6.871   7.376   1.966
22305SOL    HW268850   6.777   7.501   2.013
22306SOL     OW68851   6.855   7.903   2.531
22306SOL    HW168852   6.825   7.998   2.533
22306SOL    HW268853   6.873   7.871   2.624
22307SOL     OW68854   7.164   7.721   2.854
22307SOL    HW168855   7.072   7.685   2.872
22307SOL    HW268856   7.164   7.770   2.767
22308SOL     OW68857   5.632   8.462   2.200
22308SOL    HW168858   5.727   8.443   2.178
22308SOL    HW268859   5.585   8.377   2.221
22309SOL     OW68860   5.775   8.011   3.855
22309SOL    HW168861   5.682   8.013   3.892
22309SOL    HW268862   5.772   8.025   3.756
22310SOL     OW68863   5.802   7.733   4.749
22310SOL    HW168864   5.853   7.697   4.827
22310SOL    HW268865   5.706   7.706   4.756
22311SOL     OW68866   5.581   7.865   4.371
22311SOL    HW168867   5.501   7.894   4.423
22311SOL    HW268868   5.555   7.795   4.305
22312SOL     OW68869   6.169   8.737   5.013
22312SOL    HW168870   6.090   8.720   5.072
22312SOL    HW268871   6.177   8.835   4.995
22313SOL     OW68872   7.185   8.950   4.429
22313SOL    HW168873   7.134   8.942   4.515
22313SOL    HW268874   7.121   8.970   4.355
22314SOL     OW68875   7.433   8.005   3.915
22314SOL    HW168876   7.364   8.028   3.847
22314SOL    HW268877   7.467   7.913   3.899
22315SOL     OW68878   6.293   8.582   4.819
22315SOL    HW168879   6.240   8.626   4.892
22315SOL    HW268880   6.351   8.650   4.775
22316SOL     OW68881   6.498   8.161   5.521
22316SOL    HW168882   6.521   8.227   5.593
22316SOL    HW268883   6.502   8.207   5.432
22317SOL     OW68884   6.254   8.463   4.374
22317SOL    HW168885   6.321   8.460   4.448
22317SOL    HW268886   6.174   8.516   4.404
22318SOL     OW68887   6.292   8.624   5.568
22318SOL    HW168888   6.351   8.693   5.611
22318SOL    HW268889   6.221   8.670   5.514
22319SOL     OW68890   5.899   8.937   4.743
22319SOL    HW168891   5.866   8.850   4.706
22319SOL    HW268892   5.964   8.978   4.679
22320SOL     OW68893   7.018   8.954   5.119
22320SOL    HW168894   7.074   9.036   5.135
22320SOL    HW268895   6.938   8.956   5.178
22321SOL     OW68896   6.069   7.810   5.203
22321SOL    HW168897   6.148   7.750   5.217
22321SOL    HW268898   5.986   7.764   5.234
22322SOL     OW68899   7.194   7.905   4.452
22322SOL    HW168900   7.172   7.938   4.360
22322SOL    HW268901   7.141   7.956   4.520
22323SOL     OW68902   5.795   9.215   4.176
22323SOL    HW168903   5.823   9.278   4.249
22323SOL    HW268904   5.870   9.204   4.111
22324SOL     OW68905   6.701   8.779   5.432
22324SOL    HW168906   6.776   8.760   5.497
22324SOL    HW268907   6.640   8.700   5.430
22325SOL     OW68908   5.807   8.942   4.230
22325SOL    HW168909   5.791   9.040   4.220
22325SOL    HW268910   5.750   8.906   4.304
22326SOL     OW68911   6.204   9.217   5.183
22326SOL    HW168912   6.113   9.206   5.224
22326SOL    HW268913   6.228   9.314   5.183
22327SOL     OW68914   6.150   8.493   3.889
22327SOL    HW168915   6.205   8.527   3.812
22327SOL    HW268916   6.202   8.503   3.974
22328SOL     OW68917   7.200   7.569   5.213
22328SOL    HW168918   7.264   7.643   5.191
22328SOL    HW268919   7.143   7.596   5.290
22329SOL     OW68920   5.715   8.107   4.303
22329SOL    HW168921   5.673   8.018   4.321
22329SOL    HW268922   5.709   8.164   4.384
22330SOL     OW68923   7.450   9.182   4.081
22330SOL    HW168924   7.532   9.179   4.139
22330SOL    HW268925   7.445   9.271   4.035
22331SOL     OW68926   5.577   9.023   3.906
22331SOL    HW168927   5.583   8.924   3.895
22331SOL    HW268928   5.496   9.045   3.961
22332SOL     OW68929   7.230   8.333   4.373
22332SOL    HW168930   7.319   8.326   4.419
22332SOL    HW268931   7.237   8.401   4.299
22333SOL     OW68932   7.249   8.548   4.187
22333SOL    HW168933   7.333   8.526   4.138
22333SOL    HW268934   7.270   8.606   4.265
22334SOL     OW68935   5.717   8.210   5.309
22334SOL    HW168936   5.778   8.274   5.355
22334SOL    HW268937   5.637   8.259   5.275
22335SOL     OW68938   6.837   8.661   5.144
22335SOL    HW168939   6.854   8.587   5.078
22335SOL    HW268940   6.903   8.654   5.219
22336SOL     OW68941   6.442   7.498   4.225
22336SOL    HW168942   6.473   7.580   4.176
22336SOL    HW268943   6.344   7.505   4.243
22337SOL     OW68944   5.800   8.391   5.003
22337SOL    HW168945   5.890   8.351   5.019
22337SOL    HW268946   5.759   8.350   4.922
22338SOL     OW68947   7.115   8.464   3.945
22338SOL    HW168948   7.041   8.398   3.961
22338SOL    HW268949   7.158   8.488   4.031
22339SOL     OW68950   6.729   9.251   5.300
22339SOL    HW168951   6.787   9.308   5.243
22339SOL    HW268952   6.754   9.155   5.288
22340SOL     OW68953   7.068   8.901   4.670
22340SOL    HW168954   6.998   8.919   4.739
22340SOL    HW268955   7.062   8.805   4.641
22341SOL     OW68956   7.212   9.303   4.275
22341SOL    HW168957   7.208   9.236   4.200
22341SOL    HW268958   7.227   9.256   4.362
22342SOL     OW68959   6.167   8.130   4.034
22342SOL    HW168960   6.168   8.222   3.996
22342SOL    HW268961   6.102   8.126   4.111
22343SOL     OW68962   6.878   7.827   4.660
22343SOL    HW168963   6.792   7.778   4.643
22343SOL    HW268964   6.930   7.780   4.731
22344SOL     OW68965   7.185   9.124   4.064
22344SOL    HW168966   7.285   9.129   4.066
22344SOL    HW268967   7.154   9.106   3.970
22345SOL     OW68968   6.381   8.041   5.154
22345SOL    HW168969   6.351   7.998   5.239
22345SOL    HW268970   6.361   7.981   5.077
22346SOL     OW68971   6.939   7.912   5.388
22346SOL    HW168972   6.945   7.961   5.475
22346SOL    HW268973   6.992   7.827   5.395
22347SOL     OW68974   6.540   8.332   5.303
22347SOL    HW168975   6.594   8.270   5.247
22347SOL    HW268976   6.483   8.390   5.244
22348SOL     OW68977   6.600   7.848   4.848
22348SOL    HW168978   6.505   7.865   4.876
22348SOL    HW268979   6.602   7.778   4.777
22349SOL     OW68980   6.655   8.184   4.097
22349SOL    HW168981   6.692   8.205   4.187
22349SOL    HW268982   6.581   8.118   4.105
22350SOL     OW68983   5.693   8.255   4.527
22350SOL    HW168984   5.758   8.253   4.604
22350SOL    HW268985   5.620   8.319   4.547
22351SOL     OW68986   5.710   9.313   5.338
22351SOL    HW168987   5.726   9.273   5.428
22351SOL    HW268988   5.613   9.309   5.316
22352SOL     OW68989   6.508   7.878   3.868
22352SOL    HW168990   6.572   7.937   3.819
22352SOL    HW268991   6.443   7.837   3.804
22353SOL     OW68992   7.228   8.033   5.568
22353SOL    HW168993   7.225   8.116   5.511
22353SOL    HW268994   7.255   7.955   5.512
22354SOL     OW68995   6.987   8.660   4.249
22354SOL    HW168996   7.072   8.627   4.206
22354SOL    HW268997   6.940   8.721   4.185
22355SOL     OW68998   6.173   7.647   4.680
22355SOL    HW168999   6.183   7.660   4.779
22355SOL    HW269000   6.164   7.737   4.636
22356SOL     OW69001   6.580   8.943   4.167
22356SOL    HW169002   6.566   9.018   4.102
22356SOL    HW269003   6.539   8.968   4.255
22357SOL     OW69004   5.979   9.288   4.598
22357SOL    HW169005   6.012   9.195   4.584
22357SOL    HW269006   6.051   9.343   4.641
22358SOL     OW69007   7.383   8.550   4.641
22358SOL    HW169008   7.350   8.602   4.563
22358SOL    HW269009   7.311   8.543   4.710
22359SOL     OW69010   6.771   8.974   5.245
22359SOL    HW169011   6.759   8.907   5.318
22359SOL    HW269012   6.715   8.946   5.166
22360SOL     OW69013   5.908   8.490   4.041
22360SOL    HW169014   5.987   8.504   3.980
22360SOL    HW269015   5.879   8.394   4.036
22361SOL     OW69016   7.011   8.181   4.391
22361SOL    HW169017   7.009   8.136   4.480
22361SOL    HW269018   7.090   8.243   4.387
22362SOL     OW69019   6.051   8.751   5.448
22362SOL    HW169020   6.033   8.749   5.350
22362SOL    HW269021   5.966   8.736   5.498
22363SOL     OW69022   6.756   9.234   3.945
22363SOL    HW169023   6.661   9.223   3.975
22363SOL    HW269024   6.781   9.158   3.886
22364SOL     OW69025   5.831   7.684   5.246
22364SOL    HW169026   5.758   7.752   5.250
22364SOL    HW269027   5.796   7.596   5.279
22365SOL     OW69028   7.216   8.816   3.840
22365SOL    HW169029   7.188   8.911   3.826
22365SOL    HW269030   7.144   8.755   3.805
22366SOL     OW69031   6.041   9.217   4.037
22366SOL    HW169032   6.084   9.269   4.111
22366SOL    HW269033   6.111   9.166   3.987
22367SOL     OW69034   5.793   9.239   4.988
22367SOL    HW169035   5.846   9.160   5.018
22367SOL    HW269036   5.769   9.229   4.892
22368SOL     OW69037   6.517   9.133   4.571
22368SOL    HW169038   6.607   9.089   4.574
22368SOL    HW269039   6.468   9.101   4.490
22369SOL     OW69040   5.986   8.101   4.240
22369SOL    HW169041   6.007   8.006   4.265
22369SOL    HW269042   5.888   8.118   4.253
22370SOL     OW69043   7.064   7.669   5.440
22370SOL    HW169044   7.064   7.679   5.540
22370SOL    HW269045   6.994   7.602   5.414
22371SOL     OW69046   6.339   7.681   5.463
22371SOL    HW169047   6.426   7.635   5.477
22371SOL    HW269048   6.283   7.672   5.546
22372SOL     OW69049   6.446   8.951   4.896
22372SOL    HW169050   6.439   8.896   4.813
22372SOL    HW269051   6.514   8.910   4.957
22373SOL     OW69052   6.874   8.034   5.152
22373SOL    HW169053   6.905   7.997   5.240
22373SOL    HW269054   6.916   8.123   5.137
22374SOL     OW69055   6.436   8.776   4.678
22374SOL    HW169056   6.528   8.776   4.640
22374SOL    HW269057   6.369   8.771   4.604
22375SOL     OW69058   6.517   8.058   4.597
22375SOL    HW169059   6.487   8.044   4.502
22375SOL    HW269060   6.570   7.979   4.627
22376SOL     OW69061   6.172   7.522   4.253
22376SOL    HW169062   6.104   7.518   4.327
22376SOL    HW269063   6.147   7.594   4.189
22377SOL     OW69064   7.010   8.645   3.764
22377SOL    HW169065   7.046   8.574   3.824
22377SOL    HW269066   6.922   8.677   3.798
22378SOL     OW69067   5.910   7.541   3.825
22378SOL    HW169068   5.905   7.626   3.772
22378SOL    HW269069   6.006   7.520   3.844
22379SOL     OW69070   6.506   7.732   4.106
22379SOL    HW169071   6.519   7.772   4.015
22379SOL    HW269072   6.485   7.805   4.171
22380SOL     OW69073   6.629   8.153   5.122
22380SOL    HW169074   6.550   8.093   5.137
22380SOL    HW269075   6.713   8.100   5.128
22381SOL     OW69076   6.776   9.053   4.545
22381SOL    HW169077   6.807   9.104   4.465
22381SOL    HW269078   6.812   9.096   4.628
22382SOL     OW69079   6.830   9.238   4.339
22382SOL    HW169080   6.878   9.299   4.275
22382SOL    HW269081   6.751   9.285   4.377
22383SOL     OW69082   6.633   8.049   3.692
22383SOL    HW169083   6.550   8.105   3.688
22383SOL    HW269084   6.713   8.108   3.703
22384SOL     OW69085   5.733   8.036   5.099
22384SOL    HW169086   5.829   8.022   5.074
22384SOL    HW269087   5.727   8.103   5.173
22385SOL     OW69088   6.178   7.680   4.951
22385SOL    HW169089   6.223   7.647   5.033
22385SOL    HW269090   6.079   7.667   4.959
22386SOL     OW69091   6.408   8.030   4.352
22386SOL    HW169092   6.330   8.088   4.373
22386SOL    HW269093   6.421   8.025   4.253
22387SOL     OW69094   6.606   7.473   4.442
22387SOL    HW169095   6.548   7.491   4.363
22387SOL    HW269096   6.564   7.403   4.499
22388SOL     OW69097   7.070   8.648   4.581
22388SOL    HW169098   6.980   8.625   4.544
22388SOL    HW269099   7.138   8.644   4.508
22389SOL     OW69100   7.028   8.052   4.631
22389SOL    HW169101   6.966   7.975   4.644
22389SOL    HW269102   7.091   8.057   4.709
22390SOL     OW69103   7.377   8.192   4.103
22390SOL    HW169104   7.441   8.180   4.179
22390SOL    HW269105   7.396   8.125   4.032
22391SOL     OW69106   6.080   8.907   3.900
22391SOL    HW169107   5.988   8.890   3.935
22391SOL    HW269108   6.099   8.845   3.823
22392SOL     OW69109   7.308   8.698   4.413
22392SOL    HW169110   7.408   8.697   4.404
22392SOL    HW269111   7.275   8.792   4.409
22393SOL     OW69112   7.006   8.004   3.792
22393SOL    HW169113   6.993   7.958   3.880
22393SOL    HW269114   7.103   8.019   3.776
22394SOL     OW69115   6.083   7.699   4.070
22394SOL    HW169116   6.108   7.629   4.003
22394SOL    HW269117   6.054   7.782   4.023
22395SOL     OW69118   7.307   8.676   5.266
22395SOL    HW169119   7.395   8.629   5.262
22395SOL    HW269120   7.318   8.766   5.308
22396SOL     OW69121   6.621   8.805   5.065
22396SOL    HW169122   6.538   8.783   5.115
22396SOL    HW269123   6.698   8.751   5.100
22397SOL     OW69124   7.192   9.087   5.407
22397SOL    HW169125   7.179   9.127   5.316
22397SOL    HW269126   7.264   9.018   5.403
22398SOL     OW69127   6.746   8.703   4.835
22398SOL    HW169128   6.678   8.734   4.901
22398SOL    HW269129   6.716   8.727   4.743
22399SOL     OW69130   7.180   8.558   4.823
22399SOL    HW169131   7.173   8.624   4.897
22399SOL    HW269132   7.117   8.584   4.749
22400SOL     OW69133   6.519   7.510   5.078
22400SOL    HW169134   6.542   7.486   4.984
22400SOL    HW269135   6.592   7.565   5.118
22401SOL     OW69136   6.543   8.555   5.463
22401SOL    HW169137   6.448   8.572   5.490
22401SOL    HW269138   6.546   8.475   5.403
22402SOL     OW69139   6.318   8.520   4.106
22402SOL    HW169140   6.301   8.492   4.200
22402SOL    HW269141   6.386   8.458   4.065
22403SOL     OW69142   6.038   8.265   5.031
22403SOL    HW169143   6.106   8.278   5.103
22403SOL    HW269144   6.015   8.167   5.025
22404SOL     OW69145   6.823   7.818   5.000
22404SOL    HW169146   6.845   7.901   5.051
22404SOL    HW269147   6.744   7.835   4.941
22405SOL     OW69148   5.659   8.922   5.056
22405SOL    HW169149   5.593   8.998   5.056
22405SOL    HW269150   5.751   8.959   5.044
22406SOL     OW69151   5.905   8.667   4.252
22406SOL    HW169152   5.897   8.760   4.216
22406SOL    HW269153   5.908   8.602   4.176
22407SOL     OW69154   6.141   7.899   4.572
22407SOL    HW169155   6.121   7.893   4.474
22407SOL    HW269156   6.200   7.977   4.590
22408SOL     OW69157   6.832   8.848   4.113
22408SOL    HW169158   6.896   8.913   4.154
22408SOL    HW269159   6.739   8.873   4.137
22409SOL     OW69160   6.899   8.926   4.878
22409SOL    HW169161   6.942   8.933   4.968
22409SOL    HW269162   6.847   8.840   4.872
22410SOL     OW69163   7.144   8.031   4.198
22410SOL    HW169164   7.081   8.088   4.251
22410SOL    HW269165   7.217   8.089   4.160
22411SOL     OW69166   5.924   8.990   5.004
22411SOL    HW169167   5.907   8.969   4.908
22411SOL    HW269168   6.022   9.004   5.019
22412SOL     OW69169   6.088   8.176   5.424
22412SOL    HW169170   6.127   8.226   5.346
22412SOL    HW269171   6.146   8.097   5.445
22413SOL     OW69172   7.210   8.262   5.423
22413SOL    HW169173   7.114   8.288   5.414
22413SOL    HW269174   7.261   8.295   5.343
22414SOL     OW69175   6.575   7.559   5.514
22414SOL    HW169176   6.637   7.630   5.480
22414SOL    HW269177   6.624   7.500   5.577
22415SOL     OW69178   6.145   8.339   4.793
22415SOL    HW169179   6.197   8.424   4.797
22415SOL    HW269180   6.110   8.317   4.884
22416SOL     OW69181   6.885   8.284   4.743
22416SOL    HW169182   6.788   8.285   4.717
22416SOL    HW269183   6.930   8.206   4.701
22417SOL     OW69184   5.910   7.635   4.983
22417SOL    HW169185   5.889   7.667   5.075
22417SOL    HW269186   5.871   7.544   4.969
22418SOL     OW69187   5.645   8.728   4.862
22418SOL    HW169188   5.581   8.657   4.893
22418SOL    HW269189   5.658   8.795   4.934
22419SOL     OW69190   6.281   8.097   4.736
22419SOL    HW169191   6.365   8.102   4.681
22419SOL    HW269192   6.236   8.186   4.734
22420SOL     OW69193   7.334   8.422   5.609
22420SOL    HW169194   7.288   8.359   5.547
22420SOL    HW269195   7.268   8.456   5.677
22421SOL     OW69196   5.962   7.514   4.428
22421SOL    HW169197   5.906   7.595   4.447
22421SOL    HW269198   6.004   7.482   4.513
22422SOL     OW69199   6.615   8.290   4.693
22422SOL    HW169200   6.573   8.296   4.784
22422SOL    HW269201   6.585   8.206   4.648
22423SOL     OW69202   6.565   9.004   5.508
22423SOL    HW169203   6.526   9.062   5.436
22423SOL    HW269204   6.597   8.919   5.468
22424SOL     OW69205   7.406   8.918   5.361
22424SOL    HW169206   7.456   8.956   5.284
22424SOL    HW269207   7.468   8.905   5.438
22425SOL     OW69208   5.970   8.364   5.591
22425SOL    HW169209   6.041   8.407   5.647
22425SOL    HW269210   6.011   8.293   5.534
22426SOL     OW69211   7.024   7.545   3.859
22426SOL    HW169212   7.076   7.482   3.915
22426SOL    HW269213   7.020   7.635   3.903
22427SOL     OW69214   6.854   8.219   3.712
22427SOL    HW169215   6.912   8.143   3.741
22427SOL    HW269216   6.894   8.263   3.631
22428SOL     OW69217   6.692   8.789   4.581
22428SOL    HW169218   6.740   8.721   4.526
22428SOL    HW269219   6.728   8.880   4.561
22429SOL     OW69220   5.886   8.226   4.731
22429SOL    HW169221   5.972   8.277   4.738
22429SOL    HW269222   5.905   8.128   4.737
22430SOL     OW69223   5.945   7.960   4.751
22430SOL    HW169224   5.882   7.881   4.749
22430SOL    HW269225   6.020   7.944   4.686
22431SOL     OW69226   6.694   7.797   5.424
22431SOL    HW169227   6.647   7.841   5.500
22431SOL    HW269228   6.782   7.842   5.408
22432SOL     OW69229   6.715   7.656   5.191
22432SOL    HW169230   6.696   7.712   5.271
22432SOL    HW269231   6.760   7.712   5.121
22433SOL     OW69232   5.583   8.747   3.899
22433SOL    HW169233   5.494   8.765   3.856
22433SOL    HW269234   5.585   8.654   3.934
22434SOL     OW69235   5.746   9.232   4.724
22434SOL    HW169236   5.689   9.174   4.665
22434SOL    HW269237   5.832   9.252   4.678
22435SOL     OW69238   6.079   9.035   4.562
22435SOL    HW169239   6.158   9.078   4.607
22435SOL    HW269240   6.110   8.987   4.481
22436SOL     OW69241   6.481   8.279   4.929
22436SOL    HW169242   6.545   8.243   4.997
22436SOL    HW269243   6.405   8.216   4.918
22437SOL     OW69244   5.622   8.049   4.850
22437SOL    HW169245   5.694   8.063   4.782
22437SOL    HW269246   5.663   8.045   4.941
22438SOL     OW69247   5.810   7.998   5.467
22438SOL    HW169248   5.908   8.009   5.449
22438SOL    HW269249   5.758   8.062   5.410
22439SOL     OW69250   6.964   8.363   5.361
22439SOL    HW169251   6.981   8.461   5.358
22439SOL    HW269252   6.957   8.328   5.267
22440SOL     OW69253   6.422   8.029   4.079
22440SOL    HW169254   6.451   7.975   4.000
22440SOL    HW269255   6.331   8.066   4.063
22441SOL     OW69256   7.206   8.056   4.844
22441SOL    HW169257   7.166   7.996   4.913
22441SOL    HW269258   7.306   8.052   4.849
22442SOL     OW69259   5.809   8.971   5.426
22442SOL    HW169260   5.799   9.048   5.489
22442SOL    HW269261   5.814   8.886   5.478
22443SOL     OW69262   6.337   7.903   4.921
22443SOL    HW169263   6.274   7.825   4.925
22443SOL    HW269264   6.305   7.967   4.851
22444SOL     OW69265   6.455   9.170   5.312
22444SOL    HW169266   6.384   9.177   5.242
22444SOL    HW269267   6.537   9.219   5.281
22445SOL     OW69268   6.017   7.920   3.927
22445SOL    HW169269   6.079   7.993   3.956
22445SOL    HW269270   5.925   7.958   3.914
22446SOL     OW69271   5.749   8.567   5.205
22446SOL    HW169272   5.759   8.522   5.294
22446SOL    HW269273   5.767   8.501   5.132
22447SOL     OW69274   6.858   8.475   4.934
22447SOL    HW169275   6.875   8.406   4.864
22447SOL    HW269276   6.817   8.556   4.892
22448SOL     OW69277   6.899   8.294   3.978
22448SOL    HW169278   6.824   8.262   4.035
22448SOL    HW269279   6.879   8.276   3.882
22449SOL     OW69280   7.357   9.169   4.925
22449SOL    HW169281   7.432   9.197   4.865
22449SOL    HW269282   7.327   9.077   4.899
22450SOL     OW69283   6.854   9.175   4.781
22450SOL    HW169284   6.943   9.221   4.785
22450SOL    HW269285   6.862   9.085   4.826
22451SOL     OW69286   6.275   9.157   5.511
22451SOL    HW169287   6.203   9.224   5.497
22451SOL    HW269288   6.348   9.171   5.444
22452SOL     OW69289   6.996   9.031   4.238
22452SOL    HW169290   7.060   9.067   4.169
22452SOL    HW269291   6.935   9.104   4.269
22453SOL     OW69292   5.765   9.198   5.573
22453SOL    HW169293   5.701   9.137   5.621
22453SOL    HW269294   5.813   9.255   5.640
22454SOL     OW69295   6.383   8.749   5.182
22454SOL    HW169296   6.359   8.802   5.263
22454SOL    HW269297   6.306   8.749   5.118
22455SOL     OW69298   6.259   9.113   3.891
22455SOL    HW169299   6.275   9.127   3.793
22455SOL    HW269300   6.205   9.029   3.904
22456SOL     OW69301   7.177   9.179   5.145
22456SOL    HW169302   7.242   9.172   5.070
22456SOL    HW269303   7.151   9.275   5.158
22457SOL     OW69304   7.433   7.587   4.758
22457SOL    HW169305   7.461   7.500   4.718
22457SOL    HW269306   7.350   7.620   4.712
22458SOL     OW69307   5.819   7.748   4.471
22458SOL    HW169308   5.735   7.789   4.436
22458SOL    HW269309   5.816   7.746   4.571
22459SOL     OW69310   6.823   9.028   3.780
22459SOL    HW169311   6.815   8.934   3.812
22459SOL    HW269312   6.746   9.050   3.720
22460SOL     OW69313   6.395   8.478   5.132
22460SOL    HW169314   6.420   8.460   5.037
22460SOL    HW269315   6.396   8.577   5.148
22461SOL     OW69316   6.496   8.362   3.964
22461SOL    HW169317   6.557   8.404   3.897
22461SOL    HW269318   6.546   8.295   4.017
22462SOL     OW69319   7.092   9.088   3.801
22462SOL    HW169320   6.995   9.065   3.790
22462SOL    HW269321   7.136   9.088   3.712
22463SOL     OW69322   5.953   8.753   5.184
22463SOL    HW169323   5.923   8.838   5.140
22463SOL    HW269324   5.876   8.689   5.189
22464SOL     OW69325   7.181   8.749   5.027
22464SOL    HW169326   7.234   8.715   5.104
22464SOL    HW269327   7.112   8.815   5.060
22465SOL     OW69328   6.649   7.652   4.658
22465SOL    HW169329   6.637   7.612   4.567
22465SOL    HW269330   6.641   7.581   4.727
22466SOL     OW69331   6.200   8.959   4.201
22466SOL    HW169332   6.250   8.894   4.144
22466SOL    HW269333   6.106   8.967   4.168
22467SOL     OW69334   7.410   7.769   5.180
22467SOL    HW169335   7.468   7.849   5.166
22467SOL    HW269336   7.440   7.695   5.120
22468SOL     OW69337   5.824   8.833   3.985
22468SOL    HW169338   5.733   8.803   3.957
22468SOL    HW269339   5.817   8.883   4.072
22469SOL     OW69340   5.752   8.467   5.464
22469SOL    HW169341   5.667   8.447   5.513
22469SOL    HW269342   5.830   8.431   5.516
22470SOL     OW69343   6.287   7.603   5.201
22470SOL    HW169344   6.371   7.570   5.157
22470SOL    HW269345   6.308   7.632   5.295
22471SOL     OW69346   6.970   8.286   5.101
22471SOL    HW169347   6.909   8.346   5.051
22471SOL    HW269348   7.061   8.288   5.059
22472SOL     OW69349   5.680   7.571   3.983
22472SOL    HW169350   5.613   7.576   3.909
22472SOL    HW269351   5.772   7.570   3.944
22473SOL     OW69352   6.774   8.768   3.854
22473SOL    HW169353   6.676   8.749   3.846
22473SOL    HW269354   6.797   8.784   3.950
22474SOL     OW69355   6.236   8.272   5.210
22474SOL    HW169356   6.289   8.354   5.190
22474SOL    HW269357   6.293   8.191   5.193
22475SOL     OW69358   7.106   9.284   4.796
22475SOL    HW169359   7.133   9.345   4.721
22475SOL    HW269360   7.187   9.244   4.838
22476SOL     OW69361   6.320   7.962   5.410
22476SOL    HW169362   6.384   8.017   5.463
22476SOL    HW269363   6.332   7.865   5.433
22477SOL     OW69364   7.032   8.628   5.347
22477SOL    HW169365   7.014   8.649   5.443
22477SOL    HW269366   7.127   8.647   5.326
22478SOL     OW69367   5.953   9.184   5.301
22478SOL    HW169368   5.870   9.237   5.288
22478SOL    HW269369   5.930   9.091   5.330
22479SOL     OW69370   7.202   8.317   4.956
22479SOL    HW169371   7.205   8.235   4.899
22479SOL    HW269372   7.192   8.398   4.898
22480SOL     OW69373   6.197   8.191   4.392
22480SOL    HW169374   6.215   8.289   4.387
22480SOL    HW269375   6.113   8.169   4.344
22481SOL     OW69376   7.298   7.809   5.426
22481SOL    HW169377   7.339   7.798   5.336
22481SOL    HW269378   7.216   7.753   5.433
22482SOL     OW69379   7.299   8.387   5.201
22482SOL    HW169380   7.283   8.486   5.211
22482SOL    HW269381   7.271   8.359   5.109
22483SOL     OW69382   6.483   8.806   3.813
22483SOL    HW169383   6.436   8.816   3.901
22483SOL    HW269384   6.498   8.896   3.772
22484SOL     OW69385   6.270   9.185   4.671
22484SOL    HW169386   6.254   9.282   4.689
22484SOL    HW269387   6.367   9.171   4.649
22485SOL     OW69388   6.415   8.457   4.593
22485SOL    HW169389   6.497   8.404   4.615
22485SOL    HW269390   6.371   8.487   4.677
22486SOL     OW69391   6.674   8.434   3.776
22486SOL    HW169392   6.646   8.493   3.700
22486SOL    HW269393   6.740   8.366   3.743
22487SOL     OW69394   7.393   9.027   4.600
22487SOL    HW169395   7.331   9.004   4.526
22487SOL    HW269396   7.368   8.975   4.682
22488SOL     OW69397   5.803   8.726   5.557
22488SOL    HW169398   5.779   8.639   5.513
22488SOL    HW269399   5.752   8.734   5.643
22489SOL     OW69400   5.707   8.752   4.423
22489SOL    HW169401   5.740   8.740   4.516
22489SOL    HW269402   5.770   8.708   4.359
22490SOL     OW69403   6.278   8.895   5.391
22490SOL    HW169404   6.190   8.852   5.414
22490SOL    HW269405   6.284   8.984   5.435
22491SOL     OW69406   7.489   7.563   5.026
22491SOL    HW169407   7.554   7.488   5.016
22491SOL    HW269408   7.449   7.584   4.937
22492SOL     OW69409   6.028   7.844   4.315
22492SOL    HW169410   6.046   7.786   4.235
22492SOL    HW269411   5.952   7.805   4.368
22493SOL     OW69412   7.278   8.928   4.836
22493SOL    HW169413   7.199   8.923   4.775
22493SOL    HW269414   7.272   8.857   4.906
22494SOL     OW69415   5.988   8.000   5.023
22494SOL    HW169416   6.029   7.930   5.081
22494SOL    HW269417   5.990   7.970   4.927
22495SOL     OW69418   6.397   9.087   4.334
22495SOL    HW169419   6.402   9.180   4.297
22495SOL    HW269420   6.321   9.038   4.292
22496SOL     OW69421   7.019   7.700   4.853
22496SOL    HW169422   7.034   7.603   4.873
22496SOL    HW269423   6.954   7.738   4.919
22497SOL     OW69424   6.614   7.422   4.815
22497SOL    HW169425   6.563   7.373   4.744
22497SOL    HW269426   6.707   7.386   4.820
22498SOL     OW69427   6.369   8.789   4.063
22498SOL    HW169428   6.351   8.692   4.081
22498SOL    HW269429   6.452   8.817   4.112
22499SOL     OW69430   6.201   9.009   5.008
22499SOL    HW169431   6.208   9.086   5.072
22499SOL    HW269432   6.287   9.000   4.958
22500SOL     OW69433   7.200   7.670   4.647
22500SOL    HW169434   7.135   7.699   4.717
22500SOL    HW269435   7.192   7.730   4.567
22501SOL     OW69436   5.628   8.506   4.029
22501SOL    HW169437   5.726   8.528   4.033
22501SOL    HW269438   5.615   8.407   4.038
22502SOL     OW69439   6.496   9.168   4.028
22502SOL    HW169440   6.414   9.143   3.976
22502SOL    HW269441   6.471   9.237   4.096
22503SOL     OW69442   5.745   8.033   5.741
22503SOL    HW169443   5.648   8.034   5.766
22503SOL    HW269444   5.754   8.027   5.642
22504SOL     OW69445   5.818   7.753   6.624
22504SOL    HW169446   5.820   7.703   6.711
22504SOL    HW269447   5.748   7.713   6.564
22505SOL     OW69448   5.573   7.844   6.233
22505SOL    HW169449   5.497   7.865   6.295
22505SOL    HW269450   5.541   7.781   6.162
22506SOL     OW69451   7.166   8.977   6.283
22506SOL    HW169452   7.110   8.954   6.363
22506SOL    HW269453   7.106   8.989   6.203
22507SOL     OW69454   6.700   8.171   6.263
22507SOL    HW169455   6.745   8.258   6.243
22507SOL    HW269456   6.667   8.171   6.358
22508SOL     OW69457   7.352   8.024   5.806
22508SOL    HW169458   7.315   8.040   5.714
22508SOL    HW269459   7.300   7.951   5.851
22509SOL     OW69460   6.513   8.167   7.372
22509SOL    HW169461   6.537   8.237   7.440
22509SOL    HW269462   6.505   8.210   7.282
22510SOL     OW69463   6.287   8.456   6.241
22510SOL    HW169464   6.363   8.437   6.304
22510SOL    HW269465   6.227   8.526   6.281
22511SOL     OW69466   6.275   8.574   7.445
22511SOL    HW169467   6.345   8.632   7.487
22511SOL    HW269468   6.217   8.630   7.385
22512SOL     OW69469   5.945   8.816   6.644
22512SOL    HW169470   5.877   8.757   6.600
22512SOL    HW269471   6.036   8.790   6.613
22513SOL     OW69472   7.015   8.960   6.948
22513SOL    HW169473   7.084   9.031   6.958
22513SOL    HW269474   6.941   8.976   7.014
22514SOL     OW69475   5.906   7.841   7.183
22514SOL    HW169476   5.952   7.896   7.113
22514SOL    HW269477   5.842   7.779   7.139
22515SOL     OW69478   7.204   7.913   6.321
22515SOL    HW169479   7.188   7.953   6.230
22515SOL    HW269480   7.153   7.965   6.389
22516SOL     OW69481   5.829   9.194   6.053
22516SOL    HW169482   5.845   9.265   6.121
22516SOL    HW269483   5.906   9.192   5.988
22517SOL     OW69484   6.634   8.762   7.276
22517SOL    HW169485   6.688   8.777   7.359
22517SOL    HW269486   6.588   8.674   7.282
22518SOL     OW69487   5.887   8.934   6.118
22518SOL    HW169488   5.858   9.028   6.107
22518SOL    HW269489   5.834   8.890   6.191
22519SOL     OW69490   5.947   8.479   6.527
22519SOL    HW169491   5.925   8.382   6.527
22519SOL    HW269492   5.862   8.532   6.540
22520SOL     OW69493   6.160   9.250   7.008
22520SOL    HW169494   6.085   9.241   7.073
22520SOL    HW269495   6.206   9.338   7.022
22521SOL     OW69496   6.157   8.485   5.767
22521SOL    HW169497   6.203   8.529   5.690
22521SOL    HW269498   6.212   8.499   5.850
22522SOL     OW69499   7.158   7.609   7.060
22522SOL    HW169500   7.230   7.675   7.040
22522SOL    HW269501   7.115   7.631   7.148
22523SOL     OW69502   5.708   8.081   6.183
22523SOL    HW169503   5.659   7.995   6.194
22523SOL    HW269504   5.694   8.138   6.264
22524SOL     OW69505   7.474   9.153   5.878
22524SOL    HW169506   7.547   9.137   5.945
22524SOL    HW269507   7.474   9.249   5.850
22525SOL     OW69508   5.611   9.030   5.704
22525SOL    HW169509   5.543   8.957   5.700
22525SOL    HW269510   5.600   9.081   5.789
22526SOL     OW69511   7.275   8.387   6.235
22526SOL    HW169512   7.342   8.328   6.190
22526SOL    HW269513   7.242   8.456   6.172
22527SOL     OW69514   7.218   8.589   6.045
22527SOL    HW169515   7.298   8.553   5.996
22527SOL    HW269516   7.248   8.655   6.114
22528SOL     OW69517   5.679   8.199   7.210
22528SOL    HW169518   5.763   8.243   7.242
22528SOL    HW269519   5.623   8.265   7.161
22529SOL     OW69520   6.845   8.678   6.976
22529SOL    HW169521   6.859   8.603   6.912
22529SOL    HW269522   6.914   8.675   7.048
22530SOL     OW69523   6.319   7.552   5.920
22530SOL    HW169524   6.393   7.607   5.959
22530SOL    HW269525   6.242   7.551   5.983
22531SOL     OW69526   5.695   8.382   6.839
22531SOL    HW169527   5.749   8.420   6.764
22531SOL    HW269528   5.704   8.282   6.840
22532SOL     OW69529   7.126   8.511   5.787
22532SOL    HW169530   7.055   8.443   5.807
22532SOL    HW269531   7.159   8.551   5.872
22533SOL     OW69532   6.919   9.301   7.187
22533SOL    HW169533   6.863   9.359   7.128
22533SOL    HW269534   6.895   9.205   7.172
22534SOL     OW69535   5.903   7.685   7.404
22534SOL    HW169536   5.926   7.745   7.327
22534SOL    HW269537   5.805   7.693   7.425
22535SOL     OW69538   7.035   8.884   6.508
22535SOL    HW169539   6.962   8.890   6.576
22535SOL    HW269540   7.039   8.792   6.469
22536SOL     OW69541   7.233   9.290   6.104
22536SOL    HW169542   7.224   9.227   6.027
22536SOL    HW269543   7.242   9.238   6.189
22537SOL     OW69544   6.129   8.180   5.919
22537SOL    HW169545   6.130   8.273   5.882
22537SOL    HW269546   6.069   8.176   5.999
22538SOL     OW69547   6.862   7.838   6.503
22538SOL    HW169548   6.774   7.790   6.501
22538SOL    HW269549   6.924   7.791   6.566
22539SOL     OW69550   7.196   9.119   5.896
22539SOL    HW169551   7.295   9.110   5.885
22539SOL    HW269552   7.152   9.110   5.806
22540SOL     OW69553   6.408   7.917   6.988
22540SOL    HW169554   6.386   7.939   7.083
22540SOL    HW269555   6.324   7.904   6.936
22541SOL     OW69556   6.957   7.927   7.232
22541SOL    HW169557   6.969   7.992   7.307
22541SOL    HW269558   7.003   7.841   7.254
22542SOL     OW69559   6.504   8.305   7.127
22542SOL    HW169560   6.559   8.232   7.086
22542SOL    HW269561   6.448   8.349   7.057
22543SOL     OW69562   6.588   7.810   6.809
22543SOL    HW169563   6.522   7.842   6.876
22543SOL    HW269564   6.540   7.767   6.733
22544SOL     OW69565   6.611   8.122   6.008
22544SOL    HW169566   6.641   8.136   6.102
22544SOL    HW269567   6.516   8.091   6.008
22545SOL     OW69568   5.673   8.230   6.401
22545SOL    HW169569   5.760   8.223   6.449
22545SOL    HW269570   5.623   8.310   6.435
22546SOL     OW69571   5.698   9.301   7.198
22546SOL    HW169572   5.709   9.268   7.291
22546SOL    HW269573   5.613   9.265   7.160
22547SOL     OW69574   6.403   7.834   5.810
22547SOL    HW169575   6.471   7.865   5.744
22547SOL    HW269576   6.330   7.785   5.763
22548SOL     OW69577   7.257   8.044   7.416
22548SOL    HW169578   7.250   8.123   7.354
22548SOL    HW269579   7.279   7.962   7.363
22549SOL     OW69580   6.959   8.628   6.140
22549SOL    HW169581   7.043   8.615   6.088
22549SOL    HW269582   6.901   8.694   6.093
22550SOL     OW69583   6.137   7.564   6.549
22550SOL    HW169584   6.116   7.585   6.645
22550SOL    HW269585   6.157   7.649   6.500
22551SOL     OW69586   6.566   8.945   6.056
22551SOL    HW169587   6.553   9.017   5.989
22551SOL    HW269588   6.522   8.971   6.142
22552SOL     OW69589   5.954   9.288   6.482
22552SOL    HW169590   6.024   9.217   6.475
22552SOL    HW269591   5.996   9.372   6.518
22553SOL     OW69592   7.374   8.467   6.483
22553SOL    HW169593   7.334   8.449   6.394
22553SOL    HW269594   7.302   8.490   6.548
22554SOL     OW69595   6.817   9.035   7.122
22554SOL    HW169596   6.793   8.954   7.176
22554SOL    HW269597   6.733   9.081   7.092
22555SOL     OW69598   5.898   8.435   5.876
22555SOL    HW169599   5.980   8.484   5.850
22555SOL    HW269600   5.875   8.368   5.805
22556SOL     OW69601   7.049   8.236   6.282
22556SOL    HW169602   7.046   8.178   6.364
22556SOL    HW269603   7.132   8.291   6.283
22557SOL     OW69604   6.116   8.747   7.297
22557SOL    HW169605   6.093   8.741   7.200
22557SOL    HW269606   6.032   8.746   7.351
22558SOL     OW69607   6.731   9.225   5.803
22558SOL    HW169608   6.640   9.210   5.841
22558SOL    HW269609   6.756   9.147   5.745
22559SOL     OW69610   5.713   7.674   7.089
22559SOL    HW169611   5.624   7.708   7.120
22559SOL    HW269612   5.724   7.578   7.117
22560SOL     OW69613   7.181   8.842   5.668
22560SOL    HW169614   7.148   8.936   5.663
22560SOL    HW269615   7.107   8.779   5.642
22561SOL     OW69616   6.061   9.214   5.901
22561SOL    HW169617   6.102   9.266   5.976
22561SOL    HW269618   6.129   9.152   5.863
22562SOL     OW69619   6.960   7.539   6.047
22562SOL    HW169620   6.948   7.512   5.951
22562SOL    HW269621   7.057   7.533   6.072
22563SOL     OW69622   5.843   9.207   6.802
22563SOL    HW169623   5.907   9.133   6.823
22563SOL    HW269624   5.814   9.200   6.706
22564SOL     OW69625   6.501   9.145   6.459
22564SOL    HW169626   6.589   9.098   6.454
22564SOL    HW269627   6.442   9.114   6.385
22565SOL     OW69628   5.983   8.102   6.142
22565SOL    HW169629   6.016   8.008   6.134
22565SOL    HW269630   5.883   8.101   6.150
22566SOL     OW69631   7.055   7.682   7.327
22566SOL    HW169632   7.045   7.705   7.423
22566SOL    HW269633   6.998   7.604   7.304
22567SOL     OW69634   6.357   7.702   7.285
22567SOL    HW169635   6.441   7.657   7.318
22567SOL    HW269636   6.278   7.656   7.325
22568SOL     OW69637   6.506   8.985   6.861
22568SOL    HW169638   6.537   8.982   6.766
22568SOL    HW269639   6.540   8.904   6.909
22569SOL     OW69640   6.886   8.042   6.996
22569SOL    HW169641   6.920   8.009   7.083
22569SOL    HW269642   6.916   8.137   6.982
22570SOL     OW69643   6.514   7.923   6.469
22570SOL    HW169644   6.469   7.920   6.380
22570SOL    HW269645   6.559   7.836   6.487
22571SOL     OW69646   6.093   7.557   6.067
22571SOL    HW169647   6.022   7.516   6.125
22571SOL    HW269648   6.086   7.656   6.070
22572SOL     OW69649   6.977   8.666   5.616
22572SOL    HW169650   7.030   8.601   5.670
22572SOL    HW269651   6.894   8.692   5.666
22573SOL     OW69652   6.522   7.726   6.034
22573SOL    HW169653   6.481   7.774   5.957
22573SOL    HW269654   6.622   7.737   6.031
22574SOL     OW69655   6.618   8.101   6.990
22574SOL    HW169656   6.555   8.023   6.989
22574SOL    HW269657   6.712   8.069   6.991
22575SOL     OW69658   6.757   9.063   6.399
22575SOL    HW169659   6.794   9.109   6.318
22575SOL    HW269660   6.804   9.097   6.481
22576SOL     OW69661   6.091   8.613   6.345
22576SOL    HW169662   6.039   8.560   6.411
22576SOL    HW269663   6.038   8.624   6.261
22577SOL     OW69664   6.833   9.232   6.189
22577SOL    HW169665   6.885   9.296   6.132
22577SOL    HW269666   6.751   9.277   6.223
22578SOL     OW69667   6.592   7.934   5.638
22578SOL    HW169668   6.565   8.021   5.598
22578SOL    HW269669   6.664   7.948   5.705
22579SOL     OW69670   6.080   7.616   6.813
22579SOL    HW169671   6.117   7.546   6.875
22579SOL    HW269672   5.980   7.616   6.820
22580SOL     OW69673   6.381   7.887   6.230
22580SOL    HW169674   6.353   7.958   6.165
22580SOL    HW269675   6.432   7.816   6.181
22581SOL     OW69676   7.092   8.646   6.390
22581SOL    HW169677   7.026   8.628   6.317
22581SOL    HW269678   7.181   8.667   6.350
22582SOL     OW69679   7.036   8.062   6.498
22582SOL    HW169680   6.967   7.989   6.506
22582SOL    HW269681   7.097   8.058   6.576
22583SOL     OW69682   7.384   8.217   5.995
22583SOL    HW169683   7.459   8.182   6.051
22583SOL    HW269684   7.374   8.159   5.914
22584SOL     OW69685   6.097   8.861   5.723
22584SOL    HW169686   6.029   8.826   5.788
22584SOL    HW269687   6.080   8.822   5.633
22585SOL     OW69688   7.318   8.736   6.248
22585SOL    HW169689   7.418   8.729   6.242
22585SOL    HW269690   7.292   8.832   6.254
22586SOL     OW69691   6.952   8.023   5.635
22586SOL    HW169692   6.908   7.992   5.719
22586SOL    HW269693   7.051   8.016   5.645
22587SOL     OW69694   7.301   8.706   7.105
22587SOL    HW169695   7.378   8.641   7.105
22587SOL    HW269696   7.331   8.793   7.143
22588SOL     OW69697   6.588   8.764   6.999
22588SOL    HW169698   6.580   8.773   7.099
22588SOL    HW269699   6.680   8.732   6.976
22589SOL     OW69700   7.193   9.095   7.263
22589SOL    HW169701   7.168   9.125   7.171
22589SOL    HW269702   7.271   9.032   7.257
22590SOL     OW69703   6.685   8.686   6.699
22590SOL    HW169704   6.596   8.658   6.735
22590SOL    HW269705   6.674   8.728   6.609
22591SOL     OW69706   7.172   8.545   6.650
22591SOL    HW169707   7.161   8.610   6.725
22591SOL    HW269708   7.118   8.577   6.571
22592SOL     OW69709   6.594   7.496   6.937
22592SOL    HW169710   6.615   7.482   6.840
22592SOL    HW269711   6.666   7.551   6.978
22593SOL     OW69712   6.508   8.518   7.301
22593SOL    HW169713   6.415   8.524   7.337
22593SOL    HW269714   6.512   8.445   7.232
22594SOL     OW69715   6.326   8.521   5.981
22594SOL    HW169716   6.307   8.500   6.077
22594SOL    HW269717   6.406   8.470   5.950
22595SOL     OW69718   6.852   7.816   6.855
22595SOL    HW169719   6.872   7.903   6.901
22595SOL    HW269720   6.756   7.814   6.828
22596SOL     OW69721   5.698   8.979   6.915
22596SOL    HW169722   5.679   9.071   6.880
22596SOL    HW269723   5.796   8.963   6.915
22597SOL     OW69724   5.923   8.606   6.119
22597SOL    HW169725   5.929   8.675   6.046
22597SOL    HW269726   5.910   8.516   6.078
22598SOL     OW69727   6.197   7.818   6.440
22598SOL    HW169728   6.247   7.829   6.354
22598SOL    HW269729   6.234   7.880   6.508
22599SOL     OW69730   6.813   8.829   6.008
22599SOL    HW169731   6.882   8.898   6.029
22599SOL    HW269732   6.723   8.862   6.034
22600SOL     OW69733   6.867   8.899   6.725
22600SOL    HW169734   6.916   8.909   6.812
22600SOL    HW269735   6.807   8.820   6.730
22601SOL     OW69736   7.164   8.065   6.093
22601SOL    HW169737   7.097   8.122   6.141
22601SOL    HW269738   7.235   8.123   6.054
22602SOL     OW69739   5.968   8.950   6.872
22602SOL    HW169740   5.959   8.901   6.785
22602SOL    HW269741   6.064   8.974   6.887
22603SOL     OW69742   6.096   8.131   7.205
22603SOL    HW169743   6.060   8.086   7.124
22603SOL    HW269744   6.182   8.087   7.233
22604SOL     OW69745   7.216   8.263   7.255
22604SOL    HW169746   7.124   8.303   7.251
22604SOL    HW269747   7.264   8.281   7.170
22605SOL     OW69748   6.592   7.583   7.357
22605SOL    HW169749   6.642   7.663   7.324
22605SOL    HW269750   6.656   7.507   7.370
22606SOL     OW69751   6.146   7.561   7.394
22606SOL    HW169752   6.136   7.476   7.341
22606SOL    HW269753   6.059   7.610   7.395
22607SOL     OW69754   6.232   8.269   6.563
22607SOL    HW169755   6.193   8.254   6.472
22607SOL    HW269756   6.166   8.318   6.620
22608SOL     OW69757   6.867   8.273   6.597
22608SOL    HW169758   6.776   8.240   6.574
22608SOL    HW269759   6.936   8.209   6.562
22609SOL     OW69760   6.771   7.964   5.846
22609SOL    HW169761   6.791   7.884   5.903
22609SOL    HW269762   6.722   8.032   5.901
22610SOL     OW69763   5.810   7.599   6.845
22610SOL    HW169764   5.782   7.635   6.935
22610SOL    HW269765   5.747   7.526   6.818
22611SOL     OW69766   5.668   8.726   6.804
22611SOL    HW169767   5.691   8.671   6.884
22611SOL    HW269768   5.668   8.823   6.828
22612SOL     OW69769   6.296   7.998   6.619
22612SOL    HW169770   6.387   7.980   6.582
22612SOL    HW269771   6.277   8.096   6.614
22613SOL     OW69772   7.357   8.417   7.433
22613SOL    HW169773   7.306   8.356   7.374
22613SOL    HW269774   7.295   8.462   7.497
22614SOL     OW69775   5.875   7.495   6.227
22614SOL    HW169776   5.855   7.591   6.243
22614SOL    HW269777   5.900   7.451   6.314
22615SOL     OW69778   7.176   7.846   5.923
22615SOL    HW169779   7.238   7.784   5.971
22615SOL    HW269780   7.149   7.920   5.985
22616SOL     OW69781   6.618   8.168   6.530
22616SOL    HW169782   6.585   8.196   6.620
22616SOL    HW269783   6.588   8.075   6.511
22617SOL     OW69784   6.575   9.081   7.319
22617SOL    HW169785   6.571   9.110   7.224
22617SOL    HW269786   6.511   9.005   7.334
22618SOL     OW69787   7.415   8.943   7.184
22618SOL    HW169788   7.445   8.965   7.091
22618SOL    HW269789   7.492   8.949   7.247
22619SOL     OW69790   5.909   8.299   7.323
22619SOL    HW169791   5.924   8.292   7.422
22619SOL    HW269792   5.980   8.247   7.276
22620SOL     OW69793   7.065   7.703   5.708
22620SOL    HW169794   7.015   7.625   5.746
22620SOL    HW269795   7.103   7.758   5.783
22621SOL     OW69796   6.855   8.270   5.590
22621SOL    HW169797   6.887   8.176   5.601
22621SOL    HW269798   6.890   8.307   5.504
22622SOL     OW69799   6.655   8.810   6.466
22622SOL    HW169800   6.652   8.732   6.404
22622SOL    HW269801   6.696   8.889   6.420
22623SOL     OW69802   5.925   8.207   6.500
22623SOL    HW169803   5.992   8.230   6.429
22623SOL    HW269804   5.924   8.108   6.514
22624SOL     OW69805   5.953   7.934   6.488
22624SOL    HW169806   5.903   7.874   6.550
22624SOL    HW269807   6.043   7.895   6.468
22625SOL     OW69808   6.712   7.812   7.267
22625SOL    HW169809   6.662   7.856   7.341
22625SOL    HW269810   6.797   7.862   7.249
22626SOL     OW69811   6.781   7.648   7.059
22626SOL    HW169812   6.744   7.710   7.129
22626SOL    HW269813   6.822   7.702   6.986
22627SOL     OW69814   5.648   8.716   5.787
22627SOL    HW169815   5.561   8.760   5.766
22627SOL    HW269816   5.631   8.628   5.831
22628SOL     OW69817   5.700   9.227   6.557
22628SOL    HW169818   5.654   9.155   6.505
22628SOL    HW269819   5.790   9.246   6.517
22629SOL     OW69820   6.525   8.236   6.771
22629SOL    HW169821   6.568   8.185   6.845
22629SOL    HW269822   6.460   8.302   6.809
22630SOL     OW69823   5.755   7.987   7.359
22630SOL    HW169824   5.822   7.940   7.303
22630SOL    HW269825   5.713   8.061   7.307
22631SOL     OW69826   6.981   8.395   7.203
22631SOL    HW169827   6.998   8.494   7.195
22631SOL    HW269828   6.965   8.357   7.112
22632SOL     OW69829   6.351   8.033   5.992
22632SOL    HW169830   6.362   7.963   5.923
22632SOL    HW269831   6.275   8.093   5.967
22633SOL     OW69832   7.207   8.049   6.707
22633SOL    HW169833   7.173   7.986   6.776
22633SOL    HW269834   7.307   8.046   6.704
22634SOL     OW69835   5.826   8.976   7.295
22634SOL    HW169836   5.804   9.047   7.361
22634SOL    HW269837   5.849   8.891   7.343
22635SOL     OW69838   6.177   7.877   6.837
22635SOL    HW169839   6.150   7.782   6.822
22635SOL    HW269840   6.215   7.916   6.753
22636SOL     OW69841   6.577   9.154   7.058
22636SOL    HW169842   6.543   9.092   6.987
22636SOL    HW269843   6.561   9.249   7.030
22637SOL     OW69844   5.968   7.955   5.868
22637SOL    HW169845   6.032   8.032   5.865
22637SOL    HW269846   5.883   7.981   5.823
22638SOL     OW69847   5.725   8.581   7.035
22638SOL    HW169848   5.738   8.559   7.132
22638SOL    HW269849   5.719   8.496   6.983
22639SOL     OW69850   6.844   8.478   6.778
22639SOL    HW169851   6.856   8.408   6.707
22639SOL    HW269852   6.786   8.551   6.742
22640SOL     OW69853   6.920   8.349   5.844
22640SOL    HW169854   6.846   8.334   5.909
22640SOL    HW269855   6.892   8.318   5.753
22641SOL     OW69856   7.345   9.145   6.749
22641SOL    HW169857   7.416   9.177   6.687
22641SOL    HW269858   7.312   9.056   6.719
22642SOL     OW69859   6.854   9.159   6.640
22642SOL    HW169860   6.944   9.202   6.649
22642SOL    HW269861   6.858   9.067   6.679
22643SOL     OW69862   5.724   8.636   6.553
22643SOL    HW169863   5.697   8.675   6.641
22643SOL    HW269864   5.652   8.575   6.520
22644SOL     OW69865   6.300   9.191   7.395
22644SOL    HW169866   6.225   9.252   7.370
22644SOL    HW269867   6.386   9.226   7.358
22645SOL     OW69868   7.359   7.680   6.037
22645SOL    HW169869   7.413   7.657   5.957
22645SOL    HW269870   7.309   7.599   6.069
22646SOL     OW69871   6.994   9.029   6.074
22646SOL    HW169872   7.056   9.064   6.004
22646SOL    HW269873   6.933   9.103   6.104
22647SOL     OW69874   5.738   9.195   7.442
22647SOL    HW169875   5.685   9.125   7.489
22647SOL    HW269876   5.777   9.259   7.508
22648SOL     OW69877   6.840   8.401   6.228
22648SOL    HW169878   6.916   8.340   6.249
22648SOL    HW269879   6.875   8.485   6.187
22649SOL     OW69880   6.260   9.074   5.767
22649SOL    HW169881   6.274   9.104   5.672
22649SOL    HW269882   6.208   8.989   5.767
22650SOL     OW69883   7.196   9.164   6.982
22650SOL    HW169884   7.255   9.152   6.902
22650SOL    HW269885   7.190   9.261   7.004
22651SOL     OW69886   7.433   7.602   6.582
22651SOL    HW169887   7.465   7.514   6.548
22651SOL    HW269888   7.352   7.630   6.531
22652SOL     OW69889   5.830   7.767   6.276
22652SOL    HW169890   5.737   7.801   6.260
22652SOL    HW269891   5.870   7.818   6.353
22653SOL     OW69892   6.804   9.017   5.641
22653SOL    HW169893   6.798   8.926   5.684
22653SOL    HW269894   6.724   9.032   5.583
22654SOL     OW69895   6.365   8.415   6.916
22654SOL    HW169896   6.400   8.499   6.876
22654SOL    HW269897   6.269   8.426   6.940
22655SOL     OW69898   6.535   8.369   5.910
22655SOL    HW169899   6.564   8.376   5.815
22655SOL    HW269900   6.566   8.282   5.948
22656SOL     OW69901   7.067   9.099   5.647
22656SOL    HW169902   6.972   9.071   5.637
22656SOL    HW269903   7.110   9.104   5.557
22657SOL     OW69904   5.985   8.730   7.052
22657SOL    HW169905   5.984   8.810   6.992
22657SOL    HW269906   5.898   8.682   7.044
22658SOL     OW69907   7.165   8.739   6.863
22658SOL    HW169908   7.220   8.713   6.942
22658SOL    HW269909   7.096   8.806   6.891
22659SOL     OW69910   6.642   8.566   6.342
22659SOL    HW169911   6.571   8.509   6.383
22659SOL    HW269912   6.711   8.508   6.299
22660SOL     OW69913   6.630   7.674   6.499
22660SOL    HW169914   6.600   7.641   6.410
22660SOL    HW269915   6.637   7.598   6.563
22661SOL     OW69916   6.180   8.967   6.091
22661SOL    HW169917   6.222   8.902   6.028
22661SOL    HW269918   6.082   8.945   6.099
22662SOL     OW69919   7.377   7.780   7.026
22662SOL    HW169920   7.432   7.862   7.009
22662SOL    HW269921   7.405   7.707   6.965
22663SOL     OW69922   5.897   8.780   5.898
22663SOL    HW169923   5.807   8.764   5.857
22663SOL    HW269924   5.890   8.848   5.970
22664SOL     OW69925   5.738   8.519   7.304
22664SOL    HW169926   5.649   8.497   7.344
22664SOL    HW269927   5.801   8.443   7.316
22665SOL     OW69928   6.353   7.544   7.049
22665SOL    HW169929   6.443   7.535   7.006
22665SOL    HW269930   6.357   7.613   7.122
22666SOL     OW69931   5.724   7.748   5.555
22666SOL    HW169932   5.628   7.752   5.526
22666SOL    HW269933   5.770   7.833   5.529
22667SOL     OW69934   6.964   8.301   6.949
22667SOL    HW169935   6.902   8.360   6.897
22667SOL    HW269936   7.053   8.300   6.904
22668SOL     OW69937   5.642   7.561   5.835
22668SOL    HW169938   5.580   7.609   5.772
22668SOL    HW269939   5.734   7.559   5.796
22669SOL     OW69940   6.754   8.767   5.743
22669SOL    HW169941   6.655   8.757   5.728
22669SOL    HW269942   6.772   8.775   5.841
22670SOL     OW69943   7.103   9.281   6.659
22670SOL    HW169944   7.134   9.338   6.583
22670SOL    HW269945   7.181   9.232   6.698
22671SOL     OW69946   6.337   7.978   7.247
22671SOL    HW169947   6.396   8.032   7.307
22671SOL    HW269948   6.342   7.882   7.273
22672SOL     OW69949   7.037   8.660   7.178
22672SOL    HW169950   7.022   8.687   7.273
22672SOL    HW269951   7.132   8.679   7.153
22673SOL     OW69952   5.955   9.203   7.185
22673SOL    HW169953   5.866   9.246   7.170
22673SOL    HW269954   5.942   9.106   7.207
22674SOL     OW69955   7.194   8.313   6.803
22674SOL    HW169956   7.200   8.228   6.751
22674SOL    HW269957   7.184   8.390   6.740
22675SOL     OW69958   6.791   7.759   6.036
22675SOL    HW169959   6.854   7.682   6.041
22675SOL    HW269960   6.808   7.821   6.112
22676SOL     OW69961   6.119   8.254   6.317
22676SOL    HW169962   6.178   8.321   6.272
22676SOL    HW269963   6.074   8.197   6.248
22677SOL     OW69964   7.307   7.806   7.289
22677SOL    HW169965   7.334   7.796   7.193
22677SOL    HW269966   7.227   7.749   7.307
22678SOL     OW69967   7.345   8.331   7.026
22678SOL    HW169968   7.397   8.417   7.023
22678SOL    HW269969   7.291   8.322   6.942
22679SOL     OW69970   6.468   8.805   5.692
22679SOL    HW169971   6.417   8.819   5.777
22679SOL    HW269972   6.479   8.892   5.645
22680SOL     OW69973   6.224   9.225   6.497
22680SOL    HW169974   6.213   9.321   6.519
22680SOL    HW269975   6.320   9.199   6.507
22681SOL     OW69976   6.458   8.381   6.447
22681SOL    HW169977   6.532   8.316   6.466
22681SOL    HW269978   6.376   8.354   6.500
22682SOL     OW69979   6.616   8.373   5.655
22682SOL    HW169980   6.595   8.452   5.597
22682SOL    HW269981   6.706   8.337   5.630
22683SOL     OW69982   7.381   9.014   6.445
22683SOL    HW169983   7.310   9.012   6.374
22683SOL    HW269984   7.353   8.958   6.522
22684SOL     OW69985   5.874   8.735   7.422
22684SOL    HW169986   5.820   8.662   7.381
22684SOL    HW269987   5.856   8.739   7.521
22685SOL     OW69988   5.742   8.744   6.283
22685SOL    HW169989   5.745   8.717   6.379
22685SOL    HW269990   5.802   8.685   6.229
22686SOL     OW69991   6.329   8.918   7.374
22686SOL    HW169992   6.255   8.866   7.330
22686SOL    HW269993   6.305   9.015   7.375
22687SOL     OW69994   7.451   7.587   6.856
22687SOL    HW169995   7.519   7.514   6.865
22687SOL    HW269996   7.434   7.604   6.759
22688SOL     OW69997   6.028   7.820   6.092
22688SOL    HW169998   5.999   7.860   6.005
22688SOL    HW269999   5.947   7.802   6.148
22689SOL     OW70000   7.255   8.907   6.664
22689SOL    HW170001   7.173   8.904   6.607
22689SOL    HW270002   7.247   8.839   6.737
22690SOL     OW70003   6.384   9.093   6.219
22690SOL    HW170004   6.385   9.185   6.178
22690SOL    HW270005   6.304   9.043   6.185
22691SOL     OW70006   7.023   7.707   6.679
22691SOL    HW170007   7.044   7.612   6.699
22691SOL    HW270008   6.967   7.745   6.753
22692SOL     OW70009   6.648   7.441   6.662
22692SOL    HW170010   6.583   7.366   6.646
22692SOL    HW270011   6.741   7.406   6.652
22693SOL     OW70012   6.354   8.796   5.946
22693SOL    HW170013   6.344   8.697   5.959
22693SOL    HW270014   6.435   8.828   5.996
22694SOL     OW70015   6.228   9.014   6.906
22694SOL    HW170016   6.208   9.105   6.942
22694SOL    HW270017   6.326   9.006   6.887
22695SOL     OW70018   6.937   7.468   5.785
22695SOL    HW170019   6.992   7.401   5.734
22695SOL    HW270020   6.840   7.452   5.767
22696SOL     OW70021   6.823   7.924   6.244
22696SOL    HW170022   6.783   8.016   6.247
22696SOL    HW270023   6.844   7.894   6.337
22697SOL     OW70024   7.198   7.675   6.470
22697SOL    HW170025   7.135   7.702   6.542
22697SOL    HW270026   7.203   7.747   6.401
22698SOL     OW70027   5.629   8.474   5.932
22698SOL    HW170028   5.728   8.470   5.917
22698SOL    HW270029   5.595   8.383   5.954
22699SOL     OW70030   6.481   9.162   5.904
22699SOL    HW170031   6.402   9.124   5.857
22699SOL    HW270032   6.452   9.228   5.972
22700SOL     OW70033   5.789   8.096   7.608
22700SOL    HW170034   5.700   8.080   7.651
22700SOL    HW270035   5.787   8.060   7.514
22701SOL     OW70036   5.760   7.760   8.423
22701SOL    HW170037   5.815   7.723   8.497
22701SOL    HW270038   5.671   7.713   8.421
22702SOL     OW70039   5.575   7.855   8.051
22702SOL    HW170040   5.496   7.865   8.111
22702SOL    HW270041   5.558   7.783   7.984
22703SOL     OW70042   6.153   8.752   8.694
22703SOL    HW170043   6.067   8.746   8.643
22703SOL    HW270044   6.172   8.847   8.716
22704SOL     OW70045   7.185   8.936   8.149
22704SOL    HW170046   7.131   8.899   8.224
22704SOL    HW270047   7.124   8.959   8.073
22705SOL     OW70048   7.384   8.005   7.651
22705SOL    HW170049   7.342   8.029   7.564
22705SOL    HW270050   7.338   7.926   7.690
22706SOL     OW70051   6.303   8.576   8.533
22706SOL    HW170052   6.244   8.613   8.605
22706SOL    HW270053   6.341   8.651   8.479
22707SOL     OW70054   6.494   8.182   9.270
22707SOL    HW170055   6.523   8.251   9.337
22707SOL    HW270056   6.499   8.221   9.178
22708SOL     OW70057   6.270   8.416   8.098
22708SOL    HW170058   6.338   8.427   8.171
22708SOL    HW270059   6.197   8.483   8.109
22709SOL     OW70060   6.301   8.618   9.289
22709SOL    HW170061   6.360   8.685   9.333
22709SOL    HW270062   6.224   8.665   9.245
22710SOL     OW70063   5.931   8.830   8.545
22710SOL    HW170064   5.857   8.777   8.504
22710SOL    HW270065   5.977   8.883   8.473
22711SOL     OW70066   7.008   8.935   8.832
22711SOL    HW170067   7.066   9.015   8.849
22711SOL    HW270068   6.925   8.942   8.888
22712SOL     OW70069   6.108   7.769   8.843
22712SOL    HW170070   6.175   7.712   8.891
22712SOL    HW270071   6.016   7.746   8.876
22713SOL     OW70072   7.133   7.824   8.228
22713SOL    HW170073   7.048   7.832   8.175
22713SOL    HW270074   7.147   7.908   8.280
22714SOL     OW70075   5.827   9.177   7.940
22714SOL    HW170076   5.839   9.239   8.018
22714SOL    HW270077   5.898   9.196   7.872
22715SOL     OW70078   6.705   8.784   9.159
22715SOL    HW170079   6.784   8.766   9.217
22715SOL    HW270080   6.645   8.704   9.159
22716SOL     OW70081   5.879   8.908   7.931
22716SOL    HW170082   5.853   9.004   7.947
22716SOL    HW270083   5.832   8.849   7.996
22717SOL     OW70084   5.857   8.545   8.283
22717SOL    HW170085   5.860   8.447   8.303
22717SOL    HW270086   5.815   8.594   8.360
22718SOL     OW70087   6.107   9.227   8.883
22718SOL    HW170088   6.031   9.219   8.948
22718SOL    HW270089   6.163   9.307   8.907
22719SOL     OW70090   6.165   8.418   7.658
22719SOL    HW170091   6.195   8.455   7.571
22719SOL    HW270092   6.219   8.457   7.732
22720SOL     OW70093   7.234   7.579   8.939
22720SOL    HW170094   7.282   7.662   8.910
22720SOL    HW270095   7.159   7.603   9.000
22721SOL     OW70096   5.660   8.143   8.001
22721SOL    HW170097   5.636   8.047   8.020
22721SOL    HW270098   5.644   8.198   8.083
22722SOL     OW70099   7.445   9.220   7.765
22722SOL    HW170100   7.522   9.207   7.827
22722SOL    HW270101   7.448   9.312   7.727
22723SOL     OW70102   5.619   9.001   7.577
22723SOL    HW170103   5.601   8.903   7.592
22723SOL    HW270104   5.610   9.050   7.664
22724SOL     OW70105   7.272   8.280   8.085
22724SOL    HW170106   7.346   8.295   8.150
22724SOL    HW270107   7.310   8.265   7.994
22725SOL     OW70108   5.692   8.207   8.987
22725SOL    HW170109   5.731   8.265   8.915
22725SOL    HW270110   5.608   8.249   9.022
22726SOL     OW70111   6.196   8.811   8.180
22726SOL    HW170112   6.155   8.720   8.172
22726SOL    HW270113   6.181   8.861   8.094
22727SOL     OW70114   6.822   8.657   8.865
22727SOL    HW170115   6.845   8.589   8.795
22727SOL    HW270116   6.892   8.656   8.936
22728SOL     OW70117   6.393   7.440   7.939
22728SOL    HW170118   6.447   7.524   7.927
22728SOL    HW270119   6.297   7.464   7.950
22729SOL     OW70120   5.789   8.342   8.769
22729SOL    HW170121   5.884   8.320   8.751
22729SOL    HW270122   5.730   8.295   8.703
22730SOL     OW70123   7.160   8.531   7.599
22730SOL    HW170124   7.076   8.489   7.633
22730SOL    HW270125   7.215   8.564   7.675
22731SOL     OW70126   6.753   9.249   9.058
22731SOL    HW170127   6.772   9.315   8.985
22731SOL    HW270128   6.761   9.156   9.022
22732SOL     OW70129   5.942   7.737   9.349
22732SOL    HW170130   5.991   7.809   9.399
22732SOL    HW270131   5.859   7.775   9.309
22733SOL     OW70132   7.058   8.832   8.367
22733SOL    HW170133   6.995   8.866   8.437
22733SOL    HW270134   7.036   8.736   8.348
22734SOL     OW70135   7.207   9.335   7.966
22734SOL    HW170136   7.199   9.265   7.895
22734SOL    HW270137   7.237   9.292   8.052
22735SOL     OW70138   6.162   8.164   7.777
22735SOL    HW170139   6.171   8.253   7.732
22735SOL    HW270140   6.085   8.167   7.841
22736SOL     OW70141   6.867   7.855   8.420
22736SOL    HW170142   6.776   7.814   8.412
22736SOL    HW270143   6.923   7.799   8.482
22737SOL     OW70144   7.178   9.145   7.768
22737SOL    HW170145   7.276   9.158   7.759
22737SOL    HW270146   7.138   9.133   7.677
22738SOL     OW70147   6.393   8.032   8.924
22738SOL    HW170148   6.362   7.999   9.012
22738SOL    HW270149   6.368   7.966   8.852
22739SOL     OW70150   6.940   7.947   9.113
22739SOL    HW170151   6.948   7.995   9.200
22739SOL    HW270152   6.997   7.865   9.115
22740SOL     OW70153   6.534   8.329   9.035
22740SOL    HW170154   6.588   8.266   8.980
22740SOL    HW270155   6.476   8.385   8.976
22741SOL     OW70156   6.587   7.811   8.663
22741SOL    HW170157   6.492   7.833   8.688
22741SOL    HW270158   6.589   7.775   8.570
22742SOL     OW70159   6.603   8.215   7.916
22742SOL    HW170160   6.682   8.164   7.949
22742SOL    HW270161   6.528   8.151   7.898
22743SOL     OW70162   5.614   8.313   8.221
22743SOL    HW170163   5.705   8.296   8.258
22743SOL    HW270164   5.581   8.402   8.252
22744SOL     OW70165   5.658   9.335   9.033
22744SOL    HW170166   5.651   9.315   9.131
22744SOL    HW270167   5.572   9.310   8.988
22745SOL     OW70168   6.459   7.818   7.689
22745SOL    HW170169   6.512   7.856   7.613
22745SOL    HW270170   6.396   7.749   7.654
22746SOL     OW70171   7.225   8.033   9.294
22746SOL    HW170172   7.221   8.118   9.242
22746SOL    HW270173   7.251   7.957   9.234
22747SOL     OW70174   6.031   7.615   8.343
22747SOL    HW170175   6.108   7.606   8.406
22747SOL    HW270176   6.023   7.711   8.314
22748SOL     OW70177   6.559   8.948   7.911
22748SOL    HW170178   6.538   9.031   7.859
22748SOL    HW270179   6.524   8.956   8.004
22749SOL     OW70180   5.939   9.229   8.373
22749SOL    HW170181   5.981   9.139   8.368
22749SOL    HW270182   6.005   9.295   8.410
22750SOL     OW70183   7.366   8.501   8.347
22750SOL    HW170184   7.368   8.587   8.297
22750SOL    HW270185   7.303   8.508   8.424
22751SOL     OW70186   6.762   8.969   8.959
22751SOL    HW170187   6.751   8.905   9.035
22751SOL    HW270188   6.702   8.942   8.884
22752SOL     OW70189   5.889   8.357   7.679
22752SOL    HW170190   5.987   8.371   7.666
22752SOL    HW270191   5.867   8.260   7.665
22753SOL     OW70192   7.034   8.158   8.123
22753SOL    HW170193   7.021   8.139   8.220
22753SOL    HW270194   7.113   8.219   8.111
22754SOL     OW70195   6.069   8.758   9.191
22754SOL    HW170196   6.042   8.764   9.095
22754SOL    HW270197   5.991   8.731   9.247
22755SOL     OW70198   6.700   9.235   7.655
22755SOL    HW170199   6.616   9.215   7.706
22755SOL    HW270200   6.725   9.156   7.600
22756SOL     OW70201   5.848   7.721   8.914
22756SOL    HW170202   5.793   7.804   8.914
22756SOL    HW270203   5.808   7.654   8.977
22757SOL     OW70204   7.214   8.874   7.506
22757SOL    HW170205   7.179   8.968   7.503
22757SOL    HW270206   7.142   8.811   7.477
22758SOL     OW70207   6.033   9.251   7.775
22758SOL    HW170208   6.073   9.314   7.842
22758SOL    HW270209   6.106   9.199   7.731
22759SOL     OW70210   6.995   7.497   7.896
22759SOL    HW170211   6.994   7.486   7.797
22759SOL    HW270212   7.086   7.475   7.931
22760SOL     OW70213   5.763   9.247   8.675
22760SOL    HW170214   5.819   9.171   8.709
22760SOL    HW270215   5.728   9.225   8.584
22761SOL     OW70216   6.507   9.144   8.316
22761SOL    HW170217   6.601   9.108   8.316
22761SOL    HW270218   6.453   9.095   8.247
22762SOL     OW70219   5.940   8.138   7.942
22762SOL    HW170220   5.959   8.040   7.955
22762SOL    HW270221   5.842   8.153   7.948
22763SOL     OW70222   7.043   7.680   9.121
22763SOL    HW170223   7.042   7.667   9.220
22763SOL    HW270224   6.956   7.648   9.083
22764SOL     OW70225   6.300   7.603   7.614
22764SOL    HW170226   6.369   7.531   7.615
22764SOL    HW270227   6.240   7.592   7.535
22765SOL     OW70228   6.321   7.709   9.244
22765SOL    HW170229   6.414   7.672   9.250
22765SOL    HW270230   6.265   7.673   9.319
22766SOL     OW70231   6.429   8.958   8.626
22766SOL    HW170232   6.408   8.907   8.543
22766SOL    HW270233   6.497   8.908   8.679
22767SOL     OW70234   6.879   8.047   8.868
22767SOL    HW170235   6.905   8.021   8.961
22767SOL    HW270236   6.909   8.141   8.851
22768SOL     OW70237   6.383   8.797   8.395
22768SOL    HW170238   6.476   8.804   8.357
22768SOL    HW270239   6.316   8.799   8.321
22769SOL     OW70240   6.535   7.980   8.337
22769SOL    HW170241   6.514   7.967   8.240
22769SOL    HW270242   6.568   7.894   8.375
22770SOL     OW70243   6.134   7.518   7.960
22770SOL    HW170244   6.048   7.507   8.011
22770SOL    HW270245   6.130   7.602   7.906
22771SOL     OW70246   7.003   8.704   7.448
22771SOL    HW170247   7.054   8.635   7.499
22771SOL    HW270248   6.913   8.717   7.490
22772SOL     OW70249   5.883   7.504   7.610
22772SOL    HW170250   5.916   7.577   7.551
22772SOL    HW270251   5.960   7.459   7.655
22773SOL     OW70252   6.534   7.675   7.919
22773SOL    HW170253   6.507   7.727   7.838
22773SOL    HW270254   6.634   7.674   7.926
22774SOL     OW70255   6.622   8.153   8.846
22774SOL    HW170256   6.547   8.094   8.873
22774SOL    HW270257   6.707   8.100   8.847
22775SOL     OW70258   6.763   9.060   8.270
22775SOL    HW170259   6.796   9.108   8.189
22775SOL    HW270260   6.808   9.097   8.352
22776SOL     OW70261   6.059   8.585   8.109
22776SOL    HW170262   5.988   8.569   8.178
22776SOL    HW270263   6.017   8.581   8.018
22777SOL     OW70264   6.819   9.233   8.057
22777SOL    HW170265   6.868   9.299   7.999
22777SOL    HW270266   6.733   9.274   8.087
22778SOL     OW70267   6.610   7.937   7.486
22778SOL    HW170268   6.580   8.026   7.451
22778SOL    HW270269   6.696   7.949   7.536
22779SOL     OW70270   5.730   7.972   8.857
22779SOL    HW170271   5.822   7.976   8.818
22779SOL    HW270272   5.717   8.050   8.917
22780SOL     OW70273   6.488   7.910   8.078
22780SOL    HW170274   6.447   7.969   8.008
22780SOL    HW270275   6.504   7.819   8.039
22781SOL     OW70276   6.606   7.553   8.180
22781SOL    HW170277   6.562   7.579   8.094
22781SOL    HW270278   6.571   7.464   8.210
22782SOL     OW70279   7.013   8.566   8.323
22782SOL    HW170280   6.959   8.484   8.341
22782SOL    HW270281   7.028   8.575   8.224
22783SOL     OW70282   7.011   8.087   8.387
22783SOL    HW170283   6.949   8.010   8.404
22783SOL    HW270284   7.081   8.090   8.459
22784SOL     OW70285   7.392   8.182   7.855
22784SOL    HW170286   7.470   8.159   7.913
22784SOL    HW270287   7.392   8.123   7.774
22785SOL     OW70288   6.094   8.889   7.629
22785SOL    HW170289   6.002   8.855   7.647
22785SOL    HW270290   6.144   8.822   7.574
22786SOL     OW70291   7.393   8.747   8.225
22786SOL    HW170292   7.471   8.742   8.162
22786SOL    HW270293   7.323   8.807   8.187
22787SOL     OW70294   6.987   8.076   7.456
22787SOL    HW170295   6.940   8.023   7.528
22787SOL    HW270296   7.086   8.065   7.466
22788SOL     OW70297   6.119   7.726   7.786
22788SOL    HW170298   6.187   7.684   7.726
22788SOL    HW270299   6.078   7.805   7.741
22789SOL     OW70300   7.329   8.672   8.979
22789SOL    HW170301   7.420   8.635   8.962
22789SOL    HW270302   7.337   8.761   9.023
22790SOL     OW70303   6.599   8.798   8.788
22790SOL    HW170304   6.514   8.770   8.832
22790SOL    HW270305   6.675   8.744   8.824
22791SOL     OW70306   7.204   9.078   9.134
22791SOL    HW170307   7.176   9.110   9.043
22791SOL    HW270308   7.281   9.015   9.125
22792SOL     OW70309   6.717   8.711   8.551
22792SOL    HW170310   6.655   8.741   8.623
22792SOL    HW270311   6.682   8.740   8.462
22793SOL     OW70312   7.179   8.540   8.546
22793SOL    HW170313   7.171   8.612   8.615
22793SOL    HW270314   7.111   8.555   8.474
22794SOL     OW70315   6.522   7.524   8.906
22794SOL    HW170316   6.518   7.466   8.825
22794SOL    HW270317   6.616   7.554   8.922
22795SOL     OW70318   6.553   8.554   9.190
22795SOL    HW170319   6.457   8.573   9.214
22795SOL    HW270320   6.557   8.473   9.133
22796SOL     OW70321   6.341   8.515   7.850
22796SOL    HW170322   6.319   8.471   7.937
22796SOL    HW270323   6.434   8.490   7.823
22797SOL     OW70324   6.039   8.237   8.728
22797SOL    HW170325   6.106   8.250   8.802
22797SOL    HW270326   6.013   8.141   8.723
22798SOL     OW70327   6.823   7.793   8.786
22798SOL    HW170328   6.850   7.886   8.812
22798SOL    HW270329   6.734   7.796   8.741
22799SOL     OW70330   5.621   8.975   8.802
22799SOL    HW170331   5.561   9.041   8.758
22799SOL    HW270332   5.716   9.001   8.786
22800SOL     OW70333   5.907   8.568   7.872
22800SOL    HW170334   5.898   8.641   7.803
22800SOL    HW270335   5.898   8.479   7.827
22801SOL     OW70336   6.085   8.012   8.342
22801SOL    HW170337   6.094   8.076   8.265
22801SOL    HW270338   6.171   8.010   8.393
22802SOL     OW70339   6.805   8.862   7.814
22802SOL    HW170340   6.878   8.913   7.859
22802SOL    HW270341   6.717   8.888   7.854
22803SOL     OW70342   6.905   8.905   8.582
22803SOL    HW170343   6.944   8.910   8.674
22803SOL    HW270344   6.840   8.828   8.578
22804SOL     OW70345   7.195   8.008   7.947
22804SOL    HW170346   7.135   8.047   8.017
22804SOL    HW270347   7.264   8.075   7.922
22805SOL     OW70348   5.894   9.008   8.746
22805SOL    HW170349   5.902   8.942   8.671
22805SOL    HW270350   5.986   9.038   8.773
22806SOL     OW70351   6.096   8.145   9.124
22806SOL    HW170352   6.132   8.195   9.046
22806SOL    HW270353   6.162   8.076   9.154
22807SOL     OW70354   7.206   8.261   9.153
22807SOL    HW170355   7.112   8.294   9.140
22807SOL    HW270356   7.262   8.289   9.075
22808SOL     OW70357   6.566   7.611   9.291
22808SOL    HW170358   6.623   7.686   9.259
22808SOL    HW270359   6.610   7.524   9.267
22809SOL     OW70360   6.035   7.496   9.248
22809SOL    HW170361   5.984   7.452   9.174
22809SOL    HW270362   5.997   7.586   9.266
22810SOL     OW70363   6.262   8.301   8.572
22810SOL    HW170364   6.270   8.399   8.550
22810SOL    HW270365   6.174   8.284   8.616
22811SOL     OW70366   6.878   8.335   8.405
22811SOL    HW170367   6.782   8.313   8.387
22811SOL    HW270368   6.933   8.251   8.399
22812SOL     OW70369   5.871   7.654   8.646
22812SOL    HW170370   5.869   7.684   8.741
22812SOL    HW270371   5.855   7.555   8.642
22813SOL     OW70372   5.651   8.714   8.725
22813SOL    HW170373   5.679   8.658   8.803
22813SOL    HW270374   5.630   8.806   8.757
22814SOL     OW70375   6.312   8.040   8.490
22814SOL    HW170376   6.394   8.026   8.434
22814SOL    HW270377   6.302   8.138   8.511
22815SOL     OW70378   7.348   8.440   9.311
22815SOL    HW170379   7.298   8.368   9.262
22815SOL    HW270380   7.294   8.472   9.389
22816SOL     OW70381   5.885   7.492   8.075
22816SOL    HW170382   5.853   7.586   8.090
22816SOL    HW270383   5.885   7.442   8.162
22817SOL     OW70384   7.217   7.810   7.770
22817SOL    HW170385   7.265   7.736   7.816
22817SOL    HW270386   7.197   7.883   7.835
22818SOL     OW70387   6.616   8.248   8.387
22818SOL    HW170388   6.592   8.266   8.482
22818SOL    HW270389   6.595   8.153   8.364
22819SOL     OW70390   6.572   9.011   9.241
22819SOL    HW170391   6.539   9.071   9.169
22819SOL    HW270392   6.606   8.926   9.201
22820SOL     OW70393   7.420   8.926   9.052
22820SOL    HW170394   7.440   8.946   8.956
22820SOL    HW270395   7.503   8.940   9.107
22821SOL     OW70396   5.995   8.351   9.275
22821SOL    HW170397   6.063   8.384   9.340
22821SOL    HW270398   6.035   8.276   9.221
22822SOL     OW70399   7.015   7.736   7.602
22822SOL    HW170400   6.995   7.639   7.614
22822SOL    HW270401   7.093   7.762   7.659
22823SOL     OW70402   6.869   8.317   7.436
22823SOL    HW170403   6.908   8.225   7.447
22823SOL    HW270404   6.901   8.357   7.350
22824SOL     OW70405   6.638   8.811   8.306
22824SOL    HW170406   6.639   8.745   8.230
22824SOL    HW270407   6.692   8.891   8.281
22825SOL     OW70408   5.865   8.270   8.320
22825SOL    HW170409   5.947   8.257   8.264
22825SOL    HW270410   5.853   8.191   8.380
22826SOL     OW70411   5.846   8.014   8.454
22826SOL    HW170412   5.801   7.926   8.436
22826SOL    HW270413   5.937   8.014   8.411
22827SOL     OW70414   6.707   7.821   9.183
22827SOL    HW170415   6.661   7.873   9.255
22827SOL    HW270416   6.786   7.874   9.150
22828SOL     OW70417   6.784   7.631   9.003
22828SOL    HW170418   6.742   7.695   9.067
22828SOL    HW270419   6.804   7.678   8.917
22829SOL     OW70420   5.579   8.734   7.634
22829SOL    HW170421   5.488   8.749   7.596
22829SOL    HW270422   5.591   8.637   7.656
22830SOL     OW70423   5.673   9.188   8.423
22830SOL    HW170424   5.644   9.095   8.400
22830SOL    HW270425   5.768   9.202   8.393
22831SOL     OW70426   6.068   8.980   8.362
22831SOL    HW170427   6.140   9.043   8.390
22831SOL    HW270428   6.104   8.917   8.293
22832SOL     OW70429   6.529   8.301   8.637
22832SOL    HW170430   6.564   8.248   8.713
22832SOL    HW270431   6.430   8.287   8.629
22833SOL     OW70432   5.665   8.119   8.630
22833SOL    HW170433   5.727   8.090   8.557
22833SOL    HW270434   5.682   8.065   8.712
22834SOL     OW70435   5.834   8.086   9.186
22834SOL    HW170436   5.931   8.099   9.166
22834SOL    HW270437   5.779   8.139   9.122
22835SOL     OW70438   6.966   8.375   9.085
22835SOL    HW170439   6.986   8.473   9.084
22835SOL    HW270440   6.948   8.343   8.992
22836SOL     OW70441   6.400   8.038   7.850
22836SOL    HW170442   6.415   7.962   7.788
22836SOL    HW270443   6.314   8.084   7.827
22837SOL     OW70444   7.192   8.070   8.594
22837SOL    HW170445   7.148   8.019   8.668
22837SOL    HW270446   7.289   8.047   8.590
22838SOL     OW70447   5.779   8.972   9.190
22838SOL    HW170448   5.742   9.005   9.276
22838SOL    HW270449   5.813   8.878   9.202
22839SOL     OW70450   6.326   7.878   8.711
22839SOL    HW170451   6.242   7.832   8.740
22839SOL    HW270452   6.308   7.931   8.628
22840SOL     OW70453   6.455   9.150   9.006
22840SOL    HW170454   6.420   9.078   8.947
22840SOL    HW270455   6.495   9.223   8.950
22841SOL     OW70456   6.024   7.951   7.672
22841SOL    HW170457   6.087   8.022   7.701
22841SOL    HW270458   5.935   7.991   7.651
22842SOL     OW70459   5.745   8.558   8.935
22842SOL    HW170460   5.758   8.524   9.028
22842SOL    HW270461   5.764   8.485   8.870
22843SOL     OW70462   6.850   8.488   8.636
22843SOL    HW170463   6.867   8.427   8.559
22843SOL    HW270464   6.799   8.568   8.605
22844SOL     OW70465   6.914   8.444   7.673
22844SOL    HW170466   6.829   8.458   7.724
22844SOL    HW270467   6.895   8.396   7.588
22845SOL     OW70468   7.332   9.125   8.628
22845SOL    HW170469   7.398   9.168   8.566
22845SOL    HW270470   7.305   9.035   8.592
22846SOL     OW70471   6.855   9.161   8.510
22846SOL    HW170472   6.942   9.209   8.520
22846SOL    HW270473   6.865   9.067   8.542
22847SOL     OW70474   5.709   8.685   8.467
22847SOL    HW170475   5.688   8.689   8.565
22847SOL    HW270476   5.639   8.633   8.420
22848SOL     OW70477   6.266   9.169   9.201
22848SOL    HW170478   6.192   9.234   9.184
22848SOL    HW270479   6.338   9.182   9.133
22849SOL     OW70480   7.356   7.617   7.904
22849SOL    HW170481   7.413   7.609   7.822
22849SOL    HW270482   7.320   7.527   7.929
22850SOL     OW70483   6.996   9.028   7.949
22850SOL    HW170484   7.058   9.069   7.881
22850SOL    HW270485   6.934   9.098   7.984
22851SOL     OW70486   5.662   9.273   9.294
22851SOL    HW170487   5.637   9.182   9.327
22851SOL    HW270488   5.728   9.314   9.357
22852SOL     OW70489   6.352   8.735   8.888
22852SOL    HW170490   6.332   8.795   8.966
22852SOL    HW270491   6.275   8.737   8.824
22853SOL     OW70492   6.238   9.119   7.650
22853SOL    HW170493   6.263   9.142   7.556
22853SOL    HW270494   6.188   9.032   7.650
22854SOL     OW70495   7.174   9.151   8.864
22854SOL    HW170496   7.235   9.138   8.785
22854SOL    HW270497   7.154   9.248   8.875
22855SOL     OW70498   5.805   7.745   8.149
22855SOL    HW170499   5.725   7.790   8.110
22855SOL    HW270500   5.799   7.748   8.249
22856SOL     OW70501   6.792   9.039   7.481
22856SOL    HW170502   6.784   8.945   7.512
22856SOL    HW270503   6.720   9.060   7.415
22857SOL     OW70504   6.396   8.468   8.850
22857SOL    HW170505   6.446   8.459   8.763
22857SOL    HW270506   6.380   8.565   8.868
22858SOL     OW70507   6.596   8.444   7.780
22858SOL    HW170508   6.599   8.424   7.682
22858SOL    HW270509   6.603   8.359   7.832
22859SOL     OW70510   7.061   9.122   7.503
22859SOL    HW170511   6.967   9.089   7.491
22859SOL    HW270512   7.106   9.126   7.414
22860SOL     OW70513   5.938   8.774   8.954
22860SOL    HW170514   5.922   8.845   8.886
22860SOL    HW270515   5.873   8.699   8.939
22861SOL     OW70516   7.179   8.735   8.746
22861SOL    HW170517   7.239   8.706   8.821
22861SOL    HW270518   7.111   8.799   8.780
22862SOL     OW70519   6.603   8.611   8.123
22862SOL    HW170520   6.550   8.552   8.184
22862SOL    HW270521   6.613   8.567   8.033
22863SOL     OW70522   6.637   7.707   8.406
22863SOL    HW170523   6.622   7.669   8.315
22863SOL    HW270524   6.659   7.633   8.470
22864SOL     OW70525   6.161   8.932   7.942
22864SOL    HW170526   6.213   8.889   7.868
22864SOL    HW270527   6.064   8.928   7.921
22865SOL     OW70528   7.361   7.812   8.861
22865SOL    HW170529   7.440   7.873   8.873
22865SOL    HW270530   7.339   7.804   8.764
22866SOL     OW70531   5.842   8.779   7.698
22866SOL    HW170532   5.745   8.765   7.679
22866SOL    HW270533   5.854   8.835   7.779
22867SOL     OW70534   5.764   8.464   9.189
22867SOL    HW170535   5.685   8.436   9.244
22867SOL    HW270536   5.846   8.417   9.221
22868SOL     OW70537   6.279   7.609   8.987
22868SOL    HW170538   6.370   7.583   8.957
22868SOL    HW270539   6.284   7.648   9.079
22869SOL     OW70540   5.630   7.754   7.436
22869SOL    HW170541   5.556   7.745   7.370
22869SOL    HW270542   5.672   7.845   7.427
22870SOL     OW70543   6.957   8.307   8.819
22870SOL    HW170544   6.900   8.365   8.761
22870SOL    HW270545   7.052   8.312   8.787
22871SOL     OW70546   5.632   7.585   7.660
22871SOL    HW170547   5.610   7.648   7.586
22871SOL    HW270548   5.727   7.557   7.654
22872SOL     OW70549   6.741   8.780   7.558
22872SOL    HW170550   6.644   8.755   7.559
22872SOL    HW270551   6.771   8.797   7.652
22873SOL     OW70552   6.234   8.255   8.913
22873SOL    HW170553   6.284   8.340   8.895
22873SOL    HW270554   6.298   8.179   8.915
22874SOL     OW70555   7.104   9.267   8.540
22874SOL    HW170556   7.137   9.326   8.467
22874SOL    HW270557   7.180   9.215   8.578
22875SOL     OW70558   6.308   7.979   9.179
22875SOL    HW170559   6.372   8.034   9.232
22875SOL    HW270560   6.313   7.884   9.210
22876SOL     OW70561   7.042   8.636   9.074
22876SOL    HW170562   7.032   8.656   9.172
22876SOL    HW270563   7.136   8.653   9.045
22877SOL     OW70564   5.889   9.189   9.054
22877SOL    HW170565   5.807   9.240   9.030
22877SOL    HW270566   5.865   9.103   9.097
22878SOL     OW70567   7.207   8.323   8.707
22878SOL    HW170568   7.209   8.238   8.654
22878SOL    HW270569   7.202   8.401   8.645
22879SOL     OW70570   6.799   7.677   7.954
22879SOL    HW170571   6.875   7.618   7.928
22879SOL    HW270572   6.830   7.742   8.024
22880SOL     OW70573   6.082   8.220   8.159
22880SOL    HW170574   6.159   8.279   8.135
22880SOL    HW270575   6.034   8.192   8.076
22881SOL     OW70576   7.281   7.821   9.131
22881SOL    HW170577   7.314   7.827   9.037
22881SOL    HW270578   7.200   7.763   9.134
22882SOL     OW70579   7.338   8.371   8.942
22882SOL    HW170580   7.327   8.469   8.963
22882SOL    HW270581   7.296   8.351   8.854
22883SOL     OW70582   6.460   8.757   7.548
22883SOL    HW170583   6.422   8.774   7.639
22883SOL    HW270584   6.422   8.823   7.483
22884SOL     OW70585   6.247   9.172   8.410
22884SOL    HW170586   6.219   9.267   8.425
22884SOL    HW270587   6.345   9.168   8.393
22885SOL     OW70588   6.453   8.455   8.301
22885SOL    HW170589   6.516   8.379   8.321
22885SOL    HW270590   6.410   8.485   8.385
22886SOL     OW70591   6.620   8.385   7.513
22886SOL    HW170592   6.582   8.449   7.445
22886SOL    HW270593   6.712   8.358   7.485
22887SOL     OW70594   7.368   9.047   8.326
22887SOL    HW170595   7.312   9.027   8.245
22887SOL    HW270596   7.354   8.976   8.395
22888SOL     OW70597   5.817   8.712   9.282
22888SOL    HW170598   5.801   8.623   9.240
22888SOL    HW270599   5.754   8.726   9.358
22889SOL     OW70600   5.749   8.696   8.065
22889SOL    HW170601   5.773   8.650   8.151
22889SOL    HW270602   5.787   8.644   7.988
22890SOL     OW70603   6.281   8.904   9.094
22890SOL    HW170604   6.202   8.854   9.131
22890SOL    HW270605   6.282   8.996   9.132
22891SOL     OW70606   5.987   7.879   7.989
22891SOL    HW170607   6.036   7.819   7.926
22891SOL    HW270608   5.929   7.824   8.049
22892SOL     OW70609   7.271   8.883   8.528
22892SOL    HW170610   7.197   8.863   8.463
22892SOL    HW270611   7.262   8.822   8.607
22893SOL     OW70612   5.966   7.974   8.722
22893SOL    HW170613   6.025   7.902   8.757
22893SOL    HW270614   5.945   7.957   8.625
22894SOL     OW70615   6.381   9.011   8.119
22894SOL    HW170616   6.325   9.047   8.045
22894SOL    HW270617   6.336   8.931   8.159
22895SOL     OW70618   6.968   7.658   8.597
22895SOL    HW170619   6.963   7.560   8.614
22895SOL    HW270620   6.921   7.707   8.670
22896SOL     OW70621   6.687   7.496   8.568
22896SOL    HW170622   6.613   7.443   8.610
22896SOL    HW270623   6.774   7.452   8.586
22897SOL     OW70624   6.359   8.786   7.799
22897SOL    HW170625   6.351   8.690   7.825
22897SOL    HW270626   6.438   8.827   7.846
22898SOL     OW70627   6.189   9.013   8.745
22898SOL    HW170628   6.174   9.099   8.794
22898SOL    HW270629   6.276   9.017   8.697
22899SOL     OW70630   6.975   7.466   7.624
22899SOL    HW170631   7.030   7.409   7.564
22899SOL    HW270632   6.885   7.424   7.636
22900SOL     OW70633   6.879   7.866   8.133
22900SOL    HW170634   6.848   7.946   8.082
22900SOL    HW270635   6.854   7.876   8.230
22901SOL     OW70636   7.043   7.584   8.342
22901SOL    HW170637   7.016   7.614   8.433
22901SOL    HW270638   7.079   7.661   8.290
22902SOL     OW70639   5.638   8.476   7.700
22902SOL    HW170640   5.729   8.438   7.683
22902SOL    HW270641   5.579   8.406   7.739
22903SOL     OW70642   6.463   9.178   7.795
22903SOL    HW170643   6.381   9.151   7.745
22903SOL    HW270644   6.442   9.256   7.854
22904SOL     OW70645   5.818   8.131   9.469
22904SOL    HW170646   5.750   8.060   9.487
22904SOL    HW270647   5.829   8.143   9.370
22905SOL     OW70648   7.374   8.038   9.517
22905SOL    HW170649   7.324   8.041   9.430
22905SOL    HW270650   7.338   7.964   9.573
22906SOL     OW70651   5.804   9.188   9.769
22906SOL    HW170652   5.807   9.269   9.827
22906SOL    HW270653   5.875   9.194   9.699
22907SOL     OW70654   5.900   8.938   9.813
22907SOL    HW170655   5.859   9.030   9.810
22907SOL    HW270656   5.843   8.879   9.870
22908SOL     OW70657   6.178   8.445   9.467
22908SOL    HW170658   6.224   8.498   9.395
22908SOL    HW270659   6.218   8.467   9.556
22909SOL     OW70660   5.746   8.171   9.870
22909SOL    HW170661   5.698   8.192   9.785
22909SOL    HW270662   5.716   8.234   9.942
22910SOL     OW70663   7.412   9.201   9.679
22910SOL    HW170664   7.500   9.190   9.726
22910SOL    HW270665   7.418   9.279   9.616
22911SOL     OW70666   5.646   9.026   9.424
22911SOL    HW170667   5.631   8.928   9.437
22911SOL    HW270668   5.612   9.076   9.503
22912SOL     OW70669   7.193   8.347   9.922
22912SOL    HW170670   7.271   8.343   9.985
22912SOL    HW270671   7.208   8.420   9.856
22913SOL     OW70672   7.329   8.540   9.757
22913SOL    HW170673   7.400   8.527   9.688
22913SOL    HW270674   7.371   8.565   9.844
22914SOL     OW70675   6.203   8.782   0.001
22914SOL    HW170676   6.148   8.699  10.000
22914SOL    HW270677   6.191   8.832   9.916
22915SOL     OW70678   7.175   8.517   9.521
22915SOL    HW170679   7.094   8.466   9.550
22915SOL    HW270680   7.228   8.543   9.602
22916SOL     OW70681   6.198   8.146   9.603
22916SOL    HW170682   6.223   8.232   9.559
22916SOL    HW270683   6.132   8.164   9.676
22917SOL     OW70684   7.148   9.093   9.664
22917SOL    HW170685   7.243   9.121   9.677
22917SOL    HW270686   7.130   9.082   9.567
22918SOL     OW70687   6.621   8.109   9.755
22918SOL    HW170688   6.662   8.071   9.838
22918SOL    HW270689   6.533   8.064   9.738
22919SOL     OW70690   5.644   8.331   0.065
22919SOL    HW170691   5.640   8.286   0.154
22919SOL    HW270692   5.646   8.430   0.077
22920SOL     OW70693   6.466   7.769   9.526
22920SOL    HW170694   6.514   7.842   9.477
22920SOL    HW270695   6.462   7.688   9.468
22921SOL     OW70696   6.871   8.567   9.837
22921SOL    HW170697   6.940   8.581   9.908
22921SOL    HW270698   6.844   8.656   9.800
22922SOL     OW70699   6.543   8.900   9.830
22922SOL    HW170700   6.499   8.981   9.791
22922SOL    HW270701   6.518   8.892   9.927
22923SOL     OW70702   5.892   9.435   0.179
22923SOL    HW170703   5.939   9.351   0.205
22923SOL    HW270704   5.946   9.514   0.209
22924SOL     OW70705   5.929   8.388   9.585
22924SOL    HW170706   6.014   8.412   9.538
22924SOL    HW270707   5.897   8.300   9.552
22925SOL     OW70708   6.761   9.225   9.560
22925SOL    HW170709   6.663   9.229   9.583
22925SOL    HW270710   6.777   9.147   9.500
22926SOL     OW70711   7.224   8.837   9.400
22926SOL    HW170712   7.191   8.931   9.396
22926SOL    HW270713   7.150   8.774   9.377
22927SOL     OW70714   6.028   9.224   9.612
22927SOL    HW170715   6.072   9.266   9.691
22927SOL    HW270716   6.096   9.175   9.558
22928SOL     OW70717   7.032   7.615   9.726
22928SOL    HW170718   7.011   7.545   9.657
22928SOL    HW270719   7.130   7.611   9.749
22929SOL     OW70720   6.015   8.161   9.810
22929SOL    HW170721   6.045   8.069   9.834
22929SOL    HW270722   5.917   8.169   9.825
22930SOL     OW70723   6.206   7.556   9.452
22930SOL    HW170724   6.243   7.470   9.486
22930SOL    HW270725   6.138   7.537   9.381
22931SOL     OW70726   6.063   7.556   9.861
22931SOL    HW170727   5.967   7.564   9.887
22931SOL    HW270728   6.085   7.622   9.790
22932SOL     OW70729   7.011   8.668   9.350
22932SOL    HW170730   7.065   8.604   9.406
22932SOL    HW270731   6.926   8.690   9.397
22933SOL     OW70732   5.828   7.538   9.496
22933SOL    HW170733   5.875   7.614   9.450
22933SOL    HW270734   5.895   7.486   9.550
22934SOL     OW70735   6.577   7.671   9.757
22934SOL    HW170736   6.527   7.699   9.675
22934SOL    HW270737   6.669   7.711   9.755
22935SOL     OW70738   6.004   8.597   0.057
22935SOL    HW170739   5.933   8.647   0.107
22935SOL    HW270740   5.974   8.581   9.963
22936SOL     OW70741   6.841   9.294   9.889
22936SOL    HW170742   6.907   9.348   9.836
22936SOL    HW270743   6.750   9.306   9.850
22937SOL     OW70744   6.600   7.961   9.387
22937SOL    HW170745   6.565   8.046   9.349
22937SOL    HW270746   6.674   7.981   9.451
22938SOL     OW70747   6.443   7.831   9.941
22938SOL    HW170748   6.399   7.896   9.879
22938SOL    HW270749   6.484   7.756   9.888
22939SOL     OW70750   7.486   8.257   9.632
22939SOL    HW170751   7.502   8.222   9.724
22939SOL    HW270752   7.446   8.185   9.575
22940SOL     OW70753   6.110   8.880   9.450
22940SOL    HW170754   6.036   8.839   9.503
22940SOL    HW270755   6.106   8.846   9.355
22941SOL     OW70756   6.956   8.053   9.363
22941SOL    HW170757   6.912   8.026   9.448
22941SOL    HW270758   7.055   8.042   9.371
22942SOL     OW70759   6.113   7.726   9.655
22942SOL    HW170760   6.158   7.668   9.587
22942SOL    HW270761   6.076   7.808   9.611
22943SOL     OW70762   6.299   8.497   9.704
22943SOL    HW170763   6.248   8.459   9.781
22943SOL    HW270764   6.383   8.445   9.692
22944SOL     OW70765   5.924   8.586   9.792
22944SOL    HW170766   5.931   8.653   9.717
22944SOL    HW270767   5.937   8.494   9.755
22945SOL     OW70768   6.790   8.819   9.741
22945SOL    HW170769   6.853   8.893   9.767
22945SOL    HW270770   6.698   8.841   9.773
22946SOL     OW70771   7.229   8.114   9.785
22946SOL    HW170772   7.197   8.192   9.837
22946SOL    HW270773   7.225   8.135   9.687
22947SOL     OW70774   6.795   7.993   9.578
22947SOL    HW170775   6.815   7.909   9.629
22947SOL    HW270776   6.744   8.056   9.635
22948SOL     OW70777   5.800   7.546   9.952
22948SOL    HW170778   5.725   7.606   9.976
22948SOL    HW270779   5.827   7.492   0.032
22949SOL     OW70780   7.248   7.858   9.672
22949SOL    HW170781   7.263   7.770   9.718
22949SOL    HW270782   7.222   7.927   9.739
22950SOL     OW70783   7.049   7.664   9.389
22950SOL    HW170784   7.013   7.582   9.434
22950SOL    HW270785   7.084   7.727   9.458
22951SOL     OW70786   6.861   8.306   9.331
22951SOL    HW170787   6.896   8.213   9.346
22951SOL    HW270788   6.893   8.340   9.243
22952SOL     OW70789   5.645   8.742   9.489
22952SOL    HW170790   5.551   8.765   9.465
22952SOL    HW270791   5.647   8.652   9.533
22953SOL     OW70792   6.389   7.973   9.705
22953SOL    HW170793   6.399   7.898   9.640
22953SOL    HW270794   6.318   8.036   9.672
22954SOL     OW70795   6.031   7.949   9.509
22954SOL    HW170796   6.109   8.007   9.532
22954SOL    HW270797   5.948   8.004   9.503
22955SOL     OW70798   6.951   8.408   9.617
22955SOL    HW170799   6.911   8.452   9.697
22955SOL    HW270800   6.878   8.375   9.557
22956SOL     OW70801   7.321   7.600   9.750
22956SOL    HW170802   7.376   7.614   9.668
22956SOL    HW270803   7.325   7.504   9.777
22957SOL     OW70804   6.940   9.040   9.836
22957SOL    HW170805   7.015   9.050   9.771
22957SOL    HW270806   6.899   9.129   9.854
22958SOL     OW70807   6.249   9.112   9.466
22958SOL    HW170808   6.269   9.131   9.370
22958SOL    HW270809   6.203   9.023   9.472
22959SOL     OW70810   6.811   9.020   9.385
22959SOL    HW170811   6.806   8.926   9.418
22959SOL    HW270812   6.734   9.037   9.324
22960SOL     OW70813   6.515   8.347   9.654
22960SOL    HW170814   6.557   8.365   9.565
22960SOL    HW270815   6.561   8.270   9.697
22961SOL     OW70816   7.084   9.084   9.382
22961SOL    HW170817   6.988   9.060   9.372
22961SOL    HW270818   7.126   9.090   9.291
22962SOL     OW70819   6.174   8.933   9.777
22962SOL    HW170820   6.202   8.873   9.702
22962SOL    HW270821   6.074   8.939   9.779
22963SOL     OW70822   5.900   8.782   9.596
22963SOL    HW170823   5.810   8.773   9.555
22963SOL    HW270824   5.896   8.849   9.670
22964SOL     OW70825   5.715   7.853   9.258
22964SOL    HW170826   5.653   7.817   9.188
22964SOL    HW270827   5.755   7.939   9.226
22965SOL     OW70828   5.567   7.589   9.553
22965SOL    HW170829   5.534   7.640   9.474
22965SOL    HW270830   5.665   7.572   9.544
22966SOL     OW70831   6.771   8.761   9.468
22966SOL    HW170832   6.674   8.745   9.445
22966SOL    HW270833   6.781   8.768   9.567
22967SOL     OW70834   6.822   7.787   9.757
22967SOL    HW170835   6.903   7.729   9.757
22967SOL    HW270836   6.817   7.837   9.843
22968SOL     OW70837   6.161   8.371   9.900
22968SOL    HW170838   6.169   8.366   9.999
22968SOL    HW270839   6.107   8.294   9.867
22969SOL     OW70840   6.483   8.790   9.411
22969SOL    HW170841   6.437   8.792   9.500
22969SOL    HW270842   6.489   8.883   9.375
22970SOL     OW70843   6.619   8.390   9.406
22970SOL    HW170844   6.594   8.466   9.345
22970SOL    HW270845   6.711   8.358   9.382
22971SOL     OW70846   5.747   8.744   9.931
22971SOL    HW170847   5.691   8.692   9.996
22971SOL    HW270848   5.801   8.680   9.875
22972SOL     OW70849   6.089   7.913   9.871
22972SOL    HW170850   6.109   7.835   9.813
22972SOL    HW270851   6.063   7.882   9.963
22973SOL     OW70852   6.369   8.759   9.657
22973SOL    HW170853   6.343   8.664   9.674
22973SOL    HW270854   6.435   8.788   9.726
22974SOL     OW70855   6.978   7.433   9.524
22974SOL    HW170856   7.032   7.369   9.469
22974SOL    HW270857   6.899   7.386   9.561
22975SOL     OW70858   5.680   8.502   9.616
22975SOL    HW170859   5.778   8.488   9.604
22975SOL    HW270860   5.633   8.414   9.618
22976SOL     OW70861   6.381   9.106   9.717
22976SOL    HW170862   6.358   9.112   9.620
22976SOL    HW270863   6.309   9.057   9.766
22977SOL     OW70864   5.755   9.630   1.010
22977SOL    HW170865   5.818   9.600   1.082
22977SOL    HW270866   5.674   9.571   1.010
22978SOL     OW70867   5.544   9.691   0.620
22978SOL    HW170868   5.460   9.698   0.674
22978SOL    HW270869   5.527   9.632   0.541
22979SOL     OW70870   7.316   9.896   0.176
22979SOL    HW170871   7.347   9.865   0.086
22979SOL    HW270872   7.264   9.823   0.220
22980SOL     OW70873   6.040   9.653   1.638
22980SOL    HW170874   6.129   9.627   1.600
22980SOL    HW270875   5.967   9.607   1.588
22981SOL     OW70876   7.207   9.713   0.746
22981SOL    HW170877   7.190   9.758   0.659
22981SOL    HW270878   7.165   9.766   0.820
22982SOL     OW70879   7.325   9.387   1.516
22982SOL    HW170880   7.344   9.437   1.432
22982SOL    HW270881   7.273   9.446   1.579
22983SOL     OW70882   5.586   9.961   0.585
22983SOL    HW170883   5.581   9.862   0.599
22983SOL    HW270884   5.682   9.990   0.590
22984SOL     OW70885   6.412   9.366   0.507
22984SOL    HW170886   6.459   9.449   0.477
22984SOL    HW270887   6.313   9.382   0.506
22985SOL     OW70888   5.942   9.604   1.897
22985SOL    HW170889   6.006   9.621   1.822
22985SOL    HW270890   5.860   9.659   1.883
22986SOL     OW70891   6.862   9.677   0.920
22986SOL    HW170892   6.774   9.631   0.906
22986SOL    HW270893   6.913   9.629   0.992
22987SOL     OW70894   6.479   9.792   1.406
22987SOL    HW170895   6.448   9.771   1.499
22987SOL    HW270896   6.408   9.763   1.341
22988SOL     OW70897   7.065   9.776   1.670
22988SOL    HW170898   7.130   9.846   1.698
22988SOL    HW270899   7.108   9.686   1.678
22989SOL     OW70900   6.637   9.795   1.184
22989SOL    HW170901   6.580   9.791   1.266
22989SOL    HW270902   6.587   9.756   1.107
22990SOL     OW70903   6.507   9.623   0.172
22990SOL    HW170904   6.572   9.682   0.124
22990SOL    HW270905   6.505   9.533   0.128
22991SOL     OW70906   7.295   9.929   1.731
22991SOL    HW170907   7.340   0.015   1.707
22991SOL    HW270908   7.353   9.852   1.702
22992SOL     OW70909   6.114   9.453   0.962
22992SOL    HW170910   6.136   9.458   1.059
22992SOL    HW270911   6.104   9.545   0.925
22993SOL     OW70912   7.050   0.024   0.723
22993SOL    HW170913   7.056   9.965   0.804
22993SOL    HW270914   7.091   0.113   0.745
22994SOL     OW70915   5.822   9.544   1.512
22994SOL    HW170916   5.747   9.610   1.509
22994SOL    HW270917   5.786   9.455   1.541
22995SOL     OW70918   6.944   9.424   0.419
22995SOL    HW170919   6.921   9.394   0.326
22995SOL    HW270920   7.042   9.411   0.435
22996SOL     OW70921   7.178   9.525   1.711
22996SOL    HW170922   7.196   9.526   1.809
22996SOL    HW270923   7.097   9.470   1.692
22997SOL     OW70924   6.228   9.432   0.076
22997SOL    HW170925   6.323   9.403   0.083
22997SOL    HW270926   6.190   9.404   9.988
22998SOL     OW70927   6.406   9.517   1.813
22998SOL    HW170928   6.498   9.477   1.808
22998SOL    HW270929   6.347   9.458   1.868
22999SOL     OW70930   6.914   9.901   1.478
22999SOL    HW170931   6.968   9.856   1.550
22999SOL    HW270932   6.959   9.987   1.453
23000SOL     OW70933   6.487   9.748   0.870
23000SOL    HW170934   6.464   9.756   0.773
23000SOL    HW270935   6.537   9.663   0.885
23001SOL     OW70936   6.136   9.411   0.481
23001SOL    HW170937   6.058   9.409   0.544
23001SOL    HW270938   6.127   9.490   0.420
23002SOL     OW70939   6.559   9.587   0.435
23002SOL    HW170940   6.534   9.597   0.339
23002SOL    HW270941   6.655   9.613   0.448
23003SOL     OW70942   6.649   9.981   1.511
23003SOL    HW170943   6.589   9.910   1.474
23003SOL    HW270944   6.745   9.953   1.501
23004SOL     OW70945   6.677   9.810   0.064
23004SOL    HW170946   6.655   9.874   9.991
23004SOL    HW270947   6.707   9.860   0.145
23005SOL     OW70948   5.744   9.925   1.410
23005SOL    HW170949   5.811   9.915   1.483
23005SOL    HW270950   5.710   0.019   1.409
23006SOL     OW70951   6.152   9.486   1.232
23006SOL    HW170952   6.166   9.408   1.293
23006SOL    HW270953   6.056   9.513   1.235
23007SOL     OW70954   6.438   9.772   0.602
23007SOL    HW170955   6.359   9.805   0.549
23007SOL    HW270956   6.488   9.704   0.548
23008SOL     OW70957   6.596   9.331   0.706
23008SOL    HW170958   6.531   9.349   0.632
23008SOL    HW270959   6.559   9.261   0.767
23009SOL     OW70960   7.073   9.857   0.937
23009SOL    HW170961   6.989   9.804   0.947
23009SOL    HW270962   7.118   9.865   1.026
23010SOL     OW70963   6.122   9.593   0.268
23010SOL    HW170964   6.157   9.532   0.197
23010SOL    HW270965   6.192   9.661   0.290
23011SOL     OW70966   6.571   9.351   1.377
23011SOL    HW170967   6.577   9.350   1.278
23011SOL    HW270968   6.644   9.408   1.414
23012SOL     OW70969   6.861   9.696   1.305
23012SOL    HW170970   6.889   9.769   1.367
23012SOL    HW270971   6.782   9.727   1.251
23013SOL     OW70972   7.205   9.890   0.535
23013SOL    HW170973   7.146   9.951   0.587
23013SOL    HW270974   7.298   9.928   0.530
23014SOL     OW70975   6.656   9.422   1.779
23014SOL    HW170976   6.716   9.501   1.772
23014SOL    HW270977   6.702   9.341   1.742
23015SOL     OW70978   6.047   9.357   1.761
23015SOL    HW170979   6.015   9.289   1.695
23015SOL    HW270980   5.973   9.421   1.782
23016SOL     OW70981   6.797   9.913   0.300
23016SOL    HW170982   6.802   9.823   0.344
23016SOL    HW270983   6.826   9.983   0.366
23017SOL     OW70984   5.885   9.530   1.242
23017SOL    HW170985   5.868   9.553   1.338
23017SOL    HW270986   5.852   9.438   1.224
23018SOL     OW70987   6.368   9.971   0.970
23018SOL    HW170988   6.401   9.881   0.944
23018SOL    HW270989   6.376   0.033   0.892
23019SOL     OW70990   5.885   9.378   0.622
23019SOL    HW170991   5.842   9.466   0.643
23019SOL    HW270992   5.899   9.328   0.708
23020SOL     OW70993   7.191   9.702   0.333
23020SOL    HW170994   7.265   9.641   0.363
23020SOL    HW270995   7.178   9.773   0.402
23021SOL     OW70996   7.040   9.586   0.133
23021SOL    HW170997   6.987   9.505   0.159
23021SOL    HW270998   7.090   9.621   0.212
23022SOL     OW70999   5.779   0.095   0.905
23022SOL    HW171000   5.835   0.178   0.907
23022SOL    HW271001   5.810   0.033   0.979
23023SOL     OW71002   6.822   9.640   1.721
23023SOL    HW171003   6.767   9.687   1.791
23023SOL    HW271004   6.904   9.693   1.702
23024SOL     OW71005   6.786   9.495   1.482
23024SOL    HW171006   6.786   9.542   1.570
23024SOL    HW271007   6.815   9.559   1.410
23025SOL     OW71008   5.629   9.819   1.174
23025SOL    HW171009   5.679   9.765   1.106
23025SOL    HW271010   5.695   9.862   1.236
23026SOL     OW71011   5.919   9.899   1.624
23026SOL    HW171012   5.970   9.814   1.630
23026SOL    HW271013   5.979   9.976   1.648
23027SOL     OW71014   6.320   9.772   0.305
23027SOL    HW171015   6.388   9.719   0.254
23027SOL    HW271016   6.342   9.869   0.297
23028SOL     OW71017   7.231   9.872   1.166
23028SOL    HW171018   7.239   9.813   1.246
23028SOL    HW271019   7.319   9.873   1.117
23029SOL     OW71020   6.314   9.708   1.207
23029SOL    HW171021   6.262   9.624   1.218
23029SOL    HW271022   6.293   9.749   1.118
23030SOL     OW71023   6.500   9.369   0.064
23030SOL    HW171024   6.509   9.347   9.967
23030SOL    HW271025   6.554   9.303   0.118
23031SOL     OW71026   7.387   9.532   0.420
23031SOL    HW171027   7.440   9.501   0.341
23031SOL    HW271028   7.322   9.460   0.446
23032SOL     OW71029   7.430   9.456   1.006
23032SOL    HW171030   7.468   9.369   0.976
23032SOL    HW271031   7.340   9.469   0.963
23033SOL     OW71032   5.783   9.616   0.727
23033SOL    HW171033   5.695   9.646   0.690
23033SOL    HW271034   5.782   9.626   0.826
23034SOL     OW71035   6.635   9.518   0.906
23034SOL    HW171036   6.628   9.464   0.823
23034SOL    HW271037   6.628   9.458   0.986
23035SOL     OW71038   7.361   9.720   1.381
23035SOL    HW171039   7.427   9.793   1.361
23035SOL    HW271040   7.392   9.635   1.337
23036SOL     OW71041   6.365   9.349   1.578
23036SOL    HW171042   6.438   9.354   1.510
23036SOL    HW271043   6.379   9.420   1.647
23037SOL     OW71044   5.477   9.570   0.023
23037SOL    HW171045   5.384   9.576   0.059
23037SOL    HW271046   5.508   9.661   9.996
23038SOL     OW71047   5.613   9.415   0.207
23038SOL    HW171048   5.569   9.467   0.134
23038SOL    HW271049   5.712   9.424   0.200
23039SOL     OW71050   6.411   9.752   1.665
23039SOL    HW171051   6.451   9.828   1.716
23039SOL    HW271052   6.408   9.671   1.723
23040SOL     OW71053   6.818   9.671   0.444
23040SOL    HW171054   6.869   9.586   0.434
23040SOL    HW271055   6.845   9.717   0.529
23041SOL     OW71056   7.412   9.695   1.646
23041SOL    HW171057   7.389   9.705   1.549
23041SOL    HW271058   7.351   9.629   1.688
23042SOL     OW71059   6.803   0.262   0.018
23042SOL    HW171060   6.705   0.239   0.015
23042SOL    HW271061   6.855   0.182   0.047
23043SOL     OW71062   7.431   9.479   1.277
23043SOL    HW171063   7.500   9.408   1.291
23043SOL    HW271064   7.409   9.486   1.180
23044SOL     OW71065   6.026   9.694   0.634
23044SOL    HW171066   6.025   9.739   0.545
23044SOL    HW271067   5.934   9.666   0.659
23045SOL     OW71068   7.005   9.559   1.117
23045SOL    HW171069   7.018   9.462   1.140
23045SOL    HW271070   6.962   9.606   1.194
23046SOL     OW71071   6.618   9.305   1.091
23046SOL    HW171072   6.552   9.249   1.040
23046SOL    HW271073   6.708   9.261   1.087
23047SOL     OW71074   6.871   9.350   0.165
23047SOL    HW171075   6.881   9.337   0.066
23047SOL    HW271076   6.790   9.300   0.197
23048SOL     OW71077   6.888   9.796   0.671
23048SOL    HW171078   6.933   9.884   0.685
23048SOL    HW271079   6.875   9.751   0.760
23049SOL     OW71080   7.180   9.498   0.912
23049SOL    HW171081   7.117   9.535   0.981
23049SOL    HW271082   7.188   9.563   0.836
23050SOL     OW71083   5.766   9.624   2.941
23050SOL    HW171084   5.823   9.588   3.014
23050SOL    HW271085   5.696   9.557   2.916
23051SOL     OW71086   5.573   9.680   2.476
23051SOL    HW171087   5.510   9.699   2.552
23051SOL    HW271088   5.540   9.600   2.425
23052SOL     OW71089   7.182   9.908   1.977
23052SOL    HW171090   7.236   9.914   1.893
23052SOL    HW271091   7.219   9.835   2.036
23053SOL     OW71092   5.967   9.705   3.398
23053SOL    HW171093   6.059   9.670   3.381
23053SOL    HW271094   5.902   9.629   3.402
23054SOL     OW71095   7.146   9.758   2.582
23054SOL    HW171096   7.157   9.799   2.492
23054SOL    HW271097   7.137   9.831   2.651
23055SOL     OW71098   7.295   9.391   3.387
23055SOL    HW171099   7.322   9.444   3.307
23055SOL    HW271100   7.247   9.450   3.452
23056SOL     OW71101   5.625   9.932   2.376
23056SOL    HW171102   5.612   9.838   2.407
23056SOL    HW271103   5.723   9.951   2.368
23057SOL     OW71104   6.414   9.350   2.368
23057SOL    HW171105   6.462   9.407   2.302
23057SOL    HW271106   6.315   9.365   2.360
23058SOL     OW71107   5.952   9.567   3.712
23058SOL    HW171108   6.007   9.651   3.706
23058SOL    HW271109   5.855   9.591   3.713
23059SOL     OW71110   6.405   9.857   3.271
23059SOL    HW171111   6.387   9.825   3.364
23059SOL    HW271112   6.319   9.859   3.220
23060SOL     OW71113   6.977   9.761   3.541
23060SOL    HW171114   7.020   9.833   3.595
23060SOL    HW271115   7.033   9.679   3.544
23061SOL     OW71116   6.588   9.797   3.084
23061SOL    HW171117   6.521   9.816   3.156
23061SOL    HW271118   6.569   9.707   3.043
23062SOL     OW71119   6.650   0.049   2.273
23062SOL    HW171120   6.702   0.128   2.307
23062SOL    HW271121   6.560   0.047   2.317
23063SOL     OW71122   6.457   9.687   2.033
23063SOL    HW171123   6.542   9.723   1.994
23063SOL    HW271124   6.410   9.631   1.964
23064SOL     OW71125   7.144   9.938   3.677
23064SOL    HW171126   7.141   0.033   3.647
23064SOL    HW271127   7.210   9.887   3.621
23065SOL     OW71128   6.145   9.453   2.852
23065SOL    HW171129   6.153   9.479   2.948
23065SOL    HW271130   6.151   9.534   2.794
23066SOL     OW71131   7.112   9.967   2.741
23066SOL    HW171132   7.062   9.958   2.827
23066SOL    HW271133   7.149   0.060   2.734
23067SOL     OW71134   5.777   9.505   3.395
23067SOL    HW171135   5.704   9.570   3.372
23067SOL    HW271136   5.738   9.427   3.444
23068SOL     OW71137   6.974   9.418   2.304
23068SOL    HW171138   6.981   9.396   2.207
23068SOL    HW271139   7.061   9.399   2.349
23069SOL     OW71140   7.137   9.532   3.578
23069SOL    HW171141   7.164   9.536   3.675
23069SOL    HW271142   7.068   9.461   3.566
23070SOL     OW71143   6.226   9.376   1.961
23070SOL    HW171144   6.234   9.284   1.998
23070SOL    HW271145   6.161   9.376   1.885
23071SOL     OW71146   6.355   9.506   3.599
23071SOL    HW171147   6.447   9.468   3.601
23071SOL    HW271148   6.303   9.472   3.677
23072SOL     OW71149   6.881   9.937   3.347
23072SOL    HW171150   6.914   9.867   3.410
23072SOL    HW271151   6.954   0.003   3.328
23073SOL     OW71152   6.461   9.808   2.686
23073SOL    HW171153   6.413   9.789   2.600
23073SOL    HW271154   6.503   9.724   2.721
23074SOL     OW71155   6.136   9.381   2.343
23074SOL    HW171156   6.068   9.378   2.417
23074SOL    HW271157   6.118   9.461   2.286
23075SOL     OW71158   5.819   9.385   2.010
23075SOL    HW171159   5.865   9.467   1.977
23075SOL    HW271160   5.882   9.332   2.067
23076SOL     OW71161   6.574   9.510   2.205
23076SOL    HW171162   6.526   9.572   2.144
23076SOL    HW271163   6.652   9.557   2.247
23077SOL     OW71164   6.621   9.972   3.427
23077SOL    HW171165   6.553   9.939   3.360
23077SOL    HW271166   6.713   9.961   3.389
23078SOL     OW71167   6.683   9.775   1.912
23078SOL    HW171168   6.640   9.850   1.862
23078SOL    HW271169   6.732   9.811   1.991
23079SOL     OW71170   5.664   9.894   3.183
23079SOL    HW171171   5.763   9.907   3.183
23079SOL    HW271172   5.619   9.984   3.180
23080SOL     OW71173   6.153   9.555   3.114
23080SOL    HW171174   6.206   9.516   3.189
23080SOL    HW271175   6.056   9.531   3.126
23081SOL     OW71176   6.369   9.801   2.417
23081SOL    HW171177   6.377   9.900   2.413
23081SOL    HW271178   6.436   9.760   2.355
23082SOL     OW71179   6.593   9.356   2.584
23082SOL    HW171180   6.535   9.376   2.506
23082SOL    HW271181   6.556   9.279   2.635
23083SOL     OW71182   6.104   9.563   2.129
23083SOL    HW171183   6.163   9.499   2.080
23083SOL    HW271184   6.037   9.602   2.066
23084SOL     OW71185   6.529   9.344   3.240
23084SOL    HW171186   6.553   9.310   3.149
23084SOL    HW271187   6.601   9.405   3.273
23085SOL     OW71188   6.160   9.704   2.733
23085SOL    HW171189   6.099   9.744   2.665
23085SOL    HW271190   6.201   9.777   2.788
23086SOL     OW71191   7.194   9.918   2.363
23086SOL    HW171192   7.129   9.994   2.353
23086SOL    HW271193   7.285   9.955   2.381
23087SOL     OW71194   6.606   9.417   3.610
23087SOL    HW171195   6.659   9.502   3.604
23087SOL    HW271196   6.660   9.341   3.577
23088SOL     OW71197   6.065   9.340   3.615
23088SOL    HW171198   6.007   9.280   3.559
23088SOL    HW271199   6.017   9.425   3.633
23089SOL     OW71200   6.791   9.859   2.145
23089SOL    HW171201   6.806   9.775   2.197
23089SOL    HW271202   6.739   9.924   2.201
23090SOL     OW71203   5.894   9.480   3.148
23090SOL    HW171204   5.854   9.488   3.239
23090SOL    HW271205   5.885   9.385   3.116
23091SOL     OW71206   6.271   9.928   2.855
23091SOL    HW171207   6.353   9.903   2.803
23091SOL    HW271208   6.250   0.025   2.837
23092SOL     OW71209   5.914   9.357   2.526
23092SOL    HW171210   5.861   9.441   2.534
23092SOL    HW271211   5.931   9.320   2.617
23093SOL     OW71212   7.236   9.718   2.176
23093SOL    HW171213   7.283   9.649   2.232
23093SOL    HW271214   7.209   9.795   2.234
23094SOL     OW71215   7.205   9.524   1.979
23094SOL    HW171216   7.130   9.462   2.004
23094SOL    HW271217   7.210   9.598   2.046
23095SOL     OW71218   5.947   0.209   2.737
23095SOL    HW171219   6.042   0.194   2.764
23095SOL    HW271220   5.894   0.236   2.818
23096SOL     OW71221   6.727   9.659   3.560
23096SOL    HW171222   6.670   9.719   3.616
23096SOL    HW271223   6.818   9.697   3.551
23097SOL     OW71224   6.733   9.506   3.324
23097SOL    HW171225   6.720   9.558   3.408
23097SOL    HW271226   6.778   9.562   3.255
23098SOL     OW71227   5.489   9.835   2.975
23098SOL    HW171228   5.542   9.823   2.891
23098SOL    HW271229   5.552   9.842   3.053
23099SOL     OW71230   5.902   9.852   3.618
23099SOL    HW171231   5.923   9.802   3.534
23099SOL    HW271232   5.947   9.941   3.616
23100SOL     OW71233   6.322   9.935   2.064
23100SOL    HW171234   6.362   9.843   2.062
23100SOL    HW271235   6.265   9.946   2.145
23101SOL     OW71236   7.232   9.912   3.081
23101SOL    HW171237   7.251   9.856   3.162
23101SOL    HW271238   7.300   9.893   3.011
23102SOL     OW71239   6.185   9.831   3.099
23102SOL    HW171240   6.175   9.732   3.092
23102SOL    HW271241   6.215   9.868   3.011
23103SOL     OW71242   7.356   9.528   2.332
23103SOL    HW171243   7.411   9.495   2.256
23103SOL    HW271244   7.301   9.453   2.369
23104SOL     OW71245   7.374   9.481   2.887
23104SOL    HW171246   7.411   9.396   2.848
23104SOL    HW271247   7.286   9.502   2.844
23105SOL     OW71248   6.669   9.473   2.831
23105SOL    HW171249   6.648   9.444   2.738
23105SOL    HW271250   6.642   9.401   2.895
23106SOL     OW71251   7.363   9.750   3.267
23106SOL    HW171252   7.438   9.813   3.246
23106SOL    HW271253   7.383   9.660   3.228
23107SOL     OW71254   6.289   9.448   3.332
23107SOL    HW171255   6.374   9.413   3.293
23107SOL    HW271256   6.304   9.475   3.427
23108SOL     OW71257   5.746   9.761   1.801
23108SOL    HW171258   5.650   9.756   1.773
23108SOL    HW271259   5.795   9.825   1.742
23109SOL     OW71260   5.555   9.398   2.095
23109SOL    HW171261   5.492   9.449   2.037
23109SOL    HW271262   5.648   9.405   2.058
23110SOL     OW71263   6.381   9.768   3.526
23110SOL    HW171264   6.451   9.808   3.585
23110SOL    HW271265   6.367   9.672   3.551
23111SOL     OW71266   6.798   9.631   2.307
23111SOL    HW171267   6.862   9.555   2.303
23111SOL    HW271268   6.817   9.687   2.387
23112SOL     OW71269   7.294   9.761   3.529
23112SOL    HW171270   7.315   9.767   3.432
23112SOL    HW271271   7.246   9.675   3.548
23113SOL     OW71272   6.604   0.120   2.005
23113SOL    HW171273   6.546   0.200   2.022
23113SOL    HW271274   6.628   0.077   2.091
23114SOL     OW71275   7.408   9.499   3.160
23114SOL    HW171276   7.488   9.439   3.171
23114SOL    HW271277   7.379   9.497   3.064
23115SOL     OW71278   6.107   9.700   2.373
23115SOL    HW171279   6.103   9.663   2.280
23115SOL    HW271280   6.200   9.730   2.393
23116SOL     OW71281   5.945   9.913   3.212
23116SOL    HW171282   5.939   9.848   3.289
23116SOL    HW271283   6.027   9.895   3.159
23117SOL     OW71284   6.611   9.240   2.993
23117SOL    HW171285   6.549   9.161   2.994
23117SOL    HW271286   6.703   9.210   2.967
23118SOL     OW71287   6.997   9.347   2.032
23118SOL    HW171288   7.023   9.263   1.984
23118SOL    HW271289   6.898   9.351   2.043
23119SOL     OW71290   6.873   9.787   2.513
23119SOL    HW171291   6.850   9.880   2.543
23119SOL    HW271292   6.964   9.763   2.546
23120SOL     OW71293   7.126   9.537   2.780
23120SOL    HW171294   7.038   9.557   2.823
23120SOL    HW271295   7.139   9.597   2.700
23121SOL     OW71296   5.782   9.633   4.809
23121SOL    HW171297   5.835   9.589   4.881
23121SOL    HW271298   5.708   9.573   4.781
23122SOL     OW71299   5.601   9.767   4.292
23122SOL    HW171300   5.523   9.754   4.354
23122SOL    HW271301   5.575   9.737   4.200
23123SOL     OW71302   7.346   9.915   3.866
23123SOL    HW171303   7.267   9.922   3.805
23123SOL    HW271304   7.328   9.847   3.937
23124SOL     OW71305   6.039   9.705   5.231
23124SOL    HW171306   6.127   9.659   5.234
23124SOL    HW271307   5.966   9.638   5.245
23125SOL     OW71308   7.187   9.731   4.472
23125SOL    HW171309   7.179   9.771   4.380
23125SOL    HW271310   7.133   9.784   4.536
23126SOL     OW71311   7.133   9.443   5.174
23126SOL    HW171312   7.193   9.502   5.120
23126SOL    HW271313   7.098   9.495   5.253
23127SOL     OW71314   5.650   0.037   4.350
23127SOL    HW171315   5.627   9.942   4.329
23127SOL    HW271316   5.749   0.047   4.353
23128SOL     OW71317   6.415   9.350   4.225
23128SOL    HW171318   6.456   9.435   4.192
23128SOL    HW271319   6.316   9.363   4.233
23129SOL     OW71320   5.934   9.559   5.576
23129SOL    HW171321   5.968   9.649   5.547
23129SOL    HW271322   5.834   9.562   5.584
23130SOL     OW71323   6.847   9.676   4.652
23130SOL    HW171324   6.758   9.630   4.650
23130SOL    HW271325   6.907   9.630   4.718
23131SOL     OW71326   6.466   9.833   5.146
23131SOL    HW171327   6.426   9.829   5.238
23131SOL    HW271328   6.394   9.823   5.078
23132SOL     OW71329   7.041   9.877   5.394
23132SOL    HW171330   7.131   9.881   5.438
23132SOL    HW271331   7.000   9.787   5.412
23133SOL     OW71332   6.644   9.802   4.944
23133SOL    HW171333   6.583   9.808   5.023
23133SOL    HW271334   6.606   9.739   4.876
23134SOL     OW71335   6.688   9.980   4.140
23134SOL    HW171336   6.768   0.029   4.173
23134SOL    HW271337   6.606   0.019   4.183
23135SOL     OW71338   6.427   9.688   3.905
23135SOL    HW171339   6.488   9.740   3.845
23135SOL    HW271340   6.388   9.610   3.855
23136SOL     OW71341   7.290   9.892   5.500
23136SOL    HW171342   7.350   9.970   5.483
23136SOL    HW271343   7.328   9.810   5.457
23137SOL     OW71344   6.182   9.445   4.705
23137SOL    HW171345   6.183   9.473   4.801
23137SOL    HW271346   6.185   9.527   4.647
23138SOL     OW71347   7.093   0.066   4.442
23138SOL    HW171348   7.058   0.001   4.509
23138SOL    HW271349   7.145   0.138   4.488
23139SOL     OW71350   5.821   9.545   5.255
23139SOL    HW171351   5.744   9.607   5.243
23139SOL    HW271352   5.790   9.458   5.294
23140SOL     OW71353   6.977   9.398   4.171
23140SOL    HW171354   6.987   9.378   4.073
23140SOL    HW271355   7.063   9.383   4.218
23141SOL     OW71356   7.043   9.586   5.415
23141SOL    HW171357   7.065   9.578   5.512
23141SOL    HW271358   6.945   9.571   5.401
23142SOL     OW71359   6.222   9.414   3.831
23142SOL    HW171360   6.261   9.333   3.874
23142SOL    HW271361   6.156   9.385   3.761
23143SOL     OW71362   6.353   9.553   5.452
23143SOL    HW171363   6.445   9.513   5.448
23143SOL    HW271364   6.305   9.517   5.532
23144SOL     OW71365   7.046   9.943   5.127
23144SOL    HW171366   7.041   9.906   5.220
23144SOL    HW271367   7.060   0.042   5.132
23145SOL     OW71368   6.474   9.770   4.583
23145SOL    HW171369   6.473   9.770   4.483
23145SOL    HW271370   6.523   9.690   4.616
23146SOL     OW71371   6.145   9.387   4.221
23146SOL    HW171372   6.067   9.388   4.282
23146SOL    HW271373   6.143   9.468   4.162
23147SOL     OW71374   5.875   9.359   3.878
23147SOL    HW171375   5.922   9.432   3.829
23147SOL    HW271376   5.940   9.309   3.935
23148SOL     OW71377   6.528   9.582   4.137
23148SOL    HW171378   6.496   9.621   4.051
23148SOL    HW271379   6.628   9.586   4.141
23149SOL     OW71380   6.675   9.944   5.284
23149SOL    HW171381   6.602   9.911   5.224
23149SOL    HW271382   6.705   0.034   5.252
23150SOL     OW71383   6.599   9.829   3.743
23150SOL    HW171384   6.591   9.926   3.719
23150SOL    HW271385   6.666   9.818   3.815
23151SOL     OW71386   5.706   9.927   5.107
23151SOL    HW171387   5.799   9.904   5.077
23151SOL    HW271388   5.705   0.019   5.145
23152SOL     OW71389   6.168   9.543   4.959
23152SOL    HW171390   6.221   9.517   5.040
23152SOL    HW271391   6.071   9.524   4.975
23153SOL     OW71392   6.465   9.779   4.320
23153SOL    HW171393   6.461   9.868   4.275
23153SOL    HW271394   6.486   9.708   4.253
23154SOL     OW71395   6.598   9.358   4.442
23154SOL    HW171396   6.536   9.368   4.364
23154SOL    HW271397   6.567   9.282   4.499
23155SOL     OW71398   7.029   9.883   4.635
23155SOL    HW171399   6.953   9.821   4.650
23155SOL    HW271400   7.065   9.915   4.723
23156SOL     OW71401   6.135   9.592   4.043
23156SOL    HW171402   6.159   9.535   3.964
23156SOL    HW271403   6.151   9.688   4.020
23157SOL     OW71404   6.548   9.418   5.085
23157SOL    HW171405   6.572   9.378   4.996
23157SOL    HW271406   6.630   9.458   5.126
23158SOL     OW71407   6.897   9.732   5.023
23158SOL    HW171408   6.951   9.809   5.058
23158SOL    HW271409   6.808   9.766   4.990
23159SOL     OW71410   6.185   9.686   4.573
23159SOL    HW171411   6.148   9.688   4.480
23159SOL    HW271412   6.279   9.720   4.572
23160SOL     OW71413   7.219   9.910   4.256
23160SOL    HW171414   7.171   9.973   4.316
23160SOL    HW271415   7.316   9.935   4.251
23161SOL     OW71416   6.600   9.455   5.442
23161SOL    HW171417   6.662   9.533   5.436
23161SOL    HW271418   6.645   9.374   5.404
23162SOL     OW71419   6.078   9.346   5.489
23162SOL    HW171420   6.030   9.286   5.425
23162SOL    HW271421   6.021   9.426   5.509
23163SOL     OW71422   6.766   9.801   3.959
23163SOL    HW171423   6.787   9.718   4.011
23163SOL    HW271424   6.731   9.871   4.021
23164SOL     OW71425   5.906   9.486   5.005
23164SOL    HW171426   5.878   9.515   5.097
23164SOL    HW271427   5.876   9.392   4.990
23165SOL     OW71428   6.333   9.952   4.732
23165SOL    HW171429   6.381   9.893   4.666
23165SOL    HW271430   6.290   0.028   4.684
23166SOL     OW71431   5.905   9.390   4.359
23166SOL    HW171432   5.866   9.481   4.373
23166SOL    HW271433   5.926   9.349   4.448
23167SOL     OW71434   7.243   9.725   4.048
23167SOL    HW171435   7.284   9.651   4.102
23167SOL    HW271436   7.212   9.797   4.110
23168SOL     OW71437   7.189   9.539   3.844
23168SOL    HW171438   7.119   9.475   3.875
23168SOL    HW271439   7.199   9.612   3.911
23169SOL     OW71440   5.971   0.042   4.640
23169SOL    HW171441   6.056   0.094   4.652
23169SOL    HW271442   5.979   9.954   4.687
23170SOL     OW71443   5.999   9.793   4.755
23170SOL    HW171444   5.919   9.735   4.763
23170SOL    HW271445   6.066   9.750   4.694
23171SOL     OW71446   6.742   9.701   5.412
23171SOL    HW171447   6.713   9.716   5.507
23171SOL    HW271448   6.729   9.786   5.360
23172SOL     OW71449   6.779   9.541   5.187
23172SOL    HW171450   6.754   9.598   5.266
23172SOL    HW271451   6.829   9.597   5.121
23173SOL     OW71452   5.569   9.796   4.912
23173SOL    HW171453   5.638   9.746   4.859
23173SOL    HW271454   5.614   9.858   4.976
23174SOL     OW71455   5.961   9.809   5.473
23174SOL    HW171456   5.985   9.782   5.380
23174SOL    HW271457   5.978   9.907   5.485
23175SOL     OW71458   6.215   9.852   3.995
23175SOL    HW171459   6.305   9.810   3.983
23175SOL    HW271460   6.215   9.906   4.079
23176SOL     OW71461   7.147   9.962   4.870
23176SOL    HW171462   7.117   9.944   4.963
23176SOL    HW271463   7.240   9.928   4.857
23177SOL     OW71464   6.287   9.794   4.953
23177SOL    HW171465   6.238   9.709   4.938
23177SOL    HW271466   6.286   9.849   4.869
23178SOL     OW71467   7.357   9.520   4.190
23178SOL    HW171468   7.401   9.486   4.107
23178SOL    HW271469   7.304   9.446   4.232
23179SOL     OW71470   7.427   9.464   4.711
23179SOL    HW171471   7.464   9.373   4.692
23179SOL    HW271472   7.337   9.472   4.668
23180SOL     OW71473   5.814   9.644   4.412
23180SOL    HW171474   5.739   9.689   4.362
23180SOL    HW271475   5.800   9.657   4.510
23181SOL     OW71476   6.612   9.533   4.656
23181SOL    HW171477   6.611   9.484   4.569
23181SOL    HW271478   6.608   9.469   4.732
23182SOL     OW71479   7.370   9.698   5.110
23182SOL    HW171480   7.444   9.760   5.085
23182SOL    HW271481   7.376   9.615   5.055
23183SOL     OW71482   6.303   9.475   5.190
23183SOL    HW171483   6.393   9.456   5.149
23183SOL    HW271484   6.316   9.505   5.284
23184SOL     OW71485   5.704   9.682   3.717
23184SOL    HW171486   5.622   9.680   3.660
23184SOL    HW271487   5.762   9.760   3.691
23185SOL     OW71488   5.647   9.497   3.921
23185SOL    HW171489   5.649   9.574   3.856
23185SOL    HW271490   5.731   9.444   3.912
23186SOL     OW71491   6.378   9.821   5.401
23186SOL    HW171492   6.424   9.868   5.476
23186SOL    HW271493   6.364   9.725   5.425
23187SOL     OW71494   6.799   9.607   4.156
23187SOL    HW171495   6.862   9.529   4.158
23187SOL    HW271496   6.812   9.663   4.238
23188SOL     OW71497   7.306   9.654   5.363
23188SOL    HW171498   7.318   9.679   5.267
23188SOL    HW271499   7.210   9.634   5.381
23189SOL     OW71500   6.772   0.286   3.724
23189SOL    HW171501   6.721   0.364   3.758
23189SOL    HW271502   6.849   0.267   3.786
23190SOL     OW71503   7.368   9.464   4.977
23190SOL    HW171504   7.378   9.367   5.001
23190SOL    HW271505   7.390   9.477   4.881
23191SOL     OW71506   6.073   9.685   4.324
23191SOL    HW171507   6.087   9.663   4.227
23191SOL    HW271508   5.976   9.676   4.347
23192SOL     OW71509   5.958   9.868   5.023
23192SOL    HW171510   6.001   9.810   5.092
23192SOL    HW271511   5.988   9.839   4.932
23193SOL     OW71512   7.006   9.559   4.841
23193SOL    HW171513   7.018   9.467   4.878
23193SOL    HW271514   6.975   9.621   4.914
23194SOL     OW71515   6.617   9.309   4.833
23194SOL    HW171516   6.546   9.241   4.818
23194SOL    HW271517   6.707   9.269   4.817
23195SOL     OW71518   7.003   9.341   3.902
23195SOL    HW171519   7.049   9.261   3.863
23195SOL    HW271520   6.905   9.322   3.912
23196SOL     OW71521   6.835   9.751   4.383
23196SOL    HW171522   6.814   9.849   4.381
23196SOL    HW271523   6.846   9.720   4.477
23197SOL     OW71524   7.172   9.503   4.631
23197SOL    HW171525   7.112   9.535   4.704
23197SOL    HW271526   7.175   9.570   4.557
23198SOL     OW71527   5.770   9.625   6.651
23198SOL    HW171528   5.821   9.572   6.719
23198SOL    HW271529   5.697   9.568   6.613
23199SOL     OW71530   5.546   9.725   6.202
23199SOL    HW171531   5.461   9.730   6.253
23199SOL    HW271532   5.534   9.668   6.120
23200SOL     OW71533   7.181   9.903   5.746
23200SOL    HW171534   7.224   9.898   5.656
23200SOL    HW271535   7.206   9.823   5.800
23201SOL     OW71536   5.994   9.730   7.069
23201SOL    HW171537   6.091   9.704   7.073
23201SOL    HW271538   5.937   9.649   7.080
23202SOL     OW71539   7.217   9.720   6.336
23202SOL    HW171540   7.202   9.757   6.245
23202SOL    HW271541   7.171   9.777   6.404
23203SOL     OW71542   7.208   9.428   7.038
23203SOL    HW171543   7.193   9.514   6.989
23203SOL    HW271544   7.170   9.436   7.130
23204SOL     OW71545   5.620   9.992   6.161
23204SOL    HW171546   5.596   9.897   6.178
23204SOL    HW271547   5.719   0.003   6.167
23205SOL     OW71548   6.400   9.349   6.096
23205SOL    HW171549   6.444   9.436   6.072
23205SOL    HW271550   6.302   9.362   6.104
23206SOL     OW71551   5.950   9.570   7.472
23206SOL    HW171552   6.009   9.647   7.497
23206SOL    HW271553   5.860   9.605   7.443
23207SOL     OW71554   6.879   9.692   6.510
23207SOL    HW171555   6.793   9.643   6.497
23207SOL    HW271556   6.935   9.644   6.577
23208SOL     OW71557   6.462   9.844   6.949
23208SOL    HW171558   6.422   9.830   7.040
23208SOL    HW271559   6.390   9.835   6.879
23209SOL     OW71560   6.988   9.714   7.269
23209SOL    HW171561   7.049   9.780   7.313
23209SOL    HW271562   7.028   9.622   7.276
23210SOL     OW71563   6.648   9.831   6.748
23210SOL    HW171564   6.574   9.825   6.816
23210SOL    HW271565   6.611   9.816   6.657
23211SOL     OW71566   6.721   9.981   6.120
23211SOL    HW171567   6.781   0.060   6.116
23211SOL    HW271568   6.626   0.011   6.129
23212SOL     OW71569   6.420   9.669   5.793
23212SOL    HW171570   6.496   9.701   5.737
23212SOL    HW271571   6.370   9.597   5.745
23213SOL     OW71572   7.200   9.879   7.327
23213SOL    HW171573   7.197   9.939   7.248
23213SOL    HW271574   7.260   9.801   7.308
23214SOL     OW71575   6.134   9.487   6.554
23214SOL    HW171576   6.148   9.510   6.650
23214SOL    HW271577   6.141   9.570   6.498
23215SOL     OW71578   7.097   0.066   6.297
23215SOL    HW171579   7.080   9.998   6.368
23215SOL    HW271580   7.126   0.152   6.339
23216SOL     OW71581   5.805   9.530   7.092
23216SOL    HW171582   5.723   9.586   7.074
23216SOL    HW271583   5.778   9.447   7.140
23217SOL     OW71584   6.986   9.390   6.029
23217SOL    HW171585   6.985   9.374   5.930
23217SOL    HW271586   7.079   9.374   6.064
23218SOL     OW71587   7.109   9.469   7.293
23218SOL    HW171588   7.110   9.487   7.391
23218SOL    HW271589   7.041   9.399   7.273
23219SOL     OW71590   6.247   9.443   5.690
23219SOL    HW171591   6.301   9.368   5.728
23219SOL    HW271592   6.179   9.406   5.626
23220SOL     OW71593   6.371   9.551   7.292
23220SOL    HW171594   6.452   9.492   7.292
23220SOL    HW271595   6.322   9.539   7.378
23221SOL     OW71596   6.937   9.877   7.060
23221SOL    HW171597   6.947   9.814   7.137
23221SOL    HW271598   7.002   9.952   7.069
23222SOL     OW71599   6.557   9.775   6.480
23222SOL    HW171600   6.514   9.775   6.389
23222SOL    HW271601   6.589   9.683   6.501
23223SOL     OW71602   6.135   9.396   6.088
23223SOL    HW171603   6.058   9.394   6.152
23223SOL    HW271604   6.127   9.476   6.029
23224SOL     OW71605   5.885   9.357   5.758
23224SOL    HW171606   5.928   9.433   5.710
23224SOL    HW271607   5.954   9.305   5.808
23225SOL     OW71608   6.519   9.585   6.035
23225SOL    HW171609   6.488   9.618   5.946
23225SOL    HW271610   6.618   9.578   6.036
23226SOL     OW71611   6.665   9.933   7.117
23226SOL    HW171612   6.603   9.899   7.046
23226SOL    HW271613   6.760   9.919   7.088
23227SOL     OW71614   6.635   9.780   5.659
23227SOL    HW171615   6.615   9.870   5.621
23227SOL    HW271616   6.686   9.790   5.745
23228SOL     OW71617   5.669   9.905   6.957
23228SOL    HW171618   5.763   9.910   6.925
23228SOL    HW271619   5.658   9.964   7.037
23229SOL     OW71620   6.150   9.568   6.814
23229SOL    HW171621   6.209   9.537   6.889
23229SOL    HW271622   6.057   9.533   6.828
23230SOL     OW71623   6.467   9.782   6.227
23230SOL    HW171624   6.454   9.867   6.175
23230SOL    HW271625   6.479   9.706   6.163
23231SOL     OW71626   6.601   9.344   6.295
23231SOL    HW171627   6.535   9.358   6.222
23231SOL    HW271628   6.567   9.276   6.359
23232SOL     OW71629   7.077   9.886   6.504
23232SOL    HW171630   6.994   9.830   6.511
23232SOL    HW271631   7.112   9.905   6.595
23233SOL     OW71632   6.115   9.596   5.904
23233SOL    HW171633   6.146   9.543   5.826
23233SOL    HW271634   6.135   9.693   5.888
23234SOL     OW71635   6.547   9.396   6.928
23234SOL    HW171636   6.565   9.368   6.833
23234SOL    HW271637   6.629   9.437   6.967
23235SOL     OW71638   6.855   9.700   6.872
23235SOL    HW171639   6.889   9.768   6.937
23235SOL    HW271640   6.781   9.740   6.817
23236SOL     OW71641   6.134   9.731   6.430
23236SOL    HW171642   6.111   9.724   6.333
23236SOL    HW271643   6.195   9.810   6.444
23237SOL     OW71644   7.221   9.891   6.117
23237SOL    HW171645   7.168   9.957   6.171
23237SOL    HW271646   7.316   9.922   6.111
23238SOL     OW71647   6.578   9.380   7.320
23238SOL    HW171648   6.650   9.449   7.318
23238SOL    HW271649   6.617   9.291   7.344
23239SOL     OW71650   6.087   9.361   7.365
23239SOL    HW171651   6.038   9.302   7.300
23239SOL    HW271652   6.028   9.437   7.392
23240SOL     OW71653   6.754   9.812   5.903
23240SOL    HW171654   6.775   9.721   5.939
23240SOL    HW271655   6.734   9.873   5.979
23241SOL     OW71656   5.894   9.471   6.842
23241SOL    HW171657   5.863   9.493   6.935
23241SOL    HW271658   5.883   9.373   6.826
23242SOL     OW71659   6.269   9.958   6.516
23242SOL    HW171660   6.363   9.978   6.488
23242SOL    HW271661   6.218   0.044   6.524
23243SOL     OW71662   5.899   9.387   6.234
23243SOL    HW171663   5.855   9.476   6.249
23243SOL    HW271664   5.919   9.345   6.323
23244SOL     OW71665   7.213   9.695   5.916
23244SOL    HW171666   7.274   9.624   5.950
23244SOL    HW271667   7.200   9.764   5.987
23245SOL     OW71668   7.088   9.572   5.682
23245SOL    HW171669   7.043   9.488   5.713
23245SOL    HW271670   7.129   9.619   5.760
23246SOL     OW71671   5.938   0.048   6.466
23246SOL    HW171672   6.012   0.109   6.494
23246SOL    HW271673   5.937   9.968   6.526
23247SOL     OW71674   5.954   9.818   6.616
23247SOL    HW171675   5.883   9.749   6.628
23247SOL    HW271676   6.024   9.784   6.554
23248SOL     OW71677   6.736   9.608   7.292
23248SOL    HW171678   6.676   9.662   7.351
23248SOL    HW271679   6.828   9.649   7.291
23249SOL     OW71680   6.772   9.498   7.044
23249SOL    HW171681   6.750   9.541   7.132
23249SOL    HW271682   6.804   9.568   6.980
23250SOL     OW71683   5.558   9.792   6.737
23250SOL    HW171684   5.630   9.739   6.693
23250SOL    HW271685   5.597   9.847   6.811
23251SOL     OW71686   5.855   9.869   7.261
23251SOL    HW171687   5.904   9.821   7.188
23251SOL    HW271688   5.912   9.942   7.298
23252SOL     OW71689   6.216   9.850   5.870
23252SOL    HW171690   6.302   9.799   5.861
23252SOL    HW271691   6.215   9.898   5.958
23253SOL     OW71692   7.195   9.920   6.756
23253SOL    HW171693   7.151   9.854   6.816
23253SOL    HW271694   7.294   9.908   6.759
23254SOL     OW71695   6.278   9.811   6.759
23254SOL    HW171696   6.224   9.727   6.764
23254SOL    HW271697   6.265   9.854   6.670
23255SOL     OW71698   7.382   9.508   6.026
23255SOL    HW171699   7.442   9.476   5.952
23255SOL    HW271700   7.329   9.430   6.061
23256SOL     OW71701   7.444   9.448   6.579
23256SOL    HW171702   7.476   9.356   6.558
23256SOL    HW271703   7.353   9.462   6.539
23257SOL     OW71704   5.789   9.634   6.294
23257SOL    HW171705   5.702   9.667   6.257
23257SOL    HW271706   5.795   9.655   6.391
23258SOL     OW71707   6.659   9.523   6.501
23258SOL    HW171708   6.646   9.475   6.414
23258SOL    HW271709   6.646   9.460   6.577
23259SOL     OW71710   7.446   9.703   7.034
23259SOL    HW171711   7.476   9.797   7.017
23259SOL    HW271712   7.422   9.659   6.947
23260SOL     OW71713   6.304   9.484   7.029
23260SOL    HW171714   6.390   9.455   6.987
23260SOL    HW271715   6.322   9.516   7.122
23261SOL     OW71716   5.674   9.645   5.603
23261SOL    HW171717   5.594   9.650   5.543
23261SOL    HW271718   5.717   9.736   5.609
23262SOL     OW71719   5.641   9.458   5.805
23262SOL    HW171720   5.632   9.529   5.735
23262SOL    HW271721   5.732   9.418   5.800
23263SOL     OW71722   6.362   9.811   7.199
23263SOL    HW171723   6.404   9.877   7.261
23263SOL    HW271724   6.369   9.719   7.239
23264SOL     OW71725   6.792   9.582   6.043
23264SOL    HW171726   6.861   9.510   6.034
23264SOL    HW271727   6.816   9.641   6.121
23265SOL     OW71728   7.331   9.649   7.273
23265SOL    HW171729   7.371   9.656   7.181
23265SOL    HW271730   7.269   9.570   7.276
23266SOL     OW71731   6.757   0.198   5.602
23266SOL    HW171732   6.752   0.268   5.531
23266SOL    HW271733   6.841   0.208   5.654
23267SOL     OW71734   7.378   9.540   6.830
23267SOL    HW171735   7.356   9.457   6.882
23267SOL    HW271736   7.407   9.515   6.738
23268SOL     OW71737   6.035   9.699   6.175
23268SOL    HW171738   6.045   9.669   6.081
23268SOL    HW271739   5.941   9.682   6.206
23269SOL     OW71740   5.925   9.915   6.873
23269SOL    HW171741   5.965   9.852   6.940
23269SOL    HW271742   5.949   9.885   6.781
23270SOL     OW71743   7.013   9.554   6.703
23270SOL    HW171744   7.017   9.456   6.723
23270SOL    HW271745   6.957   9.600   6.772
23271SOL     OW71746   6.621   9.304   6.669
23271SOL    HW171747   6.556   9.253   6.612
23271SOL    HW271748   6.710   9.257   6.669
23272SOL     OW71749   6.972   9.338   5.762
23272SOL    HW171750   7.020   9.263   5.716
23272SOL    HW271751   6.876   9.313   5.776
23273SOL     OW71752   6.847   9.757   6.237
23273SOL    HW171753   6.799   9.842   6.217
23273SOL    HW271754   6.858   9.748   6.336
23274SOL     OW71755   7.190   9.496   6.499
23274SOL    HW171756   7.130   9.532   6.570
23274SOL    HW271757   7.197   9.563   6.425
23275SOL     OW71758   5.768   9.604   8.485
23275SOL    HW171759   5.818   9.561   8.560
23275SOL    HW271760   5.695   9.542   8.454
23276SOL     OW71761   7.196   9.939   7.590
23276SOL    HW171762   7.205   9.906   7.496
23276SOL    HW271763   7.194   9.860   7.653
23277SOL     OW71764   6.006   9.764   8.963
23277SOL    HW171765   6.101   9.760   8.994
23277SOL    HW271766   5.964   9.674   8.971
23278SOL     OW71767   7.164   9.687   8.206
23278SOL    HW171768   7.087   9.695   8.143
23278SOL    HW271769   7.150   9.748   8.284
23279SOL     OW71770   7.164   9.420   8.880
23279SOL    HW171771   7.245   9.431   8.823
23279SOL    HW271772   7.154   9.500   8.940
23280SOL     OW71773   5.767   9.852   8.112
23280SOL    HW171774   5.679   9.888   8.144
23280SOL    HW271775   5.828   9.929   8.091
23281SOL     OW71776   6.388   9.396   7.950
23281SOL    HW171777   6.434   9.482   7.925
23281SOL    HW271778   6.291   9.412   7.962
23282SOL     OW71779   5.941   9.581   9.326
23282SOL    HW171780   6.009   9.638   9.373
23282SOL    HW271781   5.862   9.637   9.301
23283SOL     OW71782   6.861   9.660   8.386
23283SOL    HW171783   6.769   9.621   8.374
23283SOL    HW271784   6.911   9.607   8.455
23284SOL     OW71785   6.442   9.841   8.882
23284SOL    HW171786   6.384   9.818   8.959
23284SOL    HW271787   6.392   9.826   8.796
23285SOL     OW71788   6.942   9.823   9.076
23285SOL    HW171789   6.927   9.894   9.144
23285SOL    HW271790   6.999   9.750   9.116
23286SOL     OW71791   6.629   9.788   8.687
23286SOL    HW171792   6.574   9.803   8.769
23286SOL    HW271793   6.571   9.751   8.614
23287SOL     OW71794   6.652   9.991   7.849
23287SOL    HW171795   6.736   0.037   7.878
23287SOL    HW271796   6.575   0.024   7.902
23288SOL     OW71797   6.409   9.692   7.635
23288SOL    HW171798   6.479   9.714   7.566
23288SOL    HW271799   6.352   9.617   7.601
23289SOL     OW71800   7.371   9.909   9.297
23289SOL    HW171801   7.427   9.979   9.253
23289SOL    HW271802   7.347   9.838   9.231
23290SOL     OW71803   6.137   9.421   8.450
23290SOL    HW171804   6.155   9.448   8.545
23290SOL    HW271805   6.134   9.502   8.392
23291SOL     OW71806   7.046   0.000   8.205
23291SOL    HW171807   7.060   9.944   8.287
23291SOL    HW271808   7.077   0.094   8.224
23292SOL     OW71809   5.808   9.554   8.956
23292SOL    HW171810   5.733   9.618   8.939
23292SOL    HW271811   5.770   9.468   8.991
23293SOL     OW71812   6.953   9.410   7.897
23293SOL    HW171813   6.950   9.387   7.800
23293SOL    HW271814   7.047   9.401   7.930
23294SOL     OW71815   7.069   9.582   9.137
23294SOL    HW171816   7.085   9.569   9.234
23294SOL    HW271817   7.000   9.516   9.105
23295SOL     OW71818   6.268   9.474   7.541
23295SOL    HW171819   6.310   9.404   7.600
23295SOL    HW271820   6.195   9.432   7.488
23296SOL     OW71821   6.336   9.532   9.193
23296SOL    HW171822   6.430   9.498   9.187
23296SOL    HW271823   6.292   9.497   9.275
23297SOL     OW71824   7.031   9.921   8.842
23297SOL    HW171825   6.998   9.883   8.928
23297SOL    HW271826   7.056   0.017   8.854
23298SOL     OW71827   6.508   9.781   8.313
23298SOL    HW171828   6.479   9.779   8.218
23298SOL    HW271829   6.549   9.693   8.338
23299SOL     OW71830   6.108   9.430   7.966
23299SOL    HW171831   6.062   9.390   8.046
23299SOL    HW271832   6.049   9.498   7.924
23300SOL     OW71833   5.843   9.370   7.623
23300SOL    HW171834   5.884   9.445   7.572
23300SOL    HW271835   5.913   9.325   7.679
23301SOL     OW71836   6.521   9.624   7.877
23301SOL    HW171837   6.491   9.651   7.785
23301SOL    HW271838   6.620   9.627   7.882
23302SOL     OW71839   6.642   0.009   8.998
23302SOL    HW171840   6.573   9.948   8.960
23302SOL    HW271841   6.641   0.096   8.948
23303SOL     OW71842   6.604   9.774   7.466
23303SOL    HW171843   6.580   9.861   7.424
23303SOL    HW271844   6.670   9.790   7.540
23304SOL     OW71845   5.637   9.903   8.790
23304SOL    HW171846   5.736   9.916   8.785
23304SOL    HW271847   5.591   9.991   8.775
23305SOL     OW71848   6.164   9.538   8.699
23305SOL    HW171849   6.207   9.503   8.783
23305SOL    HW271850   6.065   9.526   8.704
23306SOL     OW71851   6.431   9.806   8.060
23306SOL    HW171852   6.423   9.896   8.018
23306SOL    HW271853   6.461   9.739   7.992
23307SOL     OW71854   6.580   9.349   8.149
23307SOL    HW171855   6.513   9.367   8.078
23307SOL    HW271856   6.544   9.279   8.211
23308SOL     OW71857   7.087   9.839   8.418
23308SOL    HW171858   7.001   9.793   8.441
23308SOL    HW271859   7.135   9.863   8.502
23309SOL     OW71860   6.535   9.355   8.825
23309SOL    HW171861   6.550   9.336   8.728
23309SOL    HW271862   6.609   9.413   8.859
23310SOL     OW71863   6.877   9.699   8.757
23310SOL    HW171864   6.934   9.777   8.784
23310SOL    HW271865   6.788   9.732   8.727
23311SOL     OW71866   6.126   9.669   8.333
23311SOL    HW171867   6.067   9.675   8.252
23311SOL    HW271868   6.187   9.749   8.335
23312SOL     OW71869   7.131   9.956   7.952
23312SOL    HW171870   7.094   9.963   8.044
23312SOL    HW271871   7.228   9.980   7.953
23313SOL     OW71872   6.586   9.434   9.184
23313SOL    HW171873   6.643   9.516   9.181
23313SOL    HW271874   6.640   9.355   9.152
23314SOL     OW71875   6.047   9.351   9.205
23314SOL    HW171876   5.985   9.291   9.154
23314SOL    HW271877   6.000   9.437   9.225
23315SOL     OW71878   6.765   9.812   7.684
23315SOL    HW171879   6.794   9.737   7.743
23315SOL    HW271880   6.716   9.880   7.739
23316SOL     OW71881   5.893   9.488   8.705
23316SOL    HW171882   5.868   9.518   8.797
23316SOL    HW271883   5.860   9.395   8.690
23317SOL     OW71884   6.276   9.893   8.404
23317SOL    HW171885   6.366   9.862   8.374
23317SOL    HW271886   6.267   9.991   8.385
23318SOL     OW71887   5.898   9.357   8.137
23318SOL    HW171888   5.879   9.454   8.157
23318SOL    HW271889   5.909   9.307   8.223
23319SOL     OW71890   7.168   9.737   7.772
23319SOL    HW171891   7.233   9.675   7.815
23319SOL    HW271892   7.139   9.807   7.838
23320SOL     OW71893   7.097   9.556   7.554
23320SOL    HW171894   7.036   9.485   7.590
23320SOL    HW271895   7.117   9.622   7.625
23321SOL     OW71896   5.961   0.036   8.356
23321SOL    HW171897   6.036   0.097   8.380
23321SOL    HW271898   5.960   9.958   8.418
23322SOL     OW71899   5.956   9.801   8.509
23322SOL    HW171900   5.876   9.742   8.498
23322SOL    HW271901   6.035   9.759   8.464
23323SOL     OW71902   6.723   9.671   9.149
23323SOL    HW171903   6.691   9.718   9.231
23323SOL    HW271904   6.791   9.727   9.102
23324SOL     OW71905   6.750   9.506   8.916
23324SOL    HW171906   6.725   9.559   8.998
23324SOL    HW271907   6.802   9.564   8.854
23325SOL     OW71908   5.553   9.759   8.581
23325SOL    HW171909   5.626   9.706   8.538
23325SOL    HW271910   5.592   9.816   8.653
23326SOL     OW71911   5.844   9.928   9.109
23326SOL    HW171912   5.906   9.875   9.052
23326SOL    HW271913   5.852   0.025   9.088
23327SOL     OW71914   6.300   9.933   7.711
23327SOL    HW171915   6.342   9.846   7.685
23327SOL    HW271916   6.353   9.975   7.784
23328SOL     OW71917   7.225   9.908   8.645
23328SOL    HW171918   7.163   9.902   8.724
23328SOL    HW271919   7.318   9.885   8.674
23329SOL     OW71920   6.318   9.767   8.651
23329SOL    HW171921   6.262   9.685   8.662
23329SOL    HW271922   6.293   9.813   8.566
23330SOL     OW71923   7.344   9.560   7.887
23330SOL    HW171924   7.404   9.534   7.811
23330SOL    HW271925   7.294   9.479   7.918
23331SOL     OW71926   7.436   9.471   8.465
23331SOL    HW171927   7.480   9.386   8.436
23331SOL    HW271928   7.345   9.477   8.425
23332SOL     OW71929   5.857   9.617   8.213
23332SOL    HW171930   5.826   9.700   8.168
23332SOL    HW271931   5.827   9.618   8.308
23333SOL     OW71932   6.622   9.526   8.363
23333SOL    HW171933   6.613   9.476   8.277
23333SOL    HW271934   6.615   9.462   8.440
23334SOL     OW71935   7.396   9.663   8.874
23334SOL    HW171936   7.426   9.740   8.818
23334SOL    HW271937   7.390   9.581   8.818
23335SOL     OW71938   6.284   9.437   8.928
23335SOL    HW171939   6.373   9.410   8.891
23335SOL    HW271940   6.296   9.477   9.019
23336SOL     OW71941   5.717   9.678   7.400
23336SOL    HW171942   5.629   9.653   7.358
23336SOL    HW271943   5.756   9.756   7.350
23337SOL     OW71944   5.613   9.440   7.746
23337SOL    HW171945   5.566   9.511   7.693
23337SOL    HW271946   5.700   9.418   7.703
23338SOL     OW71947   6.259   9.774   9.078
23338SOL    HW171948   6.252   9.853   9.139
23338SOL    HW271949   6.291   9.695   9.130
23339SOL     OW71950   6.798   9.638   7.903
23339SOL    HW171951   6.850   9.553   7.899
23339SOL    HW271952   6.828   9.691   7.982
23340SOL     OW71953   7.317   9.698   9.131
23340SOL    HW171954   7.349   9.695   9.036
23340SOL    HW271955   7.226   9.656   9.137
23341SOL     OW71956   6.682   0.171   7.472
23341SOL    HW171957   6.725   0.237   7.410
23341SOL    HW271958   6.753   0.130   7.529
23342SOL     OW71959   7.398   9.433   8.732
23342SOL    HW171960   7.468   9.364   8.752
23342SOL    HW271961   7.402   9.457   8.635
23343SOL     OW71962   5.908   9.907   8.753
23343SOL    HW171963   5.953   9.856   8.826
23343SOL    HW271964   5.933   9.869   8.664
23344SOL     OW71965   7.002   9.534   8.582
23344SOL    HW171966   7.018   9.441   8.616
23344SOL    HW271967   6.962   9.589   8.655
23345SOL     OW71968   6.615   9.302   8.544
23345SOL    HW171969   6.552   9.244   8.492
23345SOL    HW271970   6.706   9.261   8.543
23346SOL     OW71971   6.946   9.342   7.634
23346SOL    HW171972   6.995   9.271   7.585
23346SOL    HW271973   6.849   9.317   7.641
23347SOL     OW71974   6.899   9.764   8.131
23347SOL    HW171975   6.923   9.860   8.141
23347SOL    HW271976   6.877   9.725   8.220
23348SOL     OW71977   7.180   9.481   8.382
23348SOL    HW171978   7.116   9.513   8.452
23348SOL    HW271979   7.175   9.542   8.303
23349SOL     OW71980   7.216   9.929   9.520
23349SOL    HW171981   7.275   9.930   9.440
23349SOL    HW271982   7.209   9.835   9.555
23350SOL     OW71983   5.527   9.829   9.938
23350SOL    HW171984   5.463   9.856   9.866
23350SOL    HW271985   5.617   9.869   9.919
23351SOL     OW71986   6.613   9.975   9.850
23351SOL    HW171987   6.604   0.066   9.889
23351SOL    HW271988   6.523   9.944   9.818
23352SOL     OW71989   6.442   9.857   9.506
23352SOL    HW171990   6.519   9.861   9.443
23352SOL    HW271991   6.430   9.763   9.538
23353SOL     OW71992   7.024   9.433   9.742
23353SOL    HW171993   7.018   9.390   9.652
23353SOL    HW271994   7.120   9.444   9.768
23354SOL     OW71995   6.211   9.400   9.413
23354SOL    HW171996   6.250   9.314   9.445
23354SOL    HW271997   6.146   9.381   9.339
23355SOL     OW71998   6.114   9.380   9.824
23355SOL    HW171999   6.021   9.386   9.861
23355SOL    HW272000   6.129   9.453   9.758
23356SOL     OW72001   5.840   9.377   9.476
23356SOL    HW172002   5.883   9.452   9.427
23356SOL    HW272003   5.909   9.321   9.522
23357SOL     OW72004   6.690   9.854   9.370
23357SOL    HW172005   6.730   9.926   9.314
23357SOL    HW272006   6.724   9.860   9.464
23358SOL     OW72007   6.144   9.564   9.621
23358SOL    HW172008   6.162   9.506   9.541
23358SOL    HW272009   6.229   9.610   9.648
23359SOL     OW72010   7.286   0.030   9.771
23359SOL    HW172011   7.213   0.096   9.787
23359SOL    HW272012   7.275   9.991   9.679
23360SOL     OW72013   6.781   9.890   9.631
23360SOL    HW172014   6.836   9.813   9.663
23360SOL    HW272015   6.724   9.924   9.705
23361SOL     OW72016   5.857   9.422   9.902
23361SOL    HW172017   5.852   9.509   9.854
23361SOL    HW272018   5.859   9.438   0.001
23362SOL     OW72019   7.190   9.682   9.628
23362SOL    HW172020   7.241   9.623   9.690
23362SOL    HW272021   7.098   9.697   9.665
23363SOL     OW72022   7.113   9.553   9.396
23363SOL    HW172023   7.070   9.469   9.430
23363SOL    HW272024   7.148   9.605   9.473
23364SOL     OW72025   5.978   9.833   0.253
23364SOL    HW172026   6.019   9.741   0.257
23364SOL    HW272027   6.043   9.896   0.211
23365SOL     OW72028   6.362   9.906   9.763
23365SOL    HW172029   6.374   9.918   9.665
23365SOL    HW272030   6.284   9.961   9.794
23366SOL     OW72031   7.307   9.456   9.768
23366SOL    HW172032   7.364   9.464   9.687
23366SOL    HW272033   7.307   9.360   9.799
23367SOL     OW72034   5.730   9.752   9.278
23367SOL    HW172035   5.648   9.713   9.236
23367SOL    HW272036   5.769   9.821   9.217
23368SOL     OW72037   5.593   9.429   9.581
23368SOL    HW172038   5.554   9.502   9.524
23368SOL    HW272039   5.688   9.414   9.555
23369SOL     OW72040   6.940   9.694   9.734
23369SOL    HW172041   6.949   9.594   9.739
23369SOL    HW272042   6.942   9.732   9.826
23370SOL     OW72043   6.742   0.208   9.404
23370SOL    HW172044   6.714   0.303   9.418
23370SOL    HW272045   6.814   0.185   9.470
23371SOL     OW72046   5.895   9.640   9.726
23371SOL    HW172047   5.986   9.619   9.689
23371SOL    HW272048   5.851   9.709   9.670
23372SOL     OW72049   7.002   9.326   9.494
23372SOL    HW172050   7.047   9.248   9.450
23372SOL    HW272051   6.907   9.301   9.516
23373SOL     OW72052   6.937   9.782   9.985
23373SOL    HW172053   6.840   9.782   0.012
23373SOL    HW272054   6.986   9.712   0.038
23374SOL     OW72055   7.547   0.557   0.131
23374SOL    HW172056   7.457   0.538   0.172
23374SOL    HW272057   7.555   0.508   0.044
23375SOL     OW72058   7.596   0.312   1.091
23375SOL    HW172059   7.639   0.262   1.167
23375SOL    HW272060   7.531   0.252   1.045
23376SOL     OW72061   7.421   0.424   0.646
23376SOL    HW172062   7.334   0.453   0.686
23376SOL    HW272063   7.405   0.347   0.584
23377SOL     OW72064   8.031   1.307   1.205
23377SOL    HW172065   7.942   1.301   1.160
23377SOL    HW272066   8.053   1.404   1.221
23378SOL     OW72067   9.045   1.496   0.757
23378SOL    HW172068   9.021   1.433   0.831
23378SOL    HW272069   8.962   1.544   0.726
23379SOL     OW72070   8.555   0.727   0.649
23379SOL    HW172071   8.622   0.801   0.648
23379SOL    HW272072   8.497   0.736   0.730
23380SOL     OW72073   9.166   0.554   0.208
23380SOL    HW172074   9.100   0.609   0.158
23380SOL    HW272075   9.133   0.460   0.215
23381SOL     OW72076   8.170   1.117   1.049
23381SOL    HW172077   8.110   1.161   1.116
23381SOL    HW272078   8.236   1.185   1.014
23382SOL     OW72079   8.204   1.112   0.612
23382SOL    HW172080   8.258   1.061   0.679
23382SOL    HW272081   8.107   1.105   0.635
23383SOL     OW72082   8.065   1.223   1.934
23383SOL    HW172083   8.163   1.243   1.926
23383SOL    HW272084   8.019   1.248   1.849
23384SOL     OW72085   7.792   1.363   1.072
23384SOL    HW172086   7.715   1.308   1.041
23384SOL    HW272087   7.821   1.425   0.999
23385SOL     OW72088   8.900   1.470   1.404
23385SOL    HW172089   8.959   1.550   1.416
23385SOL    HW272090   8.813   1.485   1.451
23386SOL     OW72091   7.866   0.390   1.489
23386SOL    HW172092   7.957   0.350   1.495
23386SOL    HW272093   7.797   0.322   1.515
23387SOL     OW72094   7.712   1.694   0.477
23387SOL    HW172095   7.721   1.773   0.537
23387SOL    HW272096   7.799   1.678   0.430
23388SOL     OW72097   8.570   1.354   1.715
23388SOL    HW172098   8.593   1.355   1.812
23388SOL    HW272099   8.564   1.259   1.684
23389SOL     OW72100   7.694   1.421   0.465
23389SOL    HW172101   7.692   1.521   0.479
23389SOL    HW272102   7.664   1.376   0.549
23390SOL     OW72103   7.756   1.061   0.877
23390SOL    HW172104   7.764   0.965   0.902
23390SOL    HW272105   7.698   1.108   0.943
23391SOL     OW72106   8.086   1.764   1.445
23391SOL    HW172107   8.017   1.748   1.516
23391SOL    HW272108   8.103   1.862   1.437
23392SOL     OW72109   7.996   0.917   0.185
23392SOL    HW172110   7.959   0.992   0.131
23392SOL    HW272111   8.073   0.949   0.239
23393SOL     OW72112   9.000   0.030   1.503
23393SOL    HW172113   9.054   0.066   1.428
23393SOL    HW272114   8.989   0.101   1.573
23394SOL     OW72115   7.530   0.672   0.599
23394SOL    HW172116   7.495   0.580   0.618
23394SOL    HW272117   7.536   0.723   0.685
23395SOL     OW72118   9.339   1.739   0.332
23395SOL    HW172119   9.421   1.718   0.386
23395SOL    HW272120   9.340   1.836   0.307
23396SOL     OW72121   7.613   1.543   0.118
23396SOL    HW172122   7.552   1.469   0.089
23396SOL    HW272123   7.566   1.603   0.182
23397SOL     OW72124   9.159   0.957   0.708
23397SOL    HW172125   9.249   0.915   0.710
23397SOL    HW272126   9.145   1.003   0.620
23398SOL     OW72127   9.118   1.096   0.461
23398SOL    HW172128   9.190   1.072   0.397
23398SOL    HW272129   9.144   1.178   0.512
23399SOL     OW72130   7.595   0.751   1.552
23399SOL    HW172131   7.672   0.815   1.546
23399SOL    HW272132   7.515   0.791   1.508
23400SOL     OW72133   8.069   1.348   0.804
23400SOL    HW172134   8.015   1.265   0.792
23400SOL    HW272135   8.113   1.373   0.718
23401SOL     OW72136   8.671   1.231   1.407
23401SOL    HW172137   8.686   1.160   1.338
23401SOL    HW272138   8.736   1.218   1.481
23402SOL     OW72139   8.251   0.043   0.497
23402SOL    HW172140   8.296   0.129   0.475
23402SOL    HW272141   8.152   0.056   0.495
23403SOL     OW72142   7.662   0.960   1.338
23403SOL    HW172143   7.752   0.925   1.314
23403SOL    HW272144   7.591   0.909   1.289
23404SOL     OW72145   8.926   1.044   0.260
23404SOL    HW172146   8.871   0.964   0.281
23404SOL    HW272147   8.995   1.057   0.332
23405SOL     OW72148   8.638   1.796   1.612
23405SOL    HW172149   8.645   1.866   1.541
23405SOL    HW272150   8.650   1.705   1.570
23406SOL     OW72151   7.800   0.331   1.811
23406SOL    HW172152   7.865   0.357   1.882
23406SOL    HW272153   7.768   0.413   1.763
23407SOL     OW72154   8.966   1.341   0.965
23407SOL    HW172155   8.902   1.388   1.027
23407SOL    HW272156   8.930   1.251   0.942
23408SOL     OW72157   9.064   1.873   0.530
23408SOL    HW172158   9.064   1.810   0.452
23408SOL    HW272159   9.053   1.822   0.614
23409SOL     OW72160   7.989   0.665   0.299
23409SOL    HW172161   7.998   0.752   0.251
23409SOL    HW272162   7.918   0.672   0.369
23410SOL     OW72163   8.724   0.427   0.943
23410SOL    HW172164   8.641   0.372   0.950
23410SOL    HW272165   8.787   0.403   1.017
23411SOL     OW72166   9.069   1.708   0.318
23411SOL    HW172167   9.169   1.704   0.319
23411SOL    HW272168   9.035   1.667   0.233
23412SOL     OW72169   8.217   0.576   1.462
23412SOL    HW172170   8.216   0.524   1.547
23412SOL    HW272171   8.197   0.515   1.385
23413SOL     OW72172   8.832   0.572   1.683
23413SOL    HW172173   8.824   0.553   1.781
23413SOL    HW272174   8.905   0.516   1.644
23414SOL     OW72175   8.438   0.420   1.180
23414SOL    HW172176   8.343   0.428   1.211
23414SOL    HW272177   8.441   0.372   1.092
23415SOL     OW72178   8.513   0.701   0.375
23415SOL    HW172179   8.530   0.711   0.473
23415SOL    HW272180   8.419   0.670   0.361
23416SOL     OW72181   7.536   0.825   0.823
23416SOL    HW172182   7.625   0.809   0.866
23416SOL    HW272183   7.488   0.897   0.873
23417SOL     OW72184   8.315   0.380   0.195
23417SOL    HW172185   8.305   0.438   0.114
23417SOL    HW272186   8.322   0.284   0.166
23418SOL     OW72187   9.169   0.571   1.774
23418SOL    HW172188   9.129   0.662   1.775
23418SOL    HW272189   9.128   0.517   1.700
23419SOL     OW72190   8.847   1.147   0.559
23419SOL    HW172191   8.939   1.139   0.520
23419SOL    HW272192   8.793   1.210   0.503
23420SOL     OW72193   8.010   0.180   0.981
23420SOL    HW172194   8.006   0.194   1.080
23420SOL    HW272195   8.003   0.269   0.935
23421SOL     OW72196   8.508   1.513   0.470
23421SOL    HW172197   8.467   1.576   0.404
23421SOL    HW272198   8.471   1.531   0.561
23422SOL     OW72199   7.782   1.797   0.882
23422SOL    HW172200   7.824   1.706   0.887
23422SOL    HW272201   7.846   1.866   0.915
23423SOL     OW72202   9.265   1.059   0.956
23423SOL    HW172203   9.219   1.055   0.867
23423SOL    HW272204   9.197   1.060   1.029
23424SOL     OW72205   8.649   1.529   1.510
23424SOL    HW172206   8.636   1.465   1.586
23424SOL    HW272207   8.578   1.516   1.442
23425SOL     OW72208   7.756   0.898   0.327
23425SOL    HW172209   7.836   0.903   0.268
23425SOL    HW272210   7.757   0.811   0.377
23426SOL     OW72211   8.958   0.770   0.717
23426SOL    HW172212   8.935   0.733   0.808
23426SOL    HW272213   9.031   0.838   0.726
23427SOL     OW72214   7.907   1.327   1.732
23427SOL    HW172215   7.868   1.332   1.639
23427SOL    HW272216   7.833   1.310   1.797
23428SOL     OW72217   8.560   1.770   0.142
23428SOL    HW172218   8.496   1.737   0.210
23428SOL    HW272219   8.608   1.692   0.101
23429SOL     OW72220   7.682   0.207   1.585
23429SOL    HW172221   7.587   0.187   1.609
23429SOL    HW272222   7.734   0.225   1.669
23430SOL     OW72223   9.066   1.350   0.073
23430SOL    HW172224   9.038   1.446   0.079
23430SOL    HW272225   8.985   1.293   0.058
23431SOL     OW72226   7.954   1.689   0.357
23431SOL    HW172227   7.991   1.772   0.398
23431SOL    HW272228   8.028   1.635   0.316
23432SOL     OW72229   8.896   0.128   0.455
23432SOL    HW172230   8.888   0.139   0.355
23432SOL    HW272231   8.933   0.212   0.494
23433SOL     OW72232   7.698   1.776   1.197
23433SOL    HW172233   7.746   1.691   1.219
23433SOL    HW272234   7.642   1.762   1.115
23434SOL     OW72235   8.353   1.714   0.923
23434SOL    HW172236   8.347   1.651   1.001
23434SOL    HW272237   8.344   1.662   0.838
23435SOL     OW72238   7.774   0.663   0.471
23435SOL    HW172239   7.786   0.564   0.461
23435SOL    HW272240   7.689   0.682   0.520
23436SOL     OW72241   8.982   0.200   1.720
23436SOL    HW172242   9.070   0.219   1.763
23436SOL    HW272243   8.913   0.185   1.791
23437SOL     OW72244   8.086   0.154   0.082
23437SOL    HW172245   8.185   0.139   0.089
23437SOL    HW272246   8.058   0.144   9.987
23438SOL     OW72247   8.164   0.194   1.765
23438SOL    HW172248   8.246   0.136   1.765
23438SOL    HW272249   8.108   0.170   1.844
23439SOL     OW72250   8.327   1.532   1.128
23439SOL    HW172251   8.314   1.456   1.065
23439SOL    HW272252   8.376   1.501   1.209
23440SOL     OW72253   8.688   0.642   1.464
23440SOL    HW172254   8.738   0.620   1.548
23440SOL    HW272255   8.723   0.728   1.427
23441SOL     OW72256   8.308   1.336   0.943
23441SOL    HW172257   8.388   1.340   0.883
23441SOL    HW272258   8.225   1.344   0.888
23442SOL     OW72259   8.352   0.529   0.860
23442SOL    HW172260   8.321   0.522   0.765
23442SOL    HW272261   8.390   0.441   0.889
23443SOL     OW72262   7.983   0.084   0.484
23443SOL    HW172263   7.900   0.064   0.536
23443SOL    HW272264   7.960   0.139   0.404
23444SOL     OW72265   8.836   1.194   0.054
23444SOL    HW172266   8.871   1.134   0.126
23444SOL    HW272267   8.750   1.236   0.084
23445SOL     OW72268   7.791   9.975   0.220
23445SOL    HW172269   7.826   0.066   0.241
23445SOL    HW272270   7.824   9.910   0.288
23446SOL     OW72271   8.384   0.275   0.443
23446SOL    HW172272   8.357   0.316   0.356
23446SOL    HW272273   8.483   0.278   0.452
23447SOL     OW72274   8.433   0.731   1.456
23447SOL    HW172275   8.360   0.663   1.450
23447SOL    HW272276   8.522   0.685   1.451
23448SOL     OW72277   7.944   1.126   0.693
23448SOL    HW172278   7.883   1.095   0.765
23448SOL    HW272279   7.894   1.128   0.606
23449SOL     OW72280   8.729   1.839   0.655
23449SOL    HW172281   8.759   1.899   0.581
23449SOL    HW272282   8.634   1.861   0.678
23450SOL     OW72283   8.568   0.451   0.003
23450SOL    HW172284   8.476   0.490   9.988
23450SOL    HW272285   8.599   0.475   0.095
23451SOL     OW72286   7.525   0.525   1.393
23451SOL    HW172287   7.616   0.537   1.354
23451SOL    HW272288   7.509   0.595   1.463
23452SOL     OW72289   7.981   0.237   1.246
23452SOL    HW172290   8.024   0.221   1.334
23452SOL    HW272291   7.881   0.228   1.256
23453SOL     OW72292   8.271   0.488   0.598
23453SOL    HW172293   8.269   0.547   0.517
23453SOL    HW272294   8.306   0.398   0.572
23454SOL     OW72295   8.378   0.069   0.758
23454SOL    HW172296   8.339   0.073   0.665
23454SOL    HW272297   8.430   9.984   0.768
23455SOL     OW72298   8.877   1.090   0.911
23455SOL    HW172299   8.811   1.020   0.938
23455SOL    HW272300   8.885   1.092   0.811
23456SOL     OW72301   8.877   0.667   0.958
23456SOL    HW172302   8.822   0.584   0.949
23456SOL    HW272303   8.943   0.655   1.032
23457SOL     OW72304   9.291   0.757   0.366
23457SOL    HW172305   9.352   0.729   0.440
23457SOL    HW272306   9.260   0.676   0.315
23458SOL     OW72307   7.952   1.480   0.102
23458SOL    HW172308   7.853   1.480   0.118
23458SOL    HW272309   7.970   1.472   0.004
23459SOL     OW72310   9.192   1.298   0.618
23459SOL    HW172311   9.278   1.279   0.665
23459SOL    HW272312   9.147   1.375   0.663
23460SOL     OW72313   8.882   0.502   0.098
23460SOL    HW172314   8.801   0.502   0.157
23460SOL    HW272315   8.942   0.428   0.125
23461SOL     OW72316   7.905   0.230   0.262
23461SOL    HW172317   7.978   0.200   0.201
23461SOL    HW272318   7.867   0.317   0.229
23462SOL     OW72319   9.244   1.223   1.566
23462SOL    HW172320   9.283   1.172   1.643
23462SOL    HW272321   9.252   1.321   1.583
23463SOL     OW72322   8.460   1.384   1.326
23463SOL    HW172323   8.374   1.353   1.366
23463SOL    HW272324   8.536   1.328   1.361
23464SOL     OW72325   9.076   1.587   1.701
23464SOL    HW172326   9.043   1.628   1.616
23464SOL    HW272327   9.167   1.549   1.687
23465SOL     OW72328   8.599   1.292   1.096
23465SOL    HW172329   8.524   1.323   1.154
23465SOL    HW272330   8.575   1.309   1.000
23466SOL     OW72331   9.060   1.079   1.137
23466SOL    HW172332   9.058   1.155   1.202
23466SOL    HW272333   8.987   1.090   1.070
23467SOL     OW72334   8.318   0.131   1.378
23467SOL    HW172335   8.341   0.117   1.282
23467SOL    HW272336   8.393   0.179   1.424
23468SOL     OW72337   8.202   1.007   0.332
23468SOL    HW172338   8.222   1.037   0.425
23468SOL    HW272339   8.288   0.981   0.287
23469SOL     OW72340   7.895   0.823   1.284
23469SOL    HW172341   7.969   0.831   1.350
23469SOL    HW272342   7.851   0.734   1.293
23470SOL     OW72343   8.668   0.419   1.316
23470SOL    HW172344   8.677   0.503   1.369
23470SOL    HW272345   8.583   0.422   1.263
23471SOL     OW72346   7.512   1.559   1.344
23471SOL    HW172347   7.458   1.623   1.290
23471SOL    HW272348   7.610   1.579   1.331
23472SOL     OW72349   7.789   1.126   0.468
23472SOL    HW172350   7.779   1.195   0.397
23472SOL    HW272351   7.777   1.035   0.429
23473SOL     OW72352   7.975   0.438   0.896
23473SOL    HW172353   7.972   0.474   0.803
23473SOL    HW272354   8.037   0.493   0.951
23474SOL     OW72355   8.711   1.344   0.407
23474SOL    HW172356   8.789   1.403   0.385
23474SOL    HW272357   8.634   1.401   0.438
23475SOL     OW72358   8.805   1.456   1.152
23475SOL    HW172359   8.840   1.451   1.245
23475SOL    HW272360   8.729   1.392   1.141
23476SOL     OW72361   9.046   0.588   0.533
23476SOL    HW172362   9.009   0.653   0.599
23476SOL    HW272363   9.046   0.629   0.442
23477SOL     OW72364   7.802   1.536   1.276
23477SOL    HW172365   7.786   1.468   1.204
23477SOL    HW272366   7.899   1.557   1.281
23478SOL     OW72367   7.894   0.803   1.634
23478SOL    HW172368   7.973   0.816   1.574
23478SOL    HW272369   7.880   0.706   1.652
23479SOL     OW72370   9.000   0.801   1.730
23479SOL    HW172371   8.932   0.737   1.693
23479SOL    HW272372   9.019   0.872   1.662
23480SOL     OW72373   8.386   0.027   1.782
23480SOL    HW172374   8.440   0.094   1.834
23480SOL    HW272375   8.437   9.999   1.701
23481SOL     OW72376   8.032   0.865   1.051
23481SOL    HW172377   8.081   0.953   1.047
23481SOL    HW272378   7.984   0.857   1.139
23482SOL     OW72379   8.708   0.879   0.988
23482SOL    HW172380   8.616   0.848   0.968
23482SOL    HW272381   8.772   0.803   0.979
23483SOL     OW72382   8.657   0.493   0.259
23483SOL    HW172383   8.661   0.418   0.325
23483SOL    HW272384   8.609   0.571   0.298
23484SOL     OW72385   7.717   0.174   1.303
23484SOL    HW172386   7.697   0.188   1.400
23484SOL    HW272387   7.748   0.080   1.289
23485SOL     OW72388   7.508   1.295   1.269
23485SOL    HW172389   7.528   1.241   1.351
23485SOL    HW272390   7.501   1.391   1.293
23486SOL     OW72391   8.139   0.608   1.025
23486SOL    HW172392   8.218   0.598   0.963
23486SOL    HW272393   8.112   0.704   1.029
23487SOL     OW72394   9.135   0.987   1.895
23487SOL    HW172395   9.087   0.916   1.844
23487SOL    HW272396   9.077   1.018   1.971
23488SOL     OW72397   7.734   0.070   0.625
23488SOL    HW172398   7.707   0.166   0.633
23488SOL    HW272399   7.764   0.035   0.714
23489SOL     OW72400   8.449   0.772   0.946
23489SOL    HW172401   8.427   0.793   1.041
23489SOL    HW272402   8.423   0.678   0.925
23490SOL     OW72403   8.426   1.586   1.723
23490SOL    HW172404   8.414   1.628   1.633
23490SOL    HW272405   8.464   1.494   1.712
23491SOL     OW72406   9.315   1.484   1.611
23491SOL    HW172407   9.342   1.509   1.518
23491SOL    HW272408   9.394   1.496   1.672
23492SOL     OW72409   7.833   0.951   1.849
23492SOL    HW172410   7.905   0.953   1.919
23492SOL    HW272411   7.864   0.898   1.771
23493SOL     OW72412   9.038   0.298   0.183
23493SOL    HW172413   8.963   0.234   0.174
23493SOL    HW272414   9.124   0.248   0.194
23494SOL     OW72415   8.822   0.759   0.025
23494SOL    HW172416   8.836   0.662   0.043
23494SOL    HW272417   8.899   0.796   9.974
23495SOL     OW72418   7.780   0.790   0.952
23495SOL    HW172419   7.875   0.815   0.973
23495SOL    HW272420   7.763   0.697   0.983
23496SOL     OW72421   7.761   0.521   1.037
23496SOL    HW172422   7.694   0.448   1.050
23496SOL    HW272423   7.837   0.487   0.982
23497SOL     OW72424   8.591   0.399   1.729
23497SOL    HW172425   8.525   0.459   1.773
23497SOL    HW272426   8.672   0.451   1.703
23498SOL     OW72427   8.521   0.265   1.494
23498SOL    HW172428   8.537   0.304   1.585
23498SOL    HW272429   8.582   0.309   1.428
23499SOL     OW72430   7.472   1.212   0.142
23499SOL    HW172431   7.378   1.238   0.119
23499SOL    HW272432   7.471   1.125   0.192
23500SOL     OW72433   7.527   1.762   0.972
23500SOL    HW172434   7.478   1.691   0.921
23500SOL    HW272435   7.615   1.781   0.927
23501SOL     OW72436   7.920   1.552   0.910
23501SOL    HW172437   7.984   1.626   0.932
23501SOL    HW272438   7.970   1.476   0.868
23502SOL     OW72439   8.381   0.843   1.200
23502SOL    HW172440   8.410   0.794   1.282
23502SOL    HW272441   8.328   0.924   1.226
23503SOL     OW72442   7.380   0.479   1.167
23503SOL    HW172443   7.447   0.426   1.114
23503SOL    HW272444   7.423   0.511   1.252
23504SOL     OW72445   7.744   0.558   1.668
23504SOL    HW172446   7.791   0.507   1.596
23504SOL    HW272447   7.682   0.625   1.626
23505SOL     OW72448   8.256   0.598   0.348
23505SOL    HW172449   8.276   0.517   0.292
23505SOL    HW272450   8.163   0.630   0.329
23506SOL     OW72451   9.053   0.620   1.172
23506SOL    HW172452   8.998   0.536   1.181
23506SOL    HW272453   9.149   0.598   1.189
23507SOL     OW72454   7.601   1.510   1.769
23507SOL    HW172455   7.551   1.556   1.842
23507SOL    HW272456   7.641   1.425   1.803
23508SOL     OW72457   8.169   0.438   1.232
23508SOL    HW172458   8.099   0.367   1.228
23508SOL    HW272459   8.153   0.505   1.160
23509SOL     OW72460   8.353   1.698   1.483
23509SOL    HW172461   8.254   1.691   1.476
23509SOL    HW272462   8.385   1.779   1.435
23510SOL     OW72463   7.826   0.475   0.161
23510SOL    HW172464   7.890   0.539   0.203
23510SOL    HW272465   7.733   0.511   0.169
23511SOL     OW72466   7.573   1.154   1.499
23511SOL    HW172467   7.585   1.123   1.593
23511SOL    HW272468   7.608   1.084   1.436
23512SOL     OW72469   8.696   1.059   1.192
23512SOL    HW172470   8.698   0.987   1.123
23512SOL    HW272471   8.661   1.143   1.152
23513SOL     OW72472   8.774   0.820   0.291
23513SOL    HW172473   8.685   0.785   0.322
23513SOL    HW272474   8.785   0.800   0.193
23514SOL     OW72475   9.231   1.671   1.211
23514SOL    HW172476   9.276   1.731   1.144
23514SOL    HW272477   9.203   1.586   1.166
23515SOL     OW72478   7.575   1.197   1.025
23515SOL    HW172479   7.547   1.231   1.115
23515SOL    HW272480   7.500   1.146   0.984
23516SOL     OW72481   8.185   1.663   1.806
23516SOL    HW172482   8.165   1.758   1.779
23516SOL    HW272483   8.279   1.641   1.782
23517SOL     OW72484   8.356   0.121   0.116
23517SOL    HW172485   8.446   0.141   0.076
23517SOL    HW272486   8.364   0.043   0.178
23518SOL     OW72487   9.278   0.205   0.481
23518SOL    HW172488   9.265   0.189   0.383
23518SOL    HW272489   9.291   0.117   0.527
23519SOL     OW72490   7.530   1.849   1.806
23519SOL    HW172491   7.470   1.773   1.831
23519SOL    HW272492   7.595   1.865   1.881
23520SOL     OW72493   8.738   0.925   0.661
23520SOL    HW172494   8.815   0.862   0.675
23520SOL    HW272495   8.770   1.006   0.612
23521SOL     OW72496   8.215   1.297   1.417
23521SOL    HW172497   8.184   1.356   1.492
23521SOL    HW272498   8.142   1.291   1.348
23522SOL     OW72499   9.063   1.684   1.431
23522SOL    HW172500   9.122   1.678   1.350
23522SOL    HW272501   9.053   1.780   1.458
23523SOL     OW72502   9.257   0.157   1.016
23523SOL    HW172503   9.316   0.092   0.968
23523SOL    HW272504   9.168   0.161   0.968
23524SOL     OW72505   7.672   0.325   0.692
23524SOL    HW172506   7.581   0.365   0.682
23524SOL    HW272507   7.703   0.339   0.786
23525SOL     OW72508   8.698   1.552   0.047
23525SOL    HW172509   8.664   1.462   0.077
23525SOL    HW272510   8.720   1.547   9.949
23526SOL     OW72511   8.283   1.028   1.406
23526SOL    HW172512   8.375   1.017   1.444
23526SOL    HW272513   8.255   1.124   1.413
23527SOL     OW72514   8.430   0.914   0.207
23527SOL    HW172515   8.471   0.910   0.116
23527SOL    HW272516   8.468   0.841   0.263
23528SOL     OW72517   8.958   1.626   0.079
23528SOL    HW172518   8.862   1.599   0.076
23528SOL    HW272519   8.987   1.656   9.989
23529SOL     OW72520   7.782   1.353   1.496
23529SOL    HW172521   7.784   1.414   1.416
23529SOL    HW272522   7.707   1.288   1.486
23530SOL     OW72523   9.086   1.279   1.335
23530SOL    HW172524   9.140   1.253   1.415
23530SOL    HW272525   9.013   1.341   1.363
23531SOL     OW72526   8.549   1.095   0.775
23531SOL    HW172527   8.462   1.049   0.794
23531SOL    HW272528   8.613   1.029   0.736
23532SOL     OW72529   8.454   0.262   0.952
23532SOL    HW172530   8.438   0.219   0.864
23532SOL    HW272531   8.439   0.196   1.025
23533SOL     OW72532   9.153   0.350   1.346
23533SOL    HW172533   9.219   0.413   1.304
23533SOL    HW272534   9.172   0.257   1.316
23534SOL     OW72535   7.726   1.275   0.239
23534SOL    HW172536   7.636   1.257   0.199
23534SOL    HW272537   7.719   1.347   0.308
23535SOL     OW72538   7.602   1.038   1.747
23535SOL    HW172539   7.528   0.978   1.778
23535SOL    HW272540   7.690   1.003   1.782
23536SOL     OW72541   8.093   0.227   1.497
23536SOL    HW172542   8.178   0.200   1.452
23536SOL    HW272543   8.103   0.217   1.596
23537SOL     OW72544   7.592   0.445   9.886
23537SOL    HW172545   7.534   0.378   9.839
23537SOL    HW272546   7.687   0.416   9.881
23538SOL     OW72547   8.787   0.872   1.373
23538SOL    HW172548   8.744   0.941   1.314
23538SOL    HW272549   8.885   0.869   1.353
23539SOL     OW72550   8.605   1.315   0.138
23539SOL    HW172551   8.508   1.317   0.113
23539SOL    HW272552   8.613   1.303   0.237
23540SOL     OW72553   8.102   0.824   1.458
23540SOL    HW172554   8.168   0.898   1.442
23540SOL    HW272555   8.150   0.737   1.460
23541SOL     OW72556   8.974   1.882   1.088
23541SOL    HW172557   9.024   1.850   1.008
23541SOL    HW272558   8.902   1.816   1.111
23542SOL     OW72559   8.232   0.452   1.700
23542SOL    HW172560   8.290   0.494   1.770
23542SOL    HW272561   8.204   0.361   1.730
23543SOL     OW72562   8.842   1.156   1.626
23543SOL    HW172563   8.861   1.193   1.717
23543SOL    HW272564   8.919   1.100   1.596
23544SOL     OW72565   9.051   0.866   1.305
23544SOL    HW172566   9.055   0.777   1.260
23544SOL    HW272567   9.063   0.938   1.237
23545SOL     OW72568   8.658   0.303   0.462
23545SOL    HW172569   8.727   0.231   0.471
23545SOL    HW272570   8.662   0.363   0.541
23546SOL     OW72571   7.994   0.569   0.665
23546SOL    HW172572   8.082   0.547   0.623
23546SOL    HW272573   7.934   0.610   0.596
23547SOL     OW72574   9.038   0.426   1.583
23547SOL    HW172575   9.077   0.408   1.493
23547SOL    HW272576   9.014   0.339   1.627
23548SOL     OW72577   9.059   0.999   1.548
23548SOL    HW172578   9.130   1.070   1.551
23548SOL    HW272579   9.062   0.952   1.459
23549SOL     OW72580   8.338   1.380   0.043
23549SOL    HW172581   8.276   1.309   0.008
23549SOL    HW272582   8.288   1.440   0.105
23550SOL     OW72583   8.082   1.763   0.940
23550SOL    HW172584   8.053   1.859   0.937
23550SOL    HW272585   8.182   1.759   0.935
23551SOL     OW72586   8.310   0.983   0.840
23551SOL    HW172587   8.353   0.900   0.875
23551SOL    HW272588   8.248   1.021   0.909
23552SOL     OW72589   8.581   0.879   9.959
23552SOL    HW172590   8.602   0.965   9.913
23552SOL    HW272591   8.667   0.833   9.983
23553SOL     OW72592   9.260   1.590   0.906
23553SOL    HW172593   9.192   1.572   0.835
23553SOL    HW272594   9.255   1.518   0.976
23554SOL     OW72595   7.678   1.270   1.870
23554SOL    HW172596   7.659   1.187   1.818
23554SOL    HW272597   7.616   1.275   1.949
23555SOL     OW72598   7.632   1.232   0.667
23555SOL    HW172599   7.657   1.188   0.753
23555SOL    HW272600   7.682   1.188   0.592
23556SOL     OW72601   8.118   1.458   1.622
23556SOL    HW172602   8.044   1.404   1.664
23556SOL    HW272603   8.147   1.529   1.686
23557SOL     OW72604   9.152   0.073   1.257
23557SOL    HW172605   9.101   9.989   1.238
23557SOL    HW272606   9.194   0.106   1.172
23558SOL     OW72607   7.808   0.402   0.468
23558SOL    HW172608   7.844   0.326   0.413
23558SOL    HW272609   7.765   0.366   0.551
23559SOL     OW72610   9.176   1.422   1.113
23559SOL    HW172611   9.105   1.391   1.049
23559SOL    HW272612   9.167   1.372   1.199
23560SOL     OW72613   7.781   0.575   1.303
23560SOL    HW172614   7.827   0.504   1.357
23560SOL    HW272615   7.784   0.551   1.206
23561SOL     OW72616   8.313   1.596   0.673
23561SOL    HW172617   8.287   1.673   0.615
23561SOL    HW272618   8.271   1.512   0.640
23562SOL     OW72619   8.889   0.393   1.164
23562SOL    HW172620   8.947   0.316   1.193
23562SOL    HW272621   8.810   0.400   1.225
23563SOL     OW72622   8.382   0.046   1.120
23563SOL    HW172623   8.305   0.017   1.064
23563SOL    HW272624   8.441   9.967   1.137
23564SOL     OW72625   8.078   1.573   1.254
23564SOL    HW172626   8.083   1.644   1.324
23564SOL    HW272627   8.162   1.574   1.200
23565SOL     OW72628   8.846   0.093   0.182
23565SOL    HW172629   8.922   0.035   0.153
23565SOL    HW272630   8.770   0.035   0.212
23566SOL     OW72631   8.655   0.469   0.673
23566SOL    HW172632   8.620   0.562   0.662
23566SOL    HW272633   8.690   0.458   0.766
23567SOL     OW72634   7.495   0.972   0.278
23567SOL    HW172635   7.593   0.963   0.294
23567SOL    HW272636   7.448   0.891   0.312
23568SOL     OW72637   8.362   1.688   0.315
23568SOL    HW172638   8.283   1.635   0.284
23568SOL    HW272639   8.331   1.761   0.375
23569SOL     OW72640   7.674   0.622   1.938
23569SOL    HW172641   7.577   0.640   1.950
23569SOL    HW272642   7.695   0.615   1.841
23570SOL     OW72643   7.656   0.298   2.883
23570SOL    HW172644   7.720   0.259   2.950
23570SOL    HW272645   7.577   0.238   2.873
23571SOL     OW72646   7.427   0.433   2.503
23571SOL    HW172647   7.339   0.448   2.547
23571SOL    HW272648   7.420   0.358   2.438
23572SOL     OW72649   8.017   1.305   3.112
23572SOL    HW172650   7.935   1.300   3.055
23572SOL    HW272651   8.036   1.401   3.135
23573SOL     OW72652   9.040   1.512   2.560
23573SOL    HW172653   8.999   1.469   2.641
23573SOL    HW272654   8.971   1.518   2.487
23574SOL     OW72655   8.529   0.751   2.549
23574SOL    HW172656   8.582   0.831   2.522
23574SOL    HW272657   8.494   0.764   2.642
23575SOL     OW72658   9.252   0.556   2.042
23575SOL    HW172659   9.217   0.570   1.950
23575SOL    HW272660   9.193   0.491   2.091
23576SOL     OW72661   8.164   1.131   2.950
23576SOL    HW172662   8.111   1.166   3.027
23576SOL    HW272663   8.200   1.207   2.896
23577SOL     OW72664   8.318   0.736   3.721
23577SOL    HW172665   8.311   0.794   3.802
23577SOL    HW272666   8.333   0.793   3.640
23578SOL     OW72667   8.130   0.972   2.542
23578SOL    HW172668   8.198   0.979   2.616
23578SOL    HW272669   8.047   1.021   2.569
23579SOL     OW72670   8.133   1.155   3.715
23579SOL    HW172671   8.176   1.229   3.766
23579SOL    HW272672   8.052   1.191   3.667
23580SOL     OW72673   7.803   1.353   2.943
23580SOL    HW172674   7.742   1.288   2.898
23580SOL    HW272675   7.842   1.415   2.875
23581SOL     OW72676   8.886   1.505   3.229
23581SOL    HW172677   8.942   1.588   3.233
23581SOL    HW272678   8.810   1.513   3.293
23582SOL     OW72679   7.961   0.408   3.283
23582SOL    HW172680   8.034   0.378   3.345
23582SOL    HW272681   7.875   0.364   3.308
23583SOL     OW72682   9.046   0.504   2.597
23583SOL    HW172683   9.028   0.533   2.503
23583SOL    HW272684   8.994   0.562   2.660
23584SOL     OW72685   7.672   1.757   2.325
23584SOL    HW172686   7.700   1.815   2.401
23584SOL    HW272687   7.748   1.747   2.261
23585SOL     OW72688   8.556   1.339   3.584
23585SOL    HW172689   8.608   1.328   3.668
23585SOL    HW272690   8.494   1.261   3.573
23586SOL     OW72691   7.587   1.506   2.390
23586SOL    HW172692   7.613   1.602   2.375
23586SOL    HW272693   7.518   1.501   2.462
23587SOL     OW72694   7.687   1.020   2.774
23587SOL    HW172695   7.733   0.932   2.781
23587SOL    HW272696   7.630   1.035   2.854
23588SOL     OW72697   8.005   1.818   3.285
23588SOL    HW172698   7.913   1.795   3.316
23588SOL    HW272699   8.064   1.833   3.365
23589SOL     OW72700   8.002   1.002   2.085
23589SOL    HW172701   8.019   1.080   2.025
23589SOL    HW272702   8.065   1.006   2.162
23590SOL     OW72703   8.952   0.100   3.221
23590SOL    HW172704   9.047   0.124   3.201
23590SOL    HW272705   8.902   0.182   3.250
23591SOL     OW72706   7.557   0.668   2.430
23591SOL    HW172707   7.517   0.579   2.453
23591SOL    HW272708   7.561   0.725   2.513
23592SOL     OW72709   9.241   1.772   2.205
23592SOL    HW172710   9.213   1.786   2.300
23592SOL    HW272711   9.287   1.854   2.171
23593SOL     OW72712   7.431   1.615   1.949
23593SOL    HW172713   7.365   1.541   1.960
23593SOL    HW272714   7.440   1.666   2.035
23594SOL     OW72715   9.124   0.904   2.518
23594SOL    HW172716   9.214   0.899   2.560
23594SOL    HW272717   9.122   0.979   2.453
23595SOL     OW72718   9.107   1.123   2.340
23595SOL    HW172719   9.182   1.093   2.280
23595SOL    HW272720   9.143   1.187   2.407
23596SOL     OW72721   7.535   0.769   3.362
23596SOL    HW172722   7.592   0.828   3.303
23596SOL    HW272723   7.447   0.813   3.377
23597SOL     OW72724   8.049   1.348   2.602
23597SOL    HW172725   8.001   1.261   2.613
23597SOL    HW272726   8.044   1.377   2.506
23598SOL     OW72727   8.674   1.211   3.280
23598SOL    HW172728   8.703   1.148   3.208
23598SOL    HW272729   8.750   1.269   3.307
23599SOL     OW72730   8.243   0.068   2.403
23599SOL    HW172731   8.271   0.159   2.373
23599SOL    HW272732   8.143   0.062   2.404
23600SOL     OW72733   7.658   0.945   3.192
23600SOL    HW172734   7.749   0.910   3.170
23600SOL    HW272735   7.613   0.976   3.107
23601SOL     OW72736   8.960   1.081   2.096
23601SOL    HW172737   8.877   1.031   2.120
23601SOL    HW272738   9.011   1.103   2.179
23602SOL     OW72739   8.637   1.815   3.491
23602SOL    HW172740   8.651   1.880   3.417
23602SOL    HW272741   8.657   1.722   3.457
23603SOL     OW72742   7.866   0.300   3.568
23603SOL    HW172743   7.942   0.365   3.569
23603SOL    HW272744   7.794   0.333   3.629
23604SOL     OW72745   8.936   1.383   2.777
23604SOL    HW172746   8.875   1.420   2.847
23604SOL    HW272747   8.906   1.291   2.753
23605SOL     OW72748   9.059   1.774   2.418
23605SOL    HW172749   9.026   1.725   2.337
23605SOL    HW272750   9.059   1.712   2.497
23606SOL     OW72751   8.003   0.713   2.147
23606SOL    HW172752   8.008   0.809   2.119
23606SOL    HW272753   7.942   0.704   2.226
23607SOL     OW72754   8.723   0.424   2.780
23607SOL    HW172755   8.633   0.381   2.783
23607SOL    HW272756   8.788   0.370   2.832
23608SOL     OW72757   8.995   1.664   2.166
23608SOL    HW172758   9.090   1.698   2.164
23608SOL    HW272759   8.959   1.662   2.073
23609SOL     OW72760   8.247   0.560   3.345
23609SOL    HW172761   8.218   0.489   3.410
23609SOL    HW272762   8.229   0.528   3.252
23610SOL     OW72763   8.840   0.452   3.535
23610SOL    HW172764   8.835   0.510   3.617
23610SOL    HW272765   8.897   0.372   3.554
23611SOL     OW72766   8.374   0.877   3.487
23611SOL    HW172767   8.434   0.813   3.439
23611SOL    HW272768   8.314   0.922   3.421
23612SOL     OW72769   8.479   0.449   3.039
23612SOL    HW172770   8.385   0.465   3.071
23612SOL    HW272771   8.477   0.388   2.959
23613SOL     OW72772   8.458   0.717   2.284
23613SOL    HW172773   8.472   0.716   2.383
23613SOL    HW272774   8.373   0.670   2.262
23614SOL     OW72775   7.548   1.886   3.495
23614SOL    HW172776   7.556   1.846   3.586
23614SOL    HW272777   7.452   1.898   3.471
23615SOL     OW72778   8.324   0.360   2.039
23615SOL    HW172779   8.347   0.439   1.982
23615SOL    HW272780   8.378   0.281   2.009
23616SOL     OW72781   9.101   0.597   3.711
23616SOL    HW172782   9.093   0.683   3.661
23616SOL    HW272783   9.143   0.527   3.653
23617SOL     OW72784   8.840   1.175   2.433
23617SOL    HW172785   8.932   1.163   2.394
23617SOL    HW272786   8.787   1.237   2.374
23618SOL     OW72787   8.054   0.162   2.812
23618SOL    HW172788   8.072   0.182   2.909
23618SOL    HW272789   8.054   0.247   2.760
23619SOL     OW72790   8.444   1.468   2.351
23619SOL    HW172791   8.424   1.544   2.289
23619SOL    HW272792   8.400   1.486   2.439
23620SOL     OW72793   7.778   1.767   2.781
23620SOL    HW172794   7.819   1.677   2.768
23620SOL    HW272795   7.849   1.833   2.804
23621SOL     OW72796   9.259   1.119   2.751
23621SOL    HW172797   9.227   1.175   2.674
23621SOL    HW272798   9.185   1.109   2.817
23622SOL     OW72799   8.664   1.521   3.386
23622SOL    HW172800   8.640   1.453   3.455
23622SOL    HW272801   8.582   1.552   3.339
23623SOL     OW72802   7.733   0.949   2.155
23623SOL    HW172803   7.823   0.981   2.127
23623SOL    HW272804   7.714   0.861   2.112
23624SOL     OW72805   8.889   0.780   2.533
23624SOL    HW172806   8.878   0.735   2.622
23624SOL    HW272807   8.977   0.828   2.531
23625SOL     OW72808   7.911   1.281   3.603
23625SOL    HW172809   7.880   1.291   3.508
23625SOL    HW272810   7.833   1.292   3.665
23626SOL     OW72811   8.604   1.797   2.095
23626SOL    HW172812   8.521   1.768   2.143
23626SOL    HW272813   8.623   1.734   2.021
23627SOL     OW72814   7.715   0.299   3.332
23627SOL    HW172815   7.648   0.373   3.326
23627SOL    HW272816   7.743   0.288   3.427
23628SOL     OW72817   9.072   1.395   1.908
23628SOL    HW172818   9.072   1.467   1.839
23628SOL    HW272819   8.990   1.339   1.899
23629SOL     OW72820   7.905   1.768   2.172
23629SOL    HW172821   7.947   1.822   2.245
23629SOL    HW272822   7.974   1.708   2.131
23630SOL     OW72823   8.747   0.124   2.348
23630SOL    HW172824   8.786   0.091   2.262
23630SOL    HW272825   8.810   0.104   2.423
23631SOL     OW72826   7.696   1.778   3.050
23631SOL    HW172827   7.731   1.698   3.099
23631SOL    HW272828   7.720   1.771   2.953
23632SOL     OW72829   8.372   1.697   2.720
23632SOL    HW172830   8.463   1.656   2.718
23632SOL    HW272831   8.313   1.650   2.654
23633SOL     OW72832   7.835   0.664   2.358
23633SOL    HW172833   7.849   0.566   2.370
23633SOL    HW272834   7.739   0.687   2.374
23634SOL     OW72835   8.993   0.233   3.632
23634SOL    HW172836   8.996   0.246   3.731
23634SOL    HW272837   9.006   0.136   3.611
23635SOL     OW72838   8.031   0.078   1.981
23635SOL    HW172839   8.092   0.020   2.035
23635SOL    HW272840   7.980   0.021   1.917
23636SOL     OW72841   8.230   0.199   3.695
23636SOL    HW172842   8.300   0.134   3.664
23636SOL    HW272843   8.162   0.151   3.749
23637SOL     OW72844   8.290   1.486   3.064
23637SOL    HW172845   8.264   1.457   2.972
23637SOL    HW272846   8.341   1.412   3.109
23638SOL     OW72847   8.753   0.613   3.320
23638SOL    HW172848   8.797   0.571   3.399
23638SOL    HW272849   8.785   0.708   3.312
23639SOL     OW72850   8.238   1.354   2.814
23639SOL    HW172851   8.330   1.363   2.776
23639SOL    HW272852   8.172   1.350   2.739
23640SOL     OW72853   8.383   0.531   2.737
23640SOL    HW172854   8.338   0.519   2.648
23640SOL    HW272855   8.417   0.442   2.769
23641SOL     OW72856   7.969   0.072   2.379
23641SOL    HW172857   7.884   0.066   2.431
23641SOL    HW272858   7.953   0.128   2.297
23642SOL     OW72859   8.851   1.233   1.894
23642SOL    HW172860   8.892   1.173   1.964
23642SOL    HW272861   8.763   1.267   1.926
23643SOL     OW72862   7.686   0.177   2.010
23643SOL    HW172863   7.720   0.223   1.927
23643SOL    HW272864   7.756   0.182   2.081
23644SOL     OW72865   8.345   0.302   2.309
23644SOL    HW172866   8.319   0.321   2.214
23644SOL    HW272867   8.442   0.324   2.322
23645SOL     OW72868   8.485   0.697   3.313
23645SOL    HW172869   8.413   0.630   3.331
23645SOL    HW272870   8.574   0.652   3.314
23646SOL     OW72871   8.624   1.605   2.666
23646SOL    HW172872   8.656   1.653   2.584
23646SOL    HW272873   8.672   1.641   2.746
23647SOL     OW72874   7.899   1.117   2.606
23647SOL    HW172875   7.832   1.082   2.671
23647SOL    HW272876   7.858   1.121   2.515
23648SOL     OW72877   8.693   1.780   2.458
23648SOL    HW172878   8.751   1.845   2.409
23648SOL    HW272879   8.611   1.827   2.491
23649SOL     OW72880   8.426   0.561   1.878
23649SOL    HW172881   8.422   0.646   1.826
23649SOL    HW272882   8.483   0.575   1.960
23650SOL     OW72883   7.574   0.533   3.232
23650SOL    HW172884   7.663   0.544   3.189
23650SOL    HW272885   7.552   0.615   3.285
23651SOL     OW72886   8.091   0.228   3.072
23651SOL    HW172887   8.150   0.193   3.144
23651SOL    HW272888   7.995   0.223   3.102
23652SOL     OW72889   8.237   0.485   2.512
23652SOL    HW172890   8.186   0.566   2.486
23652SOL    HW272891   8.264   0.434   2.430
23653SOL     OW72892   8.387   0.087   2.657
23653SOL    HW172893   8.327   0.086   2.578
23653SOL    HW272894   8.403   9.993   2.689
23654SOL     OW72895   8.858   1.125   2.724
23654SOL    HW172896   8.803   1.047   2.753
23654SOL    HW272897   8.848   1.137   2.625
23655SOL     OW72898   8.877   0.653   2.776
23655SOL    HW172899   8.814   0.576   2.784
23655SOL    HW272900   8.939   0.654   2.854
23656SOL     OW72901   9.228   0.763   2.220
23656SOL    HW172902   9.295   0.752   2.294
23656SOL    HW272903   9.244   0.693   2.150
23657SOL     OW72904   7.934   1.410   2.094
23657SOL    HW172905   7.842   1.386   2.124
23657SOL    HW272906   7.973   1.334   2.042
23658SOL     OW72907   9.214   1.285   2.530
23658SOL    HW172908   9.312   1.300   2.518
23658SOL    HW272909   9.167   1.373   2.533
23659SOL     OW72910   8.796   0.516   1.945
23659SOL    HW172911   8.716   0.530   2.005
23659SOL    HW272912   8.840   0.430   1.968
23660SOL     OW72913   7.915   0.241   2.164
23660SOL    HW172914   7.965   0.184   2.099
23660SOL    HW272915   7.909   0.334   2.128
23661SOL     OW72916   9.141   1.232   3.403
23661SOL    HW172917   9.220   1.293   3.406
23661SOL    HW272918   9.073   1.261   3.470
23662SOL     OW72919   8.426   1.287   3.191
23662SOL    HW172920   8.347   1.271   3.250
23662SOL    HW272921   8.510   1.261   3.240
23663SOL     OW72922   9.256   1.704   3.387
23663SOL    HW172923   9.172   1.720   3.335
23663SOL    HW272924   9.259   1.609   3.418
23664SOL     OW72925   8.584   1.272   2.969
23664SOL    HW172926   8.515   1.278   3.041
23664SOL    HW272927   8.544   1.301   2.882
23665SOL     OW72928   9.050   1.107   2.936
23665SOL    HW172929   9.040   1.176   3.008
23665SOL    HW272930   8.974   1.116   2.871
23666SOL     OW72931   8.284   0.156   3.261
23666SOL    HW172932   8.289   0.057   3.249
23666SOL    HW272933   8.377   0.194   3.265
23667SOL     OW72934   8.389   1.118   3.611
23667SOL    HW172935   8.296   1.139   3.640
23667SOL    HW272936   8.390   1.032   3.560
23668SOL     OW72937   8.194   1.031   2.280
23668SOL    HW172938   8.175   1.003   2.374
23668SOL    HW272939   8.287   1.004   2.256
23669SOL     OW72940   7.898   0.818   3.155
23669SOL    HW172941   7.957   0.812   3.236
23669SOL    HW272942   7.861   0.728   3.134
23670SOL     OW72943   8.725   0.412   3.139
23670SOL    HW172944   8.746   0.486   3.203
23670SOL    HW272945   8.639   0.432   3.092
23671SOL     OW72946   7.504   1.551   3.193
23671SOL    HW172947   7.462   1.621   3.136
23671SOL    HW272948   7.604   1.559   3.187
23672SOL     OW72949   7.782   1.129   2.363
23672SOL    HW172950   7.757   1.213   2.314
23672SOL    HW272951   7.764   1.050   2.305
23673SOL     OW72952   8.056   0.424   2.718
23673SOL    HW172953   8.102   0.432   2.630
23673SOL    HW272954   8.091   0.493   2.781
23674SOL     OW72955   8.685   1.360   2.274
23674SOL    HW172956   8.751   1.430   2.303
23674SOL    HW272957   8.594   1.384   2.307
23675SOL     OW72958   8.778   1.461   2.984
23675SOL    HW172959   8.815   1.475   3.076
23675SOL    HW272960   8.708   1.391   2.986
23676SOL     OW72961   9.019   0.619   2.344
23676SOL    HW172962   8.949   0.674   2.391
23676SOL    HW272963   9.085   0.680   2.301
23677SOL     OW72964   7.777   1.528   3.150
23677SOL    HW172965   7.773   1.460   3.077
23677SOL    HW272966   7.873   1.552   3.167
23678SOL     OW72967   7.922   0.709   3.578
23678SOL    HW172968   7.965   0.748   3.496
23678SOL    HW272969   7.986   0.647   3.624
23679SOL     OW72970   9.069   0.830   3.571
23679SOL    HW172971   8.973   0.860   3.569
23679SOL    HW272972   9.116   0.864   3.491
23680SOL     OW72973   8.419   0.006   3.619
23680SOL    HW172974   8.480   0.068   3.669
23680SOL    HW272975   8.459   9.982   3.531
23681SOL     OW72976   7.963   0.043   3.584
23681SOL    HW172977   8.035   0.022   3.517
23681SOL    HW272978   7.929   0.136   3.567
23682SOL     OW72979   8.057   0.873   2.939
23682SOL    HW172980   8.094   0.966   2.938
23682SOL    HW272981   7.999   0.861   3.020
23683SOL     OW72982   8.728   0.888   2.830
23683SOL    HW172983   8.633   0.857   2.828
23683SOL    HW272984   8.789   0.811   2.812
23684SOL     OW72985   8.584   0.548   2.111
23684SOL    HW172986   8.597   0.469   2.170
23684SOL    HW272987   8.545   0.624   2.165
23685SOL     OW72988   7.804   0.185   3.100
23685SOL    HW172989   7.766   0.227   3.183
23685SOL    HW272990   7.811   0.086   3.113
23686SOL     OW72991   7.533   1.281   3.146
23686SOL    HW172992   7.549   1.239   3.235
23686SOL    HW272993   7.512   1.378   3.157
23687SOL     OW72994   8.158   0.625   2.874
23687SOL    HW172995   8.241   0.621   2.818
23687SOL    HW272996   8.127   0.720   2.881
23688SOL     OW72997   9.187   1.011   3.742
23688SOL    HW172998   9.149   0.941   3.681
23688SOL    HW272999   9.127   1.022   3.822
23689SOL     OW73000   7.722   0.063   2.514
23689SOL    HW173001   7.695   0.158   2.525
23689SOL    HW273002   7.760   0.029   2.601
23690SOL     OW73003   9.086   0.396   2.191
23690SOL    HW173004   9.145   0.337   2.247
23690SOL    HW273005   9.047   0.468   2.249
23691SOL     OW73006   8.468   0.774   2.830
23691SOL    HW173007   8.444   0.787   2.926
23691SOL    HW273008   8.450   0.679   2.804
23692SOL     OW73009   8.411   1.569   3.555
23692SOL    HW173010   8.408   1.603   3.461
23692SOL    HW273011   8.452   1.478   3.556
23693SOL     OW73012   9.326   1.435   3.422
23693SOL    HW173013   9.361   1.464   3.333
23693SOL    HW273014   9.394   1.454   3.492
23694SOL     OW73015   7.816   0.907   3.751
23694SOL    HW173016   7.898   0.934   3.802
23694SOL    HW273017   7.838   0.833   3.688
23695SOL     OW73018   8.903   0.281   2.016
23695SOL    HW173019   8.872   0.191   2.049
23695SOL    HW273020   8.975   0.315   2.076
23696SOL     OW73021   8.835   0.787   1.960
23696SOL    HW173022   8.823   0.687   1.963
23696SOL    HW273023   8.894   0.811   1.883
23697SOL     OW73024   8.493   1.367   2.726
23697SOL    HW173025   8.507   1.287   2.667
23697SOL    HW273026   8.550   1.442   2.693
23698SOL     OW73027   7.822   0.790   2.809
23698SOL    HW173028   7.913   0.817   2.841
23698SOL    HW273029   7.814   0.690   2.814
23699SOL     OW73030   7.825   0.510   2.843
23699SOL    HW173031   7.757   0.438   2.851
23699SOL    HW273032   7.901   0.479   2.787
23700SOL     OW73033   8.582   0.366   3.542
23700SOL    HW173034   8.534   0.428   3.603
23700SOL    HW273035   8.675   0.398   3.527
23701SOL     OW73036   8.544   0.252   3.286
23701SOL    HW173037   8.548   0.277   3.383
23701SOL    HW273038   8.606   0.310   3.234
23702SOL     OW73039   7.479   1.263   2.056
23702SOL    HW173040   7.399   1.300   2.007
23702SOL    HW273041   7.456   1.172   2.092
23703SOL     OW73042   7.495   1.749   2.779
23703SOL    HW173043   7.465   1.669   2.726
23703SOL    HW273044   7.594   1.756   2.775
23704SOL     OW73045   7.918   1.527   2.766
23704SOL    HW173046   7.991   1.588   2.797
23704SOL    HW273047   7.953   1.463   2.698
23705SOL     OW73048   8.370   0.800   3.083
23705SOL    HW173049   8.423   0.772   3.163
23705SOL    HW273050   8.279   0.760   3.088
23706SOL     OW73051   7.458   0.490   2.983
23706SOL    HW173052   7.521   0.431   2.931
23706SOL    HW273053   7.498   0.511   3.072
23707SOL     OW73054   7.670   0.610   3.551
23707SOL    HW173055   7.762   0.649   3.559
23707SOL    HW273056   7.613   0.669   3.494
23708SOL     OW73057   8.823   0.945   3.538
23708SOL    HW173058   8.827   1.041   3.563
23708SOL    HW273059   8.812   0.937   3.439
23709SOL     OW73060   8.242   0.585   2.198
23709SOL    HW173061   8.244   0.502   2.142
23709SOL    HW273062   8.155   0.633   2.182
23710SOL     OW73063   9.050   0.641   2.986
23710SOL    HW173064   9.025   0.567   3.048
23710SOL    HW273065   9.147   0.632   2.961
23711SOL     OW73066   7.649   1.539   3.582
23711SOL    HW173067   7.634   1.618   3.641
23711SOL    HW273068   7.666   1.458   3.639
23712SOL     OW73069   8.210   0.475   3.090
23712SOL    HW173070   8.162   0.388   3.086
23712SOL    HW273071   8.184   0.532   3.012
23713SOL     OW73072   8.431   1.621   3.279
23713SOL    HW173073   8.376   1.576   3.209
23713SOL    HW273074   8.451   1.715   3.252
23714SOL     OW73075   7.888   0.484   2.039
23714SOL    HW173076   7.949   0.556   2.073
23714SOL    HW273077   7.801   0.525   2.010
23715SOL     OW73078   7.588   1.133   3.376
23715SOL    HW173079   7.600   1.104   3.471
23715SOL    HW273080   7.618   1.059   3.315
23716SOL     OW73081   8.717   1.050   3.056
23716SOL    HW173082   8.731   0.984   2.982
23716SOL    HW273083   8.669   1.130   3.021
23717SOL     OW73084   8.735   0.940   2.158
23717SOL    HW173085   8.715   0.884   2.240
23717SOL    HW273086   8.762   0.880   2.083
23718SOL     OW73087   9.183   1.698   2.986
23718SOL    HW173088   9.267   1.733   2.945
23718SOL    HW273089   9.175   1.600   2.968
23719SOL     OW73090   8.730   1.711   2.891
23719SOL    HW173091   8.815   1.764   2.898
23719SOL    HW273092   8.743   1.621   2.934
23720SOL     OW73093   7.515   1.072   2.980
23720SOL    HW173094   7.526   1.154   3.036
23720SOL    HW273095   7.419   1.063   2.954
23721SOL     OW73096   8.192   1.657   3.684
23721SOL    HW173097   8.143   1.727   3.631
23721SOL    HW273098   8.277   1.633   3.638
23722SOL     OW73099   9.276   0.256   2.337
23722SOL    HW173100   9.350   0.268   2.271
23722SOL    HW273101   9.277   0.162   2.372
23723SOL     OW73102   8.844   1.563   2.365
23723SOL    HW173103   8.891   1.592   2.282
23723SOL    HW273104   8.782   1.635   2.396
23724SOL     OW73105   7.589   1.758   3.735
23724SOL    HW173106   7.531   1.695   3.787
23724SOL    HW273107   7.648   1.809   3.798
23725SOL     OW73108   8.693   0.955   2.481
23725SOL    HW173109   8.763   0.886   2.500
23725SOL    HW273110   8.736   1.040   2.453
23726SOL     OW73111   8.189   1.253   3.321
23726SOL    HW173112   8.176   1.312   3.400
23726SOL    HW273113   8.116   1.268   3.255
23727SOL     OW73114   8.113   1.614   2.063
23727SOL    HW173115   8.131   1.630   1.966
23727SOL    HW273116   8.051   1.536   2.073
23728SOL     OW73117   9.043   1.733   3.218
23728SOL    HW173118   9.094   1.718   3.133
23728SOL    HW273119   9.023   1.831   3.228
23729SOL     OW73120   9.244   0.164   2.877
23729SOL    HW173121   9.329   0.136   2.832
23729SOL    HW273122   9.176   0.188   2.807
23730SOL     OW73123   7.663   0.317   2.589
23730SOL    HW173124   7.580   0.366   2.565
23730SOL    HW273125   7.670   0.310   2.689
23731SOL     OW73126   8.650   1.611   1.900
23731SOL    HW173127   8.640   1.519   1.938
23731SOL    HW273128   8.582   1.625   1.828
23732SOL     OW73129   8.234   0.989   3.284
23732SOL    HW173130   8.285   0.981   3.198
23732SOL    HW273131   8.215   1.085   3.302
23733SOL     OW73132   8.451   0.977   2.213
23733SOL    HW173133   8.541   1.004   2.179
23733SOL    HW273134   8.452   0.879   2.235
23734SOL     OW73135   8.913   1.697   1.905
23734SOL    HW173136   8.819   1.665   1.889
23734SOL    HW273137   8.972   1.663   1.832
23735SOL     OW73138   7.797   1.320   3.363
23735SOL    HW173139   7.783   1.393   3.296
23735SOL    HW273140   7.719   1.257   3.360
23736SOL     OW73141   9.047   1.295   3.147
23736SOL    HW173142   9.090   1.259   3.230
23736SOL    HW273143   8.987   1.371   3.171
23737SOL     OW73144   8.501   1.131   2.596
23737SOL    HW173145   8.429   1.080   2.644
23737SOL    HW273146   8.560   1.067   2.547
23738SOL     OW73147   8.491   0.277   2.824
23738SOL    HW173148   8.449   0.220   2.753
23738SOL    HW273149   8.523   0.219   2.899
23739SOL     OW73150   8.056   1.434   2.344
23739SOL    HW173151   8.132   1.382   2.305
23739SOL    HW273152   7.984   1.444   2.275
23740SOL     OW73153   9.300   0.359   3.313
23740SOL    HW173154   9.337   0.435   3.260
23740SOL    HW273155   9.264   0.290   3.251
23741SOL     OW73156   7.693   1.341   2.209
23741SOL    HW173157   7.616   1.314   2.151
23741SOL    HW273158   7.661   1.405   2.279
23742SOL     OW73159   7.609   1.053   3.637
23742SOL    HW173160   7.521   1.029   3.677
23742SOL    HW273161   7.681   0.995   3.676
23743SOL     OW73162   8.159   0.308   3.449
23743SOL    HW173163   8.205   0.252   3.380
23743SOL    HW273164   8.184   0.277   3.540
23744SOL     OW73165   8.826   0.885   3.264
23744SOL    HW173166   8.762   0.935   3.205
23744SOL    HW273167   8.916   0.884   3.221
23745SOL     OW73168   7.426   0.200   2.068
23745SOL    HW173169   7.382   0.229   1.983
23745SOL    HW273170   7.523   0.182   2.050
23746SOL     OW73171   8.610   1.351   1.997
23746SOL    HW173172   8.512   1.335   1.994
23746SOL    HW273173   8.642   1.346   2.091
23747SOL     OW73174   8.075   0.780   3.358
23747SOL    HW173175   8.129   0.863   3.339
23747SOL    HW273176   8.136   0.701   3.362
23748SOL     OW73177   8.964   1.841   2.903
23748SOL    HW173178   8.989   1.900   2.826
23748SOL    HW273179   9.044   1.791   2.935
23749SOL     OW73180   8.123   0.545   3.671
23749SOL    HW173181   8.189   0.617   3.688
23749SOL    HW273182   8.156   0.459   3.710
23750SOL     OW73183   7.773   1.746   3.416
23750SOL    HW173184   7.693   1.804   3.434
23750SOL    HW273185   7.760   1.657   3.459
23751SOL     OW73186   9.058   0.892   3.113
23751SOL    HW173187   9.059   0.805   3.065
23751SOL    HW273188   9.060   0.967   3.047
23752SOL     OW73189   8.614   0.358   2.309
23752SOL    HW173190   8.667   0.274   2.320
23752SOL    HW273191   8.635   0.420   2.385
23753SOL     OW73192   8.084   0.706   2.480
23753SOL    HW173193   8.102   0.802   2.501
23753SOL    HW273194   7.991   0.696   2.444
23754SOL     OW73195   9.210   0.385   3.571
23754SOL    HW173196   9.238   0.381   3.475
23754SOL    HW273197   9.131   0.324   3.585
23755SOL     OW73198   9.178   0.955   3.354
23755SOL    HW173199   9.172   1.053   3.373
23755SOL    HW273200   9.138   0.936   3.264
23756SOL     OW73201   8.331   1.354   1.984
23756SOL    HW173202   8.299   1.330   2.076
23756SOL    HW273203   8.304   1.448   1.963
23757SOL     OW73204   8.108   1.707   2.820
23757SOL    HW173205   8.074   1.800   2.829
23757SOL    HW273206   8.207   1.709   2.805
23758SOL     OW73207   8.314   0.992   2.749
23758SOL    HW173208   8.367   0.914   2.781
23758SOL    HW273209   8.267   1.035   2.827
23759SOL     OW73210   9.275   1.568   2.707
23759SOL    HW173211   9.200   1.562   2.641
23759SOL    HW273212   9.256   1.508   2.785
23760SOL     OW73213   7.667   1.301   3.738
23760SOL    HW173214   7.654   1.214   3.690
23760SOL    HW273215   7.592   1.316   3.802
23761SOL     OW73216   8.133   1.418   3.529
23761SOL    HW173217   8.049   1.373   3.562
23761SOL    HW273218   8.156   1.494   3.590
23762SOL     OW73219   9.209   0.161   3.145
23762SOL    HW173220   9.268   0.086   3.172
23762SOL    HW273221   9.213   0.173   3.045
23763SOL     OW73222   7.849   0.401   2.396
23763SOL    HW173223   7.870   0.329   2.330
23763SOL    HW273224   7.791   0.364   2.469
23764SOL     OW73225   9.161   1.433   2.923
23764SOL    HW173226   9.081   1.412   2.867
23764SOL    HW273227   9.158   1.378   3.007
23765SOL     OW73228   7.817   0.563   3.112
23765SOL    HW173229   7.882   0.509   3.165
23765SOL    HW273230   7.828   0.544   3.015
23766SOL     OW73231   8.239   1.552   2.535
23766SOL    HW173232   8.191   1.578   2.451
23766SOL    HW273233   8.187   1.480   2.582
23767SOL     OW73234   8.877   0.275   2.948
23767SOL    HW173235   8.882   0.176   2.965
23767SOL    HW273236   8.826   0.318   3.022
23768SOL     OW73237   8.565   0.121   3.035
23768SOL    HW173238   8.549   0.023   3.031
23768SOL    HW273239   8.558   0.153   3.129
23769SOL     OW73240   8.258   1.293   2.236
23769SOL    HW173241   8.238   1.196   2.253
23769SOL    HW273242   8.338   1.321   2.289
23770SOL     OW73243   8.047   1.577   3.158
23770SOL    HW173244   8.043   1.667   3.203
23770SOL    HW273245   8.139   1.562   3.122
23771SOL     OW73246   8.813   0.033   2.096
23771SOL    HW173247   8.898   9.996   2.059
23771SOL    HW273248   8.745   9.960   2.102
23772SOL     OW73249   8.665   0.513   2.522
23772SOL    HW173250   8.615   0.599   2.532
23772SOL    HW273251   8.692   0.479   2.613
23773SOL     OW73252   9.035   0.256   2.715
23773SOL    HW173253   8.982   0.267   2.799
23773SOL    HW273254   9.043   0.344   2.668
23774SOL     OW73255   7.459   1.018   2.187
23774SOL    HW173256   7.559   1.013   2.181
23774SOL    HW273257   7.422   0.926   2.201
23775SOL     OW73258   8.347   1.683   2.202
23775SOL    HW173259   8.264   1.654   2.155
23775SOL    HW273260   8.326   1.761   2.261
23776SOL     OW73261   7.674   0.257   4.675
23776SOL    HW173262   7.737   0.180   4.665
23776SOL    HW273263   7.587   0.223   4.711
23777SOL     OW73264   7.438   0.429   4.364
23777SOL    HW173265   7.360   0.454   4.422
23777SOL    HW273266   7.411   0.356   4.302
23778SOL     OW73267   8.060   1.297   4.945
23778SOL    HW173268   7.968   1.279   4.909
23778SOL    HW273269   8.073   1.396   4.954
23779SOL     OW73270   9.071   1.509   4.386
23779SOL    HW173271   9.012   1.473   4.458
23779SOL    HW273272   9.019   1.518   4.301
23780SOL     OW73273   8.558   0.697   4.358
23780SOL    HW173274   8.594   0.791   4.353
23780SOL    HW273275   8.476   0.696   4.416
23781SOL     OW73276   9.238   0.550   3.938
23781SOL    HW173277   9.183   0.570   3.856
23781SOL    HW273278   9.191   0.482   3.994
23782SOL     OW73279   8.161   1.137   4.744
23782SOL    HW173280   8.129   1.179   4.829
23782SOL    HW273281   8.187   1.209   4.679
23783SOL     OW73282   8.246   0.880   5.617
23783SOL    HW173283   8.286   0.892   5.708
23783SOL    HW273284   8.204   0.965   5.587
23784SOL     OW73285   8.138   0.941   4.380
23784SOL    HW173286   8.206   0.956   4.452
23784SOL    HW273287   8.063   1.006   4.390
23785SOL     OW73288   8.136   1.125   5.558
23785SOL    HW173289   8.173   1.209   5.599
23785SOL    HW273290   8.068   1.149   5.489
23786SOL     OW73291   7.825   1.325   4.789
23786SOL    HW173292   7.732   1.331   4.752
23786SOL    HW273293   7.886   1.380   4.733
23787SOL     OW73294   8.893   1.478   5.072
23787SOL    HW173295   8.961   1.548   5.095
23787SOL    HW273296   8.821   1.478   5.142
23788SOL     OW73297   8.995   0.483   4.478
23788SOL    HW173298   8.914   0.480   4.420
23788SOL    HW273299   8.985   0.556   4.546
23789SOL     OW73300   8.584   1.299   5.435
23789SOL    HW173301   8.638   1.282   5.517
23789SOL    HW273302   8.520   1.223   5.421
23790SOL     OW73303   7.830   1.078   4.647
23790SOL    HW173304   7.793   0.991   4.681
23790SOL    HW273305   7.820   1.149   4.717
23791SOL     OW73306   8.111   1.761   5.158
23791SOL    HW173307   8.030   1.739   5.212
23791SOL    HW273308   8.113   1.859   5.138
23792SOL     OW73309   8.036   0.969   3.894
23792SOL    HW173310   8.076   1.027   3.823
23792SOL    HW273311   8.074   0.993   3.983
23793SOL     OW73312   8.969   0.127   5.158
23793SOL    HW173313   9.047   0.158   5.103
23793SOL    HW273314   8.963   0.181   5.242
23794SOL     OW73315   7.584   0.656   4.299
23794SOL    HW173316   7.538   0.571   4.321
23794SOL    HW273317   7.585   0.715   4.380
23795SOL     OW73318   9.355   1.727   4.096
23795SOL    HW173319   9.444   1.712   4.141
23795SOL    HW273320   9.352   1.818   4.057
23796SOL     OW73321   7.461   1.578   3.885
23796SOL    HW173322   7.383   1.517   3.872
23796SOL    HW273323   7.476   1.592   3.983
23797SOL     OW73324   9.125   0.898   4.392
23797SOL    HW173325   9.212   0.891   4.441
23797SOL    HW273326   9.132   0.966   4.319
23798SOL     OW73327   9.139   1.103   4.196
23798SOL    HW173328   9.218   1.074   4.141
23798SOL    HW273329   9.169   1.169   4.265
23799SOL     OW73330   7.556   0.752   5.308
23799SOL    HW173331   7.650   0.782   5.325
23799SOL    HW273332   7.500   0.831   5.282
23800SOL     OW73333   8.039   1.385   4.389
23800SOL    HW173334   8.010   1.290   4.399
23800SOL    HW273335   7.997   1.425   4.308
23801SOL     OW73336   8.282   0.081   4.264
23801SOL    HW173337   8.309   0.174   4.237
23801SOL    HW273338   8.183   0.070   4.255
23802SOL     OW73339   7.656   0.942   5.052
23802SOL    HW173340   7.753   0.925   5.032
23802SOL    HW273341   7.599   0.878   5.000
23803SOL     OW73342   9.006   1.051   3.948
23803SOL    HW173343   8.929   0.991   3.972
23803SOL    HW273344   9.052   1.080   4.032
23804SOL     OW73345   8.782   1.922   5.319
23804SOL    HW173346   8.713   1.975   5.270
23804SOL    HW273347   8.772   1.825   5.296
23805SOL     OW73348   8.931   1.390   4.600
23805SOL    HW173349   8.866   1.428   4.666
23805SOL    HW273350   8.905   1.296   4.578
23806SOL     OW73351   9.183   1.774   4.303
23806SOL    HW173352   9.242   1.741   4.229
23806SOL    HW273353   9.133   1.696   4.342
23807SOL     OW73354   7.978   0.686   3.976
23807SOL    HW173355   7.993   0.780   3.945
23807SOL    HW273356   7.930   0.688   4.064
23808SOL     OW73357   8.727   0.398   4.653
23808SOL    HW173358   8.650   0.334   4.650
23808SOL    HW273359   8.798   0.360   4.714
23809SOL     OW73360   8.820   0.485   5.404
23809SOL    HW173361   8.816   0.526   5.495
23809SOL    HW273362   8.863   0.395   5.410
23810SOL     OW73363   8.311   0.908   5.241
23810SOL    HW173364   8.353   0.831   5.289
23810SOL    HW273365   8.320   0.895   5.142
23811SOL     OW73366   8.442   0.398   4.826
23811SOL    HW173367   8.372   0.362   4.886
23811SOL    HW273368   8.481   0.324   4.771
23812SOL     OW73369   8.471   0.683   4.098
23812SOL    HW173370   8.497   0.681   4.195
23812SOL    HW273371   8.379   0.644   4.089
23813SOL     OW73372   7.580   0.813   4.518
23813SOL    HW173373   7.658   0.814   4.581
23813SOL    HW273374   7.516   0.886   4.543
23814SOL     OW73375   7.635   1.814   5.318
23814SOL    HW173376   7.639   1.783   5.413
23814SOL    HW273377   7.550   1.781   5.276
23815SOL     OW73378   8.322   0.364   3.898
23815SOL    HW173379   8.387   0.422   3.848
23815SOL    HW273380   8.287   0.293   3.837
23816SOL     OW73381   9.170   0.572   5.548
23816SOL    HW173382   9.117   0.630   5.486
23816SOL    HW273383   9.174   0.479   5.512
23817SOL     OW73384   8.863   1.147   4.274
23817SOL    HW173385   8.956   1.132   4.241
23817SOL    HW273386   8.818   1.214   4.215
23818SOL     OW73387   8.055   0.203   4.677
23818SOL    HW173388   8.055   0.223   4.775
23818SOL    HW273389   8.056   0.289   4.626
23819SOL     OW73390   8.521   1.447   4.229
23819SOL    HW173391   8.447   1.500   4.189
23819SOL    HW273392   8.550   1.488   4.316
23820SOL     OW73393   9.270   1.120   4.617
23820SOL    HW173394   9.247   1.174   4.536
23820SOL    HW273395   9.187   1.106   4.672
23821SOL     OW73396   8.681   1.480   5.244
23821SOL    HW173397   8.663   1.413   5.316
23821SOL    HW273398   8.598   1.493   5.189
23822SOL     OW73399   7.729   1.048   3.995
23822SOL    HW173400   7.782   1.133   3.988
23822SOL    HW273401   7.754   0.987   3.920
23823SOL     OW73402   8.892   0.769   4.410
23823SOL    HW173403   8.874   0.735   4.502
23823SOL    HW273404   8.979   0.820   4.409
23824SOL     OW73405   7.944   1.209   5.377
23824SOL    HW173406   7.908   1.249   5.293
23824SOL    HW273407   7.877   1.219   5.450
23825SOL     OW73408   8.612   1.715   3.967
23825SOL    HW173409   8.595   1.709   4.065
23825SOL    HW273410   8.551   1.653   3.918
23826SOL     OW73411   7.954   1.740   4.050
23826SOL    HW173412   7.961   1.809   4.122
23826SOL    HW273413   8.041   1.735   4.001
23827SOL     OW73414   8.892   0.168   4.193
23827SOL    HW173415   8.875   0.100   4.121
23827SOL    HW273416   8.899   0.122   4.282
23828SOL     OW73417   7.688   1.775   4.894
23828SOL    HW173418   7.738   1.690   4.909
23828SOL    HW273419   7.630   1.766   4.813
23829SOL     OW73420   8.326   1.741   4.561
23829SOL    HW173421   8.337   1.683   4.642
23829SOL    HW273422   8.295   1.684   4.484
23830SOL     OW73423   7.851   0.649   4.217
23830SOL    HW173424   7.867   0.551   4.223
23830SOL    HW273425   7.757   0.670   4.241
23831SOL     OW73426   8.917   0.223   5.429
23831SOL    HW173427   8.932   0.223   5.527
23831SOL    HW273428   8.844   0.159   5.406
23832SOL     OW73429   8.050   0.057   3.838
23832SOL    HW173430   8.053   9.973   3.892
23832SOL    HW273431   8.006   0.039   3.751
23833SOL     OW73432   8.271   0.039   5.568
23833SOL    HW173433   8.315   0.128   5.586
23833SOL    HW273434   8.186   0.032   5.620
23834SOL     OW73435   8.291   1.545   4.767
23834SOL    HW173436   8.245   1.481   4.705
23834SOL    HW273437   8.376   1.504   4.799
23835SOL     OW73438   8.812   0.581   5.134
23835SOL    HW173439   8.827   0.552   5.229
23835SOL    HW273440   8.830   0.679   5.126
23836SOL     OW73441   8.247   1.336   4.583
23836SOL    HW173442   8.345   1.344   4.562
23836SOL    HW273443   8.194   1.353   4.499
23837SOL     OW73444   8.386   0.592   4.639
23837SOL    HW173445   8.360   0.555   4.549
23837SOL    HW273446   8.413   0.516   4.699
23838SOL     OW73447   8.016   0.039   4.214
23838SOL    HW173448   7.938   0.021   4.273
23838SOL    HW273449   7.995   0.114   4.151
23839SOL     OW73450   8.861   1.164   3.741
23839SOL    HW173451   8.915   1.117   3.811
23839SOL    HW273452   8.778   1.202   3.781
23840SOL     OW73453   7.710   0.088   4.034
23840SOL    HW173454   7.803   0.123   4.028
23840SOL    HW273455   7.712   9.997   4.077
23841SOL     OW73456   8.391   0.316   4.170
23841SOL    HW173457   8.361   0.336   4.076
23841SOL    HW273458   8.491   0.321   4.174
23842SOL     OW73459   8.519   0.650   5.160
23842SOL    HW173460   8.515   0.580   5.231
23842SOL    HW273461   8.615   0.671   5.139
23843SOL     OW73462   8.659   1.563   4.449
23843SOL    HW173463   8.699   1.612   4.371
23843SOL    HW273464   8.681   1.612   4.534
23844SOL     OW73465   7.936   1.132   4.408
23844SOL    HW173466   7.903   1.110   4.500
23844SOL    HW273467   7.858   1.141   4.346
23845SOL     OW73468   8.732   1.739   4.247
23845SOL    HW173469   8.781   1.819   4.215
23845SOL    HW273470   8.645   1.767   4.287
23846SOL     OW73471   8.487   0.522   3.748
23846SOL    HW173472   8.433   0.605   3.736
23846SOL    HW273473   8.556   0.537   3.818
23847SOL     OW73474   7.560   0.615   5.070
23847SOL    HW173475   7.656   0.610   5.041
23847SOL    HW273476   7.555   0.660   5.159
23848SOL     OW73477   8.055   0.255   4.945
23848SOL    HW173478   8.142   0.215   4.974
23848SOL    HW273479   7.980   0.202   4.985
23849SOL     OW73480   8.308   0.518   4.387
23849SOL    HW173481   8.222   0.566   4.373
23849SOL    HW273482   8.324   0.454   4.313
23850SOL     OW73483   8.457   0.041   4.488
23850SOL    HW173484   8.385   0.060   4.421
23850SOL    HW273485   8.442   9.951   4.529
23851SOL     OW73486   8.866   1.126   4.559
23851SOL    HW173487   8.809   1.051   4.593
23851SOL    HW273488   8.862   1.129   4.459
23852SOL     OW73489   8.856   0.652   4.663
23852SOL    HW173490   8.793   0.574   4.660
23852SOL    HW273491   8.910   0.647   4.747
23853SOL     OW73492   9.244   0.771   4.098
23853SOL    HW173493   9.301   0.752   4.178
23853SOL    HW273494   9.247   0.693   4.036
23854SOL     OW73495   7.813   1.319   3.984
23854SOL    HW173496   7.732   1.341   4.037
23854SOL    HW273497   7.793   1.329   3.886
23855SOL     OW73498   9.236   1.270   4.386
23855SOL    HW173499   9.335   1.273   4.372
23855SOL    HW273500   9.199   1.362   4.381
23856SOL     OW73501   8.826   0.588   3.769
23856SOL    HW173502   8.783   0.562   3.855
23856SOL    HW273503   8.925   0.594   3.780
23857SOL     OW73504   7.948   0.225   4.023
23857SOL    HW173505   7.995   0.173   3.953
23857SOL    HW273506   7.911   0.309   3.984
23858SOL     OW73507   9.196   1.203   5.211
23858SOL    HW173508   9.288   1.164   5.201
23858SOL    HW273509   9.202   1.302   5.217
23859SOL     OW73510   8.450   1.494   5.093
23859SOL    HW173511   8.382   1.422   5.108
23859SOL    HW273512   8.486   1.486   4.999
23860SOL     OW73513   8.520   1.396   4.833
23860SOL    HW173514   8.506   1.312   4.886
23860SOL    HW273515   8.520   1.374   4.735
23861SOL     OW73516   9.046   1.089   4.771
23861SOL    HW173517   9.035   1.159   4.842
23861SOL    HW273518   8.975   1.102   4.701
23862SOL     OW73519   8.320   0.193   4.988
23862SOL    HW173520   8.369   0.119   4.943
23862SOL    HW273521   8.375   0.228   5.064
23863SOL     OW73522   8.396   1.098   5.432
23863SOL    HW173523   8.309   1.127   5.473
23863SOL    HW273524   8.378   1.035   5.356
23864SOL     OW73525   8.186   1.025   4.120
23864SOL    HW173526   8.171   0.984   4.210
23864SOL    HW273527   8.250   0.969   4.068
23865SOL     OW73528   7.919   0.864   5.023
23865SOL    HW173529   7.958   0.889   5.112
23865SOL    HW273530   7.886   0.770   5.026
23866SOL     OW73531   8.689   0.388   4.982
23866SOL    HW173532   8.730   0.463   5.034
23866SOL    HW273533   8.614   0.423   4.926
23867SOL     OW73534   7.534   1.538   5.042
23867SOL    HW173535   7.496   1.621   5.083
23867SOL    HW273536   7.630   1.552   5.020
23868SOL     OW73537   7.704   1.164   4.258
23868SOL    HW173538   7.661   1.245   4.217
23868SOL    HW273539   7.714   1.093   4.188
23869SOL     OW73540   8.038   0.493   4.609
23869SOL    HW173541   8.047   0.544   4.523
23869SOL    HW273542   8.091   0.540   4.680
23870SOL     OW73543   8.742   1.342   4.113
23870SOL    HW173544   8.811   1.413   4.124
23870SOL    HW273545   8.656   1.371   4.156
23871SOL     OW73546   8.783   1.475   4.821
23871SOL    HW173547   8.826   1.476   4.911
23871SOL    HW273548   8.688   1.444   4.829
23872SOL     OW73549   9.002   0.645   4.184
23872SOL    HW173550   8.948   0.684   4.258
23872SOL    HW273551   9.071   0.711   4.154
23873SOL     OW73552   7.808   1.532   4.967
23873SOL    HW173553   7.799   1.457   4.901
23873SOL    HW273554   7.904   1.559   4.973
23874SOL     OW73555   7.832   0.790   5.363
23874SOL    HW173556   7.893   0.863   5.332
23874SOL    HW273557   7.871   0.701   5.339
23875SOL     OW73558   9.035   0.746   5.386
23875SOL    HW173559   8.937   0.766   5.384
23875SOL    HW273560   9.082   0.800   5.316
23876SOL     OW73561   8.528   0.019   5.468
23876SOL    HW173562   8.430   0.015   5.487
23876SOL    HW273563   8.544   0.005   5.371
23877SOL     OW73564   7.946   9.914   5.462
23877SOL    HW173565   8.029   9.867   5.430
23877SOL    HW273566   7.914   9.976   5.390
23878SOL     OW73567   8.044   0.881   4.784
23878SOL    HW173568   8.077   0.972   4.757
23878SOL    HW273569   7.999   0.887   4.873
23879SOL     OW73570   8.734   0.907   4.660
23879SOL    HW173571   8.639   0.895   4.690
23879SOL    HW273572   8.782   0.819   4.668
23880SOL     OW73573   8.653   0.528   3.973
23880SOL    HW173574   8.669   0.454   4.038
23880SOL    HW273575   8.593   0.596   4.014
23881SOL     OW73576   7.834   0.119   5.032
23881SOL    HW173577   7.737   0.142   5.023
23881SOL    HW273578   7.845   0.019   5.028
23882SOL     OW73579   7.417   1.296   5.078
23882SOL    HW173580   7.490   1.239   5.116
23882SOL    HW273581   7.454   1.386   5.054
23883SOL     OW73582   8.178   0.649   4.807
23883SOL    HW173583   8.254   0.639   4.742
23883SOL    HW273584   8.131   0.736   4.790
23884SOL     OW73585   9.001   0.970   5.560
23884SOL    HW173586   9.048   0.884   5.541
23884SOL    HW273587   9.015   0.996   5.655
23885SOL     OW73588   7.760   0.047   4.359
23885SOL    HW173589   7.729   0.142   4.357
23885SOL    HW273590   7.791   0.024   4.451
23886SOL     OW73591   9.059   0.392   4.118
23886SOL    HW173592   9.003   0.323   4.165
23886SOL    HW273593   9.027   0.483   4.141
23887SOL     OW73594   8.480   0.827   4.739
23887SOL    HW173595   8.448   0.831   4.834
23887SOL    HW273596   8.455   0.738   4.699
23888SOL     OW73597   8.430   1.512   5.498
23888SOL    HW173598   8.393   1.567   5.422
23888SOL    HW273599   8.479   1.433   5.461
23889SOL     OW73600   7.747   0.920   5.614
23889SOL    HW173601   7.826   0.945   5.669
23889SOL    HW273602   7.774   0.857   5.541
23890SOL     OW73603   9.015   0.226   3.906
23890SOL    HW173604   8.937   0.169   3.932
23890SOL    HW273605   9.031   0.294   3.977
23891SOL     OW73606   8.704   0.833   3.754
23891SOL    HW173607   8.736   0.738   3.758
23891SOL    HW273608   8.742   0.877   3.672
23892SOL     OW73609   8.522   1.353   4.564
23892SOL    HW173610   8.533   1.267   4.514
23892SOL    HW273611   8.576   1.425   4.519
23893SOL     OW73612   7.791   0.795   4.695
23893SOL    HW173613   7.887   0.819   4.712
23893SOL    HW273614   7.780   0.696   4.700
23894SOL     OW73615   7.790   0.510   4.721
23894SOL    HW173616   7.736   0.427   4.710
23894SOL    HW273617   7.878   0.500   4.674
23895SOL     OW73618   8.555   0.460   5.354
23895SOL    HW173619   8.510   0.480   5.441
23895SOL    HW273620   8.654   0.469   5.365
23896SOL     OW73621   8.515   0.272   5.162
23896SOL    HW173622   8.516   0.334   5.240
23896SOL    HW273623   8.584   0.301   5.095
23897SOL     OW73624   7.449   1.269   3.906
23897SOL    HW173625   7.363   1.312   3.878
23897SOL    HW273626   7.433   1.173   3.927
23898SOL     OW73627   7.500   1.826   4.674
23898SOL    HW173628   7.433   1.803   4.603
23898SOL    HW273629   7.591   1.830   4.633
23899SOL     OW73630   7.974   1.493   4.641
23899SOL    HW173631   7.998   1.590   4.645
23899SOL    HW273632   7.997   1.456   4.551
23900SOL     OW73633   8.360   0.783   4.988
23900SOL    HW173634   8.417   0.727   5.048
23900SOL    HW273635   8.289   0.726   4.946
23901SOL     OW73636   7.357   0.498   4.943
23901SOL    HW173637   7.392   0.449   4.863
23901SOL    HW273638   7.432   0.545   4.989
23902SOL     OW73639   7.482   0.542   5.469
23902SOL    HW173640   7.474   0.461   5.410
23902SOL    HW273641   7.510   0.620   5.414
23903SOL     OW73642   8.790   0.906   5.409
23903SOL    HW173643   8.866   0.947   5.460
23903SOL    HW273644   8.768   0.962   5.330
23904SOL     OW73645   8.227   0.580   4.044
23904SOL    HW173646   8.242   0.496   3.992
23904SOL    HW273647   8.137   0.618   4.021
23905SOL     OW73648   9.001   0.615   4.889
23905SOL    HW173649   8.950   0.588   4.971
23905SOL    HW273650   9.087   0.564   4.886
23906SOL     OW73651   7.832   1.521   5.494
23906SOL    HW173652   7.761   1.586   5.519
23906SOL    HW273653   7.794   1.429   5.492
23907SOL     OW73654   8.067   0.514   5.019
23907SOL    HW173655   8.062   0.417   4.996
23907SOL    HW273656   8.111   0.563   4.944
23908SOL     OW73657   8.330   1.655   5.281
23908SOL    HW173658   8.381   1.601   5.214
23908SOL    HW273659   8.248   1.692   5.238
23909SOL     OW73660   7.834   0.443   3.914
23909SOL    HW173661   7.879   0.532   3.920
23909SOL    HW273662   7.770   0.443   3.837
23910SOL     OW73663   7.607   1.154   5.210
23910SOL    HW173664   7.587   1.124   5.303
23910SOL    HW273665   7.624   1.073   5.153
23911SOL     OW73666   8.790   0.905   4.010
23911SOL    HW173667   8.730   0.885   4.087
23911SOL    HW273668   8.747   0.874   3.925
23912SOL     OW73669   9.143   1.715   4.840
23912SOL    HW173670   9.229   1.749   4.801
23912SOL    HW273671   9.130   1.619   4.815
23913SOL     OW73672   8.748   1.698   4.670
23913SOL    HW173673   8.805   1.775   4.697
23913SOL    HW273674   8.764   1.621   4.732
23914SOL     OW73675   8.205   1.740   5.521
23914SOL    HW173676   8.135   1.807   5.498
23914SOL    HW273677   8.255   1.714   5.439
23915SOL     OW73678   8.915   1.553   4.151
23915SOL    HW173679   8.945   1.575   4.058
23915SOL    HW273680   8.850   1.622   4.183
23916SOL     OW73681   7.647   1.706   5.567
23916SOL    HW173682   7.578   1.647   5.610
23916SOL    HW273683   7.682   1.771   5.634
23917SOL     OW73684   8.700   0.933   4.316
23917SOL    HW173685   8.766   0.867   4.352
23917SOL    HW273686   8.747   1.017   4.289
23918SOL     OW73687   8.272   1.283   5.119
23918SOL    HW173688   8.239   1.311   5.209
23918SOL    HW273689   8.194   1.276   5.056
23919SOL     OW73690   9.099   1.664   5.107
23919SOL    HW173691   9.111   1.689   5.011
23919SOL    HW273692   9.112   1.746   5.164
23920SOL     OW73693   9.264   0.153   4.693
23920SOL    HW173694   9.299   0.074   4.642
23920SOL    HW273695   9.178   0.184   4.652
23921SOL     OW73696   7.678   0.303   4.405
23921SOL    HW173697   7.597   0.354   4.378
23921SOL    HW273698   7.682   0.296   4.504
23922SOL     OW73699   8.474   1.525   3.826
23922SOL    HW173700   8.537   1.447   3.829
23922SOL    HW273701   8.463   1.555   3.732
23923SOL     OW73702   8.360   0.889   3.959
23923SOL    HW173703   8.426   0.953   3.920
23923SOL    HW273704   8.408   0.817   4.009
23924SOL     OW73705   7.815   1.330   5.177
23924SOL    HW173706   7.803   1.404   5.110
23924SOL    HW273707   7.732   1.274   5.180
23925SOL     OW73708   9.050   1.273   4.979
23925SOL    HW173709   9.102   1.234   5.055
23925SOL    HW273710   8.985   1.340   5.014
23926SOL     OW73711   8.519   1.113   4.438
23926SOL    HW173712   8.444   1.066   4.484
23926SOL    HW273713   8.579   1.046   4.396
23927SOL     OW73714   8.548   0.191   4.693
23927SOL    HW173715   8.517   0.143   4.611
23927SOL    HW273716   8.555   0.127   4.769
23928SOL     OW73717   7.917   1.498   4.170
23928SOL    HW173718   7.899   1.426   4.103
23928SOL    HW273719   7.935   1.584   4.123
23929SOL     OW73720   9.277   0.312   5.170
23929SOL    HW173721   9.307   0.404   5.144
23929SOL    HW273722   9.249   0.261   5.088
23930SOL     OW73723   7.584   1.366   4.117
23930SOL    HW173724   7.527   1.330   4.043
23930SOL    HW273725   7.546   1.453   4.149
23931SOL     OW73726   7.566   1.074   5.476
23931SOL    HW173727   7.473   1.066   5.513
23931SOL    HW273728   7.627   1.010   5.523
23932SOL     OW73729   8.856   0.840   5.100
23932SOL    HW173730   8.817   0.926   5.135
23932SOL    HW273731   8.934   0.861   5.042
23933SOL     OW73732   7.596   0.328   4.072
23933SOL    HW173733   7.660   0.398   4.041
23933SOL    HW273734   7.634   0.237   4.051
23934SOL     OW73735   8.642   1.291   3.857
23934SOL    HW173736   8.592   1.204   3.860
23934SOL    HW273737   8.678   1.312   3.948
23935SOL     OW73738   8.027   0.960   5.263
23935SOL    HW173739   8.004   1.052   5.293
23935SOL    HW273740   8.126   0.949   5.260
23936SOL     OW73741   8.933   1.889   4.760
23936SOL    HW173742   8.973   1.953   4.693
23936SOL    HW273743   9.005   1.829   4.795
23937SOL     OW73744   8.943   1.191   5.338
23937SOL    HW173745   8.939   1.210   5.436
23937SOL    HW273746   9.038   1.200   5.307
23938SOL     OW73747   7.895   1.720   5.314
23938SOL    HW173748   7.803   1.753   5.293
23938SOL    HW273749   7.889   1.636   5.367
23939SOL     OW73750   9.080   0.878   4.946
23939SOL    HW173751   9.063   0.789   4.905
23939SOL    HW273752   9.072   0.949   4.875
23940SOL     OW73753   8.674   0.341   4.171
23940SOL    HW173754   8.740   0.265   4.170
23940SOL    HW273755   8.689   0.398   4.251
23941SOL     OW73756   8.073   0.669   4.388
23941SOL    HW173757   8.100   0.765   4.389
23941SOL    HW273758   7.994   0.657   4.327
23942SOL     OW73759   9.178   0.323   5.423
23942SOL    HW173760   9.210   0.320   5.328
23942SOL    HW273761   9.084   0.287   5.428
23943SOL     OW73762   9.167   0.907   5.204
23943SOL    HW173763   9.165   1.005   5.225
23943SOL    HW273764   9.142   0.893   5.108
23944SOL     OW73765   8.263   1.344   3.854
23944SOL    HW173766   8.268   1.315   3.949
23944SOL    HW273767   8.325   1.421   3.839
23945SOL     OW73768   8.056   1.755   4.629
23945SOL    HW173769   8.015   1.846   4.629
23945SOL    HW273770   8.152   1.761   4.603
23946SOL     OW73771   8.322   0.985   4.583
23946SOL    HW173772   8.384   0.929   4.638
23946SOL    HW273773   8.264   1.039   4.643
23947SOL     OW73774   8.539   1.041   3.821
23947SOL    HW173775   8.483   1.070   3.744
23947SOL    HW273776   8.597   0.965   3.793
23948SOL     OW73777   9.272   1.567   4.579
23948SOL    HW173778   9.212   1.560   4.499
23948SOL    HW273779   9.235   1.512   4.653
23949SOL     OW73780   7.742   1.267   5.552
23949SOL    HW173781   7.671   1.208   5.514
23949SOL    HW273782   7.728   1.278   5.650
23950SOL     OW73783   7.534   1.220   4.472
23950SOL    HW173784   7.485   1.139   4.505
23950SOL    HW273785   7.602   1.192   4.404
23951SOL     OW73786   8.171   1.367   5.353
23951SOL    HW173787   8.080   1.328   5.358
23951SOL    HW273788   8.194   1.410   5.441
23952SOL     OW73789   9.185   0.130   4.964
23952SOL    HW173790   9.118   0.058   4.944
23952SOL    HW273791   9.226   0.162   4.878
23953SOL     OW73792   7.886   0.388   4.247
23953SOL    HW173793   7.908   0.321   4.176
23953SOL    HW273794   7.811   0.352   4.304
23954SOL     OW73795   9.127   1.447   4.777
23954SOL    HW173796   9.057   1.426   4.709
23954SOL    HW273797   9.117   1.384   4.855
23955SOL     OW73798   7.815   0.607   4.976
23955SOL    HW173799   7.900   0.564   5.007
23955SOL    HW273800   7.794   0.576   4.883
23956SOL     OW73801   8.228   1.585   4.370
23956SOL    HW173802   8.257   1.590   4.275
23956SOL    HW273803   8.155   1.517   4.378
23957SOL     OW73804   8.877   0.249   4.836
23957SOL    HW173805   8.893   0.155   4.867
23957SOL    HW273806   8.813   0.294   4.898
23958SOL     OW73807   8.537   0.018   4.908
23958SOL    HW173808   8.516   9.922   4.890
23958SOL    HW273809   8.573   0.027   5.001
23959SOL     OW73810   8.287   1.283   4.116
23959SOL    HW173811   8.242   1.194   4.123
23959SOL    HW273812   8.366   1.285   4.177
23960SOL     OW73813   8.085   1.569   4.961
23960SOL    HW173814   8.103   1.640   5.030
23960SOL    HW273815   8.150   1.578   4.886
23961SOL     OW73816   8.851   0.011   3.969
23961SOL    HW173817   8.916   9.953   3.920
23961SOL    HW273818   8.763   9.963   3.977
23962SOL     OW73819   8.728   0.485   4.392
23962SOL    HW173820   8.671   0.566   4.379
23962SOL    HW273821   8.717   0.451   4.486
23963SOL     OW73822   9.025   0.243   4.602
23963SOL    HW173823   8.973   0.247   4.687
23963SOL    HW273824   9.019   0.331   4.555
23964SOL     OW73825   7.464   1.022   4.052
23964SOL    HW173826   7.561   1.029   4.030
23964SOL    HW273827   7.441   0.927   4.072
23965SOL     OW73828   8.301   1.564   4.112
23965SOL    HW173829   8.274   1.470   4.091
23965SOL    HW273830   8.269   1.624   4.039
23966SOL     OW73831   7.588   0.490   5.719
23966SOL    HW173832   7.565   0.562   5.785
23966SOL    HW273833   7.556   0.518   5.628
23967SOL     OW73834   7.624   0.326   6.566
23967SOL    HW173835   7.695   0.281   6.621
23967SOL    HW273836   7.544   0.267   6.560
23968SOL     OW73837   7.393   0.448   6.208
23968SOL    HW173838   7.302   0.482   6.233
23968SOL    HW273839   7.382   0.372   6.143
23969SOL     OW73840   7.968   1.337   6.855
23969SOL    HW173841   7.895   1.342   6.788
23969SOL    HW273842   7.999   1.429   6.878
23970SOL     OW73843   9.034   1.559   6.317
23970SOL    HW173844   8.975   1.537   6.396
23970SOL    HW273845   8.977   1.574   6.237
23971SOL     OW73846   8.553   0.754   6.243
23971SOL    HW173847   8.601   0.839   6.225
23971SOL    HW273848   8.518   0.755   6.337
23972SOL     OW73849   9.018   0.591   5.827
23972SOL    HW173850   9.092   0.654   5.805
23972SOL    HW273851   9.055   0.499   5.839
23973SOL     OW73852   8.110   1.156   6.682
23973SOL    HW173853   8.059   1.207   6.751
23973SOL    HW273854   8.156   1.219   6.620
23974SOL     OW73855   8.332   0.734   7.354
23974SOL    HW173856   8.351   0.798   7.429
23974SOL    HW273857   8.342   0.781   7.267
23975SOL     OW73858   8.128   0.963   6.220
23975SOL    HW173859   8.187   0.971   6.300
23975SOL    HW273860   8.050   1.025   6.230
23976SOL     OW73861   8.155   1.180   7.455
23976SOL    HW173862   8.218   1.247   7.495
23976SOL    HW273863   8.077   1.228   7.414
23977SOL     OW73864   7.779   1.397   6.669
23977SOL    HW173865   7.713   1.328   6.639
23977SOL    HW273866   7.824   1.437   6.589
23978SOL     OW73867   8.854   1.517   6.990
23978SOL    HW173868   8.937   1.564   7.018
23978SOL    HW273869   8.779   1.541   7.051
23979SOL     OW73870   9.136   0.505   6.294
23979SOL    HW173871   9.068   0.516   6.222
23979SOL    HW273872   9.140   0.588   6.350
23980SOL     OW73873   7.690   1.722   6.049
23980SOL    HW173874   7.701   1.791   6.121
23980SOL    HW273875   7.771   1.722   5.990
23981SOL     OW73876   8.531   1.390   7.313
23981SOL    HW173877   8.583   1.376   7.397
23981SOL    HW273878   8.482   1.306   7.291
23982SOL     OW73879   7.664   1.444   6.049
23982SOL    HW173880   7.666   1.542   6.068
23982SOL    HW273881   7.629   1.395   6.129
23983SOL     OW73882   7.735   1.095   6.419
23983SOL    HW173883   7.749   0.998   6.439
23983SOL    HW273884   7.693   1.140   6.497
23984SOL     OW73885   8.014   1.848   6.992
23984SOL    HW173886   7.939   1.832   7.057
23984SOL    HW273887   8.088   1.896   7.038
23985SOL     OW73888   7.980   0.990   5.758
23985SOL    HW173889   8.028   1.033   5.682
23985SOL    HW273890   8.023   1.017   5.844
23986SOL     OW73891   8.957   0.119   7.020
23986SOL    HW173892   8.879   0.159   6.973
23986SOL    HW273893   8.958   0.148   7.116
23987SOL     OW73894   7.545   0.677   6.177
23987SOL    HW173895   7.494   0.594   6.196
23987SOL    HW273896   7.534   0.742   6.252
23988SOL     OW73897   9.305   1.711   5.882
23988SOL    HW173898   9.388   1.681   5.930
23988SOL    HW273899   9.313   1.807   5.857
23989SOL     OW73900   7.469   1.539   5.689
23989SOL    HW173901   7.461   1.447   5.725
23989SOL    HW273902   7.466   1.605   5.765
23990SOL     OW73903   9.124   0.937   6.293
23990SOL    HW173904   9.212   0.890   6.295
23990SOL    HW273905   9.107   0.973   6.201
23991SOL     OW73906   9.107   1.137   6.062
23991SOL    HW173907   9.200   1.104   6.048
23991SOL    HW273908   9.105   1.205   6.135
23992SOL     OW73909   7.527   0.769   7.054
23992SOL    HW173910   7.586   0.827   6.998
23992SOL    HW273911   7.441   0.817   7.073
23993SOL     OW73912   8.046   1.353   6.298
23993SOL    HW173913   8.000   1.268   6.272
23993SOL    HW273914   8.064   1.408   6.217
23994SOL     OW73915   8.673   1.210   6.994
23994SOL    HW173916   8.700   1.140   6.928
23994SOL    HW273917   8.742   1.216   7.066
23995SOL     OW73918   8.222   9.998   6.103
23995SOL    HW173919   8.288   0.071   6.084
23995SOL    HW273920   8.129   0.036   6.102
23996SOL     OW73921   7.667   0.950   6.900
23996SOL    HW173922   7.757   0.906   6.893
23996SOL    HW273923   7.642   0.990   6.812
23997SOL     OW73924   9.005   1.067   5.813
23997SOL    HW173925   8.927   1.009   5.839
23997SOL    HW273926   9.052   1.098   5.895
23998SOL     OW73927   8.723   1.875   7.217
23998SOL    HW173928   8.690   1.930   7.140
23998SOL    HW273929   8.708   1.778   7.199
23999SOL     OW73930   7.794   0.291   7.397
23999SOL    HW173931   7.834   0.360   7.459
23999SOL    HW273932   7.706   0.323   7.363
24000SOL     OW73933   8.865   1.461   6.511
24000SOL    HW173934   8.813   1.469   6.595
24000SOL    HW273935   8.884   1.364   6.492
24001SOL     OW73936   9.093   1.868   6.116
24001SOL    HW173937   9.078   1.804   6.041
24001SOL    HW273938   9.116   1.817   6.199
24002SOL     OW73939   7.918   0.715   5.820
24002SOL    HW173940   7.946   0.808   5.798
24002SOL    HW273941   7.873   0.713   5.909
24003SOL     OW73942   9.031   1.699   5.908
24003SOL    HW173943   9.129   1.688   5.894
24003SOL    HW273944   8.983   1.692   5.820
24004SOL     OW73945   8.293   0.590   7.033
24004SOL    HW173946   8.270   0.535   7.114
24004SOL    HW273947   8.258   0.543   6.951
24005SOL     OW73948   8.826   0.494   7.217
24005SOL    HW173949   8.825   0.543   7.304
24005SOL    HW273950   8.887   0.415   7.223
24006SOL     OW73951   8.388   0.908   7.143
24006SOL    HW173952   8.460   0.857   7.096
24006SOL    HW273953   8.323   0.943   7.076
24007SOL     OW73954   8.363   0.348   6.794
24007SOL    HW173955   8.304   0.428   6.779
24007SOL    HW273956   8.382   0.304   6.706
24008SOL     OW73957   8.440   0.702   5.997
24008SOL    HW173958   8.478   0.719   6.088
24008SOL    HW273959   8.357   0.648   6.005
24009SOL     OW73960   7.523   0.844   6.389
24009SOL    HW173961   7.612   0.841   6.435
24009SOL    HW273962   7.467   0.916   6.430
24010SOL     OW73963   7.585   1.935   7.220
24010SOL    HW173964   7.572   1.872   7.297
24010SOL    HW273965   7.512   2.004   7.221
24011SOL     OW73966   9.097   0.608   7.454
24011SOL    HW173967   9.103   0.682   7.387
24011SOL    HW273968   9.117   0.521   7.408
24012SOL     OW73969   8.819   1.171   6.069
24012SOL    HW173970   8.918   1.167   6.052
24012SOL    HW273971   8.783   1.259   6.038
24013SOL     OW73972   7.953   0.308   6.534
24013SOL    HW173973   7.991   0.330   6.624
24013SOL    HW273974   7.975   0.381   6.469
24014SOL     OW73975   8.449   1.484   6.045
24014SOL    HW173976   8.421   1.558   5.984
24014SOL    HW273977   8.420   1.504   6.138
24015SOL     OW73978   7.798   1.770   6.469
24015SOL    HW173979   7.829   1.675   6.465
24015SOL    HW273980   7.875   1.829   6.495
24016SOL     OW73981   9.255   1.082   6.497
24016SOL    HW173982   9.196   1.053   6.422
24016SOL    HW273983   9.200   1.097   6.579
24017SOL     OW73984   8.641   1.595   7.145
24017SOL    HW173985   8.618   1.519   7.206
24017SOL    HW273986   8.561   1.618   7.089
24018SOL     OW73987   7.581   0.917   5.851
24018SOL    HW173988   7.630   0.923   5.764
24018SOL    HW273989   7.558   0.821   5.869
24019SOL     OW73990   8.869   0.952   6.404
24019SOL    HW173991   8.838   0.894   6.479
24019SOL    HW273992   8.960   0.924   6.375
24020SOL     OW73993   7.924   1.315   7.361
24020SOL    HW173994   7.919   1.287   7.265
24020SOL    HW273995   7.832   1.320   7.399
24021SOL     OW73996   8.553   1.793   5.766
24021SOL    HW173997   8.474   1.771   5.823
24021SOL    HW273998   8.588   1.710   5.723
24022SOL     OW73999   7.615   0.250   7.029
24022SOL    HW174000   7.595   0.334   6.979
24022SOL    HW274001   7.611   0.269   7.127
24023SOL     OW74002   9.056   1.485   5.623
24023SOL    HW174003   8.989   1.559   5.635
24023SOL    HW274004   9.009   1.398   5.614
24024SOL     OW74005   7.926   1.760   5.913
24024SOL    HW174006   7.966   1.823   5.980
24024SOL    HW274007   7.998   1.719   5.858
24025SOL     OW74008   8.851   0.186   6.004
24025SOL    HW174009   8.831   0.117   5.935
24025SOL    HW274010   8.940   0.228   5.985
24026SOL     OW74011   7.634   1.847   6.807
24026SOL    HW174012   7.689   1.769   6.837
24026SOL    HW274013   7.600   1.829   6.714
24027SOL     OW74014   8.393   1.662   6.472
24027SOL    HW174015   8.484   1.621   6.465
24027SOL    HW274016   8.345   1.651   6.384
24028SOL     OW74017   7.805   0.674   6.071
24028SOL    HW174018   7.812   0.574   6.066
24028SOL    HW274019   7.716   0.699   6.110
24029SOL     OW74020   8.899   0.221   7.279
24029SOL    HW174021   8.913   0.207   7.377
24029SOL    HW274022   8.802   0.212   7.257
24030SOL     OW74023   8.043   0.014   5.710
24030SOL    HW174024   8.068   9.942   5.776
24030SOL    HW274025   7.988   9.974   5.637
24031SOL     OW74026   8.242   0.258   7.421
24031SOL    HW174027   8.311   0.210   7.367
24031SOL    HW274028   8.283   0.289   7.507
24032SOL     OW74029   8.292   1.517   6.800
24032SOL    HW174030   8.266   1.507   6.704
24032SOL    HW274031   8.346   1.438   6.828
24033SOL     OW74032   8.789   0.618   6.972
24033SOL    HW174033   8.803   0.575   7.061
24033SOL    HW274034   8.815   0.714   6.978
24034SOL     OW74035   8.225   1.333   6.515
24034SOL    HW174036   8.320   1.347   6.488
24034SOL    HW274037   8.166   1.348   6.436
24035SOL     OW74038   8.477   0.475   6.458
24035SOL    HW174039   8.434   0.463   6.369
24035SOL    HW274040   8.473   0.388   6.508
24036SOL     OW74041   7.971   0.092   6.094
24036SOL    HW174042   7.888   0.078   6.147
24036SOL    HW274043   7.949   0.140   6.009
24037SOL     OW74044   8.914   1.255   5.618
24037SOL    HW174045   8.961   1.185   5.671
24037SOL    HW274046   8.824   1.272   5.657
24038SOL     OW74047   7.770   9.914   5.845
24038SOL    HW174048   7.782   0.007   5.881
24038SOL    HW274049   7.775   9.848   5.919
24039SOL     OW74050   8.412   0.194   6.052
24039SOL    HW174051   8.362   0.240   5.979
24039SOL    HW274052   8.501   0.238   6.064
24040SOL     OW74053   8.526   0.725   6.984
24040SOL    HW174054   8.453   0.663   7.011
24040SOL    HW274055   8.612   0.675   6.979
24041SOL     OW74056   8.643   1.563   6.375
24041SOL    HW174057   8.664   1.643   6.319
24041SOL    HW274058   8.727   1.530   6.419
24042SOL     OW74059   7.910   1.128   6.217
24042SOL    HW174060   7.849   1.118   6.295
24042SOL    HW274061   7.858   1.118   6.132
24043SOL     OW74062   8.459   0.506   5.600
24043SOL    HW174063   8.375   0.559   5.588
24043SOL    HW274064   8.500   0.529   5.688
24044SOL     OW74065   7.558   0.519   6.936
24044SOL    HW174066   7.647   0.532   6.893
24044SOL    HW274067   7.535   0.600   6.990
24045SOL     OW74068   7.984   0.377   6.825
24045SOL    HW174069   8.020   0.372   6.918
24045SOL    HW274070   7.914   0.307   6.812
24046SOL     OW74071   8.364   0.423   6.220
24046SOL    HW174072   8.310   0.476   6.155
24046SOL    HW274073   8.374   0.329   6.186
24047SOL     OW74074   8.311   0.045   6.380
24047SOL    HW174075   8.269   0.050   6.289
24047SOL    HW274076   8.328   9.950   6.404
24048SOL     OW74077   8.949   1.209   6.454
24048SOL    HW174078   8.905   1.123   6.427
24048SOL    HW274079   9.015   1.236   6.384
24049SOL     OW74080   9.299   0.790   5.992
24049SOL    HW174081   9.369   0.735   6.038
24049SOL    HW274082   9.288   0.759   5.898
24050SOL     OW74083   7.924   1.465   5.749
24050SOL    HW174084   7.854   1.406   5.788
24050SOL    HW274085   7.902   1.485   5.653
24051SOL     OW74086   9.132   1.308   6.272
24051SOL    HW174087   9.232   1.303   6.264
24051SOL    HW274088   9.104   1.403   6.283
24052SOL     OW74089   8.794   0.569   5.671
24052SOL    HW174090   8.720   0.540   5.732
24052SOL    HW274091   8.879   0.578   5.722
24053SOL     OW74092   7.901   0.207   5.859
24053SOL    HW174093   7.952   0.147   5.798
24053SOL    HW274094   7.886   0.295   5.814
24054SOL     OW74095   9.150   1.289   7.124
24054SOL    HW174096   9.236   1.239   7.111
24054SOL    HW274097   9.167   1.371   7.178
24055SOL     OW74098   8.434   1.301   6.895
24055SOL    HW174099   8.351   1.276   6.946
24055SOL    HW274100   8.514   1.275   6.948
24056SOL     OW74101   8.973   1.683   7.336
24056SOL    HW174102   8.999   1.652   7.245
24056SOL    HW274103   9.053   1.722   7.382
24057SOL     OW74104   8.590   1.255   6.679
24057SOL    HW174105   8.523   1.267   6.752
24057SOL    HW274106   8.551   1.285   6.593
24058SOL     OW74107   9.061   1.123   6.691
24058SOL    HW174108   9.042   1.183   6.769
24058SOL    HW274109   9.009   1.154   6.612
24059SOL     OW74110   8.500   0.153   6.925
24059SOL    HW174111   8.488   0.085   6.852
24059SOL    HW274112   8.443   0.233   6.905
24060SOL     OW74113   8.393   1.138   7.306
24060SOL    HW174114   8.301   1.150   7.342
24060SOL    HW274115   8.394   1.060   7.243
24061SOL     OW74116   8.167   1.063   5.964
24061SOL    HW174117   8.152   1.029   6.056
24061SOL    HW274118   8.243   1.013   5.921
24062SOL     OW74119   7.895   0.806   6.875
24062SOL    HW174120   7.961   0.796   6.950
24062SOL    HW274121   7.854   0.718   6.854
24063SOL     OW74122   7.502   1.554   6.909
24063SOL    HW174123   7.446   1.619   6.857
24063SOL    HW274124   7.599   1.579   6.899
24064SOL     OW74125   7.724   1.104   6.003
24064SOL    HW174126   7.729   1.176   5.934
24064SOL    HW274127   7.680   1.023   5.964
24065SOL     OW74128   7.995   0.540   6.393
24065SOL    HW174129   8.005   0.565   6.296
24065SOL    HW274130   8.056   0.596   6.449
24066SOL     OW74131   8.706   1.407   5.987
24066SOL    HW174132   8.766   1.475   6.029
24066SOL    HW274133   8.611   1.428   6.010
24067SOL     OW74134   8.739   1.481   6.746
24067SOL    HW174135   8.777   1.493   6.838
24067SOL    HW274136   8.684   1.398   6.742
24068SOL     OW74137   8.952   0.527   6.099
24068SOL    HW174138   8.862   0.529   6.143
24068SOL    HW274139   8.948   0.581   6.014
24069SOL     OW74140   7.765   1.607   6.842
24069SOL    HW174141   7.760   1.532   6.776
24069SOL    HW274142   7.860   1.616   6.875
24070SOL     OW74143   7.923   0.705   7.277
24070SOL    HW174144   7.980   0.739   7.201
24070SOL    HW274145   7.971   0.631   7.324
24071SOL     OW74146   9.099   0.814   7.273
24071SOL    HW174147   9.008   0.854   7.262
24071SOL    HW274148   9.155   0.834   7.193
24072SOL     OW74149   8.441   0.146   7.277
24072SOL    HW174150   8.507   0.221   7.291
24072SOL    HW274151   8.486   0.070   7.231
24073SOL     OW74152   7.863   0.034   7.376
24073SOL    HW174153   7.929   0.023   7.301
24073SOL    HW274154   7.833   0.129   7.382
24074SOL     OW74155   8.002   0.909   6.646
24074SOL    HW174156   8.039   1.002   6.655
24074SOL    HW274157   7.967   0.879   6.735
24075SOL     OW74158   8.747   0.806   6.604
24075SOL    HW174159   8.656   0.777   6.574
24075SOL    HW274160   8.791   0.731   6.652
24076SOL     OW74161   8.585   0.526   5.845
24076SOL    HW174162   8.602   0.449   5.907
24076SOL    HW274163   8.536   0.598   5.895
24077SOL     OW74164   7.782   0.197   6.804
24077SOL    HW174165   7.725   0.196   6.885
24077SOL    HW274166   7.814   0.104   6.784
24078SOL     OW74167   7.526   1.285   6.866
24078SOL    HW174168   7.550   1.240   6.952
24078SOL    HW274169   7.513   1.383   6.882
24079SOL     OW74170   8.147   0.706   6.542
24079SOL    HW174171   8.222   0.740   6.485
24079SOL    HW274172   8.094   0.783   6.577
24080SOL     OW74173   9.235   0.937   7.473
24080SOL    HW174174   9.188   0.884   7.402
24080SOL    HW274175   9.168   0.991   7.524
24081SOL     OW74176   7.728   0.084   6.238
24081SOL    HW174177   7.690   0.177   6.242
24081SOL    HW274178   7.770   0.062   6.326
24082SOL     OW74179   9.074   0.334   5.935
24082SOL    HW174180   9.158   0.290   5.966
24082SOL    HW274181   9.040   0.395   6.007
24083SOL     OW74182   8.475   0.740   6.518
24083SOL    HW174183   8.440   0.756   6.611
24083SOL    HW274184   8.476   0.642   6.499
24084SOL     OW74185   8.341   1.595   7.272
24084SOL    HW174186   8.362   1.624   7.179
24084SOL    HW274187   8.409   1.528   7.302
24085SOL     OW74188   7.829   0.922   7.429
24085SOL    HW174189   7.895   0.949   7.499
24085SOL    HW274190   7.865   0.844   7.378
24086SOL     OW74191   8.956   0.213   5.691
24086SOL    HW174192   8.896   0.141   5.726
24086SOL    HW274193   9.006   0.254   5.767
24087SOL     OW74194   8.688   0.819   5.640
24087SOL    HW174195   8.716   0.724   5.653
24087SOL    HW274196   8.717   0.851   5.550
24088SOL     OW74197   8.488   1.347   6.442
24088SOL    HW174198   8.486   1.272   6.377
24088SOL    HW274199   8.544   1.422   6.406
24089SOL     OW74200   7.773   0.839   6.509
24089SOL    HW174201   7.858   0.867   6.554
24089SOL    HW274202   7.763   0.740   6.516
24090SOL     OW74203   7.763   0.566   6.533
24090SOL    HW174204   7.706   0.484   6.532
24090SOL    HW274205   7.842   0.553   6.472
24091SOL     OW74206   8.618   0.348   7.329
24091SOL    HW174207   8.563   0.413   7.383
24091SOL    HW274208   8.684   0.399   7.273
24092SOL     OW74209   7.419   1.272   5.741
24092SOL    HW174210   7.330   1.317   5.747
24092SOL    HW274211   7.409   1.184   5.695
24093SOL     OW74212   7.536   1.768   6.551
24093SOL    HW174213   7.487   1.696   6.502
24093SOL    HW274214   7.631   1.771   6.521
24094SOL     OW74215   7.923   1.522   6.475
24094SOL    HW174216   8.000   1.571   6.516
24094SOL    HW274217   7.958   1.457   6.407
24095SOL     OW74218   8.371   0.777   6.763
24095SOL    HW174219   8.434   0.779   6.841
24095SOL    HW274220   8.299   0.709   6.781
24096SOL     OW74221   7.429   0.486   6.697
24096SOL    HW174222   7.490   0.442   6.632
24096SOL    HW274223   7.479   0.506   6.781
24097SOL     OW74224   7.655   0.639   7.264
24097SOL    HW174225   7.751   0.666   7.267
24097SOL    HW274226   7.606   0.695   7.196
24098SOL     OW74227   8.861   0.936   7.211
24098SOL    HW174228   8.864   1.036   7.214
24098SOL    HW274229   8.853   0.905   7.116
24099SOL     OW74230   8.980   0.598   6.741
24099SOL    HW174231   8.938   0.602   6.831
24099SOL    HW274232   9.077   0.577   6.750
24100SOL     OW74233   7.666   1.556   7.278
24100SOL    HW174234   7.641   1.632   7.338
24100SOL    HW274235   7.675   1.473   7.333
24101SOL     OW74236   8.184   0.554   6.766
24101SOL    HW174237   8.107   0.494   6.784
24101SOL    HW274238   8.169   0.603   6.680
24102SOL     OW74239   8.407   1.662   7.012
24102SOL    HW174240   8.366   1.608   6.938
24102SOL    HW274241   8.411   1.758   6.986
24103SOL     OW74242   7.857   0.454   5.750
24103SOL    HW174243   7.893   0.546   5.768
24103SOL    HW274244   7.759   0.460   5.732
24104SOL     OW74245   7.590   1.135   7.086
24104SOL    HW174246   7.600   1.108   7.182
24104SOL    HW274247   7.619   1.060   7.027
24105SOL     OW74248   8.721   1.032   6.774
24105SOL    HW174249   8.728   0.959   6.706
24105SOL    HW274250   8.678   1.112   6.732
24106SOL     OW74251   8.798   0.909   5.875
24106SOL    HW174252   8.736   0.905   5.953
24106SOL    HW274253   8.753   0.872   5.794
24107SOL     OW74254   9.200   1.723   6.709
24107SOL    HW174255   9.252   1.708   6.625
24107SOL    HW274256   9.139   1.645   6.724
24108SOL     OW74257   8.727   1.752   6.687
24108SOL    HW174258   8.819   1.786   6.666
24108SOL    HW274259   8.731   1.655   6.712
24109SOL     OW74260   7.595   1.192   6.628
24109SOL    HW174261   7.567   1.227   6.717
24109SOL    HW274262   7.519   1.144   6.585
24110SOL     OW74263   8.179   1.761   7.417
24110SOL    HW174264   8.118   1.804   7.350
24110SOL    HW274265   8.245   1.703   7.370
24111SOL     OW74266   9.300   0.207   6.022
24111SOL    HW174267   9.333   0.181   5.931
24111SOL    HW274268   9.299   0.127   6.082
24112SOL     OW74269   8.862   1.607   6.107
24112SOL    HW174270   8.917   1.643   6.031
24112SOL    HW274271   8.807   1.681   6.147
24113SOL     OW74272   7.592   1.765   7.435
24113SOL    HW174273   7.544   1.697   7.491
24113SOL    HW274274   7.646   1.825   7.494
24114SOL     OW74275   8.690   0.984   6.205
24114SOL    HW174276   8.752   0.968   6.282
24114SOL    HW274277   8.729   1.053   6.144
24115SOL     OW74278   8.186   1.254   7.003
24115SOL    HW174279   8.182   1.302   7.091
24115SOL    HW274280   8.107   1.280   6.947
24116SOL     OW74281   8.123   1.649   5.762
24116SOL    HW174282   8.157   1.672   5.670
24116SOL    HW274283   8.063   1.570   5.756
24117SOL     OW74284   9.090   1.643   7.077
24117SOL    HW174285   9.171   1.607   7.031
24117SOL    HW274286   9.097   1.742   7.084
24118SOL     OW74287   9.225   0.171   6.621
24118SOL    HW174288   9.256   0.078   6.606
24118SOL    HW274289   9.166   0.200   6.545
24119SOL     OW74290   7.632   0.334   6.283
24119SOL    HW174291   7.547   0.378   6.256
24119SOL    HW274292   7.639   0.334   6.383
24120SOL     OW74293   8.647   1.561   5.654
24120SOL    HW174294   8.663   1.469   5.692
24120SOL    HW274295   8.567   1.559   5.593
24121SOL     OW74296   8.214   0.992   6.954
24121SOL    HW174297   8.240   0.983   6.857
24121SOL    HW274298   8.200   1.088   6.976
24122SOL     OW74299   8.373   0.928   5.853
24122SOL    HW174300   8.448   0.972   5.805
24122SOL    HW274301   8.407   0.848   5.902
24123SOL     OW74302   8.883   1.698   5.661
24123SOL    HW174303   8.796   1.648   5.660
24123SOL    HW274304   8.896   1.744   5.573
24124SOL     OW74305   7.857   1.253   7.103
24124SOL    HW174306   7.892   1.281   7.014
24124SOL    HW274307   7.762   1.223   7.094
24125SOL     OW74308   9.003   1.301   6.894
24125SOL    HW174309   9.065   1.286   6.970
24125SOL    HW274310   8.926   1.357   6.924
24126SOL     OW74311   8.471   1.130   6.288
24126SOL    HW174312   8.404   1.067   6.328
24126SOL    HW274313   8.547   1.078   6.249
24127SOL     OW74314   8.428   0.214   6.564
24127SOL    HW174315   8.378   0.176   6.486
24127SOL    HW274316   8.465   0.141   6.620
24128SOL     OW74317   8.087   1.497   6.070
24128SOL    HW174318   8.139   1.439   6.007
24128SOL    HW274319   8.007   1.534   6.023
24129SOL     OW74320   9.254   0.365   7.080
24129SOL    HW174321   9.303   0.443   7.040
24129SOL    HW274322   9.226   0.303   7.007
24130SOL     OW74323   7.680   1.311   5.819
24130SOL    HW174324   7.586   1.287   5.793
24130SOL    HW274325   7.678   1.366   5.902
24131SOL     OW74326   7.613   1.063   7.344
24131SOL    HW174327   7.528   1.029   7.382
24131SOL    HW274328   7.690   1.008   7.377
24132SOL     OW74329   8.864   0.876   6.947
24132SOL    HW174330   8.803   0.935   6.894
24132SOL    HW274331   8.956   0.880   6.909
24133SOL     OW74332   8.670   1.293   5.733
24133SOL    HW174333   8.620   1.207   5.728
24133SOL    HW274334   8.681   1.320   5.828
24134SOL     OW74335   8.089   0.777   7.065
24134SOL    HW174336   8.125   0.866   7.037
24134SOL    HW274337   8.162   0.708   7.060
24135SOL     OW74338   8.973   1.858   6.625
24135SOL    HW174339   9.000   1.918   6.550
24135SOL    HW274340   9.055   1.813   6.661
24136SOL     OW74341   8.195   0.489   7.273
24136SOL    HW174342   8.235   0.571   7.315
24136SOL    HW274343   8.208   0.411   7.333
24137SOL     OW74344   8.884   1.207   7.180
24137SOL    HW174345   8.864   1.224   7.276
24137SOL    HW274346   8.977   1.237   7.159
24138SOL     OW74347   7.814   1.798   7.176
24138SOL    HW174348   7.731   1.854   7.177
24138SOL    HW274349   7.790   1.703   7.194
24139SOL     OW74350   9.105   0.884   6.819
24139SOL    HW174351   9.111   0.808   6.754
24139SOL    HW274352   9.093   0.970   6.769
24140SOL     OW74353   8.640   0.342   6.046
24140SOL    HW174354   8.719   0.282   6.035
24140SOL    HW274355   8.659   0.409   6.118
24141SOL     OW74356   8.058   0.705   6.164
24141SOL    HW174357   8.085   0.799   6.184
24141SOL    HW274358   7.964   0.703   6.130
24142SOL     OW74359   9.139   0.370   7.323
24142SOL    HW174360   9.182   0.374   7.233
24142SOL    HW274361   9.064   0.304   7.321
24143SOL     OW74362   9.244   0.900   7.057
24143SOL    HW174363   9.276   0.995   7.059
24143SOL    HW274364   9.197   0.882   6.971
24144SOL     OW74365   8.250   1.355   5.644
24144SOL    HW174366   8.244   1.356   5.744
24144SOL    HW274367   8.319   1.420   5.614
24145SOL     OW74368   8.131   1.672   6.559
24145SOL    HW174369   8.098   1.765   6.545
24145SOL    HW274370   8.228   1.667   6.534
24146SOL     OW74371   8.304   0.963   6.442
24146SOL    HW174372   8.374   0.900   6.476
24146SOL    HW274373   8.271   1.020   6.518
24147SOL     OW74374   8.545   1.050   5.669
24147SOL    HW174375   8.489   1.063   5.587
24147SOL    HW274376   8.599   0.967   5.658
24148SOL     OW74377   9.270   1.604   6.469
24148SOL    HW174378   9.191   1.593   6.408
24148SOL    HW274379   9.299   1.514   6.501
24149SOL     OW74380   7.660   1.319   7.427
24149SOL    HW174381   7.646   1.228   7.387
24149SOL    HW274382   7.599   1.331   7.505
24150SOL     OW74383   7.584   1.212   6.216
24150SOL    HW174384   7.631   1.174   6.296
24150SOL    HW274385   7.622   1.172   6.132
24151SOL     OW74386   8.154   1.402   7.223
24151SOL    HW174387   8.073   1.402   7.281
24151SOL    HW274388   8.215   1.476   7.250
24152SOL     OW74389   9.196   0.177   6.897
24152SOL    HW174390   9.108   0.146   6.931
24152SOL    HW274391   9.194   0.180   6.797
24153SOL     OW74392   7.810   0.406   6.079
24153SOL    HW174393   7.823   0.333   6.013
24153SOL    HW274394   7.750   0.374   6.153
24154SOL     OW74395   9.056   1.503   6.717
24154SOL    HW174396   8.995   1.488   6.639
24154SOL    HW274397   9.048   1.427   6.781
24155SOL     OW74398   7.790   0.566   6.802
24155SOL    HW174399   7.862   0.499   6.818
24155SOL    HW274400   7.774   0.576   6.704
24156SOL     OW74401   8.275   1.631   6.228
24156SOL    HW174402   8.276   1.724   6.192
24156SOL    HW274403   8.203   1.579   6.183
24157SOL     OW74404   8.470   9.986   6.717
24157SOL    HW174405   8.376   9.954   6.713
24157SOL    HW274406   8.532   9.909   6.708
24158SOL     OW74407   8.244   1.329   5.920
24158SOL    HW174408   8.218   1.234   5.940
24158SOL    HW274409   8.328   1.351   5.970
24159SOL     OW74410   8.043   1.596   6.893
24159SOL    HW174411   8.040   1.689   6.930
24159SOL    HW274412   8.134   1.577   6.857
24160SOL     OW74413   8.780   0.026   5.796
24160SOL    HW174414   8.807   9.932   5.817
24160SOL    HW274415   8.681   0.035   5.806
24161SOL     OW74416   8.708   0.528   6.236
24161SOL    HW174417   8.651   0.609   6.231
24161SOL    HW274418   8.694   0.482   6.324
24162SOL     OW74419   9.062   0.277   6.425
24162SOL    HW174420   8.995   0.311   6.490
24162SOL    HW274421   9.098   0.353   6.371
24163SOL     OW74422   8.343   1.699   5.911
24163SOL    HW174423   8.263   1.672   5.858
24163SOL    HW274424   8.315   1.763   5.983
24164SOL     OW74425   7.662   0.591   7.540
24164SOL    HW174426   7.579   0.609   7.594
24164SOL    HW274427   7.648   0.621   7.446
24165SOL     OW74428   7.591   0.321   8.486
24165SOL    HW174429   7.640   0.270   8.556
24165SOL    HW274430   7.540   0.258   8.428
24166SOL     OW74431   7.363   0.302   8.004
24166SOL    HW174432   7.282   0.345   8.044
24166SOL    HW274433   7.357   0.203   8.016
24167SOL     OW74434   8.029   1.320   8.690
24167SOL    HW174435   7.945   1.317   8.635
24167SOL    HW274436   8.052   1.415   8.711
24168SOL     OW74437   9.009   1.456   8.142
24168SOL    HW174438   8.959   1.427   8.223
24168SOL    HW274439   8.945   1.495   8.076
24169SOL     OW74440   8.574   0.771   8.114
24169SOL    HW174441   8.629   0.853   8.101
24169SOL    HW274442   8.526   0.778   8.202
24170SOL     OW74443   9.107   0.592   7.731
24170SOL    HW174444   9.111   0.618   7.635
24170SOL    HW274445   9.076   0.497   7.740
24171SOL     OW74446   8.167   1.134   8.528
24171SOL    HW174447   8.111   1.174   8.601
24171SOL    HW274448   8.201   1.206   8.469
24172SOL     OW74449   8.358   0.729   9.256
24172SOL    HW174450   8.377   0.792   9.332
24172SOL    HW274451   8.374   0.775   9.169
24173SOL     OW74452   8.124   0.964   8.122
24173SOL    HW174453   8.198   0.976   8.187
24173SOL    HW274454   8.052   1.032   8.141
24174SOL     OW74455   8.152   1.176   9.285
24174SOL    HW174456   8.214   1.244   9.326
24174SOL    HW274457   8.072   1.223   9.247
24175SOL     OW74458   7.803   1.384   8.539
24175SOL    HW174459   7.728   1.330   8.502
24175SOL    HW274460   7.843   1.441   8.467
24176SOL     OW74461   8.864   1.527   8.822
24176SOL    HW174462   8.927   1.601   8.845
24176SOL    HW274463   8.786   1.529   8.884
24177SOL     OW74464   7.908   0.364   8.896
24177SOL    HW174465   7.998   0.332   8.924
24177SOL    HW274466   7.838   0.313   8.946
24178SOL     OW74467   9.114   0.481   8.214
24178SOL    HW174468   9.108   0.533   8.129
24178SOL    HW274469   9.094   0.540   8.291
24179SOL     OW74470   7.661   1.801   7.892
24179SOL    HW174471   7.690   1.856   7.970
24179SOL    HW274472   7.736   1.791   7.827
24180SOL     OW74473   8.557   1.340   9.155
24180SOL    HW174474   8.605   1.334   9.242
24180SOL    HW274475   8.501   1.258   9.142
24181SOL     OW74476   7.647   1.540   7.963
24181SOL    HW174477   7.653   1.638   7.942
24181SOL    HW274478   7.577   1.526   8.033
24182SOL     OW74479   7.793   1.081   8.389
24182SOL    HW174480   7.779   0.984   8.412
24182SOL    HW274481   7.713   1.133   8.419
24183SOL     OW74482   8.014   1.836   8.858
24183SOL    HW174483   7.939   1.809   8.919
24183SOL    HW274484   8.066   1.910   8.900
24184SOL     OW74485   8.013   1.010   7.626
24184SOL    HW174486   8.062   1.063   7.557
24184SOL    HW274487   8.059   1.020   7.714
24185SOL     OW74488   7.605   0.701   8.052
24185SOL    HW174489   7.600   0.604   8.077
24185SOL    HW274490   7.593   0.757   8.133
24186SOL     OW74491   9.294   1.769   7.785
24186SOL    HW174492   9.374   1.737   7.836
24186SOL    HW274493   9.317   1.852   7.735
24187SOL     OW74494   7.486   1.582   7.597
24187SOL    HW174495   7.470   1.487   7.625
24187SOL    HW274496   7.453   1.643   7.668
24188SOL     OW74497   9.146   0.993   8.170
24188SOL    HW174498   9.207   0.940   8.112
24188SOL    HW274499   9.146   1.089   8.140
24189SOL     OW74500   9.123   1.181   7.831
24189SOL    HW174501   9.198   1.119   7.807
24189SOL    HW274502   9.133   1.210   7.926
24190SOL     OW74503   7.517   0.781   8.946
24190SOL    HW174504   7.583   0.827   8.887
24190SOL    HW274505   7.435   0.838   8.955
24191SOL     OW74506   8.057   1.387   8.167
24191SOL    HW174507   8.016   1.297   8.180
24191SOL    HW274508   8.045   1.416   8.072
24192SOL     OW74509   8.670   1.213   8.877
24192SOL    HW174510   8.692   1.143   8.809
24192SOL    HW274511   8.741   1.213   8.948
24193SOL     OW74512   7.670   0.932   8.776
24193SOL    HW174513   7.763   0.895   8.768
24193SOL    HW274514   7.632   0.944   8.684
24194SOL     OW74515   9.030   1.071   7.597
24194SOL    HW174516   8.954   1.009   7.617
24194SOL    HW274517   9.058   1.118   7.681
24195SOL     OW74518   8.609   1.787   9.073
24195SOL    HW174519   8.627   1.858   9.006
24195SOL    HW274520   8.619   1.697   9.030
24196SOL     OW74521   7.838   0.285   9.261
24196SOL    HW174522   7.893   0.348   9.315
24196SOL    HW274523   7.741   0.309   9.271
24197SOL     OW74524   8.895   1.373   8.374
24197SOL    HW174525   8.836   1.420   8.440
24197SOL    HW274526   8.870   1.277   8.369
24198SOL     OW74527   9.055   1.887   7.969
24198SOL    HW174528   9.057   1.803   7.914
24198SOL    HW274529   9.074   1.864   8.065
24199SOL     OW74530   8.052   0.667   7.725
24199SOL    HW174531   8.088   0.755   7.695
24199SOL    HW274532   7.978   0.683   7.791
24200SOL     OW74533   8.713   0.450   8.348
24200SOL    HW174534   8.615   0.447   8.368
24200SOL    HW274535   8.758   0.369   8.385
24201SOL     OW74536   9.056   1.655   7.823
24201SOL    HW174537   9.145   1.697   7.805
24201SOL    HW274538   9.054   1.564   7.781
24202SOL     OW74539   8.260   0.575   8.909
24202SOL    HW174540   8.230   0.541   8.998
24202SOL    HW274541   8.228   0.513   8.837
24203SOL     OW74542   8.836   0.528   9.125
24203SOL    HW174543   8.814   0.566   9.215
24203SOL    HW274544   8.930   0.493   9.126
24204SOL     OW74545   8.402   0.882   9.027
24204SOL    HW174546   8.459   0.818   8.975
24204SOL    HW274547   8.345   0.935   8.963
24205SOL     OW74548   8.460   0.388   8.623
24205SOL    HW174549   8.369   0.409   8.659
24205SOL    HW274550   8.451   0.337   8.537
24206SOL     OW74551   8.494   0.702   7.857
24206SOL    HW174552   8.515   0.725   7.952
24206SOL    HW274553   8.415   0.641   7.854
24207SOL     OW74554   7.569   0.852   8.271
24207SOL    HW174555   7.646   0.834   8.333
24207SOL    HW274556   7.509   0.921   8.312
24208SOL     OW74557   7.561   1.867   9.051
24208SOL    HW174558   7.564   1.831   9.145
24208SOL    HW274559   7.466   1.866   9.018
24209SOL     OW74560   8.377   0.356   7.635
24209SOL    HW174561   8.411   0.432   7.579
24209SOL    HW274562   8.448   0.286   7.642
24210SOL     OW74563   9.078   0.636   9.367
24210SOL    HW174564   9.073   0.711   9.300
24210SOL    HW274565   9.089   0.549   9.319
24211SOL     OW74566   8.835   1.160   7.910
24211SOL    HW174567   8.928   1.168   7.874
24211SOL    HW274568   8.780   1.237   7.879
24212SOL     OW74569   7.983   0.251   8.363
24212SOL    HW174570   7.992   0.250   8.463
24212SOL    HW274571   7.987   0.346   8.330
24213SOL     OW74572   8.441   1.440   7.947
24213SOL    HW174573   8.400   1.517   7.899
24213SOL    HW274574   8.427   1.450   8.046
24214SOL     OW74575   7.804   1.789   8.324
24214SOL    HW174576   7.839   1.696   8.328
24214SOL    HW274577   7.874   1.853   8.355
24215SOL     OW74578   9.256   1.091   8.402
24215SOL    HW174579   9.222   1.046   8.320
24215SOL    HW274580   9.183   1.099   8.469
24216SOL     OW74581   8.623   1.526   8.960
24216SOL    HW174582   8.618   1.458   9.032
24216SOL    HW274583   8.561   1.501   8.886
24217SOL     OW74584   7.786   0.960   7.789
24217SOL    HW174585   7.856   0.984   7.722
24217SOL    HW274586   7.798   0.865   7.818
24218SOL     OW74587   8.937   0.820   8.156
24218SOL    HW174588   8.924   0.763   8.237
24218SOL    HW274589   9.013   0.882   8.171
24219SOL     OW74590   7.922   1.314   9.204
24219SOL    HW174591   7.901   1.313   9.106
24219SOL    HW274592   7.839   1.298   9.256
24220SOL     OW74593   7.718   0.204   9.013
24220SOL    HW174594   7.618   0.205   9.020
24220SOL    HW274595   7.759   0.222   9.102
24221SOL     OW74596   7.904   1.801   7.756
24221SOL    HW174597   7.948   1.849   7.832
24221SOL    HW274598   7.969   1.737   7.715
24222SOL     OW74599   8.795   0.114   7.877
24222SOL    HW174600   8.772   0.067   7.791
24222SOL    HW274601   8.873   0.068   7.920
24223SOL     OW74602   7.705   1.787   8.672
24223SOL    HW174603   7.747   1.704   8.709
24223SOL    HW274604   7.659   1.766   8.586
24224SOL     OW74605   8.377   1.705   8.323
24224SOL    HW174606   8.469   1.667   8.322
24224SOL    HW274607   8.321   1.661   8.253
24225SOL     OW74608   7.834   0.690   7.901
24225SOL    HW174609   7.838   0.591   7.891
24225SOL    HW274610   7.752   0.715   7.954
24226SOL     OW74611   8.082   0.070   7.545
24226SOL    HW174612   8.144   0.129   7.493
24226SOL    HW274613   8.008   0.039   7.486
24227SOL     OW74614   8.283   0.256   9.213
24227SOL    HW174615   8.374   0.216   9.206
24227SOL    HW274616   8.229   0.206   9.281
24228SOL     OW74617   8.289   1.507   8.625
24228SOL    HW174618   8.269   1.456   8.541
24228SOL    HW274619   8.353   1.455   8.681
24229SOL     OW74620   8.773   0.588   8.863
24229SOL    HW174621   8.796   0.571   8.959
24229SOL    HW274622   8.787   0.685   8.842
24230SOL     OW74623   8.245   1.355   8.388
24230SOL    HW174624   8.339   1.370   8.357
24230SOL    HW274625   8.182   1.370   8.312
24231SOL     OW74626   8.373   0.519   8.333
24231SOL    HW174627   8.368   0.517   8.233
24231SOL    HW274628   8.375   0.425   8.368
24232SOL     OW74629   8.053   0.072   7.904
24232SOL    HW174630   7.973   0.054   7.961
24232SOL    HW274631   8.032   0.145   7.839
24233SOL     OW74632   8.848   1.223   7.443
24233SOL    HW174633   8.913   1.175   7.502
24233SOL    HW274634   8.766   1.246   7.495
24234SOL     OW74635   7.757   0.063   7.643
24234SOL    HW174636   7.827   0.129   7.671
24234SOL    HW274637   7.777   0.029   7.551
24235SOL     OW74638   8.504   0.689   8.861
24235SOL    HW174639   8.426   0.632   8.885
24235SOL    HW274640   8.588   0.635   8.867
24236SOL     OW74641   8.634   1.626   8.272
24236SOL    HW174642   8.661   1.673   8.188
24236SOL    HW274643   8.680   1.668   8.351
24237SOL     OW74644   7.929   1.149   8.170
24237SOL    HW174645   7.881   1.124   8.254
24237SOL    HW274646   7.862   1.159   8.096
24238SOL     OW74647   8.679   1.798   8.056
24238SOL    HW174648   8.726   1.859   7.993
24238SOL    HW274649   8.599   1.844   8.094
24239SOL     OW74650   8.489   0.539   7.472
24239SOL    HW174651   8.443   0.617   7.430
24239SOL    HW274652   8.554   0.571   7.541
24240SOL     OW74653   7.519   0.541   8.808
24240SOL    HW174654   7.617   0.540   8.790
24240SOL    HW274655   7.496   0.620   8.865
24241SOL     OW74656   8.003   0.235   8.634
24241SOL    HW174657   8.049   0.162   8.683
24241SOL    HW274658   7.906   0.236   8.658
24242SOL     OW74659   8.388   0.489   8.070
24242SOL    HW174660   8.336   0.494   7.985
24242SOL    HW274661   8.485   0.476   8.050
24243SOL     OW74662   8.377   0.045   8.195
24243SOL    HW174663   8.358   0.060   8.098
24243SOL    HW274664   8.390   9.947   8.212
24244SOL     OW74665   8.843   1.105   8.355
24244SOL    HW174666   8.793   1.027   8.393
24244SOL    HW274667   8.836   1.103   8.255
24245SOL     OW74668   8.886   0.664   8.378
24245SOL    HW174669   8.825   0.587   8.362
24245SOL    HW274670   8.942   0.646   8.459
24246SOL     OW74671   9.306   0.852   8.007
24246SOL    HW174672   9.401   0.839   8.036
24246SOL    HW274673   9.260   0.763   8.002
24247SOL     OW74674   7.940   1.434   7.624
24247SOL    HW174675   7.857   1.406   7.672
24247SOL    HW274676   7.944   1.388   7.536
24248SOL     OW74677   9.180   1.247   8.083
24248SOL    HW174678   9.278   1.261   8.095
24248SOL    HW274679   9.132   1.331   8.109
24249SOL     OW74680   8.824   0.601   7.467
24249SOL    HW174681   8.776   0.585   7.553
24249SOL    HW274682   8.922   0.605   7.483
24250SOL     OW74683   7.958   0.246   7.710
24250SOL    HW174684   8.015   0.188   7.651
24250SOL    HW274685   7.941   0.333   7.664
24251SOL     OW74686   9.140   1.280   8.991
24251SOL    HW174687   9.213   1.213   8.977
24251SOL    HW274688   9.180   1.364   9.029
24252SOL     OW74689   8.450   1.350   8.797
24252SOL    HW174690   8.365   1.325   8.844
24252SOL    HW274691   8.526   1.299   8.837
24253SOL     OW74692   9.075   1.645   9.137
24253SOL    HW174693   9.048   1.677   9.047
24253SOL    HW274694   9.157   1.588   9.130
24254SOL     OW74695   8.580   1.276   8.566
24254SOL    HW174696   8.518   1.301   8.640
24254SOL    HW274697   8.543   1.308   8.479
24255SOL     OW74698   9.033   1.102   8.565
24255SOL    HW174699   9.022   1.177   8.630
24255SOL    HW274700   8.964   1.109   8.493
24256SOL     OW74701   8.327   0.145   8.809
24256SOL    HW174702   8.334   0.118   8.712
24256SOL    HW274703   8.411   0.191   8.836
24257SOL     OW74704   8.402   1.111   9.178
24257SOL    HW174705   8.305   1.127   9.200
24257SOL    HW274706   8.409   1.028   9.123
24258SOL     OW74707   8.160   1.029   7.857
24258SOL    HW174708   8.147   0.999   7.952
24258SOL    HW274709   8.233   0.976   7.815
24259SOL     OW74710   7.908   0.804   8.749
24259SOL    HW174711   7.975   0.806   8.823
24259SOL    HW274712   7.862   0.715   8.749
24260SOL     OW74713   8.714   0.371   8.706
24260SOL    HW174714   8.742   0.453   8.756
24260SOL    HW274715   8.623   0.385   8.668
24261SOL     OW74716   7.522   1.528   8.801
24261SOL    HW174717   7.475   1.598   8.748
24261SOL    HW274718   7.621   1.544   8.798
24262SOL     OW74719   7.749   1.172   7.962
24262SOL    HW174720   7.753   1.249   7.899
24262SOL    HW274721   7.763   1.087   7.912
24263SOL     OW74722   7.986   0.521   8.318
24263SOL    HW174723   7.987   0.581   8.239
24263SOL    HW274724   8.052   0.553   8.386
24264SOL     OW74725   8.686   1.381   7.839
24264SOL    HW174726   8.747   1.451   7.876
24264SOL    HW274727   8.595   1.392   7.877
24265SOL     OW74728   8.755   1.483   8.580
24265SOL    HW174729   8.796   1.498   8.670
24265SOL    HW274730   8.693   1.406   8.584
24266SOL     OW74731   9.106   0.650   7.999
24266SOL    HW174732   9.030   0.711   8.024
24266SOL    HW274733   9.104   0.634   7.900
24267SOL     OW74734   7.796   1.535   8.761
24267SOL    HW174735   7.790   1.477   8.679
24267SOL    HW274736   7.891   1.561   8.776
24268SOL     OW74737   7.938   0.683   9.136
24268SOL    HW174738   7.982   0.734   9.063
24268SOL    HW274739   7.998   0.610   9.167
24269SOL     OW74740   9.065   0.811   9.154
24269SOL    HW174741   8.973   0.845   9.135
24269SOL    HW274742   9.123   0.825   9.074
24270SOL     OW74743   8.510   0.096   9.230
24270SOL    HW174744   8.572   0.144   9.293
24270SOL    HW274745   8.560   0.066   9.149
24271SOL     OW74746   8.012   0.084   9.181
24271SOL    HW174747   8.049   0.125   9.098
24271SOL    HW274748   7.936   0.140   9.215
24272SOL     OW74749   8.047   0.873   8.522
24272SOL    HW174750   8.080   0.967   8.517
24272SOL    HW274751   7.998   0.859   8.608
24273SOL     OW74752   8.717   0.874   8.439
24273SOL    HW174753   8.626   0.842   8.416
24273SOL    HW274754   8.784   0.802   8.420
24274SOL     OW74755   8.665   0.572   7.687
24274SOL    HW174756   8.705   0.497   7.740
24274SOL    HW274757   8.609   0.629   7.747
24275SOL     OW74758   7.732   0.204   8.697
24275SOL    HW174759   7.723   0.262   8.778
24275SOL    HW274760   7.720   0.108   8.723
24276SOL     OW74761   7.524   1.266   8.729
24276SOL    HW174762   7.551   1.215   8.810
24276SOL    HW274763   7.516   1.363   8.752
24277SOL     OW74764   8.168   0.628   8.494
24277SOL    HW174765   8.241   0.615   8.427
24277SOL    HW274766   8.133   0.721   8.487
24278SOL     OW74767   9.167   0.992   9.327
24278SOL    HW174768   9.137   0.924   9.260
24278SOL    HW274769   9.089   1.019   9.384
24279SOL     OW74770   7.812   0.046   8.020
24279SOL    HW174771   7.733   0.058   7.960
24279SOL    HW274772   7.790   0.080   8.112
24280SOL     OW74773   9.016   0.338   7.760
24280SOL    HW174774   9.073   0.287   7.824
24280SOL    HW274775   8.928   0.358   7.802
24281SOL     OW74776   8.465   0.770   8.386
24281SOL    HW174777   8.441   0.786   8.482
24281SOL    HW274778   8.441   0.676   8.361
24282SOL     OW74779   8.422   1.569   9.224
24282SOL    HW174780   8.391   1.631   9.152
24282SOL    HW274781   8.461   1.486   9.182
24283SOL     OW74782   9.301   1.505   9.050
24283SOL    HW174783   9.318   1.524   8.953
24283SOL    HW274784   9.387   1.504   9.099
24284SOL     OW74785   7.817   0.866   9.303
24284SOL    HW174786   7.886   0.919   9.353
24284SOL    HW274787   7.863   0.802   9.241
24285SOL     OW74788   8.922   0.196   7.542
24285SOL    HW174789   8.870   0.122   7.585
24285SOL    HW274790   8.963   0.253   7.613
24286SOL     OW74791   8.707   0.840   7.415
24286SOL    HW174792   8.743   0.748   7.429
24286SOL    HW274793   8.754   0.884   7.339
24287SOL     OW74794   8.506   1.384   8.323
24287SOL    HW174795   8.526   1.305   8.266
24287SOL    HW274796   8.564   1.461   8.295
24288SOL     OW74797   7.781   0.808   8.444
24288SOL    HW174798   7.879   0.825   8.451
24288SOL    HW274799   7.762   0.712   8.461
24289SOL     OW74800   7.768   0.531   8.480
24289SOL    HW174801   7.700   0.459   8.469
24289SOL    HW274802   7.840   0.520   8.412
24290SOL     OW74803   8.586   0.409   9.113
24290SOL    HW174804   8.537   0.427   9.198
24290SOL    HW274805   8.677   0.451   9.118
24291SOL     OW74806   8.568   0.243   8.902
24291SOL    HW174807   8.566   0.303   8.982
24291SOL    HW274808   8.622   0.285   8.829
24292SOL     OW74809   7.484   1.296   7.643
24292SOL    HW174810   7.392   1.313   7.608
24292SOL    HW274811   7.492   1.200   7.671
24293SOL     OW74812   7.562   1.740   8.438
24293SOL    HW174813   7.541   1.645   8.414
24293SOL    HW274814   7.645   1.769   8.389
24294SOL     OW74815   7.927   1.543   8.355
24294SOL    HW174816   8.000   1.602   8.391
24294SOL    HW274817   7.963   1.486   8.281
24295SOL     OW74818   8.379   0.792   8.639
24295SOL    HW174819   8.435   0.767   8.718
24295SOL    HW274820   8.292   0.743   8.644
24296SOL     OW74821   7.411   0.518   8.561
24296SOL    HW174822   7.467   0.451   8.513
24296SOL    HW274823   7.452   0.538   8.650
24297SOL     OW74824   7.634   0.620   9.136
24297SOL    HW174825   7.733   0.629   9.141
24297SOL    HW274826   7.599   0.682   9.065
24298SOL     OW74827   8.834   0.926   9.072
24298SOL    HW174828   8.847   1.025   9.074
24298SOL    HW274829   8.818   0.896   8.978
24299SOL     OW74830   8.281   0.532   7.822
24299SOL    HW174831   8.306   0.458   7.760
24299SOL    HW274832   8.194   0.573   7.792
24300SOL     OW74833   9.033   0.609   8.599
24300SOL    HW174834   8.979   0.575   8.676
24300SOL    HW274835   9.124   0.568   8.601
24301SOL     OW74836   7.681   1.542   9.169
24301SOL    HW174837   7.658   1.617   9.231
24301SOL    HW274838   7.688   1.457   9.220
24302SOL     OW74839   8.190   0.436   8.683
24302SOL    HW174840   8.120   0.365   8.671
24302SOL    HW274841   8.176   0.508   8.615
24303SOL     OW74842   8.298   1.717   9.009
24303SOL    HW174843   8.247   1.652   8.953
24303SOL    HW274844   8.336   1.789   8.951
24304SOL     OW74845   7.904   0.480   7.577
24304SOL    HW174846   7.966   0.543   7.624
24304SOL    HW274847   7.813   0.522   7.572
24305SOL     OW74848   7.601   1.126   8.956
24305SOL    HW174849   7.607   1.095   9.050
24305SOL    HW274850   7.631   1.053   8.894
24306SOL     OW74851   8.694   1.042   8.654
24306SOL    HW174852   8.701   0.976   8.579
24306SOL    HW274853   8.655   1.128   8.619
24307SOL     OW74854   8.816   0.923   7.653
24307SOL    HW174855   8.753   0.920   7.730
24307SOL    HW274856   8.768   0.896   7.570
24308SOL     OW74857   9.194   1.693   8.616
24308SOL    HW174858   9.263   1.734   8.557
24308SOL    HW274859   9.163   1.607   8.577
24309SOL     OW74860   8.733   1.742   8.501
24309SOL    HW174861   8.821   1.787   8.509
24309SOL    HW274862   8.739   1.649   8.537
24310SOL     OW74863   7.576   1.230   8.469
24310SOL    HW174864   7.552   1.241   8.565
24310SOL    HW274865   7.510   1.169   8.425
24311SOL     OW74866   8.137   1.731   9.230
24311SOL    HW174867   8.064   1.799   9.220
24311SOL    HW274868   8.204   1.743   9.157
24312SOL     OW74869   9.206   0.183   7.897
24312SOL    HW174870   9.237   0.180   7.802
24312SOL    HW274871   9.265   0.125   7.953
24313SOL     OW74872   8.834   1.581   7.963
24313SOL    HW174873   8.909   1.616   7.907
24313SOL    HW274874   8.776   1.657   7.993
24314SOL     OW74875   7.592   1.767   9.306
24314SOL    HW174876   7.545   1.701   9.364
24314SOL    HW274877   7.636   1.836   9.363
24315SOL     OW74878   8.738   0.991   8.094
24315SOL    HW174879   8.810   0.925   8.112
24315SOL    HW274880   8.767   1.054   8.022
24316SOL     OW74881   8.204   1.287   8.903
24316SOL    HW174882   8.184   1.349   8.979
24316SOL    HW274883   8.131   1.294   8.835
24317SOL     OW74884   8.102   1.647   7.651
24317SOL    HW174885   8.133   1.682   7.562
24317SOL    HW274886   8.049   1.564   7.637
24318SOL     OW74887   9.054   1.724   8.862
24318SOL    HW174888   9.105   1.709   8.778
24318SOL    HW274889   9.064   1.820   8.890
24319SOL     OW74890   9.266   0.132   8.500
24319SOL    HW174891   9.307   0.046   8.470
24319SOL    HW274892   9.199   0.163   8.432
24320SOL     OW74893   7.636   0.336   8.084
24320SOL    HW174894   7.537   0.327   8.069
24320SOL    HW274895   7.664   0.273   8.157
24321SOL     OW74896   8.246   1.019   8.853
24321SOL    HW174897   8.273   1.016   8.756
24321SOL    HW274898   8.230   1.114   8.880
24322SOL     OW74899   8.349   0.893   7.729
24322SOL    HW174900   8.390   0.919   7.642
24322SOL    HW274901   8.408   0.827   7.775
24323SOL     OW74902   7.819   1.315   8.955
24323SOL    HW174903   7.806   1.391   8.893
24323SOL    HW274904   7.740   1.253   8.950
24324SOL     OW74905   9.022   1.314   8.748
24324SOL    HW174906   9.070   1.290   8.832
24324SOL    HW274907   8.954   1.384   8.767
24325SOL     OW74908   8.528   1.150   8.196
24325SOL    HW174909   8.452   1.093   8.227
24325SOL    HW274910   8.598   1.091   8.155
24326SOL     OW74911   8.424   0.246   8.393
24326SOL    HW174912   8.425   0.207   8.301
24326SOL    HW274913   8.402   0.174   8.459
24327SOL     OW74914   8.048   1.453   7.907
24327SOL    HW174915   8.119   1.393   7.870
24327SOL    HW274916   7.979   1.471   7.836
24328SOL     OW74917   7.719   1.370   7.772
24328SOL    HW174918   7.636   1.345   7.724
24328SOL    HW274919   7.698   1.437   7.843
24329SOL     OW74920   7.611   1.035   9.214
24329SOL    HW174921   7.524   1.016   9.259
24329SOL    HW274922   7.680   0.971   9.246
24330SOL     OW74923   8.138   0.233   8.981
24330SOL    HW174924   8.201   0.205   8.909
24330SOL    HW274925   8.190   0.257   9.063
24331SOL     OW74926   7.561   0.382   7.272
24331SOL    HW174927   7.462   0.384   7.286
24331SOL    HW274928   7.596   0.476   7.269
24332SOL     OW74929   8.819   0.853   8.811
24332SOL    HW174930   8.760   0.918   8.762
24332SOL    HW274931   8.913   0.860   8.777
24333SOL     OW74932   7.599   0.114   7.853
24333SOL    HW174933   7.593   0.214   7.851
24333SOL    HW274934   7.647   0.081   7.771
24334SOL     OW74935   8.619   1.301   7.576
24334SOL    HW174936   8.519   1.295   7.575
24334SOL    HW274937   8.649   1.331   7.667
24335SOL     OW74938   8.099   0.799   8.937
24335SOL    HW174939   8.147   0.885   8.919
24335SOL    HW274940   8.164   0.723   8.930
24336SOL     OW74941   8.980   1.860   8.526
24336SOL    HW174942   9.024   1.923   8.462
24336SOL    HW274943   9.049   1.799   8.567
24337SOL     OW74944   8.190   0.522   9.169
24337SOL    HW174945   8.243   0.596   9.210
24337SOL    HW274946   8.228   0.434   9.198
24338SOL     OW74947   8.882   1.195   9.067
24338SOL    HW174948   8.866   1.215   9.163
24338SOL    HW274949   8.972   1.230   9.041
24339SOL     OW74950   7.815   1.761   9.039
24339SOL    HW174951   7.727   1.805   9.022
24339SOL    HW274952   7.801   1.667   9.070
24340SOL     OW74953   9.067   0.868   8.704
24340SOL    HW174954   9.070   0.787   8.645
24340SOL    HW274955   9.064   0.950   8.647
24341SOL     OW74956   8.768   0.385   7.863
24341SOL    HW174957   8.760   0.286   7.874
24341SOL    HW274958   8.734   0.430   7.946
24342SOL     OW74959   8.002   0.713   8.127
24342SOL    HW174960   8.050   0.801   8.126
24342SOL    HW274961   7.946   0.704   8.045
24343SOL     OW74962   9.117   0.421   9.202
24343SOL    HW174963   9.210   0.449   9.179
24343SOL    HW274964   9.077   0.369   9.127
24344SOL     OW74965   9.210   0.882   8.935
24344SOL    HW174966   9.253   0.973   8.934
24344SOL    HW274967   9.159   0.869   8.850
24345SOL     OW74968   8.336   1.355   7.577
24345SOL    HW174969   8.296   1.332   7.666
24345SOL    HW274970   8.379   1.445   7.582
24346SOL     OW74971   8.115   1.721   8.420
24346SOL    HW174972   8.086   1.816   8.407
24346SOL    HW274973   8.214   1.715   8.405
24347SOL     OW74974   8.321   0.998   8.315
24347SOL    HW174975   8.369   0.915   8.342
24347SOL    HW274976   8.273   1.036   8.395
24348SOL     OW74977   8.466   0.941   7.491
24348SOL    HW174978   8.447   1.025   7.440
24348SOL    HW274979   8.556   0.905   7.464
24349SOL     OW74980   9.217   1.553   8.291
24349SOL    HW174981   9.147   1.528   8.224
24349SOL    HW274982   9.199   1.507   8.378
24350SOL     OW74983   7.668   1.291   9.295
24350SOL    HW174984   7.651   1.200   9.257
24350SOL    HW274985   7.602   1.309   9.369
24351SOL     OW74986   7.497   1.251   8.061
24351SOL    HW174987   7.446   1.168   8.084
24351SOL    HW274988   7.590   1.227   8.033
24352SOL     OW74989   8.131   1.466   9.105
24352SOL    HW174990   8.052   1.418   9.143
24352SOL    HW274991   8.144   1.553   9.152
24353SOL     OW74992   7.826   0.422   7.904
24353SOL    HW174993   7.871   0.345   7.858
24353SOL    HW274994   7.762   0.387   7.973
24354SOL     OW74995   9.109   1.452   8.526
24354SOL    HW174996   9.036   1.426   8.462
24354SOL    HW274997   9.100   1.398   8.609
24355SOL     OW74998   7.787   0.560   8.750
24355SOL    HW174999   7.841   0.491   8.799
24355SOL    HW275000   7.789   0.540   8.652
24356SOL     OW75001   8.249   1.582   8.122
24356SOL    HW175002   8.237   1.612   8.028
24356SOL    HW275003   8.177   1.515   8.145
24357SOL     OW75004   8.827   0.237   8.480
24357SOL    HW175005   8.803   0.140   8.471
24357SOL    HW275006   8.793   0.271   8.568
24358SOL     OW75007   8.348   0.041   8.557
24358SOL    HW175008   8.273   0.025   8.493
24358SOL    HW275009   8.389   9.954   8.584
24359SOL     OW75010   8.244   1.287   7.822
24359SOL    HW175011   8.215   1.192   7.838
24359SOL    HW275012   8.323   1.308   7.878
24360SOL     OW75013   8.065   1.590   8.754
24360SOL    HW175014   8.055   1.685   8.783
24360SOL    HW275015   8.149   1.580   8.699
24361SOL     OW75016   8.761   9.982   7.635
24361SOL    HW175017   8.826   9.914   7.601
24361SOL    HW275018   8.677   9.935   7.665
24362SOL     OW75019   8.668   0.513   8.082
24362SOL    HW175020   8.645   0.610   8.086
24362SOL    HW275021   8.698   0.482   8.172
24363SOL     OW75022   9.067   0.234   8.338
24363SOL    HW175023   8.983   0.246   8.389
24363SOL    HW275024   9.087   0.316   8.285
24364SOL     OW75025   7.517   1.042   7.765
24364SOL    HW175026   7.616   1.028   7.760
24364SOL    HW275027   7.472   0.957   7.791
24365SOL     OW75028   8.305   1.657   7.832
24365SOL    HW175029   8.223   1.646   7.776
24365SOL    HW275030   8.306   1.748   7.873
24366SOL     OW75031   7.714   0.653   9.459
24366SOL    HW175032   7.617   0.626   9.458
24366SOL    HW275033   7.727   0.729   9.395
24367SOL     OW75034   7.663   1.764   9.767
24367SOL    HW175035   7.680   1.833   9.838
24367SOL    HW275036   7.736   1.769   9.699
24368SOL     OW75037   7.739   1.508   9.824
24368SOL    HW175038   7.703   1.600   9.819
24368SOL    HW275039   7.677   1.450   9.876
24369SOL     OW75040   8.007   1.016   9.464
24369SOL    HW175041   8.056   1.059   9.388
24369SOL    HW275042   8.049   1.043   9.551
24370SOL     OW75043   7.619   0.713   9.832
24370SOL    HW175044   7.603   0.615   9.845
24370SOL    HW275045   7.573   0.764   9.905
24371SOL     OW75046   9.287   1.700   9.693
24371SOL    HW175047   9.369   1.665   9.736
24371SOL    HW275048   9.297   1.798   9.676
24372SOL     OW75049   7.491   1.589   9.475
24372SOL    HW175050   7.480   1.490   9.486
24372SOL    HW275051   7.448   1.636   9.552
24373SOL     OW75052   9.063   0.805   9.889
24373SOL    HW175053   9.140   0.817   9.953
24373SOL    HW275054   9.068   0.874   9.817
24374SOL     OW75055   9.125   1.017   9.719
24374SOL    HW175056   9.209   1.008   9.666
24374SOL    HW275057   9.129   1.100   9.774
24375SOL     OW75058   8.126   1.228   9.943
24375SOL    HW175059   8.057   1.182   9.999
24375SOL    HW275060   8.085   1.308   9.899
24376SOL     OW75061   8.250   0.004   9.798
24376SOL    HW175062   8.322   0.072   9.784
24376SOL    HW275063   8.163   0.050   9.816
24377SOL     OW75064   8.958   1.032   9.500
24377SOL    HW175065   8.863   1.009   9.523
24377SOL    HW275066   9.014   1.026   9.583
24378SOL     OW75067   8.076   0.667   9.611
24378SOL    HW175068   8.105   0.760   9.589
24378SOL    HW275069   8.007   0.669   9.683
24379SOL     OW75070   9.020   1.626   9.653
24379SOL    HW175071   9.116   1.649   9.672
24379SOL    HW275072   9.003   1.634   9.555
24380SOL     OW75073   8.480   0.723   9.743
24380SOL    HW175074   8.507   0.766   9.829
24380SOL    HW275075   8.412   0.652   9.761
24381SOL     OW75076   7.477   0.811   0.048
24381SOL    HW175077   7.501   0.723   0.088
24381SOL    HW275078   7.484   0.882   0.118
24382SOL     OW75079   8.323   0.318   9.517
24382SOL    HW175080   8.370   0.371   9.446
24382SOL    HW275081   8.269   0.246   9.473
24383SOL     OW75082   8.685   1.112   9.833
24383SOL    HW175083   8.750   1.130   9.906
24383SOL    HW275084   8.665   1.198   9.784
24384SOL     OW75085   8.405   1.453   9.783
24384SOL    HW175086   8.386   1.547   9.756
24384SOL    HW275087   8.388   1.442   9.881
24385SOL     OW75088   7.817   1.866   0.190
24385SOL    HW175089   7.833   1.780   0.238
24385SOL    HW275090   7.905   1.909   0.169
24386SOL     OW75091   7.783   0.948   9.615
24386SOL    HW175092   7.859   0.974   9.556
24386SOL    HW275093   7.758   0.853   9.599
24387SOL     OW75094   8.596   1.774   9.563
24387SOL    HW175095   8.508   1.750   9.604
24387SOL    HW275096   8.620   1.705   9.494
24388SOL     OW75097   9.067   1.373   9.406
24388SOL    HW175098   9.048   1.471   9.400
24388SOL    HW275099   8.987   1.321   9.375
24389SOL     OW75100   7.896   1.811   9.619
24389SOL    HW175101   7.940   1.854   9.698
24389SOL    HW275102   7.963   1.754   9.571
24390SOL     OW75103   8.888   0.180   9.738
24390SOL    HW175104   8.864   0.123   9.660
24390SOL    HW275105   8.965   0.238   9.715
24391SOL     OW75106   7.893   0.653   9.816
24391SOL    HW175107   7.887   0.555   9.838
24391SOL    HW275108   7.801   0.692   9.815
24392SOL     OW75109   8.154   0.107   9.411
24392SOL    HW175110   8.166   0.024   9.466
24392SOL    HW275111   8.096   0.086   9.332
24393SOL     OW75112   8.002   0.132   9.822
24393SOL    HW175113   7.937   0.056   9.819
24393SOL    HW275114   8.000   0.182   9.736
24394SOL     OW75115   8.844   1.225   9.339
24394SOL    HW175116   8.883   1.151   9.393
24394SOL    HW275117   8.757   1.254   9.378
24395SOL     OW75118   7.762   0.079   9.569
24395SOL    HW175119   7.841   0.141   9.565
24395SOL    HW275120   7.774   0.015   9.645
24396SOL     OW75121   8.439   0.194   9.728
24396SOL    HW175122   8.392   0.237   9.650
24396SOL    HW275123   8.517   0.250   9.754
24397SOL     OW75124   7.892   1.135   0.060
24397SOL    HW175125   7.838   1.191   0.123
24397SOL    HW275126   7.850   1.138   9.969
24398SOL     OW75127   8.737   1.822   9.887
24398SOL    HW175128   8.788   1.899   9.847
24398SOL    HW275129   8.660   1.857   9.941
24399SOL     OW75130   8.469   0.495   9.356
24399SOL    HW175131   8.433   0.580   9.318
24399SOL    HW275132   8.528   0.516   9.434
24400SOL     OW75133   8.302   0.540   9.974
24400SOL    HW175134   8.236   0.611   9.996
24400SOL    HW275135   8.293   0.515   9.878
24401SOL     OW75136   7.941   1.456   9.457
24401SOL    HW175137   7.871   1.412   9.513
24401SOL    HW275138   7.945   1.412   9.368
24402SOL     OW75139   8.801   0.616   9.381
24402SOL    HW175140   8.744   0.593   9.460
24402SOL    HW275141   8.895   0.628   9.410
24403SOL     OW75142   7.982   0.242   9.576
24403SOL    HW175143   8.048   0.200   9.515
24403SOL    HW275144   7.958   0.333   9.542
24404SOL     OW75145   8.148   1.098   9.689
24404SOL    HW175146   8.146   1.120   9.787
24404SOL    HW275147   8.218   1.030   9.671
24405SOL     OW75148   7.788   1.147   9.804
24405SOL    HW175149   7.791   1.221   9.737
24405SOL    HW275150   7.791   1.059   9.757
24406SOL     OW75151   8.644   1.356   9.706
24406SOL    HW175152   8.710   1.428   9.729
24406SOL    HW275153   8.552   1.385   9.733
24407SOL     OW75154   9.029   0.528   9.854
24407SOL    HW175155   8.967   0.506   9.930
24407SOL    HW275156   9.045   0.627   9.852
24408SOL     OW75157   8.623   0.549   9.580
24408SOL    HW175158   8.643   0.475   9.644
24408SOL    HW275159   8.580   0.625   9.628
24409SOL     OW75160   7.644   9.996   9.995
24409SOL    HW175161   7.600   0.086   0.000
24409SOL    HW275162   7.696   9.980   0.079
24410SOL     OW75163   9.114   0.324   9.685
24410SOL    HW175164   9.196   0.281   9.724
24410SOL    HW275165   9.089   0.403   9.741
24411SOL     OW75166   9.138   0.235   9.418
24411SOL    HW175167   9.108   0.304   9.352
24411SOL    HW275168   9.124   0.269   9.511
24412SOL     OW75169   8.674   0.830   9.271
24412SOL    HW175170   8.722   0.753   9.312
24412SOL    HW275171   8.729   0.868   9.197
24413SOL     OW75172   7.483   1.310   9.496
24413SOL    HW175173   7.397   1.325   9.448
24413SOL    HW275174   7.482   1.220   9.539
24414SOL     OW75175   8.283   0.517   9.706
24414SOL    HW175176   8.301   0.442   9.643
24414SOL    HW275177   8.207   0.572   9.671
24415SOL     OW75178   7.928   0.483   9.458
24415SOL    HW175179   7.999   0.540   9.498
24415SOL    HW275180   7.841   0.533   9.457
24416SOL     OW75181   8.705   1.000   9.577
24416SOL    HW175182   8.689   1.028   9.672
24416SOL    HW275183   8.617   0.990   9.531
24417SOL     OW75184   9.306   0.143   9.790
24417SOL    HW175185   9.354   0.080   9.730
24417SOL    HW275186   9.226   0.098   9.829
24418SOL     OW75187   8.792   1.575   9.789
24418SOL    HW175188   8.877   1.580   9.737
24418SOL    HW275189   8.761   1.668   9.810
24419SOL     OW75190   8.108   1.669   9.494
24419SOL    HW175191   8.131   1.690   9.399
24419SOL    HW275192   8.055   1.584   9.497
24420SOL     OW75193   9.251   0.131   0.218
24420SOL    HW175194   9.348   0.111   0.207
24420SOL    HW275195   9.197   0.054   0.184
24421SOL     OW75196   8.670   1.592   9.368
24421SOL    HW175197   8.655   1.498   9.398
24421SOL    HW275198   8.599   1.618   9.303
24422SOL     OW75199   8.329   0.912   9.616
24422SOL    HW175200   8.379   0.939   9.533
24422SOL    HW275201   8.383   0.845   9.666
24423SOL     OW75202   8.945   1.651   9.384
24423SOL    HW175203   8.848   1.630   9.370
24423SOL    HW275204   8.991   1.658   9.295
24424SOL     OW75205   8.004   1.444   9.831
24424SOL    HW175206   8.053   1.438   9.744
24424SOL    HW275207   7.910   1.472   9.815
24425SOL     OW75208   7.741   1.345   9.612
24425SOL    HW175209   7.650   1.333   9.571
24425SOL    HW275210   7.736   1.413   9.685
24426SOL     OW75211   7.585   0.375   9.267
24426SOL    HW175212   7.489   0.351   9.249
24426SOL    HW275213   7.606   0.463   9.226
24427SOL     OW75214   7.551   0.236   9.508
24427SOL    HW175215   7.570   0.291   9.427
24427SOL    HW275216   7.627   0.172   9.523
24428SOL     OW75217   8.603   1.330   9.436
24428SOL    HW175218   8.504   1.325   9.423
24428SOL    HW275219   8.624   1.329   9.534
24429SOL     OW75220   8.665   0.350   9.763
24429SOL    HW175221   8.744   0.290   9.770
24429SOL    HW275222   8.646   0.392   9.852
24430SOL     OW75223   8.097   0.721   9.994
24430SOL    HW175224   8.071   0.798   0.053
24430SOL    HW275225   8.023   0.703   9.929
24431SOL     OW75226   8.325   1.366   9.394
24431SOL    HW175227   8.271   1.384   9.477
24431SOL    HW275228   8.340   1.452   9.345
24432SOL     OW75229   8.483   0.963   9.397
24432SOL    HW175230   8.453   1.035   9.334
24432SOL    HW275231   8.557   0.911   9.355
24433SOL     OW75232   7.584   1.299   9.914
24433SOL    HW175233   7.540   1.260   9.994
24433SOL    HW275234   7.647   1.232   9.874
24434SOL     OW75235   7.861   0.391   9.904
24434SOL    HW175236   7.917   0.309   9.890
24434SOL    HW275237   7.860   0.415   0.001
24435SOL     OW75238   8.194   1.365   9.636
24435SOL    HW175239   8.174   1.267   9.645
24435SOL    HW275240   8.275   1.387   9.691
24436SOL     OW75241   8.850   0.024   9.516
24436SOL    HW175242   8.932   0.001   9.463
24436SOL    HW275243   8.792   9.943   9.525
24437SOL     OW75244   7.524   1.067   9.622
24437SOL    HW175245   7.623   1.054   9.620
24437SOL    HW275246   7.478   0.979   9.612
24438SOL     OW75247   8.332   1.695   9.672
24438SOL    HW175248   8.258   1.677   9.608
24438SOL    HW275249   8.306   1.770   9.733
24439SOL     OW75250   7.581   2.394   0.083
24439SOL    HW175251   7.497   2.417   0.132
24439SOL    HW275252   7.590   2.452   0.002
24440SOL     OW75253   7.659   2.124   0.981
24440SOL    HW175254   7.724   2.090   1.049
24440SOL    HW275255   7.567   2.094   1.005
24441SOL     OW75256   7.458   2.271   0.639
24441SOL    HW175257   7.379   2.286   0.699
24441SOL    HW275258   7.437   2.201   0.572
24442SOL     OW75259   8.082   3.228   1.204
24442SOL    HW175260   7.995   3.199   1.164
24442SOL    HW275261   8.071   3.320   1.244
24443SOL     OW75262   8.986   3.362   0.721
24443SOL    HW175263   8.926   3.355   0.801
24443SOL    HW275264   8.932   3.392   0.642
24444SOL     OW75265   8.583   2.619   0.653
24444SOL    HW175266   8.647   2.696   0.653
24444SOL    HW275267   8.530   2.621   0.737
24445SOL     OW75268   9.170   2.422   0.183
24445SOL    HW175269   9.095   2.457   0.127
24445SOL    HW275270   9.133   2.363   0.255
24446SOL     OW75271   8.375   2.566   1.788
24446SOL    HW175272   8.403   2.631   1.859
24446SOL    HW275273   8.369   2.614   1.700
24447SOL     OW75274   8.120   2.778   0.605
24447SOL    HW175275   8.180   2.770   0.685
24447SOL    HW275276   8.051   2.848   0.621
24448SOL     OW75277   8.162   3.022   1.852
24448SOL    HW175278   8.225   3.090   1.890
24448SOL    HW275279   8.086   3.069   1.807
24449SOL     OW75280   7.819   3.222   1.100
24449SOL    HW175281   7.748   3.154   1.079
24449SOL    HW275282   7.844   3.271   1.016
24450SOL     OW75283   8.882   3.382   1.398
24450SOL    HW175284   8.945   3.457   1.418
24450SOL    HW275285   8.812   3.378   1.469
24451SOL     OW75286   7.918   2.253   1.430
24451SOL    HW175287   7.996   2.199   1.462
24451SOL    HW275288   7.839   2.234   1.489
24452SOL     OW75289   9.070   2.350   0.732
24452SOL    HW175290   9.027   2.375   0.646
24452SOL    HW275291   9.030   2.404   0.806
24453SOL     OW75292   7.714   3.569   0.493
24453SOL    HW175293   7.720   3.645   0.558
24453SOL    HW275294   7.806   3.544   0.463
24454SOL     OW75295   8.569   3.185   1.733
24454SOL    HW175296   8.611   3.176   1.823
24454SOL    HW275297   8.513   3.104   1.714
24455SOL     OW75298   7.659   3.303   0.487
24455SOL    HW175299   7.670   3.401   0.506
24455SOL    HW275300   7.646   3.254   0.573
24456SOL     OW75301   7.756   2.925   0.872
24456SOL    HW175302   7.753   2.825   0.878
24456SOL    HW275303   7.713   2.964   0.953
24457SOL     OW75304   7.961   3.716   1.392
24457SOL    HW175305   7.899   3.695   1.467
24457SOL    HW275306   8.032   3.779   1.423
24458SOL     OW75307   7.985   2.815   0.186
24458SOL    HW175308   7.945   2.895   0.142
24458SOL    HW275309   8.065   2.843   0.240
24459SOL     OW75310   9.062   1.944   1.492
24459SOL    HW175311   9.090   1.990   1.408
24459SOL    HW275312   9.039   2.011   1.562
24460SOL     OW75313   7.530   2.538   0.591
24460SOL    HW175314   7.508   2.442   0.612
24460SOL    HW275315   7.518   2.594   0.673
24461SOL     OW75316   9.336   3.571   0.316
24461SOL    HW175317   9.409   3.545   0.379
24461SOL    HW275318   9.346   3.668   0.292
24462SOL     OW75319   7.509   3.390   0.108
24462SOL    HW175320   7.473   3.301   0.137
24462SOL    HW275321   7.504   3.455   0.184
24463SOL     OW75322   9.210   2.773   0.730
24463SOL    HW175323   9.301   2.733   0.737
24463SOL    HW275324   9.201   2.819   0.642
24464SOL     OW75325   9.148   2.916   0.500
24464SOL    HW175326   9.218   2.941   0.434
24464SOL    HW275327   9.127   2.995   0.558
24465SOL     OW75328   7.582   2.631   1.570
24465SOL    HW175329   7.672   2.676   1.579
24465SOL    HW275330   7.513   2.700   1.550
24466SOL     OW75331   8.096   3.161   0.768
24466SOL    HW175332   8.038   3.088   0.732
24466SOL    HW275333   8.108   3.231   0.699
24467SOL     OW75334   8.700   3.060   1.399
24467SOL    HW175335   8.699   2.976   1.344
24467SOL    HW275336   8.770   3.053   1.470
24468SOL     OW75337   8.279   1.877   0.503
24468SOL    HW175338   8.327   1.960   0.476
24468SOL    HW275339   8.181   1.894   0.504
24469SOL     OW75340   7.675   2.854   1.309
24469SOL    HW175341   7.754   2.793   1.294
24469SOL    HW275342   7.651   2.898   1.223
24470SOL     OW75343   8.943   2.874   0.315
24470SOL    HW175344   8.899   2.785   0.323
24470SOL    HW275345   9.020   2.879   0.379
24471SOL     OW75346   8.624   3.658   1.633
24471SOL    HW175347   8.650   3.721   1.560
24471SOL    HW275348   8.642   3.564   1.604
24472SOL     OW75349   7.816   2.114   1.882
24472SOL    HW175350   7.855   2.193   1.929
24472SOL    HW275351   7.721   2.134   1.858
24473SOL     OW75352   8.858   3.319   0.972
24473SOL    HW175353   8.809   3.372   1.041
24473SOL    HW275354   8.802   3.242   0.942
24474SOL     OW75355   9.057   3.736   0.490
24474SOL    HW175356   9.066   3.657   0.428
24474SOL    HW275357   9.027   3.704   0.580
24475SOL     OW75358   7.996   2.542   0.279
24475SOL    HW175359   8.005   2.633   0.239
24475SOL    HW275360   7.933   2.546   0.357
24476SOL     OW75361   8.715   2.312   0.939
24476SOL    HW175362   8.623   2.293   0.973
24476SOL    HW275363   8.777   2.240   0.971
24477SOL     OW75364   9.067   3.518   0.328
24477SOL    HW175365   9.167   3.524   0.326
24477SOL    HW275366   9.034   3.480   0.242
24478SOL     OW75367   8.247   2.446   1.402
24478SOL    HW175368   8.233   2.406   1.493
24478SOL    HW275369   8.235   2.375   1.332
24479SOL     OW75370   8.815   2.307   1.658
24479SOL    HW175371   8.819   2.366   1.738
24479SOL    HW275372   8.873   2.227   1.672
24480SOL     OW75373   8.394   2.738   1.565
24480SOL    HW175374   8.452   2.676   1.511
24480SOL    HW275375   8.337   2.792   1.504
24481SOL     OW75376   8.471   2.200   1.071
24481SOL    HW175377   8.387   2.230   1.117
24481SOL    HW275378   8.470   2.101   1.061
24482SOL     OW75379   8.510   2.564   0.388
24482SOL    HW175380   8.530   2.580   0.485
24482SOL    HW275381   8.421   2.520   0.379
24483SOL     OW75382   7.507   2.713   0.811
24483SOL    HW175383   7.597   2.689   0.849
24483SOL    HW275384   7.467   2.786   0.866
24484SOL     OW75385   7.558   3.775   1.677
24484SOL    HW175386   7.585   3.723   1.757
24484SOL    HW275387   7.460   3.763   1.661
24485SOL     OW75388   8.307   2.193   0.182
24485SOL    HW175389   8.292   2.247   0.099
24485SOL    HW275390   8.323   2.098   0.158
24486SOL     OW75391   9.130   2.443   1.821
24486SOL    HW175392   9.122   2.537   1.788
24486SOL    HW275393   9.153   2.383   1.744
24487SOL     OW75394   8.778   3.003   0.492
24487SOL    HW175395   8.834   2.970   0.416
24487SOL    HW275396   8.744   3.095   0.471
24488SOL     OW75397   7.973   2.013   0.940
24488SOL    HW175398   8.001   2.041   1.032
24488SOL    HW275399   7.967   2.094   0.881
24489SOL     OW75400   8.441   3.339   0.494
24489SOL    HW175401   8.409   3.413   0.435
24489SOL    HW275402   8.412   3.357   0.588
24490SOL     OW75403   7.787   3.613   0.897
24490SOL    HW175404   7.825   3.522   0.877
24490SOL    HW275405   7.817   3.643   0.987
24491SOL     OW75406   9.238   2.931   0.954
24491SOL    HW175407   9.219   2.872   0.875
24491SOL    HW275408   9.157   2.937   1.011
24492SOL     OW75409   8.654   3.382   1.554
24492SOL    HW175410   8.650   3.318   1.631
24492SOL    HW275411   8.596   3.349   1.480
24493SOL     OW75412   7.748   2.774   0.323
24493SOL    HW175413   7.829   2.784   0.265
24493SOL    HW275414   7.751   2.686   0.370
24494SOL     OW75415   8.972   2.652   0.713
24494SOL    HW175416   8.951   2.601   0.796
24494SOL    HW275417   9.061   2.697   0.722
24495SOL     OW75418   7.939   3.155   1.744
24495SOL    HW175419   7.906   3.157   1.650
24495SOL    HW275420   7.861   3.156   1.807
24496SOL     OW75421   8.550   3.606   0.168
24496SOL    HW175422   8.489   3.574   0.240
24496SOL    HW275423   8.599   3.527   0.130
24497SOL     OW75424   7.672   2.218   1.553
24497SOL    HW175425   7.617   2.265   1.484
24497SOL    HW275426   7.638   2.124   1.563
24498SOL     OW75427   9.088   3.170   0.017
24498SOL    HW175428   9.064   3.264   0.040
24498SOL    HW275429   9.011   3.109   0.038
24499SOL     OW75430   7.983   3.539   0.442
24499SOL    HW175431   7.996   3.633   0.472
24499SOL    HW275432   8.029   3.526   0.354
24500SOL     OW75433   8.831   1.988   0.447
24500SOL    HW175434   8.818   1.950   0.355
24500SOL    HW275435   8.921   1.963   0.481
24501SOL     OW75436   7.805   3.686   1.172
24501SOL    HW175437   7.869   3.696   1.248
24501SOL    HW275438   7.735   3.619   1.197
24502SOL     OW75439   8.427   3.625   0.890
24502SOL    HW175440   8.482   3.544   0.913
24502SOL    HW275441   8.354   3.599   0.826
24503SOL     OW75442   7.775   2.535   0.466
24503SOL    HW175443   7.795   2.437   0.466
24503SOL    HW275444   7.686   2.551   0.509
24504SOL     OW75445   8.970   2.088   1.723
24504SOL    HW175446   9.003   2.103   1.816
24504SOL    HW275447   8.910   2.008   1.721
24505SOL     OW75448   8.063   1.962   0.107
24505SOL    HW175449   8.162   1.945   0.115
24505SOL    HW275450   8.038   1.968   0.010
24506SOL     OW75451   8.205   2.080   1.701
24506SOL    HW175452   8.292   2.033   1.717
24506SOL    HW275453   8.131   2.030   1.745
24507SOL     OW75454   8.329   3.444   1.323
24507SOL    HW175455   8.321   3.443   1.223
24507SOL    HW275456   8.393   3.373   1.352
24508SOL     OW75457   8.729   2.422   1.424
24508SOL    HW175458   8.763   2.381   1.509
24508SOL    HW275459   8.772   2.511   1.410
24509SOL     OW75460   8.318   3.378   1.058
24509SOL    HW175461   8.403   3.368   1.007
24509SOL    HW275462   8.274   3.289   1.066
24510SOL     OW75463   8.379   2.388   0.861
24510SOL    HW175464   8.360   2.364   0.766
24510SOL    HW275465   8.407   2.306   0.911
24511SOL     OW75466   8.010   1.928   0.479
24511SOL    HW175467   7.933   1.920   0.542
24511SOL    HW275468   7.997   2.007   0.419
24512SOL     OW75469   8.876   3.015   0.080
24512SOL    HW175470   8.904   2.953   0.154
24512SOL    HW275471   8.794   3.065   0.107
24513SOL     OW75472   8.402   2.109   0.429
24513SOL    HW175473   8.364   2.145   0.344
24513SOL    HW275474   8.498   2.135   0.437
24514SOL     OW75475   8.493   2.557   1.385
24514SOL    HW175476   8.411   2.503   1.399
24514SOL    HW275477   8.574   2.500   1.402
24515SOL     OW75478   8.737   3.553   0.798
24515SOL    HW175479   8.723   3.599   0.710
24515SOL    HW275480   8.818   3.591   0.842
24516SOL     OW75481   7.933   2.966   0.671
24516SOL    HW175482   7.873   2.949   0.749
24516SOL    HW275483   7.878   2.986   0.590
24517SOL     OW75484   8.708   3.697   0.567
24517SOL    HW175485   8.743   3.752   0.491
24517SOL    HW275486   8.635   3.747   0.613
24518SOL     OW75487   8.559   2.353   9.961
24518SOL    HW175488   8.461   2.332   9.963
24518SOL    HW275489   8.592   2.362   0.055
24519SOL     OW75490   7.570   2.432   1.390
24519SOL    HW175491   7.660   2.433   1.346
24519SOL    HW275492   7.564   2.507   1.455
24520SOL     OW75493   8.036   2.086   1.197
24520SOL    HW175494   8.083   2.062   1.282
24520SOL    HW275495   7.937   2.077   1.210
24521SOL     OW75496   8.326   2.318   0.605
24521SOL    HW175497   8.287   2.376   0.534
24521SOL    HW275498   8.355   2.231   0.565
24522SOL     OW75499   8.466   1.876   0.715
24522SOL    HW175500   8.400   1.883   0.640
24522SOL    HW275501   8.424   1.828   0.792
24523SOL     OW75502   8.881   3.011   0.847
24523SOL    HW175503   8.841   2.933   0.800
24523SOL    HW275504   8.961   3.043   0.797
24524SOL     OW75505   8.922   2.499   0.931
24524SOL    HW175506   8.847   2.434   0.942
24524SOL    HW275507   8.983   2.494   1.010
24525SOL     OW75508   9.354   2.606   0.303
24525SOL    HW175509   9.383   2.570   0.392
24525SOL    HW275510   9.289   2.543   0.261
24526SOL     OW75511   7.871   3.405   0.149
24526SOL    HW175512   7.799   3.349   0.191
24526SOL    HW275513   7.920   3.351   0.080
24527SOL     OW75514   9.103   3.114   0.693
24527SOL    HW175515   9.199   3.121   0.717
24527SOL    HW275516   9.062   3.205   0.694
24528SOL     OW75517   8.878   2.382   0.095
24528SOL    HW175518   8.791   2.384   0.145
24528SOL    HW275519   8.912   2.288   0.091
24529SOL     OW75520   7.963   2.132   0.296
24529SOL    HW175521   8.014   2.075   0.232
24529SOL    HW275522   7.921   2.208   0.247
24530SOL     OW75523   9.165   3.114   1.530
24530SOL    HW175524   9.243   3.053   1.516
24530SOL    HW275525   9.196   3.199   1.574
24531SOL     OW75526   8.500   3.238   1.375
24531SOL    HW175527   8.413   3.192   1.393
24531SOL    HW275528   8.575   3.172   1.381
24532SOL     OW75529   9.063   3.497   1.702
24532SOL    HW175530   9.048   3.535   1.610
24532SOL    HW275531   9.141   3.435   1.700
24533SOL     OW75532   9.011   2.963   1.106
24533SOL    HW175533   9.011   3.039   1.171
24533SOL    HW275534   8.949   2.983   1.030
24534SOL     OW75535   8.393   1.934   1.336
24534SOL    HW175536   8.412   1.926   1.239
24534SOL    HW275537   8.473   1.971   1.383
24535SOL     OW75538   8.410   2.956   1.731
24535SOL    HW175539   8.317   2.974   1.763
24535SOL    HW275540   8.409   2.879   1.667
24536SOL     OW75541   8.196   2.879   0.352
24536SOL    HW175542   8.181   2.834   0.440
24536SOL    HW275543   8.284   2.851   0.314
24537SOL     OW75544   7.889   2.686   1.260
24537SOL    HW175545   7.958   2.690   1.332
24537SOL    HW275546   7.850   2.594   1.256
24538SOL     OW75547   8.688   2.208   1.258
24538SOL    HW175548   8.705   2.291   1.312
24538SOL    HW275549   8.609   2.223   1.199
24539SOL     OW75550   7.518   3.428   1.351
24539SOL    HW175551   7.480   3.489   1.281
24539SOL    HW275552   7.618   3.426   1.342
24540SOL     OW75553   7.759   3.004   0.465
24540SOL    HW175554   7.755   3.075   0.395
24540SOL    HW275555   7.753   2.914   0.421
24541SOL     OW75556   7.976   2.362   0.868
24541SOL    HW175557   7.976   2.416   0.784
24541SOL    HW275558   8.051   2.392   0.927
24542SOL     OW75559   8.687   3.252   0.423
24542SOL    HW175560   8.753   3.322   0.449
24542SOL    HW275561   8.595   3.279   0.452
24543SOL     OW75562   8.725   3.432   1.185
24543SOL    HW175563   8.786   3.412   1.262
24543SOL    HW275564   8.638   3.384   1.199
24544SOL     OW75565   8.963   2.482   0.502
24544SOL    HW175566   8.969   2.548   0.577
24544SOL    HW275567   8.905   2.521   0.429
24545SOL     OW75568   7.789   3.390   1.311
24545SOL    HW175569   7.791   3.325   1.234
24545SOL    HW275570   7.881   3.424   1.328
24546SOL     OW75571   7.872   2.641   1.622
24546SOL    HW175572   7.949   2.659   1.561
24546SOL    HW275573   7.873   2.545   1.651
24547SOL     OW75574   9.105   2.695   1.715
24547SOL    HW175575   9.009   2.721   1.702
24547SOL    HW275576   9.155   2.708   1.630
24548SOL     OW75577   8.439   1.951   1.731
24548SOL    HW175578   8.492   2.035   1.726
24548SOL    HW275579   8.497   1.874   1.704
24549SOL     OW75580   8.003   1.925   1.804
24549SOL    HW175581   7.962   1.850   1.753
24549SOL    HW275582   7.933   1.993   1.826
24550SOL     OW75583   8.006   2.704   1.011
24550SOL    HW175584   8.054   2.788   0.984
24550SOL    HW275585   7.967   2.716   1.102
24551SOL     OW75586   8.738   2.707   1.009
24551SOL    HW175587   8.656   2.686   0.954
24551SOL    HW275588   8.813   2.648   0.979
24552SOL     OW75589   8.637   2.372   0.230
24552SOL    HW175590   8.649   2.299   0.297
24552SOL    HW275591   8.589   2.449   0.272
24553SOL     OW75592   7.772   2.034   1.216
24553SOL    HW175593   7.696   2.074   1.269
24553SOL    HW275594   7.758   1.935   1.209
24554SOL     OW75595   7.531   3.162   1.289
24554SOL    HW175596   7.550   3.112   1.373
24554SOL    HW275597   7.512   3.258   1.310
24555SOL     OW75598   8.174   2.490   1.019
24555SOL    HW175599   8.240   2.478   0.945
24555SOL    HW275600   8.118   2.571   1.001
24556SOL     OW75601   9.203   2.890   1.885
24556SOL    HW175602   9.171   2.815   1.827
24556SOL    HW275603   9.139   2.904   1.960
24557SOL     OW75604   7.782   1.908   0.634
24557SOL    HW175605   7.746   2.000   0.647
24557SOL    HW275606   7.782   1.859   0.721
24558SOL     OW75607   9.051   2.260   0.367
24558SOL    HW175608   9.112   2.202   0.421
24558SOL    HW275609   9.014   2.333   0.425
24559SOL     OW75610   8.481   2.630   0.917
24559SOL    HW175611   8.458   2.655   1.011
24559SOL    HW275612   8.451   2.536   0.899
24560SOL     OW75613   8.432   3.419   1.785
24560SOL    HW175614   8.403   3.479   1.710
24560SOL    HW275615   8.463   3.332   1.747
24561SOL     OW75616   9.287   3.345   1.619
24561SOL    HW175617   9.312   3.375   1.527
24561SOL    HW275618   9.365   3.354   1.680
24562SOL     OW75619   7.821   2.798   1.841
24562SOL    HW175620   7.903   2.810   1.898
24562SOL    HW275621   7.844   2.743   1.761
24563SOL     OW75622   8.958   2.121   0.150
24563SOL    HW175623   8.900   2.041   0.162
24563SOL    HW275624   8.977   2.162   0.240
24564SOL     OW75625   8.849   2.651   0.058
24564SOL    HW175626   8.858   2.552   0.051
24564SOL    HW275627   8.922   2.696   0.007
24565SOL     OW75628   8.563   3.387   0.915
24565SOL    HW175629   8.594   3.292   0.908
24565SOL    HW275630   8.630   3.447   0.873
24566SOL     OW75631   7.754   2.650   0.915
24566SOL    HW175632   7.851   2.666   0.934
24566SOL    HW275633   7.732   2.555   0.937
24567SOL     OW75634   7.739   2.380   0.990
24567SOL    HW175635   7.695   2.290   0.983
24567SOL    HW275636   7.826   2.378   0.941
24568SOL     OW75637   8.574   2.185   1.684
24568SOL    HW175638   8.524   2.234   1.756
24568SOL    HW275639   8.661   2.231   1.669
24569SOL     OW75640   8.614   2.032   1.456
24569SOL    HW175641   8.595   2.086   1.538
24569SOL    HW275642   8.655   2.090   1.386
24570SOL     OW75643   7.449   3.120   0.175
24570SOL    HW175644   7.353   3.143   0.159
24570SOL    HW275645   7.455   3.029   0.216
24571SOL     OW75646   7.515   3.610   0.929
24571SOL    HW175647   7.482   3.530   0.879
24571SOL    HW275648   7.614   3.619   0.916
24572SOL     OW75649   7.924   3.361   0.890
24572SOL    HW175650   7.993   3.427   0.918
24572SOL    HW275651   7.969   3.285   0.842
24573SOL     OW75652   8.387   2.682   1.172
24573SOL    HW175653   8.432   2.638   1.249
24573SOL    HW275654   8.299   2.637   1.154
24574SOL     OW75655   7.492   2.441   1.124
24574SOL    HW175656   7.574   2.433   1.067
24574SOL    HW275657   7.519   2.442   1.221
24575SOL     OW75658   7.644   2.421   1.736
24575SOL    HW175659   7.662   2.346   1.673
24575SOL    HW275660   7.613   2.501   1.685
24576SOL     OW75661   8.856   2.777   1.642
24576SOL    HW175662   8.867   2.876   1.631
24576SOL    HW275663   8.837   2.735   1.554
24577SOL     OW75664   8.262   2.430   0.349
24577SOL    HW175665   8.274   2.348   0.292
24577SOL    HW275666   8.174   2.472   0.328
24578SOL     OW75667   9.100   2.496   1.137
24578SOL    HW175668   9.088   2.427   1.208
24578SOL    HW275669   9.198   2.514   1.124
24579SOL     OW75670   7.676   3.399   1.711
24579SOL    HW175671   7.668   3.476   1.774
24579SOL    HW275672   7.692   3.315   1.763
24580SOL     OW75673   8.231   2.280   1.180
24580SOL    HW175674   8.157   2.212   1.180
24580SOL    HW275675   8.204   2.358   1.124
24581SOL     OW75676   8.331   3.576   1.564
24581SOL    HW175677   8.324   3.523   1.479
24581SOL    HW275678   8.376   3.664   1.544
24582SOL     OW75679   7.859   2.336   0.146
24582SOL    HW175680   7.909   2.413   0.186
24582SOL    HW275681   7.763   2.361   0.136
24583SOL     OW75682   7.592   3.012   1.511
24583SOL    HW175683   7.599   2.978   1.604
24583SOL    HW275684   7.622   2.942   1.447
24584SOL     OW75685   8.655   2.827   1.238
24584SOL    HW175686   8.699   2.795   1.153
24584SOL    HW275687   8.557   2.809   1.233
24585SOL     OW75688   8.802   2.634   0.328
24585SOL    HW175689   8.705   2.622   0.349
24585SOL    HW275690   8.814   2.638   0.228
24586SOL     OW75691   9.219   3.579   1.208
24586SOL    HW175692   9.280   3.612   1.136
24586SOL    HW275693   9.167   3.501   1.174
24587SOL     OW75694   8.761   3.694   1.106
24587SOL    HW175695   8.830   3.684   1.034
24587SOL    HW275696   8.741   3.604   1.145
24588SOL     OW75697   7.610   3.026   1.076
24588SOL    HW175698   7.578   3.081   1.153
24588SOL    HW275699   7.531   2.993   1.024
24589SOL     OW75700   8.134   3.559   1.751
24589SOL    HW175701   8.072   3.637   1.742
24589SOL    HW275702   8.210   3.569   1.687
24590SOL     OW75703   8.339   1.935   0.084
24590SOL    HW175704   8.317   1.918   9.988
24590SOL    HW275705   8.422   1.884   0.109
24591SOL     OW75706   9.232   2.082   0.472
24591SOL    HW175707   9.286   2.055   0.393
24591SOL    HW275708   9.175   2.006   0.502
24592SOL     OW75709   8.853   3.460   0.498
24592SOL    HW175710   8.926   3.479   0.432
24592SOL    HW275711   8.798   3.542   0.511
24593SOL     OW75712   7.647   3.613   1.871
24593SOL    HW175713   7.579   3.561   1.924
24593SOL    HW275714   7.724   3.636   1.929
24594SOL     OW75715   8.763   2.821   0.685
24594SOL    HW175716   8.844   2.761   0.680
24594SOL    HW275717   8.766   2.887   0.611
24595SOL     OW75718   8.241   3.146   1.414
24595SOL    HW175719   8.212   3.195   1.496
24595SOL    HW275720   8.181   3.171   1.337
24596SOL     OW75721   8.114   3.526   0.202
24596SOL    HW175722   8.107   3.613   0.154
24596SOL    HW275723   8.037   3.467   0.176
24597SOL     OW75724   9.056   3.590   1.438
24597SOL    HW175725   9.113   3.583   1.356
24597SOL    HW275726   9.066   3.681   1.478
24598SOL     OW75727   9.325   2.056   1.050
24598SOL    HW175728   9.351   1.963   1.022
24598SOL    HW275729   9.253   2.090   0.990
24599SOL     OW75730   7.693   2.154   0.708
24599SOL    HW175731   7.611   2.203   0.679
24599SOL    HW275732   7.692   2.142   0.807
24600SOL     OW75733   8.702   3.398   0.062
24600SOL    HW175734   8.679   3.306   0.092
24600SOL    HW275735   8.722   3.398   9.964
24601SOL     OW75736   8.254   2.875   1.380
24601SOL    HW175737   8.289   2.862   1.287
24601SOL    HW275738   8.245   2.973   1.398
24602SOL     OW75739   8.438   2.798   0.253
24602SOL    HW175740   8.495   2.809   0.172
24602SOL    HW275741   8.466   2.715   0.302
24603SOL     OW75742   8.978   3.421   0.088
24603SOL    HW175743   8.878   3.419   0.085
24603SOL    HW275744   9.013   3.473   0.009
24604SOL     OW75745   7.819   3.176   1.504
24604SOL    HW175746   7.806   3.255   1.444
24604SOL    HW275747   7.737   3.119   1.502
24605SOL     OW75748   9.028   3.170   1.297
24605SOL    HW175749   9.082   3.139   1.375
24605SOL    HW275750   8.961   3.237   1.327
24606SOL     OW75751   8.122   3.348   0.576
24606SOL    HW175752   8.153   3.277   0.513
24606SOL    HW275753   8.056   3.407   0.531
24607SOL     OW75754   9.123   2.301   1.333
24607SOL    HW175755   9.220   2.327   1.338
24607SOL    HW275756   9.115   2.209   1.295
24608SOL     OW75757   7.704   3.187   0.253
24608SOL    HW175758   7.615   3.166   0.213
24608SOL    HW275759   7.691   3.238   0.338
24609SOL     OW75760   7.595   2.931   1.769
24609SOL    HW175761   7.510   2.901   1.812
24609SOL    HW275762   7.671   2.875   1.804
24610SOL     OW75763   8.160   2.031   1.436
24610SOL    HW175764   8.247   2.001   1.396
24610SOL    HW275765   8.176   2.061   1.531
24611SOL     OW75766   7.532   2.130   0.026
24611SOL    HW175767   7.446   2.132   9.976
24611SOL    HW275768   7.561   2.224   0.047
24612SOL     OW75769   8.823   2.677   1.391
24612SOL    HW175770   8.753   2.729   1.343
24612SOL    HW275771   8.912   2.695   1.349
24613SOL     OW75772   7.569   1.978   0.255
24613SOL    HW175773   7.548   2.036   0.176
24613SOL    HW275774   7.663   1.946   0.248
24614SOL     OW75775   8.656   3.149   0.171
24614SOL    HW175776   8.582   3.082   0.169
24614SOL    HW275777   8.667   3.184   0.264
24615SOL     OW75778   8.084   2.669   1.446
24615SOL    HW175779   8.140   2.751   1.433
24615SOL    HW275780   8.142   2.587   1.436
24616SOL     OW75781   8.957   3.669   0.911
24616SOL    HW175782   8.984   3.765   0.906
24616SOL    HW275783   9.039   3.611   0.903
24617SOL     OW75784   8.224   2.354   1.651
24617SOL    HW175785   8.265   2.412   1.721
24617SOL    HW275786   8.221   2.260   1.684
24618SOL     OW75787   8.902   3.043   1.611
24618SOL    HW175788   8.885   3.071   1.706
24618SOL    HW275789   8.994   3.071   1.584
24619SOL     OW75790   7.786   3.642   1.589
24619SOL    HW175791   7.702   3.695   1.604
24619SOL    HW275792   7.768   3.545   1.608
24620SOL     OW75793   9.053   2.737   1.260
24620SOL    HW175794   9.069   2.657   1.203
24620SOL    HW275795   9.040   2.818   1.201
24621SOL     OW75796   8.659   2.200   0.445
24621SOL    HW175797   8.726   2.126   0.449
24621SOL    HW275798   8.670   2.259   0.525
24622SOL     OW75799   7.979   2.542   0.662
24622SOL    HW175800   8.038   2.620   0.641
24622SOL    HW275801   7.902   2.540   0.599
24623SOL     OW75802   9.160   2.250   1.605
24623SOL    HW175803   9.128   2.283   1.516
24623SOL    HW275804   9.089   2.195   1.649
24624SOL     OW75805   9.221   2.741   1.475
24624SOL    HW175806   9.277   2.824   1.464
24624SOL    HW275807   9.157   2.734   1.398
24625SOL     OW75808   8.270   3.340   0.030
24625SOL    HW175809   8.184   3.291   0.015
24625SOL    HW275810   8.259   3.406   0.104
24626SOL     OW75811   8.120   3.533   0.945
24626SOL    HW175812   8.158   3.559   0.857
24626SOL    HW275813   8.191   3.490   1.001
24627SOL     OW75814   8.261   2.778   0.838
24627SOL    HW175815   8.345   2.729   0.858
24627SOL    HW275816   8.277   2.876   0.849
24628SOL     OW75817   8.621   2.813   0.046
24628SOL    HW175818   8.627   2.866   9.962
24628SOL    HW275819   8.699   2.751   0.052
24629SOL     OW75820   9.172   3.490   0.877
24629SOL    HW175821   9.125   3.446   0.801
24629SOL    HW275822   9.161   3.434   0.959
24630SOL     OW75823   7.689   3.168   1.872
24630SOL    HW175824   7.660   3.085   1.825
24630SOL    HW275825   7.627   3.188   1.948
24631SOL     OW75826   7.641   3.118   0.692
24631SOL    HW175827   7.668   3.060   0.769
24631SOL    HW275828   7.667   3.073   0.606
24632SOL     OW75829   8.152   3.291   1.633
24632SOL    HW175830   8.074   3.241   1.672
24632SOL    HW275831   8.153   3.384   1.670
24633SOL     OW75832   9.133   2.042   1.245
24633SOL    HW175833   9.068   1.981   1.200
24633SOL    HW275834   9.215   2.052   1.189
24634SOL     OW75835   7.824   2.276   0.491
24634SOL    HW175836   7.877   2.214   0.434
24634SOL    HW275837   7.790   2.226   0.571
24635SOL     OW75838   9.094   3.358   1.103
24635SOL    HW175839   9.010   3.345   1.051
24635SOL    HW275840   9.103   3.286   1.172
24636SOL     OW75841   7.805   2.428   1.258
24636SOL    HW175842   7.859   2.362   1.310
24636SOL    HW275843   7.798   2.397   1.163
24637SOL     OW75844   8.247   3.556   0.700
24637SOL    HW175845   8.258   3.629   0.632
24637SOL    HW275846   8.201   3.478   0.658
24638SOL     OW75847   8.872   2.132   1.067
24638SOL    HW175848   8.903   2.037   1.075
24638SOL    HW275849   8.819   2.157   1.148
24639SOL     OW75850   8.218   3.151   0.423
24639SOL    HW175851   8.205   3.058   0.389
24639SOL    HW275852   8.315   3.175   0.418
24640SOL     OW75853   8.055   3.471   1.327
24640SOL    HW175854   8.027   3.565   1.347
24640SOL    HW275855   8.154   3.463   1.339
24641SOL     OW75856   8.811   1.887   0.196
24641SOL    HW175857   8.875   1.814   0.171
24641SOL    HW275858   8.717   1.856   0.178
24642SOL     OW75859   8.683   2.359   0.664
24642SOL    HW175860   8.650   2.452   0.653
24642SOL    HW275861   8.698   2.339   0.760
24643SOL     OW75862   9.107   2.143   0.914
24643SOL    HW175863   9.022   2.145   0.967
24643SOL    HW275864   9.100   2.206   0.837
24644SOL     OW75865   7.491   2.873   0.290
24644SOL    HW175866   7.589   2.852   0.293
24644SOL    HW275867   7.439   2.797   0.329
24645SOL     OW75868   8.345   3.550   0.350
24645SOL    HW175869   8.262   3.535   0.296
24645SOL    HW275870   8.333   3.630   0.409
24646SOL     OW75871   7.651   2.448   2.007
24646SOL    HW175872   7.557   2.441   2.039
24646SOL    HW275873   7.653   2.459   1.908
24647SOL     OW75874   7.659   2.136   2.869
24647SOL    HW175875   7.699   2.105   2.955
24647SOL    HW275876   7.569   2.094   2.857
24648SOL     OW75877   7.460   2.276   2.506
24648SOL    HW175878   7.378   2.301   2.559
24648SOL    HW275879   7.435   2.209   2.436
24649SOL     OW75880   8.010   3.175   3.093
24649SOL    HW175881   7.923   3.170   3.045
24649SOL    HW275882   8.034   3.271   3.109
24650SOL     OW75883   9.037   3.374   2.562
24650SOL    HW175884   8.984   3.329   2.634
24650SOL    HW275885   8.976   3.398   2.486
24651SOL     OW75886   8.583   2.552   2.510
24651SOL    HW175887   8.631   2.639   2.497
24651SOL    HW275888   8.528   2.557   2.594
24652SOL     OW75889   9.280   2.443   2.051
24652SOL    HW175890   9.226   2.453   1.967
24652SOL    HW275891   9.248   2.364   2.103
24653SOL     OW75892   8.157   2.986   2.940
24653SOL    HW175893   8.097   3.028   3.007
24653SOL    HW275894   8.198   3.057   2.882
24654SOL     OW75895   8.418   2.628   3.656
24654SOL    HW175896   8.411   2.696   3.728
24654SOL    HW275897   8.397   2.670   3.567
24655SOL     OW75898   8.138   2.828   2.514
24655SOL    HW175899   8.207   2.835   2.587
24655SOL    HW275900   8.064   2.893   2.532
24656SOL     OW75901   8.154   3.019   3.720
24656SOL    HW175902   8.213   3.088   3.763
24656SOL    HW275903   8.075   3.065   3.680
24657SOL     OW75904   7.779   3.232   2.948
24657SOL    HW175905   7.706   3.175   2.910
24657SOL    HW275906   7.823   3.282   2.874
24658SOL     OW75907   8.860   3.365   3.223
24658SOL    HW175908   8.912   3.449   3.241
24658SOL    HW275909   8.777   3.365   3.279
24659SOL     OW75910   7.890   2.258   3.315
24659SOL    HW175911   7.958   2.271   3.387
24659SOL    HW275912   7.817   2.198   3.348
24660SOL     OW75913   9.044   2.192   2.498
24660SOL    HW175914   8.955   2.162   2.464
24660SOL    HW275915   9.059   2.288   2.475
24661SOL     OW75916   7.603   3.598   2.380
24661SOL    HW175917   7.669   3.663   2.416
24661SOL    HW275918   7.608   3.513   2.431
24662SOL     OW75919   8.572   3.197   3.561
24662SOL    HW175920   8.659   3.163   3.598
24662SOL    HW275921   8.505   3.123   3.560
24663SOL     OW75922   7.590   3.360   2.508
24663SOL    HW175923   7.529   3.393   2.580
24663SOL    HW275924   7.610   3.263   2.524
24664SOL     OW75925   7.749   2.936   2.736
24664SOL    HW175926   7.762   2.840   2.763
24664SOL    HW275927   7.690   2.981   2.803
24665SOL     OW75928   8.032   3.643   3.323
24665SOL    HW175929   7.947   3.633   3.375
24665SOL    HW275930   8.068   3.735   3.334
24666SOL     OW75931   8.029   2.854   2.035
24666SOL    HW175932   8.076   2.904   1.962
24666SOL    HW275933   8.078   2.868   2.121
24667SOL     OW75934   9.034   2.007   3.220
24667SOL    HW175935   9.123   2.035   3.182
24667SOL    HW275936   8.978   2.088   3.237
24668SOL     OW75937   7.557   2.537   2.446
24668SOL    HW175938   7.534   2.442   2.467
24668SOL    HW275939   7.553   2.591   2.530
24669SOL     OW75940   9.318   3.601   2.194
24669SOL    HW175941   9.398   3.586   2.251
24669SOL    HW275942   9.323   3.693   2.155
24670SOL     OW75943   7.464   3.466   1.996
24670SOL    HW175944   7.392   3.398   1.983
24670SOL    HW275945   7.441   3.524   2.074
24671SOL     OW75946   9.119   2.765   2.533
24671SOL    HW175947   9.211   2.753   2.571
24671SOL    HW275948   9.121   2.837   2.463
24672SOL     OW75949   9.101   2.989   2.341
24672SOL    HW175950   9.186   2.947   2.309
24672SOL    HW275951   9.121   3.052   2.416
24673SOL     OW75952   7.532   2.631   3.442
24673SOL    HW175953   7.589   2.677   3.510
24673SOL    HW275954   7.463   2.695   3.408
24674SOL     OW75955   8.060   3.233   2.594
24674SOL    HW175956   8.018   3.143   2.584
24674SOL    HW275957   8.069   3.277   2.505
24675SOL     OW75958   8.662   3.056   3.282
24675SOL    HW175959   8.684   2.991   3.209
24675SOL    HW275960   8.735   3.056   3.350
24676SOL     OW75961   8.278   1.901   2.349
24676SOL    HW175962   8.319   1.989   2.328
24676SOL    HW275963   8.180   1.912   2.366
24677SOL     OW75964   7.663   2.826   3.149
24677SOL    HW175965   7.753   2.782   3.150
24677SOL    HW275966   7.614   2.801   3.066
24678SOL     OW75967   9.009   2.940   2.076
24678SOL    HW175968   8.933   2.878   2.092
24678SOL    HW275969   9.045   2.972   2.164
24679SOL     OW75970   8.610   3.635   3.444
24679SOL    HW175971   8.635   3.699   3.372
24679SOL    HW275972   8.613   3.541   3.409
24680SOL     OW75973   7.809   2.123   3.813
24680SOL    HW175974   7.844   2.205   3.857
24680SOL    HW275975   7.725   2.145   3.764
24681SOL     OW75976   8.911   3.244   2.765
24681SOL    HW175977   8.848   3.281   2.834
24681SOL    HW275978   8.886   3.149   2.745
24682SOL     OW75979   9.070   3.743   2.394
24682SOL    HW175980   9.063   3.678   2.318
24682SOL    HW275981   9.088   3.694   2.479
24683SOL     OW75982   8.013   2.567   2.142
24683SOL    HW175983   8.022   2.659   2.103
24683SOL    HW275984   7.942   2.568   2.213
24684SOL     OW75985   8.739   2.264   2.782
24684SOL    HW175986   8.647   2.223   2.776
24684SOL    HW275987   8.794   2.212   2.847
24685SOL     OW75988   9.045   3.563   2.190
24685SOL    HW175989   9.145   3.560   2.186
24685SOL    HW275990   9.007   3.554   2.098
24686SOL     OW75991   8.221   2.411   3.317
24686SOL    HW175992   8.173   2.369   3.394
24686SOL    HW275993   8.214   2.352   3.237
24687SOL     OW75994   8.857   2.365   3.518
24687SOL    HW175995   8.915   2.440   3.550
24687SOL    HW275996   8.900   2.277   3.542
24688SOL     OW75997   8.388   2.764   3.418
24688SOL    HW175998   8.431   2.687   3.371
24688SOL    HW275999   8.326   2.811   3.355
24689SOL     OW76000   8.463   2.221   3.029
24689SOL    HW176001   8.369   2.231   3.061
24689SOL    HW276002   8.463   2.179   2.938
24690SOL     OW76003   8.496   2.517   2.254
24690SOL    HW176004   8.526   2.522   2.350
24690SOL    HW276005   8.401   2.486   2.251
24691SOL     OW76006   7.538   2.700   2.664
24691SOL    HW176007   7.626   2.690   2.709
24691SOL    HW276008   7.480   2.763   2.717
24692SOL     OW76009   7.557   3.732   3.493
24692SOL    HW176010   7.552   3.688   3.583
24692SOL    HW276011   7.465   3.742   3.456
24693SOL     OW76012   8.295   2.221   2.069
24693SOL    HW176013   8.353   2.253   1.994
24693SOL    HW276014   8.243   2.141   2.039
24694SOL     OW76015   9.178   2.422   3.679
24694SOL    HW176016   9.134   2.502   3.638
24694SOL    HW276017   9.196   2.354   3.607
24695SOL     OW76018   8.836   3.022   2.431
24695SOL    HW176019   8.926   3.011   2.388
24695SOL    HW276020   8.784   3.092   2.381
24696SOL     OW76021   7.977   1.950   2.838
24696SOL    HW176022   7.995   1.978   2.932
24696SOL    HW276023   7.981   2.030   2.778
24697SOL     OW76024   8.450   3.354   2.308
24697SOL    HW176025   8.426   3.420   2.237
24697SOL    HW276026   8.408   3.382   2.395
24698SOL     OW76027   7.796   3.633   2.738
24698SOL    HW176028   7.830   3.540   2.745
24698SOL    HW276029   7.871   3.697   2.755
24699SOL     OW76030   9.250   2.983   2.765
24699SOL    HW176031   9.215   3.035   2.687
24699SOL    HW276032   9.176   2.968   2.831
24700SOL     OW76033   8.615   3.372   3.352
24700SOL    HW176034   8.610   3.310   3.430
24700SOL    HW276035   8.550   3.342   3.282
24701SOL     OW76036   7.760   2.833   2.151
24701SOL    HW176037   7.840   2.853   2.094
24701SOL    HW276038   7.745   2.735   2.154
24702SOL     OW76039   8.914   2.601   2.559
24702SOL    HW176040   8.905   2.566   2.652
24702SOL    HW276041   8.993   2.663   2.553
24703SOL     OW76042   7.925   3.161   3.617
24703SOL    HW176043   7.905   3.159   3.519
24703SOL    HW276044   7.841   3.149   3.669
24704SOL     OW76045   8.582   3.645   2.085
24704SOL    HW176046   8.487   3.626   2.111
24704SOL    HW276047   8.616   3.572   2.027
24705SOL     OW76048   7.667   2.100   3.368
24705SOL    HW176049   7.588   2.159   3.355
24705SOL    HW276050   7.642   2.022   3.425
24706SOL     OW76051   9.043   3.285   1.961
24706SOL    HW176052   9.009   3.378   1.951
24706SOL    HW276053   8.975   3.220   1.926
24707SOL     OW76054   8.867   1.954   2.324
24707SOL    HW176055   8.871   1.941   2.225
24707SOL    HW276056   8.946   1.910   2.367
24708SOL     OW76057   7.667   3.680   3.074
24708SOL    HW176058   7.717   3.598   3.103
24708SOL    HW276059   7.623   3.662   2.986
24709SOL     OW76060   8.359   3.530   2.721
24709SOL    HW176061   8.450   3.489   2.722
24709SOL    HW276062   8.312   3.503   2.637
24710SOL     OW76063   7.818   2.541   2.338
24710SOL    HW176064   7.836   2.444   2.350
24710SOL    HW276065   7.725   2.562   2.368
24711SOL     OW76066   8.962   2.117   3.581
24711SOL    HW176067   8.959   2.106   3.680
24711SOL    HW276068   8.915   2.041   3.537
24712SOL     OW76069   8.152   1.987   2.030
24712SOL    HW176070   8.214   1.913   2.058
24712SOL    HW276071   8.097   1.956   1.952
24713SOL     OW76072   8.199   2.092   3.618
24713SOL    HW176073   8.288   2.052   3.598
24713SOL    HW276074   8.202   2.138   3.707
24714SOL     OW76075   8.294   3.369   3.025
24714SOL    HW176076   8.272   3.316   2.943
24714SOL    HW276077   8.350   3.314   3.087
24715SOL     OW76078   8.727   2.452   3.292
24715SOL    HW176079   8.777   2.424   3.374
24715SOL    HW276080   8.758   2.543   3.264
24716SOL     OW76081   8.248   3.204   2.799
24716SOL    HW176082   8.341   3.210   2.763
24716SOL    HW276083   8.182   3.221   2.727
24717SOL     OW76084   8.370   2.384   2.729
24717SOL    HW176085   8.341   2.370   2.634
24717SOL    HW276086   8.413   2.301   2.763
24718SOL     OW76087   8.004   1.927   2.372
24718SOL    HW176088   7.930   1.918   2.439
24718SOL    HW276089   7.990   2.009   2.317
24719SOL     OW76090   8.866   3.088   1.890
24719SOL    HW176091   8.920   3.028   1.949
24719SOL    HW276092   8.779   3.110   1.935
24720SOL     OW76093   7.722   1.893   2.009
24720SOL    HW176094   7.768   1.973   1.970
24720SOL    HW276095   7.787   1.841   2.064
24721SOL     OW76096   8.412   2.131   2.298
24721SOL    HW176097   8.375   2.169   2.213
24721SOL    HW276098   8.512   2.137   2.296
24722SOL     OW76099   8.465   2.541   3.288
24722SOL    HW176100   8.392   2.476   3.309
24722SOL    HW276101   8.553   2.493   3.291
24723SOL     OW76102   8.623   3.464   2.671
24723SOL    HW176103   8.657   3.514   2.592
24723SOL    HW276104   8.658   3.507   2.755
24724SOL     OW76105   7.931   3.000   2.549
24724SOL    HW176106   7.869   2.976   2.623
24724SOL    HW276107   7.879   3.012   2.464
24725SOL     OW76108   8.692   3.656   2.475
24725SOL    HW176109   8.737   3.727   2.421
24725SOL    HW276110   8.610   3.694   2.517
24726SOL     OW76111   8.471   2.332   1.890
24726SOL    HW176112   8.442   2.421   1.855
24726SOL    HW276113   8.542   2.344   1.959
24727SOL     OW76114   7.545   2.463   3.230
24727SOL    HW176115   7.641   2.457   3.204
24727SOL    HW276116   7.535   2.529   3.305
24728SOL     OW76117   8.017   2.034   3.095
24728SOL    HW176118   8.040   1.961   3.159
24728SOL    HW276119   7.921   2.060   3.107
24729SOL     OW76120   8.311   2.319   2.475
24729SOL    HW176121   8.263   2.377   2.409
24729SOL    HW276122   8.352   2.242   2.426
24730SOL     OW76123   8.462   1.900   2.556
24730SOL    HW176124   8.399   1.905   2.479
24730SOL    HW276125   8.427   1.836   2.624
24731SOL     OW76126   8.849   2.980   2.724
24731SOL    HW176127   8.799   2.898   2.752
24731SOL    HW276128   8.844   2.989   2.625
24732SOL     OW76129   8.882   2.509   2.817
24732SOL    HW176130   8.829   2.424   2.811
24732SOL    HW276131   8.959   2.496   2.880
24733SOL     OW76132   9.265   2.601   2.276
24733SOL    HW176133   9.334   2.574   2.343
24733SOL    HW276134   9.282   2.554   2.190
24734SOL     OW76135   7.912   3.332   2.107
24734SOL    HW176136   7.823   3.328   2.153
24734SOL    HW276137   7.917   3.261   2.037
24735SOL     OW76138   9.187   3.140   2.548
24735SOL    HW176139   9.283   3.143   2.521
24735SOL    HW276140   9.148   3.232   2.545
24736SOL     OW76141   8.839   2.430   1.898
24736SOL    HW176142   8.787   2.399   1.978
24736SOL    HW276143   8.937   2.424   1.917
24737SOL     OW76144   7.976   2.126   2.193
24737SOL    HW176145   8.044   2.078   2.137
24737SOL    HW276146   7.940   2.205   2.142
24738SOL     OW76147   9.136   3.113   3.393
24738SOL    HW176148   9.214   3.050   3.391
24738SOL    HW276149   9.165   3.200   3.433
24739SOL     OW76150   8.441   3.198   3.199
24739SOL    HW176151   8.355   3.175   3.245
24739SOL    HW276152   8.516   3.144   3.238
24740SOL     OW76153   9.087   3.590   3.509
24740SOL    HW176154   9.047   3.599   3.417
24740SOL    HW276155   9.139   3.505   3.515
24741SOL     OW76156   8.576   3.127   2.968
24741SOL    HW176157   8.510   3.153   3.039
24741SOL    HW276158   8.540   3.153   2.878
24742SOL     OW76159   9.034   2.962   2.938
24742SOL    HW176160   9.019   3.029   3.010
24742SOL    HW276161   8.962   2.970   2.869
24743SOL     OW76162   8.491   1.865   3.185
24743SOL    HW176163   8.494   1.884   3.087
24743SOL    HW276164   8.539   1.937   3.235
24744SOL     OW76165   8.397   2.986   3.579
24744SOL    HW176166   8.304   2.998   3.613
24744SOL    HW276167   8.399   2.910   3.514
24745SOL     OW76168   8.194   2.894   2.254
24745SOL    HW176169   8.171   2.868   2.348
24745SOL    HW276170   8.277   2.848   2.225
24746SOL     OW76171   7.896   2.682   3.141
24746SOL    HW176172   7.960   2.683   3.218
24746SOL    HW276173   7.853   2.591   3.135
24747SOL     OW76174   8.709   2.229   3.137
24747SOL    HW176175   8.722   2.314   3.188
24747SOL    HW276176   8.618   2.229   3.095
24748SOL     OW76177   7.518   3.412   3.209
24748SOL    HW176178   7.463   3.476   3.155
24748SOL    HW276179   7.615   3.430   3.194
24749SOL     OW76180   7.767   3.037   2.333
24749SOL    HW176181   7.745   3.122   2.286
24749SOL    HW276182   7.765   2.961   2.268
24750SOL     OW76183   7.958   2.408   2.740
24750SOL    HW176184   7.972   2.465   2.659
24750SOL    HW276185   8.037   2.416   2.800
24751SOL     OW76186   8.700   3.238   2.282
24751SOL    HW176187   8.767   3.307   2.308
24751SOL    HW276188   8.608   3.272   2.300
24752SOL     OW76189   8.760   3.326   2.977
24752SOL    HW176190   8.799   3.337   3.068
24752SOL    HW276191   8.695   3.249   2.977
24753SOL     OW76192   9.068   2.441   2.386
24753SOL    HW176193   8.997   2.489   2.437
24753SOL    HW276194   9.135   2.507   2.351
24754SOL     OW76195   7.781   3.430   3.132
24754SOL    HW176196   7.769   3.357   3.065
24754SOL    HW276197   7.879   3.447   3.146
24755SOL     OW76198   9.043   2.625   3.551
24755SOL    HW176199   8.957   2.675   3.542
24755SOL    HW276200   9.103   2.648   3.474
24756SOL     OW76201   8.450   1.997   3.591
24756SOL    HW176202   8.510   2.077   3.581
24756SOL    HW276203   8.502   1.914   3.570
24757SOL     OW76204   8.064   1.861   3.556
24757SOL    HW176205   7.965   1.868   3.565
24757SOL    HW276206   8.107   1.948   3.580
24758SOL     OW76207   8.041   2.724   2.915
24758SOL    HW176208   8.080   2.816   2.912
24758SOL    HW276209   7.988   2.713   2.999
24759SOL     OW76210   8.728   2.741   2.827
24759SOL    HW176211   8.636   2.708   2.807
24759SOL    HW276212   8.792   2.663   2.826
24760SOL     OW76213   8.655   2.359   2.097
24760SOL    HW176214   8.676   2.280   2.156
24760SOL    HW276215   8.605   2.427   2.149
24761SOL     OW76216   7.742   2.039   3.110
24761SOL    HW176217   7.717   2.064   3.204
24761SOL    HW276218   7.723   1.942   3.095
24762SOL     OW76219   7.482   3.160   3.118
24762SOL    HW176220   7.518   3.098   3.188
24762SOL    HW276221   7.491   3.255   3.150
24763SOL     OW76222   8.168   2.472   2.906
24763SOL    HW176223   8.239   2.455   2.837
24763SOL    HW276224   8.132   2.564   2.895
24764SOL     OW76225   9.174   2.818   3.716
24764SOL    HW176226   9.123   2.747   3.667
24764SOL    HW276227   9.115   2.856   3.788
24765SOL     OW76228   7.778   1.904   2.532
24765SOL    HW176229   7.743   1.997   2.548
24765SOL    HW276230   7.774   1.852   2.617
24766SOL     OW76231   9.166   2.245   2.205
24766SOL    HW176232   9.230   2.188   2.257
24766SOL    HW276233   9.121   2.309   2.266
24767SOL     OW76234   8.470   2.627   2.800
24767SOL    HW176235   8.447   2.640   2.897
24767SOL    HW276236   8.440   2.536   2.772
24768SOL     OW76237   8.431   3.416   3.644
24768SOL    HW176238   8.396   3.473   3.569
24768SOL    HW276239   8.474   3.335   3.606
24769SOL     OW76240   9.244   3.364   3.464
24769SOL    HW176241   9.266   3.380   3.368
24769SOL    HW276242   9.329   3.362   3.517
24770SOL     OW76243   7.714   2.710   3.646
24770SOL    HW176244   7.699   2.666   3.734
24770SOL    HW276245   7.797   2.672   3.604
24771SOL     OW76246   9.051   2.116   1.984
24771SOL    HW176247   8.980   2.051   2.015
24771SOL    HW276248   9.088   2.164   2.063
24772SOL     OW76249   8.741   2.682   1.867
24772SOL    HW176250   8.773   2.588   1.876
24772SOL    HW276251   8.780   2.723   1.785
24773SOL     OW76252   8.506   3.214   2.718
24773SOL    HW176253   8.526   3.134   2.661
24773SOL    HW276254   8.561   3.291   2.686
24774SOL     OW76255   7.776   2.673   2.811
24774SOL    HW176256   7.874   2.684   2.823
24774SOL    HW276257   7.750   2.579   2.833
24775SOL     OW76258   7.726   2.396   2.865
24775SOL    HW176259   7.690   2.302   2.865
24775SOL    HW276260   7.810   2.400   2.811
24776SOL     OW76261   8.611   2.221   3.538
24776SOL    HW176262   8.545   2.270   3.594
24776SOL    HW276263   8.696   2.274   3.532
24777SOL     OW76264   8.649   2.045   3.328
24777SOL    HW176265   8.626   2.100   3.407
24777SOL    HW276266   8.678   2.104   3.252
24778SOL     OW76267   7.485   3.156   2.069
24778SOL    HW176268   7.398   3.194   2.037
24778SOL    HW276269   7.472   3.060   2.095
24779SOL     OW76270   7.539   3.630   2.825
24779SOL    HW176271   7.489   3.561   2.773
24779SOL    HW276272   7.632   3.637   2.790
24780SOL     OW76273   7.921   3.387   2.773
24780SOL    HW176274   7.990   3.449   2.810
24780SOL    HW276275   7.963   3.328   2.704
24781SOL     OW76276   8.366   2.630   3.049
24781SOL    HW176277   8.411   2.608   3.135
24781SOL    HW276278   8.289   2.567   3.034
24782SOL     OW76279   7.472   2.469   2.969
24782SOL    HW176280   7.555   2.452   2.916
24782SOL    HW276281   7.494   2.472   3.066
24783SOL     OW76282   7.679   2.423   3.562
24783SOL    HW176283   7.770   2.455   3.537
24783SOL    HW276284   7.610   2.477   3.515
24784SOL     OW76285   8.825   2.774   3.484
24784SOL    HW176286   8.843   2.873   3.485
24784SOL    HW276287   8.810   2.744   3.390
24785SOL     OW76288   8.237   2.434   2.231
24785SOL    HW176289   8.248   2.356   2.169
24785SOL    HW276290   8.158   2.488   2.203
24786SOL     OW76291   9.097   2.485   3.000
24786SOL    HW176292   9.094   2.423   3.078
24786SOL    HW276293   9.191   2.513   2.983
24787SOL     OW76294   7.673   3.398   3.585
24787SOL    HW176295   7.641   3.466   3.650
24787SOL    HW276296   7.682   3.309   3.630
24788SOL     OW76297   8.195   2.259   3.089
24788SOL    HW176298   8.130   2.183   3.091
24788SOL    HW276299   8.166   2.326   3.021
24789SOL     OW76300   8.302   3.569   3.428
24789SOL    HW176301   8.224   3.530   3.379
24789SOL    HW276302   8.348   3.636   3.369
24790SOL     OW76303   7.893   2.335   2.039
24790SOL    HW176304   7.956   2.408   2.063
24790SOL    HW276305   7.799   2.371   2.036
24791SOL     OW76306   7.579   3.008   3.327
24791SOL    HW176307   7.579   2.975   3.421
24791SOL    HW276308   7.612   2.936   3.266
24792SOL     OW76309   8.693   2.896   3.051
24792SOL    HW176310   8.712   2.836   2.973
24792SOL    HW276311   8.651   2.981   3.019
24793SOL     OW76312   8.792   2.788   2.115
24793SOL    HW176313   8.720   2.766   2.181
24793SOL    HW276314   8.770   2.747   2.026
24794SOL     OW76315   9.166   3.549   3.012
24794SOL    HW176316   9.242   3.586   2.958
24794SOL    HW276317   9.145   3.457   2.979
24795SOL     OW76318   8.703   3.581   2.907
24795SOL    HW176319   8.790   3.632   2.905
24795SOL    HW276320   8.720   3.489   2.940
24796SOL     OW76321   7.563   3.059   2.883
24796SOL    HW176322   7.532   3.096   2.971
24796SOL    HW276323   7.490   3.008   2.839
24797SOL     OW76324   8.145   3.594   3.648
24797SOL    HW176325   8.072   3.661   3.634
24797SOL    HW276326   8.210   3.599   3.572
24798SOL     OW76327   8.859   3.453   2.365
24798SOL    HW176328   8.920   3.491   2.295
24798SOL    HW276329   8.796   3.524   2.395
24799SOL     OW76330   7.574   3.597   3.742
24799SOL    HW176331   7.520   3.539   3.803
24799SOL    HW276332   7.624   3.664   3.796
24800SOL     OW76333   8.722   2.784   2.490
24800SOL    HW176334   8.795   2.720   2.512
24800SOL    HW276335   8.761   2.870   2.457
24801SOL     OW76336   8.191   3.145   3.303
24801SOL    HW176337   8.175   3.206   3.380
24801SOL    HW276338   8.117   3.155   3.237
24802SOL     OW76339   8.080   3.534   2.024
24802SOL    HW176340   8.101   3.528   1.926
24802SOL    HW276341   8.025   3.456   2.052
24803SOL     OW76342   9.011   3.595   3.243
24803SOL    HW176343   9.068   3.577   3.163
24803SOL    HW276344   8.981   3.691   3.242
24804SOL     OW76345   9.264   2.020   2.837
24804SOL    HW176346   9.304   1.928   2.830
24804SOL    HW276347   9.177   2.022   2.789
24805SOL     OW76348   7.691   2.153   2.592
24805SOL    HW176349   7.610   2.202   2.559
24805SOL    HW276350   7.692   2.154   2.692
24806SOL     OW76351   8.671   3.444   1.923
24806SOL    HW176352   8.670   3.351   1.961
24806SOL    HW276353   8.592   3.456   1.862
24807SOL     OW76354   8.215   2.877   3.244
24807SOL    HW176355   8.234   2.874   3.146
24807SOL    HW276356   8.203   2.972   3.273
24808SOL     OW76357   8.417   2.768   2.177
24808SOL    HW176358   8.443   2.780   2.082
24808SOL    HW276359   8.448   2.679   2.210
24809SOL     OW76360   8.929   3.544   1.935
24809SOL    HW176361   8.835   3.512   1.922
24809SOL    HW276362   8.977   3.540   1.848
24810SOL     OW76363   7.815   3.170   3.367
24810SOL    HW176364   7.816   3.251   3.309
24810SOL    HW276365   7.734   3.115   3.348
24811SOL     OW76366   9.023   3.157   3.145
24811SOL    HW176367   9.069   3.125   3.228
24811SOL    HW276368   8.956   3.226   3.169
24812SOL     OW76369   8.529   2.973   2.593
24812SOL    HW176370   8.448   2.928   2.632
24812SOL    HW276371   8.589   2.904   2.553
24813SOL     OW76372   8.498   2.112   2.771
24813SOL    HW176373   8.484   2.086   2.676
24813SOL    HW276374   8.509   2.030   2.827
24814SOL     OW76375   8.082   3.332   2.335
24814SOL    HW176376   8.146   3.268   2.293
24814SOL    HW276377   8.007   3.350   2.272
24815SOL     OW76378   9.189   2.323   3.227
24815SOL    HW176379   9.268   2.382   3.246
24815SOL    HW276380   9.219   2.243   3.175
24816SOL     OW76381   7.674   3.275   2.232
24816SOL    HW176382   7.598   3.246   2.173
24816SOL    HW276383   7.637   3.326   2.311
24817SOL     OW76384   7.562   2.924   3.585
24817SOL    HW176385   7.475   2.914   3.633
24817SOL    HW276386   7.625   2.852   3.614
24818SOL     OW76387   7.542   2.186   1.856
24818SOL    HW176388   7.460   2.171   1.801
24818SOL    HW276389   7.574   2.280   1.845
24819SOL     OW76390   8.804   2.707   3.222
24819SOL    HW176391   8.743   2.768   3.170
24819SOL    HW276392   8.896   2.712   3.184
24820SOL     OW76393   7.501   2.028   2.093
24820SOL    HW176394   7.488   2.096   2.020
24820SOL    HW276395   7.587   1.980   2.078
24821SOL     OW76396   8.631   3.182   2.012
24821SOL    HW176397   8.533   3.168   2.007
24821SOL    HW276398   8.660   3.187   2.108
24822SOL     OW76399   8.080   2.651   3.338
24822SOL    HW176400   8.131   2.734   3.315
24822SOL    HW276401   8.140   2.571   3.326
24823SOL     OW76402   8.954   3.696   2.898
24823SOL    HW176403   8.991   3.744   2.818
24823SOL    HW276404   9.027   3.644   2.942
24824SOL     OW76405   8.876   3.043   3.477
24824SOL    HW176406   8.869   3.063   3.575
24824SOL    HW276407   8.967   3.069   3.444
24825SOL     OW76408   7.805   3.618   3.476
24825SOL    HW176409   7.720   3.669   3.463
24825SOL    HW276410   7.784   3.525   3.505
24826SOL     OW76411   9.044   2.736   3.099
24826SOL    HW176412   9.062   2.651   3.050
24826SOL    HW276413   9.047   2.813   3.036
24827SOL     OW76414   8.686   2.164   2.296
24827SOL    HW176415   8.746   2.085   2.301
24827SOL    HW276416   8.702   2.224   2.375
24828SOL     OW76417   8.003   2.587   2.541
24828SOL    HW176418   8.058   2.670   2.528
24828SOL    HW276419   7.939   2.577   2.466
24829SOL     OW76420   9.196   2.225   3.485
24829SOL    HW176421   9.183   2.263   3.393
24829SOL    HW276422   9.113   2.177   3.513
24830SOL     OW76423   9.176   2.723   3.338
24830SOL    HW176424   9.245   2.795   3.340
24830SOL    HW276425   9.128   2.725   3.250
24831SOL     OW76426   8.345   3.204   1.963
24831SOL    HW176427   8.304   3.208   2.054
24831SOL    HW276428   8.350   3.296   1.925
24832SOL     OW76429   8.108   3.572   2.829
24832SOL    HW176430   8.082   3.665   2.804
24832SOL    HW276431   8.202   3.555   2.802
24833SOL     OW76432   8.318   2.846   2.725
24833SOL    HW176433   8.372   2.766   2.750
24833SOL    HW276434   8.273   2.884   2.806
24834SOL     OW76435   8.495   2.778   1.921
24834SOL    HW176436   8.472   2.854   1.861
24834SOL    HW276437   8.588   2.746   1.900
24835SOL     OW76438   9.248   3.443   2.724
24835SOL    HW176439   9.180   3.432   2.652
24835SOL    HW276440   9.233   3.374   2.795
24836SOL     OW76441   7.666   3.149   3.699
24836SOL    HW176442   7.634   3.072   3.644
24836SOL    HW276443   7.607   3.158   3.780
24837SOL     OW76444   7.605   3.090   2.545
24837SOL    HW176445   7.639   3.037   2.623
24837SOL    HW276446   7.655   3.064   2.463
24838SOL     OW76447   8.129   3.317   3.512
24838SOL    HW176448   8.053   3.268   3.555
24838SOL    HW276449   8.146   3.402   3.563
24839SOL     OW76450   9.267   2.097   3.098
24839SOL    HW176451   9.365   2.084   3.113
24839SOL    HW276452   9.245   2.077   3.003
24840SOL     OW76453   7.846   2.280   2.390
24840SOL    HW176454   7.894   2.215   2.332
24840SOL    HW276455   7.802   2.232   2.466
24841SOL     OW76456   9.122   3.298   2.928
24841SOL    HW176457   9.051   3.276   2.861
24841SOL    HW276458   9.111   3.240   3.008
24842SOL     OW76459   7.795   2.434   3.135
24842SOL    HW176460   7.838   2.365   3.193
24842SOL    HW276461   7.786   2.399   3.042
24843SOL     OW76462   8.261   3.487   2.474
24843SOL    HW176463   8.263   3.580   2.438
24843SOL    HW276464   8.188   3.435   2.428
24844SOL     OW76465   8.874   2.110   2.957
24844SOL    HW176466   8.897   2.016   2.982
24844SOL    HW276467   8.821   2.152   3.031
24845SOL     OW76468   8.510   1.872   2.903
24845SOL    HW176469   8.439   1.816   2.861
24845SOL    HW276470   8.596   1.820   2.906
24846SOL     OW76471   8.256   3.162   2.220
24846SOL    HW176472   8.237   3.065   2.233
24846SOL    HW276473   8.340   3.186   2.268
24847SOL     OW76474   8.055   3.440   3.146
24847SOL    HW176475   8.055   3.519   3.207
24847SOL    HW276476   8.141   3.438   3.095
24848SOL     OW76477   8.850   1.923   2.049
24848SOL    HW176478   8.888   1.849   1.994
24848SOL    HW276479   8.754   1.906   2.067
24849SOL     OW76480   8.736   2.316   2.512
24849SOL    HW176481   8.692   2.406   2.501
24849SOL    HW276482   8.749   2.297   2.609
24850SOL     OW76483   9.022   2.045   2.730
24850SOL    HW176484   8.966   2.091   2.798
24850SOL    HW276485   9.027   2.102   2.647
24851SOL     OW76486   7.484   2.888   2.177
24851SOL    HW176487   7.583   2.881   2.160
24851SOL    HW276488   7.447   2.796   2.189
24852SOL     OW76489   8.324   3.568   2.160
24852SOL    HW176490   8.239   3.550   2.112
24852SOL    HW276491   8.307   3.631   2.236
24853SOL     OW76492   7.657   2.479   3.834
24853SOL    HW176493   7.568   2.456   3.872
24853SOL    HW276494   7.660   2.454   3.737
24854SOL     OW76495   7.636   2.182   4.737
24854SOL    HW176496   7.679   2.129   4.810
24854SOL    HW276497   7.541   2.154   4.727
24855SOL     OW76498   7.444   2.320   4.344
24855SOL    HW176499   7.351   2.326   4.382
24855SOL    HW276500   7.441   2.270   4.258
24856SOL     OW76501   8.040   3.127   4.946
24856SOL    HW176502   7.952   3.173   4.930
24856SOL    HW276503   8.081   3.163   5.029
24857SOL     OW76504   9.047   3.391   4.431
24857SOL    HW176505   9.011   3.348   4.514
24857SOL    HW276506   8.975   3.393   4.361
24858SOL     OW76507   8.573   2.561   4.366
24858SOL    HW176508   8.631   2.643   4.363
24858SOL    HW276509   8.512   2.565   4.445
24859SOL     OW76510   9.284   2.439   3.928
24859SOL    HW176511   9.249   2.436   3.834
24859SOL    HW276512   9.213   2.406   3.991
24860SOL     OW76513   8.160   2.987   4.752
24860SOL    HW176514   8.109   3.032   4.826
24860SOL    HW276515   8.196   3.057   4.689
24861SOL     OW76516   8.412   2.526   5.517
24861SOL    HW176517   8.417   2.613   5.566
24861SOL    HW276518   8.409   2.544   5.419
24862SOL     OW76519   8.145   2.827   4.377
24862SOL    HW176520   8.218   2.832   4.445
24862SOL    HW276521   8.077   2.898   4.394
24863SOL     OW76522   8.096   2.996   5.580
24863SOL    HW176523   8.127   3.079   5.627
24863SOL    HW276524   8.029   3.021   5.511
24864SOL     OW76525   7.798   3.243   4.861
24864SOL    HW176526   7.730   3.174   4.836
24864SOL    HW276527   7.826   3.293   4.780
24865SOL     OW76528   8.873   3.340   5.105
24865SOL    HW176529   8.932   3.418   5.126
24865SOL    HW276530   8.805   3.329   5.177
24866SOL     OW76531   7.885   2.224   5.161
24866SOL    HW176532   7.973   2.176   5.160
24866SOL    HW276533   7.813   2.161   5.189
24867SOL     OW76534   8.998   2.340   4.428
24867SOL    HW176535   8.908   2.311   4.397
24867SOL    HW276536   8.999   2.440   4.439
24868SOL     OW76537   7.708   3.602   4.215
24868SOL    HW176538   7.725   3.678   4.277
24868SOL    HW276539   7.765   3.613   4.133
24869SOL     OW76540   8.520   3.194   5.513
24869SOL    HW176541   8.557   3.185   5.605
24869SOL    HW276542   8.467   3.113   5.490
24870SOL     OW76543   7.774   3.343   4.245
24870SOL    HW176544   7.740   3.437   4.246
24870SOL    HW276545   7.726   3.290   4.314
24871SOL     OW76546   7.750   2.951   4.578
24871SOL    HW176547   7.752   2.852   4.587
24871SOL    HW276548   7.711   2.991   4.661
24872SOL     OW76549   8.052   2.837   3.930
24872SOL    HW176550   8.078   2.882   3.845
24872SOL    HW276551   8.103   2.877   4.006
24873SOL     OW76552   9.154   1.902   5.232
24873SOL    HW176553   9.196   1.944   5.152
24873SOL    HW276554   9.090   1.967   5.274
24874SOL     OW76555   7.543   2.578   4.293
24874SOL    HW176556   7.513   2.486   4.317
24874SOL    HW276557   7.524   2.640   4.369
24875SOL     OW76558   9.251   3.623   4.079
24875SOL    HW176559   9.209   3.628   4.169
24875SOL    HW276560   9.297   3.710   4.059
24876SOL     OW76561   7.441   3.430   3.909
24876SOL    HW176562   7.463   3.332   3.906
24876SOL    HW276563   7.346   3.442   3.939
24877SOL     OW76564   9.138   2.803   4.371
24877SOL    HW176565   9.201   2.730   4.343
24877SOL    HW276566   9.123   2.865   4.294
24878SOL     OW76567   9.106   2.982   4.154
24878SOL    HW176568   9.186   2.960   4.098
24878SOL    HW276569   9.130   3.055   4.218
24879SOL     OW76570   7.564   2.622   5.305
24879SOL    HW176571   7.631   2.665   5.366
24879SOL    HW276572   7.502   2.692   5.268
24880SOL     OW76573   8.026   3.252   4.470
24880SOL    HW176574   7.995   3.159   4.450
24880SOL    HW276575   8.035   3.303   4.384
24881SOL     OW76576   7.657   2.797   4.913
24881SOL    HW176577   7.745   2.769   4.951
24881SOL    HW276578   7.602   2.716   4.893
24882SOL     OW76579   8.982   2.910   3.909
24882SOL    HW176580   8.909   2.844   3.929
24882SOL    HW276581   9.023   2.941   3.994
24883SOL     OW76582   8.600   3.622   5.335
24883SOL    HW176583   8.648   3.706   5.308
24883SOL    HW276584   8.639   3.545   5.285
24884SOL     OW76585   7.811   2.094   5.562
24884SOL    HW176586   7.865   2.175   5.539
24884SOL    HW276587   7.714   2.117   5.559
24885SOL     OW76588   8.958   3.265   4.659
24885SOL    HW176589   8.891   3.303   4.723
24885SOL    HW276590   8.927   3.175   4.629
24886SOL     OW76591   9.112   3.635   4.311
24886SOL    HW176592   9.039   3.699   4.332
24886SOL    HW276593   9.093   3.547   4.354
24887SOL     OW76594   8.034   2.573   4.031
24887SOL    HW176595   8.052   2.662   3.988
24887SOL    HW276596   7.958   2.582   4.096
24888SOL     OW76597   8.730   2.361   4.668
24888SOL    HW176598   8.632   2.375   4.678
24888SOL    HW276599   8.758   2.282   4.723
24889SOL     OW76600   9.003   3.520   4.013
24889SOL    HW176601   9.099   3.543   4.028
24889SOL    HW276602   8.988   3.497   3.917
24890SOL     OW76603   8.273   2.343   5.151
24890SOL    HW176604   8.244   2.286   5.228
24890SOL    HW276605   8.204   2.340   5.079
24891SOL     OW76606   8.792   2.351   5.378
24891SOL    HW176607   8.799   2.403   5.464
24891SOL    HW276608   8.854   2.273   5.382
24892SOL     OW76609   8.255   2.754   5.316
24892SOL    HW176610   8.317   2.689   5.272
24892SOL    HW276611   8.212   2.811   5.247
24893SOL     OW76612   8.442   2.320   4.931
24893SOL    HW176613   8.382   2.334   5.010
24893SOL    HW276614   8.419   2.233   4.887
24894SOL     OW76615   8.488   2.559   4.108
24894SOL    HW176616   8.518   2.557   4.204
24894SOL    HW276617   8.401   2.511   4.099
24895SOL     OW76618   7.499   2.755   4.509
24895SOL    HW176619   7.588   2.726   4.544
24895SOL    HW276620   7.463   2.828   4.568
24896SOL     OW76621   7.620   3.695   5.287
24896SOL    HW176622   7.596   3.673   5.382
24896SOL    HW276623   7.572   3.634   5.225
24897SOL     OW76624   8.251   2.237   3.851
24897SOL    HW176625   8.331   2.270   3.801
24897SOL    HW276626   8.279   2.170   3.919
24898SOL     OW76627   9.093   2.462   5.561
24898SOL    HW176628   9.092   2.549   5.512
24898SOL    HW276629   9.126   2.390   5.500
24899SOL     OW76630   8.848   3.015   4.291
24899SOL    HW176631   8.932   3.009   4.237
24899SOL    HW276632   8.787   3.083   4.250
24900SOL     OW76633   7.928   2.009   4.623
24900SOL    HW176634   7.955   2.032   4.716
24900SOL    HW276635   7.905   2.092   4.573
24901SOL     OW76636   8.447   3.346   4.201
24901SOL    HW176637   8.431   3.424   4.140
24901SOL    HW276638   8.414   3.368   4.293
24902SOL     OW76639   7.786   3.659   4.622
24902SOL    HW176640   7.819   3.565   4.630
24902SOL    HW276641   7.855   3.722   4.658
24903SOL     OW76642   9.244   2.910   4.612
24903SOL    HW176643   9.198   2.894   4.525
24903SOL    HW276644   9.177   2.925   4.684
24904SOL     OW76645   8.661   3.309   5.283
24904SOL    HW176646   8.639   3.270   5.373
24904SOL    HW276647   8.629   3.248   5.211
24905SOL     OW76648   7.784   2.798   4.012
24905SOL    HW176649   7.873   2.811   3.967
24905SOL    HW276650   7.784   2.709   4.058
24906SOL     OW76651   8.953   2.617   4.446
24906SOL    HW176652   8.936   2.614   4.545
24906SOL    HW276653   9.023   2.687   4.427
24907SOL     OW76654   7.911   3.104   5.412
24907SOL    HW176655   7.872   3.063   5.330
24907SOL    HW276656   7.837   3.126   5.477
24908SOL     OW76657   8.627   3.644   3.969
24908SOL    HW176658   8.535   3.625   4.004
24908SOL    HW276659   8.650   3.577   3.899
24909SOL     OW76660   7.672   2.064   5.216
24909SOL    HW176661   7.582   2.107   5.214
24909SOL    HW276662   7.665   1.974   5.258
24910SOL     OW76663   9.067   3.245   3.781
24910SOL    HW176664   9.033   3.338   3.766
24910SOL    HW276665   8.992   3.180   3.766
24911SOL     OW76666   7.908   3.650   4.026
24911SOL    HW176667   7.953   3.697   4.102
24911SOL    HW276668   7.975   3.594   3.977
24912SOL     OW76669   8.824   1.971   4.135
24912SOL    HW176670   8.825   1.921   4.049
24912SOL    HW276671   8.901   2.036   4.136
24913SOL     OW76672   7.652   3.710   4.929
24913SOL    HW176673   7.698   3.628   4.962
24913SOL    HW276674   7.607   3.690   4.842
24914SOL     OW76675   8.342   3.542   4.629
24914SOL    HW176676   8.350   3.464   4.691
24914SOL    HW276677   8.316   3.510   4.538
24915SOL     OW76678   7.799   2.574   4.187
24915SOL    HW176679   7.825   2.480   4.211
24915SOL    HW276680   7.705   2.592   4.216
24916SOL     OW76681   8.939   2.118   5.429
24916SOL    HW176682   8.936   2.120   5.529
24916SOL    HW276683   8.881   2.044   5.396
24917SOL     OW76684   8.165   2.171   5.345
24917SOL    HW176685   8.231   2.116   5.396
24917SOL    HW276686   8.100   2.214   5.408
24918SOL     OW76687   8.310   3.338   4.820
24918SOL    HW176688   8.281   3.277   4.747
24918SOL    HW276689   8.237   3.346   4.888
24919SOL     OW76690   8.694   2.518   5.180
24919SOL    HW176691   8.738   2.471   5.256
24919SOL    HW276692   8.738   2.606   5.164
24920SOL     OW76693   8.251   3.192   4.605
24920SOL    HW176694   8.337   3.207   4.556
24920SOL    HW276695   8.174   3.220   4.547
24921SOL     OW76696   8.455   2.413   4.679
24921SOL    HW176697   8.418   2.341   4.619
24921SOL    HW276698   8.449   2.383   4.774
24922SOL     OW76699   7.977   1.935   4.235
24922SOL    HW176700   8.007   1.947   4.330
24922SOL    HW276701   7.979   2.023   4.188
24923SOL     OW76702   8.842   3.083   3.747
24923SOL    HW176703   8.891   3.014   3.801
24923SOL    HW276704   8.768   3.122   3.802
24924SOL     OW76705   7.741   1.886   3.922
24924SOL    HW176706   7.784   1.969   3.885
24924SOL    HW276707   7.811   1.830   3.968
24925SOL     OW76708   8.367   2.214   4.262
24925SOL    HW176709   8.349   2.294   4.205
24925SOL    HW276710   8.463   2.187   4.252
24926SOL     OW76711   8.421   2.565   5.207
24926SOL    HW176712   8.370   2.481   5.189
24926SOL    HW276713   8.519   2.547   5.196
24927SOL     OW76714   8.664   3.459   4.535
24927SOL    HW176715   8.690   3.520   4.461
24927SOL    HW276716   8.673   3.506   4.622
24928SOL     OW76717   7.945   3.005   4.400
24928SOL    HW176718   7.878   2.983   4.471
24928SOL    HW276719   7.899   3.009   4.311
24929SOL     OW76720   8.708   3.659   4.350
24929SOL    HW176721   8.761   3.737   4.317
24929SOL    HW276722   8.622   3.691   4.389
24930SOL     OW76723   8.450   2.361   3.706
24930SOL    HW176724   8.429   2.455   3.681
24930SOL    HW276725   8.501   2.359   3.792
24931SOL     OW76726   7.560   2.432   5.109
24931SOL    HW176727   7.656   2.429   5.081
24931SOL    HW276728   7.549   2.501   5.181
24932SOL     OW76729   7.988   2.078   4.883
24932SOL    HW176730   8.046   2.051   4.961
24932SOL    HW276731   7.892   2.065   4.908
24933SOL     OW76732   8.507   1.840   4.349
24933SOL    HW176733   8.525   1.938   4.345
24933SOL    HW276734   8.452   1.819   4.430
24934SOL     OW76735   8.873   3.015   4.585
24934SOL    HW176736   8.811   2.946   4.622
24934SOL    HW276737   8.866   3.017   4.486
24935SOL     OW76738   8.890   2.583   4.707
24935SOL    HW176739   8.833   2.501   4.696
24935SOL    HW276740   8.965   2.562   4.770
24936SOL     OW76741   9.276   2.667   4.084
24936SOL    HW176742   9.287   2.624   4.174
24936SOL    HW276743   9.285   2.598   4.012
24937SOL     OW76744   7.966   3.301   3.866
24937SOL    HW176745   7.885   3.273   3.918
24937SOL    HW276746   7.963   3.259   3.775
24938SOL     OW76747   9.191   3.156   4.334
24938SOL    HW176748   9.289   3.143   4.350
24938SOL    HW276749   9.162   3.242   4.375
24939SOL     OW76750   8.008   2.171   4.105
24939SOL    HW176751   8.100   2.149   4.074
24939SOL    HW276752   7.963   2.230   4.037
24940SOL     OW76753   9.206   3.117   5.238
24940SOL    HW176754   9.293   3.078   5.208
24940SOL    HW276755   9.221   3.209   5.276
24941SOL     OW76756   9.057   3.441   5.442
24941SOL    HW176757   9.005   3.479   5.365
24941SOL    HW276758   9.150   3.420   5.413
24942SOL     OW76759   8.555   3.207   4.787
24942SOL    HW176760   8.475   3.253   4.826
24942SOL    HW276761   8.547   3.203   4.688
24943SOL     OW76762   9.049   2.966   4.801
24943SOL    HW176763   9.044   3.034   4.874
24943SOL    HW276764   8.982   2.987   4.730
24944SOL     OW76765   8.396   1.955   5.038
24944SOL    HW176766   8.401   1.856   5.049
24944SOL    HW276767   8.466   1.999   5.094
24945SOL     OW76768   8.350   2.958   5.483
24945SOL    HW176769   8.261   2.978   5.524
24945SOL    HW276770   8.339   2.890   5.411
24946SOL     OW76771   8.209   2.936   4.133
24946SOL    HW176772   8.184   2.896   4.221
24946SOL    HW276773   8.298   2.900   4.104
24947SOL     OW76774   7.898   2.702   5.024
24947SOL    HW176775   7.928   2.731   5.115
24947SOL    HW276776   7.871   2.606   5.026
24948SOL     OW76777   8.689   2.282   5.028
24948SOL    HW176778   8.712   2.363   5.081
24948SOL    HW276779   8.601   2.296   4.983
24949SOL     OW76780   7.508   3.506   5.114
24949SOL    HW176781   7.446   3.525   5.038
24949SOL    HW276782   7.599   3.483   5.078
24950SOL     OW76783   7.796   3.017   4.172
24950SOL    HW176784   7.792   3.093   4.107
24950SOL    HW276785   7.790   2.930   4.122
24951SOL     OW76786   7.971   2.431   4.601
24951SOL    HW176787   7.967   2.485   4.518
24951SOL    HW276788   8.056   2.450   4.650
24952SOL     OW76789   8.695   3.226   4.171
24952SOL    HW176790   8.760   3.298   4.193
24952SOL    HW276791   8.602   3.257   4.189
24953SOL     OW76792   8.779   3.350   4.849
24953SOL    HW176793   8.810   3.340   4.943
24953SOL    HW276794   8.698   3.293   4.835
24954SOL     OW76795   7.757   3.468   5.009
24954SOL    HW176796   7.765   3.383   4.957
24954SOL    HW276797   7.845   3.490   5.050
24955SOL     OW76798   9.077   2.702   5.440
24955SOL    HW176799   8.985   2.740   5.433
24955SOL    HW276800   9.130   2.729   5.360
24956SOL     OW76801   8.355   2.027   5.471
24956SOL    HW176802   8.437   2.083   5.457
24956SOL    HW276803   8.378   1.947   5.527
24957SOL     OW76804   7.993   1.909   5.485
24957SOL    HW176805   7.957   1.843   5.420
24957SOL    HW276806   7.924   1.979   5.504
24958SOL     OW76807   8.128   2.743   4.873
24958SOL    HW176808   8.129   2.827   4.819
24958SOL    HW276809   8.038   2.730   4.913
24959SOL     OW76810   8.739   2.810   4.720
24959SOL    HW176811   8.646   2.774   4.707
24959SOL    HW276812   8.804   2.735   4.719
24960SOL     OW76813   8.569   2.357   3.942
24960SOL    HW176814   8.666   2.330   3.944
24960SOL    HW276815   8.555   2.434   4.003
24961SOL     OW76816   7.729   2.033   4.947
24961SOL    HW176817   7.707   2.049   5.044
24961SOL    HW276818   7.714   1.936   4.926
24962SOL     OW76819   8.187   2.502   4.748
24962SOL    HW176820   8.281   2.493   4.716
24962SOL    HW276821   8.174   2.592   4.789
24963SOL     OW76822   9.242   2.874   5.583
24963SOL    HW176823   9.176   2.809   5.545
24963SOL    HW276824   9.245   2.864   5.683
24964SOL     OW76825   9.045   2.132   4.098
24964SOL    HW176826   9.120   2.093   4.151
24964SOL    HW276827   9.049   2.232   4.101
24965SOL     OW76828   8.496   2.680   4.711
24965SOL    HW176829   8.466   2.695   4.805
24965SOL    HW276830   8.494   2.582   4.691
24966SOL     OW76831   8.448   3.462   5.497
24966SOL    HW176832   8.499   3.517   5.431
24966SOL    HW276833   8.470   3.365   5.483
24967SOL     OW76834   9.294   3.368   5.316
24967SOL    HW176835   9.315   3.393   5.222
24967SOL    HW276836   9.376   3.382   5.373
24968SOL     OW76837   7.753   2.702   5.493
24968SOL    HW176838   7.742   2.649   5.577
24968SOL    HW276839   7.849   2.701   5.466
24969SOL     OW76840   8.946   2.075   3.852
24969SOL    HW176841   8.905   1.984   3.854
24969SOL    HW276842   8.997   2.091   3.936
24970SOL     OW76843   8.690   2.690   3.702
24970SOL    HW176844   8.611   2.636   3.674
24970SOL    HW276845   8.742   2.719   3.622
24971SOL     OW76846   8.502   3.238   4.515
24971SOL    HW176847   8.539   3.153   4.478
24971SOL    HW276848   8.570   3.311   4.508
24972SOL     OW76849   7.748   2.676   4.592
24972SOL    HW176850   7.823   2.662   4.528
24972SOL    HW276851   7.743   2.598   4.655
24973SOL     OW76852   7.748   2.427   4.744
24973SOL    HW176853   7.702   2.338   4.738
24973SOL    HW276854   7.832   2.425   4.691
24974SOL     OW76855   8.561   2.207   5.427
24974SOL    HW176856   8.524   2.240   5.514
24974SOL    HW276857   8.642   2.262   5.402
24975SOL     OW76858   8.592   2.078   5.188
24975SOL    HW176859   8.566   2.122   5.274
24975SOL    HW276860   8.635   2.146   5.128
24976SOL     OW76861   7.482   3.152   3.900
24976SOL    HW176862   7.399   3.166   3.847
24976SOL    HW276863   7.484   3.058   3.935
24977SOL     OW76864   7.525   3.644   4.693
24977SOL    HW176865   7.477   3.571   4.644
24977SOL    HW276866   7.618   3.652   4.657
24978SOL     OW76867   7.902   3.404   4.661
24978SOL    HW176868   7.973   3.468   4.691
24978SOL    HW276869   7.939   3.345   4.589
24979SOL     OW76870   8.388   2.696   4.955
24979SOL    HW176871   8.400   2.655   5.046
24979SOL    HW276872   8.291   2.716   4.941
24980SOL     OW76873   7.528   2.545   4.863
24980SOL    HW176874   7.604   2.507   4.809
24980SOL    HW276875   7.530   2.507   4.955
24981SOL     OW76876   7.631   2.385   5.427
24981SOL    HW176877   7.676   2.333   5.355
24981SOL    HW276878   7.592   2.469   5.389
24982SOL     OW76879   8.841   2.832   5.388
24982SOL    HW176880   8.890   2.918   5.396
24982SOL    HW276881   8.817   2.815   5.292
24983SOL     OW76882   8.261   2.413   4.072
24983SOL    HW176883   8.258   2.356   3.990
24983SOL    HW276884   8.180   2.473   4.074
24984SOL     OW76885   9.096   2.527   4.877
24984SOL    HW176886   9.093   2.437   4.921
24984SOL    HW276887   9.191   2.551   4.855
24985SOL     OW76888   7.708   3.388   5.439
24985SOL    HW176889   7.665   3.464   5.488
24985SOL    HW276890   7.710   3.307   5.498
24986SOL     OW76891   8.110   2.322   4.939
24986SOL    HW176892   8.063   2.242   4.903
24986SOL    HW276893   8.133   2.384   4.865
24987SOL     OW76894   7.883   2.359   3.938
24987SOL    HW176895   7.949   2.430   3.964
24987SOL    HW276896   7.797   2.401   3.912
24988SOL     OW76897   8.677   2.995   4.915
24988SOL    HW176898   8.709   2.924   4.852
24988SOL    HW276899   8.635   3.069   4.863
24989SOL     OW76900   8.773   2.747   3.955
24989SOL    HW176901   8.694   2.748   4.017
24989SOL    HW276902   8.745   2.716   3.865
24990SOL     OW76903   9.145   3.581   4.887
24990SOL    HW176904   9.233   3.629   4.880
24990SOL    HW276905   9.155   3.488   4.853
24991SOL     OW76906   8.705   3.601   4.780
24991SOL    HW176907   8.784   3.661   4.781
24991SOL    HW276908   8.731   3.510   4.812
24992SOL     OW76909   7.615   3.038   4.796
24992SOL    HW176910   7.631   2.957   4.851
24992SOL    HW276911   7.527   3.030   4.750
24993SOL     OW76912   8.182   3.514   5.521
24993SOL    HW176913   8.156   3.599   5.475
24993SOL    HW276914   8.281   3.501   5.511
24994SOL     OW76915   9.254   2.032   4.236
24994SOL    HW176916   9.316   2.017   4.159
24994SOL    HW276917   9.227   1.943   4.275
24995SOL     OW76918   8.857   3.442   4.235
24995SOL    HW176919   8.906   3.468   4.152
24995SOL    HW276920   8.797   3.518   4.263
24996SOL     OW76921   7.592   3.613   5.547
24996SOL    HW176922   7.539   3.545   5.598
24996SOL    HW276923   7.635   3.677   5.611
24997SOL     OW76924   8.740   2.777   4.368
24997SOL    HW176925   8.815   2.715   4.391
24997SOL    HW276926   8.777   2.861   4.329
24998SOL     OW76927   8.130   3.515   3.904
24998SOL    HW176928   8.145   3.543   3.810
24998SOL    HW276929   8.078   3.430   3.906
24999SOL     OW76930   9.039   3.555   5.147
24999SOL    HW176931   9.070   3.556   5.052
24999SOL    HW276932   9.076   3.634   5.195
25000SOL     OW76933   9.255   2.035   4.743
25000SOL    HW176934   9.288   1.950   4.701
25000SOL    HW276935   9.176   2.068   4.692
25001SOL     OW76936   7.685   2.224   4.463
25001SOL    HW176937   7.599   2.258   4.423
25001SOL    HW276938   7.670   2.204   4.560
25002SOL     OW76939   8.673   3.446   3.782
25002SOL    HW176940   8.670   3.356   3.825
25002SOL    HW276941   8.593   3.459   3.724
25003SOL     OW76942   8.138   2.912   5.138
25003SOL    HW176943   8.114   2.900   5.041
25003SOL    HW276944   8.158   3.008   5.155
25004SOL     OW76945   8.438   2.822   4.055
25004SOL    HW176946   8.460   2.844   3.960
25004SOL    HW276947   8.457   2.725   4.073
25005SOL     OW76948   8.947   3.489   3.746
25005SOL    HW176949   8.847   3.482   3.747
25005SOL    HW276950   8.976   3.532   3.660
25006SOL     OW76951   9.038   3.138   5.012
25006SOL    HW176952   9.103   3.124   5.087
25006SOL    HW276953   8.970   3.206   5.039
25007SOL     OW76954   8.554   2.975   4.461
25007SOL    HW176955   8.469   2.934   4.493
25007SOL    HW276956   8.613   2.903   4.425
25008SOL     OW76957   8.057   3.369   4.229
25008SOL    HW176958   8.106   3.315   4.160
25008SOL    HW276959   7.959   3.365   4.212
25009SOL     OW76960   9.279   2.225   5.167
25009SOL    HW176961   9.320   2.307   5.127
25009SOL    HW276962   9.278   2.151   5.099
25010SOL     OW76963   7.741   3.226   4.004
25010SOL    HW176964   7.646   3.213   3.977
25010SOL    HW276965   7.744   3.282   4.087
25011SOL     OW76966   7.592   2.925   5.535
25011SOL    HW176967   7.502   2.896   5.566
25011SOL    HW276968   7.651   2.844   5.523
25012SOL     OW76969   8.141   2.031   5.114
25012SOL    HW176970   8.233   2.013   5.079
25012SOL    HW276971   8.147   2.078   5.202
25013SOL     OW76972   7.574   2.205   3.694
25013SOL    HW176973   7.480   2.200   3.660
25013SOL    HW276974   7.624   2.274   3.642
25014SOL     OW76975   8.802   2.777   5.120
25014SOL    HW176976   8.745   2.841   5.068
25014SOL    HW276977   8.893   2.773   5.079
25015SOL     OW76978   7.511   2.053   3.949
25015SOL    HW176979   7.517   2.117   3.872
25015SOL    HW276980   7.591   1.992   3.948
25016SOL     OW76981   8.638   3.195   3.895
25016SOL    HW176982   8.542   3.172   3.881
25016SOL    HW276983   8.658   3.195   3.993
25017SOL     OW76984   8.941   3.744   4.788
25017SOL    HW176985   8.978   3.791   4.708
25017SOL    HW276986   9.011   3.684   4.826
25018SOL     OW76987   8.999   3.048   5.409
25018SOL    HW176988   9.014   3.100   5.493
25018SOL    HW276989   9.069   3.072   5.341
25019SOL     OW76990   7.871   3.598   5.347
25019SOL    HW176991   7.791   3.649   5.316
25019SOL    HW276992   7.842   3.509   5.383
25020SOL     OW76993   9.048   2.769   4.996
25020SOL    HW176994   9.062   2.679   4.954
25020SOL    HW276995   9.052   2.840   4.926
25021SOL     OW76996   8.617   2.103   4.274
25021SOL    HW176997   8.684   2.055   4.217
25021SOL    HW276998   8.663   2.179   4.321
25022SOL     OW76999   7.949   2.636   4.414
25022SOL    HW177000   8.027   2.696   4.396
25022SOL    HW277001   7.902   2.616   4.328
25023SOL     OW77002   9.179   2.244   5.418
25023SOL    HW177003   9.216   2.241   5.324
25023SOL    HW277004   9.092   2.194   5.421
25024SOL     OW77005   9.201   2.806   5.223
25024SOL    HW177006   9.200   2.904   5.243
25024SOL    HW277007   9.152   2.788   5.138
25025SOL     OW77008   8.330   3.210   3.824
25025SOL    HW177009   8.287   3.229   3.912
25025SOL    HW277010   8.349   3.296   3.777
25026SOL     OW77011   8.084   3.596   4.711
25026SOL    HW177012   8.057   3.692   4.703
25026SOL    HW277013   8.179   3.586   4.680
25027SOL     OW77014   8.331   2.850   4.578
25027SOL    HW177015   8.393   2.787   4.624
25027SOL    HW277016   8.273   2.895   4.645
25028SOL     OW77017   8.500   2.863   3.798
25028SOL    HW177018   8.465   2.925   3.728
25028SOL    HW277019   8.584   2.820   3.766
25029SOL     OW77020   9.285   3.449   4.563
25029SOL    HW177021   9.204   3.441   4.505
25029SOL    HW277022   9.269   3.404   4.650
25030SOL     OW77023   7.713   3.159   5.585
25030SOL    HW177024   7.660   3.076   5.567
25030SOL    HW277025   7.710   3.180   5.683
25031SOL     OW77026   7.647   3.118   4.378
25031SOL    HW177027   7.675   3.066   4.459
25031SOL    HW277028   7.690   3.080   4.297
25032SOL     OW77029   8.100   3.295   5.361
25032SOL    HW177030   8.024   3.237   5.391
25032SOL    HW277031   8.112   3.370   5.426
25033SOL     OW77032   9.287   1.997   5.011
25033SOL    HW177033   9.366   1.936   5.014
25033SOL    HW277034   9.261   2.015   4.916
25034SOL     OW77035   7.859   2.332   4.278
25034SOL    HW177036   7.914   2.264   4.229
25034SOL    HW277037   7.804   2.287   4.348
25035SOL     OW77038   9.191   3.330   4.790
25035SOL    HW177039   9.107   3.294   4.750
25035SOL    HW277040   9.233   3.260   4.849
25036SOL     OW77041   7.814   2.443   5.018
25036SOL    HW177042   7.857   2.366   5.064
25036SOL    HW277043   7.812   2.426   4.919
25037SOL     OW77044   8.259   3.494   4.372
25037SOL    HW177045   8.267   3.586   4.333
25037SOL    HW277046   8.184   3.445   4.327
25038SOL     OW77047   8.824   2.155   4.822
25038SOL    HW177048   8.833   2.055   4.827
25038SOL    HW277049   8.785   2.190   4.906
25039SOL     OW77050   8.234   3.209   4.086
25039SOL    HW177051   8.221   3.111   4.101
25039SOL    HW277052   8.317   3.240   4.132
25040SOL     OW77053   8.852   1.821   3.904
25040SOL    HW177054   8.912   1.743   3.886
25040SOL    HW277055   8.758   1.788   3.913
25041SOL     OW77056   8.721   2.325   4.398
25041SOL    HW177057   8.673   2.406   4.364
25041SOL    HW277058   8.730   2.330   4.497
25042SOL     OW77059   9.025   2.134   4.632
25042SOL    HW177060   8.954   2.157   4.699
25042SOL    HW277061   9.023   2.200   4.557
25043SOL     OW77062   7.517   2.892   4.009
25043SOL    HW177063   7.614   2.869   3.999
25043SOL    HW277064   7.463   2.808   4.013
25044SOL     OW77065   8.363   3.570   4.056
25044SOL    HW177066   8.285   3.543   3.999
25044SOL    HW277067   8.332   3.635   4.125
25045SOL     OW77068   7.674   2.477   5.681
25045SOL    HW177069   7.589   2.470   5.732
25045SOL    HW277070   7.660   2.443   5.588
25046SOL     OW77071   7.663   2.163   6.578
25046SOL    HW177072   7.713   2.133   6.660
25046SOL    HW277073   7.574   2.119   6.575
25047SOL     OW77074   7.454   2.278   6.226
25047SOL    HW177075   7.370   2.291   6.279
25047SOL    HW277076   7.436   2.218   6.149
25048SOL     OW77077   7.994   3.151   6.823
25048SOL    HW177078   7.914   3.169   6.767
25048SOL    HW277079   8.022   3.235   6.870
25049SOL     OW77080   9.042   3.320   6.271
25049SOL    HW177081   9.005   3.307   6.364
25049SOL    HW277082   8.974   3.366   6.214
25050SOL     OW77083   8.561   2.604   6.281
25050SOL    HW177084   8.623   2.679   6.257
25050SOL    HW277085   8.524   2.620   6.372
25051SOL     OW77086   9.243   2.413   5.776
25051SOL    HW177087   9.191   2.443   5.696
25051SOL    HW277088   9.185   2.357   5.835
25052SOL     OW77089   8.166   3.005   6.653
25052SOL    HW177090   8.102   3.034   6.725
25052SOL    HW277091   8.208   3.086   6.611
25053SOL     OW77092   8.126   2.837   6.252
25053SOL    HW177093   8.199   2.848   6.319
25053SOL    HW277094   8.058   2.909   6.264
25054SOL     OW77095   7.781   3.252   6.670
25054SOL    HW177096   7.700   3.203   6.637
25054SOL    HW277097   7.826   3.297   6.593
25055SOL     OW77098   8.883   3.401   6.960
25055SOL    HW177099   8.959   3.464   6.979
25055SOL    HW277100   8.806   3.423   7.019
25056SOL     OW77101   7.911   2.210   7.022
25056SOL    HW177102   7.996   2.230   6.972
25056SOL    HW277103   7.934   2.165   7.109
25057SOL     OW77104   9.046   2.314   6.305
25057SOL    HW177105   9.017   2.358   6.221
25057SOL    HW277106   8.998   2.354   6.383
25058SOL     OW77107   7.696   3.617   6.055
25058SOL    HW177108   7.720   3.678   6.130
25058SOL    HW277109   7.765   3.625   5.983
25059SOL     OW77110   8.592   3.241   7.256
25059SOL    HW177111   8.568   3.184   7.335
25059SOL    HW277112   8.617   3.184   7.179
25060SOL     OW77113   7.684   3.346   6.079
25060SOL    HW177114   7.685   3.446   6.089
25060SOL    HW277115   7.650   3.305   6.163
25061SOL     OW77116   7.739   2.989   6.455
25061SOL    HW177117   7.758   2.894   6.480
25061SOL    HW277118   7.674   3.028   6.520
25062SOL     OW77119   8.059   3.600   7.124
25062SOL    HW177120   7.964   3.615   7.152
25062SOL    HW277121   8.096   3.682   7.081
25063SOL     OW77122   7.967   2.852   5.786
25063SOL    HW177123   8.004   2.888   5.701
25063SOL    HW277124   8.032   2.868   5.860
25064SOL     OW77125   9.130   1.912   7.099
25064SOL    HW177126   9.140   1.973   7.020
25064SOL    HW277127   9.066   1.953   7.165
25065SOL     OW77128   7.543   2.543   6.209
25065SOL    HW177129   7.519   2.447   6.220
25065SOL    HW277130   7.537   2.589   6.298
25066SOL     OW77131   7.488   3.413   5.692
25066SOL    HW177132   7.463   3.317   5.707
25066SOL    HW277133   7.483   3.462   5.779
25067SOL     OW77134   9.102   2.686   6.228
25067SOL    HW177135   9.192   2.680   6.273
25067SOL    HW277136   9.100   2.766   6.168
25068SOL     OW77137   9.106   2.929   6.085
25068SOL    HW177138   9.161   2.918   6.002
25068SOL    HW277139   9.153   2.989   6.149
25069SOL     OW77140   7.424   2.616   7.171
25069SOL    HW177141   7.490   2.621   7.096
25069SOL    HW277142   7.365   2.697   7.169
25070SOL     OW77143   8.082   3.246   6.309
25070SOL    HW177144   8.030   3.160   6.312
25070SOL    HW277145   8.096   3.272   6.214
25071SOL     OW77146   8.680   3.094   7.039
25071SOL    HW177147   8.693   3.046   6.952
25071SOL    HW277148   8.763   3.084   7.094
25072SOL     OW77149   8.259   1.873   6.103
25072SOL    HW177150   8.321   1.951   6.094
25072SOL    HW277151   8.165   1.905   6.108
25073SOL     OW77152   7.603   2.731   6.927
25073SOL    HW177153   7.700   2.734   6.903
25073SOL    HW277154   7.551   2.686   6.854
25074SOL     OW77155   8.776   3.726   7.191
25074SOL    HW177156   8.720   3.790   7.138
25074SOL    HW277157   8.746   3.633   7.173
25075SOL     OW77158   7.792   2.168   7.469
25075SOL    HW177159   7.834   2.244   7.520
25075SOL    HW277160   7.696   2.190   7.450
25076SOL     OW77161   8.931   3.284   6.517
25076SOL    HW177162   8.872   3.328   6.585
25076SOL    HW277163   8.898   3.191   6.499
25077SOL     OW77164   9.224   3.453   6.125
25077SOL    HW177165   9.179   3.501   6.049
25077SOL    HW277166   9.157   3.397   6.173
25078SOL     OW77167   8.063   2.547   5.903
25078SOL    HW177168   8.141   2.602   5.874
25078SOL    HW277169   7.998   2.604   5.953
25079SOL     OW77170   8.685   2.233   6.504
25079SOL    HW177171   8.612   2.167   6.484
25079SOL    HW277172   8.753   2.191   6.564
25080SOL     OW77173   9.068   3.573   5.918
25080SOL    HW177174   9.075   3.671   5.940
25080SOL    HW277175   9.019   3.562   5.832
25081SOL     OW77176   8.346   2.295   6.999
25081SOL    HW177177   8.333   2.304   7.098
25081SOL    HW277178   8.257   2.282   6.955
25082SOL     OW77179   8.564   2.761   7.110
25082SOL    HW177180   8.633   2.758   7.037
25082SOL    HW277181   8.474   2.745   7.071
25083SOL     OW77182   8.422   2.226   6.740
25083SOL    HW177183   8.401   2.250   6.835
25083SOL    HW277184   8.378   2.140   6.716
25084SOL     OW77185   8.461   2.542   6.037
25084SOL    HW177186   8.484   2.560   6.133
25084SOL    HW277187   8.392   2.469   6.033
25085SOL     OW77188   7.523   2.693   6.443
25085SOL    HW177189   7.619   2.708   6.467
25085SOL    HW277190   7.470   2.774   6.469
25086SOL     OW77191   7.561   3.751   7.213
25086SOL    HW177192   7.562   3.703   7.301
25086SOL    HW277193   7.466   3.761   7.182
25087SOL     OW77194   8.295   2.175   5.823
25087SOL    HW177195   8.356   2.218   5.757
25087SOL    HW277196   8.236   2.109   5.776
25088SOL     OW77197   9.054   2.455   7.388
25088SOL    HW177198   9.036   2.526   7.319
25088SOL    HW277199   9.087   2.372   7.342
25089SOL     OW77200   8.862   3.037   6.179
25089SOL    HW177201   8.946   3.005   6.134
25089SOL    HW277202   8.821   3.110   6.125
25090SOL     OW77203   8.024   1.923   6.517
25090SOL    HW177204   8.032   1.960   6.609
25090SOL    HW277205   8.054   1.991   6.450
25091SOL     OW77206   8.481   3.357   6.095
25091SOL    HW177207   8.439   3.418   6.028
25091SOL    HW277208   8.433   3.363   6.182
25092SOL     OW77209   7.793   3.638   6.484
25092SOL    HW177210   7.829   3.545   6.481
25092SOL    HW277211   7.862   3.699   6.524
25093SOL     OW77212   9.245   2.935   6.474
25093SOL    HW177213   9.228   2.993   6.393
25093SOL    HW277214   9.174   2.953   6.542
25094SOL     OW77215   8.667   3.470   7.114
25094SOL    HW177216   8.651   3.387   7.167
25094SOL    HW277217   8.584   3.496   7.065
25095SOL     OW77218   7.741   2.789   5.927
25095SOL    HW177219   7.815   2.807   5.862
25095SOL    HW277220   7.759   2.704   5.976
25096SOL     OW77221   8.894   2.664   6.403
25096SOL    HW177222   8.893   2.572   6.442
25096SOL    HW277223   8.975   2.674   6.344
25097SOL     OW77224   7.927   3.095   7.371
25097SOL    HW177225   7.907   3.096   7.273
25097SOL    HW277226   7.843   3.107   7.423
25098SOL     OW77227   8.601   3.610   5.901
25098SOL    HW177228   8.503   3.600   5.916
25098SOL    HW277229   8.629   3.554   5.824
25099SOL     OW77230   9.040   3.228   5.618
25099SOL    HW177231   9.052   3.304   5.554
25099SOL    HW277232   8.965   3.248   5.681
25100SOL     OW77233   7.904   3.671   5.881
25100SOL    HW177234   7.946   3.722   5.956
25100SOL    HW277235   7.973   3.614   5.837
25101SOL     OW77236   8.837   1.955   6.066
25101SOL    HW177237   8.822   1.946   5.968
25101SOL    HW277238   8.934   1.946   6.086
25102SOL     OW77239   7.655   3.686   6.806
25102SOL    HW177240   7.710   3.606   6.832
25102SOL    HW277241   7.611   3.669   6.718
25103SOL     OW77242   8.390   3.582   6.462
25103SOL    HW177243   8.479   3.538   6.460
25103SOL    HW277244   8.331   3.543   6.391
25104SOL     OW77245   7.793   2.565   6.089
25104SOL    HW177246   7.822   2.469   6.081
25104SOL    HW277247   7.702   2.569   6.130
25105SOL     OW77248   8.959   2.020   7.286
25105SOL    HW177249   8.962   2.053   7.380
25105SOL    HW277250   8.879   1.962   7.273
25106SOL     OW77251   8.120   1.976   5.728
25106SOL    HW177252   8.164   1.890   5.754
25106SOL    HW277253   8.082   1.967   5.635
25107SOL     OW77254   8.320   2.065   7.340
25107SOL    HW177255   8.414   2.043   7.364
25107SOL    HW277256   8.258   2.033   7.412
25108SOL     OW77257   8.289   3.358   6.803
25108SOL    HW177258   8.268   3.333   6.709
25108SOL    HW277259   8.337   3.283   6.848
25109SOL     OW77260   8.256   3.236   6.537
25109SOL    HW177261   8.348   3.241   6.497
25109SOL    HW277262   8.188   3.242   6.464
25110SOL     OW77263   8.378   2.395   6.500
25110SOL    HW177264   8.360   2.354   6.410
25110SOL    HW277265   8.420   2.326   6.559
25111SOL     OW77266   7.998   1.950   6.093
25111SOL    HW177267   7.917   1.940   6.150
25111SOL    HW277268   7.986   2.028   6.031
25112SOL     OW77269   7.754   1.886   5.740
25112SOL    HW177270   7.797   1.960   5.687
25112SOL    HW277271   7.823   1.845   5.801
25113SOL     OW77272   8.415   2.088   6.053
25113SOL    HW177273   8.369   2.118   5.969
25113SOL    HW277274   8.511   2.116   6.050
25114SOL     OW77275   8.614   2.449   6.981
25114SOL    HW177276   8.549   2.410   7.045
25114SOL    HW277277   8.700   2.468   7.028
25115SOL     OW77278   8.636   3.482   6.392
25115SOL    HW177279   8.655   3.523   6.303
25115SOL    HW277280   8.688   3.530   6.463
25116SOL     OW77281   7.931   3.024   6.272
25116SOL    HW177282   7.866   3.013   6.347
25116SOL    HW277283   7.881   3.029   6.186
25117SOL     OW77284   8.677   3.639   6.163
25117SOL    HW177285   8.649   3.631   6.068
25117SOL    HW277286   8.622   3.709   6.209
25118SOL     OW77287   8.472   2.308   5.663
25118SOL    HW177288   8.445   2.392   5.616
25118SOL    HW277289   8.551   2.327   5.723
25119SOL     OW77290   8.031   2.018   6.769
25119SOL    HW177291   8.047   1.949   6.840
25119SOL    HW277292   7.935   2.048   6.773
25120SOL     OW77293   8.328   2.280   6.257
25120SOL    HW177294   8.282   2.325   6.180
25120SOL    HW277295   8.375   2.198   6.225
25121SOL     OW77296   8.850   3.032   6.461
25121SOL    HW177297   8.792   2.956   6.490
25121SOL    HW277298   8.856   3.033   6.361
25122SOL     OW77299   8.895   2.415   6.507
25122SOL    HW177300   8.810   2.361   6.510
25122SOL    HW277301   8.936   2.418   6.598
25123SOL     OW77302   9.268   2.631   5.951
25123SOL    HW177303   9.327   2.601   6.026
25123SOL    HW277304   9.250   2.553   5.890
25124SOL     OW77305   7.958   3.303   5.833
25124SOL    HW177306   7.863   3.270   5.835
25124SOL    HW277307   8.011   3.245   5.771
25125SOL     OW77308   9.218   3.103   6.258
25125SOL    HW177309   9.311   3.128   6.231
25125SOL    HW277310   9.161   3.185   6.262
25126SOL     OW77311   8.822   2.471   5.619
25126SOL    HW177312   8.784   2.415   5.693
25126SOL    HW277313   8.922   2.464   5.620
25127SOL     OW77314   7.965   2.136   5.895
25127SOL    HW177315   8.022   2.078   5.837
25127SOL    HW277316   7.941   2.219   5.845
25128SOL     OW77317   9.154   3.106   7.109
25128SOL    HW177318   9.233   3.049   7.088
25128SOL    HW277319   9.184   3.193   7.149
25129SOL     OW77320   8.428   3.158   6.923
25129SOL    HW177321   8.349   3.125   6.974
25129SOL    HW277322   8.512   3.135   6.973
25130SOL     OW77323   9.082   3.473   7.281
25130SOL    HW177324   9.052   3.518   7.197
25130SOL    HW277325   9.164   3.418   7.263
25131SOL     OW77326   8.583   3.194   6.697
25131SOL    HW177327   8.511   3.184   6.766
25131SOL    HW277328   8.542   3.205   6.607
25132SOL     OW77329   9.055   3.015   6.652
25132SOL    HW177330   9.037   3.067   6.735
25132SOL    HW277331   8.975   3.017   6.593
25133SOL     OW77332   8.430   1.923   6.927
25133SOL    HW177333   8.450   1.906   6.831
25133SOL    HW277334   8.503   1.977   6.968
25134SOL     OW77335   8.156   2.876   5.982
25134SOL    HW177336   8.146   2.859   6.080
25134SOL    HW277337   8.216   2.807   5.942
25135SOL     OW77338   7.885   2.705   6.863
25135SOL    HW177339   7.919   2.756   6.942
25135SOL    HW277340   7.868   2.610   6.890
25136SOL     OW77341   8.678   2.229   6.832
25136SOL    HW177342   8.676   2.316   6.881
25136SOL    HW277343   8.597   2.221   6.775
25137SOL     OW77344   7.536   3.402   6.949
25137SOL    HW177345   7.476   3.455   6.889
25137SOL    HW277346   7.631   3.426   6.931
25138SOL     OW77347   7.763   3.027   6.055
25138SOL    HW177348   7.750   3.095   5.983
25138SOL    HW277349   7.754   2.935   6.017
25139SOL     OW77350   7.940   2.471   6.539
25139SOL    HW177351   7.952   2.516   6.450
25139SOL    HW277352   8.029   2.463   6.584
25140SOL     OW77353   8.732   3.253   6.038
25140SOL    HW177354   8.793   3.329   6.058
25140SOL    HW277355   8.638   3.277   6.065
25141SOL     OW77356   8.774   3.384   6.715
25141SOL    HW177357   8.814   3.389   6.806
25141SOL    HW277358   8.702   3.315   6.714
25142SOL     OW77359   8.979   2.466   6.088
25142SOL    HW177360   8.888   2.495   6.058
25142SOL    HW277361   9.028   2.546   6.124
25143SOL     OW77362   7.790   3.449   6.856
25143SOL    HW177363   7.780   3.378   6.786
25143SOL    HW277364   7.884   3.447   6.892
25144SOL     OW77365   7.834   2.538   7.199
25144SOL    HW177366   7.932   2.525   7.216
25144SOL    HW277367   7.813   2.512   7.105
25145SOL     OW77368   8.979   2.663   7.213
25145SOL    HW177369   8.897   2.712   7.245
25145SOL    HW277370   9.024   2.716   7.141
25146SOL     OW77371   8.588   2.035   7.396
25146SOL    HW177372   8.611   2.122   7.354
25146SOL    HW277373   8.634   1.960   7.348
25147SOL     OW77374   7.949   1.981   7.343
25147SOL    HW177375   7.900   1.914   7.287
25147SOL    HW277376   7.884   2.050   7.374
25148SOL     OW77377   8.109   2.730   6.692
25148SOL    HW177378   8.134   2.825   6.679
25148SOL    HW277379   8.025   2.725   6.747
25149SOL     OW77380   8.716   2.803   6.562
25149SOL    HW177381   8.630   2.753   6.554
25149SOL    HW277382   8.789   2.750   6.520
25150SOL     OW77383   8.691   2.345   5.828
25150SOL    HW177384   8.683   2.267   5.889
25150SOL    HW277385   8.712   2.428   5.881
25151SOL     OW77386   7.773   2.083   6.813
25151SOL    HW177387   7.797   2.124   6.900
25151SOL    HW277388   7.723   1.997   6.829
25152SOL     OW77389   7.508   3.146   6.864
25152SOL    HW177390   7.539   3.082   6.934
25152SOL    HW277391   7.515   3.240   6.898
25153SOL     OW77392   8.181   2.467   6.674
25153SOL    HW177393   8.248   2.447   6.603
25153SOL    HW277394   8.167   2.566   6.680
25154SOL     OW77395   9.136   2.804   7.411
25154SOL    HW177396   9.087   2.744   7.348
25154SOL    HW277397   9.079   2.822   7.491
25155SOL     OW77398   7.766   1.914   6.236
25155SOL    HW177399   7.735   2.007   6.257
25155SOL    HW277400   7.772   1.861   6.320
25156SOL     OW77401   9.064   2.266   5.917
25156SOL    HW177402   9.121   2.201   5.968
25156SOL    HW277403   9.027   2.334   5.980
25157SOL     OW77404   8.466   2.648   6.541
25157SOL    HW177405   8.469   2.652   6.641
25157SOL    HW277406   8.433   2.558   6.512
25158SOL     OW77407   8.385   3.421   7.257
25158SOL    HW177408   8.381   3.461   7.165
25158SOL    HW277409   8.453   3.348   7.258
25159SOL     OW77410   9.300   3.331   7.184
25159SOL    HW177411   9.326   3.366   7.094
25159SOL    HW277412   9.379   3.333   7.245
25160SOL     OW77413   7.774   2.740   7.379
25160SOL    HW177414   7.817   2.713   7.466
25160SOL    HW277415   7.799   2.675   7.308
25161SOL     OW77416   8.937   2.133   5.700
25161SOL    HW177417   8.875   2.066   5.742
25161SOL    HW277418   8.981   2.187   5.772
25162SOL     OW77419   8.723   2.727   5.609
25162SOL    HW177420   8.754   2.632   5.611
25162SOL    HW277421   8.761   2.772   5.528
25163SOL     OW77422   8.507   3.238   6.434
25163SOL    HW177423   8.525   3.163   6.370
25163SOL    HW277424   8.563   3.317   6.410
25164SOL     OW77425   7.784   2.729   6.514
25164SOL    HW177426   7.844   2.694   6.442
25164SOL    HW277427   7.816   2.696   6.603
25165SOL     OW77428   7.721   2.411   6.678
25165SOL    HW177429   7.687   2.324   6.643
25165SOL    HW277430   7.802   2.439   6.627
25166SOL     OW77431   8.628   2.271   7.260
25166SOL    HW177432   8.569   2.321   7.324
25166SOL    HW277433   8.720   2.312   7.261
25167SOL     OW77434   8.623   2.076   7.051
25167SOL    HW177435   8.615   2.141   7.126
25167SOL    HW277436   8.656   2.124   6.969
25168SOL     OW77437   7.445   3.131   5.779
25168SOL    HW177438   7.357   3.160   5.743
25168SOL    HW277439   7.443   3.033   5.799
25169SOL     OW77440   7.530   3.636   6.561
25169SOL    HW177441   7.476   3.573   6.506
25169SOL    HW277442   7.623   3.640   6.524
25170SOL     OW77443   7.927   3.395   6.486
25170SOL    HW177444   7.999   3.452   6.525
25170SOL    HW277445   7.965   3.339   6.412
25171SOL     OW77446   8.447   2.569   6.803
25171SOL    HW177447   8.520   2.534   6.861
25171SOL    HW277448   8.387   2.493   6.777
25172SOL     OW77449   7.517   2.589   6.709
25172SOL    HW177450   7.588   2.519   6.703
25172SOL    HW277451   7.494   2.621   6.617
25173SOL     OW77452   7.603   2.484   7.338
25173SOL    HW177453   7.690   2.495   7.290
25173SOL    HW277454   7.531   2.534   7.289
25174SOL     OW77455   8.767   2.824   7.271
25174SOL    HW177456   8.810   2.911   7.250
25174SOL    HW277457   8.691   2.808   7.209
25175SOL     OW77458   8.246   2.372   6.009
25175SOL    HW177459   8.260   2.297   5.944
25175SOL    HW277460   8.169   2.428   5.980
25176SOL     OW77461   7.692   3.388   7.325
25176SOL    HW177462   7.654   3.461   7.380
25176SOL    HW277463   7.692   3.302   7.376
25177SOL     OW77464   8.121   2.265   6.853
25177SOL    HW177465   8.099   2.179   6.807
25177SOL    HW277466   8.134   2.337   6.785
25178SOL     OW77467   8.420   3.520   6.997
25178SOL    HW177468   8.374   3.467   6.926
25178SOL    HW277469   8.417   3.617   6.973
25179SOL     OW77470   7.916   2.370   5.758
25179SOL    HW177471   7.971   2.432   5.813
25179SOL    HW277472   7.825   2.408   5.745
25180SOL     OW77473   7.572   2.970   7.060
25180SOL    HW177474   7.576   2.953   7.159
25180SOL    HW277475   7.579   2.883   7.011
25181SOL     OW77476   8.711   2.970   6.779
25181SOL    HW177477   8.717   2.906   6.703
25181SOL    HW277478   8.673   3.057   6.746
25182SOL     OW77479   8.735   2.557   5.989
25182SOL    HW177480   8.639   2.550   6.013
25182SOL    HW277481   8.752   2.645   5.945
25183SOL     OW77482   9.195   3.602   6.743
25183SOL    HW177483   9.272   3.638   6.689
25183SOL    HW277484   9.176   3.508   6.716
25184SOL     OW77485   8.744   3.626   6.603
25184SOL    HW177486   8.830   3.677   6.608
25184SOL    HW277487   8.754   3.539   6.652
25185SOL     OW77488   7.549   3.093   6.607
25185SOL    HW177489   7.528   3.114   6.702
25185SOL    HW277490   7.476   3.036   6.568
25186SOL     OW77491   8.179   3.550   7.372
25186SOL    HW177492   8.124   3.573   7.292
25186SOL    HW277493   8.260   3.500   7.343
25187SOL     OW77494   9.237   2.086   6.032
25187SOL    HW177495   9.290   2.051   5.954
25187SOL    HW277496   9.187   2.010   6.073
25188SOL     OW77497   8.886   3.469   6.102
25188SOL    HW177498   8.946   3.510   6.034
25188SOL    HW277499   8.817   3.535   6.130
25189SOL     OW77500   7.586   3.612   7.444
25189SOL    HW177501   7.525   3.546   7.487
25189SOL    HW277502   7.640   3.658   7.514
25190SOL     OW77503   8.726   2.819   6.259
25190SOL    HW177504   8.790   2.760   6.308
25190SOL    HW277505   8.777   2.893   6.216
25191SOL     OW77506   8.209   3.090   7.063
25191SOL    HW177507   8.202   3.071   7.161
25191SOL    HW277508   8.118   3.087   7.022
25192SOL     OW77509   8.113   3.520   5.784
25192SOL    HW177510   8.136   3.519   5.686
25192SOL    HW277511   8.057   3.441   5.806
25193SOL     OW77512   9.087   3.574   7.002
25193SOL    HW177513   9.126   3.577   6.910
25193SOL    HW277514   9.117   3.655   7.054
25194SOL     OW77515   9.288   2.029   6.549
25194SOL    HW177516   9.323   1.953   6.495
25194SOL    HW277517   9.198   2.056   6.513
25195SOL     OW77518   7.696   2.171   6.302
25195SOL    HW177519   7.610   2.212   6.272
25195SOL    HW277520   7.702   2.176   6.402
25196SOL     OW77521   8.658   3.452   5.685
25196SOL    HW177522   8.637   3.364   5.725
25196SOL    HW277523   8.587   3.477   5.618
25197SOL     OW77524   8.303   2.684   5.863
25197SOL    HW177525   8.352   2.712   5.781
25197SOL    HW277526   8.365   2.633   5.923
25198SOL     OW77527   8.923   3.530   5.685
25198SOL    HW177528   8.830   3.497   5.673
25198SOL    HW277529   8.976   3.513   5.601
25199SOL     OW77530   7.831   3.105   7.116
25199SOL    HW177531   7.839   3.192   7.067
25199SOL    HW277532   7.745   3.060   7.091
25200SOL     OW77533   9.012   3.168   6.879
25200SOL    HW177534   9.069   3.146   6.957
25200SOL    HW277535   8.956   3.249   6.900
25201SOL     OW77536   8.513   2.993   6.285
25201SOL    HW177537   8.438   2.958   6.340
25201SOL    HW277538   8.590   2.929   6.288
25202SOL     OW77539   8.127   3.305   6.051
25202SOL    HW177540   8.195   3.241   6.014
25202SOL    HW277541   8.052   3.314   5.986
25203SOL     OW77542   9.251   2.209   7.004
25203SOL    HW177543   9.290   2.295   6.973
25203SOL    HW277544   9.239   2.148   6.926
25204SOL     OW77545   7.693   3.208   5.855
25204SOL    HW177546   7.600   3.179   5.831
25204SOL    HW277547   7.689   3.269   5.935
25205SOL     OW77548   7.579   2.920   7.323
25205SOL    HW177549   7.491   2.896   7.365
25205SOL    HW277550   7.647   2.851   7.349
25206SOL     OW77551   8.220   1.981   7.096
25206SOL    HW177552   8.296   1.964   7.033
25206SOL    HW277553   8.257   2.012   7.184
25207SOL     OW77554   7.534   2.171   5.567
25207SOL    HW177555   7.442   2.158   5.530
25207SOL    HW277556   7.572   2.257   5.532
25208SOL     OW77557   8.794   2.789   6.958
25208SOL    HW177558   8.765   2.854   6.888
25208SOL    HW277559   8.891   2.802   6.979
25209SOL     OW77560   7.522   2.009   5.799
25209SOL    HW177561   7.508   2.075   5.725
25209SOL    HW277562   7.612   1.966   5.789
25210SOL     OW77563   8.590   3.215   5.798
25210SOL    HW177564   8.507   3.169   5.831
25210SOL    HW277565   8.656   3.221   5.872
25211SOL     OW77566   8.984   3.755   6.625
25211SOL    HW177567   9.025   3.811   6.553
25211SOL    HW277568   9.054   3.697   6.666
25212SOL     OW77569   8.280   2.325   7.272
25212SOL    HW177570   8.344   2.368   7.336
25212SOL    HW277571   8.280   2.226   7.287
25213SOL     OW77572   8.895   3.062   7.210
25213SOL    HW177573   8.887   3.080   7.308
25213SOL    HW277574   8.987   3.086   7.179
25214SOL     OW77575   7.808   3.627   7.221
25214SOL    HW177576   7.723   3.675   7.201
25214SOL    HW277577   7.788   3.534   7.251
25215SOL     OW77578   8.672   2.176   6.045
25215SOL    HW177579   8.740   2.104   6.062
25215SOL    HW277580   8.675   2.243   6.119
25216SOL     OW77581   7.946   2.634   6.313
25216SOL    HW177582   8.019   2.698   6.289
25216SOL    HW277583   7.896   2.607   6.231
25217SOL     OW77584   9.136   2.229   7.254
25217SOL    HW177585   9.179   2.223   7.164
25217SOL    HW277586   9.066   2.158   7.262
25218SOL     OW77587   9.064   2.835   7.017
25218SOL    HW177588   9.075   2.926   7.055
25218SOL    HW277589   9.123   2.825   6.937
25219SOL     OW77590   8.190   3.215   5.701
25219SOL    HW177591   8.233   3.182   5.786
25219SOL    HW277592   8.248   3.286   5.661
25220SOL     OW77593   8.121   3.566   6.559
25220SOL    HW177594   8.083   3.658   6.563
25220SOL    HW277595   8.220   3.571   6.550
25221SOL     OW77596   8.320   2.873   6.449
25221SOL    HW177597   8.366   2.792   6.484
25221SOL    HW277598   8.267   2.916   6.523
25222SOL     OW77599   8.454   2.764   5.647
25222SOL    HW177600   8.421   2.842   5.594
25222SOL    HW277601   8.552   2.754   5.636
25223SOL     OW77602   9.274   3.503   6.409
25223SOL    HW177603   9.259   3.484   6.312
25223SOL    HW277604   9.232   3.430   6.464
25224SOL     OW77605   7.669   3.142   7.454
25224SOL    HW177606   7.641   3.068   7.392
25224SOL    HW277607   7.607   3.146   7.532
25225SOL     OW77608   7.605   3.140   6.254
25225SOL    HW177609   7.637   3.098   6.339
25225SOL    HW277610   7.653   3.098   6.176
25226SOL     OW77611   9.224   1.999   6.820
25226SOL    HW177612   9.221   1.899   6.821
25226SOL    HW277613   9.250   2.031   6.729
25227SOL     OW77614   7.844   2.299   6.096
25227SOL    HW177615   7.887   2.234   6.034
25227SOL    HW277616   7.801   2.250   6.172
25228SOL     OW77617   9.165   3.348   6.646
25228SOL    HW177618   9.080   3.318   6.604
25228SOL    HW277619   9.201   3.274   6.704
25229SOL     OW77620   7.812   2.451   6.935
25229SOL    HW177621   7.844   2.363   6.971
25229SOL    HW277622   7.769   2.436   6.846
25230SOL     OW77623   8.263   3.455   6.263
25230SOL    HW177624   8.237   3.471   6.168
25230SOL    HW277625   8.200   3.390   6.304
25231SOL     OW77626   8.861   2.113   6.668
25231SOL    HW177627   8.887   2.019   6.692
25231SOL    HW277628   8.812   2.155   6.744
25232SOL     OW77629   8.483   1.856   6.659
25232SOL    HW177630   8.430   1.786   6.611
25232SOL    HW277631   8.575   1.821   6.677
25233SOL     OW77632   8.285   3.112   5.933
25233SOL    HW177633   8.224   3.033   5.945
25233SOL    HW277634   8.374   3.091   5.973
25234SOL     OW77635   8.051   3.400   6.935
25234SOL    HW177636   8.060   3.463   7.013
25234SOL    HW277637   8.138   3.396   6.886
25235SOL     OW77638   8.791   1.920   5.803
25235SOL    HW177639   8.843   1.848   5.758
25235SOL    HW277640   8.693   1.900   5.795
25236SOL     OW77641   8.668   2.345   6.253
25236SOL    HW177642   8.633   2.439   6.259
25236SOL    HW277643   8.676   2.307   6.346
25237SOL     OW77644   9.038   2.085   6.462
25237SOL    HW177645   8.976   2.113   6.535
25237SOL    HW277646   9.042   2.156   6.392
25238SOL     OW77647   7.469   2.861   5.919
25238SOL    HW177648   7.568   2.849   5.911
25238SOL    HW277649   7.425   2.772   5.931
25239SOL     OW77650   8.337   3.552   5.951
25239SOL    HW177651   8.258   3.533   5.893
25239SOL    HW277652   8.318   3.634   6.006
25240SOL     OW77653   7.652   2.531   7.608
25240SOL    HW177654   7.573   2.487   7.651
25240SOL    HW277655   7.639   2.535   7.509
25241SOL     OW77656   7.647   2.142   8.456
25241SOL    HW177657   7.685   2.112   8.543
25241SOL    HW277658   7.562   2.093   8.438
25242SOL     OW77659   7.438   2.275   8.084
25242SOL    HW177660   7.354   2.290   8.136
25242SOL    HW277661   7.421   2.210   8.010
25243SOL     OW77662   8.023   3.162   8.671
25243SOL    HW177663   7.947   3.170   8.607
25243SOL    HW277664   8.044   3.252   8.710
25244SOL     OW77665   9.010   3.493   8.171
25244SOL    HW177666   8.972   3.439   8.246
25244SOL    HW277667   8.957   3.475   8.087
25245SOL     OW77668   8.580   2.602   8.108
25245SOL    HW177669   8.637   2.683   8.098
25245SOL    HW277670   8.530   2.606   8.194
25246SOL     OW77671   9.182   2.480   7.630
25246SOL    HW177672   9.139   2.485   7.540
25246SOL    HW277673   9.148   2.400   7.679
25247SOL     OW77674   8.174   2.982   8.513
25247SOL    HW177675   8.111   3.015   8.584
25247SOL    HW277676   8.216   3.060   8.468
25248SOL     OW77677   8.357   2.574   9.248
25248SOL    HW177678   8.381   2.638   9.321
25248SOL    HW277679   8.359   2.622   9.160
25249SOL     OW77680   8.126   2.835   8.107
25249SOL    HW177681   8.199   2.841   8.174
25249SOL    HW277682   8.057   2.905   8.126
25250SOL     OW77683   8.151   3.027   9.300
25250SOL    HW177684   8.208   3.101   9.336
25250SOL    HW277685   8.069   3.066   9.257
25251SOL     OW77686   7.809   3.244   8.509
25251SOL    HW177687   7.731   3.185   8.488
25251SOL    HW277688   7.829   3.302   8.431
25252SOL     OW77689   8.883   3.407   8.813
25252SOL    HW177690   8.940   3.488   8.830
25252SOL    HW277691   8.809   3.404   8.881
25253SOL     OW77692   7.936   2.210   8.890
25253SOL    HW177693   8.019   2.157   8.906
25253SOL    HW277694   7.857   2.162   8.930
25254SOL     OW77695   9.081   2.302   8.220
25254SOL    HW177696   9.065   2.331   8.125
25254SOL    HW277697   9.033   2.363   8.282
25255SOL     OW77698   7.675   3.572   7.932
25255SOL    HW177699   7.697   3.584   8.029
25255SOL    HW277700   7.757   3.586   7.877
25256SOL     OW77701   8.539   3.205   9.158
25256SOL    HW177702   8.586   3.200   9.246
25256SOL    HW277703   8.487   3.120   9.143
25257SOL     OW77704   7.570   3.331   8.006
25257SOL    HW177705   7.604   3.422   7.983
25257SOL    HW277706   7.516   3.335   8.090
25258SOL     OW77707   7.746   2.930   8.327
25258SOL    HW177708   7.755   2.833   8.346
25258SOL    HW277709   7.701   2.976   8.403
25259SOL     OW77710   8.037   3.613   8.985
25259SOL    HW177711   7.939   3.623   8.997
25259SOL    HW277712   8.073   3.691   8.934
25260SOL     OW77713   7.981   2.837   7.670
25260SOL    HW177714   7.981   2.897   7.590
25260SOL    HW277715   8.045   2.873   7.738
25261SOL     OW77716   9.098   1.979   8.942
25261SOL    HW177717   9.134   2.060   8.895
25261SOL    HW277718   9.046   2.008   9.022
25262SOL     OW77719   7.542   2.530   8.029
25262SOL    HW177720   7.513   2.437   8.051
25262SOL    HW277721   7.533   2.588   8.110
25263SOL     OW77722   9.298   3.599   7.793
25263SOL    HW177723   9.377   3.592   7.854
25263SOL    HW277724   9.300   3.687   7.746
25264SOL     OW77725   7.455   3.413   7.562
25264SOL    HW177726   7.388   3.338   7.562
25264SOL    HW277727   7.453   3.459   7.650
25265SOL     OW77728   9.161   2.749   8.084
25265SOL    HW177729   9.245   2.787   8.123
25265SOL    HW277730   9.176   2.729   7.988
25266SOL     OW77731   9.051   3.033   7.801
25266SOL    HW177732   9.142   2.994   7.815
25266SOL    HW277733   9.057   3.109   7.737
25267SOL     OW77734   7.537   2.652   8.951
25267SOL    HW177735   7.596   2.698   8.885
25267SOL    HW277736   7.450   2.701   8.958
25268SOL     OW77737   8.051   3.253   8.143
25268SOL    HW177738   8.008   3.163   8.155
25268SOL    HW277739   8.050   3.277   8.046
25269SOL     OW77740   8.697   3.064   8.873
25269SOL    HW177741   8.726   2.999   8.802
25269SOL    HW277742   8.769   3.072   8.942
25270SOL     OW77743   8.280   1.904   7.945
25270SOL    HW177744   8.322   1.988   7.910
25270SOL    HW277745   8.182   1.919   7.957
25271SOL     OW77746   7.667   2.802   8.762
25271SOL    HW177747   7.755   2.756   8.747
25271SOL    HW277748   7.625   2.823   8.674
25272SOL     OW77749   8.947   2.853   7.615
25272SOL    HW177750   8.872   2.794   7.644
25272SOL    HW277751   8.981   2.904   7.694
25273SOL     OW77752   8.723   3.765   9.059
25273SOL    HW177753   8.679   3.819   8.987
25273SOL    HW277754   8.724   3.669   9.032
25274SOL     OW77755   7.801   2.148   9.319
25274SOL    HW177756   7.842   2.222   9.373
25274SOL    HW277757   7.727   2.184   9.263
25275SOL     OW77758   8.889   3.328   8.349
25275SOL    HW177759   8.837   3.335   8.435
25275SOL    HW277760   8.892   3.233   8.319
25276SOL     OW77761   9.058   3.713   7.993
25276SOL    HW177762   9.054   3.650   7.915
25276SOL    HW277763   9.054   3.660   8.078
25277SOL     OW77764   8.016   2.575   7.764
25277SOL    HW177765   8.015   2.667   7.726
25277SOL    HW277766   7.946   2.567   7.835
25278SOL     OW77767   8.728   2.260   8.374
25278SOL    HW177768   8.637   2.219   8.365
25278SOL    HW277769   8.781   2.208   8.441
25279SOL     OW77770   9.038   3.534   7.783
25279SOL    HW177771   9.137   3.546   7.786
25279SOL    HW277772   9.008   3.520   7.689
25280SOL     OW77773   8.227   2.416   8.895
25280SOL    HW177774   8.194   2.388   8.985
25280SOL    HW277775   8.203   2.345   8.828
25281SOL     OW77776   8.810   2.381   9.106
25281SOL    HW177777   8.807   2.423   9.197
25281SOL    HW277778   8.905   2.361   9.081
25282SOL     OW77779   8.383   2.736   9.023
25282SOL    HW177780   8.435   2.670   8.970
25282SOL    HW277781   8.323   2.788   8.962
25283SOL     OW77782   8.449   2.218   8.629
25283SOL    HW177783   8.354   2.229   8.659
25283SOL    HW277784   8.451   2.185   8.535
25284SOL     OW77785   8.514   2.570   7.840
25284SOL    HW177786   8.539   2.577   7.937
25284SOL    HW277787   8.423   2.530   7.832
25285SOL     OW77788   7.516   2.700   8.246
25285SOL    HW177789   7.607   2.679   8.284
25285SOL    HW277790   7.476   2.776   8.296
25286SOL     OW77791   7.496   3.725   9.137
25286SOL    HW177792   7.542   3.699   9.222
25286SOL    HW277793   7.408   3.678   9.130
25287SOL     OW77794   8.287   2.245   7.632
25287SOL    HW177795   8.337   2.288   7.556
25287SOL    HW277796   8.228   2.173   7.596
25288SOL     OW77797   9.090   2.464   9.260
25288SOL    HW177798   9.086   2.559   9.229
25288SOL    HW277799   9.094   2.403   9.182
25289SOL     OW77800   8.856   3.047   7.992
25289SOL    HW177801   8.929   3.035   7.925
25289SOL    HW277802   8.787   3.110   7.956
25290SOL     OW77803   8.003   1.970   8.387
25290SOL    HW177804   8.005   1.996   8.483
25290SOL    HW277805   8.008   2.053   8.330
25291SOL     OW77806   8.435   3.327   7.923
25291SOL    HW177807   8.414   3.401   7.859
25291SOL    HW277808   8.393   3.347   8.011
25292SOL     OW77809   8.666   3.403   8.974
25292SOL    HW177810   8.643   3.322   9.027
25292SOL    HW277811   8.584   3.439   8.931
25293SOL     OW77812   7.722   2.777   7.731
25293SOL    HW177813   7.818   2.798   7.710
25293SOL    HW277814   7.699   2.686   7.698
25294SOL     OW77815   8.929   2.634   8.154
25294SOL    HW177816   8.931   2.581   8.239
25294SOL    HW277817   9.017   2.680   8.141
25295SOL     OW77818   7.916   3.148   9.194
25295SOL    HW177819   7.892   3.152   9.097
25295SOL    HW277820   7.832   3.137   9.249
25296SOL     OW77821   8.587   3.611   7.645
25296SOL    HW177822   8.501   3.585   7.688
25296SOL    HW277823   8.616   3.540   7.581
25297SOL     OW77824   7.699   2.091   8.971
25297SOL    HW177825   7.665   2.161   9.035
25297SOL    HW277826   7.652   2.004   8.989
25298SOL     OW77827   9.072   3.218   7.591
25298SOL    HW177828   9.062   3.316   7.575
25298SOL    HW277829   9.001   3.169   7.540
25299SOL     OW77830   7.912   3.634   7.800
25299SOL    HW177831   7.956   3.685   7.874
25299SOL    HW277832   7.981   3.590   7.744
25300SOL     OW77833   8.806   1.964   7.881
25300SOL    HW177834   8.797   1.961   7.782
25300SOL    HW277835   8.902   1.949   7.906
25301SOL     OW77836   7.763   3.647   8.764
25301SOL    HW177837   7.746   3.653   8.862
25301SOL    HW277838   7.781   3.552   8.739
25302SOL     OW77839   8.333   3.565   8.343
25302SOL    HW177840   8.409   3.527   8.397
25302SOL    HW277841   8.313   3.504   8.266
25303SOL     OW77842   7.813   2.536   7.946
25303SOL    HW177843   7.825   2.437   7.952
25303SOL    HW277844   7.717   2.559   7.961
25304SOL     OW77845   8.948   2.079   9.159
25304SOL    HW177846   8.963   2.090   9.257
25304SOL    HW277847   8.855   2.047   9.143
25305SOL     OW77848   8.129   2.021   7.544
25305SOL    HW177849   8.160   1.929   7.566
25305SOL    HW277850   8.061   2.017   7.471
25306SOL     OW77851   8.227   2.120   9.202
25306SOL    HW177852   8.314   2.071   9.200
25306SOL    HW277853   8.168   2.082   9.273
25307SOL     OW77854   8.313   3.357   8.666
25307SOL    HW177855   8.284   3.329   8.574
25307SOL    HW277856   8.369   3.286   8.707
25308SOL     OW77857   8.715   2.463   8.868
25308SOL    HW177858   8.744   2.435   8.959
25308SOL    HW277859   8.751   2.554   8.849
25309SOL     OW77860   8.256   3.229   8.410
25309SOL    HW177861   8.349   3.230   8.372
25309SOL    HW277862   8.190   3.247   8.337
25310SOL     OW77863   8.375   2.362   8.310
25310SOL    HW177864   8.350   2.359   8.214
25310SOL    HW277865   8.411   2.274   8.339
25311SOL     OW77866   8.012   1.957   7.952
25311SOL    HW177867   7.934   1.952   8.014
25311SOL    HW277868   7.999   2.034   7.889
25312SOL     OW77869   8.867   3.077   7.479
25312SOL    HW177870   8.890   2.987   7.517
25312SOL    HW277871   8.788   3.114   7.528
25313SOL     OW77872   7.730   1.933   7.596
25313SOL    HW177873   7.769   2.017   7.556
25313SOL    HW277874   7.800   1.888   7.652
25314SOL     OW77875   8.393   2.134   7.861
25314SOL    HW177876   8.359   2.175   7.777
25314SOL    HW277877   8.491   2.151   7.869
25315SOL     OW77878   8.457   2.551   8.837
25315SOL    HW177879   8.383   2.487   8.858
25315SOL    HW277880   8.544   2.504   8.844
25316SOL     OW77881   8.659   3.439   8.223
25316SOL    HW177882   8.664   3.512   8.155
25316SOL    HW277883   8.750   3.404   8.242
25317SOL     OW77884   7.922   3.013   8.139
25317SOL    HW177885   7.862   2.986   8.215
25317SOL    HW277886   7.871   3.006   8.053
25318SOL     OW77887   8.673   3.660   8.056
25318SOL    HW177888   8.721   3.731   8.003
25318SOL    HW277889   8.594   3.701   8.101
25319SOL     OW77890   8.470   2.407   7.455
25319SOL    HW177891   8.483   2.504   7.438
25319SOL    HW277892   8.524   2.380   7.535
25320SOL     OW77893   7.542   2.402   8.837
25320SOL    HW177894   7.639   2.391   8.815
25320SOL    HW277895   7.530   2.487   8.889
25321SOL     OW77896   8.003   2.030   8.649
25321SOL    HW177897   8.027   1.953   8.708
25321SOL    HW277898   7.909   2.058   8.666
25322SOL     OW77899   8.318   2.329   8.048
25322SOL    HW177900   8.286   2.395   7.980
25322SOL    HW277901   8.345   2.244   8.002
25323SOL     OW77902   8.449   1.916   8.162
25323SOL    HW177903   8.388   1.917   8.083
25323SOL    HW277904   8.418   1.847   8.227
25324SOL     OW77905   8.913   3.073   8.259
25324SOL    HW177906   8.866   3.000   8.308
25324SOL    HW277907   8.893   3.065   8.161
25325SOL     OW77908   8.911   2.471   8.382
25325SOL    HW177909   8.839   2.401   8.383
25325SOL    HW277910   8.968   2.461   8.463
25326SOL     OW77911   9.238   2.662   7.830
25326SOL    HW177912   9.299   2.604   7.885
25326SOL    HW277913   9.205   2.610   7.751
25327SOL     OW77914   7.907   3.315   7.656
25327SOL    HW177915   7.823   3.288   7.704
25327SOL    HW277916   7.909   3.272   7.566
25328SOL     OW77917   8.785   2.435   7.456
25328SOL    HW177918   8.758   2.398   7.545
25328SOL    HW277919   8.884   2.432   7.446
25329SOL     OW77920   7.967   2.138   7.753
25329SOL    HW177921   8.026   2.096   7.684
25329SOL    HW277922   7.932   2.225   7.718
25330SOL     OW77923   9.177   3.129   8.984
25330SOL    HW177924   9.264   3.083   8.969
25330SOL    HW277925   9.193   3.218   9.026
25331SOL     OW77926   8.458   3.159   8.780
25331SOL    HW177927   8.377   3.132   8.832
25331SOL    HW277928   8.540   3.129   8.830
25332SOL     OW77929   9.061   3.529   9.109
25332SOL    HW177930   9.047   3.568   9.018
25332SOL    HW277931   9.140   3.467   9.107
25333SOL     OW77932   8.603   3.115   8.554
25333SOL    HW177933   8.539   3.128   8.630
25333SOL    HW277934   8.562   3.149   8.469
25334SOL     OW77935   8.388   1.922   8.833
25334SOL    HW177936   8.402   1.909   8.734
25334SOL    HW277937   8.470   1.963   8.873
25335SOL     OW77938   8.395   2.963   9.182
25335SOL    HW177939   8.300   2.980   9.210
25335SOL    HW277940   8.398   2.882   9.122
25336SOL     OW77941   8.174   2.917   7.847
25336SOL    HW177942   8.157   2.886   7.941
25336SOL    HW277943   8.251   2.867   7.809
25337SOL     OW77944   7.889   2.651   8.722
25337SOL    HW177945   7.958   2.659   8.795
25337SOL    HW277946   7.850   2.559   8.724
25338SOL     OW77947   8.689   2.222   8.746
25338SOL    HW177948   8.705   2.311   8.787
25338SOL    HW277949   8.599   2.221   8.702
25339SOL     OW77950   7.539   3.397   8.802
25339SOL    HW177951   7.496   3.472   8.751
25339SOL    HW277952   7.638   3.399   8.787
25340SOL     OW77953   7.757   2.986   7.919
25340SOL    HW177954   7.741   3.070   7.867
25340SOL    HW277955   7.742   2.907   7.860
25341SOL     OW77956   7.952   2.397   8.320
25341SOL    HW177957   7.961   2.466   8.249
25341SOL    HW277958   8.034   2.399   8.378
25342SOL     OW77959   8.691   3.240   7.887
25342SOL    HW177960   8.750   3.317   7.912
25342SOL    HW277961   8.596   3.263   7.907
25343SOL     OW77962   8.756   3.341   8.583
25343SOL    HW177963   8.803   3.362   8.669
25343SOL    HW277964   8.710   3.253   8.590
25344SOL     OW77965   9.060   2.442   7.986
25344SOL    HW177966   8.992   2.508   8.018
25344SOL    HW277967   9.150   2.486   7.982
25345SOL     OW77968   7.806   3.375   8.745
25345SOL    HW177969   7.800   3.329   8.656
25345SOL    HW277970   7.902   3.392   8.767
25346SOL     OW77971   7.940   2.566   9.132
25346SOL    HW177972   7.978   2.611   9.051
25346SOL    HW277973   8.001   2.492   9.161
25347SOL     OW77974   9.074   2.715   9.162
25347SOL    HW177975   8.978   2.741   9.149
25347SOL    HW277976   9.125   2.735   9.079
25348SOL     OW77977   8.454   1.977   9.204
25348SOL    HW177978   8.522   2.050   9.202
25348SOL    HW277979   8.495   1.891   9.172
25349SOL     OW77980   7.937   1.925   9.229
25349SOL    HW177981   7.888   1.869   9.161
25349SOL    HW277982   7.885   2.008   9.247
25350SOL     OW77983   8.107   2.700   8.551
25350SOL    HW177984   8.115   2.796   8.526
25350SOL    HW277985   8.021   2.685   8.600
25351SOL     OW77986   8.733   2.689   8.453
25351SOL    HW177987   8.642   2.667   8.418
25351SOL    HW277988   8.798   2.618   8.425
25352SOL     OW77989   8.621   2.369   7.681
25352SOL    HW177990   8.644   2.294   7.743
25352SOL    HW277991   8.592   2.449   7.734
25353SOL     OW77992   7.735   2.053   8.698
25353SOL    HW177993   7.714   2.082   8.791
25353SOL    HW277994   7.721   1.954   8.689
25354SOL     OW77995   7.478   3.143   8.742
25354SOL    HW177996   7.506   3.084   8.818
25354SOL    HW277997   7.498   3.238   8.764
25355SOL     OW77998   8.166   2.434   8.479
25355SOL    HW177999   8.246   2.420   8.420
25355SOL    HW278000   8.154   2.532   8.496
25356SOL     OW78001   9.191   2.885   9.345
25356SOL    HW178002   9.150   2.818   9.284
25356SOL    HW278003   9.125   2.914   9.414
25357SOL     OW78004   7.779   1.937   8.096
25357SOL    HW178005   7.736   2.023   8.125
25357SOL    HW278006   7.785   1.876   8.175
25358SOL     OW78007   9.075   2.269   7.768
25358SOL    HW178008   9.134   2.198   7.805
25358SOL    HW278009   9.045   2.330   7.841
25359SOL     OW78010   8.471   2.612   8.369
25359SOL    HW178011   8.445   2.636   8.462
25359SOL    HW278012   8.442   2.518   8.349
25360SOL     OW78013   8.425   3.454   9.150
25360SOL    HW178014   8.425   3.484   9.054
25360SOL    HW278015   8.452   3.358   9.155
25361SOL     OW78016   9.286   3.377   9.050
25361SOL    HW178017   9.309   3.389   8.954
25361SOL    HW278018   9.368   3.390   9.106
25362SOL     OW78019   7.836   2.757   9.313
25362SOL    HW178020   7.916   2.792   9.362
25362SOL    HW278021   7.865   2.686   9.249
25363SOL     OW78022   8.971   2.128   7.540
25363SOL    HW178023   8.897   2.073   7.578
25363SOL    HW278024   9.011   2.184   7.612
25364SOL     OW78025   8.630   2.653   7.429
25364SOL    HW178026   8.685   2.570   7.435
25364SOL    HW278027   8.679   2.721   7.373
25365SOL     OW78028   8.509   3.224   8.315
25365SOL    HW178029   8.524   3.140   8.264
25365SOL    HW278030   8.558   3.299   8.271
25366SOL     OW78031   7.764   2.658   8.356
25366SOL    HW178032   7.838   2.646   8.291
25366SOL    HW278033   7.753   2.576   8.412
25367SOL     OW78034   7.732   2.395   8.468
25367SOL    HW178035   7.688   2.305   8.463
25367SOL    HW278036   7.814   2.394   8.411
25368SOL     OW78037   8.616   2.196   9.159
25368SOL    HW178038   8.555   2.242   9.223
25368SOL    HW278039   8.690   2.258   9.133
25369SOL     OW78040   8.619   2.034   8.934
25369SOL    HW178041   8.609   2.089   9.017
25369SOL    HW278042   8.653   2.092   8.860
25370SOL     OW78043   7.479   3.101   7.650
25370SOL    HW178044   7.393   3.141   7.621
25370SOL    HW278045   7.464   3.006   7.679
25371SOL     OW78046   7.901   3.421   8.306
25371SOL    HW178047   7.960   3.498   8.328
25371SOL    HW278048   7.949   3.359   8.244
25372SOL     OW78049   8.374   2.677   8.609
25372SOL    HW178050   8.407   2.633   8.694
25372SOL    HW278051   8.274   2.674   8.607
25373SOL     OW78052   7.478   2.466   8.579
25373SOL    HW178053   7.561   2.455   8.524
25373SOL    HW278054   7.496   2.441   8.674
25374SOL     OW78055   7.670   2.512   9.149
25374SOL    HW178056   7.768   2.527   9.137
25374SOL    HW278057   7.619   2.569   9.085
25375SOL     OW78058   8.825   2.801   9.093
25375SOL    HW178059   8.844   2.898   9.085
25375SOL    HW278060   8.809   2.762   9.002
25376SOL     OW78061   8.265   2.460   7.807
25376SOL    HW178062   8.267   2.382   7.745
25376SOL    HW278063   8.179   2.510   7.796
25377SOL     OW78064   9.088   2.434   8.590
25377SOL    HW178065   9.073   2.357   8.652
25377SOL    HW278066   9.183   2.433   8.559
25378SOL     OW78067   7.675   3.410   9.186
25378SOL    HW178068   7.667   3.478   9.259
25378SOL    HW278069   7.684   3.319   9.226
25379SOL     OW78070   8.182   2.248   8.679
25379SOL    HW178071   8.116   2.173   8.673
25379SOL    HW278072   8.163   2.314   8.607
25380SOL     OW78073   8.430   3.513   8.877
25380SOL    HW178074   8.391   3.462   8.801
25380SOL    HW278075   8.422   3.611   8.859
25381SOL     OW78076   7.878   2.373   7.634
25381SOL    HW178077   7.949   2.433   7.672
25381SOL    HW278078   7.791   2.422   7.631
25382SOL     OW78079   7.591   2.988   8.950
25382SOL    HW178080   7.602   2.953   9.043
25382SOL    HW278081   7.622   2.919   8.885
25383SOL     OW78082   8.728   2.888   8.642
25383SOL    HW178083   8.729   2.816   8.573
25383SOL    HW278084   8.684   2.969   8.605
25384SOL     OW78085   8.725   2.709   7.686
25384SOL    HW178086   8.666   2.671   7.758
25384SOL    HW278087   8.683   2.694   7.597
25385SOL     OW78088   9.223   3.566   8.624
25385SOL    HW178089   9.287   3.607   8.558
25385SOL    HW278090   9.180   3.486   8.583
25386SOL     OW78091   8.583   3.523   8.469
25386SOL    HW178092   8.610   3.504   8.374
25386SOL    HW278093   8.636   3.465   8.531
25387SOL     OW78094   7.591   3.058   8.509
25387SOL    HW178095   7.551   3.092   8.594
25387SOL    HW278096   7.520   3.015   8.453
25388SOL     OW78097   8.168   3.516   9.213
25388SOL    HW178098   8.123   3.559   9.135
25388SOL    HW278099   8.266   3.510   9.197
25389SOL     OW78100   9.235   2.084   7.889
25389SOL    HW178101   9.293   2.055   7.813
25389SOL    HW278102   9.175   2.009   7.916
25390SOL     OW78103   8.841   3.460   7.956
25390SOL    HW178104   8.904   3.486   7.883
25390SOL    HW278105   8.777   3.535   7.972
25391SOL     OW78106   7.644   3.641   9.349
25391SOL    HW178107   7.600   3.572   9.406
25391SOL    HW278108   7.695   3.705   9.407
25392SOL     OW78109   8.741   2.822   8.100
25392SOL    HW178110   8.812   2.754   8.119
25392SOL    HW278111   8.780   2.898   8.049
25393SOL     OW78112   8.204   3.112   8.879
25393SOL    HW178113   8.186   3.168   8.959
25393SOL    HW278114   8.131   3.124   8.812
25394SOL     OW78115   8.101   3.521   7.629
25394SOL    HW178116   8.128   3.532   7.534
25394SOL    HW278117   8.038   3.443   7.637
25395SOL     OW78118   9.054   3.621   8.842
25395SOL    HW178119   9.118   3.603   8.767
25395SOL    HW278120   9.047   3.720   8.856
25396SOL     OW78121   7.672   2.169   8.178
25396SOL    HW178122   7.587   2.212   8.147
25396SOL    HW278123   7.674   2.167   8.278
25397SOL     OW78124   8.701   3.419   7.480
25397SOL    HW178125   8.692   3.335   7.533
25397SOL    HW278126   8.665   3.404   7.388
25398SOL     OW78127   8.243   2.853   8.823
25398SOL    HW178128   8.294   2.847   8.737
25398SOL    HW278129   8.227   2.949   8.846
25399SOL     OW78130   8.376   2.788   7.737
25399SOL    HW178131   8.387   2.790   7.638
25399SOL    HW278132   8.434   2.716   7.776
25400SOL     OW78133   8.959   3.498   7.525
25400SOL    HW178134   8.864   3.471   7.507
25400SOL    HW278135   9.010   3.498   7.439
25401SOL     OW78136   7.809   3.168   8.948
25401SOL    HW178137   7.804   3.238   8.877
25401SOL    HW278138   7.729   3.108   8.942
25402SOL     OW78139   9.062   3.215   8.743
25402SOL    HW178140   9.107   3.175   8.823
25402SOL    HW278141   8.991   3.279   8.774
25403SOL     OW78142   8.539   2.983   8.203
25403SOL    HW178143   8.458   2.932   8.230
25403SOL    HW278144   8.607   2.922   8.164
25404SOL     OW78145   8.487   2.103   8.373
25404SOL    HW178146   8.477   2.064   8.281
25404SOL    HW278147   8.492   2.030   8.440
25405SOL     OW78148   8.072   3.309   7.880
25405SOL    HW178149   8.147   3.260   7.837
25405SOL    HW278150   7.997   3.320   7.814
25406SOL     OW78151   9.213   2.209   8.805
25406SOL    HW178152   9.281   2.282   8.810
25406SOL    HW278153   9.234   2.149   8.728
25407SOL     OW78154   7.683   3.215   7.789
25407SOL    HW178155   7.607   3.180   7.735
25407SOL    HW278156   7.648   3.259   7.872
25408SOL     OW78157   7.607   2.899   9.209
25408SOL    HW178158   7.519   2.871   9.248
25408SOL    HW278159   7.679   2.839   9.245
25409SOL     OW78160   8.160   2.046   8.946
25409SOL    HW178161   8.244   2.015   8.901
25409SOL    HW278162   8.183   2.078   9.038
25410SOL     OW78163   7.524   2.245   7.438
25410SOL    HW178164   7.472   2.196   7.368
25410SOL    HW278165   7.553   2.333   7.401
25411SOL     OW78166   8.822   2.713   8.830
25411SOL    HW178167   8.772   2.775   8.770
25411SOL    HW278168   8.914   2.698   8.794
25412SOL     OW78169   7.486   2.037   7.651
25412SOL    HW178170   7.473   2.106   7.580
25412SOL    HW278171   7.577   1.996   7.641
25413SOL     OW78172   8.662   3.189   7.617
25413SOL    HW178173   8.565   3.192   7.594
25413SOL    HW278174   8.674   3.196   7.716
25414SOL     OW78175   8.082   2.650   8.908
25414SOL    HW178176   8.138   2.729   8.882
25414SOL    HW278177   8.137   2.567   8.902
25415SOL     OW78178   8.161   2.389   9.164
25415SOL    HW178179   8.229   2.450   9.205
25415SOL    HW278180   8.186   2.294   9.184
25416SOL     OW78181   8.906   3.060   9.068
25416SOL    HW178182   8.888   3.084   9.164
25416SOL    HW278183   8.998   3.088   9.044
25417SOL     OW78184   7.740   3.644   9.040
25417SOL    HW178185   7.650   3.685   9.056
25417SOL    HW278186   7.741   3.552   9.080
25418SOL     OW78187   9.063   2.689   8.698
25418SOL    HW178188   9.074   2.596   8.663
25418SOL    HW278189   9.053   2.752   8.622
25419SOL     OW78190   8.657   2.192   7.887
25419SOL    HW178191   8.714   2.111   7.891
25419SOL    HW278192   8.673   2.249   7.967
25420SOL     OW78193   7.955   2.622   8.161
25420SOL    HW178194   8.024   2.691   8.139
25420SOL    HW278195   7.906   2.595   8.078
25421SOL     OW78196   9.066   2.295   9.044
25421SOL    HW178197   9.114   2.273   8.959
25421SOL    HW278198   9.029   2.211   9.084
25422SOL     OW78199   9.188   2.787   8.924
25422SOL    HW178200   9.179   2.887   8.923
25422SOL    HW278201   9.145   2.749   8.841
25423SOL     OW78202   8.407   3.228   7.533
25423SOL    HW178203   8.350   3.202   7.611
25423SOL    HW278204   8.352   3.276   7.465
25424SOL     OW78205   8.065   3.635   8.338
25424SOL    HW178206   8.051   3.734   8.336
25424SOL    HW278207   8.162   3.615   8.346
25425SOL     OW78208   8.320   2.845   8.305
25425SOL    HW178209   8.368   2.760   8.329
25425SOL    HW278210   8.275   2.882   8.387
25426SOL     OW78211   9.252   3.458   8.298
25426SOL    HW178212   9.172   3.486   8.244
25426SOL    HW278213   9.223   3.400   8.374
25427SOL     OW78214   7.667   3.151   9.300
25427SOL    HW178215   7.646   3.062   9.259
25427SOL    HW278216   7.599   3.172   9.370
25428SOL     OW78217   7.565   3.003   8.120
25428SOL    HW178218   7.619   2.977   8.199
25428SOL    HW278219   7.623   3.005   8.038
25429SOL     OW78220   8.138   3.268   9.091
25429SOL    HW178221   8.055   3.228   9.129
25429SOL    HW278222   8.157   3.355   9.136
25430SOL     OW78223   9.282   2.054   8.575
25430SOL    HW178224   9.318   1.963   8.555
25430SOL    HW278225   9.208   2.075   8.512
25431SOL     OW78226   7.828   2.273   7.970
25431SOL    HW178227   7.865   2.202   7.910
25431SOL    HW278228   7.780   2.230   8.047
25432SOL     OW78229   9.119   3.344   8.513
25432SOL    HW178230   9.041   3.329   8.452
25432SOL    HW278231   9.110   3.287   8.594
25433SOL     OW78232   7.798   2.396   8.745
25433SOL    HW178233   7.857   2.330   8.792
25433SOL    HW278234   7.791   2.371   8.648
25434SOL     OW78235   8.262   3.428   8.121
25434SOL    HW178236   8.234   3.497   8.054
25434SOL    HW278237   8.189   3.361   8.132
25435SOL     OW78238   8.861   2.118   8.566
25435SOL    HW178239   8.878   2.021   8.582
25435SOL    HW278240   8.803   2.154   8.639
25436SOL     OW78241   8.489   1.875   8.530
25436SOL    HW178242   8.427   1.814   8.481
25436SOL    HW278243   8.581   1.835   8.533
25437SOL     OW78244   8.274   3.162   7.766
25437SOL    HW178245   8.242   3.073   7.796
25437SOL    HW278246   8.343   3.197   7.830
25438SOL     OW78247   8.071   3.410   8.787
25438SOL    HW178248   8.073   3.471   8.866
25438SOL    HW278249   8.162   3.405   8.747
25439SOL     OW78250   8.762   1.970   7.611
25439SOL    HW178251   8.779   1.877   7.578
25439SOL    HW278252   8.687   2.010   7.559
25440SOL     OW78253   8.693   2.345   8.106
25440SOL    HW178254   8.655   2.438   8.105
25440SOL    HW278255   8.714   2.319   8.200
25441SOL     OW78256   9.078   2.096   8.404
25441SOL    HW178257   8.997   2.119   8.458
25441SOL    HW278258   9.085   2.159   8.327
25442SOL     OW78259   7.457   2.843   7.754
25442SOL    HW178260   7.556   2.831   7.744
25442SOL    HW278261   7.415   2.753   7.769
25443SOL     OW78262   8.345   3.540   7.772
25443SOL    HW178263   8.260   3.524   7.721
25443SOL    HW278264   8.331   3.616   7.837
25444SOL     OW78265   7.645   2.448   9.416
25444SOL    HW178266   7.551   2.415   9.431
25444SOL    HW278267   7.655   2.482   9.323
25445SOL     OW78268   9.240   2.445   9.480
25445SOL    HW178269   9.189   2.455   9.395
25445SOL    HW278270   9.197   2.375   9.537
25446SOL     OW78271   7.679   3.613   9.763
25446SOL    HW178272   7.698   3.685   9.829
25446SOL    HW278273   7.762   3.591   9.712
25447SOL     OW78274   7.626   3.365   9.862
25447SOL    HW178275   7.643   3.458   9.829
25447SOL    HW278276   7.581   3.369   9.952
25448SOL     OW78277   8.048   2.847   9.482
25448SOL    HW178278   8.091   2.904   9.412
25448SOL    HW278279   8.095   2.862   9.570
25449SOL     OW78280   7.553   2.572   9.874
25449SOL    HW178281   7.479   2.541   9.813
25449SOL    HW278282   7.517   2.640   9.938
25450SOL     OW78283   9.242   3.619   9.670
25450SOL    HW178284   9.318   3.604   9.733
25450SOL    HW278285   9.250   3.709   9.629
25451SOL     OW78286   7.523   3.447   9.482
25451SOL    HW178287   7.496   3.351   9.486
25451SOL    HW278288   7.473   3.498   9.552
25452SOL     OW78289   9.071   2.750   9.920
25452SOL    HW178290   9.163   2.752   9.960
25452SOL    HW278291   9.053   2.835   9.871
25453SOL     OW78292   9.094   2.997   9.791
25453SOL    HW178293   9.182   2.984   9.747
25453SOL    HW278294   9.100   3.071   9.858
25454SOL     OW78295   8.018   3.240   9.993
25454SOL    HW178296   7.978   3.152   0.018
25454SOL    HW278297   8.015   3.251   9.894
25455SOL     OW78298   8.251   1.909   9.825
25455SOL    HW178299   8.303   1.986   9.788
25455SOL    HW278300   8.154   1.932   9.825
25456SOL     OW78301   8.994   2.951   9.532
25456SOL    HW178302   8.925   2.881   9.552
25456SOL    HW278303   9.031   2.987   9.618
25457SOL     OW78304   8.011   2.577   9.595
25457SOL    HW178305   8.030   2.664   9.549
25457SOL    HW278306   7.944   2.592   9.667
25458SOL     OW78307   8.996   3.498   9.628
25458SOL    HW178308   9.084   3.539   9.650
25458SOL    HW278309   8.981   3.500   9.530
25459SOL     OW78310   8.483   2.509   9.732
25459SOL    HW178311   8.519   2.474   9.819
25459SOL    HW278312   8.388   2.481   9.722
25460SOL     OW78313   7.415   2.708   0.068
25460SOL    HW178314   7.380   2.630   0.120
25460SOL    HW278315   7.445   2.779   0.132
25461SOL     OW78316   8.286   2.219   9.507
25461SOL    HW178317   8.348   2.256   9.438
25461SOL    HW278318   8.227   2.150   9.465
25462SOL     OW78319   8.719   2.969   9.828
25462SOL    HW178320   8.791   2.985   9.895
25462SOL    HW278321   8.694   3.055   9.784
25463SOL     OW78322   8.410   3.320   9.798
25463SOL    HW178323   8.387   3.402   9.747
25463SOL    HW278324   8.369   3.325   9.890
25464SOL     OW78325   7.810   3.677   0.172
25464SOL    HW178326   7.817   3.578   0.167
25464SOL    HW278327   7.901   3.717   0.184
25465SOL     OW78328   7.775   2.852   9.572
25465SOL    HW178329   7.870   2.881   9.582
25465SOL    HW278330   7.765   2.799   9.487
25466SOL     OW78331   8.591   3.618   9.574
25466SOL    HW178332   8.498   3.597   9.604
25466SOL    HW278333   8.614   3.563   9.494
25467SOL     OW78334   9.062   3.269   9.374
25467SOL    HW178335   9.030   3.363   9.364
25467SOL    HW278336   8.987   3.205   9.356
25468SOL     OW78337   7.929   3.613   9.645
25468SOL    HW178338   7.977   3.666   9.715
25468SOL    HW278339   7.996   3.560   9.592
25469SOL     OW78340   8.880   2.021   9.762
25469SOL    HW178341   8.873   1.970   9.676
25469SOL    HW278342   8.977   2.039   9.782
25470SOL     OW78343   7.825   2.583   9.805
25470SOL    HW178344   7.856   2.490   9.826
25470SOL    HW278345   7.727   2.590   9.823
25471SOL     OW78346   8.114   1.998   9.428
25471SOL    HW178347   8.170   1.920   9.453
25471SOL    HW278348   8.040   1.968   9.367
25472SOL     OW78349   7.979   1.975   9.839
25472SOL    HW178350   7.886   1.969   9.876
25472SOL    HW278351   7.981   2.043   9.766
25473SOL     OW78352   8.853   3.097   9.342
25473SOL    HW178353   8.899   3.037   9.407
25473SOL    HW278354   8.763   3.122   9.378
25474SOL     OW78355   7.701   1.950   9.479
25474SOL    HW178356   7.741   2.025   9.426
25474SOL    HW278357   7.774   1.902   9.528
25475SOL     OW78358   8.393   2.120   9.736
25475SOL    HW178359   8.357   2.156   9.650
25475SOL    HW278360   8.492   2.132   9.738
25476SOL     OW78361   7.857   3.028   0.075
25476SOL    HW178362   7.801   3.087   0.134
25476SOL    HW278363   7.812   3.018   9.986
25477SOL     OW78364   8.710   3.697   9.822
25477SOL    HW178365   8.771   3.771   9.794
25477SOL    HW278366   8.650   3.673   9.746
25478SOL     OW78367   8.470   2.340   9.341
25478SOL    HW178368   8.435   2.426   9.305
25478SOL    HW278369   8.536   2.358   9.414
25479SOL     OW78370   8.293   2.290   9.925
25479SOL    HW178371   8.244   2.359   9.870
25479SOL    HW278372   8.326   2.217   9.865
25480SOL     OW78373   9.373   2.670   9.578
25480SOL    HW178374   9.390   2.640   9.672
25480SOL    HW278375   9.328   2.597   9.527
25481SOL     OW78376   7.903   3.295   9.484
25481SOL    HW178377   7.821   3.272   9.536
25481SOL    HW278378   7.898   3.253   9.393
25482SOL     OW78379   8.815   2.471   9.362
25482SOL    HW178380   8.765   2.433   9.439
25482SOL    HW278381   8.913   2.456   9.376
25483SOL     OW78382   7.988   2.144   9.634
25483SOL    HW178383   8.035   2.093   9.562
25483SOL    HW278384   7.943   2.224   9.593
25484SOL     OW78385   8.170   2.883   9.722
25484SOL    HW178386   8.117   2.839   9.795
25484SOL    HW278387   8.255   2.832   9.707
25485SOL     OW78388   7.738   3.008   9.824
25485SOL    HW178389   7.736   3.089   9.765
25485SOL    HW278390   7.754   2.926   9.768
25486SOL     OW78391   8.650   3.222   9.712
25486SOL    HW178392   8.716   3.293   9.738
25486SOL    HW278393   8.560   3.248   9.747
25487SOL     OW78394   9.115   2.537   9.751
25487SOL    HW178395   9.081   2.605   9.816
25487SOL    HW278396   9.116   2.576   9.659
25488SOL     OW78397   8.642   2.377   9.554
25488SOL    HW178398   8.660   2.296   9.610
25488SOL    HW278399   8.592   2.445   9.608
25489SOL     OW78400   7.730   1.954   9.950
25489SOL    HW178401   7.661   2.024   9.966
25489SOL    HW278402   7.754   1.910   0.037
25490SOL     OW78403   9.069   2.287   9.639
25490SOL    HW178404   9.099   2.211   9.697
25490SOL    HW278405   9.067   2.371   9.693
25491SOL     OW78406   8.980   2.112   9.436
25491SOL    HW178407   8.922   2.037   9.469
25491SOL    HW278408   8.987   2.182   9.506
25492SOL     OW78409   8.718   2.724   9.336
25492SOL    HW178410   8.754   2.631   9.348
25492SOL    HW278411   8.751   2.761   9.249
25493SOL     OW78412   7.469   3.177   9.486
25493SOL    HW178413   7.380   3.204   9.449
25493SOL    HW278414   7.467   3.079   9.507
25494SOL     OW78415   8.225   2.424   9.687
25494SOL    HW178416   8.237   2.352   9.619
25494SOL    HW278417   8.151   2.485   9.659
25495SOL     OW78418   7.884   2.353   9.492
25495SOL    HW178419   7.943   2.429   9.521
25495SOL    HW278420   7.792   2.388   9.473
25496SOL     OW78421   8.798   2.790   9.613
25496SOL    HW178422   8.749   2.836   9.687
25496SOL    HW278423   8.734   2.769   9.539
25497SOL     OW78424   9.153   2.080   9.797
25497SOL    HW178425   9.228   2.034   9.750
25497SOL    HW278426   9.182   2.103   9.890
25498SOL     OW78427   8.799   3.439   9.804
25498SOL    HW178428   8.877   3.444   9.741
25498SOL    HW278429   8.762   3.530   9.819
25499SOL     OW78430   8.115   3.474   9.480
25499SOL    HW178431   8.131   3.502   9.386
25499SOL    HW278432   8.043   3.405   9.483
25500SOL     OW78433   8.645   3.467   9.347
25500SOL    HW178434   8.635   3.373   9.381
25500SOL    HW278435   8.578   3.483   9.275
25501SOL     OW78436   8.394   2.757   9.651
25501SOL    HW178437   8.420   2.772   9.556
25501SOL    HW278438   8.438   2.674   9.685
25502SOL     OW78439   8.925   3.520   9.350
25502SOL    HW178440   8.829   3.497   9.334
25502SOL    HW278441   8.971   3.532   9.262
25503SOL     OW78442   8.027   3.266   9.729
25503SOL    HW178443   8.111   3.218   9.703
25503SOL    HW278444   7.971   3.281   9.647
25504SOL     OW78445   7.693   3.219   9.648
25504SOL    HW178446   7.609   3.202   9.596
25504SOL    HW278447   7.672   3.274   9.728
25505SOL     OW78448   7.594   2.251   9.166
25505SOL    HW178449   7.494   2.241   9.165
25505SOL    HW278450   7.618   2.348   9.157
25506SOL     OW78451   7.439   2.002   9.542
25506SOL    HW178452   7.400   2.046   9.461
25506SOL    HW278453   7.537   1.988   9.529
25507SOL     OW78454   8.598   3.208   9.438
25507SOL    HW178455   8.498   3.198   9.429
25507SOL    HW278456   8.623   3.204   9.534
25508SOL     OW78457   8.659   2.188   9.756
25508SOL    HW178458   8.742   2.134   9.767
25508SOL    HW278459   8.646   2.247   9.837
25509SOL     OW78460   8.012   2.759   9.904
25509SOL    HW178461   8.009   2.766   0.003
25509SOL    HW278462   7.941   2.696   9.872
25510SOL     OW78463   8.312   3.226   9.421
25510SOL    HW178464   8.290   3.188   9.510
25510SOL    HW278465   8.278   3.320   9.415
25511SOL     OW78466   8.465   2.789   9.390
25511SOL    HW178467   8.438   2.865   9.330
25511SOL    HW278468   8.560   2.765   9.372
25512SOL     OW78469   7.478   3.025   9.918
25512SOL    HW178470   7.472   3.073   0.005
25512SOL    HW278471   7.574   3.021   9.888
25513SOL     OW78472   7.907   2.337   9.869
25513SOL    HW178473   7.955   2.263   9.822
25513SOL    HW278474   7.903   2.317   9.967
25514SOL     OW78475   8.253   3.135   9.663
25514SOL    HW178476   8.231   3.042   9.693
25514SOL    HW278477   8.318   3.176   9.727
25515SOL     OW78478   8.843   1.890   9.524
25515SOL    HW178479   8.892   1.814   9.480
25515SOL    HW278480   8.749   1.863   9.542
25516SOL     OW78481   7.510   2.912   9.548
25516SOL    HW178482   7.608   2.905   9.566
25516SOL    HW278483   7.474   2.822   9.523
25517SOL     OW78484   8.333   3.548   9.654
25517SOL    HW178485   8.255   3.523   9.596
25517SOL    HW278486   8.309   3.629   9.708
25518SOL     OW78487   7.653   4.240   0.093
25518SOL    HW178488   7.568   4.262   0.140
25518SOL    HW278489   7.665   4.301   0.015
25519SOL     OW78490   7.640   4.056   0.954
25519SOL    HW178491   7.714   4.012   1.005
25519SOL    HW278492   7.557   4.000   0.961
25520SOL     OW78493   7.437   4.131   0.603
25520SOL    HW178494   7.352   4.143   0.655
25520SOL    HW278495   7.419   4.077   0.521
25521SOL     OW78496   8.030   5.026   1.213
25521SOL    HW178497   7.933   5.013   1.190
25521SOL    HW278498   8.048   5.124   1.225
25522SOL     OW78499   8.551   4.415   0.691
25522SOL    HW178500   8.604   4.497   0.671
25522SOL    HW278501   8.501   4.428   0.777
25523SOL     OW78502   9.117   4.330   0.278
25523SOL    HW178503   9.068   4.374   0.203
25523SOL    HW278504   9.084   4.236   0.289
25524SOL     OW78505   8.157   4.840   1.052
25524SOL    HW178506   8.106   4.888   1.123
25524SOL    HW278507   8.209   4.906   0.998
25525SOL     OW78508   8.352   4.440   1.838
25525SOL    HW178509   8.330   4.493   1.920
25525SOL    HW278510   8.362   4.501   1.760
25526SOL     OW78511   8.121   4.685   0.646
25526SOL    HW178512   8.188   4.674   0.719
25526SOL    HW278513   8.041   4.734   0.682
25527SOL     OW78514   8.159   4.887   1.828
25527SOL    HW178515   8.214   4.957   1.873
25527SOL    HW278516   8.087   4.931   1.774
25528SOL     OW78517   8.868   5.239   1.371
25528SOL    HW178518   8.929   5.314   1.397
25528SOL    HW278519   8.784   5.243   1.425
25529SOL     OW78520   7.986   4.096   1.492
25529SOL    HW178521   8.043   4.017   1.469
25529SOL    HW278522   7.953   4.087   1.586
25530SOL     OW78523   9.047   4.167   0.766
25530SOL    HW178524   9.022   4.196   0.673
25530SOL    HW278525   9.011   4.232   0.832
25531SOL     OW78526   7.703   5.394   0.486
25531SOL    HW178527   7.704   5.474   0.547
25531SOL    HW278528   7.794   5.379   0.450
25532SOL     OW78529   8.566   5.054   1.677
25532SOL    HW178530   8.653   5.028   1.719
25532SOL    HW278531   8.502   4.977   1.685
25533SOL     OW78532   7.691   5.117   0.508
25533SOL    HW178533   7.686   5.217   0.514
25533SOL    HW278534   7.699   5.079   0.599
25534SOL     OW78535   8.018   5.543   1.387
25534SOL    HW178536   7.944   5.514   1.447
25534SOL    HW278537   8.070   5.616   1.431
25535SOL     OW78538   7.991   4.683   0.215
25535SOL    HW178539   7.955   4.750   0.151
25535SOL    HW278540   8.058   4.727   0.275
25536SOL     OW78541   9.104   3.835   1.541
25536SOL    HW178542   9.127   3.902   1.470
25536SOL    HW278543   9.041   3.876   1.606
25537SOL     OW78544   7.541   4.392   0.597
25537SOL    HW178545   7.508   4.299   0.616
25537SOL    HW278546   7.532   4.448   0.680
25538SOL     OW78547   9.336   5.442   0.297
25538SOL    HW178548   9.411   5.416   0.359
25538SOL    HW278549   9.353   5.534   0.262
25539SOL     OW78550   7.500   5.252   0.110
25539SOL    HW178551   7.425   5.187   0.121
25539SOL    HW278552   7.499   5.318   0.185
25540SOL     OW78553   9.131   4.651   0.687
25540SOL    HW178554   9.221   4.611   0.704
25540SOL    HW278555   9.132   4.700   0.600
25541SOL     OW78556   9.141   4.794   0.454
25541SOL    HW178557   9.214   4.782   0.387
25541SOL    HW278558   9.157   4.878   0.507
25542SOL     OW78559   7.552   4.476   1.543
25542SOL    HW178560   7.637   4.525   1.563
25542SOL    HW278561   7.479   4.542   1.522
25543SOL     OW78562   8.058   5.070   0.754
25543SOL    HW178563   8.003   4.987   0.742
25543SOL    HW278564   8.071   5.113   0.665
25544SOL     OW78565   8.696   4.937   1.377
25544SOL    HW178566   8.726   4.873   1.306
25544SOL    HW278567   8.767   4.946   1.446
25545SOL     OW78568   8.281   3.763   0.520
25545SOL    HW178569   8.331   3.837   0.475
25545SOL    HW278570   8.184   3.784   0.521
25546SOL     OW78571   7.643   4.667   1.309
25546SOL    HW178572   7.732   4.622   1.297
25546SOL    HW278573   7.575   4.624   1.250
25547SOL     OW78574   8.892   4.764   0.327
25547SOL    HW178575   8.842   4.681   0.348
25547SOL    HW278576   8.978   4.766   0.379
25548SOL     OW78577   8.603   5.487   1.622
25548SOL    HW178578   8.616   5.567   1.564
25548SOL    HW278579   8.612   5.404   1.567
25549SOL     OW78580   7.889   4.041   1.745
25549SOL    HW178581   7.894   4.089   1.832
25549SOL    HW278582   7.795   4.042   1.711
25550SOL     OW78583   9.104   5.495   0.616
25550SOL    HW178584   9.096   5.457   0.524
25550SOL    HW278585   9.021   5.477   0.667
25551SOL     OW78586   8.064   4.420   0.248
25551SOL    HW178587   8.046   4.514   0.217
25551SOL    HW278588   8.066   4.418   0.348
25552SOL     OW78589   8.719   4.134   0.939
25552SOL    HW178590   8.624   4.106   0.927
25552SOL    HW278591   8.764   4.073   1.005
25553SOL     OW78592   9.074   5.403   0.362
25553SOL    HW178593   9.172   5.411   0.346
25553SOL    HW278594   9.026   5.394   0.274
25554SOL     OW78595   8.184   4.270   1.414
25554SOL    HW178596   8.242   4.265   1.495
25554SOL    HW278597   8.105   4.211   1.426
25555SOL     OW78598   8.839   4.271   1.706
25555SOL    HW178599   8.849   4.343   1.776
25555SOL    HW278600   8.912   4.203   1.718
25556SOL     OW78601   8.381   4.592   1.607
25556SOL    HW178602   8.433   4.521   1.559
25556SOL    HW278603   8.318   4.637   1.544
25557SOL     OW78604   8.397   4.166   1.241
25557SOL    HW178605   8.326   4.199   1.303
25557SOL    HW278606   8.359   4.155   1.149
25558SOL     OW78607   8.482   4.419   0.420
25558SOL    HW178608   8.491   4.411   0.520
25558SOL    HW278609   8.403   4.365   0.390
25559SOL     OW78610   7.537   4.591   0.800
25559SOL    HW178611   7.634   4.584   0.822
25559SOL    HW278612   7.493   4.655   0.862
25560SOL     OW78613   7.570   5.587   1.607
25560SOL    HW178614   7.579   5.550   1.699
25560SOL    HW278615   7.477   5.574   1.575
25561SOL     OW78616   8.323   4.029   0.156
25561SOL    HW178617   8.311   4.083   0.073
25561SOL    HW278618   8.341   3.934   0.133
25562SOL     OW78619   9.151   4.349   1.833
25562SOL    HW178620   9.148   4.428   1.771
25562SOL    HW278621   9.165   4.266   1.780
25563SOL     OW78622   8.441   5.182   0.512
25563SOL    HW178623   8.414   5.266   0.463
25563SOL    HW278624   8.429   5.196   0.610
25564SOL     OW78625   7.775   5.518   0.903
25564SOL    HW178626   7.826   5.434   0.885
25564SOL    HW278627   7.839   5.594   0.916
25565SOL     OW78628   9.208   4.761   0.935
25565SOL    HW178629   9.162   4.749   0.848
25565SOL    HW278630   9.141   4.785   1.006
25566SOL     OW78631   8.616   5.242   1.486
25566SOL    HW178632   8.606   5.172   1.557
25566SOL    HW278633   8.562   5.217   1.406
25567SOL     OW78634   7.750   4.605   0.318
25567SOL    HW178635   7.836   4.625   0.272
25567SOL    HW278636   7.761   4.523   0.374
25568SOL     OW78637   8.911   4.495   0.707
25568SOL    HW178638   8.906   4.447   0.794
25568SOL    HW278639   8.992   4.554   0.706
25569SOL     OW78640   7.958   5.022   1.696
25569SOL    HW178641   7.919   5.019   1.604
25569SOL    HW278642   7.884   5.028   1.763
25570SOL     OW78643   8.560   5.456   0.173
25570SOL    HW178644   8.508   5.421   0.251
25570SOL    HW278645   8.607   5.381   0.127
25571SOL     OW78646   7.639   4.030   1.623
25571SOL    HW178647   7.598   4.046   1.533
25571SOL    HW278648   7.612   3.939   1.656
25572SOL     OW78649   9.058   5.070   0.136
25572SOL    HW178650   9.041   5.162   0.171
25572SOL    HW278651   8.973   5.018   0.135
25573SOL     OW78652   7.960   5.405   0.395
25573SOL    HW178653   7.980   5.492   0.439
25573SOL    HW278654   8.026   5.388   0.322
25574SOL     OW78655   8.827   3.837   0.366
25574SOL    HW178656   8.814   3.814   0.269
25574SOL    HW278657   8.920   3.815   0.393
25575SOL     OW78658   7.717   5.493   1.171
25575SOL    HW178659   7.755   5.409   1.210
25575SOL    HW278660   7.734   5.495   1.073
25576SOL     OW78661   8.369   5.428   0.926
25576SOL    HW178662   8.362   5.357   0.997
25576SOL    HW278663   8.336   5.391   0.839
25577SOL     OW78664   7.788   4.393   0.486
25577SOL    HW178665   7.814   4.296   0.478
25577SOL    HW278666   7.699   4.400   0.531
25578SOL     OW78667   8.935   3.977   1.716
25578SOL    HW178668   8.942   3.983   1.816
25578SOL    HW278669   8.841   3.954   1.691
25579SOL     OW78670   8.080   3.779   0.095
25579SOL    HW178671   8.180   3.785   0.096
25579SOL    HW278672   8.046   3.801   0.004
25580SOL     OW78673   8.256   3.980   1.715
25580SOL    HW178674   8.342   3.930   1.729
25580SOL    HW278675   8.191   3.954   1.786
25581SOL     OW78676   8.319   5.232   1.118
25581SOL    HW178677   8.293   5.163   1.051
25581SOL    HW278678   8.377   5.191   1.188
25582SOL     OW78679   8.748   4.322   1.448
25582SOL    HW178680   8.786   4.309   1.539
25582SOL    HW278681   8.785   4.406   1.408
25583SOL     OW78682   8.273   5.051   0.921
25583SOL    HW178683   8.360   5.051   0.873
25583SOL    HW278684   8.199   5.063   0.856
25584SOL     OW78685   8.332   4.243   0.873
25584SOL    HW178686   8.300   4.252   0.779
25584SOL    HW278687   8.379   4.156   0.885
25585SOL     OW78688   8.012   3.799   0.508
25585SOL    HW178689   7.934   3.799   0.571
25585SOL    HW278690   7.994   3.865   0.434
25586SOL     OW78691   8.836   4.917   0.116
25586SOL    HW178692   8.851   4.859   0.196
25586SOL    HW278693   8.741   4.950   0.116
25587SOL     OW78694   8.417   3.958   0.403
25587SOL    HW178695   8.382   3.990   0.316
25587SOL    HW278696   8.510   3.994   0.418
25588SOL     OW78697   8.483   4.385   1.465
25588SOL    HW178698   8.438   4.319   1.525
25588SOL    HW278699   8.579   4.360   1.455
25589SOL     OW78700   7.878   4.801   0.727
25589SOL    HW178701   7.845   4.715   0.768
25589SOL    HW278702   7.852   4.804   0.631
25590SOL     OW78703   8.718   5.564   0.615
25590SOL    HW178704   8.761   5.630   0.553
25590SOL    HW278705   8.635   5.603   0.654
25591SOL     OW78706   8.525   4.296   0.001
25591SOL    HW178707   8.445   4.239   9.981
25591SOL    HW278708   8.553   4.282   0.096
25592SOL     OW78709   7.561   4.262   1.376
25592SOL    HW178710   7.658   4.247   1.356
25592SOL    HW278711   7.551   4.341   1.437
25593SOL     OW78712   8.245   4.268   0.615
25593SOL    HW178713   8.173   4.332   0.591
25593SOL    HW278714   8.276   4.219   0.534
25594SOL     OW78715   8.497   3.814   0.709
25594SOL    HW178716   8.422   3.812   0.642
25594SOL    HW278717   8.481   3.745   0.779
25595SOL     OW78718   8.891   4.347   0.935
25595SOL    HW178719   8.826   4.272   0.943
25595SOL    HW278720   8.957   4.341   1.010
25596SOL     OW78721   9.326   4.488   0.354
25596SOL    HW178722   9.367   4.453   0.439
25596SOL    HW278723   9.244   4.435   0.333
25597SOL     OW78724   7.968   5.149   0.196
25597SOL    HW178725   7.880   5.109   0.222
25597SOL    HW278726   8.007   5.097   0.120
25598SOL     OW78727   9.219   5.001   0.611
25598SOL    HW178728   9.311   4.968   0.632
25598SOL    HW278729   9.208   5.094   0.644
25599SOL     OW78730   7.972   3.957   0.289
25599SOL    HW178731   8.021   3.901   0.223
25599SOL    HW278732   7.952   4.046   0.249
25600SOL     OW78733   9.171   4.992   1.522
25600SOL    HW178734   9.247   4.927   1.517
25600SOL    HW278735   9.204   5.077   1.563
25601SOL     OW78736   8.473   5.071   1.298
25601SOL    HW178737   8.388   5.033   1.336
25601SOL    HW278738   8.551   5.021   1.335
25602SOL     OW78739   9.059   5.342   1.684
25602SOL    HW178740   9.040   5.375   1.592
25602SOL    HW278741   9.147   5.293   1.685
25603SOL     OW78742   8.623   5.006   1.071
25603SOL    HW178743   8.556   5.029   1.141
25603SOL    HW278744   8.581   5.016   0.980
25604SOL     OW78745   9.030   4.816   1.136
25604SOL    HW178746   9.048   4.902   1.185
25604SOL    HW278747   8.931   4.801   1.132
25605SOL     OW78748   8.409   3.808   1.374
25605SOL    HW178749   8.430   3.798   1.277
25605SOL    HW278750   8.486   3.849   1.421
25606SOL     OW78751   8.411   4.831   1.731
25606SOL    HW178752   8.318   4.850   1.762
25606SOL    HW278753   8.413   4.744   1.682
25607SOL     OW78754   8.180   4.786   0.392
25607SOL    HW178755   8.161   4.753   0.485
25607SOL    HW278756   8.258   4.736   0.354
25608SOL     OW78757   7.872   4.515   1.276
25608SOL    HW178758   7.935   4.529   1.353
25608SOL    HW278759   7.841   4.420   1.276
25609SOL     OW78760   8.662   4.108   1.298
25609SOL    HW178761   8.699   4.187   1.346
25609SOL    HW278762   8.567   4.126   1.272
25610SOL     OW78763   7.529   5.287   1.337
25610SOL    HW178764   7.485   5.361   1.286
25610SOL    HW278765   7.628   5.297   1.329
25611SOL     OW78766   7.809   4.821   0.474
25611SOL    HW178767   7.791   4.904   0.420
25611SOL    HW278768   7.789   4.741   0.418
25612SOL     OW78769   8.649   5.157   0.341
25612SOL    HW178770   8.711   5.233   0.360
25612SOL    HW278771   8.578   5.153   0.411
25613SOL     OW78772   8.787   5.225   1.114
25613SOL    HW178773   8.811   5.225   1.211
25613SOL    HW278774   8.734   5.143   1.093
25614SOL     OW78775   8.990   4.293   0.530
25614SOL    HW178776   8.941   4.364   0.580
25614SOL    HW278777   9.035   4.334   0.450
25615SOL     OW78778   7.804   5.251   1.270
25615SOL    HW178779   7.790   5.176   1.205
25615SOL    HW278780   7.901   5.275   1.274
25616SOL     OW78781   7.820   4.513   1.646
25616SOL    HW178782   7.904   4.512   1.593
25616SOL    HW278783   7.796   4.419   1.673
25617SOL     OW78784   9.116   4.571   1.684
25617SOL    HW178785   9.024   4.602   1.659
25617SOL    HW278786   9.178   4.585   1.607
25618SOL     OW78787   8.483   3.850   1.770
25618SOL    HW178788   8.550   3.923   1.778
25618SOL    HW278789   8.527   3.767   1.736
25619SOL     OW78790   7.970   3.780   1.742
25619SOL    HW178791   7.900   3.725   1.697
25619SOL    HW278792   7.943   3.876   1.742
25620SOL     OW78793   8.013   4.600   1.049
25620SOL    HW178794   8.060   4.688   1.057
25620SOL    HW278795   7.962   4.582   1.133
25621SOL     OW78796   8.710   4.550   1.016
25621SOL    HW178797   8.617   4.520   0.998
25621SOL    HW278798   8.775   4.481   0.982
25622SOL     OW78799   8.620   4.257   0.250
25622SOL    HW178800   8.648   4.176   0.300
25622SOL    HW278801   8.568   4.318   0.310
25623SOL     OW78802   7.543   5.028   1.254
25623SOL    HW178803   7.544   4.964   1.330
25623SOL    HW278804   7.523   5.120   1.287
25624SOL     OW78805   8.153   4.360   1.054
25624SOL    HW178806   8.209   4.331   0.977
25624SOL    HW278807   8.113   4.450   1.035
25625SOL     OW78808   9.275   4.705   1.872
25625SOL    HW178809   9.204   4.654   1.823
25625SOL    HW278810   9.261   4.696   1.971
25626SOL     OW78811   7.789   3.772   0.666
25626SOL    HW178812   7.742   3.859   0.678
25626SOL    HW278813   7.789   3.722   0.754
25627SOL     OW78814   9.046   4.079   0.347
25627SOL    HW178815   9.119   4.027   0.391
25627SOL    HW278816   8.988   4.122   0.417
25628SOL     OW78817   8.447   4.466   0.979
25628SOL    HW178818   8.423   4.480   1.075
25628SOL    HW278819   8.411   4.378   0.948
25629SOL     OW78820   8.404   5.263   1.759
25629SOL    HW178821   8.390   5.335   1.691
25629SOL    HW278822   8.461   5.191   1.719
25630SOL     OW78823   9.298   5.220   1.601
25630SOL    HW178824   9.313   5.252   1.507
25630SOL    HW278825   9.382   5.230   1.653
25631SOL     OW78826   7.787   4.657   1.877
25631SOL    HW178827   7.877   4.680   1.915
25631SOL    HW278828   7.798   4.605   1.793
25632SOL     OW78829   9.058   3.941   0.108
25632SOL    HW178830   8.977   3.889   0.084
25632SOL    HW278831   9.042   3.993   0.192
25633SOL     OW78832   8.524   5.039   0.814
25633SOL    HW178833   8.505   4.949   0.776
25633SOL    HW278834   8.615   5.069   0.786
25634SOL     OW78835   7.804   4.557   0.875
25634SOL    HW178836   7.883   4.582   0.931
25634SOL    HW278837   7.776   4.464   0.896
25635SOL     OW78838   7.749   4.302   0.985
25635SOL    HW178839   7.696   4.221   0.960
25635SOL    HW278840   7.836   4.274   1.024
25636SOL     OW78841   8.633   4.086   1.731
25636SOL    HW178842   8.569   4.124   1.797
25636SOL    HW278843   8.706   4.152   1.714
25637SOL     OW78844   8.628   3.924   1.498
25637SOL    HW178845   8.616   3.978   1.581
25637SOL    HW278846   8.648   3.985   1.421
25638SOL     OW78847   7.478   4.923   0.169
25638SOL    HW178848   7.399   4.984   0.174
25638SOL    HW278849   7.465   4.847   0.234
25639SOL     OW78850   7.486   5.528   0.927
25639SOL    HW178851   7.453   5.439   0.896
25639SOL    HW278852   7.585   5.533   0.914
25640SOL     OW78853   7.942   5.310   0.861
25640SOL    HW178854   8.012   5.366   0.905
25640SOL    HW278855   7.983   5.225   0.829
25641SOL     OW78856   8.351   4.488   1.238
25641SOL    HW178857   8.403   4.451   1.315
25641SOL    HW278858   8.271   4.431   1.221
25642SOL     OW78859   7.510   4.368   1.127
25642SOL    HW178860   7.591   4.357   1.070
25642SOL    HW278861   7.526   4.325   1.216
25643SOL     OW78862   7.654   4.287   1.715
25643SOL    HW178863   7.644   4.195   1.679
25643SOL    HW278864   7.599   4.351   1.660
25644SOL     OW78865   8.881   4.671   1.581
25644SOL    HW178866   8.888   4.770   1.566
25644SOL    HW278867   8.856   4.626   1.495
25645SOL     OW78868   8.286   4.259   0.318
25645SOL    HW178869   8.297   4.175   0.266
25645SOL    HW278870   8.209   4.312   0.282
25646SOL     OW78871   9.084   4.324   1.126
25646SOL    HW178872   9.062   4.261   1.200
25646SOL    HW278873   9.182   4.318   1.106
25647SOL     OW78874   7.692   5.262   1.697
25647SOL    HW178875   7.670   5.336   1.761
25647SOL    HW278876   7.711   5.178   1.749
25648SOL     OW78877   8.291   5.429   1.559
25648SOL    HW178878   8.239   5.363   1.506
25648SOL    HW278879   8.325   5.501   1.498
25649SOL     OW78880   7.914   4.194   0.179
25649SOL    HW178881   7.960   4.280   0.204
25649SOL    HW278882   7.819   4.214   0.155
25650SOL     OW78883   7.582   4.867   1.483
25650SOL    HW178884   7.591   4.842   1.579
25650SOL    HW278885   7.608   4.789   1.425
25651SOL     OW78886   8.758   4.779   1.148
25651SOL    HW178887   8.736   4.699   1.092
25651SOL    HW278888   8.711   4.859   1.111
25652SOL     OW78889   8.733   4.536   0.360
25652SOL    HW178890   8.642   4.499   0.378
25652SOL    HW278891   8.775   4.485   0.285
25653SOL     OW78892   9.199   5.429   1.162
25653SOL    HW178893   9.271   5.460   1.100
25653SOL    HW278894   9.149   5.353   1.121
25654SOL     OW78895   8.733   5.497   1.115
25654SOL    HW178896   8.822   5.541   1.109
25654SOL    HW278897   8.744   5.398   1.108
25655SOL     OW78898   7.404   5.051   1.012
25655SOL    HW178899   7.447   5.036   1.101
25655SOL    HW278900   7.391   4.964   0.965
25656SOL     OW78901   8.142   5.462   1.791
25656SOL    HW178902   8.068   5.527   1.773
25656SOL    HW278903   8.203   5.458   1.712
25657SOL     OW78904   8.351   3.772   0.065
25657SOL    HW178905   8.346   3.765   9.965
25657SOL    HW278906   8.428   3.717   0.097
25658SOL     OW78907   9.243   3.933   0.465
25658SOL    HW178908   9.314   3.901   0.402
25658SOL    HW278909   9.180   3.858   0.483
25659SOL     OW78910   8.796   5.373   0.417
25659SOL    HW178911   8.895   5.384   0.407
25659SOL    HW278912   8.762   5.440   0.483
25660SOL     OW78913   7.610   5.474   1.850
25660SOL    HW178914   7.554   5.406   1.899
25660SOL    HW278915   7.656   5.533   1.916
25661SOL     OW78916   8.694   4.632   0.620
25661SOL    HW178917   8.777   4.593   0.661
25661SOL    HW278918   8.702   4.628   0.520
25662SOL     OW78919   8.231   4.979   1.393
25662SOL    HW178920   8.218   5.037   1.473
25662SOL    HW278921   8.154   4.990   1.331
25663SOL     OW78922   8.148   5.347   0.206
25663SOL    HW178923   8.182   5.366   0.114
25663SOL    HW278924   8.087   5.267   0.204
25664SOL     OW78925   9.059   5.433   1.415
25664SOL    HW178926   9.104   5.421   1.327
25664SOL    HW278927   9.093   5.516   1.460
25665SOL     OW78928   9.276   3.889   0.997
25665SOL    HW178929   9.305   3.796   0.978
25665SOL    HW278930   9.184   3.904   0.961
25666SOL     OW78931   7.672   4.018   0.687
25666SOL    HW178932   7.589   4.057   0.648
25666SOL    HW278933   7.674   4.036   0.785
25667SOL     OW78934   8.716   5.259   0.036
25667SOL    HW178935   8.675   5.170   0.056
25667SOL    HW278936   8.736   5.266   9.938
25668SOL     OW78937   8.234   4.701   1.408
25668SOL    HW178938   8.279   4.663   1.327
25668SOL    HW278939   8.235   4.801   1.403
25669SOL     OW78940   8.385   4.650   0.294
25669SOL    HW178941   8.441   4.680   0.216
25669SOL    HW278942   8.426   4.568   0.334
25670SOL     OW78943   8.957   5.372   0.121
25670SOL    HW178944   8.881   5.322   0.079
25670SOL    HW278945   9.041   5.355   0.069
25671SOL     OW78946   7.815   5.032   1.467
25671SOL    HW178947   7.800   5.117   1.415
25671SOL    HW278948   7.730   4.979   1.470
25672SOL     OW78949   9.046   5.049   1.282
25672SOL    HW178950   9.103   5.025   1.360
25672SOL    HW278951   8.973   5.111   1.312
25673SOL     OW78952   8.494   4.794   0.722
25673SOL    HW178953   8.421   4.737   0.760
25673SOL    HW278954   8.564   4.735   0.682
25674SOL     OW78955   8.474   4.007   0.915
25674SOL    HW178956   8.485   3.955   0.830
25674SOL    HW278957   8.476   3.944   0.992
25675SOL     OW78958   8.104   5.200   0.521
25675SOL    HW178959   8.148   5.146   0.450
25675SOL    HW278960   8.035   5.260   0.480
25676SOL     OW78961   9.260   4.096   1.434
25676SOL    HW178962   9.315   4.172   1.401
25676SOL    HW278963   9.252   4.026   1.363
25677SOL     OW78964   7.724   5.011   0.261
25677SOL    HW178965   7.636   4.991   0.218
25677SOL    HW278966   7.709   5.060   0.347
25678SOL     OW78967   7.583   4.805   1.755
25678SOL    HW178968   7.492   4.785   1.793
25678SOL    HW278969   7.651   4.748   1.802
25679SOL     OW78970   8.164   3.888   1.471
25679SOL    HW178971   8.245   3.856   1.421
25679SOL    HW278972   8.191   3.919   1.562
25680SOL     OW78973   7.571   3.991   0.017
25680SOL    HW178974   7.489   4.009   9.962
25680SOL    HW278975   7.610   4.078   0.048
25681SOL     OW78976   8.839   4.558   1.338
25681SOL    HW178977   8.787   4.612   1.272
25681SOL    HW278978   8.936   4.559   1.312
25682SOL     OW78979   7.573   3.825   0.236
25682SOL    HW178980   7.566   3.886   0.158
25682SOL    HW278981   7.662   3.778   0.235
25683SOL     OW78982   8.581   5.022   0.121
25683SOL    HW178983   8.485   5.042   0.100
25683SOL    HW278984   8.605   5.065   0.208
25684SOL     OW78985   8.049   4.510   1.480
25684SOL    HW178986   8.110   4.589   1.468
25684SOL    HW278987   8.100   4.426   1.460
25685SOL     OW78988   8.986   5.608   1.095
25685SOL    HW178989   9.012   5.646   1.006
25685SOL    HW278990   9.060   5.551   1.130
25686SOL     OW78991   8.327   4.239   1.641
25686SOL    HW178992   8.326   4.300   1.720
25686SOL    HW278993   8.305   4.146   1.670
25687SOL     OW78994   8.901   4.940   1.568
25687SOL    HW178995   8.872   4.964   1.661
25687SOL    HW278996   8.997   4.966   1.555
25688SOL     OW78997   7.822   5.481   1.573
25688SOL    HW178998   7.733   5.526   1.566
25688SOL    HW278999   7.809   5.387   1.605
25689SOL     OW79000   9.098   4.576   1.253
25689SOL    HW179001   9.104   4.498   1.191
25689SOL    HW279002   9.088   4.660   1.201
25690SOL     OW79003   8.672   4.056   0.425
25690SOL    HW179004   8.736   3.980   0.410
25690SOL    HW279005   8.690   4.096   0.515
25691SOL     OW79006   8.057   4.447   0.522
25691SOL    HW179007   8.079   4.534   0.565
25691SOL    HW279008   7.958   4.433   0.525
25692SOL     OW79009   9.163   4.121   1.688
25692SOL    HW179010   9.201   4.115   1.596
25692SOL    HW279011   9.083   4.062   1.696
25693SOL     OW79012   9.269   4.615   1.465
25693SOL    HW179013   9.311   4.705   1.450
25693SOL    HW279014   9.210   4.593   1.388
25694SOL     OW79015   8.315   5.090   0.084
25694SOL    HW179016   8.234   5.058   0.036
25694SOL    HW279017   8.300   5.085   0.183
25695SOL     OW79018   8.103   5.492   0.971
25695SOL    HW179019   8.067   5.583   0.952
25695SOL    HW279020   8.203   5.493   0.960
25696SOL     OW79021   8.291   4.665   0.865
25696SOL    HW179022   8.348   4.595   0.908
25696SOL    HW279023   8.245   4.719   0.936
25697SOL     OW79024   8.534   4.745   0.086
25697SOL    HW179025   8.554   4.718   9.992
25697SOL    HW279026   8.554   4.843   0.098
25698SOL     OW79027   9.215   5.372   0.842
25698SOL    HW179028   9.179   5.414   0.759
25698SOL    HW279029   9.144   5.316   0.885
25699SOL     OW79030   7.724   5.030   1.840
25699SOL    HW179031   7.667   4.955   1.807
25699SOL    HW279032   7.710   5.043   1.938
25700SOL     OW79033   8.181   5.150   1.601
25700SOL    HW179034   8.096   5.114   1.639
25700SOL    HW279035   8.232   5.198   1.672
25701SOL     OW79036   9.232   3.885   1.268
25701SOL    HW179037   9.233   3.787   1.285
25701SOL    HW279038   9.250   3.903   1.171
25702SOL     OW79039   7.837   4.128   0.490
25702SOL    HW179040   7.877   4.062   0.427
25702SOL    HW279041   7.786   4.080   0.561
25703SOL     OW79042   9.058   5.225   1.058
25703SOL    HW179043   8.958   5.235   1.055
25703SOL    HW279044   9.083   5.150   1.118
25704SOL     OW79045   7.825   4.240   1.321
25704SOL    HW179046   7.873   4.190   1.394
25704SOL    HW279047   7.865   4.215   1.233
25705SOL     OW79048   8.268   5.361   0.682
25705SOL    HW179049   8.265   5.448   0.634
25705SOL    HW279050   8.208   5.295   0.636
25706SOL     OW79051   8.822   3.964   1.123
25706SOL    HW179052   8.802   3.866   1.129
25706SOL    HW279053   8.772   4.013   1.194
25707SOL     OW79054   8.500   3.791   1.097
25707SOL    HW179055   8.455   3.731   1.031
25707SOL    HW279056   8.595   3.763   1.108
25708SOL     OW79057   8.261   5.047   0.350
25708SOL    HW179058   8.232   4.952   0.364
25708SOL    HW279059   8.336   5.069   0.412
25709SOL     OW79060   8.073   5.302   1.253
25709SOL    HW179061   8.063   5.393   1.294
25709SOL    HW279062   8.157   5.300   1.198
25710SOL     OW79063   8.770   3.759   0.104
25710SOL    HW179064   8.767   3.751   0.004
25710SOL    HW279065   8.692   3.712   0.144
25711SOL     OW79066   8.697   4.181   0.665
25711SOL    HW179067   8.643   4.265   0.666
25711SOL    HW279068   8.721   4.156   0.759
25712SOL     OW79069   9.019   3.935   0.920
25712SOL    HW179070   8.954   3.956   0.993
25712SOL    HW279071   9.024   4.013   0.857
25713SOL     OW79072   7.480   4.717   0.360
25713SOL    HW179073   7.578   4.701   0.363
25713SOL    HW279074   7.432   4.629   0.357
25714SOL     OW79075   8.362   5.403   0.368
25714SOL    HW179076   8.286   5.377   0.309
25714SOL    HW279077   8.335   5.480   0.425
25715SOL     OW79078   7.622   4.207   1.973
25715SOL    HW179079   7.539   4.240   2.018
25715SOL    HW279080   7.630   4.251   1.883
25716SOL     OW79081   7.683   4.018   2.851
25716SOL    HW179082   7.735   3.985   2.930
25716SOL    HW279083   7.589   3.984   2.856
25717SOL     OW79084   7.517   4.158   2.460
25717SOL    HW179085   7.427   4.170   2.503
25717SOL    HW279086   7.507   4.103   2.377
25718SOL     OW79087   8.027   5.022   3.141
25718SOL    HW179088   7.945   5.026   3.083
25718SOL    HW279089   8.047   5.113   3.176
25719SOL     OW79090   9.063   5.232   2.545
25719SOL    HW179091   9.013   5.208   2.628
25719SOL    HW279092   9.001   5.234   2.468
25720SOL     OW79093   8.602   4.471   2.660
25720SOL    HW179094   8.599   4.548   2.597
25720SOL    HW279095   8.512   4.457   2.701
25721SOL     OW79096   9.223   4.331   2.090
25721SOL    HW179097   9.200   4.339   1.993
25721SOL    HW279098   9.171   4.256   2.131
25722SOL     OW79099   8.157   4.852   2.975
25722SOL    HW179100   8.106   4.902   3.045
25722SOL    HW279101   8.199   4.916   2.911
25723SOL     OW79102   8.322   4.450   3.636
25723SOL    HW179103   8.356   4.506   3.711
25723SOL    HW279104   8.345   4.493   3.549
25724SOL     OW79105   8.133   4.685   2.473
25724SOL    HW179106   8.199   4.683   2.548
25724SOL    HW279107   8.059   4.749   2.495
25725SOL     OW79108   8.143   4.842   3.732
25725SOL    HW179109   8.216   4.901   3.765
25725SOL    HW279110   8.071   4.898   3.690
25726SOL     OW79111   7.820   5.094   2.972
25726SOL    HW179112   7.747   5.033   2.943
25726SOL    HW279113   7.854   5.145   2.893
25727SOL     OW79114   8.909   5.256   3.199
25727SOL    HW179115   8.963   5.333   3.235
25727SOL    HW279116   8.827   5.244   3.255
25728SOL     OW79117   7.924   4.049   3.302
25728SOL    HW179118   8.007   3.999   3.327
25728SOL    HW279119   7.849   4.022   3.362
25729SOL     OW79120   9.050   4.179   2.599
25729SOL    HW179121   9.018   4.215   2.511
25729SOL    HW279122   9.010   4.233   2.673
25730SOL     OW79123   7.698   5.462   2.340
25730SOL    HW179124   7.721   5.522   2.416
25730SOL    HW279125   7.771   5.466   2.271
25731SOL     OW79126   8.534   5.020   3.557
25731SOL    HW179127   8.628   4.989   3.570
25731SOL    HW279128   8.472   4.942   3.565
25732SOL     OW79129   7.684   5.188   2.350
25732SOL    HW179130   7.683   5.287   2.362
25732SOL    HW279131   7.649   5.144   2.432
25733SOL     OW79132   7.736   4.814   2.704
25733SOL    HW179133   7.745   4.716   2.719
25733SOL    HW279134   7.704   4.858   2.788
25734SOL     OW79135   8.107   5.476   3.406
25734SOL    HW179136   8.013   5.487   3.438
25734SOL    HW279137   8.139   5.561   3.365
25735SOL     OW79138   8.032   4.700   1.991
25735SOL    HW179139   8.080   4.751   1.920
25735SOL    HW279140   8.070   4.723   2.080
25736SOL     OW79141   8.973   3.861   3.229
25736SOL    HW179142   9.064   3.883   3.193
25736SOL    HW279143   8.918   3.944   3.236
25737SOL     OW79144   7.569   4.428   2.427
25737SOL    HW179145   7.556   4.331   2.451
25737SOL    HW279146   7.554   4.484   2.508
25738SOL     OW79147   9.319   5.434   2.193
25738SOL    HW179148   9.396   5.416   2.254
25738SOL    HW279149   9.322   5.529   2.162
25739SOL     OW79150   7.482   5.287   1.991
25739SOL    HW179151   7.452   5.192   2.005
25739SOL    HW279152   7.471   5.338   2.076
25740SOL     OW79153   9.152   4.642   2.549
25740SOL    HW179154   9.235   4.587   2.537
25740SOL    HW279155   9.129   4.687   2.463
25741SOL     OW79156   9.085   4.801   2.330
25741SOL    HW179157   9.157   4.791   2.261
25741SOL    HW279158   9.111   4.872   2.395
25742SOL     OW79159   7.543   4.515   3.392
25742SOL    HW179160   7.599   4.571   3.331
25742SOL    HW279161   7.453   4.557   3.402
25743SOL     OW79162   8.053   5.092   2.581
25743SOL    HW179163   8.015   5.001   2.572
25743SOL    HW279164   8.043   5.142   2.494
25744SOL     OW79165   8.699   4.933   3.292
25744SOL    HW179166   8.720   4.870   3.217
25744SOL    HW279167   8.771   4.926   3.361
25745SOL     OW79168   8.276   3.742   2.372
25745SOL    HW179169   8.329   3.820   2.338
25745SOL    HW279170   8.181   3.770   2.387
25746SOL     OW79171   7.660   4.679   3.208
25746SOL    HW179172   7.746   4.631   3.190
25746SOL    HW279173   7.617   4.703   3.121
25747SOL     OW79174   8.785   5.645   3.470
25747SOL    HW179175   8.720   5.689   3.408
25747SOL    HW279176   8.768   5.546   3.470
25748SOL     OW79177   7.798   3.995   3.747
25748SOL    HW179178   7.838   4.076   3.790
25748SOL    HW279179   7.707   4.018   3.712
25749SOL     OW79180   8.940   5.144   2.770
25749SOL    HW179181   8.866   5.174   2.830
25749SOL    HW279182   8.927   5.047   2.748
25750SOL     OW79183   9.068   5.542   2.393
25750SOL    HW179184   9.061   5.483   2.312
25750SOL    HW279185   9.085   5.485   2.474
25751SOL     OW79186   7.991   4.414   2.081
25751SOL    HW179187   8.014   4.503   2.042
25751SOL    HW279188   7.925   4.425   2.155
25752SOL     OW79189   8.722   4.146   2.824
25752SOL    HW179190   8.637   4.152   2.877
25752SOL    HW279191   8.775   4.067   2.856
25753SOL     OW79192   9.049   5.378   2.176
25753SOL    HW179193   9.148   5.385   2.173
25753SOL    HW279194   9.013   5.372   2.082
25754SOL     OW79195   8.190   4.316   3.324
25754SOL    HW179196   8.175   4.276   3.414
25754SOL    HW279197   8.221   4.246   3.260
25755SOL     OW79198   8.822   4.243   3.515
25755SOL    HW179199   8.804   4.277   3.607
25755SOL    HW279200   8.905   4.187   3.516
25756SOL     OW79201   8.399   4.585   3.398
25756SOL    HW179202   8.454   4.510   3.363
25756SOL    HW279203   8.351   4.630   3.323
25757SOL     OW79204   8.515   4.099   3.007
25757SOL    HW179205   8.432   4.133   3.053
25757SOL    HW279206   8.489   4.030   2.939
25758SOL     OW79207   8.396   4.398   2.230
25758SOL    HW179208   8.472   4.334   2.216
25758SOL    HW279209   8.311   4.346   2.241
25759SOL     OW79210   7.517   4.586   2.650
25759SOL    HW179211   7.602   4.558   2.693
25759SOL    HW279212   7.476   4.662   2.702
25760SOL     OW79213   7.625   5.619   3.440
25760SOL    HW179214   7.587   5.582   3.525
25760SOL    HW279215   7.553   5.624   3.371
25761SOL     OW79216   8.304   4.053   2.056
25761SOL    HW179217   8.367   4.103   1.997
25761SOL    HW279218   8.260   3.980   2.004
25762SOL     OW79219   9.082   4.305   3.717
25762SOL    HW179220   9.083   4.394   3.671
25762SOL    HW279221   9.080   4.232   3.649
25763SOL     OW79222   8.824   4.764   2.272
25763SOL    HW179223   8.921   4.782   2.289
25763SOL    HW279224   8.777   4.851   2.254
25764SOL     OW79225   8.005   3.813   2.745
25764SOL    HW179226   8.007   3.877   2.822
25764SOL    HW279227   8.026   3.862   2.660
25765SOL     OW79228   8.460   5.163   2.311
25765SOL    HW179229   8.441   5.246   2.258
25765SOL    HW279230   8.426   5.175   2.404
25766SOL     OW79231   7.788   5.491   2.795
25766SOL    HW179232   7.830   5.401   2.780
25766SOL    HW279233   7.858   5.555   2.828
25767SOL     OW79234   9.250   4.749   2.785
25767SOL    HW179235   9.205   4.730   2.697
25767SOL    HW279236   9.180   4.772   2.853
25768SOL     OW79237   8.680   5.216   3.324
25768SOL    HW179238   8.668   5.117   3.330
25768SOL    HW279239   8.591   5.259   3.308
25769SOL     OW79240   7.715   4.644   2.145
25769SOL    HW179241   7.734   4.645   2.047
25769SOL    HW279242   7.741   4.555   2.184
25770SOL     OW79243   8.923   4.504   2.586
25770SOL    HW179244   8.918   4.445   2.667
25770SOL    HW279245   9.010   4.554   2.586
25771SOL     OW79246   7.935   5.008   3.619
25771SOL    HW179247   7.913   5.015   3.522
25771SOL    HW279248   7.849   5.005   3.672
25772SOL     OW79249   8.594   5.481   2.092
25772SOL    HW179250   8.505   5.457   2.132
25772SOL    HW279251   8.617   5.415   2.021
25773SOL     OW79252   7.690   3.964   3.416
25773SOL    HW179253   7.655   4.038   3.472
25773SOL    HW279254   7.646   3.878   3.441
25774SOL     OW79255   9.000   5.091   1.941
25774SOL    HW179256   8.981   5.189   1.937
25774SOL    HW279257   8.926   5.040   1.897
25775SOL     OW79258   7.920   5.496   2.176
25775SOL    HW179259   7.964   5.546   2.251
25775SOL    HW279260   7.989   5.446   2.124
25776SOL     OW79261   8.825   3.848   2.327
25776SOL    HW179262   8.820   3.826   2.230
25776SOL    HW279263   8.917   3.828   2.362
25777SOL     OW79264   7.695   5.487   3.065
25777SOL    HW179265   7.743   5.412   3.111
25777SOL    HW279266   7.722   5.489   2.969
25778SOL     OW79267   8.355   5.387   2.722
25778SOL    HW179268   8.444   5.359   2.757
25778SOL    HW279269   8.329   5.328   2.647
25779SOL     OW79270   7.800   4.397   2.285
25779SOL    HW179271   7.815   4.298   2.289
25779SOL    HW279272   7.718   4.420   2.337
25780SOL     OW79273   8.995   3.855   3.623
25780SOL    HW179274   9.030   3.866   3.716
25780SOL    HW279275   9.024   3.766   3.587
25781SOL     OW79276   8.151   3.843   1.947
25781SOL    HW179277   8.212   3.765   1.962
25781SOL    HW279278   8.074   3.815   1.890
25782SOL     OW79279   8.261   3.980   3.603
25782SOL    HW179280   8.351   3.940   3.588
25782SOL    HW279281   8.219   3.940   3.684
25783SOL     OW79282   8.302   5.197   3.082
25783SOL    HW179283   8.273   5.175   2.989
25783SOL    HW279284   8.356   5.122   3.120
25784SOL     OW79285   8.821   4.325   3.255
25784SOL    HW179286   8.823   4.299   3.352
25784SOL    HW279287   8.830   4.425   3.248
25785SOL     OW79288   8.241   5.064   2.823
25785SOL    HW179289   8.334   5.076   2.788
25785SOL    HW279290   8.176   5.082   2.749
25786SOL     OW79291   8.291   4.178   2.714
25786SOL    HW179292   8.278   4.164   2.615
25786SOL    HW279293   8.333   4.097   2.754
25787SOL     OW79294   8.027   3.833   2.392
25787SOL    HW179295   7.936   3.806   2.423
25787SOL    HW279296   8.019   3.891   2.311
25788SOL     OW79297   8.787   4.954   1.826
25788SOL    HW179298   8.794   4.855   1.836
25788SOL    HW279299   8.724   4.990   1.895
25789SOL     OW79300   8.402   3.963   2.294
25789SOL    HW179301   8.373   3.997   2.205
25789SOL    HW279302   8.496   3.994   2.312
25790SOL     OW79303   8.534   4.375   3.273
25790SOL    HW179304   8.519   4.301   3.339
25790SOL    HW279305   8.629   4.375   3.243
25791SOL     OW79306   8.639   5.313   2.675
25791SOL    HW179307   8.668   5.347   2.586
25791SOL    HW279308   8.673   5.373   2.747
25792SOL     OW79309   7.926   4.859   2.519
25792SOL    HW179310   7.863   4.840   2.594
25792SOL    HW279311   7.876   4.864   2.433
25793SOL     OW79312   8.710   5.457   2.440
25793SOL    HW179313   8.755   5.533   2.393
25793SOL    HW279314   8.617   5.484   2.465
25794SOL     OW79315   8.481   4.211   1.924
25794SOL    HW179316   8.440   4.299   1.897
25794SOL    HW279317   8.530   4.222   2.010
25795SOL     OW79318   7.577   4.299   3.228
25795SOL    HW179319   7.674   4.281   3.216
25795SOL    HW279320   7.564   4.370   3.298
25796SOL     OW79321   8.251   4.130   2.453
25796SOL    HW179322   8.206   4.188   2.385
25796SOL    HW279323   8.306   4.061   2.407
25797SOL     OW79324   8.456   3.753   2.590
25797SOL    HW179325   8.395   3.762   2.512
25797SOL    HW279326   8.423   3.681   2.650
25798SOL     OW79327   8.947   4.880   2.699
25798SOL    HW179328   8.876   4.824   2.655
25798SOL    HW279329   9.022   4.896   2.635
25799SOL     OW79330   8.920   4.330   2.797
25799SOL    HW179331   8.841   4.269   2.804
25799SOL    HW279332   8.967   4.334   2.885
25800SOL     OW79333   9.298   4.513   2.279
25800SOL    HW179334   9.357   4.466   2.344
25800SOL    HW279335   9.260   4.446   2.214
25801SOL     OW79336   7.957   5.142   2.059
25801SOL    HW179337   7.859   5.123   2.068
25801SOL    HW279338   8.007   5.056   2.051
25802SOL     OW79339   9.161   4.966   2.531
25802SOL    HW179340   9.259   4.945   2.528
25802SOL    HW279341   9.148   5.065   2.529
25803SOL     OW79342   8.913   4.452   1.919
25803SOL    HW179343   8.903   4.470   2.017
25803SOL    HW279344   9.005   4.415   1.902
25804SOL     OW79345   8.026   3.988   2.157
25804SOL    HW179346   8.081   3.931   2.096
25804SOL    HW279347   7.975   4.055   2.103
25805SOL     OW79348   9.148   4.992   3.400
25805SOL    HW179349   9.226   4.930   3.395
25805SOL    HW279350   9.178   5.081   3.435
25806SOL     OW79351   8.449   5.001   3.201
25806SOL    HW179352   8.371   4.980   3.260
25806SOL    HW279353   8.534   4.973   3.247
25807SOL     OW79354   9.059   5.370   3.550
25807SOL    HW179355   9.041   5.408   3.459
25807SOL    HW279356   9.141   5.312   3.546
25808SOL     OW79357   8.606   5.001   2.976
25808SOL    HW179358   8.540   5.002   3.051
25808SOL    HW279359   8.560   5.025   2.891
25809SOL     OW79360   9.053   4.822   2.958
25809SOL    HW179361   9.047   4.897   3.024
25809SOL    HW279362   8.994   4.842   2.880
25810SOL     OW79363   8.375   3.765   3.231
25810SOL    HW179364   8.382   3.732   3.137
25810SOL    HW279365   8.460   3.811   3.257
25811SOL     OW79366   8.378   4.794   3.577
25811SOL    HW179367   8.282   4.800   3.604
25811SOL    HW279368   8.390   4.720   3.510
25812SOL     OW79369   8.182   4.769   2.215
25812SOL    HW179370   8.168   4.733   2.307
25812SOL    HW279371   8.245   4.710   2.165
25813SOL     OW79372   7.882   4.532   3.158
25813SOL    HW179373   7.948   4.545   3.232
25813SOL    HW279374   7.861   4.435   3.149
25814SOL     OW79375   8.744   4.078   3.158
25814SOL    HW179376   8.771   4.167   3.194
25814SOL    HW279377   8.658   4.088   3.108
25815SOL     OW79378   7.527   5.273   3.236
25815SOL    HW179379   7.479   5.331   3.170
25815SOL    HW279380   7.626   5.288   3.227
25816SOL     OW79381   7.756   4.866   2.300
25816SOL    HW179382   7.747   4.941   2.233
25816SOL    HW279383   7.749   4.778   2.253
25817SOL     OW79384   8.021   4.282   2.712
25817SOL    HW179385   8.014   4.339   2.630
25817SOL    HW279386   8.112   4.241   2.717
25818SOL     OW79387   8.703   5.036   2.261
25818SOL    HW179388   8.775   5.100   2.289
25818SOL    HW279389   8.614   5.070   2.291
25819SOL     OW79390   8.770   5.220   2.970
25819SOL    HW179391   8.822   5.232   3.056
25819SOL    HW279392   8.710   5.141   2.979
25820SOL     OW79393   8.980   4.347   2.371
25820SOL    HW179394   8.954   4.397   2.453
25820SOL    HW279395   8.957   4.400   2.290
25821SOL     OW79396   7.805   5.263   3.182
25821SOL    HW179397   7.801   5.198   3.106
25821SOL    HW279398   7.900   5.281   3.206
25822SOL     OW79399   7.932   4.418   3.547
25822SOL    HW179400   7.975   4.475   3.477
25822SOL    HW279401   7.996   4.346   3.575
25823SOL     OW79402   9.072   4.544   3.583
25823SOL    HW179403   8.979   4.576   3.565
25823SOL    HW279404   9.130   4.562   3.503
25824SOL     OW79405   8.503   3.861   3.560
25824SOL    HW179406   8.586   3.898   3.603
25824SOL    HW279407   8.520   3.767   3.531
25825SOL     OW79408   7.943   3.787   3.645
25825SOL    HW179409   7.890   3.727   3.585
25825SOL    HW279410   7.889   3.867   3.669
25826SOL     OW79411   7.949   4.665   2.927
25826SOL    HW179412   8.024   4.731   2.940
25826SOL    HW279413   7.930   4.619   3.013
25827SOL     OW79414   8.754   4.562   2.875
25827SOL    HW179415   8.692   4.537   2.801
25827SOL    HW279416   8.830   4.498   2.878
25828SOL     OW79417   7.793   3.919   3.085
25828SOL    HW179418   7.802   3.955   3.178
25828SOL    HW279419   7.751   3.829   3.088
25829SOL     OW79420   7.536   5.011   3.160
25829SOL    HW179421   7.550   4.958   3.244
25829SOL    HW279422   7.522   5.108   3.183
25830SOL     OW79423   9.176   4.734   3.757
25830SOL    HW179424   9.144   4.659   3.698
25830SOL    HW279425   9.107   4.754   3.826
25831SOL     OW79426   7.781   3.771   2.501
25831SOL    HW179427   7.755   3.865   2.523
25831SOL    HW279428   7.785   3.717   2.585
25832SOL     OW79429   9.059   4.141   2.203
25832SOL    HW179430   9.116   4.073   2.248
25832SOL    HW279431   9.024   4.206   2.270
25833SOL     OW79432   8.366   4.431   2.793
25833SOL    HW179433   8.366   4.433   2.893
25833SOL    HW279434   8.335   4.342   2.761
25834SOL     OW79435   8.470   5.282   3.549
25834SOL    HW179436   8.459   5.311   3.454
25834SOL    HW279437   8.488   5.183   3.552
25835SOL     OW79438   9.284   5.224   3.462
25835SOL    HW179439   9.300   5.246   3.365
25835SOL    HW279440   9.369   5.235   3.513
25836SOL     OW79441   7.805   4.634   3.678
25836SOL    HW179442   7.882   4.698   3.665
25836SOL    HW279443   7.831   4.544   3.644
25837SOL     OW79444   8.944   4.008   1.983
25837SOL    HW179445   8.895   3.928   2.019
25837SOL    HW279446   8.985   4.059   2.058
25838SOL     OW79447   8.792   4.679   1.833
25838SOL    HW179448   8.832   4.599   1.878
25838SOL    HW279449   8.811   4.676   1.735
25839SOL     OW79450   8.498   5.085   2.740
25839SOL    HW179451   8.513   5.003   2.685
25839SOL    HW279452   8.554   5.159   2.705
25840SOL     OW79453   7.762   4.544   2.775
25840SOL    HW179454   7.835   4.589   2.825
25840SOL    HW279455   7.768   4.445   2.789
25841SOL     OW79456   7.790   4.270   2.852
25841SOL    HW179457   7.751   4.178   2.844
25841SOL    HW279458   7.878   4.273   2.804
25842SOL     OW79459   8.558   4.175   3.460
25842SOL    HW179460   8.507   4.141   3.539
25842SOL    HW279461   8.654   4.189   3.485
25843SOL     OW79462   8.611   3.880   3.300
25843SOL    HW179463   8.581   3.915   3.388
25843SOL    HW279464   8.664   3.950   3.253
25844SOL     OW79465   7.440   4.999   2.054
25844SOL    HW179466   7.352   5.029   2.018
25844SOL    HW279467   7.434   4.902   2.079
25845SOL     OW79468   7.504   5.480   2.812
25845SOL    HW179469   7.452   5.414   2.759
25845SOL    HW279470   7.601   5.473   2.789
25846SOL     OW79471   7.924   5.249   2.769
25846SOL    HW179472   7.997   5.311   2.800
25846SOL    HW279473   7.958   5.190   2.696
25847SOL     OW79474   8.351   4.438   3.076
25847SOL    HW179475   8.423   4.416   3.142
25847SOL    HW279476   8.301   4.519   3.107
25848SOL     OW79477   7.539   4.343   2.962
25848SOL    HW179478   7.624   4.328   2.913
25848SOL    HW279479   7.553   4.330   3.060
25849SOL     OW79480   7.669   4.340   3.568
25849SOL    HW179481   7.767   4.357   3.555
25849SOL    HW279482   7.617   4.405   3.512
25850SOL     OW79483   8.835   4.653   3.503
25850SOL    HW179484   8.852   4.752   3.504
25850SOL    HW279485   8.824   4.623   3.408
25851SOL     OW79486   8.170   4.249   2.214
25851SOL    HW179487   8.198   4.171   2.158
25851SOL    HW279488   8.109   4.308   2.162
25852SOL     OW79489   9.027   4.349   3.044
25852SOL    HW179490   8.971   4.315   3.119
25852SOL    HW279491   9.112   4.298   3.040
25853SOL     OW79492   7.706   5.277   3.591
25853SOL    HW179493   7.657   5.347   3.643
25853SOL    HW279494   7.702   5.190   3.639
25854SOL     OW79495   8.438   5.343   3.281
25854SOL    HW179496   8.388   5.295   3.209
25854SOL    HW279497   8.440   5.441   3.260
25855SOL     OW79498   7.892   4.169   1.994
25855SOL    HW179499   7.933   4.258   2.012
25855SOL    HW279500   7.792   4.178   1.998
25856SOL     OW79501   7.581   4.869   3.389
25856SOL    HW179502   7.582   4.841   3.485
25856SOL    HW279503   7.615   4.793   3.332
25857SOL     OW79504   8.722   4.765   3.059
25857SOL    HW179505   8.730   4.694   2.989
25857SOL    HW279506   8.685   4.848   3.018
25858SOL     OW79507   9.184   5.448   3.032
25858SOL    HW179508   9.260   5.488   2.981
25858SOL    HW279509   9.163   5.358   2.995
25859SOL     OW79510   8.718   5.474   2.890
25859SOL    HW179511   8.802   5.528   2.899
25859SOL    HW279512   8.734   5.383   2.928
25860SOL     OW79513   7.609   4.927   2.917
25860SOL    HW179514   7.578   4.958   3.007
25860SOL    HW279515   7.532   4.883   2.869
25861SOL     OW79516   8.225   5.373   3.628
25861SOL    HW179517   8.185   5.417   3.548
25861SOL    HW279518   8.322   5.354   3.611
25862SOL     OW79519   9.222   3.959   2.322
25862SOL    HW179520   9.282   3.932   2.247
25862SOL    HW279521   9.169   3.880   2.353
25863SOL     OW79522   8.872   5.251   2.345
25863SOL    HW179523   8.930   5.290   2.274
25863SOL    HW279524   8.806   5.319   2.375
25864SOL     OW79525   7.572   5.510   3.686
25864SOL    HW179526   7.520   5.439   3.735
25864SOL    HW279527   7.623   5.565   3.752
25865SOL     OW79528   8.739   4.697   2.528
25865SOL    HW179529   8.798   4.621   2.555
25865SOL    HW279530   8.757   4.723   2.434
25866SOL     OW79531   8.216   4.953   3.337
25866SOL    HW179532   8.214   5.006   3.422
25866SOL    HW279533   8.136   4.976   3.282
25867SOL     OW79534   8.118   5.361   2.039
25867SOL    HW179535   8.132   5.391   1.945
25867SOL    HW279536   8.062   5.278   2.039
25868SOL     OW79537   9.063   5.467   3.280
25868SOL    HW179538   9.106   5.465   3.190
25868SOL    HW279539   9.085   5.553   3.325
25869SOL     OW79540   9.275   3.888   2.857
25869SOL    HW179541   9.315   3.800   2.831
25869SOL    HW279542   9.192   3.904   2.803
25870SOL     OW79543   7.728   4.029   2.576
25870SOL    HW179544   7.649   4.080   2.541
25870SOL    HW279545   7.725   4.026   2.676
25871SOL     OW79546   8.667   5.303   1.898
25871SOL    HW179547   8.645   5.212   1.933
25871SOL    HW279548   8.600   5.328   1.827
25872SOL     OW79549   8.248   4.717   3.205
25872SOL    HW179550   8.231   4.745   3.111
25872SOL    HW279551   8.245   4.798   3.265
25873SOL     OW79552   8.342   4.604   2.070
25873SOL    HW179553   8.423   4.649   2.035
25873SOL    HW279554   8.368   4.532   2.135
25874SOL     OW79555   8.931   5.367   1.923
25874SOL    HW179556   8.835   5.347   1.907
25874SOL    HW279557   8.980   5.367   1.836
25875SOL     OW79558   7.815   5.037   3.379
25875SOL    HW179559   7.800   5.119   3.324
25875SOL    HW279560   7.731   4.983   3.381
25876SOL     OW79561   9.049   5.031   3.142
25876SOL    HW179562   9.088   5.003   3.230
25876SOL    HW279563   8.990   5.110   3.156
25877SOL     OW79564   8.521   4.845   2.620
25877SOL    HW179565   8.445   4.783   2.639
25877SOL    HW279566   8.599   4.793   2.586
25878SOL     OW79567   8.435   3.920   2.818
25878SOL    HW179568   8.454   3.887   2.725
25878SOL    HW279569   8.430   3.843   2.881
25879SOL     OW79570   8.053   5.203   2.333
25879SOL    HW179571   8.117   5.145   2.282
25879SOL    HW279572   7.977   5.230   2.275
25880SOL     OW79573   9.242   4.081   3.323
25880SOL    HW179574   9.294   4.161   3.291
25880SOL    HW279575   9.232   4.016   3.248
25881SOL     OW79576   7.693   5.066   2.115
25881SOL    HW179577   7.599   5.042   2.091
25881SOL    HW279578   7.693   5.121   2.198
25882SOL     OW79579   7.576   4.792   3.650
25882SOL    HW179580   7.491   4.766   3.696
25882SOL    HW279581   7.645   4.722   3.667
25883SOL     OW79582   8.155   3.890   3.360
25883SOL    HW179583   8.232   3.854   3.308
25883SOL    HW279584   8.188   3.928   3.447
25884SOL     OW79585   7.438   3.998   1.926
25884SOL    HW179586   7.388   4.022   1.843
25884SOL    HW279587   7.515   4.060   1.939
25885SOL     OW79588   8.843   4.595   3.235
25885SOL    HW179589   8.784   4.652   3.178
25885SOL    HW279590   8.938   4.604   3.206
25886SOL     OW79591   7.417   3.914   2.185
25886SOL    HW179592   7.403   3.941   2.090
25886SOL    HW279593   7.514   3.921   2.208
25887SOL     OW79594   8.609   5.056   2.000
25887SOL    HW179595   8.512   5.032   1.991
25887SOL    HW279596   8.639   5.040   2.094
25888SOL     OW79597   8.072   4.552   3.346
25888SOL    HW179598   8.130   4.624   3.307
25888SOL    HW279599   8.118   4.464   3.339
25889SOL     OW79600   8.948   5.627   2.919
25889SOL    HW179601   8.989   5.675   2.841
25889SOL    HW279602   9.019   5.578   2.969
25890SOL     OW79603   8.154   4.241   3.582
25890SOL    HW179604   8.217   4.311   3.616
25890SOL    HW279605   8.193   4.151   3.599
25891SOL     OW79606   8.892   4.919   3.491
25891SOL    HW179607   8.881   4.941   3.588
25891SOL    HW279608   8.983   4.950   3.461
25892SOL     OW79609   7.855   5.497   3.503
25892SOL    HW179610   7.777   5.549   3.470
25892SOL    HW279611   7.825   5.406   3.533
25893SOL     OW79612   9.092   4.605   3.125
25893SOL    HW179613   9.078   4.518   3.078
25893SOL    HW279614   9.082   4.680   3.059
25894SOL     OW79615   8.652   4.062   2.346
25894SOL    HW179616   8.717   3.986   2.345
25894SOL    HW279617   8.666   4.117   2.428
25895SOL     OW79618   8.003   4.438   2.488
25895SOL    HW179619   8.055   4.522   2.478
25895SOL    HW279620   7.935   4.432   2.415
25896SOL     OW79621   9.059   4.104   3.527
25896SOL    HW179622   9.125   4.100   3.452
25896SOL    HW279623   9.034   4.012   3.555
25897SOL     OW79624   9.221   4.614   3.365
25897SOL    HW179625   9.266   4.703   3.366
25897SOL    HW279626   9.174   4.601   3.278
25898SOL     OW79627   8.319   5.074   1.944
25898SOL    HW179628   8.284   5.093   2.036
25898SOL    HW279629   8.342   5.160   1.898
25899SOL     OW79630   8.107   5.432   2.832
25899SOL    HW179631   8.085   5.526   2.855
25899SOL    HW279632   8.202   5.426   2.802
25900SOL     OW79633   8.301   4.681   2.698
25900SOL    HW179634   8.321   4.587   2.724
25900SOL    HW279635   8.251   4.727   2.772
25901SOL     OW79636   8.547   4.726   1.946
25901SOL    HW179637   8.498   4.774   1.873
25901SOL    HW279638   8.639   4.703   1.914
25902SOL     OW79639   9.277   5.303   2.712
25902SOL    HW179640   9.214   5.284   2.637
25902SOL    HW279641   9.248   5.254   2.794
25903SOL     OW79642   7.689   5.031   3.724
25903SOL    HW179643   7.636   4.950   3.700
25903SOL    HW279644   7.680   5.050   3.822
25904SOL     OW79645   7.590   4.952   2.510
25904SOL    HW179646   7.633   4.907   2.588
25904SOL    HW279647   7.636   4.924   2.426
25905SOL     OW79648   8.183   5.107   3.569
25905SOL    HW179649   8.088   5.080   3.587
25905SOL    HW279650   8.193   5.205   3.584
25906SOL     OW79651   9.232   3.884   3.131
25906SOL    HW179652   9.294   3.809   3.151
25906SOL    HW279653   9.235   3.904   3.033
25907SOL     OW79654   7.838   4.119   2.331
25907SOL    HW179655   7.933   4.097   2.309
25907SOL    HW279656   7.820   4.096   2.427
25908SOL     OW79657   9.147   5.198   2.935
25908SOL    HW179658   9.071   5.180   2.872
25908SOL    HW279659   9.143   5.132   3.010
25909SOL     OW79660   7.836   4.263   3.149
25909SOL    HW179661   7.878   4.191   3.203
25909SOL    HW279662   7.841   4.240   3.052
25910SOL     OW79663   8.280   5.237   2.512
25910SOL    HW179664   8.238   5.286   2.436
25910SOL    HW279665   8.216   5.169   2.547
25911SOL     OW79666   8.866   3.954   2.947
25911SOL    HW179667   8.883   3.856   2.958
25911SOL    HW279668   8.828   3.990   3.032
25912SOL     OW79669   8.448   3.684   2.967
25912SOL    HW179670   8.388   3.612   2.935
25912SOL    HW279671   8.543   3.657   2.955
25913SOL     OW79672   8.232   5.041   2.206
25913SOL    HW179673   8.216   4.942   2.210
25913SOL    HW279674   8.320   5.062   2.248
25914SOL     OW79675   8.078   5.278   3.220
25914SOL    HW179676   8.095   5.346   3.291
25914SOL    HW279677   8.160   5.266   3.165
25915SOL     OW79678   8.818   3.775   2.063
25915SOL    HW179679   8.873   3.707   2.016
25915SOL    HW279680   8.724   3.744   2.072
25916SOL     OW79681   8.689   4.221   2.563
25916SOL    HW179682   8.660   4.316   2.577
25916SOL    HW279683   8.701   4.176   2.651
25917SOL     OW79684   9.039   3.932   2.735
25917SOL    HW179685   8.973   3.952   2.808
25917SOL    HW279686   9.042   4.007   2.670
25918SOL     OW79687   7.455   4.738   2.173
25918SOL    HW179688   7.554   4.723   2.161
25918SOL    HW279689   7.409   4.649   2.181
25919SOL     OW79690   8.346   5.393   2.194
25919SOL    HW179691   8.268   5.375   2.135
25919SOL    HW279692   8.327   5.473   2.252
25920SOL     OW79693   7.657   4.280   3.834
25920SOL    HW179694   7.564   4.275   3.870
25920SOL    HW279695   7.653   4.299   3.736
25921SOL     OW79696   7.634   4.043   4.721
25921SOL    HW179697   7.688   4.020   4.802
25921SOL    HW279698   7.546   3.996   4.725
25922SOL     OW79699   7.421   4.185   4.352
25922SOL    HW179700   7.343   4.173   4.413
25922SOL    HW279701   7.388   4.209   4.260
25923SOL     OW79702   8.017   5.024   4.967
25923SOL    HW179703   7.939   5.020   4.904
25923SOL    HW279704   8.041   5.119   4.984
25924SOL     OW79705   9.062   5.214   4.439
25924SOL    HW179706   9.014   5.176   4.517
25924SOL    HW279707   8.996   5.242   4.369
25925SOL     OW79708   8.559   4.456   4.410
25925SOL    HW179709   8.615   4.535   4.385
25925SOL    HW279710   8.520   4.469   4.501
25926SOL     OW79711   9.241   4.280   3.936
25926SOL    HW179712   9.185   4.298   3.855
25926SOL    HW279713   9.201   4.206   3.989
25927SOL     OW79714   8.172   4.842   4.826
25927SOL    HW179715   8.114   4.886   4.895
25927SOL    HW279716   8.203   4.911   4.760
25928SOL     OW79717   8.270   4.458   5.555
25928SOL    HW179718   8.272   4.513   5.639
25928SOL    HW279719   8.294   4.516   5.477
25929SOL     OW79720   8.173   4.901   5.570
25929SOL    HW179721   8.227   4.972   5.614
25929SOL    HW279722   8.092   4.941   5.528
25930SOL     OW79723   7.810   5.092   4.792
25930SOL    HW179724   7.736   5.034   4.759
25930SOL    HW279725   7.851   5.142   4.715
25931SOL     OW79726   8.889   5.198   5.128
25931SOL    HW179727   8.946   5.276   5.154
25931SOL    HW279728   8.801   5.204   5.177
25932SOL     OW79729   7.921   4.105   5.182
25932SOL    HW179730   8.008   4.056   5.188
25932SOL    HW279731   7.848   4.048   5.219
25933SOL     OW79732   8.944   4.103   4.387
25933SOL    HW179733   8.853   4.140   4.402
25933SOL    HW279734   9.001   4.172   4.343
25934SOL     OW79735   7.689   5.455   4.187
25934SOL    HW179736   7.709   5.521   4.260
25934SOL    HW279737   7.757   5.466   4.114
25935SOL     OW79738   8.561   5.058   5.453
25935SOL    HW179739   8.597   5.063   5.546
25935SOL    HW279740   8.513   4.971   5.441
25936SOL     OW79741   7.780   5.198   4.229
25936SOL    HW179742   7.737   5.288   4.235
25936SOL    HW279743   7.735   5.136   4.294
25937SOL     OW79744   7.815   4.843   4.563
25937SOL    HW179745   7.821   4.743   4.568
25937SOL    HW279746   7.747   4.875   4.629
25938SOL     OW79747   8.045   5.483   5.202
25938SOL    HW179748   7.953   5.480   5.243
25938SOL    HW279749   8.073   5.578   5.192
25939SOL     OW79750   8.072   4.701   3.962
25939SOL    HW179751   8.103   4.738   3.875
25939SOL    HW279752   8.117   4.749   4.037
25940SOL     OW79753   9.146   3.790   5.244
25940SOL    HW179754   9.169   3.840   5.161
25940SOL    HW279755   9.080   3.842   5.298
25941SOL     OW79756   7.565   4.426   4.304
25941SOL    HW179757   7.529   4.339   4.336
25941SOL    HW279758   7.567   4.491   4.380
25942SOL     OW79759   9.310   5.458   4.072
25942SOL    HW179760   9.387   5.443   4.135
25942SOL    HW279761   9.320   5.548   4.029
25943SOL     OW79762   7.476   5.302   3.825
25943SOL    HW179763   7.431   5.213   3.828
25943SOL    HW279764   7.467   5.347   3.914
25944SOL     OW79765   9.132   4.623   4.402
25944SOL    HW179766   9.224   4.620   4.441
25944SOL    HW279767   9.131   4.685   4.324
25945SOL     OW79768   9.122   4.825   4.187
25945SOL    HW179769   9.202   4.797   4.135
25945SOL    HW279770   9.150   4.886   4.261
25946SOL     OW79771   7.537   4.535   5.289
25946SOL    HW179772   7.577   4.606   5.346
25946SOL    HW279773   7.457   4.572   5.242
25947SOL     OW79774   8.645   4.903   5.176
25947SOL    HW179775   8.678   4.842   5.104
25947SOL    HW279776   8.704   4.894   5.257
25948SOL     OW79777   8.276   3.746   4.259
25948SOL    HW179778   8.324   3.828   4.229
25948SOL    HW279779   8.177   3.762   4.256
25949SOL     OW79780   7.662   4.686   5.007
25949SOL    HW179781   7.749   4.637   5.005
25949SOL    HW279782   7.613   4.671   4.921
25950SOL     OW79783   8.984   4.795   3.943
25950SOL    HW179784   8.902   4.741   3.961
25950SOL    HW279785   9.032   4.812   4.030
25951SOL     OW79786   8.625   5.503   5.342
25951SOL    HW179787   8.642   5.571   5.270
25951SOL    HW279788   8.637   5.411   5.304
25952SOL     OW79789   7.811   4.001   5.585
25952SOL    HW179790   7.842   4.077   5.642
25952SOL    HW279791   7.733   4.031   5.530
25953SOL     OW79792   8.949   5.101   4.661
25953SOL    HW179793   8.890   5.141   4.730
25953SOL    HW279794   8.915   5.009   4.638
25954SOL     OW79795   9.075   5.599   4.254
25954SOL    HW179796   9.068   5.529   4.183
25954SOL    HW279797   9.095   5.555   4.342
25955SOL     OW79798   8.024   4.434   4.032
25955SOL    HW179799   8.042   4.527   4.001
25955SOL    HW279800   7.947   4.434   4.096
25956SOL     OW79801   8.699   4.125   4.679
25956SOL    HW179802   8.617   4.068   4.676
25956SOL    HW279803   8.763   4.088   4.745
25957SOL     OW79804   9.039   5.410   4.057
25957SOL    HW179805   9.139   5.410   4.054
25957SOL    HW279806   9.003   5.397   3.964
25958SOL     OW79807   8.231   4.305   5.178
25958SOL    HW179808   8.188   4.271   5.261
25958SOL    HW279809   8.218   4.240   5.104
25959SOL     OW79810   8.828   4.182   5.429
25959SOL    HW179811   8.841   4.219   5.522
25959SOL    HW279812   8.894   4.108   5.413
25960SOL     OW79813   8.368   4.602   5.333
25960SOL    HW179814   8.424   4.534   5.285
25960SOL    HW279815   8.321   4.659   5.265
25961SOL     OW79816   8.471   4.069   4.930
25961SOL    HW179817   8.379   4.105   4.948
25961SOL    HW279818   8.473   4.025   4.840
25962SOL     OW79819   8.475   4.427   4.148
25962SOL    HW179820   8.499   4.429   4.245
25962SOL    HW279821   8.389   4.378   4.137
25963SOL     OW79822   7.562   4.606   4.508
25963SOL    HW179823   7.653   4.593   4.547
25963SOL    HW279824   7.507   4.661   4.569
25964SOL     OW79825   7.549   5.609   5.344
25964SOL    HW179826   7.562   5.568   5.434
25964SOL    HW279827   7.451   5.609   5.322
25965SOL     OW79828   8.286   4.070   3.956
25965SOL    HW179829   8.367   4.085   3.900
25965SOL    HW279830   8.222   4.012   3.907
25966SOL     OW79831   9.117   4.322   5.580
25966SOL    HW179832   9.110   4.407   5.528
25966SOL    HW279833   9.138   4.247   5.517
25967SOL     OW79834   8.848   4.892   4.288
25967SOL    HW179835   8.936   4.882   4.242
25967SOL    HW279836   8.794   4.961   4.241
25968SOL     OW79837   7.983   3.850   4.686
25968SOL    HW179838   8.001   3.893   4.774
25968SOL    HW279839   7.981   3.920   4.614
25969SOL     OW79840   8.440   5.233   4.177
25969SOL    HW179841   8.430   5.304   4.108
25969SOL    HW279842   8.394   5.262   4.262
25970SOL     OW79843   7.806   5.489   4.611
25970SOL    HW179844   7.843   5.397   4.601
25970SOL    HW279845   7.873   5.547   4.657
25971SOL     OW79846   9.257   4.837   4.634
25971SOL    HW179847   9.219   4.879   4.552
25971SOL    HW279848   9.183   4.819   4.699
25972SOL     OW79849   8.636   5.226   5.243
25972SOL    HW179850   8.623   5.165   5.321
25972SOL    HW279851   8.570   5.202   5.172
25973SOL     OW79852   7.803   4.676   3.956
25973SOL    HW179853   7.903   4.684   3.963
25973SOL    HW279854   7.779   4.641   3.866
25974SOL     OW79855   8.908   4.478   4.426
25974SOL    HW179856   8.892   4.439   4.516
25974SOL    HW279857   8.992   4.533   4.427
25975SOL     OW79858   7.924   5.029   5.483
25975SOL    HW179859   7.906   5.030   5.385
25975SOL    HW279860   7.839   5.010   5.533
25976SOL     OW79861   8.554   5.531   3.853
25976SOL    HW179862   8.481   5.506   3.917
25976SOL    HW279863   8.593   5.448   3.813
25977SOL     OW79864   7.700   3.953   5.239
25977SOL    HW179865   7.657   4.010   5.309
25977SOL    HW279866   7.671   3.858   5.252
25978SOL     OW79867   9.044   5.127   3.820
25978SOL    HW179868   9.016   5.223   3.810
25978SOL    HW279869   8.970   5.067   3.791
25979SOL     OW79870   7.900   5.515   4.016
25979SOL    HW179871   7.945   5.562   4.092
25979SOL    HW279872   7.967   5.462   3.964
25980SOL     OW79873   8.850   3.871   4.256
25980SOL    HW179874   8.879   3.844   4.164
25980SOL    HW279875   8.908   3.945   4.289
25981SOL     OW79876   7.674   5.498   4.937
25981SOL    HW179877   7.726   5.416   4.961
25981SOL    HW279878   7.638   5.489   4.844
25982SOL     OW79879   8.371   5.417   4.590
25982SOL    HW179880   8.459   5.370   4.590
25982SOL    HW279881   8.318   5.388   4.511
25983SOL     OW79882   7.831   4.393   4.224
25983SOL    HW179883   7.832   4.293   4.224
25983SOL    HW279884   7.738   4.426   4.240
25984SOL     OW79885   8.961   3.930   5.399
25984SOL    HW179886   8.954   3.926   5.498
25984SOL    HW279887   8.874   3.898   5.359
25985SOL     OW79888   8.133   3.860   3.830
25985SOL    HW179889   8.181   3.776   3.856
25985SOL    HW279890   8.060   3.839   3.765
25986SOL     OW79891   8.201   3.976   5.435
25986SOL    HW179892   8.285   3.924   5.447
25986SOL    HW279893   8.123   3.919   5.461
25987SOL     OW79894   8.286   5.211   4.887
25987SOL    HW179895   8.267   5.156   4.805
25987SOL    HW279896   8.351   5.163   4.945
25988SOL     OW79897   8.734   4.299   5.192
25988SOL    HW179898   8.772   4.273   5.281
25988SOL    HW279899   8.769   4.388   5.165
25989SOL     OW79900   8.241   5.044   4.660
25989SOL    HW179901   8.333   5.058   4.624
25989SOL    HW279902   8.181   5.011   4.586
25990SOL     OW79903   8.367   4.244   4.606
25990SOL    HW179904   8.347   4.228   4.509
25990SOL    HW279905   8.384   4.156   4.650
25991SOL     OW79906   8.011   3.803   4.233
25991SOL    HW179907   7.934   3.802   4.298
25991SOL    HW279908   8.000   3.879   4.170
25992SOL     OW79909   8.844   4.953   3.759
25992SOL    HW179910   8.889   4.890   3.822
25992SOL    HW279911   8.760   4.987   3.802
25993SOL     OW79912   7.704   3.786   3.896
25993SOL    HW179913   7.744   3.863   3.846
25993SOL    HW279914   7.776   3.736   3.944
25994SOL     OW79915   8.402   3.970   4.182
25994SOL    HW179916   8.357   4.005   4.101
25994SOL    HW279917   8.497   3.999   4.183
25995SOL     OW79918   8.481   4.415   5.171
25995SOL    HW179919   8.400   4.357   5.179
25995SOL    HW279920   8.564   4.359   5.179
25996SOL     OW79921   8.629   5.333   4.551
25996SOL    HW179922   8.662   5.380   4.469
25996SOL    HW279923   8.674   5.370   4.632
25997SOL     OW79924   8.694   5.513   4.342
25997SOL    HW179925   8.741   5.577   4.281
25997SOL    HW279926   8.613   5.558   4.380
25998SOL     OW79927   7.566   4.336   5.099
25998SOL    HW179928   7.662   4.317   5.077
25998SOL    HW279929   7.561   4.408   5.167
25999SOL     OW79930   8.017   3.973   4.925
25999SOL    HW179931   8.064   3.956   5.012
25999SOL    HW279932   7.919   3.976   4.941
26000SOL     OW79933   8.319   4.177   4.348
26000SOL    HW179934   8.278   4.229   4.274
26000SOL    HW279935   8.350   4.088   4.314
26001SOL     OW79936   8.467   3.743   4.469
26001SOL    HW179937   8.400   3.752   4.395
26001SOL    HW279938   8.439   3.670   4.531
26002SOL     OW79939   8.864   4.843   4.607
26002SOL    HW179940   8.805   4.768   4.637
26002SOL    HW279941   8.858   4.854   4.508
26003SOL     OW79942   8.853   4.372   4.674
26003SOL    HW179943   8.791   4.294   4.677
26003SOL    HW279944   8.925   4.360   4.742
26004SOL     OW79945   9.258   4.463   4.136
26004SOL    HW179946   9.329   4.442   4.203
26004SOL    HW279947   9.263   4.398   4.061
26005SOL     OW79948   7.947   5.180   3.862
26005SOL    HW179949   7.864   5.154   3.912
26005SOL    HW279950   7.951   5.130   3.776
26006SOL     OW79951   9.202   4.976   4.399
26006SOL    HW179952   9.301   4.983   4.389
26006SOL    HW279953   9.162   5.067   4.405
26007SOL     OW79954   8.805   4.325   3.779
26007SOL    HW179955   8.760   4.303   3.865
26007SOL    HW279956   8.904   4.316   3.790
26008SOL     OW79957   7.972   3.981   4.034
26008SOL    HW179958   8.023   3.931   3.965
26008SOL    HW279959   7.944   4.070   3.997
26009SOL     OW79960   9.241   4.923   5.223
26009SOL    HW179961   9.280   4.898   5.312
26009SOL    HW279962   9.306   4.979   5.173
26010SOL     OW79963   8.450   5.062   5.076
26010SOL    HW179964   8.361   5.048   5.118
26010SOL    HW279965   8.518   5.003   5.120
26011SOL     OW79966   9.052   5.394   5.459
26011SOL    HW179967   9.059   5.390   5.359
26011SOL    HW279968   9.140   5.369   5.499
26012SOL     OW79969   8.601   5.005   4.852
26012SOL    HW179970   8.536   5.027   4.925
26012SOL    HW279971   8.560   5.026   4.763
26013SOL     OW79972   9.050   4.810   4.818
26013SOL    HW179973   9.044   4.880   4.889
26013SOL    HW279974   8.977   4.823   4.752
26014SOL     OW79975   8.424   4.817   5.485
26014SOL    HW179976   8.334   4.847   5.518
26014SOL    HW279977   8.413   4.739   5.424
26015SOL     OW79978   7.892   4.539   4.998
26015SOL    HW179979   7.957   4.550   5.073
26015SOL    HW279980   7.859   4.445   4.995
26016SOL     OW79981   8.703   4.057   5.068
26016SOL    HW179982   8.716   4.145   5.113
26016SOL    HW279983   8.614   4.057   5.021
26017SOL     OW79984   7.521   5.266   5.067
26017SOL    HW179985   7.486   5.350   5.026
26017SOL    HW279986   7.621   5.265   5.062
26018SOL     OW79987   7.697   4.853   4.124
26018SOL    HW179988   7.712   4.937   4.073
26018SOL    HW279989   7.738   4.776   4.076
26019SOL     OW79990   7.977   4.253   4.627
26019SOL    HW179991   7.995   4.292   4.537
26019SOL    HW279992   8.048   4.281   4.691
26020SOL     OW79993   8.692   5.107   4.159
26020SOL    HW179994   8.760   5.173   4.190
26020SOL    HW279995   8.600   5.142   4.177
26021SOL     OW79996   8.798   5.191   4.870
26021SOL    HW179997   8.834   5.195   4.963
26021SOL    HW279998   8.727   5.121   4.865
26022SOL     OW79999   9.044   4.321   4.245
26022SOL    HW180000   8.980   4.374   4.300
26022SOL    HW280001   9.114   4.382   4.208
26023SOL     OW80002   7.790   5.254   5.006
26023SOL    HW180003   7.784   5.191   4.929
26023SOL    HW280004   7.886   5.278   5.022
26024SOL     OW80005   7.925   4.436   5.399
26024SOL    HW180006   7.964   4.487   5.322
26024SOL    HW280007   7.983   4.357   5.420
26025SOL     OW80008   9.075   4.557   5.445
26025SOL    HW180009   8.977   4.567   5.431
26025SOL    HW280010   9.124   4.585   5.363
26026SOL     OW80011   8.428   3.830   5.456
26026SOL    HW180012   8.490   3.907   5.466
26026SOL    HW280013   8.478   3.751   5.419
26027SOL     OW80014   7.991   3.809   5.504
26027SOL    HW180015   7.949   3.734   5.453
26027SOL    HW280016   7.921   3.878   5.526
26028SOL     OW80017   8.036   4.606   4.776
26028SOL    HW180018   8.084   4.694   4.787
26028SOL    HW280019   7.982   4.588   4.859
26029SOL     OW80020   8.726   4.615   4.708
26029SOL    HW180021   8.631   4.589   4.692
26029SOL    HW280022   8.785   4.535   4.697
26030SOL     OW80023   8.646   4.263   4.003
26030SOL    HW180024   8.663   4.194   4.073
26030SOL    HW280025   8.592   4.338   4.042
26031SOL     OW80026   7.747   3.958   4.962
26031SOL    HW180027   7.729   3.981   5.057
26031SOL    HW280028   7.718   3.864   4.943
26032SOL     OW80029   7.538   5.007   4.974
26032SOL    HW180030   7.563   4.951   5.054
26032SOL    HW280031   7.519   5.100   5.003
26033SOL     OW80032   8.178   4.372   4.773
26033SOL    HW180033   8.240   4.354   4.697
26033SOL    HW280034   8.133   4.461   4.759
26034SOL     OW80035   9.193   4.730   5.630
26034SOL    HW180036   9.141   4.663   5.577
26034SOL    HW280037   9.207   4.695   5.723
26035SOL     OW80038   7.782   3.802   4.388
26035SOL    HW180039   7.727   3.884   4.402
26035SOL    HW280040   7.781   3.746   4.471
26036SOL     OW80041   9.113   4.100   4.093
26036SOL    HW180042   9.174   4.052   4.156
26036SOL    HW280043   9.070   4.177   4.142
26037SOL     OW80044   8.476   4.480   4.680
26037SOL    HW180045   8.456   4.495   4.777
26037SOL    HW280046   8.447   4.388   4.654
26038SOL     OW80047   8.419   5.292   5.494
26038SOL    HW180048   8.387   5.347   5.417
26038SOL    HW280049   8.452   5.204   5.461
26039SOL     OW80050   7.839   4.638   5.571
26039SOL    HW180051   7.915   4.672   5.625
26039SOL    HW280052   7.870   4.564   5.511
26040SOL     OW80053   9.070   3.919   3.887
26040SOL    HW180054   9.003   3.855   3.923
26040SOL    HW280055   9.087   3.991   3.954
26041SOL     OW80056   8.700   4.569   3.727
26041SOL    HW180057   8.732   4.475   3.741
26041SOL    HW280058   8.740   4.605   3.643
26042SOL     OW80059   8.508   5.085   4.603
26042SOL    HW180060   8.530   5.007   4.545
26042SOL    HW280061   8.560   5.165   4.572
26043SOL     OW80062   7.802   4.565   4.634
26043SOL    HW180063   7.893   4.579   4.672
26043SOL    HW280064   7.770   4.473   4.656
26044SOL     OW80065   7.727   4.298   4.705
26044SOL    HW180066   7.677   4.211   4.704
26044SOL    HW280067   7.820   4.284   4.672
26045SOL     OW80068   8.587   4.056   5.456
26045SOL    HW180069   8.522   4.119   5.498
26045SOL    HW280070   8.675   4.102   5.446
26046SOL     OW80071   8.711   3.879   5.284
26046SOL    HW180072   8.657   3.935   5.348
26046SOL    HW280073   8.713   3.924   5.195
26047SOL     OW80074   7.446   5.025   3.949
26047SOL    HW180075   7.359   5.055   3.910
26047SOL    HW280076   7.439   4.929   3.976
26048SOL     OW80077   7.546   5.487   4.689
26048SOL    HW180078   7.493   5.417   4.642
26048SOL    HW280079   7.639   5.490   4.652
26049SOL     OW80080   7.930   5.236   4.592
26049SOL    HW180081   8.003   5.294   4.629
26049SOL    HW280082   7.968   5.175   4.522
26050SOL     OW80083   8.386   4.512   4.931
26050SOL    HW180084   8.430   4.489   5.018
26050SOL    HW280085   8.300   4.462   4.923
26051SOL     OW80086   7.494   4.380   4.839
26051SOL    HW180087   7.576   4.365   4.783
26051SOL    HW280088   7.517   4.368   4.935
26052SOL     OW80089   7.667   4.360   5.456
26052SOL    HW180090   7.763   4.380   5.437
26052SOL    HW280091   7.608   4.415   5.396
26053SOL     OW80092   8.812   4.602   5.376
26053SOL    HW180093   8.813   4.701   5.390
26053SOL    HW280094   8.806   4.581   5.278
26054SOL     OW80095   8.239   4.292   4.114
26054SOL    HW180096   8.251   4.213   4.054
26054SOL    HW280097   8.161   4.347   4.083
26055SOL     OW80098   9.034   4.325   4.872
26055SOL    HW180099   8.989   4.253   4.926
26055SOL    HW280100   9.131   4.304   4.862
26056SOL     OW80101   7.667   5.255   5.448
26056SOL    HW180102   7.647   5.327   5.514
26056SOL    HW280103   7.677   5.168   5.496
26057SOL     OW80104   8.214   4.166   4.940
26057SOL    HW180105   8.143   4.097   4.926
26057SOL    HW280106   8.198   4.244   4.879
26058SOL     OW80107   8.304   5.445   5.290
26058SOL    HW180108   8.213   5.436   5.251
26058SOL    HW280109   8.361   5.501   5.229
26059SOL     OW80110   7.901   4.211   3.911
26059SOL    HW180111   7.956   4.289   3.941
26059SOL    HW280112   7.809   4.241   3.890
26060SOL     OW80113   7.602   4.857   5.203
26060SOL    HW180114   7.612   4.818   5.295
26060SOL    HW280115   7.625   4.788   5.135
26061SOL     OW80116   8.708   4.764   4.939
26061SOL    HW180117   8.719   4.704   4.860
26061SOL    HW280118   8.672   4.853   4.909
26062SOL     OW80119   8.753   4.666   3.978
26062SOL    HW180120   8.674   4.656   4.039
26062SOL    HW280121   8.729   4.632   3.887
26063SOL     OW80122   9.156   5.414   4.921
26063SOL    HW180123   9.249   5.450   4.929
26063SOL    HW280124   9.159   5.322   4.880
26064SOL     OW80125   8.735   5.441   4.780
26064SOL    HW180126   8.817   5.498   4.783
26064SOL    HW280127   8.755   5.352   4.820
26065SOL     OW80128   7.607   4.919   4.728
26065SOL    HW180129   7.581   4.949   4.820
26065SOL    HW280130   7.530   4.872   4.685
26066SOL     OW80131   8.141   5.444   5.515
26066SOL    HW180132   8.068   5.510   5.498
26066SOL    HW280133   8.215   5.460   5.450
26067SOL     OW80134   8.869   5.306   4.252
26067SOL    HW180135   8.926   5.340   4.177
26067SOL    HW280136   8.807   5.379   4.282
26068SOL     OW80137   7.596   5.490   5.583
26068SOL    HW180138   7.538   5.427   5.634
26068SOL    HW280139   7.648   5.547   5.647
26069SOL     OW80140   8.722   4.666   4.361
26069SOL    HW180141   8.792   4.597   4.379
26069SOL    HW280142   8.764   4.748   4.323
26070SOL     OW80143   8.201   5.013   5.179
26070SOL    HW180144   8.183   5.073   5.256
26070SOL    HW280145   8.124   5.014   5.116
26071SOL     OW80146   8.114   5.394   3.876
26071SOL    HW180147   8.156   5.396   3.786
26071SOL    HW280148   8.058   5.312   3.885
26072SOL     OW80149   9.051   5.415   5.176
26072SOL    HW180150   9.089   5.411   5.084
26072SOL    HW280151   9.041   5.510   5.204
26073SOL     OW80152   9.257   3.914   4.735
26073SOL    HW180153   9.300   3.832   4.698
26073SOL    HW280154   9.174   3.934   4.684
26074SOL     OW80155   7.642   4.031   4.437
26074SOL    HW180156   7.564   4.083   4.402
26074SOL    HW280157   7.647   4.042   4.536
26075SOL     OW80158   8.663   5.302   3.748
26075SOL    HW180159   8.654   5.215   3.798
26075SOL    HW280160   8.603   5.300   3.668
26076SOL     OW80161   8.248   4.746   5.135
26076SOL    HW180162   8.281   4.740   5.041
26076SOL    HW280163   8.232   4.842   5.160
26077SOL     OW80164   8.389   4.675   4.066
26077SOL    HW180165   8.403   4.677   3.967
26077SOL    HW280166   8.421   4.588   4.103
26078SOL     OW80167   8.926   5.385   3.790
26078SOL    HW180168   8.833   5.353   3.772
26078SOL    HW280169   8.977   5.390   3.704
26079SOL     OW80170   7.824   5.036   5.231
26079SOL    HW180171   7.825   5.105   5.159
26079SOL    HW280172   7.747   4.973   5.216
26080SOL     OW80173   9.065   5.007   5.025
26080SOL    HW180174   9.122   4.971   5.099
26080SOL    HW280175   8.996   5.069   5.063
26081SOL     OW80176   8.541   4.852   4.473
26081SOL    HW180177   8.472   4.806   4.528
26081SOL    HW280178   8.599   4.784   4.428
26082SOL     OW80179   8.486   3.938   4.683
26082SOL    HW180180   8.486   3.902   4.589
26082SOL    HW280181   8.473   3.863   4.748
26083SOL     OW80182   8.056   5.241   4.216
26083SOL    HW180183   8.100   5.185   4.146
26083SOL    HW280184   7.958   5.224   4.217
26084SOL     OW80185   9.291   4.123   5.182
26084SOL    HW180186   9.331   4.207   5.147
26084SOL    HW280187   9.264   4.065   5.106
26085SOL     OW80188   7.705   5.096   3.991
26085SOL    HW180189   7.605   5.088   3.986
26085SOL    HW280190   7.731   5.141   4.076
26086SOL     OW80191   7.614   4.744   5.456
26086SOL    HW180192   7.532   4.728   5.511
26086SOL    HW280193   7.694   4.706   5.502
26087SOL     OW80194   8.154   3.954   5.165
26087SOL    HW180195   8.214   3.887   5.121
26087SOL    HW280196   8.184   3.968   5.259
26088SOL     OW80197   7.535   4.022   3.670
26088SOL    HW180198   7.496   3.982   3.753
26088SOL    HW280199   7.463   4.063   3.616
26089SOL     OW80200   8.815   4.558   5.108
26089SOL    HW180201   8.755   4.620   5.057
26089SOL    HW280202   8.908   4.563   5.070
26090SOL     OW80203   8.624   5.063   3.883
26090SOL    HW180204   8.529   5.034   3.867
26090SOL    HW280205   8.642   5.066   3.981
26091SOL     OW80206   8.080   4.537   5.190
26091SOL    HW180207   8.135   4.620   5.178
26091SOL    HW280208   8.139   4.457   5.187
26092SOL     OW80209   8.973   5.580   4.793
26092SOL    HW180210   9.020   5.621   4.715
26092SOL    HW280211   9.037   5.523   4.845
26093SOL     OW80212   8.130   4.249   5.428
26093SOL    HW180213   8.180   4.312   5.487
26093SOL    HW280214   8.159   4.156   5.447
26094SOL     OW80215   8.841   4.875   5.389
26094SOL    HW180216   8.834   4.901   5.485
26094SOL    HW280217   8.917   4.923   5.346
26095SOL     OW80218   7.796   5.476   5.326
26095SOL    HW180219   7.713   5.529   5.309
26095SOL    HW280220   7.772   5.384   5.357
26096SOL     OW80221   9.058   4.583   4.982
26096SOL    HW180222   9.057   4.495   4.933
26096SOL    HW280223   9.061   4.658   4.917
26097SOL     OW80224   8.659   4.065   4.198
26097SOL    HW180225   8.719   3.986   4.211
26097SOL    HW280226   8.663   4.123   4.279
26098SOL     OW80227   8.040   4.386   4.400
26098SOL    HW180228   8.123   4.390   4.344
26098SOL    HW280229   7.960   4.398   4.342
26099SOL     OW80230   9.170   4.108   5.421
26099SOL    HW180231   9.214   4.117   5.331
26099SOL    HW280232   9.101   4.036   5.416
26100SOL     OW80233   9.194   4.648   5.213
26100SOL    HW180234   9.205   4.747   5.211
26100SOL    HW280235   9.149   4.617   5.130
26101SOL     OW80236   8.337   5.025   3.818
26101SOL    HW180237   8.291   5.060   3.900
26101SOL    HW280238   8.313   5.082   3.740
26102SOL     OW80239   8.106   5.417   4.679
26102SOL    HW180240   8.079   5.512   4.698
26102SOL    HW280241   8.205   5.411   4.673
26103SOL     OW80242   8.363   4.727   4.635
26103SOL    HW180243   8.395   4.634   4.651
26103SOL    HW280244   8.299   4.754   4.707
26104SOL     OW80245   8.452   4.650   3.798
26104SOL    HW180246   8.425   4.719   3.731
26104SOL    HW280247   8.543   4.615   3.775
26105SOL     OW80248   9.276   5.308   4.597
26105SOL    HW180249   9.210   5.286   4.526
26105SOL    HW280250   9.259   5.250   4.677
26106SOL     OW80251   7.666   4.998   5.563
26106SOL    HW180252   7.648   4.915   5.510
26106SOL    HW280253   7.606   5.000   5.643
26107SOL     OW80254   7.661   4.985   4.363
26107SOL    HW180255   7.710   4.940   4.438
26107SOL    HW280256   7.667   4.928   4.281
26108SOL     OW80257   8.133   5.179   5.388
26108SOL    HW180258   8.053   5.134   5.428
26108SOL    HW280259   8.145   5.269   5.429
26109SOL     OW80260   9.253   3.909   5.010
26109SOL    HW180261   9.346   3.875   5.024
26109SOL    HW280262   9.235   3.920   4.912
26110SOL     OW80263   7.823   4.127   4.241
26110SOL    HW180264   7.858   4.058   4.177
26110SOL    HW280265   7.763   4.082   4.308
26111SOL     OW80266   9.167   5.158   4.815
26111SOL    HW180267   9.096   5.138   4.748
26111SOL    HW280268   9.150   5.104   4.898
26112SOL     OW80269   7.816   4.281   5.008
26112SOL    HW180270   7.861   4.221   5.074
26112SOL    HW280271   7.813   4.237   4.918
26113SOL     OW80272   8.257   5.367   4.347
26113SOL    HW180273   8.259   5.459   4.307
26113SOL    HW280274   8.178   5.317   4.311
26114SOL     OW80275   8.865   4.003   4.855
26114SOL    HW180276   8.887   3.905   4.851
26114SOL    HW280277   8.813   4.021   4.939
26115SOL     OW80278   8.450   3.703   4.828
26115SOL    HW180279   8.400   3.650   4.761
26115SOL    HW280280   8.546   3.673   4.830
26116SOL     OW80281   8.235   5.082   4.066
26116SOL    HW180282   8.224   4.988   4.098
26116SOL    HW280283   8.314   5.124   4.111
26117SOL     OW80284   8.059   5.286   5.018
26117SOL    HW180285   8.065   5.360   5.085
26117SOL    HW280286   8.144   5.281   4.966
26118SOL     OW80287   8.877   3.756   4.009
26118SOL    HW180288   8.930   3.671   4.015
26118SOL    HW280289   8.780   3.733   3.994
26119SOL     OW80290   8.692   4.212   4.421
26119SOL    HW180291   8.648   4.301   4.412
26119SOL    HW280292   8.688   4.183   4.517
26120SOL     OW80293   9.017   3.961   4.617
26120SOL    HW180294   8.964   4.003   4.690
26120SOL    HW280295   8.996   4.007   4.530
26121SOL     OW80296   7.445   4.768   4.060
26121SOL    HW180297   7.539   4.790   4.088
26121SOL    HW280298   7.436   4.669   4.051
26122SOL     OW80299   8.348   5.447   4.020
26122SOL    HW180300   8.265   5.417   3.972
26122SOL    HW280301   8.323   5.509   4.094
26123SOL     OW80302   7.628   4.357   5.732
26123SOL    HW180303   7.534   4.331   5.755
26123SOL    HW280304   7.637   4.364   5.632
26124SOL     OW80305   7.663   4.006   6.597
26124SOL    HW180306   7.712   3.980   6.681
26124SOL    HW280307   7.571   3.967   6.599
26125SOL     OW80308   7.457   4.102   6.218
26125SOL    HW180309   7.378   4.134   6.271
26125SOL    HW280310   7.427   4.032   6.154
26126SOL     OW80311   7.996   5.011   6.791
26126SOL    HW180312   7.929   5.001   6.717
26126SOL    HW280313   8.004   5.108   6.816
26127SOL     OW80314   9.059   5.200   6.267
26127SOL    HW180315   9.009   5.164   6.346
26127SOL    HW280316   8.994   5.233   6.199
26128SOL     OW80317   8.538   4.467   6.232
26128SOL    HW180318   8.594   4.549   6.216
26128SOL    HW280319   8.502   4.469   6.325
26129SOL     OW80320   9.263   4.246   5.794
26129SOL    HW180321   9.210   4.280   5.717
26129SOL    HW280322   9.229   4.156   5.822
26130SOL     OW80323   8.165   4.842   6.642
26130SOL    HW180324   8.104   4.878   6.713
26130SOL    HW280325   8.200   4.918   6.587
26131SOL     OW80326   8.347   4.435   7.373
26131SOL    HW180327   8.382   4.495   7.445
26131SOL    HW280328   8.347   4.485   7.286
26132SOL     OW80329   8.128   4.704   6.214
26132SOL    HW180330   8.196   4.710   6.288
26132SOL    HW280331   8.054   4.770   6.231
26133SOL     OW80332   8.203   4.900   7.446
26133SOL    HW180333   8.226   4.967   7.517
26133SOL    HW280334   8.170   4.947   7.365
26134SOL     OW80335   7.806   5.034   6.596
26134SOL    HW180336   7.731   5.047   6.661
26134SOL    HW280337   7.831   5.123   6.557
26135SOL     OW80338   8.917   5.221   6.942
26135SOL    HW180339   8.966   5.307   6.959
26135SOL    HW280340   8.879   5.187   7.028
26136SOL     OW80341   7.919   4.106   7.071
26136SOL    HW180342   7.997   4.076   7.126
26136SOL    HW280343   7.838   4.053   7.096
26137SOL     OW80344   9.130   4.200   6.311
26137SOL    HW180345   9.094   4.224   6.220
26137SOL    HW280346   9.135   4.282   6.367
26138SOL     OW80347   7.689   5.485   6.060
26138SOL    HW180348   7.712   5.554   6.128
26138SOL    HW280349   7.763   5.478   5.993
26139SOL     OW80350   8.553   5.046   7.157
26139SOL    HW180351   8.630   5.008   7.105
26139SOL    HW280352   8.513   4.975   7.214
26140SOL     OW80353   7.649   5.214   6.097
26140SOL    HW180354   7.662   5.313   6.093
26140SOL    HW280355   7.586   5.192   6.172
26141SOL     OW80356   7.692   4.857   6.430
26141SOL    HW180357   7.721   4.763   6.449
26141SOL    HW280358   7.741   4.919   6.491
26142SOL     OW80359   8.019   5.469   7.054
26142SOL    HW180360   7.931   5.466   7.100
26142SOL    HW280361   8.049   5.564   7.045
26143SOL     OW80362   8.041   4.716   5.733
26143SOL    HW180363   8.095   4.768   5.666
26143SOL    HW280364   8.068   4.743   5.825
26144SOL     OW80365   9.174   3.796   7.131
26144SOL    HW180366   9.191   3.870   7.066
26144SOL    HW280367   9.104   3.824   7.196
26145SOL     OW80368   7.561   4.347   6.134
26145SOL    HW180369   7.536   4.253   6.159
26145SOL    HW280370   7.557   4.405   6.215
26146SOL     OW80371   9.304   5.484   5.878
26146SOL    HW180372   9.377   5.462   5.943
26146SOL    HW280373   9.314   5.579   5.847
26147SOL     OW80374   7.460   5.309   5.721
26147SOL    HW180375   7.398   5.231   5.716
26147SOL    HW280376   7.450   5.354   5.810
26148SOL     OW80377   9.138   4.570   6.251
26148SOL    HW180378   9.229   4.573   6.291
26148SOL    HW280379   9.127   4.647   6.188
26149SOL     OW80380   9.113   4.791   6.084
26149SOL    HW180381   9.167   4.764   6.004
26149SOL    HW280382   9.163   4.860   6.136
26150SOL     OW80383   7.671   4.483   7.206
26150SOL    HW180384   7.771   4.484   7.209
26150SOL    HW280385   7.636   4.568   7.244
26151SOL     OW80386   8.041   5.100   6.286
26151SOL    HW180387   7.998   5.009   6.288
26151SOL    HW280388   8.030   5.140   6.195
26152SOL     OW80389   8.753   4.945   7.010
26152SOL    HW180390   8.754   4.885   6.931
26152SOL    HW280391   8.826   4.917   7.074
26153SOL     OW80392   8.284   3.778   6.088
26153SOL    HW180393   8.326   3.861   6.050
26153SOL    HW280394   8.186   3.792   6.097
26154SOL     OW80395   7.667   4.754   6.857
26154SOL    HW180396   7.743   4.690   6.848
26154SOL    HW280397   7.586   4.716   6.815
26155SOL     OW80398   7.784   3.989   7.512
26155SOL    HW180399   7.824   4.067   7.561
26155SOL    HW280400   7.688   4.007   7.494
26156SOL     OW80401   8.931   5.107   6.492
26156SOL    HW180402   8.870   5.146   6.561
26156SOL    HW280403   8.903   5.013   6.473
26157SOL     OW80404   9.091   5.624   6.110
26157SOL    HW180405   9.073   5.552   6.043
26157SOL    HW280406   9.112   5.582   6.198
26158SOL     OW80407   8.001   4.437   5.846
26158SOL    HW180408   8.014   4.528   5.807
26158SOL    HW280409   7.935   4.441   5.920
26159SOL     OW80410   8.737   4.147   6.488
26159SOL    HW180411   8.648   4.102   6.474
26159SOL    HW280412   8.789   4.097   6.557
26160SOL     OW80413   9.038   5.435   5.920
26160SOL    HW180414   9.136   5.442   5.902
26160SOL    HW280415   8.989   5.424   5.834
26161SOL     OW80416   8.226   4.313   7.016
26161SOL    HW180417   8.185   4.286   7.103
26161SOL    HW280418   8.209   4.242   6.947
26162SOL     OW80419   8.387   4.612   7.156
26162SOL    HW180420   8.440   4.545   7.105
26162SOL    HW280421   8.332   4.666   7.093
26163SOL     OW80422   8.465   4.104   6.756
26163SOL    HW180423   8.370   4.116   6.784
26163SOL    HW280424   8.468   4.072   6.661
26164SOL     OW80425   8.408   4.454   5.994
26164SOL    HW180426   8.449   4.455   6.085
26164SOL    HW280427   8.335   4.386   5.991
26165SOL     OW80428   7.531   4.520   6.332
26165SOL    HW180429   7.607   4.561   6.384
26165SOL    HW280430   7.459   4.588   6.321
26166SOL     OW80431   8.305   4.108   5.767
26166SOL    HW180432   8.362   4.153   5.697
26166SOL    HW280433   8.251   4.036   5.725
26167SOL     OW80434   9.108   4.326   7.418
26167SOL    HW180435   9.111   4.408   7.361
26167SOL    HW280436   9.118   4.244   7.361
26168SOL     OW80437   8.860   4.890   6.159
26168SOL    HW180438   8.947   4.859   6.120
26168SOL    HW280439   8.817   4.956   6.098
26169SOL     OW80440   7.997   3.811   6.558
26169SOL    HW180441   8.011   3.850   6.649
26169SOL    HW280442   8.003   3.884   6.490
26170SOL     OW80443   8.447   5.192   6.069
26170SOL    HW180444   8.421   5.269   6.010
26170SOL    HW280445   8.406   5.204   6.159
26171SOL     OW80446   7.798   5.515   6.469
26171SOL    HW180447   7.829   5.420   6.464
26171SOL    HW280448   7.869   5.571   6.512
26172SOL     OW80449   9.283   4.835   6.473
26172SOL    HW180450   9.254   4.885   6.391
26172SOL    HW280451   9.205   4.823   6.534
26173SOL     OW80452   7.709   4.618   5.814
26173SOL    HW180453   7.756   4.639   5.728
26173SOL    HW280454   7.683   4.522   5.815
26174SOL     OW80455   8.885   4.487   6.277
26174SOL    HW180456   8.874   4.452   6.370
26174SOL    HW280457   8.980   4.515   6.263
26175SOL     OW80458   7.876   5.040   7.322
26175SOL    HW180459   7.847   5.054   7.227
26175SOL    HW280460   7.798   5.009   7.377
26176SOL     OW80461   8.565   5.515   5.822
26176SOL    HW180462   8.483   5.483   5.870
26176SOL    HW280463   8.593   5.447   5.755
26177SOL     OW80464   7.682   3.976   7.113
26177SOL    HW180465   7.603   4.038   7.109
26177SOL    HW280466   7.654   3.890   7.155
26178SOL     OW80467   9.034   5.144   5.698
26178SOL    HW180468   8.983   5.230   5.701
26178SOL    HW280469   8.970   5.068   5.682
26179SOL     OW80470   7.916   5.503   5.898
26179SOL    HW180471   7.961   5.557   5.969
26179SOL    HW280472   7.984   5.446   5.852
26180SOL     OW80473   7.673   5.521   6.786
26180SOL    HW180474   7.709   5.432   6.816
26180SOL    HW280475   7.634   5.512   6.695
26181SOL     OW80476   8.376   5.403   6.453
26181SOL    HW180477   8.467   5.362   6.445
26181SOL    HW280478   8.315   5.361   6.386
26182SOL     OW80479   7.825   4.393   6.056
26182SOL    HW180480   7.859   4.303   6.085
26182SOL    HW280481   7.725   4.395   6.066
26183SOL     OW80482   8.975   3.890   7.291
26183SOL    HW180483   8.967   3.910   7.389
26183SOL    HW280484   8.901   3.829   7.263
26184SOL     OW80485   8.135   3.874   5.735
26184SOL    HW180486   8.187   3.797   5.770
26184SOL    HW280487   8.082   3.845   5.655
26185SOL     OW80488   8.128   3.995   7.242
26185SOL    HW180489   8.218   3.964   7.270
26185SOL    HW280490   8.058   3.938   7.284
26186SOL     OW80491   8.253   5.228   6.732
26186SOL    HW180492   8.245   5.171   6.650
26186SOL    HW280493   8.323   5.190   6.792
26187SOL     OW80494   8.733   4.339   7.009
26187SOL    HW180495   8.765   4.332   7.104
26187SOL    HW280496   8.765   4.424   6.968
26188SOL     OW80497   8.237   5.065   6.505
26188SOL    HW180498   8.332   5.078   6.477
26188SOL    HW280499   8.177   5.077   6.426
26189SOL     OW80500   8.371   4.234   6.438
26189SOL    HW180501   8.343   4.223   6.342
26189SOL    HW280502   8.416   4.150   6.468
26190SOL     OW80503   8.013   3.813   6.088
26190SOL    HW180504   7.941   3.801   6.155
26190SOL    HW280505   7.995   3.895   6.034
26191SOL     OW80506   8.841   4.948   5.657
26191SOL    HW180507   8.847   4.862   5.708
26191SOL    HW280508   8.759   4.997   5.685
26192SOL     OW80509   7.712   3.787   5.721
26192SOL    HW180510   7.751   3.868   5.677
26192SOL    HW280511   7.780   3.745   5.781
26193SOL     OW80512   8.412   3.994   5.992
26193SOL    HW180513   8.375   4.038   5.911
26193SOL    HW280514   8.511   4.001   5.992
26194SOL     OW80515   8.471   4.428   6.974
26194SOL    HW180516   8.392   4.369   6.990
26194SOL    HW280517   8.555   4.375   6.983
26195SOL     OW80518   8.635   5.331   6.402
26195SOL    HW180519   8.665   5.381   6.321
26195SOL    HW280520   8.675   5.373   6.484
26196SOL     OW80521   7.905   4.865   6.246
26196SOL    HW180522   7.824   4.864   6.304
26196SOL    HW280523   7.880   4.846   6.151
26197SOL     OW80524   8.693   5.513   6.198
26197SOL    HW180525   8.741   5.580   6.142
26197SOL    HW280526   8.608   5.554   6.232
26198SOL     OW80527   8.455   4.264   5.581
26198SOL    HW180528   8.378   4.328   5.574
26198SOL    HW280529   8.541   4.315   5.577
26199SOL     OW80530   7.578   4.337   6.998
26199SOL    HW180531   7.666   4.315   6.956
26199SOL    HW280532   7.593   4.396   7.078
26200SOL     OW80533   8.028   3.923   6.803
26200SOL    HW180534   8.076   3.880   6.879
26200SOL    HW280535   7.931   3.933   6.826
26201SOL     OW80536   8.311   4.172   6.181
26201SOL    HW180537   8.250   4.222   6.120
26201SOL    HW280538   8.357   4.099   6.131
26202SOL     OW80539   8.470   3.786   6.292
26202SOL    HW180540   8.404   3.789   6.217
26202SOL    HW280541   8.440   3.719   6.360
26203SOL     OW80542   8.869   4.845   6.446
26203SOL    HW180543   8.807   4.772   6.473
26203SOL    HW280544   8.866   4.856   6.346
26204SOL     OW80545   8.856   4.390   6.527
26204SOL    HW180546   8.806   4.305   6.515
26204SOL    HW280547   8.938   4.373   6.582
26205SOL     OW80548   9.280   4.419   6.000
26205SOL    HW180549   9.357   4.406   6.063
26205SOL    HW280550   9.286   4.353   5.926
26206SOL     OW80551   7.936   5.153   5.750
26206SOL    HW180552   7.858   5.115   5.799
26206SOL    HW280553   7.942   5.112   5.660
26207SOL     OW80554   9.236   4.977   6.241
26207SOL    HW180555   9.332   4.992   6.218
26207SOL    HW280556   9.187   5.064   6.240
26208SOL     OW80557   8.866   4.295   5.680
26208SOL    HW180558   8.852   4.312   5.778
26208SOL    HW280559   8.963   4.302   5.658
26209SOL     OW80560   7.966   4.010   5.908
26209SOL    HW180561   8.031   3.966   5.847
26209SOL    HW280562   7.921   4.086   5.861
26210SOL     OW80563   9.173   4.976   7.099
26210SOL    HW180564   9.251   4.914   7.095
26210SOL    HW280565   9.202   5.064   7.135
26211SOL     OW80566   8.417   5.086   6.911
26211SOL    HW180567   8.328   5.048   6.935
26211SOL    HW280568   8.476   5.087   6.991
26212SOL     OW80569   9.040   5.337   7.232
26212SOL    HW180570   9.034   5.392   7.149
26212SOL    HW280571   9.125   5.286   7.232
26213SOL     OW80572   8.584   5.016   6.708
26213SOL    HW180573   8.518   5.040   6.779
26213SOL    HW280574   8.545   5.037   6.618
26214SOL     OW80575   9.066   4.814   6.645
26214SOL    HW180576   9.057   4.883   6.717
26214SOL    HW280577   8.991   4.825   6.580
26215SOL     OW80578   8.427   3.784   6.923
26215SOL    HW180579   8.452   3.786   6.826
26215SOL    HW280580   8.496   3.833   6.976
26216SOL     OW80581   8.433   4.837   7.307
26216SOL    HW180582   8.348   4.860   7.353
26216SOL    HW280583   8.420   4.756   7.250
26217SOL     OW80584   8.199   4.780   5.955
26217SOL    HW180585   8.179   4.741   6.045
26217SOL    HW280586   8.256   4.716   5.903
26218SOL     OW80587   7.872   4.555   6.842
26218SOL    HW180588   7.943   4.570   6.911
26218SOL    HW280589   7.839   4.461   6.848
26219SOL     OW80590   8.706   4.102   6.875
26219SOL    HW180591   8.723   4.189   6.921
26219SOL    HW280592   8.617   4.104   6.830
26220SOL     OW80593   7.480   5.314   6.947
26220SOL    HW180594   7.437   5.373   6.878
26220SOL    HW280595   7.579   5.309   6.930
26221SOL     OW80596   7.819   4.815   5.994
26221SOL    HW180597   7.790   4.901   5.954
26221SOL    HW280598   7.788   4.739   5.937
26222SOL     OW80599   7.908   4.346   6.495
26222SOL    HW180600   7.921   4.391   6.407
26222SOL    HW280601   7.997   4.320   6.533
26223SOL     OW80602   8.701   5.103   6.005
26223SOL    HW180603   8.766   5.173   6.036
26223SOL    HW280604   8.610   5.125   6.040
26224SOL     OW80605   8.786   5.197   6.708
26224SOL    HW180606   8.832   5.205   6.796
26224SOL    HW280607   8.714   5.128   6.713
26225SOL     OW80608   9.050   4.281   6.060
26225SOL    HW180609   8.968   4.325   6.025
26225SOL    HW280610   9.128   4.342   6.049
26226SOL     OW80611   7.742   5.265   6.867
26226SOL    HW180612   7.710   5.177   6.833
26226SOL    HW280613   7.842   5.269   6.859
26227SOL     OW80614   7.944   4.478   7.237
26227SOL    HW180615   7.986   4.521   7.157
26227SOL    HW280616   7.999   4.399   7.265
26228SOL     OW80617   9.091   4.548   7.267
26228SOL    HW180618   8.996   4.572   7.248
26228SOL    HW280619   9.147   4.562   7.186
26229SOL     OW80620   8.360   3.884   7.314
26229SOL    HW180621   8.449   3.930   7.314
26229SOL    HW280622   8.371   3.790   7.346
26230SOL     OW80623   7.945   3.835   7.361
26230SOL    HW180624   7.899   3.757   7.318
26230SOL    HW280625   7.878   3.891   7.409
26231SOL     OW80626   8.115   4.573   6.687
26231SOL    HW180627   8.129   4.669   6.665
26231SOL    HW280628   8.025   4.561   6.730
26232SOL     OW80629   8.717   4.626   6.550
26232SOL    HW180630   8.624   4.602   6.523
26232SOL    HW280631   8.775   4.545   6.547
26233SOL     OW80632   7.760   3.928   6.848
26233SOL    HW180633   7.736   3.956   6.940
26233SOL    HW280634   7.727   3.835   6.831
26234SOL     OW80635   7.626   5.028   6.802
26234SOL    HW180636   7.652   4.934   6.826
26234SOL    HW280637   7.530   5.044   6.826
26235SOL     OW80638   8.159   4.312   6.599
26235SOL    HW180639   8.234   4.293   6.536
26235SOL    HW280640   8.157   4.409   6.621
26236SOL     OW80641   9.198   4.716   7.461
26236SOL    HW180642   9.154   4.650   7.399
26236SOL    HW280643   9.144   4.724   7.545
26237SOL     OW80644   7.796   3.780   6.251
26237SOL    HW180645   7.756   3.870   6.271
26237SOL    HW280646   7.792   3.723   6.333
26238SOL     OW80647   9.067   4.062   5.888
26238SOL    HW180648   9.083   3.975   5.934
26238SOL    HW280649   9.060   4.135   5.956
26239SOL     OW80650   8.457   4.488   6.496
26239SOL    HW180651   8.441   4.511   6.593
26239SOL    HW280652   8.433   4.392   6.481
26240SOL     OW80653   9.280   5.217   7.163
26240SOL    HW180654   9.293   5.242   7.067
26240SOL    HW280655   9.365   5.229   7.213
26241SOL     OW80656   7.845   4.646   7.438
26241SOL    HW180657   7.917   4.677   7.500
26241SOL    HW280658   7.883   4.585   7.369
26242SOL     OW80659   8.943   3.953   5.665
26242SOL    HW180660   8.891   3.883   5.715
26242SOL    HW280661   8.997   4.007   5.730
26243SOL     OW80662   8.674   4.441   5.551
26243SOL    HW180663   8.742   4.388   5.602
26243SOL    HW280664   8.719   4.493   5.479
26244SOL     OW80665   8.504   5.091   6.454
26244SOL    HW180666   8.521   5.009   6.399
26244SOL    HW280667   8.563   5.165   6.423
26245SOL     OW80668   7.763   4.602   6.465
26245SOL    HW180669   7.825   4.579   6.390
26245SOL    HW280670   7.782   4.542   6.543
26246SOL     OW80671   7.688   4.274   6.630
26246SOL    HW180672   7.669   4.178   6.610
26246SOL    HW280673   7.766   4.304   6.574
26247SOL     OW80674   8.597   4.026   7.317
26247SOL    HW180675   8.544   4.094   7.368
26247SOL    HW280676   8.684   4.010   7.364
26248SOL     OW80677   8.622   3.918   7.064
26248SOL    HW180678   8.608   3.965   7.151
26248SOL    HW280679   8.661   3.982   6.997
26249SOL     OW80680   7.491   4.971   5.769
26249SOL    HW180681   7.408   5.012   5.732
26249SOL    HW280682   7.470   4.882   5.809
26250SOL     OW80683   7.538   5.509   6.543
26250SOL    HW180684   7.485   5.440   6.493
26250SOL    HW280685   7.630   5.513   6.504
26251SOL     OW80686   7.906   5.257   6.474
26251SOL    HW180687   7.980   5.313   6.513
26251SOL    HW280688   7.943   5.201   6.400
26252SOL     OW80689   8.386   4.552   6.746
26252SOL    HW180690   8.421   4.511   6.830
26252SOL    HW280691   8.286   4.550   6.746
26253SOL     OW80692   7.487   4.415   6.757
26253SOL    HW180693   7.550   4.369   6.694
26253SOL    HW280694   7.508   4.388   6.851
26254SOL     OW80695   7.681   4.252   7.348
26254SOL    HW180696   7.762   4.206   7.311
26254SOL    HW280697   7.663   4.336   7.297
26255SOL     OW80698   8.842   4.630   7.194
26255SOL    HW180699   8.871   4.726   7.200
26255SOL    HW280700   8.825   4.607   7.098
26256SOL     OW80701   8.201   4.283   5.953
26256SOL    HW180702   8.233   4.218   5.884
26256SOL    HW280703   8.128   4.339   5.916
26257SOL     OW80704   9.079   4.333   6.676
26257SOL    HW180705   9.053   4.250   6.724
26257SOL    HW280706   9.179   4.338   6.669
26258SOL     OW80707   7.634   5.250   7.317
26258SOL    HW180708   7.638   5.325   7.383
26258SOL    HW280709   7.646   5.163   7.364
26259SOL     OW80710   8.196   4.140   6.805
26259SOL    HW180711   8.133   4.062   6.803
26259SOL    HW280712   8.174   4.202   6.730
26260SOL     OW80713   7.862   4.215   5.756
26260SOL    HW180714   7.930   4.286   5.775
26260SOL    HW280715   7.771   4.255   5.756
26261SOL     OW80716   7.580   4.860   7.094
26261SOL    HW180717   7.595   4.809   7.179
26261SOL    HW280718   7.620   4.811   7.017
26262SOL     OW80719   8.719   4.787   6.774
26262SOL    HW180720   8.721   4.727   6.695
26262SOL    HW280721   8.669   4.871   6.752
26263SOL     OW80722   9.177   5.429   6.720
26263SOL    HW180723   9.250   5.468   6.664
26263SOL    HW280724   9.157   5.336   6.689
26264SOL     OW80725   8.726   5.450   6.633
26264SOL    HW180726   8.808   5.507   6.636
26264SOL    HW280727   8.748   5.359   6.668
26265SOL     OW80728   8.865   5.311   6.096
26265SOL    HW180729   8.925   5.354   6.029
26265SOL    HW280730   8.800   5.379   6.131
26266SOL     OW80731   7.646   5.475   7.481
26266SOL    HW180732   7.592   5.410   7.534
26266SOL    HW280733   7.698   5.534   7.543
26267SOL     OW80734   8.706   4.679   6.221
26267SOL    HW180735   8.772   4.606   6.242
26267SOL    HW280736   8.755   4.759   6.186
26268SOL     OW80737   8.182   4.982   6.988
26268SOL    HW180738   8.158   5.008   7.081
26268SOL    HW280739   8.102   4.991   6.928
26269SOL     OW80740   8.115   5.358   5.769
26269SOL    HW180741   8.132   5.387   5.675
26269SOL    HW280742   8.056   5.277   5.768
26270SOL     OW80743   9.057   5.457   6.977
26270SOL    HW180744   9.096   5.460   6.885
26270SOL    HW280745   9.087   5.537   7.028
26271SOL     OW80746   9.305   3.943   6.584
26271SOL    HW180747   9.335   3.850   6.564
26271SOL    HW280748   9.222   3.963   6.532
26272SOL     OW80749   7.699   4.021   6.319
26272SOL    HW180750   7.612   4.054   6.282
26272SOL    HW280751   7.696   4.024   6.419
26273SOL     OW80752   8.647   5.326   5.647
26273SOL    HW180753   8.640   5.234   5.686
26273SOL    HW280754   8.574   5.338   5.578
26274SOL     OW80755   8.269   4.734   6.947
26274SOL    HW180756   8.327   4.728   6.865
26274SOL    HW280757   8.241   4.829   6.960
26275SOL     OW80758   8.348   4.610   5.788
26275SOL    HW180759   8.433   4.646   5.748
26275SOL    HW280760   8.371   4.548   5.864
26276SOL     OW80761   8.904   5.402   5.681
26276SOL    HW180762   8.809   5.376   5.664
26276SOL    HW280763   8.954   5.408   5.595
26277SOL     OW80764   7.770   5.069   7.081
26277SOL    HW180765   7.747   5.146   7.022
26277SOL    HW280766   7.694   5.003   7.081
26278SOL     OW80767   9.066   5.007   6.848
26278SOL    HW180768   9.110   4.979   6.933
26278SOL    HW280769   8.999   5.080   6.868
26279SOL     OW80770   8.519   4.854   6.328
26279SOL    HW180771   8.437   4.804   6.355
26279SOL    HW280772   8.584   4.791   6.286
26280SOL     OW80773   8.499   3.985   6.496
26280SOL    HW180774   8.489   3.945   6.405
26280SOL    HW280775   8.506   3.913   6.564
26281SOL     OW80776   8.036   5.198   6.037
26281SOL    HW180777   8.110   5.145   5.995
26281SOL    HW280778   7.960   5.205   5.973
26282SOL     OW80779   9.274   4.069   7.020
26282SOL    HW180780   9.326   4.148   6.986
26282SOL    HW280781   9.252   4.008   6.943
26283SOL     OW80782   7.722   5.055   5.893
26283SOL    HW180783   7.637   5.029   5.847
26283SOL    HW280784   7.701   5.113   5.972
26284SOL     OW80785   7.601   4.717   7.326
26284SOL    HW180786   7.520   4.714   7.383
26284SOL    HW280787   7.683   4.704   7.383
26285SOL     OW80788   8.170   3.827   7.015
26285SOL    HW180789   8.263   3.812   6.983
26285SOL    HW280790   8.170   3.893   7.090
26286SOL     OW80791   7.594   4.099   5.445
26286SOL    HW180792   7.495   4.093   5.442
26286SOL    HW280793   7.622   4.195   5.449
26287SOL     OW80794   8.829   4.582   6.925
26287SOL    HW180795   8.775   4.652   6.877
26287SOL    HW280796   8.922   4.580   6.887
26288SOL     OW80797   7.457   3.838   5.805
26288SOL    HW180798   7.403   3.881   5.732
26288SOL    HW280799   7.552   3.830   5.775
26289SOL     OW80800   8.612   5.072   5.741
26289SOL    HW180801   8.513   5.059   5.735
26289SOL    HW280802   8.641   5.072   5.837
26290SOL     OW80803   8.084   4.550   7.012
26290SOL    HW180804   8.146   4.625   6.990
26290SOL    HW280805   8.134   4.463   7.009
26291SOL     OW80806   8.962   5.592   6.641
26291SOL    HW180807   8.992   5.653   6.568
26291SOL    HW280808   9.039   5.536   6.671
26292SOL     OW80809   8.133   4.276   7.275
26292SOL    HW180810   8.207   4.319   7.326
26292SOL    HW280811   8.138   4.177   7.285
26293SOL     OW80812   8.939   4.882   7.198
26293SOL    HW180813   8.930   4.895   7.297
26293SOL    HW280814   9.028   4.916   7.168
26294SOL     OW80815   7.790   5.459   7.198
26294SOL    HW180816   7.713   5.523   7.204
26294SOL    HW280817   7.758   5.367   7.220
26295SOL     OW80818   9.077   4.585   6.805
26295SOL    HW180819   9.081   4.500   6.752
26295SOL    HW280820   9.079   4.663   6.743
26296SOL     OW80821   8.678   4.038   5.989
26296SOL    HW180822   8.748   4.038   5.917
26296SOL    HW280823   8.688   4.121   6.044
26297SOL     OW80824   7.937   4.513   6.274
26297SOL    HW180825   8.014   4.572   6.248
26297SOL    HW280826   7.897   4.472   6.192
26298SOL     OW80827   9.142   4.106   7.260
26298SOL    HW180828   9.184   4.100   7.169
26298SOL    HW280829   9.073   4.034   7.269
26299SOL     OW80830   9.229   4.597   7.038
26299SOL    HW180831   9.277   4.685   7.036
26299SOL    HW280832   9.175   4.587   6.955
26300SOL     OW80833   8.336   5.091   5.688
26300SOL    HW180834   8.290   5.095   5.777
26300SOL    HW280835   8.336   5.181   5.646
26301SOL     OW80836   8.097   5.425   6.550
26301SOL    HW180837   8.078   5.523   6.561
26301SOL    HW280838   8.194   5.408   6.568
26302SOL     OW80839   8.304   4.712   6.427
26302SOL    HW180840   8.353   4.628   6.450
26302SOL    HW280841   8.259   4.748   6.509
26303SOL     OW80842   8.584   4.677   5.658
26303SOL    HW180843   8.534   4.736   5.595
26303SOL    HW280844   8.603   4.589   5.614
26304SOL     OW80845   9.257   5.309   6.426
26304SOL    HW180846   9.196   5.283   6.351
26304SOL    HW280847   9.241   5.248   6.504
26305SOL     OW80848   7.653   5.013   7.463
26305SOL    HW180849   7.568   4.960   7.458
26305SOL    HW280850   7.672   5.035   7.558
26306SOL     OW80851   8.127   5.062   7.240
26306SOL    HW180852   8.032   5.053   7.269
26306SOL    HW280853   8.148   5.159   7.227
26307SOL     OW80854   9.228   3.880   6.836
26307SOL    HW180855   9.207   3.782   6.828
26307SOL    HW280856   9.259   3.914   6.748
26308SOL     OW80857   7.882   4.146   6.141
26308SOL    HW180858   7.911   4.085   6.068
26308SOL    HW280859   7.823   4.096   6.205
26309SOL     OW80860   9.147   5.172   6.639
26309SOL    HW180861   9.071   5.148   6.579
26309SOL    HW280862   9.148   5.110   6.718
26310SOL     OW80863   7.817   4.288   6.887
26310SOL    HW180864   7.867   4.222   6.943
26310SOL    HW280865   7.799   4.248   6.797
26311SOL     OW80866   8.243   5.286   6.248
26311SOL    HW180867   8.214   5.337   6.167
26311SOL    HW280868   8.173   5.219   6.272
26312SOL     OW80869   8.877   4.013   6.679
26312SOL    HW180870   8.901   3.917   6.689
26312SOL    HW280871   8.821   4.042   6.757
26313SOL     OW80872   8.507   3.757   6.652
26313SOL    HW180873   8.443   3.699   6.602
26313SOL    HW280874   8.599   3.718   6.645
26314SOL     OW80875   8.242   5.050   5.941
26314SOL    HW180876   8.225   4.951   5.947
26314SOL    HW280877   8.322   5.073   5.995
26315SOL     OW80878   8.014   5.279   6.853
26315SOL    HW180879   8.021   5.349   6.924
26315SOL    HW280880   8.099   5.275   6.801
26316SOL     OW80881   8.822   3.757   5.807
26316SOL    HW180882   8.859   3.679   5.758
26316SOL    HW280883   8.735   3.731   5.850
26317SOL     OW80884   8.705   4.267   6.142
26317SOL    HW180885   8.631   4.329   6.168
26317SOL    HW280886   8.764   4.249   6.221
26318SOL     OW80887   9.063   3.985   6.470
26318SOL    HW180888   8.991   4.013   6.535
26318SOL    HW280889   9.079   4.059   6.405
26319SOL     OW80890   7.472   4.721   5.905
26319SOL    HW180891   7.564   4.700   5.873
26319SOL    HW280892   7.424   4.636   5.928
26320SOL     OW80893   8.334   5.405   5.935
26320SOL    HW180894   8.255   5.384   5.877
26320SOL    HW280895   8.313   5.485   5.991
26321SOL     OW80896   7.652   4.332   7.611
26321SOL    HW180897   7.554   4.329   7.634
26321SOL    HW280898   7.663   4.317   7.513
26322SOL     OW80899   7.644   4.047   8.466
26322SOL    HW180900   7.686   3.988   8.536
26322SOL    HW280901   7.601   3.990   8.396
26323SOL     OW80902   8.030   5.052   8.669
26323SOL    HW180903   7.950   5.044   8.610
26323SOL    HW280904   8.049   5.149   8.686
26324SOL     OW80905   8.987   5.346   8.166
26324SOL    HW180906   8.953   5.286   8.238
26324SOL    HW280907   8.937   5.328   8.081
26325SOL     OW80908   8.577   4.451   8.128
26325SOL    HW180909   8.630   4.532   8.103
26325SOL    HW280910   8.529   4.467   8.214
26326SOL     OW80911   9.259   4.289   7.643
26326SOL    HW180912   9.210   4.310   7.559
26326SOL    HW280913   9.212   4.214   7.691
26327SOL     OW80914   8.178   4.854   8.507
26327SOL    HW180915   8.119   4.885   8.581
26327SOL    HW280916   8.212   4.934   8.456
26328SOL     OW80917   8.359   4.501   9.269
26328SOL    HW180918   8.410   4.560   9.332
26328SOL    HW280919   8.368   4.536   9.176
26329SOL     OW80920   8.151   4.688   8.115
26329SOL    HW180921   8.224   4.702   8.182
26329SOL    HW280922   8.075   4.750   8.135
26330SOL     OW80923   8.170   4.901   9.264
26330SOL    HW180924   8.227   4.973   9.305
26330SOL    HW280925   8.092   4.944   9.218
26331SOL     OW80926   7.808   5.109   8.507
26331SOL    HW180927   7.753   5.042   8.456
26331SOL    HW280928   7.844   5.177   8.444
26332SOL     OW80929   8.888   5.249   8.820
26332SOL    HW180930   8.946   5.328   8.839
26332SOL    HW280931   8.805   5.254   8.876
26333SOL     OW80932   9.044   4.198   8.151
26333SOL    HW180933   8.995   4.217   8.067
26333SOL    HW280934   9.000   4.246   8.227
26334SOL     OW80935   7.656   5.479   7.932
26334SOL    HW180936   7.668   5.559   7.990
26334SOL    HW280937   7.745   5.448   7.897
26335SOL     OW80938   8.594   5.068   9.138
26335SOL    HW180939   8.681   5.049   9.183
26335SOL    HW280940   8.533   4.989   9.149
26336SOL     OW80941   7.676   5.201   7.964
26336SOL    HW180942   7.651   5.298   7.971
26336SOL    HW280943   7.641   5.151   8.043
26337SOL     OW80944   7.783   4.800   8.367
26337SOL    HW180945   7.779   4.702   8.383
26337SOL    HW280946   7.696   4.842   8.392
26338SOL     OW80947   8.014   5.556   8.852
26338SOL    HW180948   7.948   5.522   8.920
26338SOL    HW280949   8.070   5.627   8.894
26339SOL     OW80950   8.041   4.725   7.616
26339SOL    HW180951   8.093   4.777   7.547
26339SOL    HW280952   8.085   4.736   7.705
26340SOL     OW80953   9.047   3.886   8.890
26340SOL    HW180954   9.112   3.959   8.870
26340SOL    HW280955   8.994   3.911   8.971
26341SOL     OW80956   7.578   4.417   8.035
26341SOL    HW180957   7.574   4.321   8.062
26341SOL    HW280958   7.568   4.474   8.117
26342SOL     OW80959   9.299   5.466   7.757
26342SOL    HW180960   9.380   5.447   7.812
26342SOL    HW280961   9.306   5.558   7.719
26343SOL     OW80962   7.498   5.292   7.605
26343SOL    HW180963   7.466   5.199   7.624
26343SOL    HW280964   7.461   5.355   7.673
26344SOL     OW80965   9.154   4.659   8.121
26344SOL    HW180966   9.241   4.611   8.129
26344SOL    HW280967   9.158   4.723   8.044
26345SOL     OW80968   9.162   4.852   7.923
26345SOL    HW180969   9.235   4.818   7.864
26345SOL    HW280970   9.194   4.932   7.973
26346SOL     OW80971   7.547   4.463   8.991
26346SOL    HW180972   7.587   4.450   9.082
26346SOL    HW280973   7.482   4.539   8.993
26347SOL     OW80974   8.040   5.101   8.211
26347SOL    HW180975   8.008   5.008   8.199
26347SOL    HW280976   8.033   5.150   8.124
26348SOL     OW80977   8.677   4.933   8.853
26348SOL    HW180978   8.692   4.864   8.782
26348SOL    HW280979   8.754   4.934   8.916
26349SOL     OW80980   8.288   3.741   7.952
26349SOL    HW180981   8.332   3.825   7.921
26349SOL    HW280982   8.191   3.758   7.968
26350SOL     OW80983   7.676   4.686   8.726
26350SOL    HW180984   7.768   4.646   8.723
26350SOL    HW280985   7.618   4.639   8.659
26351SOL     OW80986   9.021   4.767   7.678
26351SOL    HW180987   8.926   4.742   7.697
26351SOL    HW280988   9.065   4.799   7.763
26352SOL     OW80989   8.646   5.512   9.062
26352SOL    HW180990   8.642   5.587   8.996
26352SOL    HW280991   8.645   5.424   9.014
26353SOL     OW80992   8.915   5.170   8.361
26353SOL    HW180993   8.852   5.195   8.435
26353SOL    HW280994   8.897   5.076   8.333
26354SOL     OW80995   8.022   4.437   7.723
26354SOL    HW180996   8.030   4.527   7.681
26354SOL    HW280997   7.953   4.441   7.796
26355SOL     OW80998   9.019   5.425   7.736
26355SOL    HW180999   9.117   5.431   7.752
26355SOL    HW281000   9.002   5.381   7.647
26356SOL     OW81001   8.259   4.298   8.901
26356SOL    HW181002   8.235   4.261   8.991
26356SOL    HW281003   8.212   4.245   8.830
26357SOL     OW81004   8.827   4.209   9.082
26357SOL    HW181005   8.840   4.258   9.167
26357SOL    HW281006   8.867   4.117   9.090
26358SOL     OW81007   8.413   4.623   9.027
26358SOL    HW181008   8.458   4.551   8.973
26358SOL    HW281009   8.369   4.688   8.965
26359SOL     OW81010   8.421   4.115   8.627
26359SOL    HW181011   8.328   4.136   8.657
26359SOL    HW281012   8.418   4.068   8.540
26360SOL     OW81013   8.462   4.417   7.876
26360SOL    HW181014   8.494   4.418   7.971
26360SOL    HW281015   8.374   4.370   7.871
26361SOL     OW81016   7.543   4.570   8.258
26361SOL    HW181017   7.630   4.556   8.305
26361SOL    HW281018   7.483   4.625   8.315
26362SOL     OW81019   7.574   5.536   9.034
26362SOL    HW181020   7.576   5.525   9.133
26362SOL    HW281021   7.502   5.478   8.995
26363SOL     OW81022   8.277   4.064   7.650
26363SOL    HW181023   8.335   4.099   7.576
26363SOL    HW281024   8.223   3.987   7.616
26364SOL     OW81025   9.123   4.314   9.260
26364SOL    HW181026   9.102   4.390   9.199
26364SOL    HW281027   9.140   4.231   9.206
26365SOL     OW81028   8.906   4.883   8.036
26365SOL    HW181029   8.997   4.872   7.995
26365SOL    HW281030   8.857   4.956   7.989
26366SOL     OW81031   8.040   3.912   8.344
26366SOL    HW181032   8.036   3.921   8.444
26366SOL    HW281033   8.039   4.003   8.303
26367SOL     OW81034   7.802   5.552   8.312
26367SOL    HW181035   7.839   5.459   8.319
26367SOL    HW281036   7.873   5.618   8.338
26368SOL     OW81037   9.240   4.775   8.362
26368SOL    HW181038   9.197   4.755   8.274
26368SOL    HW281039   9.170   4.804   8.428
26369SOL     OW81040   8.640   5.256   8.941
26369SOL    HW181041   8.633   5.188   9.015
26369SOL    HW281042   8.576   5.232   8.868
26370SOL     OW81043   7.742   4.697   7.746
26370SOL    HW181044   7.817   4.730   7.687
26370SOL    HW281045   7.730   4.599   7.732
26371SOL     OW81046   8.946   4.484   8.115
26371SOL    HW181047   8.931   4.446   8.206
26371SOL    HW281048   9.023   4.549   8.119
26372SOL     OW81049   7.935   5.022   9.170
26372SOL    HW181050   7.904   5.030   9.076
26372SOL    HW281051   7.858   4.997   9.229
26373SOL     OW81052   7.658   3.999   8.891
26373SOL    HW181053   7.652   4.098   8.888
26373SOL    HW281054   7.719   3.971   8.965
26374SOL     OW81055   9.070   5.088   7.539
26374SOL    HW181056   9.033   5.180   7.525
26374SOL    HW281057   9.005   5.021   7.505
26375SOL     OW81058   7.912   5.449   7.839
26375SOL    HW181059   7.952   5.530   7.882
26375SOL    HW281060   7.955   5.433   7.751
26376SOL     OW81061   8.824   3.830   7.902
26376SOL    HW181062   8.824   3.801   7.807
26376SOL    HW281063   8.913   3.809   7.944
26377SOL     OW81064   7.667   5.529   8.657
26377SOL    HW181065   7.724   5.449   8.678
26377SOL    HW281066   7.628   5.518   8.565
26378SOL     OW81067   8.367   5.419   8.321
26378SOL    HW181068   8.462   5.387   8.321
26378SOL    HW281069   8.315   5.371   8.251
26379SOL     OW81070   7.837   4.408   7.925
26379SOL    HW181071   7.857   4.312   7.944
26379SOL    HW281072   7.743   4.428   7.953
26380SOL     OW81073   8.916   3.949   9.124
26380SOL    HW181074   8.924   3.961   9.223
26380SOL    HW281075   8.849   3.878   9.104
26381SOL     OW81076   8.111   3.842   7.587
26381SOL    HW181077   8.143   3.749   7.608
26381SOL    HW281078   8.059   3.841   7.502
26382SOL     OW81079   8.299   5.248   8.612
26382SOL    HW181080   8.281   5.196   8.529
26382SOL    HW281081   8.366   5.199   8.668
26383SOL     OW81082   8.747   4.325   8.848
26383SOL    HW181083   8.786   4.290   8.933
26383SOL    HW281084   8.784   4.417   8.830
26384SOL     OW81085   8.258   5.087   8.387
26384SOL    HW181086   8.348   5.097   8.344
26384SOL    HW281087   8.186   5.104   8.319
26385SOL     OW81088   8.360   4.228   8.313
26385SOL    HW181089   8.332   4.217   8.217
26385SOL    HW281090   8.395   4.141   8.347
26386SOL     OW81091   8.026   3.799   7.986
26386SOL    HW181092   7.987   3.817   8.076
26386SOL    HW281093   8.005   3.876   7.925
26387SOL     OW81094   8.897   4.890   7.467
26387SOL    HW181095   8.952   4.841   7.535
26387SOL    HW281096   8.800   4.879   7.490
26388SOL     OW81097   7.735   3.747   7.628
26388SOL    HW181098   7.773   3.832   7.593
26388SOL    HW281099   7.799   3.704   7.691
26389SOL     OW81100   8.399   3.976   7.882
26389SOL    HW181101   8.362   4.012   7.796
26389SOL    HW281102   8.496   4.000   7.889
26390SOL     OW81103   8.494   4.429   8.855
26390SOL    HW181104   8.420   4.364   8.874
26390SOL    HW281105   8.581   4.380   8.853
26391SOL     OW81106   8.629   5.353   8.270
26391SOL    HW181107   8.650   5.402   8.186
26391SOL    HW281108   8.672   5.399   8.348
26392SOL     OW81109   7.939   4.855   8.157
26392SOL    HW181110   7.887   4.834   8.239
26392SOL    HW281111   7.876   4.863   8.079
26393SOL     OW81112   8.663   5.528   8.057
26393SOL    HW181113   8.719   5.604   8.025
26393SOL    HW281114   8.573   5.561   8.084
26394SOL     OW81115   8.450   4.196   7.471
26394SOL    HW181116   8.418   4.283   7.435
26394SOL    HW281117   8.498   4.211   7.557
26395SOL     OW81118   7.628   4.269   8.828
26395SOL    HW181119   7.720   4.281   8.791
26395SOL    HW281120   7.606   4.346   8.888
26396SOL     OW81121   8.023   3.933   8.625
26396SOL    HW181122   8.067   3.880   8.697
26396SOL    HW281123   7.924   3.922   8.630
26397SOL     OW81124   8.295   4.166   8.058
26397SOL    HW181125   8.251   4.223   7.988
26397SOL    HW281126   8.336   4.086   8.014
26398SOL     OW81127   8.444   3.759   8.179
26398SOL    HW181128   8.389   3.758   8.096
26398SOL    HW281129   8.406   3.695   8.246
26399SOL     OW81130   8.857   4.909   8.307
26399SOL    HW181131   8.761   4.881   8.312
26399SOL    HW281132   8.890   4.896   8.213
26400SOL     OW81133   8.914   4.367   8.363
26400SOL    HW181134   8.873   4.283   8.397
26400SOL    HW281135   8.989   4.395   8.423
26401SOL     OW81136   9.295   4.483   7.837
26401SOL    HW181137   9.344   4.441   7.913
26401SOL    HW281138   9.278   4.415   7.766
26402SOL     OW81139   7.953   5.149   7.563
26402SOL    HW181140   7.879   5.124   7.625
26402SOL    HW281141   7.933   5.112   7.472
26403SOL     OW81142   9.271   5.049   8.077
26403SOL    HW181143   9.365   5.015   8.072
26403SOL    HW281144   9.268   5.128   8.138
26404SOL     OW81145   7.986   3.989   7.792
26404SOL    HW181146   8.036   3.934   7.725
26404SOL    HW281147   7.944   4.067   7.747
26405SOL     OW81148   9.177   4.976   8.953
26405SOL    HW181149   9.266   4.940   8.925
26405SOL    HW281150   9.190   5.066   8.995
26406SOL     OW81151   8.465   5.088   8.779
26406SOL    HW181152   8.378   5.067   8.824
26406SOL    HW281153   8.537   5.030   8.818
26407SOL     OW81154   9.062   5.364   9.129
26407SOL    HW181155   9.034   5.404   9.042
26407SOL    HW281156   9.143   5.307   9.115
26408SOL     OW81157   8.597   5.006   8.550
26408SOL    HW181158   8.535   5.034   8.624
26408SOL    HW281159   8.558   5.034   8.462
26409SOL     OW81160   9.032   4.853   8.522
26409SOL    HW181161   9.029   4.927   8.590
26409SOL    HW281162   8.962   4.869   8.453
26410SOL     OW81163   8.409   3.780   8.810
26410SOL    HW181164   8.420   3.772   8.711
26410SOL    HW281165   8.477   3.844   8.846
26411SOL     OW81166   8.440   4.838   9.194
26411SOL    HW181167   8.345   4.861   9.217
26411SOL    HW281168   8.442   4.762   9.130
26412SOL     OW81169   8.185   4.750   7.849
26412SOL    HW181170   8.169   4.718   7.942
26412SOL    HW281171   8.275   4.720   7.818
26413SOL     OW81172   7.913   4.551   8.710
26413SOL    HW181173   7.999   4.558   8.759
26413SOL    HW281174   7.884   4.455   8.707
26414SOL     OW81175   8.685   4.125   8.678
26414SOL    HW181176   8.709   4.201   8.737
26414SOL    HW281177   8.587   4.127   8.658
26415SOL     OW81178   7.524   5.262   8.775
26415SOL    HW181179   7.471   5.322   8.715
26415SOL    HW281180   7.622   5.278   8.760
26416SOL     OW81181   7.751   4.882   7.958
26416SOL    HW181182   7.742   4.965   7.904
26416SOL    HW281183   7.747   4.802   7.897
26417SOL     OW81184   8.021   4.203   8.259
26417SOL    HW181185   8.026   4.281   8.197
26417SOL    HW281186   8.074   4.223   8.342
26418SOL     OW81187   8.778   5.078   7.903
26418SOL    HW181188   8.802   5.174   7.920
26418SOL    HW281189   8.732   5.070   7.815
26419SOL     OW81190   8.766   5.220   8.580
26419SOL    HW181191   8.810   5.226   8.670
26419SOL    HW281192   8.708   5.139   8.576
26420SOL     OW81193   7.790   5.280   8.713
26420SOL    HW181194   7.786   5.215   8.637
26420SOL    HW281195   7.885   5.305   8.730
26421SOL     OW81196   9.058   4.519   9.101
26421SOL    HW181197   8.968   4.561   9.096
26421SOL    HW281198   9.121   4.567   9.040
26422SOL     OW81199   8.512   3.882   9.220
26422SOL    HW181200   8.537   3.969   9.177
26422SOL    HW281201   8.579   3.812   9.195
26423SOL     OW81202   8.054   4.591   8.478
26423SOL    HW181203   8.095   4.682   8.473
26423SOL    HW281204   8.000   4.584   8.562
26424SOL     OW81205   8.717   4.559   8.451
26424SOL    HW181206   8.627   4.526   8.423
26424SOL    HW281207   8.788   4.498   8.415
26425SOL     OW81208   8.561   4.221   7.714
26425SOL    HW181209   8.608   4.157   7.775
26425SOL    HW281210   8.533   4.301   7.767
26426SOL     OW81211   7.756   3.895   8.662
26426SOL    HW181212   7.722   3.943   8.743
26426SOL    HW281213   7.758   3.797   8.680
26427SOL     OW81214   7.536   5.002   8.680
26427SOL    HW181215   7.567   4.943   8.754
26427SOL    HW281216   7.524   5.095   8.714
26428SOL     OW81217   8.153   4.324   8.468
26428SOL    HW181218   8.235   4.309   8.413
26428SOL    HW281219   8.127   4.421   8.461
26429SOL     OW81220   9.091   4.104   7.772
26429SOL    HW181221   9.136   4.039   7.833
26429SOL    HW281222   9.040   4.172   7.826
26430SOL     OW81223   8.459   4.471   8.381
26430SOL    HW181224   8.431   4.491   8.475
26430SOL    HW281225   8.429   4.380   8.356
26431SOL     OW81226   8.450   5.290   9.219
26431SOL    HW181227   8.411   5.347   9.147
26431SOL    HW281228   8.495   5.210   9.179
26432SOL     OW81229   9.282   5.224   9.024
26432SOL    HW181230   9.304   5.257   8.933
26432SOL    HW281231   9.363   5.230   9.082
26433SOL     OW81232   7.887   4.549   9.289
26433SOL    HW181233   7.914   4.632   9.338
26433SOL    HW281234   7.967   4.489   9.278
26434SOL     OW81235   8.962   3.958   7.555
26434SOL    HW181236   8.908   3.885   7.598
26434SOL    HW281237   9.005   4.014   7.626
26435SOL     OW81238   8.741   4.581   7.446
26435SOL    HW181239   8.797   4.508   7.484
26435SOL    HW281240   8.770   4.600   7.352
26436SOL     OW81241   8.517   5.098   8.305
26436SOL    HW181242   8.554   5.019   8.256
26436SOL    HW281243   8.566   5.181   8.276
26437SOL     OW81244   7.790   4.526   8.388
26437SOL    HW181245   7.888   4.549   8.392
26437SOL    HW281246   7.778   4.428   8.405
26438SOL     OW81247   7.811   4.254   8.429
26438SOL    HW181248   7.745   4.180   8.435
26438SOL    HW281249   7.878   4.234   8.358
26439SOL     OW81250   8.570   4.125   9.110
26439SOL    HW181251   8.526   4.176   9.184
26439SOL    HW281252   8.662   4.162   9.095
26440SOL     OW81253   8.604   3.953   8.893
26440SOL    HW181254   8.581   4.018   8.964
26440SOL    HW281255   8.643   4.001   8.814
26441SOL     OW81256   7.437   5.015   7.664
26441SOL    HW181257   7.348   5.041   7.627
26441SOL    HW281258   7.433   4.921   7.698
26442SOL     OW81259   7.548   5.503   8.407
26442SOL    HW181260   7.499   5.435   8.353
26442SOL    HW281261   7.636   5.522   8.364
26443SOL     OW81262   7.925   5.302   8.354
26443SOL    HW181263   7.996   5.366   8.385
26443SOL    HW281264   7.967   5.231   8.298
26444SOL     OW81265   8.373   4.527   8.628
26444SOL    HW181266   8.434   4.499   8.702
26444SOL    HW281267   8.279   4.532   8.662
26445SOL     OW81268   7.516   4.267   8.574
26445SOL    HW181269   7.552   4.189   8.524
26445SOL    HW281270   7.559   4.272   8.664
26446SOL     OW81271   8.826   4.661   9.060
26446SOL    HW181272   8.848   4.758   9.055
26446SOL    HW281273   8.812   4.625   8.968
26447SOL     OW81274   8.228   4.284   7.819
26447SOL    HW181275   8.241   4.206   7.757
26447SOL    HW281276   8.155   4.343   7.784
26448SOL     OW81277   9.108   4.400   8.553
26448SOL    HW181278   9.083   4.328   8.618
26448SOL    HW281279   9.206   4.392   8.532
26449SOL     OW81280   7.681   5.233   9.170
26449SOL    HW181281   7.663   5.296   9.246
26449SOL    HW281282   7.692   5.140   9.206
26450SOL     OW81283   8.140   4.170   8.686
26450SOL    HW181284   8.100   4.083   8.660
26450SOL    HW281285   8.144   4.231   8.607
26451SOL     OW81286   8.314   5.429   9.018
26451SOL    HW181287   8.258   5.363   8.968
26451SOL    HW281288   8.346   5.500   8.954
26452SOL     OW81289   7.883   4.203   7.656
26452SOL    HW181290   7.954   4.274   7.666
26452SOL    HW281291   7.793   4.246   7.654
26453SOL     OW81292   7.610   4.855   8.921
26453SOL    HW181293   7.621   4.815   9.011
26453SOL    HW281294   7.635   4.788   8.851
26454SOL     OW81295   8.699   4.762   8.632
26454SOL    HW181296   8.707   4.691   8.562
26454SOL    HW281297   8.666   4.847   8.591
26455SOL     OW81298   8.753   4.718   7.686
26455SOL    HW181299   8.669   4.711   7.740
26455SOL    HW281300   8.743   4.664   7.603
26456SOL     OW81301   9.201   5.477   8.576
26456SOL    HW181302   9.272   5.498   8.510
26456SOL    HW281303   9.171   5.382   8.564
26457SOL     OW81304   8.725   5.476   8.496
26457SOL    HW181305   8.810   5.529   8.494
26457SOL    HW281306   8.743   5.386   8.536
26458SOL     OW81307   7.552   4.928   8.420
26458SOL    HW181308   7.545   4.963   8.513
26458SOL    HW281309   7.476   4.866   8.402
26459SOL     OW81310   8.144   5.435   9.240
26459SOL    HW181311   8.075   5.506   9.231
26459SOL    HW281312   8.218   5.453   9.175
26460SOL     OW81313   9.225   3.918   7.918
26460SOL    HW181314   9.276   3.887   7.838
26460SOL    HW281315   9.170   3.843   7.954
26461SOL     OW81316   8.840   5.341   7.937
26461SOL    HW181317   8.900   5.378   7.866
26461SOL    HW281318   8.773   5.410   7.964
26462SOL     OW81319   7.595   5.491   9.297
26462SOL    HW181320   7.557   5.412   9.345
26462SOL    HW281321   7.636   5.553   9.364
26463SOL     OW81322   8.746   4.666   8.083
26463SOL    HW181323   8.813   4.592   8.092
26463SOL    HW281324   8.791   4.750   8.054
26464SOL     OW81325   8.214   5.034   8.877
26464SOL    HW181326   8.188   5.092   8.955
26464SOL    HW281327   8.141   5.035   8.809
26465SOL     OW81328   8.013   5.415   7.597
26465SOL    HW181329   7.995   5.476   7.520
26465SOL    HW281330   7.994   5.320   7.570
26466SOL     OW81331   9.062   5.460   8.851
26466SOL    HW181332   9.108   5.457   8.762
26466SOL    HW281333   9.087   5.545   8.898
26467SOL     OW81334   9.291   3.872   8.447
26467SOL    HW181335   9.335   3.788   8.414
26467SOL    HW281336   9.192   3.861   8.444
26468SOL     OW81337   8.671   5.324   7.479
26468SOL    HW181338   8.603   5.293   7.546
26468SOL    HW281339   8.633   5.315   7.387
26469SOL     OW81340   8.297   4.778   8.839
26469SOL    HW181341   8.338   4.780   8.748
26469SOL    HW281342   8.263   4.868   8.864
26470SOL     OW81343   8.426   4.661   7.763
26470SOL    HW181344   8.442   4.655   7.665
26470SOL    HW281345   8.444   4.572   7.806
26471SOL     OW81346   8.944   5.329   7.490
26471SOL    HW181347   8.844   5.325   7.487
26471SOL    HW281348   8.979   5.338   7.397
26472SOL     OW81349   7.819   5.045   8.929
26472SOL    HW181350   7.819   5.110   8.853
26472SOL    HW281351   7.745   4.979   8.917
26473SOL     OW81352   9.045   5.048   8.718
26473SOL    HW181353   9.099   5.012   8.795
26473SOL    HW281354   8.980   5.116   8.753
26474SOL     OW81355   8.590   4.837   8.239
26474SOL    HW181356   8.500   4.800   8.264
26474SOL    HW281357   8.637   4.772   8.179
26475SOL     OW81358   8.438   3.969   8.390
26475SOL    HW181359   8.446   3.933   8.297
26475SOL    HW281360   8.447   3.894   8.456
26476SOL     OW81361   8.033   5.231   7.974
26476SOL    HW181362   8.067   5.163   7.909
26476SOL    HW281363   7.977   5.298   7.926
26477SOL     OW81364   9.257   4.081   8.870
26477SOL    HW181365   9.293   4.169   8.842
26477SOL    HW281366   9.290   4.010   8.808
26478SOL     OW81367   7.696   5.074   7.730
26478SOL    HW181368   7.600   5.051   7.714
26478SOL    HW281369   7.704   5.135   7.808
26479SOL     OW81370   7.631   4.733   9.174
26479SOL    HW181371   7.543   4.697   9.203
26479SOL    HW281372   7.701   4.663   9.185
26480SOL     OW81373   8.147   3.833   8.857
26480SOL    HW181374   8.243   3.810   8.842
26480SOL    HW281375   8.141   3.916   8.913
26481SOL     OW81376   7.522   4.056   7.456
26481SOL    HW181377   7.433   4.053   7.411
26481SOL    HW281378   7.574   4.134   7.422
26482SOL     OW81379   8.831   4.584   8.799
26482SOL    HW181380   8.768   4.639   8.744
26482SOL    HW281381   8.925   4.597   8.766
26483SOL     OW81382   7.496   3.863   7.675
26483SOL    HW181383   7.486   3.936   7.607
26483SOL    HW281384   7.586   3.820   7.664
26484SOL     OW81385   8.159   4.541   8.812
26484SOL    HW181386   8.204   4.625   8.842
26484SOL    HW281387   8.198   4.463   8.861
26485SOL     OW81388   8.968   5.613   8.484
26485SOL    HW181389   8.995   5.666   8.403
26485SOL    HW281390   9.047   5.561   8.517
26486SOL     OW81391   8.194   4.205   9.147
26486SOL    HW181392   8.156   4.278   9.205
26486SOL    HW281393   8.236   4.135   9.205
26487SOL     OW81394   8.901   4.923   9.031
26487SOL    HW181395   8.880   4.961   9.121
26487SOL    HW281396   8.994   4.948   9.005
26488SOL     OW81397   7.838   5.458   9.047
26488SOL    HW181398   7.746   5.491   9.028
26488SOL    HW281399   7.835   5.362   9.074
26489SOL     OW81400   9.077   4.637   8.686
26489SOL    HW181401   9.092   4.555   8.631
26489SOL    HW281402   9.060   4.715   8.626
26490SOL     OW81403   8.661   4.052   7.909
26490SOL    HW181404   8.725   3.975   7.906
26490SOL    HW281405   8.679   4.108   7.989
26491SOL     OW81406   8.033   4.435   8.120
26491SOL    HW181407   8.083   4.522   8.121
26491SOL    HW281408   7.964   4.437   8.048
26492SOL     OW81409   9.171   4.076   9.130
26492SOL    HW181410   9.200   4.080   9.035
26492SOL    HW281411   9.087   4.022   9.137
26493SOL     OW81412   9.196   4.679   8.930
26493SOL    HW181413   9.176   4.774   8.954
26493SOL    HW281414   9.162   4.659   8.838
26494SOL     OW81415   8.226   5.114   7.621
26494SOL    HW181416   8.221   5.080   7.715
26494SOL    HW281417   8.135   5.141   7.591
26495SOL     OW81418   8.111   5.489   8.405
26495SOL    HW181419   8.091   5.585   8.385
26495SOL    HW281420   8.207   5.470   8.386
26496SOL     OW81421   8.345   4.721   8.315
26496SOL    HW181422   8.381   4.631   8.342
26496SOL    HW281423   8.294   4.760   8.392
26497SOL     OW81424   8.486   4.642   7.500
26497SOL    HW181425   8.466   4.722   7.444
26497SOL    HW281426   8.578   4.609   7.480
26498SOL     OW81427   9.240   5.281   8.259
26498SOL    HW181428   9.155   5.305   8.213
26498SOL    HW281429   9.220   5.242   8.349
26499SOL     OW81430   7.689   4.977   9.288
26499SOL    HW181431   7.673   4.890   9.241
26499SOL    HW281432   7.622   4.988   9.361
26500SOL     OW81433   7.584   5.018   8.153
26500SOL    HW181434   7.577   4.991   8.249
26500SOL    HW281435   7.640   4.951   8.103
26501SOL     OW81436   8.129   5.196   9.085
26501SOL    HW181437   8.056   5.137   9.119
26501SOL    HW281438   8.139   5.276   9.145
26502SOL     OW81439   9.353   3.896   8.710
26502SOL    HW181440   9.423   3.824   8.717
26502SOL    HW281441   9.316   3.897   8.617
26503SOL     OW81442   7.905   4.158   8.000
26503SOL    HW181443   7.942   4.092   7.934
26503SOL    HW281444   7.954   4.148   8.087
26504SOL     OW81445   9.132   5.221   8.513
26504SOL    HW181446   9.053   5.204   8.455
26504SOL    HW281447   9.135   5.154   8.587
26505SOL     OW81448   7.868   4.283   8.695
26505SOL    HW181449   7.957   4.242   8.714
26505SOL    HW281450   7.847   4.272   8.598
26506SOL     OW81451   8.260   5.308   8.105
26506SOL    HW181452   8.312   5.360   8.037
26506SOL    HW281453   8.171   5.283   8.067
26507SOL     OW81454   8.436   3.741   8.544
26507SOL    HW181455   8.352   3.710   8.499
26507SOL    HW281456   8.508   3.674   8.529
26508SOL     OW81457   8.195   5.023   7.873
26508SOL    HW181458   8.183   4.924   7.862
26508SOL    HW281459   8.253   5.040   7.953
26509SOL     OW81460   8.062   5.322   8.724
26509SOL    HW181461   8.054   5.413   8.764
26509SOL    HW281462   8.150   5.313   8.677
26510SOL     OW81463   8.828   3.735   7.646
26510SOL    HW181464   8.885   3.668   7.599
26510SOL    HW281465   8.733   3.704   7.646
26511SOL     OW81466   8.700   4.201   8.133
26511SOL    HW181467   8.657   4.291   8.127
26511SOL    HW281468   8.717   4.178   8.229
26512SOL     OW81469   7.470   4.758   7.773
26512SOL    HW181470   7.569   4.754   7.758
26512SOL    HW281471   7.435   4.666   7.791
26513SOL     OW81472   9.274   4.260   9.473
26513SOL    HW181473   9.222   4.298   9.396
26513SOL    HW281474   9.211   4.220   9.540
26514SOL     OW81475   7.669   5.461   9.767
26514SOL    HW181476   7.681   5.529   9.839
26514SOL    HW281477   7.747   5.465   9.704
26515SOL     OW81478   7.611   5.215   9.863
26515SOL    HW181479   7.637   5.307   9.834
26515SOL    HW281480   7.573   5.219   9.956
26516SOL     OW81481   8.010   4.754   9.442
26516SOL    HW181482   8.062   4.795   9.367
26516SOL    HW281483   8.057   4.771   9.529
26517SOL     OW81484   7.627   4.417   9.880
26517SOL    HW181485   7.533   4.383   9.869
26517SOL    HW281486   7.628   4.487   9.951
26518SOL     OW81487   9.275   5.478   9.664
26518SOL    HW181488   9.363   5.456   9.706
26518SOL    HW281489   9.286   5.559   9.606
26519SOL     OW81490   7.525   5.268   9.428
26519SOL    HW181491   7.510   5.170   9.441
26519SOL    HW281492   7.488   5.318   9.506
26520SOL     OW81493   9.129   4.615   9.950
26520SOL    HW181494   9.161   4.583   9.861
26520SOL    HW281495   9.083   4.703   9.939
26521SOL     OW81496   8.995   4.852   9.909
26521SOL    HW181497   9.056   4.930   9.901
26521SOL    HW281498   8.931   4.867   9.985
26522SOL     OW81499   8.077   5.020   9.977
26522SOL    HW181500   8.005   4.953   9.996
26522SOL    HW281501   8.056   5.068   9.893
26523SOL     OW81502   8.274   3.782   9.794
26523SOL    HW181503   8.321   3.863   9.759
26523SOL    HW281504   8.177   3.801   9.805
26524SOL     OW81505   9.023   5.359   9.644
26524SOL    HW181506   9.113   5.401   9.662
26524SOL    HW281507   9.000   5.370   9.548
26525SOL     OW81508   8.383   4.469   9.830
26525SOL    HW181509   8.450   4.423   9.888
26525SOL    HW281510   8.291   4.447   9.862
26526SOL     OW81511   7.591   4.578   0.091
26526SOL    HW181512   7.643   4.592   0.176
26526SOL    HW281513   7.495   4.602   0.106
26527SOL     OW81514   8.319   4.030   9.340
26527SOL    HW181515   8.371   4.114   9.353
26527SOL    HW281516   8.379   3.958   9.305
26528SOL     OW81517   8.775   4.797   9.742
26528SOL    HW181518   8.857   4.811   9.796
26528SOL    HW281519   8.727   4.884   9.732
26529SOL     OW81520   8.421   5.154   9.830
26529SOL    HW181521   8.397   5.244   9.794
26529SOL    HW281522   8.387   5.145   9.923
26530SOL     OW81523   7.812   5.563   0.200
26530SOL    HW181524   7.822   5.480   0.254
26530SOL    HW281525   7.903   5.602   0.182
26531SOL     OW81526   7.828   4.652   9.635
26531SOL    HW181527   7.880   4.687   9.557
26531SOL    HW281528   7.742   4.613   9.602
26532SOL     OW81529   8.606   5.501   9.566
26532SOL    HW181530   8.529   5.471   9.623
26532SOL    HW281531   8.627   5.431   9.498
26533SOL     OW81532   9.051   5.111   9.409
26533SOL    HW181533   9.038   5.210   9.405
26533SOL    HW281534   8.974   5.066   9.363
26534SOL     OW81535   7.902   5.522   9.630
26534SOL    HW181536   7.944   5.564   9.711
26534SOL    HW281537   7.970   5.467   9.582
26535SOL     OW81538   8.873   3.883   9.716
26535SOL    HW181539   8.872   3.832   9.630
26535SOL    HW281540   8.968   3.905   9.741
26536SOL     OW81541   7.893   4.430   9.786
26536SOL    HW181542   7.887   4.518   9.737
26536SOL    HW281543   7.805   4.410   9.828
26537SOL     OW81544   7.998   3.825   9.825
26537SOL    HW181545   7.907   3.821   9.865
26537SOL    HW281546   7.998   3.887   9.747
26538SOL     OW81547   8.825   4.989   9.291
26538SOL    HW181548   8.870   4.905   9.321
26538SOL    HW281549   8.753   5.013   9.356
26539SOL     OW81550   7.778   3.806   9.530
26539SOL    HW181551   7.835   3.887   9.546
26539SOL    HW281552   7.824   3.725   9.565
26540SOL     OW81553   8.393   4.013   9.693
26540SOL    HW181554   8.367   4.020   9.597
26540SOL    HW281555   8.491   4.028   9.703
26541SOL     OW81556   7.865   4.869   0.060
26541SOL    HW181557   7.807   4.917   0.126
26541SOL    HW281558   7.817   4.860   9.973
26542SOL     OW81559   8.737   5.545   9.880
26542SOL    HW181560   8.782   5.621   9.833
26542SOL    HW281561   8.735   5.563   9.978
26543SOL     OW81562   8.474   4.255   9.338
26543SOL    HW181563   8.434   4.343   9.314
26543SOL    HW281564   8.544   4.268   9.408
26544SOL     OW81565   8.303   4.158   9.920
26544SOL    HW181566   8.234   4.228   9.905
26544SOL    HW281567   8.323   4.112   9.833
26545SOL     OW81568   9.223   4.517   9.718
26545SOL    HW181569   9.303   4.462   9.742
26545SOL    HW281570   9.244   4.573   9.637
26546SOL     OW81571   7.900   5.175   9.507
26546SOL    HW181572   7.819   5.144   9.557
26546SOL    HW281573   7.906   5.127   9.419
26547SOL     OW81574   8.851   4.322   9.328
26547SOL    HW181575   8.800   4.290   9.408
26547SOL    HW281576   8.948   4.308   9.342
26548SOL     OW81577   7.982   3.979   9.603
26548SOL    HW181578   8.020   3.964   9.511
26548SOL    HW281579   7.982   4.077   9.622
26549SOL     OW81580   8.159   4.804   9.670
26549SOL    HW181581   8.130   4.790   9.765
26549SOL    HW281582   8.235   4.743   9.649
26550SOL     OW81583   7.758   4.855   9.810
26550SOL    HW181584   7.748   4.937   9.753
26550SOL    HW281585   7.788   4.778   9.753
26551SOL     OW81586   8.657   5.061   9.726
26551SOL    HW181587   8.719   5.139   9.736
26551SOL    HW281588   8.570   5.081   9.769
26552SOL     OW81589   8.992   4.387   9.646
26552SOL    HW181590   8.913   4.448   9.643
26552SOL    HW281591   9.073   4.438   9.673
26553SOL     OW81592   8.669   4.286   9.535
26553SOL    HW181593   8.668   4.205   9.593
26553SOL    HW281594   8.693   4.366   9.589
26554SOL     OW81595   7.753   3.803   9.941
26554SOL    HW181596   7.689   3.878   9.958
26554SOL    HW281597   7.768   3.752   0.025
26555SOL     OW81598   9.050   4.133   9.585
26555SOL    HW181599   9.070   4.078   9.665
26555SOL    HW281600   9.017   4.223   9.614
26556SOL     OW81601   8.940   3.981   9.385
26556SOL    HW181602   8.896   3.901   9.427
26556SOL    HW281603   8.979   4.038   9.456
26557SOL     OW81604   8.778   4.580   9.314
26557SOL    HW181605   8.801   4.483   9.319
26557SOL    HW281606   8.781   4.610   9.219
26558SOL     OW81607   7.485   4.995   9.476
26558SOL    HW181608   7.391   5.015   9.447
26558SOL    HW281609   7.485   4.910   9.528
26559SOL     OW81610   8.773   4.552   9.612
26559SOL    HW181611   8.766   4.635   9.667
26559SOL    HW281612   8.758   4.574   9.516
26560SOL     OW81613   9.136   3.948   9.767
26560SOL    HW181614   9.205   3.917   9.701
26560SOL    HW281615   9.175   3.944   9.859
26561SOL     OW81616   8.793   5.298   9.776
26561SOL    HW181617   8.880   5.307   9.728
26561SOL    HW281618   8.758   5.389   9.798
26562SOL     OW81619   8.100   5.374   9.504
26562SOL    HW181620   8.127   5.389   9.409
26562SOL    HW281621   8.037   5.296   9.509
26563SOL     OW81622   8.677   5.314   9.378
26563SOL    HW181623   8.667   5.220   9.411
26563SOL    HW281624   8.605   5.334   9.311
26564SOL     OW81625   8.363   4.644   9.620
26564SOL    HW181626   8.438   4.648   9.554
26564SOL    HW281627   8.385   4.577   9.691
26565SOL     OW81628   8.944   5.385   9.380
26565SOL    HW181629   8.848   5.361   9.371
26565SOL    HW281630   8.987   5.386   9.289
26566SOL     OW81631   8.040   5.148   9.745
26566SOL    HW181632   8.127   5.124   9.701
26566SOL    HW281633   7.971   5.164   9.675
26567SOL     OW81634   7.691   5.072   9.652
26567SOL    HW181635   7.612   5.047   9.597
26567SOL    HW281636   7.661   5.123   9.732
26568SOL     OW81637   7.524   3.909   9.529
26568SOL    HW181638   7.521   3.976   9.456
26568SOL    HW281639   7.617   3.873   9.537
26569SOL     OW81640   8.620   5.056   9.454
26569SOL    HW181641   8.525   5.041   9.428
26569SOL    HW281642   8.629   5.046   9.553
26570SOL     OW81643   8.666   4.067   9.706
26570SOL    HW181644   8.735   3.994   9.702
26570SOL    HW281645   8.692   4.134   9.775
26571SOL     OW81646   8.133   4.381   9.928
26571SOL    HW181647   8.115   4.390   0.026
26571SOL    HW281648   8.049   4.398   9.877
26572SOL     OW81649   8.341   5.083   9.372
26572SOL    HW181650   8.311   5.093   9.467
26572SOL    HW281651   8.364   5.174   9.336
26573SOL     OW81652   8.531   4.670   9.397
26573SOL    HW181653   8.504   4.749   9.342
26573SOL    HW281654   8.622   4.640   9.369
26574SOL     OW81655   7.499   4.857   9.902
26574SOL    HW181656   7.488   4.877   9.999
26574SOL    HW281657   7.597   4.858   9.879
26575SOL     OW81658   8.266   5.054   9.629
26575SOL    HW181659   8.234   4.960   9.640
26575SOL    HW281660   8.331   5.076   9.703
26576SOL     OW81661   8.829   3.748   9.486
26576SOL    HW181662   8.875   3.674   9.437
26576SOL    HW281663   8.738   3.716   9.515
26577SOL     OW81664   7.479   4.779   9.637
26577SOL    HW181665   7.488   4.801   9.734
26577SOL    HW281666   7.510   4.685   9.621
26578SOL     OW81667   8.332   5.386   9.703
26578SOL    HW181668   8.259   5.370   9.636
26578SOL    HW281669   8.310   5.468   9.757
26579SOL     OW81670   7.560   6.096   0.062
26579SOL    HW181671   7.472   6.114   0.107
26579SOL    HW281672   7.571   6.158   9.985
26580SOL     OW81673   7.632   5.843   0.983
26580SOL    HW181674   7.665   5.809   1.070
26580SOL    HW281675   7.533   5.827   0.976
26581SOL     OW81676   7.471   5.996   0.616
26581SOL    HW181677   7.396   6.000   0.682
26581SOL    HW281678   7.450   5.928   0.545
26582SOL     OW81679   8.055   6.895   1.182
26582SOL    HW181680   7.963   6.887   1.142
26582SOL    HW281681   8.071   6.989   1.211
26583SOL     OW81682   9.085   7.286   0.708
26583SOL    HW181683   9.172   7.237   0.694
26583SOL    HW281684   9.012   7.239   0.659
26584SOL     OW81685   8.559   6.297   0.652
26584SOL    HW181686   8.608   6.380   0.625
26584SOL    HW281687   8.514   6.311   0.740
26585SOL     OW81688   9.168   6.180   0.202
26585SOL    HW181689   9.081   6.167   0.154
26585SOL    HW281690   9.175   6.114   0.277
26586SOL     OW81691   8.205   6.681   1.051
26586SOL    HW181692   8.148   6.753   1.090
26586SOL    HW281693   8.301   6.706   1.059
26587SOL     OW81694   8.396   6.295   1.805
26587SOL    HW181695   8.424   6.362   1.874
26587SOL    HW281696   8.392   6.339   1.716
26588SOL     OW81697   8.161   6.519   0.577
26588SOL    HW181698   8.216   6.540   0.658
26588SOL    HW281699   8.200   6.564   0.497
26589SOL     OW81700   8.189   6.710   1.870
26589SOL    HW181701   8.232   6.789   1.914
26589SOL    HW281702   8.114   6.740   1.812
26590SOL     OW81703   7.803   6.974   1.070
26590SOL    HW181704   7.733   6.909   1.041
26590SOL    HW281705   7.834   7.028   0.992
26591SOL     OW81706   8.879   7.181   1.375
26591SOL    HW181707   8.939   7.260   1.387
26591SOL    HW281708   8.805   7.186   1.443
26592SOL     OW81709   7.923   5.949   1.475
26592SOL    HW181710   8.003   5.889   1.477
26592SOL    HW281711   7.841   5.896   1.494
26593SOL     OW81712   9.009   6.029   0.740
26593SOL    HW181713   8.932   6.017   0.678
26593SOL    HW281714   8.990   6.103   0.804
26594SOL     OW81715   7.683   7.277   0.487
26594SOL    HW181716   7.686   7.357   0.547
26594SOL    HW281717   7.772   7.265   0.443
26595SOL     OW81718   8.543   6.936   1.724
26595SOL    HW181719   8.584   6.932   1.815
26595SOL    HW281720   8.501   6.848   1.703
26596SOL     OW81721   7.623   7.025   0.583
26596SOL    HW181722   7.640   7.121   0.563
26596SOL    HW281723   7.526   7.012   0.606
26597SOL     OW81724   8.009   7.358   1.415
26597SOL    HW181725   7.936   7.353   1.483
26597SOL    HW281726   8.067   7.437   1.433
26598SOL     OW81727   9.162   5.663   1.513
26598SOL    HW181728   9.191   5.712   1.431
26598SOL    HW281729   9.102   5.722   1.568
26599SOL     OW81730   7.547   6.250   0.531
26599SOL    HW181731   7.524   6.156   0.554
26599SOL    HW281732   7.544   6.306   0.613
26600SOL     OW81733   9.309   7.320   0.316
26600SOL    HW181734   9.373   7.304   0.391
26600SOL    HW281735   9.320   7.413   0.282
26601SOL     OW81736   7.424   7.176   0.036
26601SOL    HW181737   7.486   7.104   0.008
26601SOL    HW281738   7.460   7.220   0.118
26602SOL     OW81739   9.085   6.497   0.603
26602SOL    HW181740   9.142   6.447   0.537
26602SOL    HW281741   9.046   6.578   0.559
26603SOL     OW81742   9.141   6.724   0.417
26603SOL    HW181743   9.219   6.688   0.366
26603SOL    HW281744   9.173   6.761   0.504
26604SOL     OW81745   7.529   6.377   1.509
26604SOL    HW181746   7.601   6.427   1.462
26604SOL    HW281747   7.444   6.430   1.508
26605SOL     OW81748   8.037   6.943   0.751
26605SOL    HW181749   7.947   6.901   0.746
26605SOL    HW281750   8.068   6.968   0.659
26606SOL     OW81751   8.748   6.866   1.414
26606SOL    HW181752   8.832   6.883   1.362
26606SOL    HW281753   8.771   6.827   1.502
26607SOL     OW81754   8.266   5.604   0.544
26607SOL    HW181755   8.313   5.685   0.509
26607SOL    HW281756   8.167   5.618   0.541
26608SOL     OW81757   7.711   6.524   1.366
26608SOL    HW181758   7.787   6.470   1.330
26608SOL    HW281759   7.675   6.583   1.293
26609SOL     OW81760   9.011   6.619   0.200
26609SOL    HW181761   8.956   6.542   0.231
26609SOL    HW281762   9.049   6.667   0.279
26610SOL     OW81763   8.709   7.454   1.625
26610SOL    HW181764   8.681   7.513   1.550
26610SOL    HW281765   8.703   7.358   1.597
26611SOL     OW81766   7.798   5.858   1.885
26611SOL    HW181767   7.839   5.935   1.935
26611SOL    HW281768   7.714   5.889   1.840
26612SOL     OW81769   8.905   7.002   0.945
26612SOL    HW181770   8.847   7.029   1.022
26612SOL    HW281771   8.868   7.039   0.860
26613SOL     OW81772   9.067   7.468   0.501
26613SOL    HW181773   9.061   7.400   0.428
26613SOL    HW281774   9.077   7.422   0.589
26614SOL     OW81775   7.985   6.204   0.246
26614SOL    HW181776   7.977   6.272   0.173
26614SOL    HW281777   7.925   6.230   0.322
26615SOL     OW81778   8.725   5.978   0.941
26615SOL    HW181779   8.637   5.930   0.941
26615SOL    HW281780   8.785   5.937   1.010
26616SOL     OW81781   9.039   7.263   0.321
26616SOL    HW181782   9.138   7.269   0.313
26616SOL    HW281783   9.000   7.229   0.235
26617SOL     OW81784   8.248   6.146   1.414
26617SOL    HW181785   8.242   6.113   1.509
26617SOL    HW281786   8.215   6.074   1.353
26618SOL     OW81787   8.817   6.031   1.671
26618SOL    HW181788   8.821   6.083   1.756
26618SOL    HW281789   8.885   5.957   1.673
26619SOL     OW81790   8.415   6.455   1.574
26619SOL    HW181791   8.464   6.387   1.518
26619SOL    HW281792   8.357   6.511   1.515
26620SOL     OW81793   8.440   5.938   1.196
26620SOL    HW181794   8.343   5.948   1.219
26620SOL    HW281795   8.448   5.910   1.100
26621SOL     OW81796   8.473   6.233   0.399
26621SOL    HW181797   8.493   6.242   0.496
26621SOL    HW281798   8.382   6.194   0.387
26622SOL     OW81799   7.545   6.400   0.760
26622SOL    HW181800   7.636   6.440   0.752
26622SOL    HW281801   7.530   6.370   0.854
26623SOL     OW81802   7.577   7.484   1.637
26623SOL    HW181803   7.576   7.434   1.724
26623SOL    HW281804   7.484   7.488   1.600
26624SOL     OW81805   8.321   5.882   0.196
26624SOL    HW181806   8.319   5.939   0.114
26624SOL    HW281807   8.326   5.786   0.170
26625SOL     OW81808   9.102   6.168   1.838
26625SOL    HW181809   9.093   6.248   1.779
26625SOL    HW281810   9.140   6.092   1.786
26626SOL     OW81811   8.869   6.737   0.525
26626SOL    HW181812   8.952   6.760   0.474
26626SOL    HW281813   8.815   6.820   0.539
26627SOL     OW81814   7.960   5.725   0.930
26627SOL    HW181815   7.973   5.746   1.027
26627SOL    HW281816   7.958   5.810   0.877
26628SOL     OW81817   8.463   7.078   0.507
26628SOL    HW181818   8.453   7.154   0.443
26628SOL    HW281819   8.409   7.097   0.589
26629SOL     OW81820   7.747   7.369   0.906
26629SOL    HW181821   7.786   7.278   0.893
26629SOL    HW281822   7.815   7.428   0.950
26630SOL     OW81823   9.193   6.614   0.823
26630SOL    HW181824   9.152   6.558   0.751
26630SOL    HW281825   9.121   6.662   0.873
26631SOL     OW81826   8.669   7.186   1.542
26631SOL    HW181827   8.661   7.096   1.586
26631SOL    HW281828   8.585   7.206   1.491
26632SOL     OW81829   8.883   6.340   0.691
26632SOL    HW181830   8.886   6.300   0.783
26632SOL    HW281831   8.967   6.392   0.675
26633SOL     OW81832   7.979   6.803   1.710
26633SOL    HW181833   7.973   6.755   1.623
26633SOL    HW281834   7.890   6.804   1.755
26634SOL     OW81835   8.478   7.481   0.196
26634SOL    HW181836   8.452   7.405   0.257
26634SOL    HW281837   8.441   7.464   0.105
26635SOL     OW81838   7.678   5.812   1.492
26635SOL    HW181839   7.600   5.874   1.485
26635SOL    HW281840   7.651   5.731   1.544
26636SOL     OW81841   9.168   6.975   0.077
26636SOL    HW181842   9.100   7.046   0.089
26636SOL    HW281843   9.126   6.895   0.035
26637SOL     OW81844   7.939   7.294   0.383
26637SOL    HW181845   7.963   7.374   0.437
26637SOL    HW281846   8.018   7.264   0.330
26638SOL     OW81847   8.861   5.691   0.423
26638SOL    HW181848   8.845   5.658   0.330
26638SOL    HW281849   8.958   5.715   0.433
26639SOL     OW81850   7.655   7.454   1.233
26639SOL    HW181851   7.705   7.368   1.245
26639SOL    HW281852   7.607   7.452   1.145
26640SOL     OW81853   8.374   7.326   0.869
26640SOL    HW181854   8.460   7.276   0.873
26640SOL    HW281855   8.313   7.283   0.802
26641SOL     OW81856   7.816   6.240   0.458
26641SOL    HW181857   7.835   6.145   0.481
26641SOL    HW281858   7.719   6.259   0.472
26642SOL     OW81859   8.972   5.795   1.693
26642SOL    HW181860   8.971   5.804   1.793
26642SOL    HW281861   8.903   5.728   1.665
26643SOL     OW81862   8.063   5.660   0.124
26643SOL    HW181863   8.160   5.638   0.134
26643SOL    HW281864   8.042   5.673   0.027
26644SOL     OW81865   8.227   5.821   1.751
26644SOL    HW181866   8.308   5.763   1.753
26644SOL    HW281867   8.167   5.797   1.828
26645SOL     OW81868   8.348   7.117   1.178
26645SOL    HW181869   8.312   7.095   1.087
26645SOL    HW281870   8.410   7.045   1.208
26646SOL     OW81871   8.728   6.152   1.444
26646SOL    HW181872   8.762   6.114   1.531
26646SOL    HW281873   8.777   6.236   1.424
26647SOL     OW81874   8.257   7.017   0.929
26647SOL    HW181875   8.343   6.977   0.897
26647SOL    HW281876   8.180   6.963   0.895
26648SOL     OW81877   8.367   6.075   0.872
26648SOL    HW181878   8.336   6.067   0.777
26648SOL    HW281879   8.411   5.990   0.900
26649SOL     OW81880   7.997   5.646   0.510
26649SOL    HW181881   7.916   5.637   0.568
26649SOL    HW281882   7.982   5.718   0.442
26650SOL     OW81883   9.031   6.763   9.973
26650SOL    HW181884   9.020   6.707   0.055
26650SOL    HW281885   8.946   6.760   9.919
26651SOL     OW81886   8.394   5.825   0.456
26651SOL    HW181887   8.367   5.850   0.363
26651SOL    HW281888   8.489   5.852   0.472
26652SOL     OW81889   8.486   6.272   1.383
26652SOL    HW181890   8.406   6.212   1.391
26652SOL    HW281891   8.570   6.219   1.397
26653SOL     OW81892   8.619   7.204   0.809
26653SOL    HW181893   8.641   7.255   0.726
26653SOL    HW281894   8.662   7.248   0.888
26654SOL     OW81895   8.671   7.397   0.605
26654SOL    HW181896   8.721   7.457   0.541
26654SOL    HW281897   8.592   7.447   0.642
26655SOL     OW81898   8.581   6.112   9.970
26655SOL    HW181899   8.487   6.076   9.976
26655SOL    HW281900   8.616   6.128   0.062
26656SOL     OW81901   7.550   6.165   1.340
26656SOL    HW181902   7.648   6.148   1.331
26656SOL    HW281903   7.534   6.236   1.409
26657SOL     OW81904   7.985   5.758   1.198
26657SOL    HW181905   8.015   5.678   1.251
26657SOL    HW281906   7.887   5.772   1.211
26658SOL     OW81907   8.289   6.028   0.615
26658SOL    HW181908   8.239   6.083   0.549
26658SOL    HW281909   8.321   5.944   0.572
26659SOL     OW81910   8.472   5.629   0.740
26659SOL    HW181911   8.398   5.624   0.673
26659SOL    HW281912   8.459   5.557   0.809
26660SOL     OW81913   8.887   6.203   0.932
26660SOL    HW181914   8.819   6.130   0.936
26660SOL    HW281915   8.953   6.191   1.007
26661SOL     OW81916   9.240   6.373   0.410
26661SOL    HW181917   9.309   6.329   0.467
26661SOL    HW281918   9.193   6.303   0.356
26662SOL     OW81919   7.939   7.006   0.234
26662SOL    HW181920   7.845   6.983   0.262
26662SOL    HW281921   7.960   6.961   0.148
26663SOL     OW81922   8.911   6.110   0.112
26663SOL    HW181923   8.841   6.139   0.177
26663SOL    HW281924   8.899   6.013   0.091
26664SOL     OW81925   7.949   5.828   0.309
26664SOL    HW181926   8.006   5.773   0.247
26664SOL    HW281927   7.894   5.892   0.256
26665SOL     OW81928   9.145   6.879   1.559
26665SOL    HW181929   9.218   6.814   1.537
26665SOL    HW281930   9.185   6.959   1.603
26666SOL     OW81931   8.511   6.921   1.288
26666SOL    HW181932   8.429   6.896   1.338
26666SOL    HW281933   8.592   6.896   1.341
26667SOL     OW81934   9.091   7.313   1.683
26667SOL    HW181935   9.062   7.335   1.589
26667SOL    HW281936   9.154   7.235   1.681
26668SOL     OW81937   8.465   6.774   1.062
26668SOL    HW181938   8.484   6.825   1.146
26668SOL    HW281939   8.481   6.832   0.982
26669SOL     OW81940   8.380   5.634   1.381
26669SOL    HW181941   8.400   5.626   1.284
26669SOL    HW281942   8.459   5.673   1.428
26670SOL     OW81943   8.429   6.677   1.736
26670SOL    HW181944   8.338   6.683   1.777
26670SOL    HW281945   8.433   6.599   1.674
26671SOL     OW81946   7.916   6.375   1.276
26671SOL    HW181947   7.986   6.379   1.348
26671SOL    HW281948   7.876   6.283   1.274
26672SOL     OW81949   8.685   5.925   1.305
26672SOL    HW181950   8.704   6.010   1.353
26672SOL    HW281951   8.593   5.929   1.265
26673SOL     OW81952   7.553   7.069   1.294
26673SOL    HW181953   7.481   7.073   1.224
26673SOL    HW281954   7.630   7.127   1.266
26674SOL     OW81955   7.724   6.662   0.346
26674SOL    HW181956   7.724   6.762   0.346
26674SOL    HW281957   7.784   6.630   0.420
26675SOL     OW81958   7.948   6.133   0.844
26675SOL    HW181959   7.958   6.202   0.773
26675SOL    HW281960   8.026   6.138   0.907
26676SOL     OW81961   8.727   6.973   0.554
26676SOL    HW181962   8.785   7.054   0.552
26676SOL    HW281963   8.632   7.000   0.538
26677SOL     OW81964   8.746   7.087   1.156
26677SOL    HW181965   8.800   7.119   1.234
26677SOL    HW281966   8.668   7.034   1.190
26678SOL     OW81967   8.950   6.206   0.451
26678SOL    HW181968   8.915   6.230   0.542
26678SOL    HW281969   8.920   6.274   0.384
26679SOL     OW81970   7.785   7.203   1.226
26679SOL    HW181971   7.797   7.123   1.168
26679SOL    HW281972   7.873   7.227   1.268
26680SOL     OW81973   7.919   6.226   1.606
26680SOL    HW181974   7.987   6.285   1.563
26680SOL    HW281975   7.934   6.131   1.577
26681SOL     OW81976   9.079   6.382   1.676
26681SOL    HW181977   8.988   6.419   1.660
26681SOL    HW281978   9.138   6.405   1.598
26682SOL     OW81979   8.446   5.667   1.765
26682SOL    HW181980   8.508   5.746   1.761
26682SOL    HW281981   8.492   5.587   1.729
26683SOL     OW81982   7.937   5.646   1.775
26683SOL    HW181983   7.892   5.593   1.702
26683SOL    HW281984   7.882   5.726   1.796
26684SOL     OW81985   8.134   6.415   1.107
26684SOL    HW181986   8.149   6.511   1.081
26684SOL    HW281987   8.047   6.408   1.156
26685SOL     OW81988   8.737   6.359   1.125
26685SOL    HW181989   8.698   6.446   1.096
26685SOL    HW281990   8.774   6.312   1.045
26686SOL     OW81991   7.716   5.755   1.227
26686SOL    HW181992   7.699   5.778   1.323
26686SOL    HW281993   7.708   5.656   1.215
26687SOL     OW81994   7.618   6.805   1.318
26687SOL    HW181995   7.668   6.785   1.402
26687SOL    HW281996   7.609   6.904   1.307
26688SOL     OW81997   8.152   6.153   1.022
26688SOL    HW181998   8.234   6.133   0.969
26688SOL    HW281999   8.152   6.250   1.048
26689SOL     OW82000   9.194   6.570   1.836
26689SOL    HW182001   9.155   6.495   1.782
26689SOL    HW282002   9.131   6.596   1.908
26690SOL     OW82003   7.760   5.613   0.646
26690SOL    HW182004   7.728   5.707   0.657
26690SOL    HW282005   7.761   5.567   0.734
26691SOL     OW82006   9.144   6.013   0.414
26691SOL    HW182007   9.121   5.916   0.425
26691SOL    HW282008   9.063   6.069   0.434
26692SOL     OW82009   8.439   6.341   0.901
26692SOL    HW182010   8.452   6.373   0.994
26692SOL    HW282011   8.417   6.243   0.902
26693SOL     OW82012   8.413   7.177   1.691
26693SOL    HW182013   8.413   7.203   1.594
26693SOL    HW282014   8.447   7.083   1.700
26694SOL     OW82015   9.281   7.115   1.634
26694SOL    HW182016   9.312   7.140   1.542
26694SOL    HW282017   9.358   7.116   1.698
26695SOL     OW82018   7.890   6.383   1.840
26695SOL    HW182019   7.940   6.334   1.912
26695SOL    HW282020   7.899   6.334   1.754
26696SOL     OW82021   8.831   6.357   0.018
26696SOL    HW182022   8.854   6.260   0.024
26696SOL    HW282023   8.899   6.405   9.962
26697SOL     OW82024   8.505   6.939   0.847
26697SOL    HW182025   8.522   6.865   0.782
26697SOL    HW282026   8.555   7.020   0.819
26698SOL     OW82027   7.763   6.074   1.027
26698SOL    HW182028   7.716   5.989   1.004
26698SOL    HW282029   7.829   6.097   0.955
26699SOL     OW82030   8.585   5.899   1.720
26699SOL    HW182031   8.533   5.950   1.787
26699SOL    HW282032   8.668   5.949   1.697
26700SOL     OW82033   8.608   5.739   1.495
26700SOL    HW182034   8.592   5.796   1.575
26700SOL    HW282035   8.645   5.795   1.421
26701SOL     OW82036   7.452   6.851   0.194
26701SOL    HW182037   7.369   6.867   0.141
26701SOL    HW282038   7.442   6.768   0.249
26702SOL     OW82039   7.908   7.145   0.882
26702SOL    HW182040   7.976   7.215   0.906
26702SOL    HW282041   7.951   7.073   0.829
26703SOL     OW82042   8.401   6.427   1.171
26703SOL    HW182043   8.441   6.370   1.242
26703SOL    HW282044   8.305   6.403   1.158
26704SOL     OW82045   7.545   6.233   1.076
26704SOL    HW182046   7.625   6.188   1.037
26704SOL    HW282047   7.542   6.217   1.175
26705SOL     OW82048   7.658   6.208   1.693
26705SOL    HW182049   7.752   6.213   1.662
26705SOL    HW282050   7.601   6.270   1.638
26706SOL     OW82051   8.841   6.502   1.624
26706SOL    HW182052   8.853   6.601   1.621
26706SOL    HW282053   8.826   6.467   1.531
26707SOL     OW82054   8.229   6.110   0.345
26707SOL    HW182055   8.250   6.028   0.292
26707SOL    HW282056   8.142   6.149   0.312
26708SOL     OW82057   9.067   6.144   1.127
26708SOL    HW182058   9.034   6.058   1.166
26708SOL    HW282059   9.165   6.139   1.111
26709SOL     OW82060   7.695   7.117   1.722
26709SOL    HW182061   7.663   7.192   1.780
26709SOL    HW282062   7.723   7.040   1.779
26710SOL     OW82063   8.167   5.968   1.223
26710SOL    HW182064   8.101   5.892   1.219
26710SOL    HW282065   8.148   6.032   1.149
26711SOL     OW82066   8.432   7.247   1.419
26711SOL    HW182067   8.398   7.196   1.340
26711SOL    HW282068   8.426   7.346   1.400
26712SOL     OW82069   7.823   6.006   0.141
26712SOL    HW182070   7.882   6.079   0.174
26712SOL    HW282071   7.731   6.041   0.125
26713SOL     OW82072   8.851   6.408   0.287
26713SOL    HW182073   8.773   6.455   0.328
26713SOL    HW282074   8.832   6.388   0.191
26714SOL     OW82075   9.239   7.329   1.199
26714SOL    HW182076   9.318   7.344   1.140
26714SOL    HW282077   9.184   7.254   1.162
26715SOL     OW82078   8.720   7.331   1.028
26715SOL    HW182079   8.808   7.365   0.995
26715SOL    HW282080   8.735   7.248   1.082
26716SOL     OW82081   7.594   6.791   1.041
26716SOL    HW182082   7.601   6.786   1.141
26716SOL    HW282083   7.523   6.728   1.010
26717SOL     OW82084   8.162   7.242   1.759
26717SOL    HW182085   8.128   7.329   1.724
26717SOL    HW282086   8.258   7.231   1.736
26718SOL     OW82087   8.341   5.621   0.103
26718SOL    HW182088   8.325   5.613   0.005
26718SOL    HW282089   8.422   5.567   0.129
26719SOL     OW82090   9.136   5.732   0.449
26719SOL    HW182091   9.213   5.718   0.387
26719SOL    HW282092   9.139   5.664   0.522
26720SOL     OW82093   8.875   7.207   0.545
26720SOL    HW182094   8.921   7.222   0.457
26720SOL    HW282095   8.802   7.275   0.557
26721SOL     OW82096   7.608   7.333   1.869
26721SOL    HW182097   7.571   7.261   1.928
26721SOL    HW282098   7.665   7.395   1.923
26722SOL     OW82099   8.712   6.526   0.596
26722SOL    HW182100   8.774   6.457   0.632
26722SOL    HW282101   8.765   6.606   0.565
26723SOL     OW82102   8.253   6.862   1.383
26723SOL    HW182103   8.226   6.911   1.466
26723SOL    HW282104   8.182   6.871   1.313
26724SOL     OW82105   8.141   7.183   0.228
26724SOL    HW182106   8.207   7.148   0.162
26724SOL    HW282107   8.062   7.122   0.231
26725SOL     OW82108   9.056   7.383   1.410
26725SOL    HW182109   9.116   7.365   1.331
26725SOL    HW282110   9.034   7.480   1.413
26726SOL     OW82111   9.300   5.755   1.005
26726SOL    HW182112   9.331   5.665   0.973
26726SOL    HW282113   9.213   5.778   0.961
26727SOL     OW82114   7.693   5.866   0.714
26727SOL    HW182115   7.619   5.922   0.675
26727SOL    HW282116   7.680   5.858   0.813
26728SOL     OW82117   8.276   6.586   1.383
26728SOL    HW182118   8.325   6.558   1.300
26728SOL    HW282119   8.268   6.686   1.384
26729SOL     OW82120   8.472   6.492   0.317
26729SOL    HW182121   8.509   6.486   0.224
26729SOL    HW282122   8.472   6.400   0.358
26730SOL     OW82123   8.949   7.152   0.081
26730SOL    HW182124   8.864   7.104   0.106
26730SOL    HW282125   8.944   7.182   9.986
26731SOL     OW82126   9.006   6.950   1.335
26731SOL    HW182127   9.059   6.918   1.413
26731SOL    HW282128   8.963   7.037   1.357
26732SOL     OW82129   8.521   6.708   0.703
26732SOL    HW182130   8.442   6.656   0.737
26732SOL    HW282131   8.588   6.644   0.665
26733SOL     OW82132   8.491   5.823   0.943
26733SOL    HW182133   8.487   5.778   0.854
26733SOL    HW282134   8.491   5.754   1.016
26734SOL     OW82135   8.098   7.035   0.501
26734SOL    HW182136   8.164   6.989   0.440
26734SOL    HW282137   8.020   7.066   0.448
26735SOL     OW82138   9.292   5.959   1.442
26735SOL    HW182139   9.333   6.042   1.403
26735SOL    HW282140   9.288   5.888   1.371
26736SOL     OW82141   7.687   6.930   0.332
26736SOL    HW182142   7.602   6.922   0.280
26736SOL    HW282143   7.667   6.968   0.422
26737SOL     OW82144   8.150   5.757   1.494
26737SOL    HW182145   8.234   5.730   1.446
26737SOL    HW282146   8.172   5.785   1.587
26738SOL     OW82147   7.538   5.826   0.017
26738SOL    HW182148   7.467   5.814   9.948
26738SOL    HW282149   7.552   5.924   0.034
26739SOL     OW82150   8.849   6.388   1.370
26739SOL    HW182151   8.791   6.382   1.289
26739SOL    HW282152   8.945   6.397   1.342
26740SOL     OW82153   7.562   5.684   0.252
26740SOL    HW182154   7.543   5.738   0.170
26740SOL    HW282155   7.656   5.651   0.249
26741SOL     OW82156   8.110   6.375   1.460
26741SOL    HW182157   8.163   6.457   1.443
26741SOL    HW282158   8.167   6.294   1.445
26742SOL     OW82159   8.952   7.413   0.916
26742SOL    HW182160   8.979   7.509   0.915
26742SOL    HW282161   9.004   7.364   0.845
26743SOL     OW82162   8.238   6.085   1.673
26743SOL    HW182163   8.283   6.146   1.738
26743SOL    HW282164   8.237   5.991   1.710
26744SOL     OW82165   8.896   6.773   1.638
26744SOL    HW182166   8.882   6.787   1.736
26744SOL    HW282167   8.986   6.808   1.612
26745SOL     OW82168   7.812   7.341   1.603
26745SOL    HW182169   7.730   7.398   1.599
26745SOL    HW282170   7.787   7.248   1.631
26746SOL     OW82171   9.097   6.397   1.242
26746SOL    HW182172   9.086   6.305   1.206
26746SOL    HW282173   9.108   6.462   1.166
26747SOL     OW82174   7.971   6.341   0.658
26747SOL    HW182175   8.048   6.398   0.627
26747SOL    HW282176   7.925   6.302   0.578
26748SOL     OW82177   9.197   5.952   1.698
26748SOL    HW182178   9.234   5.961   1.606
26748SOL    HW282179   9.116   5.892   1.696
26749SOL     OW82180   9.233   6.470   1.469
26749SOL    HW182181   9.262   6.565   1.462
26749SOL    HW282182   9.188   6.442   1.384
26750SOL     OW82183   8.287   6.985   0.090
26750SOL    HW182184   8.203   6.948   0.050
26750SOL    HW282185   8.296   6.955   0.185
26751SOL     OW82186   8.084   7.342   0.930
26751SOL    HW182187   8.040   7.428   0.957
26751SOL    HW282188   8.183   7.351   0.939
26752SOL     OW82189   8.308   6.565   0.808
26752SOL    HW182190   8.353   6.481   0.838
26752SOL    HW282191   8.259   6.606   0.885
26753SOL     OW82192   8.600   6.490   0.081
26753SOL    HW182193   8.638   6.575   0.117
26753SOL    HW282194   8.673   6.436   0.038
26754SOL     OW82195   9.399   7.176   0.910
26754SOL    HW182196   9.371   7.166   0.814
26754SOL    HW282197   9.416   7.085   0.949
26755SOL     OW82198   8.157   6.988   1.610
26755SOL    HW182199   8.089   6.927   1.651
26755SOL    HW282200   8.150   7.079   1.652
26756SOL     OW82201   9.300   5.741   1.278
26756SOL    HW182202   9.369   5.670   1.291
26756SOL    HW282203   9.289   5.760   1.180
26757SOL     OW82204   7.857   5.986   0.519
26757SOL    HW182205   7.895   5.921   0.454
26757SOL    HW282206   7.813   5.937   0.595
26758SOL     OW82207   9.103   7.106   1.127
26758SOL    HW182208   9.056   7.081   1.042
26758SOL    HW282209   9.081   7.038   1.198
26759SOL     OW82210   7.812   6.124   1.292
26759SOL    HW182211   7.862   6.058   1.347
26759SOL    HW282212   7.808   6.093   1.197
26760SOL     OW82213   8.262   7.155   0.688
26760SOL    HW182214   8.195   7.128   0.619
26760SOL    HW282215   8.243   7.108   0.774
26761SOL     OW82216   8.888   5.866   1.135
26761SOL    HW182217   8.914   5.770   1.144
26761SOL    HW282218   8.818   5.888   1.203
26762SOL     OW82219   8.483   5.603   1.110
26762SOL    HW182220   8.436   5.540   1.049
26762SOL    HW282221   8.577   5.571   1.124
26763SOL     OW82222   8.298   6.908   0.355
26763SOL    HW182223   8.294   6.809   0.367
26763SOL    HW282224   8.370   6.946   0.413
26764SOL     OW82225   8.090   7.148   1.267
26764SOL    HW182226   8.069   7.226   1.326
26764SOL    HW282227   8.185   7.154   1.237
26765SOL     OW82228   8.800   5.590   0.163
26765SOL    HW182229   8.869   5.519   0.149
26765SOL    HW282230   8.712   5.548   0.182
26766SOL     OW82231   8.725   6.058   0.673
26766SOL    HW182232   8.673   6.142   0.660
26766SOL    HW282233   8.718   6.028   0.768
26767SOL     OW82234   9.053   5.820   0.915
26767SOL    HW182235   8.994   5.851   0.990
26767SOL    HW282236   9.042   5.882   0.837
26768SOL     OW82237   7.457   6.622   0.349
26768SOL    HW182238   7.556   6.630   0.352
26768SOL    HW282239   7.432   6.526   0.336
26769SOL     OW82240   8.353   7.299   0.363
26769SOL    HW182241   8.274   7.256   0.320
26769SOL    HW282242   8.321   7.363   0.434
26770SOL     OW82243   7.658   6.186   1.972
26770SOL    HW182244   7.563   6.184   2.003
26770SOL    HW282245   7.661   6.209   1.875
26771SOL     OW82246   7.646   5.875   2.876
26771SOL    HW182247   7.689   5.869   2.966
26771SOL    HW282248   7.560   5.824   2.877
26772SOL     OW82249   7.436   5.986   2.514
26772SOL    HW182250   7.364   5.983   2.583
26772SOL    HW282251   7.407   5.935   2.433
26773SOL     OW82252   8.029   6.873   3.093
26773SOL    HW182253   7.942   6.890   3.047
26773SOL    HW282254   8.090   6.951   3.077
26774SOL     OW82255   9.020   7.175   2.581
26774SOL    HW182256   9.000   7.109   2.653
26774SOL    HW282257   8.960   7.158   2.502
26775SOL     OW82258   8.623   6.290   2.531
26775SOL    HW182259   8.678   6.362   2.490
26775SOL    HW282260   8.577   6.325   2.613
26776SOL     OW82261   9.209   6.171   2.083
26776SOL    HW182262   9.173   6.186   1.991
26776SOL    HW282263   9.153   6.103   2.130
26777SOL     OW82264   8.189   6.686   2.958
26777SOL    HW182265   8.116   6.720   3.019
26777SOL    HW282266   8.226   6.762   2.905
26778SOL     OW82267   8.333   6.298   3.700
26778SOL    HW182268   8.329   6.351   3.785
26778SOL    HW282269   8.340   6.360   3.622
26779SOL     OW82270   8.148   6.542   2.533
26779SOL    HW182271   8.217   6.555   2.603
26779SOL    HW282272   8.071   6.605   2.549
26780SOL     OW82273   8.094   6.755   3.694
26780SOL    HW182274   8.144   6.835   3.728
26780SOL    HW282275   8.008   6.785   3.653
26781SOL     OW82276   7.805   6.958   2.942
26781SOL    HW182277   7.728   6.911   2.899
26781SOL    HW282278   7.851   7.016   2.874
26782SOL     OW82279   8.876   7.099   3.225
26782SOL    HW182280   8.937   7.174   3.251
26782SOL    HW282281   8.792   7.105   3.279
26783SOL     OW82282   7.915   6.091   3.557
26783SOL    HW182283   8.015   6.092   3.556
26783SOL    HW282284   7.884   6.008   3.603
26784SOL     OW82285   9.024   6.049   2.560
26784SOL    HW182286   8.926   6.032   2.545
26784SOL    HW282287   9.044   6.146   2.546
26785SOL     OW82288   7.701   7.324   2.317
26785SOL    HW182289   7.709   7.385   2.396
26785SOL    HW282290   7.783   7.332   2.260
26786SOL     OW82291   8.522   6.876   3.511
26786SOL    HW182292   8.581   6.831   3.444
26786SOL    HW282293   8.466   6.807   3.558
26787SOL     OW82294   7.771   7.070   2.386
26787SOL    HW182295   7.735   7.162   2.368
26787SOL    HW282296   7.709   7.022   2.448
26788SOL     OW82297   7.762   6.664   2.767
26788SOL    HW182298   7.752   6.565   2.777
26788SOL    HW282299   7.684   6.710   2.811
26789SOL     OW82300   8.059   7.454   3.292
26789SOL    HW182301   8.018   7.397   3.363
26789SOL    HW282302   8.082   7.544   3.331
26790SOL     OW82303   8.066   6.569   2.089
26790SOL    HW182304   8.109   6.600   2.004
26790SOL    HW282305   8.120   6.600   2.167
26791SOL     OW82306   9.137   5.697   3.404
26791SOL    HW182307   9.166   5.773   3.346
26791SOL    HW282308   9.067   5.728   3.469
26792SOL     OW82309   7.545   6.241   2.442
26792SOL    HW182310   7.512   6.150   2.468
26792SOL    HW282311   7.526   6.305   2.516
26793SOL     OW82312   9.325   7.303   2.213
26793SOL    HW182313   9.400   7.282   2.275
26793SOL    HW282314   9.334   7.397   2.180
26794SOL     OW82315   7.544   7.143   2.045
26794SOL    HW182316   7.543   7.046   2.068
26794SOL    HW282317   7.508   7.196   2.122
26795SOL     OW82318   7.574   6.350   3.427
26795SOL    HW182319   7.657   6.398   3.398
26795SOL    HW282320   7.494   6.406   3.404
26796SOL     OW82321   8.072   6.925   2.619
26796SOL    HW182322   8.025   6.837   2.609
26796SOL    HW282323   8.064   6.976   2.533
26797SOL     OW82324   8.675   6.785   3.302
26797SOL    HW182325   8.688   6.732   3.218
26797SOL    HW282326   8.761   6.790   3.353
26798SOL     OW82327   8.278   5.613   2.343
26798SOL    HW182328   8.324   5.701   2.331
26798SOL    HW282329   8.181   5.629   2.363
26799SOL     OW82330   7.679   6.496   3.190
26799SOL    HW182331   7.769   6.466   3.158
26799SOL    HW282332   7.611   6.425   3.169
26800SOL     OW82333   9.028   6.624   2.053
26800SOL    HW182334   8.969   6.552   2.090
26800SOL    HW282335   9.117   6.621   2.099
26801SOL     OW82336   8.542   7.387   3.343
26801SOL    HW182337   8.593   7.471   3.364
26801SOL    HW282338   8.604   7.309   3.346
26802SOL     OW82339   7.792   5.891   3.732
26802SOL    HW182340   7.822   5.961   3.797
26802SOL    HW282341   7.695   5.904   3.712
26803SOL     OW82342   8.963   6.987   2.784
26803SOL    HW182343   8.896   7.021   2.850
26803SOL    HW282344   8.935   6.897   2.750
26804SOL     OW82345   9.073   7.412   2.412
26804SOL    HW182346   9.074   7.357   2.328
26804SOL    HW282347   9.069   7.351   2.492
26805SOL     OW82348   8.011   6.298   2.163
26805SOL    HW182349   8.030   6.393   2.138
26805SOL    HW282350   7.941   6.295   2.233
26806SOL     OW82351   9.058   7.254   2.184
26806SOL    HW182352   9.158   7.258   2.187
26806SOL    HW282353   9.028   7.251   2.089
26807SOL     OW82354   8.251   6.140   3.301
26807SOL    HW182355   8.228   6.119   3.396
26807SOL    HW282356   8.183   6.099   3.241
26808SOL     OW82357   8.811   6.061   3.515
26808SOL    HW182358   8.809   6.112   3.601
26808SOL    HW282359   8.871   5.981   3.525
26809SOL     OW82360   8.365   6.468   3.471
26809SOL    HW182361   8.424   6.406   3.420
26809SOL    HW282362   8.316   6.528   3.408
26810SOL     OW82363   8.408   6.042   3.086
26810SOL    HW182364   8.360   6.058   3.172
26810SOL    HW282365   8.350   6.070   3.009
26811SOL     OW82366   8.501   6.253   2.279
26811SOL    HW182367   8.532   6.253   2.375
26811SOL    HW282368   8.407   6.220   2.275
26812SOL     OW82369   7.506   6.437   2.632
26812SOL    HW182370   7.598   6.422   2.668
26812SOL    HW282371   7.461   6.510   2.685
26813SOL     OW82372   8.289   5.939   2.083
26813SOL    HW182373   8.351   5.975   2.013
26813SOL    HW282374   8.227   5.872   2.041
26814SOL     OW82375   9.087   6.185   3.704
26814SOL    HW182376   9.076   6.268   3.649
26814SOL    HW282377   9.122   6.111   3.647
26815SOL     OW82378   8.793   6.765   2.445
26815SOL    HW182379   8.884   6.805   2.451
26815SOL    HW282380   8.736   6.819   2.383
26816SOL     OW82381   7.977   5.677   2.885
26816SOL    HW182382   7.988   5.703   2.980
26816SOL    HW282383   7.984   5.758   2.827
26817SOL     OW82384   8.431   7.097   2.306
26817SOL    HW182385   8.405   7.172   2.245
26817SOL    HW282386   8.392   7.113   2.396
26818SOL     OW82387   7.805   7.360   2.768
26818SOL    HW182388   7.842   7.268   2.755
26818SOL    HW282389   7.881   7.425   2.781
26819SOL     OW82390   8.633   7.114   3.351
26819SOL    HW182391   8.633   7.065   3.438
26819SOL    HW282392   8.561   7.077   3.292
26820SOL     OW82393   7.805   6.593   1.994
26820SOL    HW182394   7.889   6.602   2.048
26820SOL    HW282395   7.814   6.515   1.931
26821SOL     OW82396   9.006   6.340   2.530
26821SOL    HW182397   8.971   6.332   2.624
26821SOL    HW282398   9.092   6.390   2.531
26822SOL     OW82399   7.869   6.909   3.606
26822SOL    HW182400   7.852   6.905   3.508
26822SOL    HW282401   7.783   6.904   3.656
26823SOL     OW82402   8.578   7.338   2.128
26823SOL    HW182403   8.478   7.347   2.135
26823SOL    HW282404   8.601   7.284   2.047
26824SOL     OW82405   9.058   6.996   1.944
26824SOL    HW182406   9.021   7.089   1.934
26824SOL    HW282407   8.987   6.929   1.925
26825SOL     OW82408   7.940   7.349   2.176
26825SOL    HW182409   8.005   7.400   2.233
26825SOL    HW282410   7.990   7.284   2.118
26826SOL     OW82411   8.839   5.671   2.315
26826SOL    HW182412   8.837   5.651   2.217
26826SOL    HW282413   8.926   5.639   2.354
26827SOL     OW82414   7.727   7.359   3.033
26827SOL    HW182415   7.751   7.275   3.082
26827SOL    HW282416   7.755   7.351   2.937
26828SOL     OW82417   8.365   7.337   2.669
26828SOL    HW182418   8.462   7.319   2.679
26828SOL    HW282419   8.323   7.269   2.609
26829SOL     OW82420   7.821   6.251   2.364
26829SOL    HW182421   7.841   6.154   2.376
26829SOL    HW282422   7.723   6.267   2.375
26830SOL     OW82423   8.954   5.825   3.574
26830SOL    HW182424   8.949   5.832   3.674
26830SOL    HW282425   8.887   5.758   3.542
26831SOL     OW82426   8.108   5.715   1.985
26831SOL    HW182427   8.173   5.641   2.001
26831SOL    HW282428   8.039   5.686   1.920
26832SOL     OW82429   8.217   5.815   3.555
26832SOL    HW182430   8.294   5.774   3.604
26832SOL    HW282431   8.132   5.772   3.586
26833SOL     OW82432   8.237   7.054   3.059
26833SOL    HW182433   8.246   7.020   2.965
26833SOL    HW282434   8.317   7.026   3.113
26834SOL     OW82435   8.729   6.197   3.289
26834SOL    HW182436   8.768   6.159   3.373
26834SOL    HW282437   8.770   6.287   3.271
26835SOL     OW82438   8.255   6.914   2.822
26835SOL    HW182439   8.344   6.942   2.785
26835SOL    HW282440   8.186   6.916   2.750
26836SOL     OW82441   8.429   6.102   2.732
26836SOL    HW182442   8.391   6.087   2.641
26836SOL    HW282443   8.497   6.032   2.753
26837SOL     OW82444   8.009   5.657   2.377
26837SOL    HW182445   7.937   5.648   2.446
26837SOL    HW282446   7.990   5.737   2.320
26838SOL     OW82447   8.867   6.803   1.911
26838SOL    HW182448   8.919   6.736   1.964
26838SOL    HW282449   8.778   6.818   1.954
26839SOL     OW82450   7.730   5.637   2.033
26839SOL    HW182451   7.767   5.718   1.986
26839SOL    HW282452   7.803   5.590   2.082
26840SOL     OW82453   8.413   5.848   2.311
26840SOL    HW182454   8.374   5.882   2.225
26840SOL    HW282455   8.512   5.858   2.310
26841SOL     OW82456   8.474   6.300   3.286
26841SOL    HW182457   8.403   6.230   3.294
26841SOL    HW282458   8.564   6.256   3.287
26842SOL     OW82459   8.615   7.225   2.632
26842SOL    HW182460   8.642   7.264   2.544
26842SOL    HW282461   8.677   7.258   2.704
26843SOL     OW82462   7.932   6.701   2.567
26843SOL    HW182463   7.874   6.686   2.647
26843SOL    HW282464   7.874   6.701   2.485
26844SOL     OW82465   8.683   7.341   2.386
26844SOL    HW182466   8.733   7.428   2.388
26844SOL    HW282467   8.631   7.335   2.301
26845SOL     OW82468   8.473   6.056   1.915
26845SOL    HW182469   8.449   6.145   1.876
26845SOL    HW282470   8.544   6.068   1.984
26846SOL     OW82471   8.337   6.048   2.486
26846SOL    HW182472   8.283   6.103   2.421
26846SOL    HW282473   8.366   5.964   2.442
26847SOL     OW82474   8.468   5.537   2.521
26847SOL    HW182475   8.398   5.567   2.456
26847SOL    HW282476   8.424   5.498   2.602
26848SOL     OW82477   8.856   6.735   2.726
26848SOL    HW182478   8.809   6.654   2.762
26848SOL    HW282479   8.829   6.750   2.631
26849SOL     OW82480   8.910   6.288   2.780
26849SOL    HW182481   8.861   6.202   2.765
26849SOL    HW282482   8.979   6.275   2.851
26850SOL     OW82483   9.280   6.361   2.281
26850SOL    HW182484   9.352   6.303   2.318
26850SOL    HW282485   9.227   6.310   2.213
26851SOL     OW82486   7.992   6.954   1.982
26851SOL    HW182487   7.925   6.933   2.053
26851SOL    HW282488   7.968   6.905   1.898
26852SOL     OW82489   9.031   6.883   2.470
26852SOL    HW182490   9.101   6.860   2.538
26852SOL    HW282491   9.058   6.967   2.422
26853SOL     OW82492   8.827   6.157   1.911
26853SOL    HW182493   8.781   6.124   1.993
26853SOL    HW282494   8.926   6.147   1.922
26854SOL     OW82495   7.961   5.846   2.186
26854SOL    HW182496   8.016   5.795   2.120
26854SOL    HW282497   7.929   5.931   2.145
26855SOL     OW82498   9.175   6.815   3.384
26855SOL    HW182499   9.265   6.792   3.348
26855SOL    HW282500   9.182   6.893   3.446
26856SOL     OW82501   8.442   6.931   3.214
26856SOL    HW182502   8.359   6.912   3.267
26856SOL    HW282503   8.518   6.876   3.250
26857SOL     OW82504   9.016   7.207   3.542
26857SOL    HW182505   9.016   7.251   3.452
26857SOL    HW282506   9.091   7.140   3.546
26858SOL     OW82507   8.581   6.888   2.974
26858SOL    HW182508   8.516   6.909   3.048
26858SOL    HW282509   8.545   6.921   2.887
26859SOL     OW82510   9.023   6.686   2.954
26859SOL    HW182511   9.012   6.756   3.025
26859SOL    HW282512   8.969   6.712   2.873
26860SOL     OW82513   8.443   5.605   3.206
26860SOL    HW182514   8.457   5.602   3.107
26860SOL    HW282515   8.509   5.669   3.246
26861SOL     OW82516   8.364   6.685   3.632
26861SOL    HW182517   8.269   6.707   3.654
26861SOL    HW282518   8.368   6.601   3.578
26862SOL     OW82519   8.234   6.644   2.293
26862SOL    HW182520   8.205   6.602   2.379
26862SOL    HW282521   8.317   6.598   2.260
26863SOL     OW82522   7.906   6.350   3.117
26863SOL    HW182523   7.973   6.357   3.191
26863SOL    HW282524   7.849   6.269   3.131
26864SOL     OW82525   8.669   5.989   3.129
26864SOL    HW182526   8.701   6.066   3.184
26864SOL    HW282527   8.574   6.004   3.102
26865SOL     OW82528   7.515   7.117   3.214
26865SOL    HW182529   7.469   7.177   3.148
26865SOL    HW282530   7.614   7.129   3.206
26866SOL     OW82531   7.752   6.720   2.360
26866SOL    HW182532   7.789   6.785   2.293
26866SOL    HW282533   7.688   6.658   2.314
26867SOL     OW82534   7.966   6.146   2.773
26867SOL    HW182535   7.973   6.209   2.696
26867SOL    HW282536   8.057   6.135   2.815
26868SOL     OW82537   8.671   6.962   2.273
26868SOL    HW182538   8.748   7.020   2.300
26868SOL    HW282539   8.585   7.009   2.293
26869SOL     OW82540   8.787   7.066   2.972
26869SOL    HW182541   8.824   7.078   3.064
26869SOL    HW282542   8.716   6.995   2.974
26870SOL     OW82543   8.958   6.218   2.287
26870SOL    HW182544   8.972   6.260   2.376
26870SOL    HW282545   8.921   6.285   2.223
26871SOL     OW82546   7.784   7.115   3.158
26871SOL    HW182547   7.785   7.052   3.080
26871SOL    HW282548   7.876   7.151   3.172
26872SOL     OW82549   7.894   6.350   3.469
26872SOL    HW182550   7.970   6.375   3.409
26872SOL    HW282551   7.900   6.254   3.494
26873SOL     OW82552   9.056   6.405   3.552
26873SOL    HW182553   8.962   6.437   3.539
26873SOL    HW282554   9.112   6.437   3.476
26874SOL     OW82555   8.435   5.717   3.681
26874SOL    HW182556   8.504   5.776   3.638
26874SOL    HW282557   8.480   5.652   3.741
26875SOL     OW82558   7.974   5.709   3.638
26875SOL    HW182559   7.934   5.628   3.596
26875SOL    HW282560   7.902   5.774   3.662
26876SOL     OW82561   8.142   6.408   2.976
26876SOL    HW182562   8.148   6.507   2.959
26876SOL    HW282563   8.052   6.386   3.012
26877SOL     OW82564   8.741   6.502   2.824
26877SOL    HW182565   8.652   6.460   2.808
26877SOL    HW282566   8.813   6.433   2.812
26878SOL     OW82567   8.655   6.089   2.121
26878SOL    HW182568   8.677   6.013   2.181
26878SOL    HW282569   8.606   6.160   2.172
26879SOL     OW82570   7.526   6.866   3.101
26879SOL    HW182571   7.549   6.801   3.174
26879SOL    HW282572   7.510   6.956   3.142
26880SOL     OW82573   8.214   6.147   2.899
26880SOL    HW182574   8.286   6.138   2.831
26880SOL    HW282575   8.199   6.244   2.919
26881SOL     OW82576   9.197   6.578   3.714
26881SOL    HW182577   9.149   6.509   3.660
26881SOL    HW282578   9.146   6.597   3.798
26882SOL     OW82579   7.786   5.625   2.544
26882SOL    HW182580   7.742   5.714   2.558
26882SOL    HW282581   7.786   5.574   2.630
26883SOL     OW82582   9.041   5.978   2.178
26883SOL    HW182583   9.080   5.909   2.240
26883SOL    HW282584   8.997   6.050   2.232
26884SOL     OW82585   8.504   6.357   2.788
26884SOL    HW182586   8.480   6.376   2.884
26884SOL    HW282587   8.479   6.263   2.765
26885SOL     OW82588   8.453   7.098   3.642
26885SOL    HW182589   8.410   7.165   3.581
26885SOL    HW282590   8.475   7.016   3.590
26886SOL     OW82591   9.240   7.047   3.521
26886SOL    HW182592   9.299   7.076   3.446
26886SOL    HW282593   9.280   7.074   3.608
26887SOL     OW82594   7.809   6.514   3.668
26887SOL    HW182595   7.883   6.523   3.735
26887SOL    HW282596   7.839   6.454   3.594
26888SOL     OW82597   8.955   5.829   1.958
26888SOL    HW182598   8.905   5.751   1.996
26888SOL    HW282599   8.987   5.888   2.033
26889SOL     OW82600   8.764   6.418   1.876
26889SOL    HW182601   8.783   6.319   1.880
26889SOL    HW282602   8.789   6.453   1.786
26890SOL     OW82603   8.496   6.991   2.729
26890SOL    HW182604   8.511   6.912   2.670
26890SOL    HW282605   8.541   7.071   2.690
26891SOL     OW82606   7.747   6.391   2.744
26891SOL    HW182607   7.828   6.380   2.688
26891SOL    HW282608   7.728   6.305   2.793
26892SOL     OW82609   7.711   6.134   2.847
26892SOL    HW182610   7.680   6.039   2.847
26892SOL    HW282611   7.807   6.137   2.819
26893SOL     OW82612   8.573   5.929   3.551
26893SOL    HW182613   8.522   5.975   3.623
26893SOL    HW282614   8.659   5.977   3.534
26894SOL     OW82615   8.608   5.792   3.316
26894SOL    HW182616   8.582   5.840   3.400
26894SOL    HW282617   8.637   5.858   3.247
26895SOL     OW82618   7.541   6.872   2.098
26895SOL    HW182619   7.463   6.877   2.036
26895SOL    HW282620   7.553   6.777   2.129
26896SOL     OW82621   7.504   7.354   2.792
26896SOL    HW182622   7.477   7.268   2.748
26896SOL    HW282623   7.602   7.368   2.779
26897SOL     OW82624   7.941   7.116   2.769
26897SOL    HW182625   8.017   7.172   2.802
26897SOL    HW282626   7.976   7.044   2.708
26898SOL     OW82627   8.411   6.399   3.035
26898SOL    HW182628   8.440   6.373   3.127
26898SOL    HW282629   8.311   6.400   3.031
26899SOL     OW82630   7.402   6.116   2.912
26899SOL    HW182631   7.487   6.139   2.865
26899SOL    HW282632   7.421   6.097   3.008
26900SOL     OW82633   7.667   6.192   3.624
26900SOL    HW182634   7.760   6.168   3.596
26900SOL    HW282635   7.627   6.252   3.555
26901SOL     OW82636   8.814   6.516   3.486
26901SOL    HW182637   8.839   6.613   3.487
26901SOL    HW282638   8.801   6.486   3.391
26902SOL     OW82639   8.242   6.160   2.247
26902SOL    HW182640   8.251   6.080   2.188
26902SOL    HW282641   8.163   6.214   2.220
26903SOL     OW82642   9.087   6.232   2.978
26903SOL    HW182643   9.058   6.155   3.035
26903SOL    HW282644   9.186   6.229   2.965
26904SOL     OW82645   8.090   6.026   3.122
26904SOL    HW182646   8.055   5.932   3.116
26904SOL    HW282647   8.118   6.057   3.031
26905SOL     OW82648   8.332   7.272   3.469
26905SOL    HW182649   8.258   7.249   3.405
26905SOL    HW282650   8.403   7.322   3.420
26906SOL     OW82651   7.886   6.072   2.052
26906SOL    HW182652   7.946   6.144   2.088
26906SOL    HW282653   7.797   6.111   2.029
26907SOL     OW82654   7.589   6.711   3.328
26907SOL    HW182655   7.591   6.687   3.425
26907SOL    HW282656   7.626   6.634   3.274
26908SOL     OW82657   8.696   6.650   3.056
26908SOL    HW182658   8.719   6.592   2.978
26908SOL    HW282659   8.657   6.736   3.023
26909SOL     OW82660   8.851   6.432   2.142
26909SOL    HW182661   8.782   6.455   2.211
26909SOL    HW282662   8.809   6.428   2.052
26910SOL     OW82663   9.199   7.311   3.037
26910SOL    HW182664   9.278   7.346   2.987
26910SOL    HW282665   9.181   7.217   3.009
26911SOL     OW82666   8.754   7.307   2.852
26911SOL    HW182667   8.838   7.359   2.867
26911SOL    HW282668   8.762   7.218   2.896
26912SOL     OW82669   7.553   6.839   2.834
26912SOL    HW182670   7.537   6.853   2.932
26912SOL    HW282671   7.484   6.775   2.798
26913SOL     OW82672   8.201   7.357   3.697
26913SOL    HW182673   8.129   7.418   3.666
26913SOL    HW282674   8.256   7.327   3.618
26914SOL     OW82675   9.189   5.774   2.306
26914SOL    HW182676   9.252   5.749   2.233
26914SOL    HW282677   9.146   5.692   2.344
26915SOL     OW82678   8.868   7.146   2.349
26915SOL    HW182679   8.936   7.177   2.282
26915SOL    HW282680   8.800   7.217   2.364
26916SOL     OW82681   7.655   7.284   3.752
26916SOL    HW182682   7.603   7.225   3.813
26916SOL    HW282683   7.692   7.361   3.803
26917SOL     OW82684   8.782   6.488   2.434
26917SOL    HW182685   8.870   6.450   2.462
26917SOL    HW282686   8.787   6.588   2.435
26918SOL     OW82687   8.187   6.883   3.326
26918SOL    HW182688   8.159   6.942   3.401
26918SOL    HW282689   8.115   6.880   3.256
26919SOL     OW82690   8.108   7.193   2.018
26919SOL    HW182691   8.124   7.220   1.924
26919SOL    HW282692   8.065   7.103   2.020
26920SOL     OW82693   9.046   7.308   3.275
26920SOL    HW182694   9.094   7.306   3.188
26920SOL    HW282695   9.039   7.402   3.308
26921SOL     OW82696   9.261   5.724   2.851
26921SOL    HW182697   9.306   5.650   2.801
26921SOL    HW282698   9.188   5.762   2.795
26922SOL     OW82699   7.674   5.868   2.596
26922SOL    HW182700   7.591   5.912   2.561
26922SOL    HW282701   7.674   5.872   2.696
26923SOL     OW82702   8.656   7.191   1.905
26923SOL    HW182703   8.644   7.098   1.939
26923SOL    HW282704   8.597   7.206   1.827
26924SOL     OW82705   8.246   6.617   3.273
26924SOL    HW182706   8.279   6.624   3.179
26924SOL    HW282707   8.221   6.708   3.305
26925SOL     OW82708   8.449   6.511   2.200
26925SOL    HW182709   8.471   6.519   2.103
26925SOL    HW282710   8.472   6.419   2.231
26926SOL     OW82711   8.938   7.255   1.920
26926SOL    HW182712   8.843   7.232   1.898
26926SOL    HW282713   8.985   7.284   1.838
26927SOL     OW82714   7.795   6.907   3.350
26927SOL    HW182715   7.788   6.983   3.285
26927SOL    HW282716   7.723   6.841   3.332
26928SOL     OW82717   9.004   6.864   3.160
26928SOL    HW182718   9.075   6.847   3.228
26928SOL    HW282719   8.954   6.947   3.184
26929SOL     OW82720   8.502   6.760   2.593
26929SOL    HW182721   8.441   6.691   2.634
26929SOL    HW282722   8.563   6.715   2.527
26930SOL     OW82723   8.047   7.062   2.388
26930SOL    HW182724   8.086   7.011   2.312
26930SOL    HW282725   7.948   7.071   2.376
26931SOL     OW82726   9.265   5.949   3.302
26931SOL    HW182727   9.310   6.035   3.275
26931SOL    HW282728   9.261   5.888   3.223
26932SOL     OW82729   7.800   6.914   2.169
26932SOL    HW182730   7.711   6.903   2.126
26932SOL    HW282731   7.793   6.980   2.244
26933SOL     OW82732   7.579   6.636   3.591
26933SOL    HW182733   7.500   6.606   3.645
26933SOL    HW282734   7.661   6.587   3.622
26934SOL     OW82735   8.210   5.710   3.297
26934SOL    HW182736   8.297   5.673   3.264
26934SOL    HW282737   8.226   5.760   3.383
26935SOL     OW82738   7.571   5.959   1.770
26935SOL    HW182739   7.474   5.955   1.744
26935SOL    HW282740   7.609   6.047   1.744
26936SOL     OW82741   8.815   6.453   3.221
26936SOL    HW182742   8.757   6.516   3.168
26936SOL    HW282743   8.909   6.458   3.188
26937SOL     OW82744   7.482   5.727   2.093
26937SOL    HW182745   7.449   5.778   2.014
26937SOL    HW282746   7.577   5.699   2.078
26938SOL     OW82747   8.599   6.937   2.002
26938SOL    HW182748   8.500   6.922   1.999
26938SOL    HW282749   8.629   6.935   2.098
26939SOL     OW82750   8.103   6.383   3.299
26939SOL    HW182751   8.152   6.470   3.292
26939SOL    HW282752   8.169   6.308   3.303
26940SOL     OW82753   8.980   7.446   2.908
26940SOL    HW182754   9.013   7.506   2.836
26940SOL    HW282755   9.058   7.397   2.949
26941SOL     OW82756   8.187   6.091   3.559
26941SOL    HW182757   8.238   6.149   3.623
26941SOL    HW282758   8.215   5.996   3.571
26942SOL     OW82759   8.900   6.774   3.470
26942SOL    HW182760   8.896   6.789   3.568
26942SOL    HW282761   8.993   6.792   3.437
26943SOL     OW82762   7.951   7.296   3.489
26943SOL    HW182763   7.853   7.276   3.490
26943SOL    HW282764   8.003   7.212   3.505
26944SOL     OW82765   9.066   6.473   3.113
26944SOL    HW182766   9.079   6.390   3.059
26944SOL    HW282767   9.056   6.552   3.051
26945SOL     OW82768   8.686   5.899   2.322
26945SOL    HW182769   8.739   5.814   2.319
26945SOL    HW282770   8.712   5.951   2.403
26946SOL     OW82771   7.962   6.340   2.580
26946SOL    HW182772   8.036   6.404   2.557
26946SOL    HW282773   7.917   6.310   2.497
26947SOL     OW82774   9.184   5.970   3.564
26947SOL    HW182775   9.216   5.970   3.469
26947SOL    HW282776   9.101   5.915   3.571
26948SOL     OW82777   9.190   6.526   3.351
26948SOL    HW182778   9.179   6.623   3.372
26948SOL    HW282779   9.150   6.507   3.261
26949SOL     OW82780   8.317   6.933   1.983
26949SOL    HW182781   8.274   6.925   2.072
26949SOL    HW282782   8.275   7.009   1.932
26950SOL     OW82783   8.146   7.277   2.830
26950SOL    HW182784   8.100   7.366   2.836
26950SOL    HW282785   8.238   7.289   2.794
26951SOL     OW82786   8.339   6.575   2.729
26951SOL    HW182787   8.397   6.496   2.745
26951SOL    HW282788   8.295   6.603   2.815
26952SOL     OW82789   8.518   6.511   1.938
26952SOL    HW182790   8.493   6.583   1.873
26952SOL    HW282791   8.610   6.478   1.916
26953SOL     OW82792   9.248   7.224   2.734
26953SOL    HW182793   9.179   7.215   2.662
26953SOL    HW282794   9.233   7.154   2.804
26954SOL     OW82795   7.614   6.885   3.694
26954SOL    HW182796   7.599   6.795   3.653
26954SOL    HW282797   7.560   6.893   3.777
26955SOL     OW82798   7.616   6.889   2.534
26955SOL    HW182799   7.618   6.866   2.632
26955SOL    HW282800   7.664   6.817   2.483
26956SOL     OW82801   8.091   7.051   3.536
26956SOL    HW182802   8.006   7.003   3.555
26956SOL    HW282803   8.152   7.042   3.615
26957SOL     OW82804   9.261   5.751   3.122
26957SOL    HW182805   9.302   5.665   3.152
26957SOL    HW282806   9.254   5.751   3.022
26958SOL     OW82807   7.850   5.989   2.407
26958SOL    HW182808   7.884   5.925   2.338
26958SOL    HW282809   7.794   5.938   2.474
26959SOL     OW82810   9.181   7.057   2.939
26959SOL    HW182811   9.100   7.017   2.895
26959SOL    HW282812   9.223   6.989   2.999
26960SOL     OW82813   7.706   6.144   3.118
26960SOL    HW182814   7.725   6.049   3.140
26960SOL    HW282815   7.711   6.157   3.019
26961SOL     OW82816   8.270   7.133   2.523
26961SOL    HW182817   8.186   7.127   2.469
26961SOL    HW282818   8.273   7.059   2.590
26962SOL     OW82819   8.828   5.888   2.931
26962SOL    HW182820   8.859   5.796   2.956
26962SOL    HW282821   8.781   5.929   3.009
26963SOL     OW82822   8.228   6.912   2.239
26963SOL    HW182823   8.230   6.814   2.262
26963SOL    HW282824   8.311   6.956   2.273
26964SOL     OW82825   8.032   7.213   3.157
26964SOL    HW182826   8.055   7.304   3.192
26964SOL    HW282827   8.113   7.173   3.114
26965SOL     OW82828   8.832   5.602   2.051
26965SOL    HW182829   8.882   5.529   2.005
26965SOL    HW282830   8.737   5.573   2.066
26966SOL     OW82831   8.744   6.041   2.557
26966SOL    HW182832   8.699   6.129   2.541
26966SOL    HW282833   8.692   5.989   2.625
26967SOL     OW82834   9.035   5.841   2.747
26967SOL    HW182835   8.965   5.874   2.810
26967SOL    HW282836   9.044   5.904   2.670
26968SOL     OW82837   7.581   6.608   2.164
26968SOL    HW182838   7.656   6.595   2.100
26968SOL    HW282839   7.538   6.520   2.183
26969SOL     OW82840   8.301   7.321   2.168
26969SOL    HW182841   8.235   7.267   2.116
26969SOL    HW282842   8.253   7.385   2.227
26970SOL     OW82843   7.644   6.257   3.889
26970SOL    HW182844   7.554   6.223   3.914
26970SOL    HW282845   7.655   6.253   3.789
26971SOL     OW82846   7.666   5.850   4.741
26971SOL    HW182847   7.706   5.815   4.826
26971SOL    HW282848   7.574   5.813   4.730
26972SOL     OW82849   7.387   5.871   4.448
26972SOL    HW182850   7.315   5.940   4.460
26972SOL    HW282851   7.378   5.829   4.358
26973SOL     OW82852   8.064   6.937   4.949
26973SOL    HW182853   7.972   6.936   4.909
26973SOL    HW282854   8.104   7.028   4.938
26974SOL     OW82855   9.054   7.106   4.414
26974SOL    HW182856   9.006   7.066   4.492
26974SOL    HW282857   8.989   7.126   4.341
26975SOL     OW82858   8.561   6.312   4.381
26975SOL    HW182859   8.617   6.393   4.363
26975SOL    HW282860   8.513   6.325   4.468
26976SOL     OW82861   9.244   6.136   3.915
26976SOL    HW182862   9.190   6.168   3.837
26976SOL    HW282863   9.188   6.076   3.972
26977SOL     OW82864   8.170   6.710   4.777
26977SOL    HW182865   8.130   6.753   4.858
26977SOL    HW282866   8.195   6.780   4.711
26978SOL     OW82867   8.361   6.287   5.506
26978SOL    HW182868   8.380   6.349   5.582
26978SOL    HW282869   8.369   6.338   5.420
26979SOL     OW82870   8.169   6.561   4.349
26979SOL    HW182871   8.236   6.569   4.423
26979SOL    HW282872   8.093   6.623   4.367
26980SOL     OW82873   8.154   6.717   5.593
26980SOL    HW182874   8.212   6.786   5.637
26980SOL    HW282875   8.083   6.763   5.540
26981SOL     OW82876   7.821   7.004   4.831
26981SOL    HW182877   7.744   6.947   4.803
26981SOL    HW282878   7.860   7.049   4.750
26982SOL     OW82879   8.912   7.083   5.088
26982SOL    HW182880   8.970   7.162   5.107
26982SOL    HW282881   8.834   7.083   5.151
26983SOL     OW82882   7.842   6.007   5.235
26983SOL    HW182883   7.918   5.959   5.280
26983SOL    HW282884   7.761   5.949   5.236
26984SOL     OW82885   9.041   6.046   4.459
26984SOL    HW182886   9.025   6.083   4.367
26984SOL    HW282887   8.992   6.101   4.526
26985SOL     OW82888   7.674   7.345   4.205
26985SOL    HW182889   7.701   7.411   4.275
26985SOL    HW282890   7.748   7.337   4.137
26986SOL     OW82891   8.548   6.925   5.427
26986SOL    HW182892   8.614   6.910   5.501
26986SOL    HW282893   8.489   6.844   5.418
26987SOL     OW82894   7.732   7.075   4.226
26987SOL    HW182895   7.701   7.169   4.237
26987SOL    HW282896   7.695   7.019   4.300
26988SOL     OW82897   7.770   6.735   4.583
26988SOL    HW182898   7.780   6.638   4.604
26988SOL    HW282899   7.722   6.780   4.657
26989SOL     OW82900   8.005   6.567   3.877
26989SOL    HW182901   8.035   6.629   3.805
26989SOL    HW282902   8.056   6.586   3.961
26990SOL     OW82903   9.047   5.672   5.254
26990SOL    HW182904   9.086   5.753   5.211
26990SOL    HW282905   8.993   5.699   5.334
26991SOL     OW82906   7.589   6.320   4.285
26991SOL    HW182907   7.617   6.232   4.325
26991SOL    HW282908   7.576   6.387   4.358
26992SOL     OW82909   9.304   7.322   3.980
26992SOL    HW182910   9.363   7.303   4.059
26992SOL    HW282911   9.310   7.419   3.956
26993SOL     OW82912   7.510   7.155   3.936
26993SOL    HW182913   7.477   7.061   3.945
26993SOL    HW282914   7.461   7.214   4.000
26994SOL     OW82915   9.164   6.499   4.393
26994SOL    HW182916   9.229   6.428   4.366
26994SOL    HW282917   9.148   6.561   4.316
26995SOL     OW82918   9.125   6.682   4.177
26995SOL    HW182919   9.202   6.652   4.121
26995SOL    HW282920   9.152   6.761   4.232
26996SOL     OW82921   7.500   6.326   5.173
26996SOL    HW182922   7.587   6.366   5.146
26996SOL    HW282923   7.438   6.398   5.204
26997SOL     OW82924   8.046   6.978   4.414
26997SOL    HW182925   8.017   6.882   4.420
26997SOL    HW282926   8.034   7.010   4.320
26998SOL     OW82927   8.683   6.788   5.141
26998SOL    HW182928   8.700   6.719   5.070
26998SOL    HW282929   8.751   6.778   5.214
26999SOL     OW82930   8.269   5.617   4.228
26999SOL    HW182931   8.318   5.700   4.198
26999SOL    HW282932   8.171   5.636   4.231
27000SOL     OW82933   7.696   6.487   5.056
27000SOL    HW182934   7.796   6.475   5.058
27000SOL    HW282935   7.662   6.458   4.967
27001SOL     OW82936   9.014   6.624   3.924
27001SOL    HW182937   8.942   6.557   3.941
27001SOL    HW282938   9.051   6.655   4.011
27002SOL     OW82939   8.745   7.492   5.356
27002SOL    HW182940   8.707   7.551   5.284
27002SOL    HW282941   8.742   7.397   5.326
27003SOL     OW82942   7.814   5.859   5.595
27003SOL    HW182943   7.855   5.937   5.641
27003SOL    HW282944   7.722   5.882   5.563
27004SOL     OW82945   8.933   6.992   4.629
27004SOL    HW182946   8.872   7.025   4.702
27004SOL    HW282947   8.907   6.899   4.603
27005SOL     OW82948   9.093   7.442   4.239
27005SOL    HW182949   9.077   7.379   4.163
27005SOL    HW282950   9.114   7.390   4.322
27006SOL     OW82951   8.030   6.296   3.979
27006SOL    HW182952   8.029   6.384   3.934
27006SOL    HW282953   7.966   6.297   4.056
27007SOL     OW82954   8.723   5.980   4.646
27007SOL    HW182955   8.634   5.934   4.643
27007SOL    HW282956   8.785   5.930   4.706
27008SOL     OW82957   9.040   7.270   4.033
27008SOL    HW182958   9.138   7.274   4.013
27008SOL    HW282959   8.989   7.253   3.949
27009SOL     OW82960   8.267   6.166   5.132
27009SOL    HW182961   8.246   6.126   5.221
27009SOL    HW282962   8.239   6.103   5.059
27010SOL     OW82963   8.842   6.056   5.383
27010SOL    HW182964   8.860   6.107   5.467
27010SOL    HW282965   8.887   5.967   5.388
27011SOL     OW82966   8.414   6.466   5.294
27011SOL    HW182967   8.474   6.403   5.242
27011SOL    HW282968   8.357   6.517   5.230
27012SOL     OW82969   8.463   5.951   4.896
27012SOL    HW182970   8.368   5.970   4.917
27012SOL    HW282971   8.469   5.903   4.808
27013SOL     OW82972   8.484   6.271   4.118
27013SOL    HW182973   8.509   6.283   4.214
27013SOL    HW282974   8.395   6.225   4.112
27014SOL     OW82975   7.549   6.492   4.497
27014SOL    HW182976   7.639   6.476   4.538
27014SOL    HW282977   7.508   6.574   4.538
27015SOL     OW82978   7.626   7.505   5.284
27015SOL    HW182979   7.597   7.482   5.377
27015SOL    HW282980   7.546   7.519   5.226
27016SOL     OW82981   8.286   5.926   3.928
27016SOL    HW182982   8.346   5.958   3.853
27016SOL    HW282983   8.230   5.850   3.895
27017SOL     OW82984   8.870   6.744   4.286
27017SOL    HW182985   8.956   6.730   4.239
27017SOL    HW282986   8.819   6.817   4.240
27018SOL     OW82987   7.999   5.670   4.709
27018SOL    HW182988   8.009   5.708   4.801
27018SOL    HW282989   8.006   5.744   4.642
27019SOL     OW82990   8.450   7.023   4.180
27019SOL    HW182991   8.423   7.106   4.130
27019SOL    HW282992   8.415   7.027   4.273
27020SOL     OW82993   7.801   7.374   4.626
27020SOL    HW182994   7.844   7.283   4.620
27020SOL    HW282995   7.866   7.438   4.667
27021SOL     OW82996   9.259   6.607   4.631
27021SOL    HW182997   9.224   6.579   4.542
27021SOL    HW282998   9.183   6.631   4.691
27022SOL     OW82999   8.692   7.106   5.244
27022SOL    HW183000   8.651   7.027   5.289
27022SOL    HW283001   8.621   7.172   5.220
27023SOL     OW83002   7.737   6.508   3.988
27023SOL    HW183003   7.819   6.533   3.937
27023SOL    HW283004   7.703   6.421   3.954
27024SOL     OW83005   8.928   6.362   4.425
27024SOL    HW183006   8.916   6.312   4.511
27024SOL    HW283007   9.012   6.415   4.429
27025SOL     OW83008   7.907   6.875   5.471
27025SOL    HW183009   7.881   6.887   5.375
27025SOL    HW283010   7.827   6.850   5.525
27026SOL     OW83011   8.573   7.322   3.965
27026SOL    HW183012   8.486   7.304   4.009
27026SOL    HW283013   8.602   7.242   3.913
27027SOL     OW83014   7.624   5.837   5.213
27027SOL    HW183015   7.536   5.879   5.190
27027SOL    HW283016   7.609   5.757   5.270
27028SOL     OW83017   9.050   6.979   3.840
27028SOL    HW183018   9.011   7.071   3.828
27028SOL    HW283019   8.990   6.912   3.795
27029SOL     OW83020   7.915   7.360   4.060
27029SOL    HW183021   7.960   7.416   4.130
27029SOL    HW283022   7.985   7.310   4.009
27030SOL     OW83023   8.826   5.682   4.172
27030SOL    HW183024   8.822   5.657   4.075
27030SOL    HW283025   8.920   5.669   4.206
27031SOL     OW83026   7.662   7.368   4.948
27031SOL    HW183027   7.689   7.282   4.991
27031SOL    HW283028   7.623   7.350   4.858
27032SOL     OW83029   8.356   7.270   4.576
27032SOL    HW183030   8.448   7.235   4.594
27032SOL    HW283031   8.316   7.222   4.498
27033SOL     OW83032   7.851   6.270   4.183
27033SOL    HW183033   7.835   6.174   4.205
27033SOL    HW283034   7.765   6.320   4.188
27034SOL     OW83035   8.906   5.794   5.477
27034SOL    HW183036   8.905   5.833   5.569
27034SOL    HW283037   8.825   5.736   5.464
27035SOL     OW83038   8.110   5.717   3.874
27035SOL    HW183039   8.142   5.625   3.897
27035SOL    HW283040   8.062   5.715   3.786
27036SOL     OW83041   8.225   5.812   5.435
27036SOL    HW183042   8.313   5.765   5.441
27036SOL    HW283043   8.171   5.793   5.517
27037SOL     OW83044   8.406   7.184   4.967
27037SOL    HW183045   8.308   7.182   4.951
27037SOL    HW283046   8.438   7.091   4.988
27038SOL     OW83047   8.761   6.165   5.143
27038SOL    HW183048   8.796   6.136   5.232
27038SOL    HW283049   8.791   6.259   5.124
27039SOL     OW83050   8.237   6.905   4.610
27039SOL    HW183051   8.333   6.931   4.595
27039SOL    HW283052   8.182   6.940   4.534
27040SOL     OW83053   8.363   6.090   4.584
27040SOL    HW183054   8.340   6.078   4.487
27040SOL    HW283055   8.397   6.003   4.621
27041SOL     OW83056   8.001   5.667   4.222
27041SOL    HW183057   7.927   5.652   4.287
27041SOL    HW283058   7.983   5.751   4.170
27042SOL     OW83059   8.887   6.784   3.742
27042SOL    HW183060   8.938   6.719   3.797
27042SOL    HW283061   8.805   6.813   3.791
27043SOL     OW83062   7.715   5.657   3.870
27043SOL    HW183063   7.757   5.739   3.831
27043SOL    HW283064   7.784   5.606   3.922
27044SOL     OW83065   8.406   5.837   4.155
27044SOL    HW183066   8.366   5.871   4.070
27044SOL    HW283067   8.503   5.857   4.157
27045SOL     OW83068   8.512   6.283   5.117
27045SOL    HW183069   8.432   6.224   5.126
27045SOL    HW283070   8.595   6.228   5.122
27046SOL     OW83071   8.626   7.201   4.545
27046SOL    HW183072   8.654   7.247   4.461
27046SOL    HW283073   8.675   7.240   4.622
27047SOL     OW83074   7.954   6.723   4.386
27047SOL    HW183075   7.893   6.723   4.465
27047SOL    HW283076   7.900   6.715   4.302
27048SOL     OW83077   8.688   7.375   4.334
27048SOL    HW183078   8.739   7.440   4.278
27048SOL    HW283079   8.606   7.419   4.370
27049SOL     OW83080   8.460   6.064   3.759
27049SOL    HW183081   8.420   6.153   3.738
27049SOL    HW283082   8.530   6.074   3.830
27050SOL     OW83083   8.018   5.794   4.954
27050SOL    HW183084   8.068   5.769   5.036
27050SOL    HW283085   7.919   5.786   4.971
27051SOL     OW83086   8.309   6.034   4.326
27051SOL    HW183087   8.265   6.094   4.259
27051SOL    HW283088   8.348   5.955   4.279
27052SOL     OW83089   8.460   5.632   4.442
27052SOL    HW183090   8.398   5.641   4.365
27052SOL    HW283091   8.426   5.561   4.504
27053SOL     OW83092   8.856   6.741   4.567
27053SOL    HW183093   8.760   6.718   4.579
27053SOL    HW283094   8.879   6.738   4.470
27054SOL     OW83095   8.889   6.204   4.646
27054SOL    HW183096   8.821   6.130   4.653
27054SOL    HW283097   8.950   6.200   4.725
27055SOL     OW83098   9.236   6.338   4.103
27055SOL    HW183099   9.287   6.314   4.185
27055SOL    HW283100   9.249   6.267   4.033
27056SOL     OW83101   7.937   7.026   3.861
27056SOL    HW183102   7.864   6.987   3.917
27056SOL    HW283103   7.925   6.998   3.766
27057SOL     OW83104   9.204   6.881   4.329
27057SOL    HW183105   9.302   6.873   4.350
27057SOL    HW283106   9.170   6.969   4.362
27058SOL     OW83107   8.806   6.180   3.759
27058SOL    HW183108   8.760   6.144   3.840
27058SOL    HW283109   8.905   6.176   3.773
27059SOL     OW83110   7.948   5.870   4.048
27059SOL    HW183111   8.011   5.820   3.987
27059SOL    HW283112   7.916   5.953   4.003
27060SOL     OW83113   9.167   6.801   5.242
27060SOL    HW183114   9.260   6.766   5.235
27060SOL    HW283115   9.169   6.893   5.280
27061SOL     OW83116   8.470   6.931   5.053
27061SOL    HW183117   8.385   6.899   5.094
27061SOL    HW283118   8.547   6.886   5.097
27062SOL     OW83119   9.047   7.215   5.405
27062SOL    HW183120   9.032   7.257   5.316
27062SOL    HW283121   9.123   7.150   5.399
27063SOL     OW83122   8.599   6.860   4.824
27063SOL    HW183123   8.540   6.883   4.901
27063SOL    HW283124   8.553   6.887   4.738
27064SOL     OW83125   9.036   6.671   4.782
27064SOL    HW183126   9.031   6.740   4.854
27064SOL    HW283127   8.967   6.691   4.712
27065SOL     OW83128   8.407   5.624   5.088
27065SOL    HW183129   8.426   5.605   4.992
27065SOL    HW283130   8.485   5.672   5.129
27066SOL     OW83131   8.407   6.683   5.461
27066SOL    HW183132   8.312   6.690   5.493
27066SOL    HW283133   8.415   6.607   5.397
27067SOL     OW83134   8.193   6.615   4.076
27067SOL    HW183135   8.187   6.592   4.173
27067SOL    HW283136   8.257   6.552   4.031
27068SOL     OW83137   7.953   6.406   5.001
27068SOL    HW183138   8.013   6.410   5.082
27068SOL    HW283139   7.913   6.315   4.994
27069SOL     OW83140   8.706   5.935   5.011
27069SOL    HW183141   8.729   6.020   5.057
27069SOL    HW283142   8.615   5.944   4.970
27070SOL     OW83143   7.465   7.107   5.082
27070SOL    HW183144   7.416   7.170   5.021
27070SOL    HW283145   7.563   7.121   5.072
27071SOL     OW83146   7.781   6.710   4.174
27071SOL    HW183147   7.778   6.786   4.109
27071SOL    HW283148   7.766   6.624   4.125
27072SOL     OW83149   7.928   6.165   4.595
27072SOL    HW183150   7.951   6.220   4.514
27072SOL    HW283151   8.008   6.161   4.656
27073SOL     OW83152   8.716   6.944   4.167
27073SOL    HW183153   8.772   7.024   4.187
27073SOL    HW283154   8.620   6.967   4.176
27074SOL     OW83155   8.787   7.059   4.848
27074SOL    HW183156   8.830   7.064   4.938
27074SOL    HW283157   8.721   6.984   4.847
27075SOL     OW83158   9.019   6.199   4.222
27075SOL    HW183159   8.962   6.255   4.283
27075SOL    HW283160   9.083   6.257   4.173
27076SOL     OW83161   7.735   7.129   5.056
27076SOL    HW183162   7.777   7.082   4.979
27076SOL    HW283163   7.805   7.151   5.124
27077SOL     OW83164   7.882   6.267   5.332
27077SOL    HW183165   7.965   6.311   5.298
27077SOL    HW283166   7.873   6.176   5.292
27078SOL     OW83167   9.050   6.444   5.420
27078SOL    HW183168   8.952   6.448   5.404
27078SOL    HW283169   9.099   6.460   5.334
27079SOL     OW83170   8.458   5.685   5.468
27079SOL    HW183171   8.520   5.764   5.465
27079SOL    HW283172   8.507   5.604   5.437
27080SOL     OW83173   7.941   5.635   5.502
27080SOL    HW183174   7.884   5.577   5.443
27080SOL    HW283175   7.891   5.719   5.524
27081SOL     OW83176   8.058   6.456   4.756
27081SOL    HW183177   8.097   6.548   4.754
27081SOL    HW283178   8.015   6.440   4.845
27082SOL     OW83179   8.713   6.420   4.726
27082SOL    HW183180   8.622   6.393   4.694
27082SOL    HW283181   8.780   6.352   4.697
27083SOL     OW83182   8.638   6.101   3.967
27083SOL    HW183183   8.660   6.024   4.026
27083SOL    HW283184   8.589   6.171   4.019
27084SOL     OW83185   7.750   5.752   4.985
27084SOL    HW183186   7.706   5.788   5.068
27084SOL    HW283187   7.724   5.656   4.973
27085SOL     OW83188   7.517   6.843   5.017
27085SOL    HW183189   7.537   6.784   5.096
27085SOL    HW283190   7.478   6.929   5.049
27086SOL     OW83191   8.157   6.198   4.741
27086SOL    HW183192   8.228   6.176   4.674
27086SOL    HW283193   8.133   6.295   4.732
27087SOL     OW83194   9.184   6.526   5.633
27087SOL    HW183195   9.134   6.500   5.550
27087SOL    HW283196   9.124   6.580   5.693
27088SOL     OW83197   7.778   5.632   4.379
27088SOL    HW183198   7.735   5.719   4.402
27088SOL    HW283199   7.787   5.577   4.462
27089SOL     OW83200   9.068   5.984   4.056
27089SOL    HW183201   9.123   5.918   4.109
27089SOL    HW283202   9.030   6.053   4.117
27090SOL     OW83203   8.456   6.336   4.650
27090SOL    HW183204   8.428   6.356   4.745
27090SOL    HW283205   8.428   6.243   4.627
27091SOL     OW83206   8.465   7.183   5.442
27091SOL    HW183207   8.475   7.230   5.354
27091SOL    HW283208   8.484   7.085   5.429
27092SOL     OW83209   9.259   7.055   5.314
27092SOL    HW183210   9.272   7.081   5.218
27092SOL    HW283211   9.345   7.068   5.364
27093SOL     OW83212   7.815   6.452   5.526
27093SOL    HW183213   7.893   6.468   5.587
27093SOL    HW283214   7.842   6.386   5.455
27094SOL     OW83215   8.945   5.850   3.841
27094SOL    HW183216   8.894   5.771   3.875
27094SOL    HW283217   8.985   5.900   3.918
27095SOL     OW83218   8.707   6.431   3.721
27095SOL    HW183219   8.733   6.335   3.729
27095SOL    HW283220   8.739   6.467   3.634
27096SOL     OW83221   8.506   6.952   4.578
27096SOL    HW183222   8.546   6.872   4.534
27096SOL    HW283223   8.560   7.033   4.555
27097SOL     OW83224   7.789   6.474   4.639
27097SOL    HW183225   7.885   6.448   4.650
27097SOL    HW283226   7.735   6.433   4.712
27098SOL     OW83227   7.729   6.111   4.765
27098SOL    HW183228   7.701   6.016   4.754
27098SOL    HW283229   7.799   6.133   4.697
27099SOL     OW83230   8.608   5.913   5.424
27099SOL    HW183231   8.550   5.960   5.490
27099SOL    HW283232   8.687   5.970   5.402
27100SOL     OW83233   8.626   5.750   5.198
27100SOL    HW183234   8.610   5.806   5.279
27100SOL    HW283235   8.664   5.806   5.125
27101SOL     OW83236   7.467   6.875   3.931
27101SOL    HW183237   7.377   6.902   3.899
27101SOL    HW283238   7.464   6.781   3.966
27102SOL     OW83239   7.539   7.332   4.702
27102SOL    HW183240   7.489   7.261   4.652
27102SOL    HW283241   7.628   7.347   4.660
27103SOL     OW83242   7.942   7.136   4.621
27103SOL    HW183243   8.021   7.189   4.654
27103SOL    HW283244   7.971   7.078   4.545
27104SOL     OW83245   8.368   6.380   4.902
27104SOL    HW183246   8.434   6.360   4.975
27104SOL    HW283247   8.284   6.328   4.918
27105SOL     OW83248   7.630   6.356   4.822
27105SOL    HW183249   7.667   6.266   4.804
27105SOL    HW283250   7.534   6.348   4.851
27106SOL     OW83251   7.625   6.206   5.426
27106SOL    HW183252   7.719   6.228   5.402
27106SOL    HW283253   7.563   6.237   5.354
27107SOL     OW83254   8.792   6.486   5.348
27107SOL    HW183255   8.807   6.585   5.352
27107SOL    HW283256   8.790   6.457   5.252
27108SOL     OW83257   8.243   6.152   4.079
27108SOL    HW183258   8.251   6.069   4.023
27108SOL    HW283259   8.168   6.209   4.044
27109SOL     OW83260   9.057   6.188   4.859
27109SOL    HW183261   9.018   6.121   4.922
27109SOL    HW283262   9.157   6.182   4.862
27110SOL     OW83263   7.643   7.102   5.465
27110SOL    HW183264   7.592   7.143   5.540
27110SOL    HW283265   7.666   7.007   5.488
27111SOL     OW83266   8.196   6.004   4.926
27111SOL    HW183267   8.126   5.933   4.931
27111SOL    HW283268   8.169   6.073   4.858
27112SOL     OW83269   8.490   7.301   5.197
27112SOL    HW183270   8.462   7.258   5.111
27112SOL    HW283271   8.460   7.397   5.197
27113SOL     OW83272   7.863   6.089   3.906
27113SOL    HW183273   7.940   6.151   3.918
27113SOL    HW283274   7.777   6.139   3.913
27114SOL     OW83275   7.611   6.683   5.227
27114SOL    HW183276   7.609   6.643   5.319
27114SOL    HW283277   7.642   6.614   5.162
27115SOL     OW83278   8.701   6.618   4.915
27115SOL    HW183279   8.707   6.547   4.844
27115SOL    HW283280   8.667   6.703   4.875
27116SOL     OW83281   8.809   6.459   3.976
27116SOL    HW183282   8.747   6.425   4.047
27116SOL    HW283283   8.766   6.448   3.886
27117SOL     OW83284   9.189   7.282   4.877
27117SOL    HW183285   9.262   7.318   4.819
27117SOL    HW283286   9.165   7.190   4.846
27118SOL     OW83287   8.752   7.312   4.762
27118SOL    HW183288   8.836   7.366   4.768
27118SOL    HW283289   8.768   7.221   4.799
27119SOL     OW83290   7.606   6.844   4.766
27119SOL    HW183291   7.574   6.841   4.861
27119SOL    HW283292   7.538   6.800   4.706
27120SOL     OW83293   8.203   7.211   5.504
27120SOL    HW183294   8.151   7.255   5.431
27120SOL    HW283295   8.301   7.217   5.483
27121SOL     OW83296   9.234   5.810   4.184
27121SOL    HW183297   9.295   5.778   4.112
27121SOL    HW283298   9.178   5.735   4.217
27122SOL     OW83299   8.861   7.173   4.226
27122SOL    HW183300   8.918   7.209   4.152
27122SOL    HW283301   8.797   7.244   4.256
27123SOL     OW83302   7.569   7.414   5.530
27123SOL    HW183303   7.510   7.338   5.555
27123SOL    HW283304   7.626   7.439   5.609
27124SOL     OW83305   8.728   6.523   4.346
27124SOL    HW183306   8.799   6.459   4.376
27124SOL    HW283307   8.770   6.605   4.309
27125SOL     OW83308   8.227   6.853   5.151
27125SOL    HW183309   8.203   6.888   5.242
27125SOL    HW283310   8.158   6.882   5.085
27126SOL     OW83311   8.111   7.231   3.917
27126SOL    HW183312   8.147   7.272   3.834
27126SOL    HW283313   8.055   7.151   3.894
27127SOL     OW83314   9.068   7.310   5.130
27127SOL    HW183315   9.108   7.306   5.039
27127SOL    HW283316   9.099   7.392   5.177
27128SOL     OW83317   9.307   5.772   4.699
27128SOL    HW183318   9.343   5.683   4.672
27128SOL    HW283319   9.217   5.786   4.657
27129SOL     OW83320   7.665   5.868   4.460
27129SOL    HW183321   7.566   5.878   4.448
27129SOL    HW283322   7.687   5.874   4.557
27130SOL     OW83323   8.662   7.111   3.812
27130SOL    HW183324   8.672   7.018   3.848
27130SOL    HW283325   8.586   7.114   3.747
27131SOL     OW83326   8.260   6.586   5.110
27131SOL    HW183327   8.290   6.569   5.016
27131SOL    HW283328   8.249   6.685   5.124
27132SOL     OW83329   8.372   6.451   3.941
27132SOL    HW183330   8.438   6.519   3.908
27132SOL    HW283331   8.417   6.389   4.005
27133SOL     OW83332   8.910   7.226   3.794
27133SOL    HW183333   8.819   7.184   3.794
27133SOL    HW283334   8.946   7.227   3.701
27134SOL     OW83335   7.787   6.897   5.227
27134SOL    HW183336   7.747   6.963   5.163
27134SOL    HW283337   7.731   6.813   5.227
27135SOL     OW83338   9.044   6.860   4.994
27135SOL    HW183339   9.097   6.826   5.072
27135SOL    HW283340   8.986   6.935   5.024
27136SOL     OW83341   8.580   6.696   4.505
27136SOL    HW183342   8.490   6.661   4.530
27136SOL    HW283343   8.625   6.632   4.443
27137SOL     OW83344   8.493   5.811   4.658
27137SOL    HW183345   8.485   5.775   4.566
27137SOL    HW283346   8.496   5.736   4.724
27138SOL     OW83347   8.053   7.045   4.158
27138SOL    HW183348   8.113   6.993   4.097
27138SOL    HW283349   7.972   7.075   4.108
27139SOL     OW83350   9.192   5.895   5.173
27139SOL    HW183351   9.242   5.982   5.170
27139SOL    HW283352   9.217   5.840   5.094
27140SOL     OW83353   7.735   6.921   4.010
27140SOL    HW183354   7.643   6.912   3.972
27140SOL    HW283355   7.734   6.986   4.086
27141SOL     OW83356   7.586   6.592   5.480
27141SOL    HW183357   7.504   6.565   5.530
27141SOL    HW283358   7.662   6.532   5.506
27142SOL     OW83359   8.165   5.728   5.176
27142SOL    HW183360   8.252   5.696   5.138
27142SOL    HW283361   8.180   5.769   5.266
27143SOL     OW83362   7.531   5.973   3.696
27143SOL    HW183363   7.436   5.998   3.712
27143SOL    HW283364   7.582   6.054   3.666
27144SOL     OW83365   8.823   6.428   5.082
27144SOL    HW183366   8.760   6.487   5.031
27144SOL    HW283367   8.914   6.435   5.042
27145SOL     OW83368   7.467   5.714   3.966
27145SOL    HW183369   7.425   5.778   3.902
27145SOL    HW283370   7.562   5.696   3.938
27146SOL     OW83371   8.682   6.856   3.906
27146SOL    HW183372   8.626   6.774   3.894
27146SOL    HW283373   8.696   6.873   4.003
27147SOL     OW83374   8.111   6.380   5.217
27147SOL    HW183375   8.162   6.464   5.197
27147SOL    HW283376   8.169   6.301   5.196
27148SOL     OW83377   8.985   7.456   4.785
27148SOL    HW183378   9.023   7.512   4.712
27148SOL    HW283379   9.057   7.399   4.825
27149SOL     OW83380   8.211   6.080   5.375
27149SOL    HW183381   8.252   6.142   5.442
27149SOL    HW283382   8.222   5.986   5.406
27150SOL     OW83383   8.876   6.749   5.343
27150SOL    HW183384   8.861   6.774   5.439
27150SOL    HW283385   8.970   6.772   5.317
27151SOL     OW83386   7.797   7.288   5.317
27151SOL    HW183387   7.736   7.364   5.295
27151SOL    HW283388   7.748   7.221   5.373
27152SOL     OW83389   9.062   6.453   4.950
27152SOL    HW183390   9.064   6.365   4.904
27152SOL    HW283391   9.053   6.526   4.882
27153SOL     OW83392   8.669   5.907   4.161
27153SOL    HW183393   8.730   5.828   4.168
27153SOL    HW283394   8.681   5.966   4.242
27154SOL     OW83395   8.019   6.326   4.393
27154SOL    HW183396   8.078   6.404   4.377
27154SOL    HW283397   7.963   6.309   4.312
27155SOL     OW83398   9.165   5.884   5.445
27155SOL    HW183399   9.176   5.890   5.346
27155SOL    HW283400   9.076   5.844   5.466
27156SOL     OW83401   9.171   6.517   5.191
27156SOL    HW183402   9.156   6.615   5.205
27156SOL    HW283403   9.135   6.491   5.101
27157SOL     OW83404   8.239   6.975   3.763
27157SOL    HW183405   8.239   6.955   3.861
27157SOL    HW283406   8.323   7.023   3.739
27158SOL     OW83407   8.127   7.319   4.719
27158SOL    HW183408   8.092   7.413   4.716
27158SOL    HW283409   8.213   7.314   4.668
27159SOL     OW83410   8.339   6.578   4.574
27159SOL    HW183411   8.375   6.489   4.602
27159SOL    HW283412   8.287   6.618   4.649
27160SOL     OW83413   8.547   6.627   3.827
27160SOL    HW183414   8.482   6.660   3.758
27160SOL    HW283415   8.608   6.560   3.786
27161SOL     OW83416   9.266   7.155   4.580
27161SOL    HW183417   9.197   7.146   4.507
27161SOL    HW283418   9.244   7.091   4.654
27162SOL     OW83419   7.655   6.840   5.565
27162SOL    HW183420   7.631   6.751   5.528
27162SOL    HW283421   7.601   6.857   5.648
27163SOL     OW83422   7.637   6.852   4.369
27163SOL    HW183423   7.677   6.818   4.454
27163SOL    HW283424   7.674   6.799   4.292
27164SOL     OW83425   8.154   6.959   5.394
27164SOL    HW183426   8.062   6.931   5.421
27164SOL    HW283427   8.175   7.048   5.434
27165SOL     OW83428   9.271   5.745   4.969
27165SOL    HW183429   9.317   5.656   4.979
27165SOL    HW283430   9.274   5.774   4.874
27166SOL     OW83431   7.791   6.013   4.250
27166SOL    HW183432   7.843   5.950   4.192
27166SOL    HW283433   7.752   5.963   4.327
27167SOL     OW83434   9.144   7.028   4.793
27167SOL    HW183435   9.069   7.012   4.729
27167SOL    HW283436   9.140   6.960   4.867
27168SOL     OW83437   7.851   6.163   5.006
27168SOL    HW183438   7.844   6.096   5.080
27168SOL    HW283439   7.803   6.128   4.925
27169SOL     OW83440   8.262   7.144   4.360
27169SOL    HW183441   8.258   7.184   4.268
27169SOL    HW283442   8.182   7.086   4.374
27170SOL     OW83443   8.875   5.839   4.822
27170SOL    HW183444   8.899   5.743   4.836
27170SOL    HW283445   8.819   5.870   4.899
27171SOL     OW83446   8.491   5.574   4.809
27171SOL    HW183447   8.428   5.516   4.758
27171SOL    HW283448   8.582   5.532   4.810
27172SOL     OW83449   8.247   6.890   4.027
27172SOL    HW183450   8.226   6.793   4.044
27172SOL    HW283451   8.327   6.916   4.080
27173SOL     OW83452   8.812   5.616   3.908
27173SOL    HW183453   8.864   5.542   3.866
27173SOL    HW283454   8.714   5.602   3.891
27174SOL     OW83455   8.689   6.064   4.380
27174SOL    HW183456   8.642   6.153   4.379
27174SOL    HW283457   8.707   6.037   4.474
27175SOL     OW83458   9.053   5.811   4.613
27175SOL    HW183459   8.989   5.831   4.687
27175SOL    HW283460   9.047   5.882   4.543
27176SOL     OW83461   7.482   6.616   4.041
27176SOL    HW183462   7.578   6.599   4.016
27176SOL    HW283463   7.435   6.528   4.052
27177SOL     OW83464   8.325   7.257   4.091
27177SOL    HW183465   8.248   7.242   4.029
27177SOL    HW283466   8.313   7.345   4.139
27178SOL     OW83467   7.650   6.216   5.714
27178SOL    HW183468   7.562   6.185   5.751
27178SOL    HW283469   7.641   6.233   5.616
27179SOL     OW83470   7.596   5.950   6.713
27179SOL    HW183471   7.654   5.891   6.770
27179SOL    HW283472   7.543   5.894   6.650
27180SOL     OW83473   7.482   6.008   6.252
27180SOL    HW183474   7.400   6.028   6.306
27180SOL    HW283475   7.460   5.942   6.181
27181SOL     OW83476   8.024   6.909   6.811
27181SOL    HW183477   7.935   6.900   6.767
27181SOL    HW283478   8.043   7.006   6.829
27182SOL     OW83479   9.048   7.113   6.274
27182SOL    HW183480   8.995   7.089   6.355
27182SOL    HW283481   8.986   7.117   6.195
27183SOL     OW83482   8.572   6.285   6.278
27183SOL    HW183483   8.635   6.362   6.270
27183SOL    HW283484   8.517   6.296   6.361
27184SOL     OW83485   8.186   6.717   6.669
27184SOL    HW183486   8.115   6.752   6.730
27184SOL    HW283487   8.222   6.792   6.614
27185SOL     OW83488   8.303   6.338   7.332
27185SOL    HW183489   8.346   6.374   7.415
27185SOL    HW283490   8.329   6.395   7.254
27186SOL     OW83491   8.142   6.537   6.260
27186SOL    HW183492   8.213   6.545   6.331
27186SOL    HW283493   8.068   6.600   6.280
27187SOL     OW83494   8.112   6.740   7.444
27187SOL    HW183495   8.150   6.823   7.485
27187SOL    HW283496   8.041   6.764   7.378
27188SOL     OW83497   7.786   6.963   6.680
27188SOL    HW183498   7.704   6.914   6.649
27188SOL    HW283499   7.826   7.012   6.603
27189SOL     OW83500   8.858   7.101   6.971
27189SOL    HW183501   8.912   7.182   6.993
27189SOL    HW283502   8.785   7.091   7.039
27190SOL     OW83503   7.887   5.862   7.161
27190SOL    HW183504   7.949   5.814   7.099
27190SOL    HW283505   7.792   5.847   7.132
27191SOL     OW83506   8.998   6.045   6.330
27191SOL    HW183507   8.913   6.026   6.281
27191SOL    HW283508   9.000   6.140   6.359
27192SOL     OW83509   7.670   7.310   6.042
27192SOL    HW183510   7.688   7.378   6.113
27192SOL    HW283511   7.744   7.309   5.976
27193SOL     OW83512   8.545   6.913   7.346
27193SOL    HW183513   8.601   6.920   7.429
27193SOL    HW283514   8.491   6.829   7.351
27194SOL     OW83515   7.770   7.061   6.111
27194SOL    HW183516   7.722   7.148   6.103
27194SOL    HW283517   7.721   7.003   6.177
27195SOL     OW83518   7.727   6.692   6.470
27195SOL    HW183519   7.746   6.598   6.501
27195SOL    HW283520   7.669   6.738   6.537
27196SOL     OW83521   8.010   7.405   7.016
27196SOL    HW183522   7.935   7.377   7.077
27196SOL    HW283523   8.053   7.487   7.053
27197SOL     OW83524   8.028   6.559   5.787
27197SOL    HW183525   8.071   6.605   5.709
27197SOL    HW283526   8.075   6.586   5.871
27198SOL     OW83527   9.134   5.670   7.128
27198SOL    HW183528   9.153   5.746   7.065
27198SOL    HW283529   9.073   5.702   7.201
27199SOL     OW83530   7.559   6.270   6.185
27199SOL    HW183531   7.540   6.174   6.206
27199SOL    HW283532   7.548   6.325   6.267
27200SOL     OW83533   9.320   7.288   5.923
27200SOL    HW183534   9.395   7.274   5.988
27200SOL    HW283535   9.328   7.379   5.883
27201SOL     OW83536   7.463   7.185   5.652
27201SOL    HW183537   7.392   7.115   5.655
27201SOL    HW283538   7.462   7.236   5.739
27202SOL     OW83539   9.106   6.504   6.247
27202SOL    HW183540   9.202   6.498   6.277
27202SOL    HW283541   9.099   6.570   6.172
27203SOL     OW83542   9.083   6.714   6.058
27203SOL    HW183543   9.160   6.683   6.002
27203SOL    HW283544   9.116   6.777   6.128
27204SOL     OW83545   7.509   6.352   7.110
27204SOL    HW183546   7.576   6.335   7.037
27204SOL    HW283547   7.530   6.438   7.156
27205SOL     OW83548   8.059   6.933   6.348
27205SOL    HW183549   8.017   6.844   6.330
27205SOL    HW283550   8.063   6.985   6.263
27206SOL     OW83551   8.644   6.776   7.010
27206SOL    HW183552   8.674   6.727   6.928
27206SOL    HW283553   8.718   6.773   7.078
27207SOL     OW83554   8.278   5.624   6.085
27207SOL    HW183555   8.326   5.706   6.054
27207SOL    HW283556   8.180   5.644   6.094
27208SOL     OW83557   7.557   6.523   6.822
27208SOL    HW183558   7.612   6.440   6.832
27208SOL    HW283559   7.486   6.507   6.753
27209SOL     OW83560   8.982   6.643   5.793
27209SOL    HW183561   8.905   6.581   5.806
27209SOL    HW283562   9.010   6.679   5.882
27210SOL     OW83563   8.630   7.344   7.182
27210SOL    HW183564   8.669   7.383   7.098
27210SOL    HW283565   8.626   7.244   7.174
27211SOL     OW83566   7.808   5.820   7.413
27211SOL    HW183567   7.842   5.848   7.324
27211SOL    HW283568   7.724   5.871   7.434
27212SOL     OW83569   8.892   7.036   6.488
27212SOL    HW183570   8.846   7.062   6.573
27212SOL    HW283571   8.871   6.940   6.467
27213SOL     OW83572   9.084   7.383   6.131
27213SOL    HW183573   9.075   7.328   6.047
27213SOL    HW283574   9.095   7.321   6.209
27214SOL     OW83575   8.013   6.292   5.870
27214SOL    HW183576   8.028   6.384   5.834
27214SOL    HW283577   7.940   6.294   5.938
27215SOL     OW83578   9.049   7.235   5.905
27215SOL    HW183579   9.149   7.239   5.902
27215SOL    HW283580   9.014   7.228   5.812
27216SOL     OW83581   8.246   6.199   6.972
27216SOL    HW183582   8.210   6.186   7.064
27216SOL    HW283583   8.222   6.121   6.915
27217SOL     OW83584   8.804   6.024   7.255
27217SOL    HW183585   8.817   6.089   7.330
27217SOL    HW283586   8.865   5.946   7.268
27218SOL     OW83587   8.400   6.518   7.145
27218SOL    HW183588   8.491   6.489   7.115
27218SOL    HW283589   8.351   6.558   7.067
27219SOL     OW83590   8.433   5.899   6.787
27219SOL    HW183591   8.349   5.952   6.797
27219SOL    HW283592   8.448   5.879   6.690
27220SOL     OW83593   8.473   6.271   6.017
27220SOL    HW183594   8.501   6.268   6.113
27220SOL    HW283595   8.384   6.227   6.007
27221SOL     OW83596   7.522   6.423   6.416
27221SOL    HW183597   7.617   6.438   6.446
27221SOL    HW283598   7.461   6.433   6.494
27222SOL     OW83599   7.566   7.479   7.164
27222SOL    HW183600   7.569   7.472   7.264
27222SOL    HW283601   7.494   7.419   7.129
27223SOL     OW83602   8.288   5.941   5.781
27223SOL    HW183603   8.352   5.977   5.713
27223SOL    HW283604   8.232   5.869   5.740
27224SOL     OW83605   9.116   6.173   7.430
27224SOL    HW183606   9.109   6.249   7.365
27224SOL    HW283607   9.144   6.090   7.381
27225SOL     OW83608   8.829   6.734   6.160
27225SOL    HW183609   8.917   6.725   6.113
27225SOL    HW283610   8.768   6.792   6.106
27226SOL     OW83611   8.002   5.684   6.561
27226SOL    HW183612   8.000   5.726   6.652
27226SOL    HW283613   8.028   5.753   6.493
27227SOL     OW83614   8.431   7.051   6.066
27227SOL    HW183615   8.411   7.121   5.998
27227SOL    HW283616   8.398   7.080   6.155
27228SOL     OW83617   7.807   7.363   6.468
27228SOL    HW183618   7.842   7.269   6.474
27228SOL    HW283619   7.880   7.426   6.496
27229SOL     OW83620   9.252   6.724   6.476
27229SOL    HW183621   9.221   6.773   6.394
27229SOL    HW283622   9.176   6.719   6.541
27230SOL     OW83623   8.623   7.072   7.127
27230SOL    HW183624   8.607   7.013   7.206
27230SOL    HW283625   8.561   7.047   7.053
27231SOL     OW83626   7.756   6.514   5.848
27231SOL    HW183627   7.848   6.537   5.818
27231SOL    HW283628   7.735   6.420   5.822
27232SOL     OW83629   8.965   6.320   6.374
27232SOL    HW183630   8.987   6.310   6.471
27232SOL    HW283631   9.022   6.391   6.333
27233SOL     OW83632   7.907   6.835   7.288
27233SOL    HW183633   7.884   6.855   7.193
27233SOL    HW283634   7.823   6.830   7.342
27234SOL     OW83635   8.589   7.340   5.832
27234SOL    HW183636   8.496   7.320   5.866
27234SOL    HW283637   8.613   7.274   5.760
27235SOL     OW83638   7.624   5.807   7.111
27235SOL    HW183639   7.539   5.857   7.092
27235SOL    HW283640   7.605   5.734   7.177
27236SOL     OW83641   9.036   6.968   5.678
27236SOL    HW183642   9.011   7.064   5.664
27236SOL    HW283643   8.962   6.909   5.646
27237SOL     OW83644   7.899   7.331   5.894
27237SOL    HW183645   7.944   7.383   5.967
27237SOL    HW283646   7.969   7.282   5.841
27238SOL     OW83647   8.831   5.692   6.043
27238SOL    HW183648   8.824   5.675   5.944
27238SOL    HW283649   8.927   5.690   6.071
27239SOL     OW83650   7.653   7.390   6.798
27239SOL    HW183651   7.709   7.313   6.828
27239SOL    HW283652   7.623   7.373   6.704
27240SOL     OW83653   8.403   7.275   6.465
27240SOL    HW183654   8.490   7.225   6.466
27240SOL    HW283655   8.345   7.238   6.392
27241SOL     OW83656   7.809   6.273   6.054
27241SOL    HW183657   7.824   6.174   6.053
27241SOL    HW283658   7.718   6.293   6.090
27242SOL     OW83659   8.955   5.793   7.314
27242SOL    HW183660   8.952   5.806   7.413
27242SOL    HW283661   8.877   5.736   7.286
27243SOL     OW83662   8.129   5.720   5.687
27243SOL    HW183663   8.198   5.649   5.704
27243SOL    HW283664   8.055   5.682   5.631
27244SOL     OW83665   8.188   5.895   7.242
27244SOL    HW183666   8.274   5.852   7.270
27244SOL    HW283667   8.118   5.876   7.312
27245SOL     OW83668   8.291   7.108   6.760
27245SOL    HW183669   8.273   7.053   6.678
27245SOL    HW283670   8.354   7.059   6.820
27246SOL     OW83671   8.257   6.943   6.537
27246SOL    HW183672   8.346   6.946   6.489
27246SOL    HW283673   8.183   6.948   6.469
27247SOL     OW83674   8.350   6.057   6.455
27247SOL    HW183675   8.329   6.050   6.358
27247SOL    HW283676   8.383   5.968   6.489
27248SOL     OW83677   8.011   5.678   6.083
27248SOL    HW183678   7.935   5.677   6.148
27248SOL    HW283679   7.999   5.753   6.018
27249SOL     OW83680   8.833   6.796   5.614
27249SOL    HW183681   8.883   6.732   5.672
27249SOL    HW283682   8.748   6.824   5.660
27250SOL     OW83683   7.733   5.649   5.757
27250SOL    HW183684   7.775   5.726   5.709
27250SOL    HW283685   7.803   5.598   5.806
27251SOL     OW83686   8.407   5.847   6.010
27251SOL    HW183687   8.371   5.884   5.925
27251SOL    HW283688   8.505   5.866   6.016
27252SOL     OW83689   8.657   7.155   6.374
27252SOL    HW183690   8.670   7.228   6.308
27252SOL    HW283691   8.746   7.126   6.410
27253SOL     OW83692   7.929   6.703   6.287
27253SOL    HW183693   7.859   6.696   6.358
27253SOL    HW283694   7.886   6.699   6.197
27254SOL     OW83695   8.696   7.367   6.202
27254SOL    HW183696   8.757   7.433   6.158
27254SOL    HW283697   8.616   7.415   6.239
27255SOL     OW83698   8.468   6.056   5.608
27255SOL    HW183699   8.436   6.143   5.570
27255SOL    HW283700   8.524   6.075   5.689
27256SOL     OW83701   7.991   5.807   6.805
27256SOL    HW183702   8.039   5.771   6.885
27256SOL    HW283703   7.892   5.802   6.821
27257SOL     OW83704   8.301   6.022   6.194
27257SOL    HW183705   8.254   6.083   6.130
27257SOL    HW283706   8.344   5.947   6.144
27258SOL     OW83707   8.453   5.617   6.299
27258SOL    HW183708   8.391   5.623   6.220
27258SOL    HW283709   8.421   5.546   6.361
27259SOL     OW83710   8.830   6.778   6.437
27259SOL    HW183711   8.740   6.740   6.459
27259SOL    HW283712   8.850   6.764   6.340
27260SOL     OW83713   9.244   6.371   5.984
27260SOL    HW183714   9.311   6.325   6.043
27260SOL    HW283715   9.239   6.323   5.896
27261SOL     OW83716   7.962   6.998   5.723
27261SOL    HW183717   7.889   6.965   5.783
27261SOL    HW283718   7.946   6.964   5.630
27262SOL     OW83719   9.205   6.867   6.245
27262SOL    HW183720   9.301   6.860   6.217
27262SOL    HW283721   9.177   6.963   6.244
27263SOL     OW83722   7.975   5.856   5.880
27263SOL    HW183723   8.035   5.807   5.816
27263SOL    HW283724   7.941   5.939   5.836
27264SOL     OW83725   9.171   6.866   7.101
27264SOL    HW183726   9.253   6.808   7.095
27264SOL    HW283727   9.195   6.953   7.146
27265SOL     OW83728   8.448   6.942   6.930
27265SOL    HW183729   8.359   6.923   6.971
27265SOL    HW283730   8.515   6.876   6.964
27266SOL     OW83731   9.053   7.249   7.270
27266SOL    HW183732   9.033   7.280   7.177
27266SOL    HW283733   9.133   7.189   7.269
27267SOL     OW83734   8.582   6.885   6.692
27267SOL    HW183735   8.517   6.907   6.765
27267SOL    HW283736   8.539   6.902   6.603
27268SOL     OW83737   9.032   6.723   6.649
27268SOL    HW183738   9.020   6.784   6.727
27268SOL    HW283739   8.953   6.730   6.588
27269SOL     OW83740   8.328   5.664   6.882
27269SOL    HW183741   8.366   5.595   6.820
27269SOL    HW283742   8.365   5.754   6.860
27270SOL     OW83743   8.381   6.684   7.365
27270SOL    HW183744   8.285   6.701   7.390
27270SOL    HW283745   8.385   6.630   7.281
27271SOL     OW83746   8.187   6.628   6.004
27271SOL    HW183747   8.169   6.591   6.095
27271SOL    HW283748   8.272   6.589   5.968
27272SOL     OW83749   7.505   7.149   6.919
27272SOL    HW183750   7.459   7.220   6.866
27272SOL    HW283751   7.604   7.157   6.908
27273SOL     OW83752   7.785   6.706   6.051
27273SOL    HW183753   7.789   6.782   5.986
27273SOL    HW283754   7.772   6.620   6.001
27274SOL     OW83755   7.894   6.127   6.449
27274SOL    HW183756   7.907   6.196   6.378
27274SOL    HW283757   7.978   6.119   6.504
27275SOL     OW83758   8.679   6.938   6.009
27275SOL    HW183759   8.747   7.008   6.031
27275SOL    HW283760   8.588   6.969   6.037
27276SOL     OW83761   8.765   7.084   6.718
27276SOL    HW183762   8.799   7.091   6.812
27276SOL    HW283763   8.698   7.010   6.713
27277SOL     OW83764   9.022   6.232   6.081
27277SOL    HW183765   8.983   6.263   6.168
27277SOL    HW283766   9.093   6.297   6.052
27278SOL     OW83767   7.777   7.149   6.869
27278SOL    HW183768   7.772   7.080   6.797
27278SOL    HW283769   7.872   7.173   6.887
27279SOL     OW83770   9.086   6.380   7.253
27279SOL    HW183771   8.992   6.413   7.245
27279SOL    HW283772   9.138   6.406   7.171
27280SOL     OW83773   8.392   5.745   7.354
27280SOL    HW183774   8.455   5.822   7.346
27280SOL    HW283775   8.442   5.659   7.341
27281SOL     OW83776   7.949   5.592   7.398
27281SOL    HW183777   7.907   5.536   7.327
27281SOL    HW283778   7.893   5.673   7.414
27282SOL     OW83779   8.050   6.451   6.621
27282SOL    HW183780   8.082   6.544   6.601
27282SOL    HW283781   8.066   6.430   6.718
27283SOL     OW83782   8.678   6.423   6.636
27283SOL    HW183783   8.606   6.388   6.576
27283SOL    HW283784   8.698   6.357   6.707
27284SOL     OW83785   8.595   6.098   5.842
27284SOL    HW183786   8.638   6.028   5.899
27284SOL    HW283787   8.559   6.171   5.899
27285SOL     OW83788   7.730   5.770   6.866
27285SOL    HW183789   7.690   5.783   6.957
27285SOL    HW283790   7.711   5.677   6.835
27286SOL     OW83791   7.426   6.896   6.882
27286SOL    HW183792   7.488   6.835   6.931
27286SOL    HW283793   7.451   6.991   6.902
27287SOL     OW83794   8.128   6.170   6.583
27287SOL    HW183795   8.207   6.144   6.528
27287SOL    HW283796   8.116   6.269   6.580
27288SOL     OW83797   9.235   6.519   7.436
27288SOL    HW183798   9.181   6.464   7.372
27288SOL    HW283799   9.189   6.522   7.525
27289SOL     OW83800   7.788   5.670   6.244
27289SOL    HW183801   7.766   5.764   6.271
27289SOL    HW283802   7.790   5.611   6.324
27290SOL     OW83803   9.018   5.991   5.948
27290SOL    HW183804   9.100   5.943   5.977
27290SOL    HW283805   9.011   6.078   5.998
27291SOL     OW83806   8.437   6.303   6.532
27291SOL    HW183807   8.434   6.306   6.632
27291SOL    HW283808   8.409   6.213   6.500
27292SOL     OW83809   8.387   7.131   7.392
27292SOL    HW183810   8.352   7.183   7.314
27292SOL    HW283811   8.433   7.049   7.360
27293SOL     OW83812   9.278   7.101   7.196
27293SOL    HW183813   9.291   7.122   7.100
27293SOL    HW283814   9.367   7.097   7.242
27294SOL     OW83815   7.807   6.485   7.300
27294SOL    HW183816   7.882   6.543   7.332
27294SOL    HW283817   7.844   6.401   7.260
27295SOL     OW83818   8.885   5.906   5.731
27295SOL    HW183819   8.838   5.820   5.751
27295SOL    HW283820   8.934   5.937   5.812
27296SOL     OW83821   8.708   6.369   5.580
27296SOL    HW183822   8.758   6.283   5.595
27296SOL    HW283823   8.734   6.407   5.492
27297SOL     OW83824   8.503   6.936   6.432
27297SOL    HW183825   8.534   6.847   6.398
27297SOL    HW283826   8.561   7.008   6.395
27298SOL     OW83827   7.777   6.434   6.550
27298SOL    HW183828   7.877   6.441   6.559
27298SOL    HW283829   7.746   6.348   6.590
27299SOL     OW83830   7.734   6.177   6.663
27299SOL    HW183831   7.679   6.095   6.677
27299SOL    HW283832   7.796   6.163   6.586
27300SOL     OW83833   8.548   5.957   7.326
27300SOL    HW183834   8.527   6.024   7.398
27300SOL    HW283835   8.637   5.979   7.286
27301SOL     OW83836   7.495   6.861   5.787
27301SOL    HW183837   7.408   6.906   5.767
27301SOL    HW283838   7.479   6.767   5.818
27302SOL     OW83839   7.547   7.353   6.545
27302SOL    HW183840   7.498   7.279   6.497
27302SOL    HW283841   7.640   7.360   6.509
27303SOL     OW83842   7.925   7.114   6.499
27303SOL    HW183843   7.999   7.174   6.532
27303SOL    HW283844   7.964   7.044   6.440
27304SOL     OW83845   8.441   6.293   6.799
27304SOL    HW183846   8.535   6.284   6.834
27304SOL    HW283847   8.377   6.262   6.869
27305SOL     OW83848   7.451   6.130   6.855
27305SOL    HW183849   7.495   6.061   6.797
27305SOL    HW283850   7.518   6.199   6.882
27306SOL     OW83851   7.650   6.215   7.343
27306SOL    HW183852   7.742   6.222   7.302
27306SOL    HW283853   7.583   6.251   7.278
27307SOL     OW83854   8.844   6.507   7.206
27307SOL    HW183855   8.887   6.596   7.221
27307SOL    HW283856   8.834   6.491   7.108
27308SOL     OW83857   8.233   6.151   5.958
27308SOL    HW183858   8.247   6.076   5.893
27308SOL    HW283859   8.154   6.205   5.929
27309SOL     OW83860   9.057   6.266   6.629
27309SOL    HW183861   9.004   6.197   6.678
27309SOL    HW283862   9.154   6.244   6.635
27310SOL     OW83863   7.674   7.111   7.315
27310SOL    HW183864   7.624   7.135   7.399
27310SOL    HW283865   7.688   7.012   7.313
27311SOL     OW83866   8.179   6.007   6.793
27311SOL    HW183867   8.108   5.936   6.796
27311SOL    HW283868   8.158   6.070   6.718
27312SOL     OW83869   8.300   7.301   7.183
27312SOL    HW183870   8.279   7.292   7.086
27312SOL    HW283871   8.347   7.388   7.199
27313SOL     OW83872   7.886   6.079   5.747
27313SOL    HW183873   7.951   6.148   5.780
27313SOL    HW283874   7.795   6.120   5.738
27314SOL     OW83875   7.598   6.723   7.001
27314SOL    HW183876   7.588   6.681   7.092
27314SOL    HW283877   7.592   6.652   6.931
27315SOL     OW83878   8.708   6.656   6.771
27315SOL    HW183879   8.695   6.578   6.710
27315SOL    HW283880   8.666   6.737   6.730
27316SOL     OW83881   8.763   6.492   5.821
27316SOL    HW183882   8.691   6.477   5.888
27316SOL    HW283883   8.741   6.445   5.736
27317SOL     OW83884   9.195   7.289   6.743
27317SOL    HW183885   9.269   7.323   6.685
27317SOL    HW283886   9.163   7.201   6.708
27318SOL     OW83887   8.721   7.357   6.712
27318SOL    HW183888   8.813   7.395   6.702
27318SOL    HW283889   8.726   7.257   6.711
27319SOL     OW83890   7.555   6.826   6.635
27319SOL    HW183891   7.517   6.842   6.726
27319SOL    HW283892   7.483   6.796   6.574
27320SOL     OW83893   8.098   7.279   7.359
27320SOL    HW183894   8.037   7.358   7.354
27320SOL    HW283895   8.173   7.290   7.294
27321SOL     OW83896   9.236   5.840   6.024
27321SOL    HW183897   9.293   5.813   5.947
27321SOL    HW283898   9.185   5.761   6.058
27322SOL     OW83899   8.851   7.149   6.079
27322SOL    HW183900   8.912   7.180   6.005
27322SOL    HW283901   8.790   7.224   6.105
27323SOL     OW83902   7.583   7.416   7.422
27323SOL    HW183903   7.543   7.326   7.444
27323SOL    HW283904   7.641   7.446   7.497
27324SOL     OW83905   8.748   6.493   6.282
27324SOL    HW183906   8.824   6.439   6.320
27324SOL    HW283907   8.785   6.568   6.227
27325SOL     OW83908   8.199   6.887   7.023
27325SOL    HW183909   8.172   6.937   7.105
27325SOL    HW283910   8.126   6.892   6.954
27326SOL     OW83911   8.113   7.218   5.755
27326SOL    HW183912   8.149   7.228   5.662
27326SOL    HW283913   8.059   7.134   5.760
27327SOL     OW83914   9.025   7.326   7.002
27327SOL    HW183915   9.082   7.314   6.920
27327SOL    HW283916   9.022   7.423   7.026
27328SOL     OW83917   9.271   5.770   6.581
27328SOL    HW183918   9.303   5.683   6.543
27328SOL    HW283919   9.183   5.794   6.539
27329SOL     OW83920   7.743   5.930   6.316
27329SOL    HW183921   7.649   5.961   6.304
27329SOL    HW283922   7.794   5.997   6.370
27330SOL     OW83923   8.660   7.162   5.638
27330SOL    HW183924   8.645   7.070   5.674
27330SOL    HW283925   8.594   7.181   5.566
27331SOL     OW83926   8.271   6.640   6.937
27331SOL    HW183927   8.276   6.654   6.838
27331SOL    HW283928   8.245   6.725   6.981
27332SOL     OW83929   8.411   6.514   5.912
27332SOL    HW183930   8.433   6.512   5.814
27332SOL    HW283931   8.436   6.426   5.953
27333SOL     OW83932   8.928   7.231   5.652
27333SOL    HW183933   8.832   7.206   5.640
27333SOL    HW283934   8.973   7.237   5.563
27334SOL     OW83935   7.798   6.907   7.052
27334SOL    HW183936   7.790   6.991   6.998
27334SOL    HW283937   7.728   6.842   7.023
27335SOL     OW83938   9.027   6.906   6.867
27335SOL    HW183939   9.085   6.878   6.944
27335SOL    HW283940   8.957   6.970   6.899
27336SOL     OW83941   8.572   6.671   6.399
27336SOL    HW183942   8.482   6.633   6.420
27336SOL    HW283943   8.627   6.602   6.353
27337SOL     OW83944   8.447   5.795   6.525
27337SOL    HW183945   8.455   5.763   6.430
27337SOL    HW283946   8.455   5.717   6.587
27338SOL     OW83947   8.053   7.070   6.115
27338SOL    HW183948   8.095   7.013   6.044
27338SOL    HW283949   7.954   7.073   6.101
27339SOL     OW83950   9.249   5.937   7.022
27339SOL    HW183951   9.287   6.021   6.983
27339SOL    HW283952   9.246   5.866   6.952
27340SOL     OW83953   7.752   6.920   5.881
27340SOL    HW183954   7.658   6.909   5.849
27340SOL    HW283955   7.754   6.982   5.959
27341SOL     OW83956   7.562   6.591   7.248
27341SOL    HW183957   7.485   6.565   7.306
27341SOL    HW283958   7.646   6.550   7.284
27342SOL     OW83959   8.116   5.729   7.034
27342SOL    HW183960   8.196   5.698   6.983
27342SOL    HW283961   8.144   5.792   7.107
27343SOL     OW83962   7.571   5.953   5.526
27343SOL    HW183963   7.478   5.933   5.494
27343SOL    HW283964   7.597   6.045   5.497
27344SOL     OW83965   8.844   6.485   6.931
27344SOL    HW183966   8.793   6.553   6.879
27344SOL    HW283967   8.937   6.479   6.895
27345SOL     OW83968   7.492   5.746   5.829
27345SOL    HW183969   7.466   5.813   5.760
27345SOL    HW283970   7.584   5.712   5.809
27346SOL     OW83971   8.604   6.909   5.734
27346SOL    HW183972   8.506   6.893   5.725
27346SOL    HW283973   8.630   6.906   5.830
27347SOL     OW83974   8.119   6.419   6.879
27347SOL    HW183975   8.167   6.500   6.912
27347SOL    HW283976   8.164   6.337   6.913
27348SOL     OW83977   8.975   7.450   6.682
27348SOL    HW183978   9.000   7.511   6.607
27348SOL    HW283979   9.055   7.396   6.710
27349SOL     OW83980   8.128   6.164   7.220
27349SOL    HW183981   8.191   6.222   7.273
27349SOL    HW283982   8.153   6.068   7.232
27350SOL     OW83983   8.972   6.738   7.239
27350SOL    HW183984   8.993   6.750   7.336
27350SOL    HW283985   9.041   6.787   7.185
27351SOL     OW83986   7.800   7.335   7.186
27351SOL    HW183987   7.717   7.387   7.165
27351SOL    HW283988   7.775   7.248   7.229
27352SOL     OW83989   9.080   6.487   6.793
27352SOL    HW183990   9.076   6.407   6.733
27352SOL    HW283991   9.072   6.570   6.739
27353SOL     OW83992   8.671   5.914   6.037
27353SOL    HW183993   8.731   5.834   6.037
27353SOL    HW283994   8.690   5.970   6.118
27354SOL     OW83995   7.966   6.319   6.274
27354SOL    HW183996   8.035   6.390   6.265
27354SOL    HW283997   7.915   6.312   6.188
27355SOL     OW83998   9.179   5.948   7.287
27355SOL    HW183999   9.201   5.952   7.190
27355SOL    HW284000   9.098   5.891   7.301
27356SOL     OW84001   9.220   6.481   7.033
27356SOL    HW184002   9.256   6.573   7.044
27356SOL    HW284003   9.175   6.473   6.944
27357SOL     OW84004   8.313   6.919   5.712
27357SOL    HW184005   8.270   6.914   5.802
27357SOL    HW284006   8.285   7.003   5.666
27358SOL     OW84007   8.123   7.287   6.552
27358SOL    HW184008   8.098   7.383   6.541
27358SOL    HW284009   8.223   7.279   6.553
27359SOL     OW84010   8.329   6.556   6.472
27359SOL    HW184011   8.359   6.464   6.497
27359SOL    HW284012   8.288   6.600   6.552
27360SOL     OW84013   8.479   6.494   5.651
27360SOL    HW184014   8.463   6.574   5.592
27360SOL    HW284015   8.563   6.448   5.623
27361SOL     OW84016   9.268   7.154   6.439
27361SOL    HW184017   9.200   7.150   6.366
27361SOL    HW284018   9.237   7.099   6.516
27362SOL     OW84019   7.652   6.830   7.383
27362SOL    HW184020   7.611   6.757   7.328
27362SOL    HW284021   7.601   6.840   7.468
27363SOL     OW84022   7.644   6.844   6.245
27363SOL    HW184023   7.663   6.800   6.332
27363SOL    HW284024   7.684   6.790   6.171
27364SOL     OW84025   8.105   7.022   7.238
27364SOL    HW184026   8.031   6.961   7.267
27364SOL    HW284027   8.097   7.109   7.286
27365SOL     OW84028   9.255   5.733   6.851
27365SOL    HW184029   9.325   5.661   6.859
27365SOL    HW284030   9.247   5.761   6.756
27366SOL     OW84031   7.845   6.011   6.072
27366SOL    HW184032   7.892   5.944   6.015
27366SOL    HW284033   7.814   5.968   6.157
27367SOL     OW84034   9.118   7.049   6.648
27367SOL    HW184035   9.039   7.041   6.587
27367SOL    HW284036   9.106   6.989   6.727
27368SOL     OW84037   8.263   7.208   6.238
27368SOL    HW184038   8.265   7.299   6.197
27368SOL    HW284039   8.183   7.158   6.205
27369SOL     OW84040   8.862   5.832   6.736
27369SOL    HW184041   8.896   5.740   6.718
27369SOL    HW284042   8.780   5.827   6.792
27370SOL     OW84043   8.470   5.555   6.662
27370SOL    HW184044   8.421   5.495   6.599
27370SOL    HW284045   8.566   5.526   6.668
27371SOL     OW84046   8.216   6.900   5.967
27371SOL    HW184047   8.202   6.802   5.983
27371SOL    HW284048   8.300   6.930   6.012
27372SOL     OW84049   8.051   7.180   6.870
27372SOL    HW184050   8.046   7.265   6.922
27372SOL    HW284051   8.139   7.174   6.824
27373SOL     OW84052   8.796   5.649   5.775
27373SOL    HW184053   8.848   5.574   5.735
27373SOL    HW284054   8.702   5.618   5.793
27374SOL     OW84055   8.715   6.047   6.272
27374SOL    HW184056   8.670   6.136   6.266
27374SOL    HW284057   8.684   6.000   6.355
27375SOL     OW84058   9.020   5.831   6.500
27375SOL    HW184059   8.960   5.856   6.577
27375SOL    HW284060   9.019   5.904   6.432
27376SOL     OW84061   7.492   6.593   5.891
27376SOL    HW184062   7.589   6.580   5.868
27376SOL    HW284063   7.450   6.504   5.909
27377SOL     OW84064   8.335   7.265   5.917
27377SOL    HW184065   8.255   7.243   5.861
27377SOL    HW284066   8.310   7.335   5.984
27378SOL     OW84067   7.642   6.240   7.620
27378SOL    HW184068   7.555   6.200   7.648
27378SOL    HW284069   7.646   6.247   7.521
27379SOL     OW84070   7.478   6.042   8.091
27379SOL    HW184071   7.409   6.067   8.159
27379SOL    HW284072   7.433   6.003   8.010
27380SOL     OW84073   8.039   6.881   8.658
27380SOL    HW184074   7.953   6.887   8.607
27380SOL    HW284075   8.058   6.969   8.701
27381SOL     OW84076   9.033   7.070   8.151
27381SOL    HW184077   8.979   7.036   8.228
27381SOL    HW284078   8.972   7.104   8.080
27382SOL     OW84079   9.241   6.164   7.672
27382SOL    HW184080   9.199   6.176   7.582
27382SOL    HW284081   9.186   6.102   7.727
27383SOL     OW84082   8.197   6.739   8.476
27383SOL    HW184083   8.134   6.765   8.550
27383SOL    HW284084   8.237   6.821   8.436
27384SOL     OW84085   8.353   6.276   9.272
27384SOL    HW184086   8.380   6.342   9.341
27384SOL    HW284087   8.341   6.323   9.184
27385SOL     OW84088   8.111   6.532   8.114
27385SOL    HW184089   8.192   6.549   8.171
27385SOL    HW284090   8.042   6.603   8.132
27386SOL     OW84091   8.052   6.719   9.319
27386SOL    HW184092   8.019   6.788   9.384
27386SOL    HW284093   8.011   6.737   9.229
27387SOL     OW84094   7.809   6.965   8.521
27387SOL    HW184095   7.728   6.926   8.477
27387SOL    HW284096   7.856   7.025   8.457
27388SOL     OW84097   8.906   7.110   8.809
27388SOL    HW184098   8.970   7.187   8.806
27388SOL    HW284099   8.832   7.130   8.874
27389SOL     OW84100   7.940   5.909   8.915
27389SOL    HW184101   8.032   5.869   8.924
27389SOL    HW284102   7.873   5.844   8.950
27390SOL     OW84103   8.974   5.979   8.090
27390SOL    HW184104   8.875   5.967   8.091
27390SOL    HW284105   8.996   6.076   8.095
27391SOL     OW84106   7.646   7.325   7.904
27391SOL    HW184107   7.660   7.393   7.976
27391SOL    HW284108   7.729   7.316   7.849
27392SOL     OW84109   8.489   6.885   9.221
27392SOL    HW184110   8.547   6.875   9.302
27392SOL    HW284111   8.427   6.806   9.214
27393SOL     OW84112   7.580   7.072   7.977
27393SOL    HW184113   7.600   7.168   7.958
27393SOL    HW284114   7.544   7.063   8.070
27394SOL     OW84115   7.780   6.668   8.377
27394SOL    HW184116   7.755   6.579   8.341
27394SOL    HW284117   7.698   6.718   8.403
27395SOL     OW84118   8.094   7.326   8.963
27395SOL    HW184119   8.006   7.353   9.002
27395SOL    HW284120   8.131   7.402   8.909
27396SOL     OW84121   8.011   6.600   7.671
27396SOL    HW184122   8.044   6.641   7.586
27396SOL    HW284123   8.074   6.622   7.745
27397SOL     OW84124   9.138   5.689   8.980
27397SOL    HW184125   9.175   5.767   8.929
27397SOL    HW284126   9.071   5.721   9.046
27398SOL     OW84127   7.584   6.280   8.024
27398SOL    HW184128   7.555   6.188   8.050
27398SOL    HW284129   7.570   6.343   8.101
27399SOL     OW84130   9.267   7.314   7.751
27399SOL    HW184131   9.340   7.301   7.819
27399SOL    HW284132   9.276   7.404   7.709
27400SOL     OW84133   7.496   7.170   7.515
27400SOL    HW184134   7.423   7.103   7.503
27400SOL    HW284135   7.480   7.221   7.599
27401SOL     OW84136   9.122   6.479   8.098
27401SOL    HW184137   9.206   6.481   8.152
27401SOL    HW284138   9.135   6.535   8.016
27402SOL     OW84139   9.149   6.669   7.895
27402SOL    HW184140   9.237   6.672   7.848
27402SOL    HW284141   9.150   6.731   7.973
27403SOL     OW84142   7.547   6.407   9.006
27403SOL    HW184143   7.623   6.462   9.043
27403SOL    HW284144   7.471   6.468   8.982
27404SOL     OW84145   8.084   6.953   8.184
27404SOL    HW184146   8.033   6.867   8.179
27404SOL    HW284147   8.095   6.991   8.093
27405SOL     OW84148   8.707   6.818   8.862
27405SOL    HW184149   8.706   6.725   8.826
27405SOL    HW284150   8.768   6.821   8.942
27406SOL     OW84151   8.249   5.675   7.967
27406SOL    HW184152   8.292   5.760   7.936
27406SOL    HW284153   8.150   5.684   7.962
27407SOL     OW84154   9.062   6.554   7.654
27407SOL    HW184155   8.976   6.505   7.671
27407SOL    HW284156   9.103   6.580   7.742
27408SOL     OW84157   8.777   7.475   9.021
27408SOL    HW184158   8.717   7.530   8.963
27408SOL    HW284159   8.765   7.378   8.999
27409SOL     OW84160   7.803   5.853   9.333
27409SOL    HW184161   7.847   5.929   9.381
27409SOL    HW284162   7.732   5.888   9.272
27410SOL     OW84163   8.909   6.956   8.372
27410SOL    HW184164   8.851   6.990   8.446
27410SOL    HW284165   8.883   6.862   8.349
27411SOL     OW84166   9.064   7.460   7.964
27411SOL    HW184167   9.047   7.395   7.891
27411SOL    HW284168   9.074   7.411   8.051
27412SOL     OW84169   8.014   6.332   7.742
27412SOL    HW184170   8.015   6.426   7.708
27412SOL    HW284171   7.959   6.327   7.825
27413SOL     OW84172   8.712   5.968   8.374
27413SOL    HW184173   8.630   5.911   8.377
27413SOL    HW284174   8.778   5.934   8.440
27414SOL     OW84175   9.000   7.284   7.753
27414SOL    HW184176   9.100   7.284   7.746
27414SOL    HW284177   8.961   7.289   7.661
27415SOL     OW84178   8.299   6.126   8.881
27415SOL    HW184179   8.261   6.104   8.971
27415SOL    HW284180   8.258   6.066   8.812
27416SOL     OW84181   8.812   6.052   9.121
27416SOL    HW184182   8.810   6.109   9.203
27416SOL    HW284183   8.875   5.975   9.135
27417SOL     OW84184   8.352   6.447   9.053
27417SOL    HW184185   8.424   6.398   9.004
27417SOL    HW284186   8.282   6.476   8.988
27418SOL     OW84187   8.467   5.945   8.623
27418SOL    HW184188   8.372   5.959   8.651
27418SOL    HW284189   8.470   5.896   8.537
27419SOL     OW84190   7.536   6.447   8.233
27419SOL    HW184191   7.622   6.416   8.275
27419SOL    HW284192   7.483   6.497   8.301
27420SOL     OW84193   7.594   7.464   9.022
27420SOL    HW184194   7.582   7.426   9.113
27420SOL    HW284195   7.520   7.433   8.962
27421SOL     OW84196   8.291   5.981   7.643
27421SOL    HW184197   8.362   6.025   7.587
27421SOL    HW284198   8.242   5.914   7.588
27422SOL     OW84199   9.079   6.180   9.275
27422SOL    HW184200   9.081   6.267   9.225
27422SOL    HW284201   9.117   6.108   9.217
27423SOL     OW84202   8.760   6.710   7.861
27423SOL    HW184203   8.844   6.704   7.914
27423SOL    HW284204   8.731   6.805   7.854
27424SOL     OW84205   7.997   5.744   8.369
27424SOL    HW184206   8.007   5.756   8.468
27424SOL    HW284207   7.995   5.833   8.324
27425SOL     OW84208   8.461   7.095   7.900
27425SOL    HW184209   8.431   7.163   7.834
27425SOL    HW284210   8.423   7.117   7.990
27426SOL     OW84211   7.847   7.363   8.291
27426SOL    HW184212   7.885   7.273   8.310
27426SOL    HW284213   7.914   7.433   8.315
27427SOL     OW84214   9.227   6.710   8.355
27427SOL    HW184215   9.190   6.747   8.270
27427SOL    HW284216   9.153   6.696   8.421
27428SOL     OW84217   8.705   7.208   8.969
27428SOL    HW184218   8.693   7.166   9.059
27428SOL    HW284219   8.617   7.208   8.921
27429SOL     OW84220   7.743   6.543   7.748
27429SOL    HW184221   7.833   6.571   7.714
27429SOL    HW284222   7.724   6.449   7.719
27430SOL     OW84223   8.984   6.252   8.103
27430SOL    HW184224   8.951   6.234   8.196
27430SOL    HW284225   9.036   6.337   8.101
27431SOL     OW84226   7.920   6.827   9.101
27431SOL    HW184227   7.880   6.819   9.009
27431SOL    HW284228   7.851   6.863   9.164
27432SOL     OW84229   8.579   7.408   7.665
27432SOL    HW184230   8.491   7.385   7.707
27432SOL    HW284231   8.602   7.339   7.597
27433SOL     OW84232   7.714   5.762   8.977
27433SOL    HW184233   7.684   5.833   9.041
27433SOL    HW284234   7.664   5.678   8.995
27434SOL     OW84235   7.893   7.352   7.788
27434SOL    HW184236   7.941   7.403   7.859
27434SOL    HW284237   7.960   7.302   7.733
27435SOL     OW84238   8.821   5.721   7.949
27435SOL    HW184239   8.828   5.694   7.853
27435SOL    HW284240   8.899   5.685   8.001
27436SOL     OW84241   7.713   7.344   8.642
27436SOL    HW184242   7.758   7.269   8.691
27436SOL    HW284243   7.674   7.309   8.557
27437SOL     OW84244   8.398   7.299   8.296
27437SOL    HW184245   8.486   7.251   8.292
27437SOL    HW284246   8.340   7.269   8.221
27438SOL     OW84247   7.841   6.243   7.941
27438SOL    HW184248   7.842   6.167   7.875
27438SOL    HW284249   7.746   6.262   7.967
27439SOL     OW84250   8.954   5.807   9.160
27439SOL    HW184251   8.964   5.819   9.259
27439SOL    HW284252   8.876   5.748   9.142
27440SOL     OW84253   8.152   5.766   7.500
27440SOL    HW184254   8.241   5.745   7.460
27440SOL    HW284255   8.087   5.695   7.473
27441SOL     OW84256   8.240   5.806   9.212
27441SOL    HW184257   8.325   5.753   9.211
27441SOL    HW284258   8.184   5.778   9.290
27442SOL     OW84259   8.330   7.081   8.642
27442SOL    HW184260   8.301   7.069   8.547
27442SOL    HW284261   8.388   7.003   8.668
27443SOL     OW84262   8.751   6.174   8.888
27443SOL    HW184263   8.775   6.130   8.975
27443SOL    HW284264   8.800   6.260   8.880
27444SOL     OW84265   8.281   6.979   8.378
27444SOL    HW184266   8.372   6.972   8.337
27444SOL    HW284267   8.212   6.979   8.306
27445SOL     OW84268   8.327   6.117   8.312
27445SOL    HW184269   8.307   6.119   8.214
27445SOL    HW284270   8.372   6.031   8.336
27446SOL     OW84271   7.978   5.697   7.931
27446SOL    HW184272   7.898   5.708   7.991
27446SOL    HW284273   7.969   5.757   7.852
27447SOL     OW84274   7.757   5.638   7.672
27447SOL    HW184275   7.819   5.715   7.666
27447SOL    HW284276   7.793   5.571   7.737
27448SOL     OW84277   8.379   5.895   7.887
27448SOL    HW184278   8.349   5.926   7.796
27448SOL    HW284279   8.478   5.906   7.895
27449SOL     OW84280   8.504   6.294   8.876
27449SOL    HW184281   8.431   6.225   8.882
27449SOL    HW284282   8.592   6.248   8.880
27450SOL     OW84283   8.645   7.192   8.244
27450SOL    HW184284   8.675   7.250   8.169
27450SOL    HW284285   8.690   7.221   8.329
27451SOL     OW84286   7.926   6.732   8.156
27451SOL    HW184287   7.879   6.716   8.243
27451SOL    HW284288   7.859   6.735   8.082
27452SOL     OW84289   8.710   7.388   8.060
27452SOL    HW184290   8.748   7.449   7.991
27452SOL    HW284291   8.644   7.439   8.116
27453SOL     OW84292   8.498   6.128   7.533
27453SOL    HW184293   8.479   6.224   7.515
27453SOL    HW284294   8.573   6.119   7.598
27454SOL     OW84295   7.522   6.180   8.861
27454SOL    HW184296   7.618   6.151   8.849
27454SOL    HW284297   7.519   6.267   8.909
27455SOL     OW84298   8.009   5.769   8.641
27455SOL    HW184299   8.041   5.689   8.692
27455SOL    HW284300   7.916   5.791   8.669
27456SOL     OW84301   8.294   6.104   8.045
27456SOL    HW184302   8.277   6.170   7.972
27456SOL    HW284303   8.323   6.017   8.006
27457SOL     OW84304   8.430   5.642   8.174
27457SOL    HW184305   8.363   5.660   8.102
27457SOL    HW284306   8.401   5.564   8.229
27458SOL     OW84307   8.915   6.179   8.354
27458SOL    HW184308   8.835   6.122   8.373
27458SOL    HW284309   8.968   6.191   8.439
27459SOL     OW84310   9.297   6.389   7.822
27459SOL    HW184311   9.347   6.362   7.904
27459SOL    HW284312   9.270   6.306   7.771
27460SOL     OW84313   7.956   7.034   7.706
27460SOL    HW184314   7.863   7.001   7.724
27460SOL    HW284315   8.001   6.972   7.642
27461SOL     OW84316   9.178   6.833   8.111
27461SOL    HW184317   9.276   6.840   8.091
27461SOL    HW284318   9.139   6.925   8.114
27462SOL     OW84319   8.843   6.177   7.480
27462SOL    HW184320   8.805   6.134   7.561
27462SOL    HW284321   8.943   6.171   7.483
27463SOL     OW84322   7.950   5.837   7.699
27463SOL    HW184323   8.021   5.824   7.629
27463SOL    HW284324   7.917   5.931   7.696
27464SOL     OW84325   9.181   6.831   8.979
27464SOL    HW184326   9.274   6.793   8.971
27464SOL    HW284327   9.186   6.923   9.016
27465SOL     OW84328   8.480   6.867   8.722
27465SOL    HW184329   8.397   6.836   8.768
27465SOL    HW284330   8.558   6.858   8.784
27466SOL     OW84331   9.059   7.256   9.083
27466SOL    HW184332   9.047   7.291   8.990
27466SOL    HW284333   9.133   7.188   9.083
27467SOL     OW84334   8.592   6.783   8.484
27467SOL    HW184335   8.538   6.806   8.565
27467SOL    HW284336   8.564   6.841   8.408
27468SOL     OW84337   9.029   6.680   8.546
27468SOL    HW184338   9.028   6.751   8.616
27468SOL    HW284339   8.934   6.657   8.521
27469SOL     OW84340   8.394   5.625   8.831
27469SOL    HW184341   8.408   5.605   8.734
27469SOL    HW284342   8.473   5.676   8.866
27470SOL     OW84343   8.325   6.660   9.235
27470SOL    HW184344   8.230   6.680   9.257
27470SOL    HW284345   8.328   6.590   9.163
27471SOL     OW84346   8.201   6.631   7.870
27471SOL    HW184347   8.166   6.595   7.957
27471SOL    HW284348   8.271   6.570   7.834
27472SOL     OW84349   8.706   5.945   8.745
27472SOL    HW184350   8.723   6.031   8.793
27472SOL    HW284351   8.617   5.949   8.700
27473SOL     OW84352   7.545   7.130   8.825
27473SOL    HW184353   7.510   7.213   8.867
27473SOL    HW284354   7.644   7.137   8.814
27474SOL     OW84355   7.733   6.735   7.956
27474SOL    HW184356   7.733   6.815   7.896
27474SOL    HW284357   7.738   6.652   7.900
27475SOL     OW84358   8.700   6.986   7.829
27475SOL    HW184359   8.768   7.042   7.877
27475SOL    HW284360   8.608   7.016   7.855
27476SOL     OW84361   8.766   7.033   8.591
27476SOL    HW184362   8.818   7.057   8.673
27476SOL    HW284363   8.694   6.967   8.615
27477SOL     OW84364   8.890   6.247   7.843
27477SOL    HW184365   8.916   6.255   7.940
27477SOL    HW284366   8.865   6.337   7.808
27478SOL     OW84367   7.812   7.106   8.751
27478SOL    HW184368   7.803   7.056   8.665
27478SOL    HW284369   7.909   7.121   8.771
27479SOL     OW84370   9.087   6.421   9.156
27479SOL    HW184371   8.994   6.456   9.150
27479SOL    HW284372   9.138   6.447   9.074
27480SOL     OW84373   8.469   5.667   9.210
27480SOL    HW184374   8.521   5.752   9.201
27480SOL    HW284375   8.522   5.591   9.174
27481SOL     OW84376   7.943   5.629   9.244
27481SOL    HW184377   7.899   5.574   9.174
27481SOL    HW284378   7.890   5.711   9.262
27482SOL     OW84379   8.106   6.471   8.477
27482SOL    HW184380   8.149   6.561   8.473
27482SOL    HW284381   8.014   6.480   8.515
27483SOL     OW84382   8.705   6.101   7.710
27483SOL    HW184383   8.675   6.029   7.772
27483SOL    HW284384   8.766   6.164   7.759
27484SOL     OW84385   7.738   5.785   8.704
27484SOL    HW184386   7.734   5.792   8.804
27484SOL    HW284387   7.714   5.692   8.676
27485SOL     OW84388   7.474   6.913   8.687
27485SOL    HW184389   7.474   6.841   8.757
27485SOL    HW284390   7.500   7.000   8.729
27486SOL     OW84391   8.182   6.215   8.524
27486SOL    HW184392   8.223   6.174   8.442
27486SOL    HW284393   8.147   6.306   8.501
27487SOL     OW84394   9.196   6.576   9.354
27487SOL    HW184395   9.161   6.512   9.285
27487SOL    HW284396   9.121   6.608   9.412
27488SOL     OW84397   7.743   5.693   8.085
27488SOL    HW184398   7.700   5.780   8.109
27488SOL    HW284399   7.763   5.642   8.168
27489SOL     OW84400   9.032   6.018   7.800
27489SOL    HW184401   9.030   5.975   7.890
27489SOL    HW284402   8.981   6.104   7.804
27490SOL     OW84403   8.425   6.363   8.381
27490SOL    HW184404   8.407   6.377   8.478
27490SOL    HW284405   8.388   6.274   8.353
27491SOL     OW84406   8.453   7.138   9.134
27491SOL    HW184407   8.445   7.153   9.035
27491SOL    HW284408   8.460   7.040   9.152
27492SOL     OW84409   9.272   7.088   9.034
27492SOL    HW184410   9.295   7.109   8.939
27492SOL    HW284411   9.354   7.098   9.090
27493SOL     OW84412   7.768   6.521   9.123
27493SOL    HW184413   7.811   6.481   9.204
27493SOL    HW284414   7.835   6.523   9.048
27494SOL     OW84415   8.956   5.847   7.582
27494SOL    HW184416   8.912   5.769   7.627
27494SOL    HW284417   8.987   5.912   7.651
27495SOL     OW84418   8.736   6.424   7.448
27495SOL    HW184419   8.771   6.331   7.459
27495SOL    HW284420   8.767   6.462   7.361
27496SOL     OW84421   8.528   6.943   8.274
27496SOL    HW184422   8.525   6.881   8.196
27496SOL    HW284423   8.579   7.026   8.248
27497SOL     OW84424   7.777   6.393   8.339
27497SOL    HW184425   7.846   6.347   8.283
27497SOL    HW284426   7.810   6.401   8.433
27498SOL     OW84427   8.585   5.908   9.158
27498SOL    HW184428   8.530   5.953   9.229
27498SOL    HW284429   8.664   5.965   9.136
27499SOL     OW84430   8.615   5.756   8.927
27499SOL    HW184431   8.593   5.811   9.007
27499SOL    HW284432   8.654   5.815   8.856
27500SOL     OW84433   7.497   6.847   7.609
27500SOL    HW184434   7.414   6.899   7.586
27500SOL    HW284435   7.472   6.765   7.659
27501SOL     OW84436   7.629   7.236   8.406
27501SOL    HW184437   7.561   7.195   8.345
27501SOL    HW284438   7.698   7.285   8.352
27502SOL     OW84439   7.962   7.123   8.358
27502SOL    HW184440   8.034   7.182   8.396
27502SOL    HW284441   8.002   7.059   8.292
27503SOL     OW84442   8.361   6.384   8.661
27503SOL    HW184443   8.416   6.348   8.737
27503SOL    HW284444   8.294   6.315   8.634
27504SOL     OW84445   7.452   6.125   8.607
27504SOL    HW184446   7.531   6.076   8.571
27504SOL    HW284447   7.470   6.153   8.701
27505SOL     OW84448   7.705   6.201   9.110
27505SOL    HW184449   7.776   6.187   9.042
27505SOL    HW284450   7.643   6.274   9.080
27506SOL     OW84451   8.841   6.528   9.113
27506SOL    HW184452   8.849   6.626   9.099
27506SOL    HW284453   8.838   6.482   9.025
27507SOL     OW84454   8.254   6.215   7.790
27507SOL    HW184455   8.263   6.130   7.739
27507SOL    HW284456   8.165   6.257   7.770
27508SOL     OW84457   9.066   6.195   8.586
27508SOL    HW184458   9.034   6.111   8.629
27508SOL    HW284459   9.164   6.188   8.568
27509SOL     OW84460   7.779   7.172   9.191
27509SOL    HW184461   7.699   7.225   9.220
27509SOL    HW284462   7.760   7.074   9.201
27510SOL     OW84463   8.199   5.980   8.671
27510SOL    HW184464   8.127   5.911   8.661
27510SOL    HW284465   8.174   6.062   8.618
27511SOL     OW84466   8.450   7.216   8.861
27511SOL    HW184467   8.408   7.165   8.786
27511SOL    HW284468   8.438   7.314   8.844
27512SOL     OW84469   7.867   6.100   7.696
27512SOL    HW184470   7.938   6.171   7.691
27512SOL    HW284471   7.780   6.138   7.664
27513SOL     OW84472   7.498   6.757   8.917
27513SOL    HW184473   7.529   6.755   9.012
27513SOL    HW284474   7.434   6.683   8.901
27514SOL     OW84475   8.680   6.574   8.737
27514SOL    HW184476   8.715   6.588   8.644
27514SOL    HW284477   8.588   6.535   8.733
27515SOL     OW84478   8.809   6.475   7.717
27515SOL    HW184479   8.771   6.554   7.765
27515SOL    HW284480   8.764   6.466   7.628
27516SOL     OW84481   9.213   7.269   8.583
27516SOL    HW184482   9.285   7.299   8.520
27516SOL    HW284483   9.183   7.177   8.557
27517SOL     OW84484   8.745   7.283   8.480
27517SOL    HW184485   8.835   7.327   8.475
27517SOL    HW284486   8.753   7.195   8.527
27518SOL     OW84487   7.560   6.802   8.452
27518SOL    HW184488   7.535   6.847   8.537
27518SOL    HW284489   7.485   6.742   8.423
27519SOL     OW84490   8.190   7.197   9.193
27519SOL    HW184491   8.152   7.247   9.115
27519SOL    HW284492   8.289   7.187   9.181
27520SOL     OW84493   8.861   7.174   7.957
27520SOL    HW184494   8.910   7.209   7.878
27520SOL    HW284495   8.800   7.244   7.993
27521SOL     OW84496   7.576   7.339   9.266
27521SOL    HW184497   7.523   7.269   9.314
27521SOL    HW284498   7.624   7.396   9.333
27522SOL     OW84499   8.237   6.808   8.835
27522SOL    HW184500   8.221   6.857   8.921
27522SOL    HW284501   8.164   6.829   8.771
27523SOL     OW84502   8.102   7.252   7.628
27523SOL    HW184503   8.110   7.255   7.528
27523SOL    HW284504   8.061   7.165   7.656
27524SOL     OW84505   9.065   7.332   8.810
27524SOL    HW184506   9.124   7.314   8.731
27524SOL    HW284507   9.042   7.429   8.813
27525SOL     OW84508   9.318   5.776   8.369
27525SOL    HW184509   9.331   5.677   8.355
27525SOL    HW284510   9.225   5.801   8.345
27526SOL     OW84511   8.637   7.214   7.488
27526SOL    HW184512   8.665   7.123   7.519
27526SOL    HW284513   8.546   7.207   7.446
27527SOL     OW84514   8.199   6.540   8.848
27527SOL    HW184515   8.245   6.493   8.772
27527SOL    HW284516   8.218   6.638   8.844
27528SOL     OW84517   8.378   6.459   7.768
27528SOL    HW184518   8.420   6.463   7.678
27528SOL    HW284519   8.346   6.366   7.786
27529SOL     OW84520   8.901   7.310   7.491
27529SOL    HW184521   8.808   7.277   7.474
27529SOL    HW284522   8.959   7.287   7.413
27530SOL     OW84523   7.765   6.851   8.877
27530SOL    HW184524   7.773   6.943   8.839
27530SOL    HW284525   7.669   6.823   8.879
27531SOL     OW84526   9.048   6.881   8.739
27531SOL    HW184527   9.100   6.852   8.819
27531SOL    HW284528   8.987   6.956   8.765
27532SOL     OW84529   8.495   6.741   8.095
27532SOL    HW184530   8.432   6.687   8.151
27532SOL    HW284531   8.534   6.683   8.023
27533SOL     OW84532   8.493   5.793   8.396
27533SOL    HW184533   8.475   5.757   8.304
27533SOL    HW284534   8.486   5.719   8.463
27534SOL     OW84535   8.115   7.050   7.931
27534SOL    HW184536   8.183   6.991   7.888
27534SOL    HW284537   8.037   7.061   7.870
27535SOL     OW84538   9.271   5.926   8.863
27535SOL    HW184539   9.320   6.010   8.840
27535SOL    HW284540   9.258   5.871   8.780
27536SOL     OW84541   7.702   6.941   7.774
27536SOL    HW184542   7.635   6.915   7.705
27536SOL    HW284543   7.657   6.994   7.846
27537SOL     OW84544   7.563   6.696   9.176
27537SOL    HW184545   7.494   6.655   9.237
27537SOL    HW284546   7.640   6.633   9.166
27538SOL     OW84547   8.172   5.751   8.951
27538SOL    HW184548   8.254   5.721   8.903
27538SOL    HW284549   8.196   5.779   9.044
27539SOL     OW84550   7.577   5.969   7.441
27539SOL    HW184551   7.493   5.958   7.388
27539SOL    HW284552   7.618   6.059   7.420
27540SOL     OW84553   8.861   6.422   8.864
27540SOL    HW184554   8.790   6.477   8.820
27540SOL    HW284555   8.945   6.427   8.810
27541SOL     OW84556   7.516   5.749   7.599
27541SOL    HW184557   7.535   5.840   7.563
27541SOL    HW284558   7.601   5.707   7.629
27542SOL     OW84559   8.991   7.394   8.463
27542SOL    HW184560   9.013   7.487   8.433
27542SOL    HW284561   9.070   7.355   8.510
27543SOL     OW84562   8.218   6.070   9.132
27543SOL    HW184563   8.254   6.135   9.199
27543SOL    HW284564   8.226   5.977   9.167
27544SOL     OW84565   8.889   6.794   9.078
27544SOL    HW184566   8.866   6.815   9.172
27544SOL    HW284567   8.985   6.817   9.061
27545SOL     OW84568   7.862   7.403   9.083
27545SOL    HW184569   7.777   7.437   9.043
27545SOL    HW284570   7.847   7.314   9.125
27546SOL     OW84571   9.077   6.449   8.698
27546SOL    HW184572   9.076   6.362   8.650
27546SOL    HW284573   9.072   6.524   8.632
27547SOL     OW84574   8.647   5.933   7.919
27547SOL    HW184575   8.708   5.855   7.933
27547SOL    HW284576   8.657   5.997   7.995
27548SOL     OW84577   7.969   6.276   8.180
27548SOL    HW184578   8.038   6.348   8.169
27548SOL    HW284579   7.927   6.257   8.091
27549SOL     OW84580   9.174   5.969   9.125
27549SOL    HW184581   9.207   5.967   9.030
27549SOL    HW284582   9.094   5.910   9.133
27550SOL     OW84583   9.203   6.521   8.931
27550SOL    HW184584   9.185   6.619   8.943
27550SOL    HW284585   9.165   6.491   8.843
27551SOL     OW84586   8.206   6.966   7.555
27551SOL    HW184587   8.247   6.944   7.643
27551SOL    HW284588   8.265   7.031   7.506
27552SOL     OW84589   8.150   7.306   8.419
27552SOL    HW184590   8.117   7.397   8.393
27552SOL    HW284591   8.245   7.296   8.388
27553SOL     OW84592   8.330   6.598   8.270
27553SOL    HW184593   8.366   6.511   8.304
27553SOL    HW284594   8.288   6.649   8.346
27554SOL     OW84595   8.475   6.466   7.511
27554SOL    HW184596   8.445   6.553   7.472
27554SOL    HW284597   8.572   6.452   7.489
27555SOL     OW84598   9.268   7.121   8.283
27555SOL    HW184599   9.186   7.119   8.227
27555SOL    HW284600   9.252   7.068   8.367
27556SOL     OW84601   7.709   6.913   9.249
27556SOL    HW184602   7.647   6.842   9.216
27556SOL    HW284603   7.692   6.929   9.347
27557SOL     OW84604   7.501   6.791   8.114
27557SOL    HW184605   7.529   6.772   8.208
27557SOL    HW284606   7.578   6.776   8.052
27558SOL     OW84607   8.161   6.944   9.059
27558SOL    HW184608   8.072   6.902   9.074
27558SOL    HW284609   8.167   7.030   9.109
27559SOL     OW84610   9.245   5.758   8.650
27559SOL    HW184611   9.226   5.660   8.649
27559SOL    HW284612   9.270   5.788   8.558
27560SOL     OW84613   9.139   7.018   8.511
27560SOL    HW184614   9.059   6.997   8.455
27560SOL    HW284615   9.137   6.962   8.594
27561SOL     OW84616   7.775   6.101   8.819
27561SOL    HW184617   7.846   6.040   8.855
27561SOL    HW284618   7.756   6.077   8.724
27562SOL     OW84619   8.268   7.228   8.073
27562SOL    HW184620   8.259   7.318   8.032
27562SOL    HW284621   8.206   7.164   8.028
27563SOL     OW84622   8.891   5.875   8.556
27563SOL    HW184623   8.911   5.777   8.557
27563SOL    HW284624   8.830   5.897   8.633
27564SOL     OW84625   8.472   5.568   8.559
27564SOL    HW184626   8.411   5.502   8.516
27564SOL    HW284627   8.567   5.538   8.546
27565SOL     OW84628   8.287   6.885   7.803
27565SOL    HW184629   8.264   6.791   7.831
27565SOL    HW284630   8.373   6.912   7.847
27566SOL     OW84631   8.088   7.127   8.771
27566SOL    HW184632   8.094   7.192   8.847
27566SOL    HW284633   8.175   7.125   8.722
27567SOL     OW84634   8.842   5.623   7.695
27567SOL    HW184635   8.913   5.554   7.709
27567SOL    HW284636   8.768   5.584   7.640
27568SOL     OW84637   8.692   6.094   8.134
27568SOL    HW184638   8.683   6.193   8.147
27568SOL    HW284639   8.695   6.049   8.223
27569SOL     OW84640   9.057   5.839   8.323
27569SOL    HW184641   9.004   5.881   8.397
27569SOL    HW284642   9.033   5.881   8.236
27570SOL     OW84643   7.470   6.612   7.769
27570SOL    HW184644   7.569   6.607   7.758
27570SOL    HW284645   7.434   6.522   7.791
27571SOL     OW84646   8.341   7.306   7.762
27571SOL    HW184647   8.264   7.278   7.704
27571SOL    HW284648   8.308   7.371   7.831
27572SOL     OW84649   7.699   6.166   9.383
27572SOL    HW184650   7.606   6.175   9.418
27572SOL    HW284651   7.701   6.187   9.285
27573SOL     OW84652   9.200   6.208   9.509
27573SOL    HW184653   9.153   6.214   9.421
27573SOL    HW284654   9.183   6.119   9.550
27574SOL     OW84655   7.683   7.329   9.737
27574SOL    HW184656   7.699   7.393   9.812
27574SOL    HW284657   7.760   7.334   9.673
27575SOL     OW84658   7.692   7.061   9.756
27575SOL    HW184659   7.683   7.161   9.752
27575SOL    HW284660   7.645   7.026   9.837
27576SOL     OW84661   8.051   6.565   9.554
27576SOL    HW184662   8.048   6.600   9.461
27576SOL    HW284663   8.126   6.610   9.604
27577SOL     OW84664   7.537   6.302   9.861
27577SOL    HW184665   7.447   6.276   9.827
27577SOL    HW284666   7.528   6.369   9.935
27578SOL     OW84667   9.265   7.370   9.633
27578SOL    HW184668   9.339   7.337   9.693
27578SOL    HW284669   9.293   7.456   9.590
27579SOL     OW84670   7.461   7.155   9.427
27579SOL    HW184671   7.429   7.062   9.443
27579SOL    HW284672   7.446   7.210   9.509
27580SOL     OW84673   9.048   6.460   9.888
27580SOL    HW184674   9.112   6.464   9.965
27580SOL    HW284675   9.059   6.540   9.830
27581SOL     OW84676   9.130   6.683   9.734
27581SOL    HW184677   9.229   6.685   9.721
27581SOL    HW284678   9.107   6.730   9.820
27582SOL     OW84679   8.047   6.884   0.001
27582SOL    HW184680   8.018   6.792   0.028
27582SOL    HW284681   8.011   6.905   9.910
27583SOL     OW84682   8.261   5.615   9.840
27583SOL    HW184683   8.316   5.691   9.806
27583SOL    HW284684   8.164   5.640   9.839
27584SOL     OW84685   8.977   6.650   9.516
27584SOL    HW184686   8.888   6.613   9.545
27584SOL    HW284687   9.034   6.665   9.597
27585SOL     OW84688   8.025   6.295   9.639
27585SOL    HW184689   8.040   6.387   9.602
27585SOL    HW284690   7.950   6.298   9.706
27586SOL     OW84691   9.006   7.297   9.588
27586SOL    HW184692   9.104   7.314   9.602
27586SOL    HW284693   8.990   7.266   9.494
27587SOL     OW84694   8.493   6.255   9.747
27587SOL    HW184695   8.535   6.220   9.831
27587SOL    HW284696   8.401   6.217   9.737
27588SOL     OW84697   7.489   6.472   0.066
27588SOL    HW184698   7.477   6.426   0.154
27588SOL    HW284699   7.540   6.557   0.079
27589SOL     OW84700   8.288   5.930   9.533
27589SOL    HW184701   8.351   5.966   9.464
27589SOL    HW284702   8.226   5.865   9.490
27590SOL     OW84703   8.819   6.749   9.801
27590SOL    HW184704   8.786   6.682   9.735
27590SOL    HW284705   8.781   6.839   9.780
27591SOL     OW84706   8.509   7.058   9.948
27591SOL    HW184707   8.479   7.132   9.887
27591SOL    HW284708   8.431   7.024   9.999
27592SOL     OW84709   7.848   7.459   0.179
27592SOL    HW184710   7.858   7.383   0.243
27592SOL    HW284711   7.936   7.504   0.167
27593SOL     OW84712   7.788   6.581   9.664
27593SOL    HW184713   7.877   6.570   9.622
27593SOL    HW284714   7.726   6.511   9.630
27594SOL     OW84715   8.645   7.416   9.462
27594SOL    HW184716   8.625   7.477   9.385
27594SOL    HW284717   8.649   7.321   9.430
27595SOL     OW84718   9.051   6.984   9.335
27595SOL    HW184719   9.021   7.079   9.329
27595SOL    HW284720   8.971   6.923   9.336
27596SOL     OW84721   7.912   7.335   9.572
27596SOL    HW184722   7.958   7.386   9.645
27596SOL    HW284723   7.977   7.275   9.526
27597SOL     OW84724   8.882   5.747   9.758
27597SOL    HW184725   8.870   5.701   9.671
27597SOL    HW284726   8.980   5.763   9.774
27598SOL     OW84727   7.818   6.281   9.824
27598SOL    HW184728   7.842   6.184   9.835
27598SOL    HW284729   7.719   6.291   9.828
27599SOL     OW84730   8.118   5.706   9.444
27599SOL    HW184731   8.174   5.627   9.470
27599SOL    HW284732   8.046   5.676   9.382
27600SOL     OW84733   7.987   5.681   9.852
27600SOL    HW184734   7.894   5.670   9.887
27600SOL    HW284735   7.988   5.750   9.780
27601SOL     OW84736   8.836   6.822   9.350
27601SOL    HW184737   8.884   6.754   9.406
27601SOL    HW284738   8.758   6.858   9.402
27602SOL     OW84739   7.702   5.654   9.491
27602SOL    HW184740   7.739   5.731   9.440
27602SOL    HW284741   7.775   5.608   9.541
27603SOL     OW84742   8.405   5.829   9.757
27603SOL    HW184743   8.365   5.864   9.672
27603SOL    HW284744   8.504   5.846   9.757
27604SOL     OW84745   8.745   7.457   9.888
27604SOL    HW184746   8.804   7.533   9.861
27604SOL    HW284747   8.659   7.462   9.838
27605SOL     OW84748   8.469   6.048   9.364
27605SOL    HW184749   8.430   6.133   9.328
27605SOL    HW284750   8.539   6.070   9.433
27606SOL     OW84751   8.328   6.005   9.950
27606SOL    HW184752   8.274   6.072   9.899
27606SOL    HW284753   8.355   5.931   9.888
27607SOL     OW84754   9.389   6.418   9.605
27607SOL    HW184755   9.387   6.377   9.696
27607SOL    HW284756   9.319   6.376   9.548
27608SOL     OW84757   7.939   6.919   9.479
27608SOL    HW184758   7.839   6.919   9.484
27608SOL    HW284759   7.971   7.009   9.451
27609SOL     OW84760   8.808   6.188   9.358
27609SOL    HW184761   8.765   6.150   9.440
27609SOL    HW284762   8.907   6.175   9.363
27610SOL     OW84763   7.986   5.851   9.646
27610SOL    HW184764   8.033   5.796   9.578
27610SOL    HW284765   7.953   5.936   9.604
27611SOL     OW84766   8.274   6.711   9.681
27611SOL    HW184767   8.249   6.729   9.776
27611SOL    HW284768   8.345   6.641   9.678
27612SOL     OW84769   7.760   6.748   9.878
27612SOL    HW184770   7.827   6.815   9.845
27612SOL    HW284771   7.757   6.670   9.816
27613SOL     OW84772   8.714   7.001   9.754
27613SOL    HW184773   8.779   7.074   9.773
27613SOL    HW284774   8.640   7.004   9.821
27614SOL     OW84775   9.109   6.227   9.767
27614SOL    HW184776   9.069   6.306   9.814
27614SOL    HW284777   9.124   6.249   9.671
27615SOL     OW84778   8.647   6.107   9.569
27615SOL    HW184779   8.663   6.028   9.628
27615SOL    HW284780   8.599   6.178   9.620
27616SOL     OW84781   7.737   5.649   9.954
27616SOL    HW184782   7.667   5.720   9.967
27616SOL    HW284783   7.757   5.607   0.043
27617SOL     OW84784   9.101   5.982   9.640
27617SOL    HW184785   9.136   5.902   9.688
27617SOL    HW284786   9.082   6.055   9.706
27618SOL     OW84787   8.969   5.849   9.424
27618SOL    HW184788   8.919   5.772   9.463
27618SOL    HW284789   9.013   5.901   9.497
27619SOL     OW84790   8.723   6.448   9.346
27619SOL    HW184791   8.748   6.351   9.352
27619SOL    HW284792   8.762   6.487   9.262
27620SOL     OW84793   7.395   6.888   9.472
27620SOL    HW184794   7.309   6.870   9.425
27620SOL    HW284795   7.419   6.808   9.528
27621SOL     OW84796   8.245   6.142   9.712
27621SOL    HW184797   8.251   6.067   9.647
27621SOL    HW284798   8.166   6.200   9.690
27622SOL     OW84799   7.913   6.072   9.509
27622SOL    HW184800   7.966   6.147   9.549
27622SOL    HW284801   7.831   6.109   9.466
27623SOL     OW84802   8.726   6.574   9.592
27623SOL    HW184803   8.637   6.563   9.637
27623SOL    HW284804   8.724   6.527   9.504
27624SOL     OW84805   9.194   5.754   9.761
27624SOL    HW184806   9.253   5.747   9.680
27624SOL    HW284807   9.183   5.663   9.802
27625SOL     OW84808   8.873   7.222   9.817
27625SOL    HW184809   8.924   7.242   9.733
27625SOL    HW284810   8.825   7.304   9.848
27626SOL     OW84811   8.656   7.171   9.327
27626SOL    HW184812   8.649   7.090   9.385
27626SOL    HW284813   8.579   7.172   9.263
27627SOL     OW84814   8.462   6.516   9.668
27627SOL    HW184815   8.453   6.504   9.569
27627SOL    HW284816   8.473   6.427   9.711
27628SOL     OW84817   8.936   7.231   9.328
27628SOL    HW184818   8.837   7.222   9.319
27628SOL    HW284819   8.975   7.255   9.239
27629SOL     OW84820   7.930   6.929   9.759
27629SOL    HW184821   7.956   6.909   9.665
27629SOL    HW284822   7.852   6.991   9.760
27630SOL     OW84823   7.666   6.934   9.518
27630SOL    HW184824   7.569   6.920   9.497
27630SOL    HW284825   7.675   6.985   9.603
27631SOL     OW84826   7.615   5.947   9.148
27631SOL    HW184827   7.529   5.941   9.098
27631SOL    HW284828   7.650   6.041   9.142
27632SOL     OW84829   7.445   5.696   9.580
27632SOL    HW184830   7.413   5.775   9.528
27632SOL    HW284831   7.541   5.678   9.557
27633SOL     OW84832   8.624   6.946   9.494
27633SOL    HW184833   8.526   6.934   9.510
27633SOL    HW284834   8.669   6.965   9.581
27634SOL     OW84835   8.665   5.922   9.773
27634SOL    HW184836   8.745   5.862   9.780
27634SOL    HW284837   8.661   5.982   9.852
27635SOL     OW84838   7.943   6.382   0.048
27635SOL    HW184839   7.958   6.481   0.047
27635SOL    HW284840   7.902   6.354   9.962
27636SOL     OW84841   8.461   6.493   9.402
27636SOL    HW184842   8.416   6.562   9.345
27636SOL    HW284843   8.555   6.480   9.371
27637SOL     OW84844   7.591   6.940   9.978
27637SOL    HW184845   7.540   6.909   0.058
27637SOL    HW284846   7.648   6.865   9.944
27638SOL     OW84847   7.878   6.024   9.863
27638SOL    HW184848   7.918   5.952   9.806
27638SOL    HW284849   7.870   5.992   9.957
27639SOL     OW84850   8.847   5.621   9.520
27639SOL    HW184851   8.894   5.548   9.471
27639SOL    HW284852   8.753   5.592   9.539
27640SOL     OW84853   7.512   6.692   9.635
27640SOL    HW184854   7.606   6.726   9.638
27640SOL    HW284855   7.512   6.594   9.616
27641SOL     OW84856   7.554   7.946   0.063
27641SOL    HW184857   7.480   7.969   0.126
27641SOL    HW284858   7.551   8.006   9.984
27642SOL     OW84859   7.722   7.744   1.015
27642SOL    HW184860   7.757   7.750   1.108
27642SOL    HW284861   7.622   7.737   1.017
27643SOL     OW84862   7.429   7.864   0.660
27643SOL    HW184863   7.338   7.884   0.698
27643SOL    HW284864   7.421   7.790   0.593
27644SOL     OW84865   8.038   8.749   1.212
27644SOL    HW184866   7.958   8.757   1.154
27644SOL    HW284867   8.065   8.840   1.245
27645SOL     OW84868   8.582   8.165   0.666
27645SOL    HW184869   8.634   8.249   0.653
27645SOL    HW284870   8.525   8.174   0.748
27646SOL     OW84871   9.135   8.046   0.188
27646SOL    HW184872   9.054   8.065   0.132
27646SOL    HW284873   9.115   7.971   0.251
27647SOL     OW84874   8.193   8.589   1.049
27647SOL    HW184875   8.134   8.624   1.122
27647SOL    HW284876   8.240   8.666   1.005
27648SOL     OW84877   8.343   8.160   1.830
27648SOL    HW184878   8.332   8.221   1.909
27648SOL    HW284879   8.356   8.215   1.748
27649SOL     OW84880   8.139   8.443   0.630
27649SOL    HW184881   8.209   8.439   0.702
27649SOL    HW284882   8.069   8.510   0.655
27650SOL     OW84883   8.096   8.594   1.859
27650SOL    HW184884   8.149   8.665   1.904
27650SOL    HW284885   8.027   8.635   1.800
27651SOL     OW84886   7.827   8.836   1.057
27651SOL    HW184887   7.757   8.786   1.006
27651SOL    HW284888   7.871   8.902   0.996
27652SOL     OW84889   8.902   9.001   1.328
27652SOL    HW184890   8.954   9.081   1.298
27652SOL    HW284891   8.838   9.028   1.400
27653SOL     OW84892   7.842   7.896   1.687
27653SOL    HW184893   7.892   7.972   1.646
27653SOL    HW284894   7.797   7.843   1.616
27654SOL     OW84895   9.025   7.901   0.754
27654SOL    HW184896   8.952   7.899   0.686
27654SOL    HW284897   9.012   7.978   0.815
27655SOL     OW84898   7.717   9.196   0.426
27655SOL    HW184899   7.714   9.268   0.496
27655SOL    HW284900   7.813   9.175   0.405
27656SOL     OW84901   7.689   8.922   0.478
27656SOL    HW184902   7.689   9.022   0.477
27656SOL    HW284903   7.659   8.889   0.567
27657SOL     OW84904   7.745   8.554   0.877
27657SOL    HW184905   7.773   8.458   0.873
27657SOL    HW284906   7.690   8.569   0.959
27658SOL     OW84907   8.050   9.151   1.565
27658SOL    HW184908   7.951   9.152   1.579
27658SOL    HW284909   8.082   9.243   1.542
27659SOL     OW84910   8.016   8.412   0.196
27659SOL    HW184911   7.963   8.482   0.148
27659SOL    HW284912   8.090   8.456   0.248
27660SOL     OW84913   9.010   7.651   1.426
27660SOL    HW184914   9.082   7.719   1.420
27660SOL    HW284915   8.968   7.654   1.517
27661SOL     OW84916   7.508   8.137   0.615
27661SOL    HW184917   7.480   8.041   0.620
27661SOL    HW284918   7.532   8.170   0.706
27662SOL     OW84919   9.302   9.174   0.289
27662SOL    HW184920   9.379   9.158   0.351
27662SOL    HW284921   9.312   9.263   0.245
27663SOL     OW84922   7.519   8.983   0.102
27663SOL    HW184923   7.484   8.895   0.136
27663SOL    HW284924   7.497   9.055   0.168
27664SOL     OW84925   9.148   8.381   0.672
27664SOL    HW184926   9.244   8.353   0.671
27664SOL    HW284927   9.130   8.444   0.597
27665SOL     OW84928   9.104   8.576   0.477
27665SOL    HW184929   9.180   8.563   0.413
27665SOL    HW284930   9.130   8.642   0.547
27666SOL     OW84931   8.097   8.836   0.723
27666SOL    HW184932   8.046   8.750   0.724
27666SOL    HW284933   8.095   8.875   0.631
27667SOL     OW84934   8.249   7.509   0.515
27667SOL    HW184935   8.272   7.571   0.439
27667SOL    HW284936   8.150   7.512   0.531
27668SOL     OW84937   7.727   8.512   1.318
27668SOL    HW184938   7.794   8.442   1.297
27668SOL    HW284939   7.680   8.540   1.234
27669SOL     OW84940   8.952   8.458   0.274
27669SOL    HW184941   8.900   8.379   0.305
27669SOL    HW284942   9.004   8.495   0.350
27670SOL     OW84943   8.772   9.319   1.613
27670SOL    HW184944   8.705   9.380   1.571
27670SOL    HW284945   8.758   9.226   1.579
27671SOL     OW84946   7.809   7.689   1.857
27671SOL    HW184947   7.848   7.763   1.801
27671SOL    HW284948   7.713   7.708   1.874
27672SOL     OW84949   8.903   8.923   0.897
27672SOL    HW184950   8.842   8.930   0.976
27672SOL    HW284951   8.916   8.826   0.874
27673SOL     OW84952   8.085   8.170   0.323
27673SOL    HW184953   8.063   8.252   0.269
27673SOL    HW284954   8.053   8.182   0.417
27674SOL     OW84955   8.745   7.853   0.949
27674SOL    HW184956   8.656   7.809   0.939
27674SOL    HW284957   8.798   7.806   1.019
27675SOL     OW84958   9.014   9.151   0.234
27675SOL    HW184959   9.112   9.150   0.252
27675SOL    HW284960   8.993   9.088   0.159
27676SOL     OW84961   8.271   8.024   1.431
27676SOL    HW184962   8.246   7.985   1.520
27676SOL    HW284963   8.243   7.962   1.358
27677SOL     OW84964   8.832   7.916   1.647
27677SOL    HW184965   8.836   7.957   1.738
27677SOL    HW284966   8.870   7.823   1.650
27678SOL     OW84967   8.375   8.318   1.601
27678SOL    HW184968   8.442   8.264   1.552
27678SOL    HW284969   8.325   8.376   1.537
27679SOL     OW84970   8.458   7.861   1.158
27679SOL    HW184971   8.362   7.875   1.182
27679SOL    HW284972   8.464   7.818   1.068
27680SOL     OW84973   8.515   8.152   0.396
27680SOL    HW184974   8.535   8.151   0.494
27680SOL    HW284975   8.429   8.104   0.379
27681SOL     OW84976   7.564   8.231   0.868
27681SOL    HW184977   7.660   8.256   0.880
27681SOL    HW284978   7.506   8.305   0.903
27682SOL     OW84979   7.584   9.340   1.596
27682SOL    HW184980   7.586   9.323   1.695
27682SOL    HW284981   7.489   9.347   1.566
27683SOL     OW84982   9.106   8.018   1.833
27683SOL    HW184983   9.102   8.106   1.784
27683SOL    HW284984   9.133   7.946   1.770
27684SOL     OW84985   8.845   8.623   0.572
27684SOL    HW184986   8.932   8.611   0.524
27684SOL    HW284987   8.792   8.695   0.526
27685SOL     OW84988   7.929   7.557   1.009
27685SOL    HW184989   7.984   7.586   1.088
27685SOL    HW284990   7.860   7.627   0.990
27686SOL     OW84991   8.463   8.920   0.470
27686SOL    HW184992   8.450   9.005   0.418
27686SOL    HW284993   8.435   8.935   0.565
27687SOL     OW84994   7.823   9.244   0.853
27687SOL    HW184995   7.863   9.153   0.866
27687SOL    HW284996   7.893   9.314   0.865
27688SOL     OW84997   9.221   8.456   0.926
27688SOL    HW184998   9.177   8.442   0.837
27688SOL    HW284999   9.153   8.488   0.992
27689SOL     OW85000   8.712   9.070   1.511
27689SOL    HW185001   8.722   8.997   1.578
27689SOL    HW285002   8.617   9.071   1.477
27690SOL     OW85003   7.802   8.367   0.371
27690SOL    HW185004   7.872   8.365   0.299
27690SOL    HW285005   7.794   8.277   0.413
27691SOL     OW85006   8.933   8.220   0.707
27691SOL    HW185007   8.923   8.181   0.799
27691SOL    HW285008   9.016   8.275   0.703
27692SOL     OW85009   7.903   8.739   1.728
27692SOL    HW185010   7.890   8.729   1.629
27692SOL    HW285011   7.817   8.718   1.774
27693SOL     OW85012   8.571   9.212   0.160
27693SOL    HW185013   8.514   9.200   0.241
27693SOL    HW285014   8.600   9.123   0.126
27694SOL     OW85015   7.681   7.727   1.540
27694SOL    HW185016   7.597   7.779   1.529
27694SOL    HW285017   7.660   7.638   1.583
27695SOL     OW85018   9.061   8.754   9.995
27695SOL    HW185019   9.027   8.847   0.003
27695SOL    HW285020   8.988   8.689   0.017
27696SOL     OW85021   7.985   9.197   0.384
27696SOL    HW185022   8.014   9.275   0.440
27696SOL    HW285023   8.053   9.179   0.313
27697SOL     OW85024   8.814   7.549   0.429
27697SOL    HW185025   8.803   7.536   0.331
27697SOL    HW285026   8.910   7.534   0.454
27698SOL     OW85027   7.612   9.273   1.223
27698SOL    HW185028   7.696   9.327   1.235
27698SOL    HW285029   7.601   9.250   1.126
27699SOL     OW85030   8.410   9.172   0.883
27699SOL    HW185031   8.495   9.154   0.931
27699SOL    HW285032   8.393   9.099   0.816
27700SOL     OW85033   7.773   8.141   0.522
27700SOL    HW185034   7.801   8.045   0.519
27700SOL    HW285035   7.677   8.147   0.550
27701SOL     OW85036   8.901   7.652   1.685
27701SOL    HW185037   8.928   7.664   1.780
27701SOL    HW285038   8.837   7.576   1.677
27702SOL     OW85039   8.101   7.578   0.167
27702SOL    HW185040   8.179   7.607   0.223
27702SOL    HW285041   8.133   7.558   0.074
27703SOL     OW85042   8.237   7.687   1.709
27703SOL    HW185043   8.328   7.647   1.714
27703SOL    HW285044   8.183   7.657   1.789
27704SOL     OW85045   8.324   8.942   1.200
27704SOL    HW185046   8.305   8.925   1.103
27704SOL    HW285047   8.363   8.860   1.241
27705SOL     OW85048   8.755   8.070   1.436
27705SOL    HW185049   8.792   8.021   1.515
27705SOL    HW285050   8.793   8.163   1.433
27706SOL     OW85051   8.280   8.825   0.942
27706SOL    HW185052   8.373   8.827   0.904
27706SOL    HW285053   8.214   8.829   0.868
27707SOL     OW85054   8.353   7.973   0.865
27707SOL    HW185055   8.315   7.984   0.773
27707SOL    HW285056   8.397   7.883   0.872
27708SOL     OW85057   7.971   7.531   0.513
27708SOL    HW185058   7.893   7.518   0.574
27708SOL    HW285059   7.952   7.606   0.450
27709SOL     OW85060   8.855   8.599   0.064
27709SOL    HW185061   8.895   8.537   0.132
27709SOL    HW285062   8.776   8.646   0.104
27710SOL     OW85063   8.503   8.167   1.412
27710SOL    HW185064   8.431   8.098   1.421
27710SOL    HW285065   8.593   8.124   1.419
27711SOL     OW85066   8.690   9.014   0.748
27711SOL    HW185067   8.708   9.095   0.691
27711SOL    HW285068   8.774   8.986   0.794
27712SOL     OW85069   7.936   8.617   0.690
27712SOL    HW185070   7.874   8.599   0.767
27712SOL    HW285071   7.883   8.621   0.605
27713SOL     OW85072   8.764   9.275   0.617
27713SOL    HW185073   8.793   9.348   0.554
27713SOL    HW285074   8.678   9.301   0.660
27714SOL     OW85075   8.551   7.955   9.971
27714SOL    HW185076   8.453   7.935   9.973
27714SOL    HW285077   8.585   7.962   0.065
27715SOL     OW85078   8.042   7.668   1.237
27715SOL    HW185079   8.093   7.629   1.314
27715SOL    HW285080   7.947   7.680   1.263
27716SOL     OW85081   8.241   8.020   0.626
27716SOL    HW185082   8.161   8.079   0.629
27716SOL    HW285083   8.271   8.007   0.532
27717SOL     OW85084   8.445   7.533   0.707
27717SOL    HW185085   8.377   7.536   0.633
27717SOL    HW285086   8.418   7.463   0.773
27718SOL     OW85087   8.960   8.665   0.827
27718SOL    HW185088   8.896   8.639   0.755
27718SOL    HW285089   9.049   8.686   0.787
27719SOL     OW85090   8.900   8.089   0.946
27719SOL    HW185091   8.839   8.010   0.956
27719SOL    HW285092   8.965   8.090   1.021
27720SOL     OW85093   9.283   8.237   0.327
27720SOL    HW185094   9.328   8.199   0.408
27720SOL    HW285095   9.220   8.168   0.290
27721SOL     OW85096   7.946   8.940   0.191
27721SOL    HW185097   7.860   8.896   0.217
27721SOL    HW285098   7.985   8.892   0.112
27722SOL     OW85099   9.187   8.727   0.687
27722SOL    HW185100   9.271   8.674   0.679
27722SOL    HW285101   9.208   8.825   0.688
27723SOL     OW85102   8.873   7.994   0.081
27723SOL    HW185103   8.790   7.991   0.137
27723SOL    HW285104   8.909   7.901   0.071
27724SOL     OW85105   7.926   7.727   0.322
27724SOL    HW185106   7.992   7.675   0.267
27724SOL    HW285107   7.877   7.791   0.263
27725SOL     OW85108   9.197   8.689   1.482
27725SOL    HW185109   9.289   8.652   1.471
27725SOL    HW285110   9.203   8.781   1.521
27726SOL     OW85111   8.418   8.718   1.316
27726SOL    HW185112   8.334   8.713   1.370
27726SOL    HW285113   8.494   8.679   1.368
27727SOL     OW85114   9.257   9.218   1.489
27727SOL    HW185115   9.171   9.269   1.483
27727SOL    HW285116   9.239   9.123   1.514
27728SOL     OW85117   8.599   8.718   1.106
27728SOL    HW185118   8.520   8.717   1.168
27728SOL    HW285119   8.570   8.744   1.014
27729SOL     OW85120   9.026   8.563   1.082
27729SOL    HW185121   9.029   8.637   1.149
27729SOL    HW285122   8.983   8.595   0.998
27730SOL     OW85123   8.423   7.510   1.342
27730SOL    HW185124   8.440   7.506   1.243
27730SOL    HW285125   8.492   7.567   1.386
27731SOL     OW85126   8.342   8.476   1.819
27731SOL    HW185127   8.250   8.513   1.825
27731SOL    HW285128   8.353   8.426   1.733
27732SOL     OW85129   8.213   8.511   0.366
27732SOL    HW185130   8.193   8.482   0.460
27732SOL    HW285131   8.297   8.466   0.334
27733SOL     OW85132   7.904   8.313   1.253
27733SOL    HW185133   7.971   8.284   1.322
27733SOL    HW285134   7.858   8.232   1.216
27734SOL     OW85135   8.696   7.855   1.282
27734SOL    HW185136   8.717   7.939   1.333
27734SOL    HW285137   8.607   7.866   1.237
27735SOL     OW85138   7.571   9.032   1.353
27735SOL    HW185139   7.573   9.126   1.319
27735SOL    HW285140   7.664   8.995   1.351
27736SOL     OW85141   7.756   8.605   0.473
27736SOL    HW185142   7.760   8.670   0.397
27736SOL    HW285143   7.780   8.514   0.440
27737SOL     OW85144   7.878   8.021   0.920
27737SOL    HW185145   7.871   7.954   0.846
27737SOL    HW285146   7.974   8.030   0.948
27738SOL     OW85147   8.714   8.822   0.436
27738SOL    HW185148   8.770   8.905   0.432
27738SOL    HW285149   8.619   8.847   0.458
27739SOL     OW85150   8.745   8.947   1.114
27739SOL    HW185151   8.800   8.961   1.196
27739SOL    HW285152   8.695   8.861   1.122
27740SOL     OW85153   8.951   8.067   0.477
27740SOL    HW185154   8.947   8.114   0.565
27740SOL    HW285155   8.898   8.119   0.409
27741SOL     OW85156   7.820   8.939   1.309
27741SOL    HW185157   7.809   8.903   1.216
27741SOL    HW285158   7.912   8.976   1.320
27742SOL     OW85159   7.986   8.134   1.647
27742SOL    HW185160   8.013   8.183   1.564
27742SOL    HW285161   8.061   8.074   1.676
27743SOL     OW85162   9.084   8.266   1.712
27743SOL    HW185163   8.986   8.284   1.711
27743SOL    HW285164   9.125   8.306   1.630
27744SOL     OW85165   8.482   7.578   1.741
27744SOL    HW185166   8.521   7.669   1.729
27744SOL    HW285167   8.551   7.508   1.724
27745SOL     OW85168   7.971   7.483   1.778
27745SOL    HW185169   7.922   7.421   1.716
27745SOL    HW285170   7.912   7.561   1.801
27746SOL     OW85171   8.064   8.345   1.037
27746SOL    HW185172   8.115   8.431   1.037
27746SOL    HW285173   8.008   8.340   1.119
27747SOL     OW85174   8.713   8.286   1.041
27747SOL    HW185175   8.626   8.265   0.995
27747SOL    HW285176   8.784   8.225   1.006
27748SOL     OW85177   8.645   7.971   0.231
27748SOL    HW185178   8.673   7.901   0.297
27748SOL    HW285179   8.597   8.044   0.279
27749SOL     OW85180   7.779   7.687   1.287
27749SOL    HW185181   7.752   7.714   1.380
27749SOL    HW285182   7.742   7.597   1.266
27750SOL     OW85183   7.488   8.779   1.263
27750SOL    HW185184   7.433   8.744   1.339
27750SOL    HW285185   7.515   8.874   1.282
27751SOL     OW85186   8.132   8.072   1.003
27751SOL    HW185187   8.213   8.046   0.950
27751SOL    HW285188   8.124   8.172   1.005
27752SOL     OW85189   9.177   8.460   1.890
27752SOL    HW185190   9.150   8.387   1.827
27752SOL    HW285191   9.123   8.454   1.974
27753SOL     OW85192   7.739   7.493   0.658
27753SOL    HW185193   7.709   7.586   0.676
27753SOL    HW285194   7.742   7.442   0.744
27754SOL     OW85195   9.050   7.846   0.348
27754SOL    HW185196   9.114   7.790   0.401
27754SOL    HW285197   9.008   7.915   0.407
27755SOL     OW85198   8.456   8.212   0.937
27755SOL    HW185199   8.432   8.234   1.031
27755SOL    HW285200   8.426   8.120   0.915
27756SOL     OW85201   8.363   9.016   1.676
27756SOL    HW185202   8.396   9.041   1.585
27756SOL    HW285203   8.284   8.956   1.668
27757SOL     OW85204   9.292   8.943   1.545
27757SOL    HW185205   9.336   8.950   1.455
27757SOL    HW285206   9.362   8.949   1.616
27758SOL     OW85207   7.833   8.282   1.826
27758SOL    HW185208   7.892   8.326   1.894
27758SOL    HW285209   7.889   8.237   1.757
27759SOL     OW85210   8.946   7.733   0.119
27759SOL    HW185211   8.878   7.662   0.137
27759SOL    HW285212   8.985   7.765   0.205
27760SOL     OW85213   8.812   8.257   0.052
27760SOL    HW185214   8.831   8.159   0.042
27760SOL    HW285215   8.885   8.309   0.008
27761SOL     OW85216   8.534   8.813   0.853
27761SOL    HW185217   8.542   8.728   0.800
27761SOL    HW285218   8.587   8.885   0.809
27762SOL     OW85219   7.836   8.292   0.891
27762SOL    HW185220   7.919   8.327   0.933
27762SOL    HW285221   7.841   8.192   0.884
27763SOL     OW85222   8.579   7.822   1.677
27763SOL    HW185223   8.537   7.866   1.757
27763SOL    HW285224   8.669   7.862   1.660
27764SOL     OW85225   8.618   7.659   1.458
27764SOL    HW185226   8.593   7.715   1.537
27764SOL    HW285227   8.658   7.717   1.387
27765SOL     OW85228   7.463   8.720   0.190
27765SOL    HW185229   7.368   8.746   0.171
27765SOL    HW285230   7.464   8.642   0.252
27766SOL     OW85231   7.567   9.224   0.960
27766SOL    HW185232   7.513   9.151   0.918
27766SOL    HW285233   7.656   9.228   0.915
27767SOL     OW85234   7.965   9.009   0.895
27767SOL    HW185235   8.033   9.078   0.920
27767SOL    HW285236   8.005   8.946   0.828
27768SOL     OW85237   8.371   8.256   1.189
27768SOL    HW185238   8.434   8.236   1.263
27768SOL    HW285239   8.281   8.218   1.210
27769SOL     OW85240   7.411   8.022   0.967
27769SOL    HW185241   7.446   7.932   0.942
27769SOL    HW285242   7.472   8.093   0.930
27770SOL     OW85243   7.707   8.043   1.868
27770SOL    HW185244   7.755   7.980   1.808
27770SOL    HW285245   7.740   8.136   1.852
27771SOL     OW85246   8.828   8.353   1.684
27771SOL    HW185247   8.831   8.445   1.724
27771SOL    HW285248   8.822   8.361   1.584
27772SOL     OW85249   9.086   8.088   1.144
27772SOL    HW185250   9.070   8.017   1.213
27772SOL    HW285251   9.183   8.091   1.121
27773SOL     OW85252   7.652   8.961   1.758
27773SOL    HW185253   7.618   9.002   1.843
27773SOL    HW285254   7.666   8.863   1.773
27774SOL     OW85255   8.191   7.894   1.207
27774SOL    HW185256   8.135   7.811   1.210
27774SOL    HW285257   8.157   7.955   1.135
27775SOL     OW85258   8.445   9.076   1.420
27775SOL    HW185259   8.413   9.028   1.338
27775SOL    HW285260   8.438   9.175   1.407
27776SOL     OW85261   7.816   7.901   0.143
27776SOL    HW185262   7.862   7.990   0.146
27776SOL    HW285263   7.721   7.914   0.117
27777SOL     OW85264   7.528   8.503   1.511
27777SOL    HW185265   7.565   8.482   1.601
27777SOL    HW285266   7.603   8.509   1.445
27778SOL     OW85267   8.704   8.492   1.221
27778SOL    HW185268   8.711   8.414   1.159
27778SOL    HW285269   8.679   8.574   1.170
27779SOL     OW85270   8.791   8.238   0.324
27779SOL    HW185271   8.697   8.223   0.355
27779SOL    HW285272   8.792   8.243   0.224
27780SOL     OW85273   9.281   9.147   1.147
27780SOL    HW185274   9.353   9.166   1.081
27780SOL    HW285275   9.224   9.071   1.114
27781SOL     OW85276   8.644   9.191   1.037
27781SOL    HW185277   8.725   9.250   1.037
27781SOL    HW285278   8.671   9.099   1.064
27782SOL     OW85279   7.583   8.591   1.091
27782SOL    HW185280   7.544   8.664   1.146
27782SOL    HW285281   7.510   8.542   1.044
27783SOL     OW85282   8.182   9.178   1.825
27783SOL    HW185283   8.118   9.176   1.748
27783SOL    HW285284   8.272   9.147   1.795
27784SOL     OW85285   9.237   7.676   0.457
27784SOL    HW185286   9.296   7.648   0.381
27784SOL    HW285287   9.176   7.601   0.480
27785SOL     OW85288   8.835   9.067   0.430
27785SOL    HW185289   8.904   9.098   0.364
27785SOL    HW285290   8.808   9.142   0.489
27786SOL     OW85291   7.600   9.284   1.859
27786SOL    HW185292   7.568   9.198   1.900
27786SOL    HW285293   7.661   9.330   1.923
27787SOL     OW85294   8.730   8.391   0.649
27787SOL    HW185295   8.805   8.328   0.669
27787SOL    HW285296   8.767   8.477   0.612
27788SOL     OW85297   8.181   8.705   1.446
27788SOL    HW185298   8.163   8.770   1.520
27788SOL    HW285299   8.109   8.711   1.377
27789SOL     OW85300   8.164   9.096   0.200
27789SOL    HW185301   8.230   9.048   0.142
27789SOL    HW285302   8.076   9.048   0.198
27790SOL     OW85303   9.035   9.228   1.248
27790SOL    HW185304   9.127   9.204   1.219
27790SOL    HW285305   9.039   9.297   1.320
27791SOL     OW85306   9.289   7.602   0.957
27791SOL    HW185307   9.304   7.513   0.913
27791SOL    HW285308   9.196   7.633   0.939
27792SOL     OW85309   7.678   7.751   0.735
27792SOL    HW185310   7.589   7.794   0.716
27792SOL    HW285311   7.697   7.755   0.833
27793SOL     OW85312   8.636   8.959   0.073
27793SOL    HW185313   8.632   8.869   0.118
27793SOL    HW285314   8.584   8.956   9.988
27794SOL     OW85315   8.256   8.452   1.397
27794SOL    HW185316   8.314   8.454   1.315
27794SOL    HW285317   8.227   8.545   1.420
27795SOL     OW85318   8.438   8.393   0.277
27795SOL    HW185319   8.485   8.403   0.190
27795SOL    HW285320   8.467   8.308   0.321
27796SOL     OW85321   8.914   8.989   0.032
27796SOL    HW185322   8.823   8.977   0.071
27796SOL    HW285323   8.907   9.002   9.933
27797SOL     OW85324   7.842   8.715   1.469
27797SOL    HW185325   7.830   8.799   1.415
27797SOL    HW285326   7.805   8.638   1.418
27798SOL     OW85327   9.044   8.772   1.262
27798SOL    HW185328   9.099   8.737   1.337
27798SOL    HW285329   8.990   8.850   1.295
27799SOL     OW85330   8.534   8.570   0.738
27799SOL    HW185331   8.452   8.521   0.766
27799SOL    HW285332   8.602   8.505   0.706
27800SOL     OW85333   8.497   7.715   0.919
27800SOL    HW185334   8.487   7.677   0.827
27800SOL    HW285335   8.498   7.641   0.986
27801SOL     OW85336   8.103   8.938   0.476
27801SOL    HW185337   8.153   8.883   0.409
27801SOL    HW285338   8.036   8.996   0.428
27802SOL     OW85339   9.226   7.819   1.396
27802SOL    HW185340   9.288   7.898   1.390
27802SOL    HW285341   9.259   7.746   1.336
27803SOL     OW85342   7.723   8.778   0.257
27803SOL    HW185343   7.633   8.763   0.216
27803SOL    HW285344   7.714   8.839   0.336
27804SOL     OW85345   7.607   8.438   1.765
27804SOL    HW185346   7.526   8.411   1.818
27804SOL    HW285347   7.683   8.377   1.788
27805SOL     OW85348   8.179   7.572   1.456
27805SOL    HW185349   8.268   7.549   1.417
27805SOL    HW285350   8.192   7.619   1.544
27806SOL     OW85351   7.525   7.678   0.003
27806SOL    HW185352   7.446   7.668   9.942
27806SOL    HW285353   7.540   7.775   0.021
27807SOL     OW85354   8.838   8.335   1.409
27807SOL    HW185355   8.771   8.384   1.353
27807SOL    HW285356   8.926   8.335   1.363
27808SOL     OW85357   7.565   7.569   0.256
27808SOL    HW185358   7.540   7.611   0.169
27808SOL    HW285359   7.664   7.555   0.259
27809SOL     OW85360   8.643   8.712   0.194
27809SOL    HW185361   8.588   8.629   0.201
27809SOL    HW285362   8.670   8.741   0.285
27810SOL     OW85363   8.102   8.235   1.421
27810SOL    HW185364   8.154   8.320   1.417
27810SOL    HW285365   8.165   8.158   1.424
27811SOL     OW85366   8.877   9.339   1.057
27811SOL    HW185367   8.936   9.374   0.984
27811SOL    HW285368   8.932   9.289   1.124
27812SOL     OW85369   8.198   7.963   1.688
27812SOL    HW185370   8.255   8.015   1.751
27812SOL    HW285371   8.214   7.865   1.702
27813SOL     OW85372   7.787   9.156   1.622
27813SOL    HW185373   7.713   9.214   1.589
27813SOL    HW285374   7.749   9.078   1.670
27814SOL     OW85375   9.062   8.345   1.253
27814SOL    HW185376   9.070   8.259   1.204
27814SOL    HW285377   9.046   8.420   1.188
27815SOL     OW85378   8.709   7.804   0.435
27815SOL    HW185379   8.746   7.712   0.438
27815SOL    HW285380   8.723   7.850   0.523
27816SOL     OW85381   8.034   8.193   0.599
27816SOL    HW185382   8.063   8.286   0.617
27816SOL    HW285383   7.934   8.190   0.594
27817SOL     OW85384   9.204   7.811   1.677
27817SOL    HW185385   9.210   7.834   1.580
27817SOL    HW285386   9.203   7.711   1.687
27818SOL     OW85387   9.178   8.405   1.493
27818SOL    HW185388   9.171   8.504   1.505
27818SOL    HW285389   9.142   8.379   1.404
27819SOL     OW85390   8.287   8.885   0.069
27819SOL    HW185391   8.202   8.851   0.029
27819SOL    HW285392   8.300   8.844   0.159
27820SOL     OW85393   8.140   9.212   0.926
27820SOL    HW185394   8.114   9.303   0.893
27820SOL    HW285395   8.239   9.199   0.913
27821SOL     OW85396   8.318   8.435   0.843
27821SOL    HW185397   8.367   8.354   0.873
27821SOL    HW285398   8.279   8.482   0.922
27822SOL     OW85399   8.592   8.420   0.054
27822SOL    HW185400   8.590   8.468   9.966
27822SOL    HW285401   8.668   8.356   0.056
27823SOL     OW85402   9.432   8.909   0.893
27823SOL    HW185403   9.364   8.935   0.824
27823SOL    HW285404   9.413   8.816   0.924
27824SOL     OW85405   7.659   8.696   1.831
27824SOL    HW185406   7.642   8.603   1.799
27824SOL    HW285407   7.593   8.719   1.902
27825SOL     OW85408   7.625   8.725   0.683
27825SOL    HW185409   7.654   8.671   0.763
27825SOL    HW285410   7.664   8.684   0.600
27826SOL     OW85411   8.118   8.893   1.637
27826SOL    HW185412   8.043   8.844   1.681
27826SOL    HW285413   8.088   8.985   1.612
27827SOL     OW85414   9.300   7.609   1.231
27827SOL    HW185415   9.269   7.517   1.252
27827SOL    HW285416   9.296   7.624   1.132
27828SOL     OW85417   7.829   7.878   0.537
27828SOL    HW185418   7.869   7.822   0.465
27828SOL    HW285419   7.780   7.820   0.602
27829SOL     OW85420   9.125   8.949   1.061
27829SOL    HW185421   9.053   8.948   0.991
27829SOL    HW285422   9.108   8.876   1.128
27830SOL     OW85423   8.310   9.015   0.681
27830SOL    HW185424   8.273   9.064   0.602
27830SOL    HW285425   8.245   8.945   0.710
27831SOL     OW85426   8.906   7.742   1.163
27831SOL    HW185427   8.957   7.690   1.232
27831SOL    HW285428   8.828   7.787   1.206
27832SOL     OW85429   8.493   7.482   1.071
27832SOL    HW185430   8.428   7.429   1.016
27832SOL    HW285431   8.583   7.438   1.068
27833SOL     OW85432   8.274   8.779   0.323
27833SOL    HW185433   8.254   8.682   0.337
27833SOL    HW285434   8.352   8.806   0.379
27834SOL     OW85435   8.087   9.002   1.323
27834SOL    HW185436   8.092   9.058   1.406
27834SOL    HW285437   8.176   9.000   1.278
27835SOL     OW85438   8.753   7.529   0.161
27835SOL    HW185439   8.767   7.490   0.070
27835SOL    HW285440   8.656   7.523   0.185
27836SOL     OW85441   8.739   7.928   0.680
27836SOL    HW185442   8.688   8.013   0.670
27836SOL    HW285443   8.740   7.901   0.776
27837SOL     OW85444   9.033   7.680   0.925
27837SOL    HW185445   8.987   7.706   1.010
27837SOL    HW285446   9.025   7.754   0.858
27838SOL     OW85447   7.495   8.500   0.357
27838SOL    HW185448   7.584   8.521   0.397
27838SOL    HW285449   7.484   8.401   0.349
27839SOL     OW85450   8.381   9.165   0.359
27839SOL    HW185451   8.300   9.143   0.305
27839SOL    HW285452   8.361   9.243   0.418
27840SOL     OW85453   7.645   7.749   2.858
27840SOL    HW185454   7.698   7.710   2.934
27840SOL    HW285455   7.553   7.711   2.860
27841SOL     OW85456   7.406   7.802   2.519
27841SOL    HW185457   7.320   7.826   2.564
27841SOL    HW285458   7.388   7.741   2.442
27842SOL     OW85459   7.982   8.757   3.116
27842SOL    HW185460   7.906   8.759   3.050
27842SOL    HW285461   8.011   8.850   3.136
27843SOL     OW85462   9.120   8.968   2.584
27843SOL    HW185463   9.042   8.937   2.637
27843SOL    HW285464   9.148   8.897   2.519
27844SOL     OW85465   8.562   8.178   2.532
27844SOL    HW185466   8.614   8.261   2.515
27844SOL    HW285467   8.510   8.188   2.617
27845SOL     OW85468   9.234   7.974   2.062
27845SOL    HW185469   9.187   8.004   1.978
27845SOL    HW285470   9.173   7.914   2.114
27846SOL     OW85471   8.162   8.586   2.932
27846SOL    HW185472   8.096   8.615   3.002
27846SOL    HW285473   8.201   8.666   2.887
27847SOL     OW85474   8.361   8.170   3.659
27847SOL    HW185475   8.378   8.234   3.735
27847SOL    HW285476   8.370   8.219   3.572
27848SOL     OW85477   8.162   8.428   2.521
27848SOL    HW185478   8.229   8.446   2.593
27848SOL    HW285479   8.081   8.485   2.537
27849SOL     OW85480   8.129   8.607   3.730
27849SOL    HW185481   8.190   8.674   3.772
27849SOL    HW285482   8.051   8.654   3.688
27850SOL     OW85483   7.781   8.827   2.943
27850SOL    HW185484   7.711   8.761   2.914
27850SOL    HW285485   7.808   8.883   2.864
27851SOL     OW85486   8.853   8.967   3.223
27851SOL    HW185487   8.917   9.043   3.234
27851SOL    HW285488   8.776   8.978   3.286
27852SOL     OW85489   7.871   7.842   3.280
27852SOL    HW185490   7.945   7.789   3.322
27852SOL    HW285491   7.789   7.836   3.338
27853SOL     OW85492   9.043   7.905   2.601
27853SOL    HW185493   9.025   7.935   2.508
27853SOL    HW285494   8.994   7.963   2.666
27854SOL     OW85495   7.679   9.197   2.362
27854SOL    HW185496   7.698   9.274   2.423
27854SOL    HW285497   7.755   9.187   2.297
27855SOL     OW85498   8.519   8.812   3.565
27855SOL    HW185499   8.587   8.804   3.638
27855SOL    HW285500   8.468   8.727   3.558
27856SOL     OW85501   7.665   8.921   2.381
27856SOL    HW185502   7.665   9.019   2.401
27856SOL    HW285503   7.643   8.870   2.464
27857SOL     OW85504   7.742   8.524   2.732
27857SOL    HW185505   7.769   8.429   2.752
27857SOL    HW285506   7.689   8.560   2.809
27858SOL     OW85507   8.042   9.204   3.353
27858SOL    HW185508   7.951   9.201   3.394
27858SOL    HW285509   8.072   9.299   3.346
27859SOL     OW85510   7.998   8.408   2.036
27859SOL    HW185511   8.029   8.471   1.965
27859SOL    HW285512   8.051   8.423   2.119
27860SOL     OW85513   9.044   7.563   3.356
27860SOL    HW185514   9.103   7.637   3.323
27860SOL    HW285515   8.982   7.599   3.426
27861SOL     OW85516   7.530   8.044   2.492
27861SOL    HW185517   7.475   7.961   2.503
27861SOL    HW285518   7.623   8.020   2.467
27862SOL     OW85519   9.313   9.210   2.214
27862SOL    HW185520   9.402   9.183   2.250
27862SOL    HW285521   9.323   9.291   2.157
27863SOL     OW85522   7.531   9.043   1.990
27863SOL    HW185523   7.508   8.946   2.003
27863SOL    HW285524   7.504   9.095   2.071
27864SOL     OW85525   9.120   8.390   2.529
27864SOL    HW185526   9.212   8.351   2.535
27864SOL    HW285527   9.117   8.453   2.451
27865SOL     OW85528   9.109   8.571   2.308
27865SOL    HW185529   9.181   8.516   2.266
27865SOL    HW285530   9.148   8.658   2.339
27866SOL     OW85531   7.571   8.242   3.436
27866SOL    HW185532   7.653   8.296   3.453
27866SOL    HW285533   7.494   8.303   3.417
27867SOL     OW85534   7.998   8.845   2.566
27867SOL    HW185535   7.983   8.747   2.578
27867SOL    HW285536   7.983   8.868   2.470
27868SOL     OW85537   8.671   8.644   3.288
27868SOL    HW185538   8.694   8.579   3.215
27868SOL    HW285539   8.747   8.649   3.352
27869SOL     OW85540   7.687   8.463   3.162
27869SOL    HW185541   7.764   8.400   3.151
27869SOL    HW285542   7.659   8.498   3.072
27870SOL     OW85543   8.981   8.452   2.091
27870SOL    HW185544   8.914   8.384   2.121
27870SOL    HW285545   9.019   8.499   2.170
27871SOL     OW85546   8.611   9.271   3.490
27871SOL    HW185547   8.626   9.339   3.418
27871SOL    HW285548   8.631   9.180   3.455
27872SOL     OW85549   7.809   7.720   3.749
27872SOL    HW185550   7.849   7.798   3.795
27872SOL    HW285551   7.711   7.737   3.732
27873SOL     OW85552   8.929   8.869   2.760
27873SOL    HW185553   8.865   8.907   2.827
27873SOL    HW285554   8.903   8.775   2.737
27874SOL     OW85555   9.101   9.285   2.372
27874SOL    HW185556   9.172   9.247   2.312
27874SOL    HW285557   9.082   9.220   2.445
27875SOL     OW85558   8.027   8.146   2.148
27875SOL    HW185559   8.032   8.229   2.092
27875SOL    HW285560   7.976   8.165   2.232
27876SOL     OW85561   8.705   7.847   2.790
27876SOL    HW185562   8.613   7.810   2.780
27876SOL    HW285563   8.758   7.790   2.851
27877SOL     OW85564   8.249   8.032   3.290
27877SOL    HW185565   8.237   7.998   3.383
27877SOL    HW285566   8.220   7.963   3.225
27878SOL     OW85567   8.813   7.946   3.493
27878SOL    HW185568   8.800   7.988   3.582
27878SOL    HW285569   8.846   7.853   3.504
27879SOL     OW85570   8.398   8.336   3.440
27879SOL    HW185571   8.462   8.278   3.389
27879SOL    HW285572   8.336   8.382   3.376
27880SOL     OW85573   8.445   7.773   3.067
27880SOL    HW185574   8.351   7.796   3.094
27880SOL    HW285575   8.445   7.746   2.970
27881SOL     OW85576   8.516   8.142   2.263
27881SOL    HW185577   8.528   8.146   2.362
27881SOL    HW285578   8.428   8.099   2.242
27882SOL     OW85579   7.548   9.310   3.472
27882SOL    HW185580   7.549   9.267   3.562
27882SOL    HW285581   7.453   9.324   3.443
27883SOL     OW85582   8.310   7.792   2.058
27883SOL    HW185583   8.373   7.833   1.992
27883SOL    HW285584   8.259   7.718   2.014
27884SOL     OW85585   9.073   8.040   3.703
27884SOL    HW185586   9.073   8.121   3.645
27884SOL    HW285587   9.096   7.960   3.648
27885SOL     OW85588   8.870   8.612   2.444
27885SOL    HW185589   8.951   8.603   2.387
27885SOL    HW285590   8.797   8.655   2.390
27886SOL     OW85591   8.027   7.520   2.811
27886SOL    HW185592   8.029   7.566   2.899
27886SOL    HW285593   8.098   7.558   2.752
27887SOL     OW85594   8.411   8.854   2.355
27887SOL    HW185595   8.382   8.940   2.315
27887SOL    HW285596   8.402   8.858   2.455
27888SOL     OW85597   7.780   9.263   2.759
27888SOL    HW185598   7.810   9.168   2.756
27888SOL    HW285599   7.853   9.320   2.796
27889SOL     OW85600   9.204   8.500   2.769
27889SOL    HW185601   9.160   8.478   2.682
27889SOL    HW285602   9.135   8.515   2.840
27890SOL     OW85603   8.629   9.007   3.381
27890SOL    HW185604   8.607   8.927   3.435
27890SOL    HW285605   8.548   9.038   3.332
27891SOL     OW85606   7.743   8.374   2.151
27891SOL    HW185607   7.831   8.388   2.108
27891SOL    HW285608   7.718   8.277   2.145
27892SOL     OW85609   8.914   8.214   2.547
27892SOL    HW185610   8.906   8.166   2.634
27892SOL    HW285611   8.992   8.276   2.549
27893SOL     OW85612   7.907   8.760   3.646
27893SOL    HW185613   7.896   8.753   3.547
27893SOL    HW285614   7.818   8.746   3.690
27894SOL     OW85615   8.572   9.236   1.988
27894SOL    HW185616   8.579   9.213   2.085
27894SOL    HW285617   8.571   9.152   1.934
27895SOL     OW85618   7.624   7.828   3.405
27895SOL    HW185619   7.541   7.870   3.368
27895SOL    HW285620   7.624   7.730   3.384
27896SOL     OW85621   8.915   8.800   1.890
27896SOL    HW185622   8.877   8.848   1.811
27896SOL    HW285623   8.889   8.703   1.886
27897SOL     OW85624   7.896   9.213   2.192
27897SOL    HW185625   7.939   9.281   2.252
27897SOL    HW285626   7.968   9.154   2.154
27898SOL     OW85627   8.852   7.552   2.331
27898SOL    HW185628   8.851   7.530   2.233
27898SOL    HW285629   8.936   7.518   2.372
27899SOL     OW85630   7.637   9.262   3.074
27899SOL    HW185631   7.695   9.183   3.094
27899SOL    HW285632   7.598   9.252   2.982
27900SOL     OW85633   8.356   9.145   2.729
27900SOL    HW185634   8.452   9.117   2.722
27900SOL    HW285635   8.301   9.090   2.667
27901SOL     OW85636   7.868   8.181   2.367
27901SOL    HW185637   7.829   8.093   2.393
27901SOL    HW285638   7.800   8.253   2.380
27902SOL     OW85639   8.883   7.683   3.546
27902SOL    HW185640   8.883   7.681   3.646
27902SOL    HW285641   8.794   7.653   3.512
27903SOL     OW85642   8.153   7.575   1.957
27903SOL    HW185643   8.212   7.505   1.998
27903SOL    HW285644   8.085   7.531   1.899
27904SOL     OW85645   8.304   8.953   3.065
27904SOL    HW185646   8.281   8.922   2.972
27904SOL    HW285647   8.359   8.883   3.111
27905SOL     OW85648   8.737   8.036   3.253
27905SOL    HW185649   8.767   8.007   3.344
27905SOL    HW285650   8.770   8.128   3.234
27906SOL     OW85651   8.257   8.823   2.819
27906SOL    HW185652   8.349   8.824   2.781
27906SOL    HW285653   8.193   8.863   2.753
27907SOL     OW85654   8.362   7.961   2.757
27907SOL    HW185655   8.340   7.963   2.660
27907SOL    HW285656   8.396   7.871   2.783
27908SOL     OW85657   8.829   8.547   1.888
27908SOL    HW185658   8.889   8.510   1.958
27908SOL    HW285659   8.733   8.535   1.916
27909SOL     OW85660   7.756   7.490   2.034
27909SOL    HW185661   7.798   7.564   1.982
27909SOL    HW285662   7.827   7.442   2.087
27910SOL     OW85663   8.422   7.786   2.311
27910SOL    HW185664   8.386   7.778   2.218
27910SOL    HW285665   8.522   7.776   2.309
27911SOL     OW85666   8.488   8.158   3.248
27911SOL    HW185667   8.410   8.098   3.265
27911SOL    HW285668   8.572   8.103   3.246
27912SOL     OW85669   8.616   9.086   2.672
27912SOL    HW185670   8.637   9.142   2.591
27912SOL    HW285671   8.663   9.123   2.751
27913SOL     OW85672   7.934   8.577   2.548
27913SOL    HW185673   7.870   8.556   2.622
27913SOL    HW285674   7.884   8.582   2.461
27914SOL     OW85675   8.644   9.279   2.469
27914SOL    HW185676   8.714   9.341   2.434
27914SOL    HW285677   8.569   9.333   2.508
27915SOL     OW85678   8.481   7.936   1.901
27915SOL    HW185679   8.440   8.025   1.882
27915SOL    HW285680   8.550   7.946   1.973
27916SOL     OW85681   7.557   8.097   3.209
27916SOL    HW185682   7.650   8.077   3.178
27916SOL    HW285683   7.561   8.157   3.289
27917SOL     OW85684   8.022   7.617   3.067
27917SOL    HW185685   8.044   7.549   3.138
27917SOL    HW285686   7.923   7.635   3.068
27918SOL     OW85687   8.308   7.949   2.499
27918SOL    HW185688   8.243   8.013   2.459
27918SOL    HW285689   8.348   7.892   2.427
27919SOL     OW85690   8.847   8.613   2.719
27919SOL    HW185691   8.750   8.592   2.730
27919SOL    HW285692   8.872   8.607   2.622
27920SOL     OW85693   8.883   8.067   2.778
27920SOL    HW185694   8.815   7.995   2.792
27920SOL    HW285695   8.946   8.068   2.856
27921SOL     OW85696   9.249   8.150   2.271
27921SOL    HW185697   9.322   8.128   2.336
27921SOL    HW285698   9.253   8.086   2.194
27922SOL     OW85699   7.925   8.888   1.975
27922SOL    HW185700   7.849   8.858   2.033
27922SOL    HW285701   7.921   8.841   1.887
27923SOL     OW85702   9.249   8.778   2.426
27923SOL    HW185703   9.292   8.694   2.457
27923SOL    HW285704   9.320   8.840   2.389
27924SOL     OW85705   8.830   8.003   1.902
27924SOL    HW185706   8.788   7.970   1.987
27924SOL    HW285707   8.930   7.998   1.911
27925SOL     OW85708   8.016   7.685   2.181
27925SOL    HW185709   8.057   7.667   2.092
27925SOL    HW285710   7.958   7.766   2.176
27926SOL     OW85711   9.147   8.712   3.379
27926SOL    HW185712   9.220   8.645   3.366
27926SOL    HW285713   9.186   8.797   3.415
27927SOL     OW85714   8.443   8.756   3.189
27927SOL    HW185715   8.359   8.730   3.236
27927SOL    HW285716   8.522   8.720   3.239
27928SOL     OW85717   9.151   9.134   3.473
27928SOL    HW185718   9.100   9.149   3.388
27928SOL    HW285719   9.203   9.049   3.465
27929SOL     OW85720   8.592   8.717   2.964
27929SOL    HW185721   8.529   8.731   3.041
27929SOL    HW285722   8.548   8.749   2.879
27930SOL     OW85723   9.004   8.549   2.947
27930SOL    HW185724   8.993   8.616   3.020
27930SOL    HW285725   8.937   8.567   2.875
27931SOL     OW85726   8.383   8.568   3.596
27931SOL    HW185727   8.288   8.578   3.624
27931SOL    HW285728   8.392   8.488   3.536
27932SOL     OW85729   8.167   8.444   2.248
27932SOL    HW185730   8.166   8.429   2.347
27932SOL    HW285731   8.253   8.411   2.210
27933SOL     OW85732   7.896   8.286   3.140
27933SOL    HW185733   7.958   8.281   3.218
27933SOL    HW285734   7.854   8.196   3.125
27934SOL     OW85735   8.692   7.775   3.176
27934SOL    HW185736   8.716   7.870   3.197
27934SOL    HW285737   8.602   7.772   3.134
27935SOL     OW85738   7.509   9.016   3.211
27935SOL    HW185739   7.462   9.091   3.165
27935SOL    HW285740   7.608   9.026   3.199
27936SOL     OW85741   7.771   8.590   2.324
27936SOL    HW185742   7.769   8.669   2.263
27936SOL    HW285743   7.758   8.507   2.270
27937SOL     OW85744   7.978   8.012   2.720
27937SOL    HW185745   8.021   8.056   2.641
27937SOL    HW285746   8.045   8.002   2.794
27938SOL     OW85747   8.665   8.711   2.299
27938SOL    HW185748   8.715   8.759   2.227
27938SOL    HW285749   8.574   8.750   2.309
27939SOL     OW85750   8.763   8.929   2.972
27939SOL    HW185751   8.799   8.942   3.065
27939SOL    HW285752   8.705   8.848   2.970
27940SOL     OW85753   9.013   8.032   2.359
27940SOL    HW185754   8.949   8.093   2.406
27940SOL    HW285755   9.092   8.086   2.327
27941SOL     OW85756   7.775   9.032   3.122
27941SOL    HW185757   7.766   8.956   3.058
27941SOL    HW285758   7.870   9.040   3.152
27942SOL     OW85759   7.870   8.232   3.500
27942SOL    HW185760   7.951   8.244   3.443
27942SOL    HW285761   7.852   8.135   3.514
27943SOL     OW85762   9.066   8.263   3.550
27943SOL    HW185763   8.974   8.297   3.534
27943SOL    HW285764   9.123   8.281   3.470
27944SOL     OW85765   7.988   7.529   3.643
27944SOL    HW185766   7.952   7.453   3.589
27944SOL    HW285767   7.914   7.594   3.662
27945SOL     OW85768   8.090   8.305   2.951
27945SOL    HW185769   8.115   8.400   2.932
27945SOL    HW285770   8.015   8.303   3.017
27946SOL     OW85771   8.715   8.286   2.863
27946SOL    HW185772   8.624   8.262   2.830
27946SOL    HW285773   8.782   8.219   2.830
27947SOL     OW85774   8.656   7.959   2.113
27947SOL    HW185775   8.680   7.885   2.175
27947SOL    HW285776   8.611   8.032   2.165
27948SOL     OW85777   7.751   7.624   3.073
27948SOL    HW185778   7.713   7.648   3.162
27948SOL    HW285779   7.738   7.526   3.057
27949SOL     OW85780   7.503   8.752   3.149
27949SOL    HW185781   7.532   8.702   3.230
27949SOL    HW285782   7.500   8.850   3.168
27950SOL     OW85783   8.161   8.035   2.926
27950SOL    HW185784   8.239   8.017   2.865
27950SOL    HW285785   8.141   8.133   2.928
27951SOL     OW85786   9.190   8.437   3.725
27951SOL    HW185787   9.145   8.367   3.669
27951SOL    HW285788   9.124   8.477   3.788
27952SOL     OW85789   7.729   7.481   2.530
27952SOL    HW185790   7.710   7.578   2.544
27952SOL    HW285791   7.756   7.440   2.617
27953SOL     OW85792   9.057   7.816   2.189
27953SOL    HW185793   9.104   7.747   2.245
27953SOL    HW285794   9.016   7.885   2.250
27954SOL     OW85795   8.455   8.213   2.794
27954SOL    HW185796   8.432   8.241   2.887
27954SOL    HW285797   8.426   8.118   2.780
27955SOL     OW85798   8.349   9.026   3.538
27955SOL    HW185799   8.357   9.068   3.447
27955SOL    HW285800   8.406   8.944   3.542
27956SOL     OW85801   9.317   8.926   3.430
27956SOL    HW185802   9.341   8.958   3.339
27956SOL    HW285803   9.398   8.926   3.489
27957SOL     OW85804   7.803   8.393   3.706
27957SOL    HW185805   7.878   8.407   3.771
27957SOL    HW285806   7.836   8.337   3.630
27958SOL     OW85807   8.945   7.685   1.959
27958SOL    HW185808   8.894   7.609   2.000
27958SOL    HW285809   8.987   7.739   2.032
27959SOL     OW85810   8.700   8.239   1.892
27959SOL    HW185811   8.733   8.145   1.898
27959SOL    HW285812   8.739   8.283   1.811
27960SOL     OW85813   8.509   8.828   2.722
27960SOL    HW185814   8.547   8.746   2.678
27960SOL    HW285815   8.561   8.908   2.692
27961SOL     OW85816   7.823   8.277   2.802
27961SOL    HW185817   7.921   8.268   2.823
27961SOL    HW285818   7.779   8.188   2.810
27962SOL     OW85819   7.739   8.002   2.840
27962SOL    HW185820   7.698   7.911   2.840
27962SOL    HW285821   7.823   8.000   2.786
27963SOL     OW85822   7.486   8.763   2.028
27963SOL    HW185823   7.395   8.794   2.000
27963SOL    HW285824   7.478   8.675   2.074
27964SOL     OW85825   7.515   9.247   2.827
27964SOL    HW185826   7.476   9.164   2.785
27964SOL    HW285827   7.607   9.262   2.791
27965SOL     OW85828   7.890   9.006   2.759
27965SOL    HW185829   7.968   9.059   2.792
27965SOL    HW285830   7.920   8.948   2.683
27966SOL     OW85831   8.371   8.284   3.036
27966SOL    HW185832   8.420   8.244   3.114
27966SOL    HW285833   8.273   8.266   3.046
27967SOL     OW85834   7.486   8.084   2.945
27967SOL    HW185835   7.569   8.065   2.892
27967SOL    HW285836   7.510   8.099   3.041
27968SOL     OW85837   7.647   8.027   3.592
27968SOL    HW185838   7.651   7.951   3.527
27968SOL    HW285839   7.612   8.108   3.546
27969SOL     OW85840   8.828   8.375   3.479
27969SOL    HW185841   8.846   8.473   3.477
27969SOL    HW285842   8.815   8.342   3.386
27970SOL     OW85843   8.278   8.039   2.187
27970SOL    HW185844   8.279   7.946   2.149
27970SOL    HW285845   8.187   8.079   2.174
27971SOL     OW85846   9.062   8.068   2.982
27971SOL    HW185847   9.042   8.005   3.057
27971SOL    HW285848   9.160   8.069   2.964
27972SOL     OW85849   7.653   8.973   3.585
27972SOL    HW185850   7.628   9.049   3.646
27972SOL    HW285851   7.658   8.888   3.639
27973SOL     OW85852   8.177   7.836   3.113
27973SOL    HW185853   8.119   7.758   3.090
27973SOL    HW285854   8.164   7.908   3.045
27974SOL     OW85855   8.396   9.109   3.277
27974SOL    HW185856   8.359   9.060   3.197
27974SOL    HW285857   8.388   9.207   3.261
27975SOL     OW85858   7.867   7.922   2.160
27975SOL    HW185859   7.942   7.987   2.145
27975SOL    HW285860   7.780   7.968   2.145
27976SOL     OW85861   7.584   8.601   3.366
27976SOL    HW185862   7.586   8.558   3.456
27976SOL    HW285863   7.622   8.539   3.298
27977SOL     OW85864   8.698   8.480   3.055
27977SOL    HW185865   8.706   8.411   2.983
27977SOL    HW285866   8.662   8.565   3.016
27978SOL     OW85867   8.779   8.282   2.153
27978SOL    HW185868   8.712   8.248   2.220
27978SOL    HW285869   8.747   8.261   2.061
27979SOL     OW85870   9.199   9.148   2.999
27979SOL    HW185871   9.262   9.176   2.926
27979SOL    HW285872   9.167   9.055   2.981
27980SOL     OW85873   8.718   9.187   2.906
27980SOL    HW185874   8.806   9.234   2.909
27980SOL    HW285875   8.728   9.093   2.937
27981SOL     OW85876   7.588   8.618   2.933
27981SOL    HW185877   7.554   8.671   3.011
27981SOL    HW285878   7.511   8.571   2.889
27982SOL     OW85879   8.171   9.184   3.691
27982SOL    HW185880   8.102   9.232   3.638
27982SOL    HW285881   8.235   9.138   3.628
27983SOL     OW85882   9.215   7.640   2.332
27983SOL    HW185883   9.277   7.611   2.260
27983SOL    HW285884   9.171   7.560   2.372
27984SOL     OW85885   7.569   9.199   3.719
27984SOL    HW185886   7.521   9.131   3.775
27984SOL    HW285887   7.622   9.259   3.778
27985SOL     OW85888   8.720   8.392   2.499
27985SOL    HW185889   8.789   8.322   2.515
27985SOL    HW285890   8.764   8.474   2.463
27986SOL     OW85891   8.192   8.703   3.284
27986SOL    HW185892   8.176   8.750   3.370
27986SOL    HW285893   8.114   8.718   3.223
27987SOL     OW85894   8.104   9.069   2.062
27987SOL    HW185895   8.136   9.118   1.981
27987SOL    HW285896   8.035   9.002   2.036
27988SOL     OW85897   9.035   9.176   3.229
27988SOL    HW185898   9.095   9.164   3.150
27988SOL    HW285899   9.003   9.271   3.233
27989SOL     OW85900   9.279   7.618   2.859
27989SOL    HW185901   9.317   7.532   2.826
27989SOL    HW285902   9.196   7.639   2.809
27990SOL     OW85903   7.663   7.741   2.586
27990SOL    HW185904   7.569   7.761   2.560
27990SOL    HW285905   7.672   7.745   2.686
27991SOL     OW85906   8.564   8.989   1.853
27991SOL    HW185907   8.546   8.908   1.910
27991SOL    HW285908   8.488   9.004   1.791
27992SOL     OW85909   8.250   8.447   3.244
27992SOL    HW185910   8.305   8.440   3.160
27992SOL    HW285911   8.227   8.543   3.261
27993SOL     OW85912   8.401   8.363   2.145
27993SOL    HW185913   8.467   8.415   2.092
27993SOL    HW285914   8.447   8.286   2.190
27994SOL     OW85915   7.841   8.732   3.383
27994SOL    HW185916   7.883   8.737   3.292
27994SOL    HW285917   7.747   8.699   3.374
27995SOL     OW85918   8.998   8.742   3.151
27995SOL    HW185919   9.055   8.720   3.230
27995SOL    HW285920   8.932   8.813   3.176
27996SOL     OW85921   8.574   8.569   2.655
27996SOL    HW185922   8.485   8.534   2.682
27996SOL    HW285923   8.618   8.504   2.593
27997SOL     OW85924   8.445   7.699   2.798
27997SOL    HW185925   8.373   7.668   2.736
27997SOL    HW285926   8.493   7.620   2.835
27998SOL     OW85927   7.988   8.875   2.301
27998SOL    HW185928   8.065   8.820   2.271
27998SOL    HW285929   7.916   8.873   2.232
27999SOL     OW85930   9.245   7.791   3.311
27999SOL    HW185931   9.283   7.878   3.279
27999SOL    HW285932   9.251   7.722   3.239
28000SOL     OW85933   7.731   8.810   2.153
28000SOL    HW185934   7.646   8.792   2.103
28000SOL    HW285935   7.710   8.858   2.237
28001SOL     OW85936   7.569   8.494   3.616
28001SOL    HW185937   7.487   8.469   3.667
28001SOL    HW285938   7.649   8.451   3.658
28002SOL     OW85939   8.107   7.715   3.366
28002SOL    HW185940   8.150   7.761   3.288
28002SOL    HW285941   8.144   7.752   3.451
28003SOL     OW85942   7.556   7.798   1.890
28003SOL    HW185943   7.474   7.798   1.833
28003SOL    HW285944   7.597   7.889   1.889
28004SOL     OW85945   8.820   8.296   3.218
28004SOL    HW185946   8.760   8.357   3.166
28004SOL    HW285947   8.913   8.302   3.182
28005SOL     OW85948   7.519   7.605   2.091
28005SOL    HW185949   7.511   7.677   2.023
28005SOL    HW285950   7.609   7.561   2.083
28006SOL     OW85951   8.504   8.755   1.970
28006SOL    HW185952   8.405   8.757   1.972
28006SOL    HW285953   8.536   8.661   1.982
28007SOL     OW85954   8.085   8.250   3.330
28007SOL    HW185955   8.139   8.331   3.308
28007SOL    HW285956   8.141   8.168   3.319
28008SOL     OW85957   8.968   9.296   2.915
28008SOL    HW185958   8.998   9.366   2.851
28008SOL    HW285959   9.046   9.244   2.948
28009SOL     OW85960   8.222   7.950   3.542
28009SOL    HW185961   8.250   8.031   3.594
28009SOL    HW285962   8.269   7.869   3.579
28010SOL     OW85963   8.890   8.642   3.468
28010SOL    HW185964   8.878   8.674   3.562
28010SOL    HW285965   8.982   8.666   3.436
28011SOL     OW85966   7.796   9.186   3.472
28011SOL    HW185967   7.711   9.235   3.453
28011SOL    HW285968   7.775   9.092   3.500
28012SOL     OW85969   9.063   8.323   3.096
28012SOL    HW185970   9.064   8.240   3.040
28012SOL    HW285971   9.044   8.402   3.038
28013SOL     OW85972   8.699   7.779   2.311
28013SOL    HW185973   8.757   7.698   2.323
28013SOL    HW285974   8.707   7.838   2.391
28014SOL     OW85975   8.094   8.160   2.515
28014SOL    HW185976   8.134   8.251   2.524
28014SOL    HW285977   8.012   8.164   2.459
28015SOL     OW85978   9.131   7.810   3.561
28015SOL    HW185979   9.172   7.808   3.470
28015SOL    HW285980   9.044   7.760   3.560
28016SOL     OW85981   9.206   8.334   3.329
28016SOL    HW185982   9.250   8.424   3.327
28016SOL    HW285983   9.154   8.321   3.245
28017SOL     OW85984   8.232   8.795   1.984
28017SOL    HW185985   8.218   8.764   2.078
28017SOL    HW285986   8.206   8.891   1.976
28018SOL     OW85987   8.093   9.172   2.823
28018SOL    HW185988   8.065   9.267   2.831
28018SOL    HW285989   8.191   9.168   2.802
28019SOL     OW85990   8.334   8.459   2.735
28019SOL    HW185991   8.372   8.369   2.757
28019SOL    HW285992   8.283   8.494   2.814
28020SOL     OW85993   8.571   8.473   1.951
28020SOL    HW185994   8.486   8.480   1.899
28020SOL    HW285995   8.612   8.384   1.936
28021SOL     OW85996   9.343   8.957   2.739
28021SOL    HW185997   9.263   8.964   2.680
28021SOL    HW285998   9.348   8.866   2.779
28022SOL     OW85999   7.642   8.735   3.719
28022SOL    HW186000   7.622   8.651   3.668
28022SOL    HW286001   7.579   8.742   3.796
28023SOL     OW86002   7.619   8.687   2.539
28023SOL    HW186003   7.650   8.632   2.617
28023SOL    HW286004   7.664   8.653   2.456
28024SOL     OW86005   8.143   8.842   3.507
28024SOL    HW186006   8.064   8.842   3.567
28024SOL    HW286007   8.203   8.919   3.529
28025SOL     OW86008   9.249   7.599   3.127
28025SOL    HW186009   9.218   7.504   3.135
28025SOL    HW286010   9.263   7.620   3.030
28026SOL     OW86011   7.770   7.935   2.421
28026SOL    HW186012   7.813   7.899   2.337
28026SOL    HW286013   7.751   7.859   2.483
28027SOL     OW86014   9.112   8.902   2.959
28027SOL    HW186015   9.056   8.888   2.877
28027SOL    HW286016   9.082   8.838   3.030
28028SOL     OW86017   7.800   8.038   3.108
28028SOL    HW186018   7.835   7.960   3.161
28028SOL    HW286019   7.788   8.011   3.013
28029SOL     OW86020   8.225   8.995   2.549
28029SOL    HW186021   8.234   9.034   2.457
28029SOL    HW286022   8.140   8.942   2.554
28030SOL     OW86023   8.849   7.692   2.963
28030SOL    HW186024   8.877   7.597   2.969
28030SOL    HW286025   8.800   7.718   3.046
28031SOL     OW86026   8.562   7.491   2.919
28031SOL    HW186027   8.537   7.472   3.014
28031SOL    HW286028   8.631   7.424   2.889
28032SOL     OW86029   8.201   8.717   2.237
28032SOL    HW186030   8.191   8.618   2.247
28032SOL    HW286031   8.283   8.748   2.285
28033SOL     OW86032   8.053   9.010   3.168
28033SOL    HW186033   8.056   9.078   3.241
28033SOL    HW286034   8.143   9.003   3.126
28034SOL     OW86035   8.823   7.464   2.074
28034SOL    HW186036   8.872   7.394   2.023
28034SOL    HW286037   8.729   7.434   2.090
28035SOL     OW86038   8.704   7.939   2.527
28035SOL    HW186039   8.653   8.025   2.525
28035SOL    HW286040   8.709   7.904   2.620
28036SOL     OW86041   9.036   7.676   2.757
28036SOL    HW186042   8.967   7.699   2.825
28036SOL    HW286043   9.039   7.747   2.686
28037SOL     OW86044   7.495   8.502   2.116
28037SOL    HW186045   7.583   8.459   2.138
28037SOL    HW286046   7.452   8.454   2.040
28038SOL     OW86047   8.264   9.098   2.296
28038SOL    HW186048   8.207   9.082   2.216
28038SOL    HW286049   8.273   9.196   2.312
28039SOL     OW86050   7.679   8.116   3.864
28039SOL    HW186051   7.588   8.089   3.895
28039SOL    HW286052   7.682   8.114   3.764
28040SOL     OW86053   7.660   7.736   4.762
28040SOL    HW186054   7.721   7.690   4.826
28040SOL    HW286055   7.571   7.691   4.763
28041SOL     OW86056   7.457   7.889   4.374
28041SOL    HW186057   7.368   7.895   4.419
28041SOL    HW286058   7.450   7.832   4.293
28042SOL     OW86059   8.018   8.780   4.981
28042SOL    HW186060   7.936   8.783   4.924
28042SOL    HW286061   8.044   8.873   5.007
28043SOL     OW86062   8.558   8.156   4.387
28043SOL    HW186063   8.595   8.248   4.383
28043SOL    HW286064   8.501   8.146   4.469
28044SOL     OW86065   9.192   8.033   3.943
28044SOL    HW186066   9.151   8.052   3.854
28044SOL    HW286067   9.151   7.950   3.982
28045SOL     OW86068   8.147   8.613   4.794
28045SOL    HW186069   8.099   8.649   4.873
28045SOL    HW286070   8.184   8.688   4.740
28046SOL     OW86071   8.248   8.179   5.594
28046SOL    HW186072   8.272   8.231   5.676
28046SOL    HW286073   8.177   8.228   5.543
28047SOL     OW86074   8.122   8.426   4.405
28047SOL    HW186075   8.193   8.438   4.473
28047SOL    HW286076   8.052   8.497   4.417
28048SOL     OW86077   8.147   8.603   5.541
28048SOL    HW186078   8.208   8.670   5.582
28048SOL    HW286079   8.064   8.648   5.508
28049SOL     OW86080   7.799   8.845   4.826
28049SOL    HW186081   7.723   8.788   4.796
28049SOL    HW286082   7.837   8.894   4.747
28050SOL     OW86083   8.868   8.983   5.117
28050SOL    HW186084   8.927   9.060   5.140
28050SOL    HW286085   8.787   8.984   5.176
28051SOL     OW86086   7.896   7.925   5.385
28051SOL    HW186087   7.985   7.918   5.430
28051SOL    HW286088   7.885   7.848   5.322
28052SOL     OW86089   9.051   7.907   4.457
28052SOL    HW186090   9.028   7.934   4.364
28052SOL    HW286091   9.000   7.964   4.522
28053SOL     OW86092   7.690   9.199   4.212
28053SOL    HW186093   7.712   9.268   4.281
28053SOL    HW286094   7.759   9.200   4.140
28054SOL     OW86095   8.556   8.768   5.421
28054SOL    HW186096   8.604   8.751   5.507
28054SOL    HW286097   8.497   8.690   5.400
28055SOL     OW86098   7.635   8.933   4.253
28055SOL    HW186099   7.655   9.031   4.255
28055SOL    HW286100   7.618   8.901   4.346
28056SOL     OW86101   7.726   8.536   4.604
28056SOL    HW186102   7.725   8.437   4.621
28056SOL    HW286103   7.685   8.584   4.681
28057SOL     OW86104   8.016   9.307   5.132
28057SOL    HW186105   7.945   9.271   5.192
28057SOL    HW286106   8.072   9.374   5.182
28058SOL     OW86107   8.003   8.440   3.916
28058SOL    HW186108   8.049   8.491   3.843
28058SOL    HW286109   8.052   8.454   4.002
28059SOL     OW86110   9.150   7.534   5.263
28059SOL    HW186111   9.184   7.615   5.217
28059SOL    HW286112   9.079   7.560   5.329
28060SOL     OW86113   7.549   8.142   4.310
28060SOL    HW186114   7.521   8.052   4.343
28060SOL    HW286115   7.525   8.211   4.378
28061SOL     OW86116   9.335   9.131   4.150
28061SOL    HW186117   9.431   9.143   4.177
28061SOL    HW286118   9.294   9.221   4.132
28062SOL     OW86119   7.472   9.006   3.876
28062SOL    HW186120   7.451   8.909   3.894
28062SOL    HW286121   7.467   9.057   3.962
28063SOL     OW86122   9.135   8.295   4.368
28063SOL    HW186123   9.210   8.298   4.434
28063SOL    HW286124   9.171   8.287   4.276
28064SOL     OW86125   9.072   8.587   4.147
28064SOL    HW186126   9.160   8.549   4.119
28064SOL    HW286127   9.079   8.621   4.241
28065SOL     OW86128   7.611   8.184   5.317
28065SOL    HW186129   7.710   8.202   5.317
28065SOL    HW286130   7.562   8.267   5.343
28066SOL     OW86131   8.042   8.845   4.433
28066SOL    HW186132   8.004   8.754   4.448
28066SOL    HW286133   8.033   8.870   4.336
28067SOL     OW86134   8.686   8.667   5.139
28067SOL    HW186135   8.700   8.595   5.070
28067SOL    HW286136   8.756   8.659   5.210
28068SOL     OW86137   8.279   7.490   4.228
28068SOL    HW186138   8.325   7.574   4.201
28068SOL    HW286139   8.181   7.508   4.239
28069SOL     OW86140   7.625   8.417   5.037
28069SOL    HW186141   7.717   8.382   5.019
28069SOL    HW286142   7.557   8.357   4.995
28070SOL     OW86143   8.989   8.535   3.893
28070SOL    HW186144   8.921   8.464   3.906
28070SOL    HW286145   9.023   8.566   3.982
28071SOL     OW86146   8.613   9.246   5.355
28071SOL    HW186147   8.630   9.315   5.286
28071SOL    HW286148   8.620   9.155   5.314
28072SOL     OW86149   7.777   7.708   5.613
28072SOL    HW186150   7.819   7.786   5.660
28072SOL    HW286151   7.680   7.727   5.598
28073SOL     OW86152   8.851   8.919   4.650
28073SOL    HW186153   8.800   8.917   4.735
28073SOL    HW286154   8.864   8.826   4.616
28074SOL     OW86155   8.017   8.152   4.040
28074SOL    HW186156   8.023   8.241   3.995
28074SOL    HW286157   7.942   8.153   4.106
28075SOL     OW86158   8.716   7.827   4.634
28075SOL    HW186159   8.631   7.776   4.638
28075SOL    HW286160   8.783   7.785   4.696
28076SOL     OW86161   8.874   7.916   5.390
28076SOL    HW186162   8.933   7.970   5.449
28076SOL    HW286163   8.904   7.820   5.392
28077SOL     OW86164   8.452   7.864   4.822
28077SOL    HW186165   8.394   7.858   4.903
28077SOL    HW286166   8.456   7.775   4.777
28078SOL     OW86167   8.486   8.110   4.128
28078SOL    HW186168   8.519   8.125   4.222
28078SOL    HW286169   8.393   8.072   4.131
28079SOL     OW86170   7.478   8.328   4.506
28079SOL    HW186171   7.566   8.299   4.546
28079SOL    HW286172   7.443   8.407   4.557
28080SOL     OW86173   8.292   7.813   3.953
28080SOL    HW186174   8.348   7.857   3.883
28080SOL    HW286175   8.239   7.739   3.911
28081SOL     OW86176   9.082   8.033   5.539
28081SOL    HW186177   9.092   8.113   5.480
28081SOL    HW286178   9.137   7.958   5.503
28082SOL     OW86179   8.797   8.592   4.198
28082SOL    HW186180   8.892   8.584   4.170
28082SOL    HW286181   8.759   8.677   4.161
28083SOL     OW86182   8.454   8.902   4.207
28083SOL    HW186183   8.406   8.978   4.163
28083SOL    HW286184   8.438   8.905   4.306
28084SOL     OW86185   7.805   9.243   4.624
28084SOL    HW186186   7.842   9.150   4.623
28084SOL    HW286187   7.877   9.308   4.650
28085SOL     OW86188   9.220   8.540   4.618
28085SOL    HW186189   9.178   8.572   4.534
28085SOL    HW286190   9.153   8.541   4.692
28086SOL     OW86191   8.622   8.976   5.242
28086SOL    HW186192   8.619   8.901   5.308
28086SOL    HW286193   8.561   8.956   5.166
28087SOL     OW86194   7.739   8.380   4.009
28087SOL    HW186195   7.826   8.413   3.973
28087SOL    HW286196   7.716   8.293   3.965
28088SOL     OW86197   8.882   8.215   4.401
28088SOL    HW186198   8.877   8.159   4.484
28088SOL    HW286199   8.974   8.252   4.392
28089SOL     OW86200   7.929   8.754   5.471
28089SOL    HW186201   7.867   8.762   5.393
28089SOL    HW286202   7.878   8.765   5.556
28090SOL     OW86203   8.510   9.213   3.978
28090SOL    HW186204   8.447   9.200   4.055
28090SOL    HW286205   8.489   9.146   3.907
28091SOL     OW86206   7.765   7.724   5.182
28091SOL    HW186207   7.703   7.802   5.178
28091SOL    HW286208   7.721   7.648   5.230
28092SOL     OW86209   9.092   8.872   3.791
28092SOL    HW186210   9.084   8.969   3.769
28092SOL    HW286211   9.009   8.824   3.761
28093SOL     OW86212   7.897   9.248   4.034
28093SOL    HW186213   7.939   9.300   4.108
28093SOL    HW286214   7.964   9.187   3.993
28094SOL     OW86215   8.840   7.537   4.174
28094SOL    HW186216   8.831   7.510   4.078
28094SOL    HW286217   8.934   7.520   4.204
28095SOL     OW86218   7.668   9.255   4.957
28095SOL    HW186219   7.723   9.178   4.990
28095SOL    HW286220   7.640   9.238   4.863
28096SOL     OW86221   8.384   9.142   4.597
28096SOL    HW186222   8.477   9.107   4.611
28096SOL    HW286223   8.338   9.089   4.526
28097SOL     OW86224   7.815   8.111   4.228
28097SOL    HW186225   7.823   8.011   4.233
28097SOL    HW286226   7.720   8.137   4.246
28098SOL     OW86227   8.956   7.649   5.434
28098SOL    HW186228   8.964   7.650   5.533
28098SOL    HW286229   8.880   7.589   5.408
28099SOL     OW86230   8.150   7.601   3.853
28099SOL    HW186231   8.214   7.524   3.855
28099SOL    HW286232   8.090   7.594   3.774
28100SOL     OW86233   8.276   7.706   5.605
28100SOL    HW186234   8.354   7.663   5.560
28100SOL    HW286235   8.214   7.634   5.639
28101SOL     OW86236   8.284   8.966   4.914
28101SOL    HW186237   8.267   8.926   4.824
28101SOL    HW286238   8.355   8.914   4.961
28102SOL     OW86239   8.729   8.038   5.174
28102SOL    HW186240   8.786   8.004   5.248
28102SOL    HW286241   8.758   8.130   5.148
28103SOL     OW86242   8.239   8.833   4.666
28103SOL    HW186243   8.333   8.832   4.634
28103SOL    HW286244   8.178   8.850   4.588
28104SOL     OW86245   8.398   8.032   4.604
28104SOL    HW186246   8.369   7.977   4.526
28104SOL    HW286247   8.420   7.971   4.681
28105SOL     OW86248   8.009   7.541   4.244
28105SOL    HW186249   7.930   7.536   4.304
28105SOL    HW286250   7.995   7.613   4.176
28106SOL     OW86251   8.867   8.717   3.731
28106SOL    HW186252   8.912   8.648   3.787
28106SOL    HW286253   8.779   8.742   3.772
28107SOL     OW86254   7.746   7.495   3.897
28107SOL    HW186255   7.788   7.575   3.855
28107SOL    HW286256   7.813   7.450   3.957
28108SOL     OW86257   8.417   7.716   4.174
28108SOL    HW186258   8.374   7.753   4.092
28108SOL    HW286259   8.516   7.727   4.168
28109SOL     OW86260   8.642   9.038   4.519
28109SOL    HW186261   8.661   9.111   4.453
28109SOL    HW286262   8.727   9.007   4.561
28110SOL     OW86263   7.917   8.604   4.426
28110SOL    HW186264   7.854   8.579   4.500
28110SOL    HW286265   7.869   8.600   4.338
28111SOL     OW86266   8.685   9.245   4.340
28111SOL    HW186267   8.730   9.308   4.276
28111SOL    HW286268   8.605   9.290   4.380
28112SOL     OW86269   8.458   7.934   3.769
28112SOL    HW186270   8.435   8.024   3.731
28112SOL    HW286271   8.535   7.944   3.832
28113SOL     OW86272   7.603   7.971   5.141
28113SOL    HW186273   7.688   7.987   5.091
28113SOL    HW286274   7.589   8.044   5.208
28114SOL     OW86275   8.309   7.883   4.370
28114SOL    HW186276   8.271   7.945   4.301
28114SOL    HW286277   8.363   7.812   4.324
28115SOL     OW86278   8.452   7.485   4.444
28115SOL    HW186279   8.395   7.495   4.363
28115SOL    HW286280   8.417   7.410   4.500
28116SOL     OW86281   8.893   8.660   4.565
28116SOL    HW186282   8.817   8.605   4.529
28116SOL    HW286283   8.967   8.663   4.497
28117SOL     OW86284   8.877   8.062   4.628
28117SOL    HW186285   8.812   7.987   4.642
28117SOL    HW286286   8.937   8.070   4.707
28118SOL     OW86287   9.254   8.219   4.132
28118SOL    HW186288   9.327   8.180   4.188
28118SOL    HW286289   9.234   8.158   4.056
28119SOL     OW86290   7.925   8.887   3.910
28119SOL    HW186291   7.838   8.856   3.950
28119SOL    HW286292   7.934   8.848   3.818
28120SOL     OW86293   9.120   8.684   4.398
28120SOL    HW186294   9.218   8.678   4.381
28120SOL    HW286295   9.088   8.777   4.382
28121SOL     OW86296   8.799   8.034   3.750
28121SOL    HW186297   8.757   7.999   3.834
28121SOL    HW286298   8.898   8.031   3.758
28122SOL     OW86299   7.978   7.710   4.037
28122SOL    HW186300   8.042   7.670   3.972
28122SOL    HW286301   7.938   7.794   3.998
28123SOL     OW86302   9.162   8.692   5.232
28123SOL    HW186303   9.249   8.644   5.216
28123SOL    HW286304   9.179   8.775   5.284
28124SOL     OW86305   8.458   8.800   5.067
28124SOL    HW186306   8.375   8.763   5.107
28124SOL    HW286307   8.538   8.752   5.103
28125SOL     OW86308   9.047   9.089   5.428
28125SOL    HW186309   9.038   9.124   5.335
28125SOL    HW286310   9.116   9.016   5.430
28126SOL     OW86311   8.569   8.706   4.833
28126SOL    HW186312   8.507   8.735   4.905
28126SOL    HW286313   8.538   8.742   4.745
28127SOL     OW86314   9.020   8.590   4.803
28127SOL    HW186315   9.019   8.663   4.871
28127SOL    HW286316   8.959   8.615   4.727
28128SOL     OW86317   8.430   7.582   5.049
28128SOL    HW186318   8.458   7.522   4.975
28128SOL    HW286319   8.511   7.610   5.102
28129SOL     OW86320   8.381   8.543   5.409
28129SOL    HW186321   8.293   8.565   5.450
28129SOL    HW286322   8.366   8.493   5.323
28130SOL     OW86323   8.165   8.466   4.137
28130SOL    HW186324   8.150   8.444   4.233
28130SOL    HW286325   8.247   8.419   4.104
28131SOL     OW86326   7.868   8.296   4.998
28131SOL    HW186327   7.941   8.306   5.064
28131SOL    HW286328   7.840   8.200   4.993
28132SOL     OW86329   8.691   7.849   4.976
28132SOL    HW186330   8.707   7.927   5.037
28132SOL    HW286331   8.613   7.868   4.917
28133SOL     OW86332   7.529   9.019   5.134
28133SOL    HW186333   7.482   9.090   5.081
28133SOL    HW286334   7.627   9.022   5.114
28134SOL     OW86335   7.758   8.587   4.201
28134SOL    HW186336   7.751   8.664   4.138
28134SOL    HW286337   7.752   8.501   4.149
28135SOL     OW86338   7.951   8.015   4.616
28135SOL    HW186339   7.958   8.094   4.554
28135SOL    HW286340   8.022   7.948   4.592
28136SOL     OW86341   8.698   8.839   4.104
28136SOL    HW186342   8.763   8.903   4.145
28136SOL    HW286343   8.607   8.856   4.143
28137SOL     OW86344   8.726   8.928   4.888
28137SOL    HW186345   8.776   8.940   4.974
28137SOL    HW286346   8.678   8.840   4.889
28138SOL     OW86347   8.994   8.030   4.215
28138SOL    HW186348   8.920   8.079   4.261
28138SOL    HW286349   9.058   8.096   4.176
28139SOL     OW86350   7.789   9.014   5.036
28139SOL    HW186351   7.779   8.951   4.959
28139SOL    HW286352   7.886   9.035   5.049
28140SOL     OW86353   7.884   8.197   5.353
28140SOL    HW186354   7.954   8.227   5.288
28140SOL    HW286355   7.891   8.098   5.366
28141SOL     OW86356   9.074   8.255   5.384
28141SOL    HW186357   8.979   8.283   5.390
28141SOL    HW286358   9.116   8.296   5.302
28142SOL     OW86359   8.507   7.615   5.490
28142SOL    HW186360   8.544   7.705   5.468
28142SOL    HW286361   8.578   7.546   5.479
28143SOL     OW86362   7.926   7.504   5.509
28143SOL    HW186363   7.882   7.444   5.443
28143SOL    HW286364   7.868   7.584   5.526
28144SOL     OW86365   8.039   8.356   4.784
28144SOL    HW186366   8.070   8.451   4.783
28144SOL    HW286367   7.964   8.346   4.850
28145SOL     OW86368   8.747   8.303   4.730
28145SOL    HW186369   8.649   8.297   4.710
28145SOL    HW286370   8.795   8.228   4.685
28146SOL     OW86371   8.645   7.957   3.967
28146SOL    HW186372   8.671   7.878   4.023
28146SOL    HW286373   8.595   8.023   4.023
28147SOL     OW86374   7.821   7.588   4.942
28147SOL    HW186375   7.818   7.641   5.026
28147SOL    HW286376   7.765   7.506   4.953
28148SOL     OW86377   7.518   8.763   5.030
28148SOL    HW186378   7.530   8.696   5.103
28148SOL    HW286379   7.511   8.854   5.069
28149SOL     OW86380   8.198   8.139   4.796
28149SOL    HW186381   8.228   8.100   4.709
28149SOL    HW286382   8.135   8.215   4.777
28150SOL     OW86383   9.194   8.426   5.559
28150SOL    HW186384   9.159   8.358   5.494
28150SOL    HW286385   9.128   8.439   5.633
28151SOL     OW86386   7.778   7.516   4.393
28151SOL    HW186387   7.737   7.604   4.416
28151SOL    HW286388   7.785   7.459   4.475
28152SOL     OW86389   9.039   7.821   4.037
28152SOL    HW186390   9.103   7.762   4.087
28152SOL    HW286391   8.999   7.887   4.101
28153SOL     OW86392   8.475   8.273   4.706
28153SOL    HW186393   8.453   8.282   4.803
28153SOL    HW286394   8.445   8.184   4.672
28154SOL     OW86395   8.431   8.997   5.497
28154SOL    HW186396   8.402   9.061   5.426
28154SOL    HW286397   8.467   8.914   5.454
28155SOL     OW86398   9.263   8.928   5.336
28155SOL    HW186399   9.284   8.962   5.244
28155SOL    HW286400   9.342   8.943   5.395
28156SOL     OW86401   7.812   8.347   5.573
28156SOL    HW186402   7.895   8.379   5.619
28156SOL    HW286403   7.837   8.293   5.493
28157SOL     OW86404   8.904   7.693   3.817
28157SOL    HW186405   8.863   7.612   3.857
28157SOL    HW286406   8.951   7.746   3.888
28158SOL     OW86407   8.700   8.280   3.699
28158SOL    HW186408   8.731   8.185   3.711
28158SOL    HW286409   8.741   8.318   3.616
28159SOL     OW86410   8.497   8.819   4.593
28159SOL    HW186411   8.513   8.738   4.536
28159SOL    HW286412   8.552   8.895   4.558
28160SOL     OW86413   7.720   8.258   4.613
28160SOL    HW186414   7.802   8.251   4.557
28160SOL    HW286415   7.712   8.176   4.671
28161SOL     OW86416   7.721   7.999   4.745
28161SOL    HW186417   7.690   7.904   4.747
28161SOL    HW286418   7.807   8.005   4.694
28162SOL     OW86419   8.612   7.855   5.414
28162SOL    HW186420   8.560   7.930   5.454
28162SOL    HW286421   8.709   7.879   5.411
28163SOL     OW86422   8.643   7.684   5.190
28163SOL    HW186423   8.625   7.745   5.267
28163SOL    HW286424   8.671   7.738   5.110
28164SOL     OW86425   7.454   8.717   3.923
28164SOL    HW186426   7.363   8.743   3.892
28164SOL    HW286427   7.453   8.623   3.957
28165SOL     OW86428   7.548   9.217   4.709
28165SOL    HW186429   7.498   9.145   4.660
28165SOL    HW286430   7.639   9.227   4.668
28166SOL     OW86431   7.927   8.996   4.632
28166SOL    HW186432   8.003   9.052   4.665
28166SOL    HW286433   7.957   8.941   4.554
28167SOL     OW86434   8.375   8.264   4.961
28167SOL    HW186435   8.420   8.196   5.020
28167SOL    HW286436   8.303   8.219   4.907
28168SOL     OW86437   7.477   8.038   4.891
28168SOL    HW186438   7.554   8.036   4.829
28168SOL    HW286439   7.507   8.015   4.984
28169SOL     OW86440   7.661   7.998   5.512
28169SOL    HW186441   7.748   7.964   5.478
28169SOL    HW286442   7.625   8.066   5.449
28170SOL     OW86443   8.823   8.366   5.362
28170SOL    HW186444   8.847   8.463   5.359
28170SOL    HW286445   8.805   8.333   5.270
28171SOL     OW86446   8.232   8.009   4.135
28171SOL    HW186447   8.243   7.934   4.070
28171SOL    HW286448   8.157   8.067   4.106
28172SOL     OW86449   9.049   8.088   4.835
28172SOL    HW186450   9.038   8.020   4.907
28172SOL    HW286451   9.144   8.120   4.833
28173SOL     OW86452   8.100   8.000   5.005
28173SOL    HW186453   8.164   7.927   5.028
28173SOL    HW286454   8.132   8.046   4.922
28174SOL     OW86455   8.310   9.150   5.289
28174SOL    HW186456   8.264   9.091   5.223
28174SOL    HW286457   8.346   9.231   5.242
28175SOL     OW86458   7.886   7.941   3.910
28175SOL    HW186459   7.960   7.999   3.944
28175SOL    HW286460   7.804   7.996   3.896
28176SOL     OW86461   7.567   8.582   5.237
28176SOL    HW186462   7.568   8.532   5.324
28176SOL    HW286463   7.589   8.520   5.162
28177SOL     OW86464   8.694   8.484   4.928
28177SOL    HW186465   8.725   8.421   4.857
28177SOL    HW286466   8.647   8.561   4.885
28178SOL     OW86467   8.796   8.358   3.942
28178SOL    HW186468   8.728   8.352   4.015
28178SOL    HW286469   8.756   8.327   3.856
28179SOL     OW86470   9.228   9.182   4.917
28179SOL    HW186471   9.300   9.202   4.850
28179SOL    HW286472   9.162   9.120   4.877
28180SOL     OW86473   8.666   9.194   4.838
28180SOL    HW186474   8.756   9.229   4.813
28180SOL    HW286475   8.673   9.096   4.856
28181SOL     OW86476   7.582   8.683   4.780
28181SOL    HW186477   7.554   8.708   4.873
28181SOL    HW286478   7.505   8.638   4.734
28182SOL     OW86479   8.149   9.131   5.510
28182SOL    HW186480   8.079   9.202   5.507
28182SOL    HW286481   8.218   9.147   5.440
28183SOL     OW86482   9.230   7.670   4.167
28183SOL    HW186483   9.284   7.646   4.087
28183SOL    HW286484   9.183   7.589   4.202
28184SOL     OW86485   8.853   9.050   4.227
28184SOL    HW186486   8.892   9.095   4.147
28184SOL    HW286487   8.787   9.111   4.271
28185SOL     OW86488   8.691   8.400   4.357
28185SOL    HW186489   8.765   8.334   4.373
28185SOL    HW286490   8.724   8.470   4.293
28186SOL     OW86491   8.218   8.707   5.157
28186SOL    HW186492   8.201   8.763   5.239
28186SOL    HW286493   8.143   8.720   5.092
28187SOL     OW86494   8.105   9.095   3.937
28187SOL    HW186495   8.136   9.126   3.848
28187SOL    HW286496   8.048   9.014   3.926
28188SOL     OW86497   9.059   9.188   5.163
28188SOL    HW186498   9.106   9.177   5.076
28188SOL    HW286499   9.091   9.271   5.208
28189SOL     OW86500   9.317   7.621   4.707
28189SOL    HW186501   9.337   7.525   4.685
28189SOL    HW286502   9.228   7.646   4.669
28190SOL     OW86503   7.664   7.742   4.484
28190SOL    HW186504   7.593   7.804   4.451
28190SOL    HW286505   7.668   7.745   4.584
28191SOL     OW86506   8.454   9.018   3.800
28191SOL    HW186507   8.526   8.948   3.798
28191SOL    HW286508   8.424   9.038   3.707
28192SOL     OW86509   8.288   8.434   5.167
28192SOL    HW186510   8.331   8.395   5.085
28192SOL    HW286511   8.263   8.529   5.149
28193SOL     OW86512   8.385   8.349   4.042
28193SOL    HW186513   8.418   8.373   3.950
28193SOL    HW286514   8.429   8.265   4.073
28194SOL     OW86515   7.761   8.783   5.261
28194SOL    HW186516   7.780   8.816   5.168
28194SOL    HW286517   7.693   8.709   5.256
28195SOL     OW86518   9.028   8.796   5.000
28195SOL    HW186519   9.087   8.753   5.069
28195SOL    HW286520   8.962   8.855   5.046
28196SOL     OW86521   8.518   8.585   4.465
28196SOL    HW186522   8.439   8.541   4.506
28196SOL    HW286523   8.577   8.516   4.422
28197SOL     OW86524   8.501   7.632   4.678
28197SOL    HW186525   8.487   7.597   4.586
28197SOL    HW286526   8.506   7.556   4.743
28198SOL     OW86527   8.041   8.883   4.168
28198SOL    HW186528   8.120   8.826   4.145
28198SOL    HW286529   7.984   8.896   4.086
28199SOL     OW86530   9.267   7.776   5.164
28199SOL    HW186531   9.290   7.868   5.133
28199SOL    HW286532   9.281   7.711   5.089
28200SOL     OW86533   7.697   8.796   4.035
28200SOL    HW186534   7.611   8.769   3.992
28200SOL    HW286535   7.678   8.853   4.115
28201SOL     OW86536   7.566   8.429   5.461
28201SOL    HW186537   7.487   8.432   5.522
28201SOL    HW286538   7.648   8.408   5.513
28202SOL     OW86539   7.538   7.808   3.730
28202SOL    HW186540   7.460   7.790   3.670
28202SOL    HW286541   7.583   7.893   3.701
28203SOL     OW86542   8.798   8.291   5.100
28203SOL    HW186543   8.729   8.349   5.056
28203SOL    HW286544   8.886   8.303   5.054
28204SOL     OW86545   7.492   7.584   3.929
28204SOL    HW186546   7.485   7.658   3.861
28204SOL    HW286547   7.584   7.545   3.924
28205SOL     OW86548   8.618   8.789   3.841
28205SOL    HW186549   8.538   8.730   3.849
28205SOL    HW286550   8.654   8.808   3.933
28206SOL     OW86551   8.079   8.249   5.169
28206SOL    HW186552   8.157   8.311   5.175
28206SOL    HW286553   8.106   8.166   5.120
28207SOL     OW86554   8.925   9.265   4.780
28207SOL    HW186555   8.971   9.309   4.703
28207SOL    HW286556   8.969   9.177   4.800
28208SOL     OW86557   8.141   7.927   5.505
28208SOL    HW186558   8.180   8.009   5.548
28208SOL    HW286559   8.188   7.846   5.539
28209SOL     OW86560   8.899   8.630   5.332
28209SOL    HW186561   8.892   8.659   5.427
28209SOL    HW286562   8.989   8.656   5.295
28210SOL     OW86563   7.841   9.189   5.308
28210SOL    HW186564   7.763   9.212   5.367
28210SOL    HW286565   7.839   9.091   5.287
28211SOL     OW86566   9.014   8.350   4.941
28211SOL    HW186567   9.019   8.269   4.882
28211SOL    HW286568   9.009   8.432   4.884
28212SOL     OW86569   8.686   7.763   4.159
28212SOL    HW186570   8.746   7.683   4.166
28212SOL    HW286571   8.700   7.822   4.238
28213SOL     OW86572   7.938   8.226   4.446
28213SOL    HW186573   8.009   8.294   4.430
28213SOL    HW286574   7.901   8.194   4.358
28214SOL     OW86575   9.187   7.802   5.428
28214SOL    HW186576   9.224   7.802   5.336
28214SOL    HW286577   9.106   7.744   5.432
28215SOL     OW86578   9.138   8.407   5.172
28215SOL    HW186579   9.128   8.505   5.189
28215SOL    HW286580   9.100   8.384   5.083
28216SOL     OW86581   8.290   8.793   3.846
28216SOL    HW186582   8.272   8.773   3.942
28216SOL    HW286583   8.330   8.885   3.839
28217SOL     OW86584   8.122   9.174   4.685
28217SOL    HW186585   8.095   9.269   4.676
28217SOL    HW286586   8.219   9.164   4.661
28218SOL     OW86587   8.309   8.468   4.604
28218SOL    HW186588   8.371   8.398   4.641
28218SOL    HW286589   8.256   8.509   4.678
28219SOL     OW86590   8.475   8.394   3.791
28219SOL    HW186591   8.445   8.468   3.731
28219SOL    HW286592   8.559   8.355   3.756
28220SOL     OW86593   7.578   8.666   4.401
28220SOL    HW186594   7.620   8.623   4.482
28220SOL    HW286595   7.632   8.643   4.320
28221SOL     OW86596   8.144   8.879   5.361
28221SOL    HW186597   8.065   8.831   5.398
28221SOL    HW286598   8.161   8.962   5.415
28222SOL     OW86599   9.320   7.594   4.978
28222SOL    HW186600   9.382   7.517   4.991
28222SOL    HW286601   9.313   7.615   4.880
28223SOL     OW86602   9.043   9.012   4.821
28223SOL    HW186603   8.987   8.985   4.743
28223SOL    HW286604   9.051   8.935   4.885
28224SOL     OW86605   7.826   8.025   4.996
28224SOL    HW186606   7.923   8.004   5.005
28224SOL    HW286607   7.798   8.012   4.901
28225SOL     OW86608   8.262   9.012   4.397
28225SOL    HW186609   8.262   9.053   4.306
28225SOL    HW286610   8.180   8.955   4.407
28226SOL     OW86611   8.880   7.720   4.823
28226SOL    HW186612   8.896   7.624   4.847
28226SOL    HW286613   8.818   7.761   4.891
28227SOL     OW86614   8.518   7.412   4.853
28227SOL    HW186615   8.468   7.330   4.884
28227SOL    HW286616   8.607   7.385   4.818
28228SOL     OW86617   8.252   8.727   4.105
28228SOL    HW186618   8.226   8.631   4.121
28228SOL    HW286619   8.335   8.748   4.156
28229SOL     OW86620   8.061   9.054   5.037
28229SOL    HW186621   8.056   9.151   5.061
28229SOL    HW286622   8.144   9.036   4.985
28230SOL     OW86623   8.802   7.458   3.915
28230SOL    HW186624   8.853   7.389   3.864
28230SOL    HW286625   8.710   7.424   3.935
28231SOL     OW86626   8.706   7.922   4.374
28231SOL    HW186627   8.658   8.010   4.376
28231SOL    HW286628   8.713   7.886   4.467
28232SOL     OW86629   9.067   7.684   4.626
28232SOL    HW186630   9.002   7.710   4.698
28232SOL    HW286631   9.063   7.750   4.552
28233SOL     OW86632   7.467   8.456   4.047
28233SOL    HW186633   7.565   8.443   4.033
28233SOL    HW286634   7.423   8.366   4.054
28234SOL     OW86635   8.292   9.127   4.144
28234SOL    HW186636   8.223   9.111   4.073
28234SOL    HW286637   8.281   9.220   4.179
28235SOL     OW86638   7.625   8.051   5.778
28235SOL    HW186639   7.529   8.035   5.799
28235SOL    HW286640   7.640   8.042   5.679
28236SOL     OW86641   7.665   7.738   6.583
28236SOL    HW186642   7.713   7.705   6.664
28236SOL    HW286643   7.573   7.698   6.580
28237SOL     OW86644   7.459   7.859   6.220
28237SOL    HW186645   7.379   7.884   6.275
28237SOL    HW286646   7.432   7.796   6.148
28238SOL     OW86647   8.007   8.723   6.832
28238SOL    HW186648   7.923   8.721   6.777
28238SOL    HW286649   8.027   8.817   6.860
28239SOL     OW86650   9.016   8.927   6.289
28239SOL    HW186651   8.973   8.895   6.374
28239SOL    HW286652   8.946   8.951   6.223
28240SOL     OW86653   8.522   8.227   6.239
28240SOL    HW186654   8.594   8.297   6.235
28240SOL    HW286655   8.491   8.216   6.333
28241SOL     OW86656   9.224   8.112   5.769
28241SOL    HW186657   9.156   8.088   5.699
28241SOL    HW286658   9.178   8.123   5.857
28242SOL     OW86659   8.163   8.557   6.668
28242SOL    HW186660   8.099   8.588   6.738
28242SOL    HW286661   8.209   8.637   6.628
28243SOL     OW86662   8.264   8.183   7.418
28243SOL    HW186663   8.275   8.230   7.506
28243SOL    HW286664   8.301   8.240   7.345
28244SOL     OW86665   8.164   8.437   6.204
28244SOL    HW186666   8.226   8.435   6.283
28244SOL    HW286667   8.081   8.486   6.229
28245SOL     OW86668   8.106   8.588   7.419
28245SOL    HW186669   8.154   8.664   7.463
28245SOL    HW286670   8.028   8.622   7.368
28246SOL     OW86671   7.788   8.784   6.674
28246SOL    HW186672   7.712   8.730   6.638
28246SOL    HW286673   7.825   8.843   6.602
28247SOL     OW86674   8.874   8.949   6.969
28247SOL    HW186675   8.929   9.032   6.982
28247SOL    HW286676   8.796   8.951   7.031
28248SOL     OW86677   7.934   7.810   7.013
28248SOL    HW186678   8.014   7.753   7.035
28248SOL    HW286679   7.852   7.769   7.053
28249SOL     OW86680   8.986   7.859   6.332
28249SOL    HW186681   8.923   7.829   6.260
28249SOL    HW286682   8.951   7.941   6.376
28250SOL     OW86683   7.701   9.143   6.036
28250SOL    HW186684   7.716   9.214   6.105
28250SOL    HW286685   7.778   9.142   5.973
28251SOL     OW86686   8.529   8.776   7.313
28251SOL    HW186687   8.594   8.764   7.388
28251SOL    HW286688   8.467   8.698   7.309
28252SOL     OW86689   7.776   8.889   6.129
28252SOL    HW186690   7.731   8.973   6.100
28252SOL    HW286691   7.706   8.822   6.158
28253SOL     OW86692   7.728   8.523   6.414
28253SOL    HW186693   7.750   8.430   6.443
28253SOL    HW286694   7.673   8.568   6.485
28254SOL     OW86695   8.025   9.177   7.087
28254SOL    HW186696   7.933   9.175   7.128
28254SOL    HW286697   8.054   9.272   7.075
28255SOL     OW86698   8.038   8.419   5.712
28255SOL    HW186699   8.079   8.478   5.643
28255SOL    HW286700   8.069   8.449   5.803
28256SOL     OW86701   9.038   7.588   7.075
28256SOL    HW186702   9.105   7.652   7.037
28256SOL    HW286703   8.994   7.630   7.155
28257SOL     OW86704   7.566   8.113   6.164
28257SOL    HW186705   7.540   8.018   6.183
28257SOL    HW286706   7.561   8.167   6.248
28258SOL     OW86707   9.224   9.338   5.870
28258SOL    HW186708   9.288   9.261   5.871
28258SOL    HW286709   9.265   9.415   5.821
28259SOL     OW86710   7.579   8.938   5.727
28259SOL    HW186711   7.514   8.865   5.746
28259SOL    HW286712   7.546   9.023   5.770
28260SOL     OW86713   9.061   8.570   5.968
28260SOL    HW186714   9.150   8.528   5.948
28260SOL    HW286715   9.073   8.640   6.039
28261SOL     OW86716   7.541   8.202   7.160
28261SOL    HW186717   7.580   8.279   7.210
28261SOL    HW286718   7.464   8.234   7.105
28262SOL     OW86719   8.071   8.789   6.344
28262SOL    HW186720   8.029   8.699   6.331
28262SOL    HW286721   8.060   8.843   6.260
28263SOL     OW86722   8.677   8.636   7.040
28263SOL    HW186723   8.698   8.573   6.966
28263SOL    HW286724   8.755   8.643   7.102
28264SOL     OW86725   8.263   7.455   6.110
28264SOL    HW186726   8.308   7.538   6.078
28264SOL    HW286727   8.164   7.469   6.110
28265SOL     OW86728   7.676   8.447   6.858
28265SOL    HW186729   7.749   8.379   6.858
28265SOL    HW286730   7.658   8.476   6.764
28266SOL     OW86731   8.983   8.456   5.736
28266SOL    HW186732   8.925   8.378   5.760
28266SOL    HW286733   9.014   8.500   5.819
28267SOL     OW86734   8.575   9.339   7.263
28267SOL    HW186735   8.600   9.386   7.178
28267SOL    HW286736   8.598   9.242   7.255
28268SOL     OW86737   7.806   7.716   7.468
28268SOL    HW186738   7.845   7.797   7.511
28268SOL    HW286739   7.712   7.735   7.440
28269SOL     OW86740   8.907   8.827   6.515
28269SOL    HW186741   8.850   8.871   6.584
28269SOL    HW286742   8.878   8.732   6.504
28270SOL     OW86743   9.115   9.165   6.178
28270SOL    HW186744   9.071   9.156   6.089
28270SOL    HW286745   9.092   9.085   6.234
28271SOL     OW86746   8.003   8.146   5.850
28271SOL    HW186747   8.004   8.234   5.802
28271SOL    HW286748   7.934   8.149   5.923
28272SOL     OW86749   8.736   7.868   6.545
28272SOL    HW186750   8.652   7.821   6.519
28272SOL    HW286751   8.786   7.813   6.613
28273SOL     OW86752   9.015   9.153   5.910
28273SOL    HW186753   9.080   9.228   5.899
28273SOL    HW286754   8.972   9.132   5.822
28274SOL     OW86755   8.248   8.027   7.000
28274SOL    HW186756   8.217   8.001   7.091
28274SOL    HW286757   8.222   7.956   6.935
28275SOL     OW86758   8.828   7.909   7.207
28275SOL    HW186759   8.740   7.916   7.253
28275SOL    HW286760   8.880   7.833   7.245
28276SOL     OW86761   8.379   8.316   7.205
28276SOL    HW186762   8.430   8.234   7.181
28276SOL    HW286763   8.340   8.356   7.122
28277SOL     OW86764   8.453   7.828   6.760
28277SOL    HW186765   8.356   7.832   6.785
28277SOL    HW286766   8.462   7.787   6.670
28278SOL     OW86767   8.447   8.167   5.986
28278SOL    HW186768   8.477   8.189   6.078
28278SOL    HW286769   8.359   8.118   5.991
28279SOL     OW86770   7.542   8.264   6.386
28279SOL    HW186771   7.630   8.265   6.433
28279SOL    HW286772   7.481   8.331   6.428
28280SOL     OW86773   7.544   9.308   7.179
28280SOL    HW186774   7.551   9.301   7.278
28280SOL    HW286775   7.455   9.273   7.149
28281SOL     OW86776   8.359   7.835   5.827
28281SOL    HW186777   8.439   7.892   5.806
28281SOL    HW286778   8.328   7.789   5.743
28282SOL     OW86779   9.134   8.044   7.409
28282SOL    HW186780   9.117   8.124   7.352
28282SOL    HW286781   9.157   7.965   7.351
28283SOL     OW86782   8.785   8.544   5.988
28283SOL    HW186783   8.884   8.554   5.982
28283SOL    HW286784   8.742   8.634   5.987
28284SOL     OW86785   8.015   7.540   6.525
28284SOL    HW186786   8.024   7.569   6.620
28284SOL    HW286787   8.024   7.619   6.464
28285SOL     OW86788   8.430   8.906   6.035
28285SOL    HW186789   8.421   8.994   5.988
28285SOL    HW286790   8.396   8.915   6.128
28286SOL     OW86791   7.806   9.210   6.459
28286SOL    HW186792   7.839   9.116   6.466
28286SOL    HW286793   7.874   9.272   6.498
28287SOL     OW86794   9.219   8.554   6.533
28287SOL    HW186795   9.209   8.481   6.466
28287SOL    HW286796   9.142   8.550   6.598
28288SOL     OW86797   8.649   8.956   7.115
28288SOL    HW186798   8.618   8.880   7.171
28288SOL    HW286799   8.569   9.003   7.075
28289SOL     OW86800   7.716   8.313   5.826
28289SOL    HW186801   7.744   8.326   5.731
28289SOL    HW286802   7.683   8.219   5.839
28290SOL     OW86803   8.926   8.349   6.385
28290SOL    HW186804   8.908   8.259   6.424
28290SOL    HW286805   9.022   8.357   6.360
28291SOL     OW86806   7.873   8.726   7.328
28291SOL    HW186807   7.846   8.741   7.232
28291SOL    HW286808   7.792   8.700   7.381
28292SOL     OW86809   8.589   9.228   5.824
28292SOL    HW186810   8.503   9.204   5.869
28292SOL    HW286811   8.615   9.154   5.762
28293SOL     OW86812   7.685   7.707   7.071
28293SOL    HW186813   7.625   7.786   7.083
28293SOL    HW286814   7.641   7.625   7.107
28294SOL     OW86815   9.110   8.823   5.669
28294SOL    HW186816   9.126   8.825   5.767
28294SOL    HW286817   9.020   8.784   5.650
28295SOL     OW86818   7.931   9.182   5.887
28295SOL    HW186819   7.969   9.246   5.954
28295SOL    HW286820   8.005   9.128   5.847
28296SOL     OW86821   8.868   7.535   6.066
28296SOL    HW186822   8.854   7.509   5.971
28296SOL    HW286823   8.952   7.494   6.100
28297SOL     OW86824   7.686   9.212   6.786
28297SOL    HW186825   7.731   9.128   6.815
28297SOL    HW286826   7.642   9.197   6.697
28298SOL     OW86827   8.376   9.121   6.448
28298SOL    HW186828   8.472   9.094   6.455
28298SOL    HW286829   8.332   9.068   6.376
28299SOL     OW86830   7.829   8.114   6.062
28299SOL    HW186831   7.848   8.017   6.076
28299SOL    HW286832   7.735   8.134   6.088
28300SOL     OW86833   8.947   7.687   7.332
28300SOL    HW186834   8.939   7.732   7.421
28300SOL    HW286835   8.907   7.595   7.338
28301SOL     OW86836   8.101   7.518   5.710
28301SOL    HW186837   8.122   7.425   5.740
28301SOL    HW286838   8.039   7.514   5.631
28302SOL     OW86839   8.240   7.713   7.322
28302SOL    HW186840   8.310   7.643   7.314
28302SOL    HW286841   8.223   7.732   7.419
28303SOL     OW86842   8.309   8.939   6.809
28303SOL    HW186843   8.281   8.904   6.720
28303SOL    HW286844   8.360   8.868   6.858
28304SOL     OW86845   8.733   8.062   7.005
28304SOL    HW186846   8.783   8.015   7.078
28304SOL    HW286847   8.772   8.152   6.989
28305SOL     OW86848   8.251   8.797   6.567
28305SOL    HW186849   8.342   8.811   6.526
28305SOL    HW286850   8.182   8.801   6.495
28306SOL     OW86851   8.355   7.944   6.453
28306SOL    HW186852   8.324   7.930   6.359
28306SOL    HW286853   8.404   7.862   6.484
28307SOL     OW86854   7.997   7.499   6.086
28307SOL    HW186855   7.917   7.496   6.145
28307SOL    HW286856   7.989   7.576   6.023
28308SOL     OW86857   8.884   8.674   5.604
28308SOL    HW186858   8.917   8.590   5.646
28308SOL    HW286859   8.796   8.700   5.644
28309SOL     OW86860   7.720   7.480   5.751
28309SOL    HW186861   7.765   7.559   5.709
28309SOL    HW286862   7.789   7.424   5.797
28310SOL     OW86863   8.399   7.679   6.044
28310SOL    HW186864   8.379   7.731   5.961
28310SOL    HW286865   8.498   7.676   6.059
28311SOL     OW86866   8.489   8.081   7.122
28311SOL    HW186867   8.410   8.053   7.068
28311SOL    HW286868   8.572   8.076   7.066
28312SOL     OW86869   8.639   9.058   6.423
28312SOL    HW186870   8.668   9.108   6.341
28312SOL    HW286871   8.681   9.099   6.504
28313SOL     OW86872   7.933   8.572   6.248
28313SOL    HW186873   7.861   8.552   6.315
28313SOL    HW286874   7.893   8.582   6.157
28314SOL     OW86875   8.698   9.226   6.214
28314SOL    HW186876   8.765   9.285   6.170
28314SOL    HW286877   8.616   9.280   6.235
28315SOL     OW86878   8.497   8.070   5.544
28315SOL    HW186879   8.405   8.109   5.544
28315SOL    HW286880   8.522   8.043   5.637
28316SOL     OW86881   7.563   7.982   6.997
28316SOL    HW186882   7.653   7.984   6.955
28316SOL    HW286883   7.553   8.059   7.060
28317SOL     OW86884   8.030   7.614   6.783
28317SOL    HW186885   8.063   7.550   6.853
28317SOL    HW286886   7.934   7.635   6.799
28318SOL     OW86887   8.286   7.881   6.201
28318SOL    HW186888   8.244   7.944   6.136
28318SOL    HW286889   8.321   7.801   6.153
28319SOL     OW86890   8.469   7.492   6.310
28319SOL    HW186891   8.397   7.494   6.242
28319SOL    HW286892   8.448   7.423   6.379
28320SOL     OW86893   8.816   8.570   6.506
28320SOL    HW186894   8.718   8.572   6.487
28320SOL    HW286895   8.857   8.489   6.464
28321SOL     OW86896   8.870   8.103   6.506
28321SOL    HW186897   8.811   8.022   6.515
28321SOL    HW286898   8.943   8.098   6.574
28322SOL     OW86899   9.435   8.247   5.874
28322SOL    HW186900   9.465   8.187   5.948
28322SOL    HW286901   9.360   8.204   5.824
28323SOL     OW86902   9.164   8.742   6.154
28323SOL    HW186903   9.227   8.686   6.210
28323SOL    HW286904   9.115   8.805   6.214
28324SOL     OW86905   7.973   7.688   5.895
28324SOL    HW186906   8.024   7.636   5.827
28324SOL    HW286907   7.935   7.771   5.853
28325SOL     OW86908   9.168   8.703   7.133
28325SOL    HW186909   9.259   8.664   7.129
28325SOL    HW286910   9.173   8.797   7.168
28326SOL     OW86911   8.442   8.743   6.944
28326SOL    HW186912   8.358   8.718   6.993
28326SOL    HW286913   8.521   8.711   6.995
28327SOL     OW86914   9.042   9.091   7.245
28327SOL    HW186915   9.027   9.127   7.152
28327SOL    HW286916   9.127   9.040   7.248
28328SOL     OW86917   8.585   8.713   6.716
28328SOL    HW186918   8.524   8.724   6.794
28328SOL    HW286919   8.540   8.747   6.634
28329SOL     OW86920   9.007   8.544   6.706
28329SOL    HW186921   9.006   8.613   6.779
28329SOL    HW286922   8.926   8.555   6.649
28330SOL     OW86923   8.369   7.568   6.942
28330SOL    HW186924   8.404   7.540   6.853
28330SOL    HW286925   8.437   7.625   6.988
28331SOL     OW86926   8.379   8.546   7.345
28331SOL    HW186927   8.284   8.563   7.370
28331SOL    HW286928   8.383   8.463   7.289
28332SOL     OW86929   8.183   8.515   5.939
28332SOL    HW186930   8.178   8.486   6.034
28332SOL    HW286931   8.245   8.455   5.888
28333SOL     OW86932   7.877   8.258   6.859
28333SOL    HW186933   7.945   8.264   6.931
28333SOL    HW286934   7.837   8.166   6.859
28334SOL     OW86935   8.684   7.823   6.890
28334SOL    HW186936   8.707   7.914   6.924
28334SOL    HW286937   8.598   7.827   6.839
28335SOL     OW86938   7.510   8.991   6.934
28335SOL    HW186939   7.469   9.064   6.880
28335SOL    HW286940   7.610   8.995   6.925
28336SOL     OW86941   7.936   8.020   6.439
28336SOL    HW186942   7.960   8.081   6.363
28336SOL    HW286943   8.014   8.011   6.501
28337SOL     OW86944   8.681   8.805   5.979
28337SOL    HW186945   8.746   8.873   6.014
28337SOL    HW286946   8.588   8.832   6.003
28338SOL     OW86947   8.763   8.917   6.728
28338SOL    HW186948   8.805   8.928   6.818
28338SOL    HW286949   8.699   8.841   6.729
28339SOL     OW86950   7.781   8.965   6.874
28339SOL    HW186951   7.774   8.897   6.801
28339SOL    HW286952   7.877   8.985   6.892
28340SOL     OW86953   7.932   8.124   7.251
28340SOL    HW186954   7.961   8.180   7.174
28340SOL    HW286955   8.002   8.055   7.271
28341SOL     OW86956   9.072   8.270   7.280
28341SOL    HW186957   8.975   8.295   7.274
28341SOL    HW286958   9.121   8.306   7.201
28342SOL     OW86959   8.441   7.528   7.257
28342SOL    HW186960   8.474   7.602   7.199
28342SOL    HW286961   8.510   7.456   7.261
28343SOL     OW86962   7.934   7.499   7.361
28343SOL    HW186963   7.877   7.445   7.298
28343SOL    HW286964   7.888   7.585   7.382
28344SOL     OW86965   8.045   8.299   6.644
28344SOL    HW186966   8.089   8.388   6.650
28344SOL    HW286967   7.984   8.286   6.722
28345SOL     OW86968   8.677   8.280   6.610
28345SOL    HW186969   8.588   8.253   6.572
28345SOL    HW286970   8.748   8.220   6.575
28346SOL     OW86971   8.568   8.015   5.797
28346SOL    HW186972   8.667   8.013   5.806
28346SOL    HW286973   8.529   8.073   5.868
28347SOL     OW86974   7.762   7.636   6.816
28347SOL    HW186975   7.737   7.674   6.905
28347SOL    HW286976   7.728   7.542   6.809
28348SOL     OW86977   7.496   8.729   6.846
28348SOL    HW186978   7.494   8.668   6.925
28348SOL    HW286979   7.490   8.824   6.878
28349SOL     OW86980   8.143   8.033   6.612
28349SOL    HW186981   8.222   8.016   6.553
28349SOL    HW286982   8.127   8.132   6.619
28350SOL     OW86983   9.189   8.429   7.473
28350SOL    HW186984   9.150   8.365   7.407
28350SOL    HW286985   9.126   8.440   7.550
28351SOL     OW86986   7.764   7.488   6.230
28351SOL    HW186987   7.732   7.580   6.251
28351SOL    HW286988   7.776   7.437   6.315
28352SOL     OW86989   8.426   8.196   6.522
28352SOL    HW186990   8.405   8.202   6.619
28352SOL    HW286991   8.407   8.104   6.489
28353SOL     OW86992   8.417   9.025   7.296
28353SOL    HW186993   8.413   9.054   7.201
28353SOL    HW286994   8.440   8.927   7.300
28354SOL     OW86995   9.277   8.954   7.195
28354SOL    HW186996   9.294   8.994   7.105
28354SOL    HW286997   9.362   8.950   7.247
28355SOL     OW86998   7.821   8.325   7.405
28355SOL    HW186999   7.887   8.360   7.472
28355SOL    HW287000   7.863   8.252   7.351
28356SOL     OW87001   8.979   7.654   5.700
28356SOL    HW187002   8.920   7.586   5.744
28356SOL    HW287003   9.051   7.682   5.763
28357SOL     OW87004   8.677   8.285   5.580
28357SOL    HW187005   8.619   8.208   5.554
28357SOL    HW287006   8.734   8.311   5.502
28358SOL     OW87007   8.503   8.820   6.474
28358SOL    HW187008   8.532   8.736   6.428
28358SOL    HW287009   8.562   8.895   6.445
28359SOL     OW87010   7.779   8.275   6.529
28359SOL    HW187011   7.878   8.283   6.538
28359SOL    HW287012   7.749   8.187   6.565
28360SOL     OW87013   7.724   7.999   6.595
28360SOL    HW187014   7.689   7.906   6.589
28360SOL    HW287015   7.800   8.010   6.531
28361SOL     OW87016   8.549   7.721   7.103
28361SOL    HW187017   8.558   7.787   7.178
28361SOL    HW287018   8.609   7.748   7.028
28362SOL     OW87019   7.406   8.741   5.780
28362SOL    HW187020   7.320   8.771   5.739
28362SOL    HW287021   7.398   8.645   5.807
28363SOL     OW87022   7.547   9.196   6.546
28363SOL    HW187023   7.493   9.127   6.498
28363SOL    HW287024   7.637   9.204   6.503
28364SOL     OW87025   7.920   8.958   6.504
28364SOL    HW187026   7.993   9.017   6.539
28364SOL    HW287027   7.959   8.892   6.439
28365SOL     OW87028   8.385   8.201   6.791
28365SOL    HW187029   8.474   8.214   6.835
28365SOL    HW287030   8.328   8.143   6.849
28366SOL     OW87031   7.475   8.034   6.733
28366SOL    HW187032   7.556   8.037   6.675
28366SOL    HW287033   7.502   8.018   6.828
28367SOL     OW87034   7.676   8.039   7.334
28367SOL    HW187035   7.771   8.052   7.308
28367SOL    HW287036   7.617   8.091   7.272
28368SOL     OW87037   8.822   8.370   7.234
28368SOL    HW187038   8.845   8.468   7.235
28368SOL    HW287039   8.809   8.340   7.140
28369SOL     OW87040   8.218   8.023   5.970
28369SOL    HW187041   8.250   7.949   5.912
28369SOL    HW287042   8.138   8.066   5.929
28370SOL     OW87043   9.058   8.076   6.699
28370SOL    HW187044   9.029   7.995   6.751
28370SOL    HW287045   9.157   8.074   6.687
28371SOL     OW87046   7.635   8.955   7.346
28371SOL    HW187047   7.603   8.996   7.432
28371SOL    HW287048   7.646   8.856   7.358
28372SOL     OW87049   8.185   7.847   6.805
28372SOL    HW187050   8.127   7.766   6.802
28372SOL    HW287051   8.156   7.911   6.734
28373SOL     OW87052   8.419   9.092   7.027
28373SOL    HW187053   8.375   9.042   6.952
28373SOL    HW287054   8.410   9.190   7.012
28374SOL     OW87055   7.866   7.913   5.777
28374SOL    HW187056   7.935   7.985   5.787
28374SOL    HW287057   7.776   7.950   5.797
28375SOL     OW87058   7.528   8.544   7.058
28375SOL    HW187059   7.559   8.513   7.148
28375SOL    HW287060   7.586   8.504   6.987
28376SOL     OW87061   8.692   8.475   6.800
28376SOL    HW187062   8.688   8.405   6.728
28376SOL    HW287063   8.658   8.562   6.765
28377SOL     OW87064   8.766   8.297   5.842
28377SOL    HW187065   8.746   8.383   5.888
28377SOL    HW287066   8.725   8.297   5.751
28378SOL     OW87067   9.203   9.135   6.725
28378SOL    HW187068   9.271   9.162   6.658
28378SOL    HW287069   9.173   9.041   6.706
28379SOL     OW87070   8.730   9.175   6.652
28379SOL    HW187071   8.819   9.221   6.647
28379SOL    HW287072   8.742   9.083   6.690
28380SOL     OW87073   7.570   8.616   6.614
28380SOL    HW187074   7.535   8.660   6.696
28380SOL    HW287075   7.495   8.567   6.568
28381SOL     OW87076   8.165   9.089   7.372
28381SOL    HW187077   8.120   9.160   7.318
28381SOL    HW287078   8.260   9.082   7.345
28382SOL     OW87079   9.213   7.611   6.037
28382SOL    HW187080   9.278   7.590   5.964
28382SOL    HW287081   9.176   7.525   6.074
28383SOL     OW87082   8.840   9.017   6.086
28383SOL    HW187083   8.896   9.061   6.017
28383SOL    HW287084   8.780   9.085   6.129
28384SOL     OW87085   7.568   9.268   7.441
28384SOL    HW187086   7.539   9.182   7.482
28384SOL    HW287087   7.632   9.315   7.502
28385SOL     OW87088   8.714   8.419   6.225
28385SOL    HW187089   8.796   8.394   6.275
28385SOL    HW287090   8.739   8.461   6.137
28386SOL     OW87091   8.190   8.687   7.037
28386SOL    HW187092   8.167   8.746   7.114
28386SOL    HW287093   8.118   8.692   6.968
28387SOL     OW87094   8.147   9.056   5.776
28387SOL    HW187095   8.151   9.072   5.677
28387SOL    HW287096   8.148   8.957   5.793
28388SOL     OW87097   9.048   9.162   6.970
28388SOL    HW187098   9.088   9.130   6.885
28388SOL    HW287099   9.080   9.255   6.989
28389SOL     OW87100   9.286   7.594   6.586
28389SOL    HW187101   9.315   7.509   6.543
28389SOL    HW287102   9.200   7.624   6.546
28390SOL     OW87103   7.691   7.738   6.304
28390SOL    HW187104   7.610   7.786   6.272
28390SOL    HW287105   7.697   7.745   6.403
28391SOL     OW87106   8.653   9.018   5.656
28391SOL    HW187107   8.659   8.921   5.679
28391SOL    HW287108   8.577   9.033   5.593
28392SOL     OW87109   8.265   8.432   6.987
28392SOL    HW187110   8.293   8.429   6.891
28392SOL    HW287111   8.239   8.526   7.011
28393SOL     OW87112   8.348   8.344   5.800
28393SOL    HW187113   8.415   8.402   5.753
28393SOL    HW287114   8.395   8.288   5.868
28394SOL     OW87115   8.904   9.140   5.659
28394SOL    HW187116   8.814   9.097   5.649
28394SOL    HW287117   8.959   9.121   5.577
28395SOL     OW87118   7.768   8.765   7.082
28395SOL    HW187119   7.776   8.843   7.020
28395SOL    HW287120   7.711   8.694   7.039
28396SOL     OW87121   9.023   8.734   6.902
28396SOL    HW187122   9.083   8.715   6.981
28396SOL    HW287123   8.958   8.806   6.926
28397SOL     OW87124   8.556   8.567   6.391
28397SOL    HW187125   8.468   8.524   6.408
28397SOL    HW287126   8.606   8.516   6.322
28398SOL     OW87127   8.495   7.694   6.519
28398SOL    HW187128   8.494   7.654   6.427
28398SOL    HW287129   8.492   7.622   6.588
28399SOL     OW87130   8.044   8.915   6.103
28399SOL    HW187131   8.078   8.876   6.018
28399SOL    HW287132   7.944   8.911   6.105
28400SOL     OW87133   9.252   7.782   7.019
28400SOL    HW187134   9.289   7.871   6.992
28400SOL    HW287135   9.272   7.714   6.948
28401SOL     OW87136   7.594   8.437   7.306
28401SOL    HW187137   7.514   8.423   7.363
28401SOL    HW287138   7.675   8.399   7.351
28402SOL     OW87139   8.141   7.634   7.079
28402SOL    HW187140   8.224   7.615   7.026
28402SOL    HW287141   8.167   7.666   7.170
28403SOL     OW87142   7.512   7.785   5.595
28403SOL    HW187143   7.428   7.779   5.542
28403SOL    HW287144   7.560   7.869   5.572
28404SOL     OW87145   8.829   8.312   6.967
28404SOL    HW187146   8.772   8.371   6.910
28404SOL    HW287147   8.921   8.309   6.929
28405SOL     OW87148   7.490   7.605   5.812
28405SOL    HW187149   7.478   7.674   5.740
28405SOL    HW287150   7.579   7.561   5.800
28406SOL     OW87151   8.642   8.739   5.712
28406SOL    HW187152   8.583   8.660   5.701
28406SOL    HW287153   8.653   8.760   5.809
28407SOL     OW87154   8.075   8.242   7.040
28407SOL    HW187155   8.135   8.323   7.033
28407SOL    HW287156   8.129   8.160   7.025
28408SOL     OW87157   8.979   9.290   6.629
28408SOL    HW187158   9.010   9.335   6.546
28408SOL    HW287159   9.056   9.242   6.672
28409SOL     OW87160   8.174   7.979   7.258
28409SOL    HW187161   8.208   8.044   7.326
28409SOL    HW287162   8.197   7.886   7.287
28410SOL     OW87163   8.908   8.628   7.222
28410SOL    HW187164   8.906   8.645   7.321
28410SOL    HW287165   8.997   8.657   7.186
28411SOL     OW87166   7.777   9.154   7.211
28411SOL    HW187167   7.701   9.213   7.184
28411SOL    HW287168   7.741   9.072   7.257
28412SOL     OW87169   9.070   8.316   6.839
28412SOL    HW187170   9.069   8.234   6.782
28412SOL    HW287171   9.052   8.396   6.781
28413SOL     OW87172   8.011   8.201   6.250
28413SOL    HW187173   8.073   8.273   6.220
28413SOL    HW287174   7.948   8.177   6.176
28414SOL     OW87175   9.192   7.806   7.282
28414SOL    HW187176   9.211   7.800   7.184
28414SOL    HW287177   9.106   7.757   7.301
28415SOL     OW87178   9.193   8.385   7.070
28415SOL    HW187179   9.179   8.484   7.081
28415SOL    HW287180   9.153   8.356   6.983
28416SOL     OW87181   8.312   8.787   5.644
28416SOL    HW187182   8.288   8.801   5.740
28416SOL    HW287183   8.349   8.872   5.606
28417SOL     OW87184   8.120   9.130   6.554
28417SOL    HW187185   8.087   9.225   6.557
28417SOL    HW287186   8.216   9.130   6.527
28418SOL     OW87187   8.314   8.440   6.448
28418SOL    HW187188   8.348   8.348   6.469
28418SOL    HW287189   8.257   8.473   6.523
28419SOL     OW87190   8.520   8.497   5.642
28419SOL    HW187191   8.464   8.519   5.562
28419SOL    HW287192   8.583   8.423   5.618
28420SOL     OW87193   9.302   8.959   6.452
28420SOL    HW187194   9.214   8.941   6.409
28420SOL    HW287195   9.328   8.881   6.509
28421SOL     OW87196   7.617   8.690   7.423
28421SOL    HW187197   7.601   8.602   7.378
28421SOL    HW287198   7.548   8.703   7.495
28422SOL     OW87199   7.605   8.666   6.196
28422SOL    HW187200   7.638   8.612   6.274
28422SOL    HW287201   7.622   8.616   6.111
28423SOL     OW87202   8.103   8.852   7.233
28423SOL    HW187203   8.018   8.815   7.270
28423SOL    HW287204   8.123   8.940   7.277
28424SOL     OW87205   9.315   7.585   6.853
28424SOL    HW187206   9.384   7.513   6.863
28424SOL    HW287207   9.291   7.596   6.757
28425SOL     OW87208   7.858   7.851   6.105
28425SOL    HW187209   7.898   7.781   6.046
28425SOL    HW287210   7.809   7.807   6.180
28426SOL     OW87211   9.110   8.887   6.689
28426SOL    HW187212   9.045   8.864   6.617
28426SOL    HW287213   9.095   8.828   6.768
28427SOL     OW87214   7.799   7.997   6.868
28427SOL    HW187215   7.860   7.931   6.912
28427SOL    HW287216   7.794   7.977   6.770
28428SOL     OW87217   8.273   8.965   6.254
28428SOL    HW187218   8.201   8.990   6.190
28428SOL    HW287219   8.244   8.885   6.307
28429SOL     OW87220   8.871   7.714   6.732
28429SOL    HW187221   8.892   7.618   6.753
28429SOL    HW287222   8.807   7.749   6.800
28430SOL     OW87223   8.479   7.475   6.687
28430SOL    HW187224   8.425   7.405   6.641
28430SOL    HW287225   8.571   7.440   6.705
28431SOL     OW87226   8.212   8.794   5.902
28431SOL    HW187227   8.196   8.696   5.912
28431SOL    HW287228   8.293   8.820   5.955
28432SOL     OW87229   8.053   8.983   6.903
28432SOL    HW187230   8.048   9.051   6.976
28432SOL    HW287231   8.145   8.981   6.865
28433SOL     OW87232   8.833   7.451   5.809
28433SOL    HW187233   8.879   7.382   5.754
28433SOL    HW287234   8.737   7.425   5.821
28434SOL     OW87235   9.034   7.666   6.519
28434SOL    HW187236   8.977   7.698   6.595
28434SOL    HW287237   9.024   7.727   6.441
28435SOL     OW87238   7.430   8.485   5.926
28435SOL    HW187239   7.528   8.504   5.934
28435SOL    HW287240   7.415   8.387   5.932
28436SOL     OW87241   8.352   9.148   5.933
28436SOL    HW187242   8.274   9.121   5.877
28436SOL    HW287243   8.325   9.223   5.994
28437SOL     OW87244   7.644   8.098   7.603
28437SOL    HW187245   7.554   8.062   7.628
28437SOL    HW287246   7.657   8.092   7.505
28438SOL     OW87247   7.668   7.704   8.436
28438SOL    HW187248   7.717   7.666   8.514
28438SOL    HW287249   7.584   7.652   8.421
28439SOL     OW87250   7.374   7.719   8.155
28439SOL    HW187251   7.288   7.765   8.178
28439SOL    HW287252   7.370   7.687   8.060
28440SOL     OW87253   7.998   8.778   8.701
28440SOL    HW187254   7.916   8.780   8.644
28440SOL    HW287255   8.026   8.872   8.721
28441SOL     OW87256   9.002   8.951   8.112
28441SOL    HW187257   8.959   8.922   8.198
28441SOL    HW287258   8.931   8.970   8.044
28442SOL     OW87259   8.460   8.137   8.058
28442SOL    HW187260   8.533   8.121   7.992
28442SOL    HW287261   8.464   8.232   8.091
28443SOL     OW87262   9.278   8.015   7.631
28443SOL    HW187263   9.230   8.034   7.546
28443SOL    HW287264   9.222   7.956   7.689
28444SOL     OW87265   8.149   8.601   8.562
28444SOL    HW187266   8.085   8.656   8.614
28444SOL    HW287267   8.195   8.657   8.493
28445SOL     OW87268   8.145   8.409   8.080
28445SOL    HW187269   8.210   8.404   8.155
28445SOL    HW287270   8.079   8.481   8.098
28446SOL     OW87271   8.150   8.617   9.302
28446SOL    HW187272   8.209   8.688   9.341
28446SOL    HW287273   8.069   8.659   9.262
28447SOL     OW87274   7.789   8.854   8.539
28447SOL    HW187275   7.709   8.808   8.502
28447SOL    HW287276   7.841   8.896   8.464
28448SOL     OW87277   8.884   8.951   8.839
28448SOL    HW187278   8.941   9.031   8.855
28448SOL    HW287279   8.804   8.955   8.898
28449SOL     OW87280   7.834   7.898   9.063
28449SOL    HW187281   7.930   7.928   9.064
28449SOL    HW287282   7.825   7.819   9.003
28450SOL     OW87283   9.084   7.884   8.242
28450SOL    HW187284   8.997   7.877   8.193
28450SOL    HW287285   9.089   7.971   8.290
28451SOL     OW87286   7.677   9.195   7.910
28451SOL    HW187287   7.698   9.260   7.983
28451SOL    HW287288   7.750   9.196   7.842
28452SOL     OW87289   8.553   8.774   9.173
28452SOL    HW187290   8.613   8.776   9.253
28452SOL    HW287291   8.496   8.691   9.178
28453SOL     OW87292   7.740   8.928   7.938
28453SOL    HW187293   7.707   9.022   7.942
28453SOL    HW287294   7.696   8.874   8.009
28454SOL     OW87295   7.743   8.584   8.300
28454SOL    HW187296   7.747   8.486   8.320
28454SOL    HW287297   7.683   8.629   8.366
28455SOL     OW87298   7.973   9.275   8.848
28455SOL    HW187299   7.902   9.253   8.915
28455SOL    HW287300   8.037   9.340   8.889
28456SOL     OW87301   7.995   8.421   7.607
28456SOL    HW187302   8.036   8.472   7.532
28456SOL    HW287303   8.040   8.447   7.693
28457SOL     OW87304   9.043   7.605   8.819
28457SOL    HW187305   9.137   7.623   8.793
28457SOL    HW287306   9.028   7.635   8.914
28458SOL     OW87307   7.584   8.136   8.034
28458SOL    HW187308   7.622   8.051   8.070
28458SOL    HW287309   7.557   8.195   8.110
28459SOL     OW87310   9.203   9.187   7.784
28459SOL    HW187311   9.266   9.112   7.802
28459SOL    HW287312   9.253   9.274   7.788
28460SOL     OW87313   7.513   9.035   7.578
28460SOL    HW187314   7.480   8.943   7.600
28460SOL    HW287315   7.487   9.098   7.651
28461SOL     OW87316   9.143   8.393   8.106
28461SOL    HW187317   9.238   8.363   8.114
28461SOL    HW287318   9.134   8.454   8.027
28462SOL     OW87319   9.130   8.564   7.891
28462SOL    HW187320   9.212   8.540   7.838
28462SOL    HW287321   9.149   8.644   7.948
28463SOL     OW87322   7.558   8.208   9.009
28463SOL    HW187323   7.644   8.259   9.002
28463SOL    HW287324   7.481   8.268   8.989
28464SOL     OW87325   8.082   8.818   8.167
28464SOL    HW187326   8.045   8.726   8.162
28464SOL    HW287327   8.059   8.868   8.083
28465SOL     OW87328   8.630   8.584   8.910
28465SOL    HW187329   8.674   8.551   8.826
28465SOL    HW287330   8.700   8.606   8.977
28466SOL     OW87331   8.241   7.472   7.955
28466SOL    HW187332   8.299   7.552   7.969
28466SOL    HW287333   8.145   7.499   7.963
28467SOL     OW87334   7.683   8.394   8.771
28467SOL    HW187335   7.772   8.355   8.748
28467SOL    HW287336   7.619   8.380   8.695
28468SOL     OW87337   8.988   8.460   7.674
28468SOL    HW187338   8.928   8.384   7.699
28468SOL    HW287339   9.033   8.496   7.757
28469SOL     OW87340   8.589   9.237   9.078
28469SOL    HW187341   8.611   9.310   9.012
28469SOL    HW287342   8.613   9.149   9.039
28470SOL     OW87343   7.771   7.735   9.372
28470SOL    HW187344   7.814   7.813   9.417
28470SOL    HW287345   7.677   7.759   9.346
28471SOL     OW87346   8.868   8.861   8.331
28471SOL    HW187347   8.857   8.891   8.426
28471SOL    HW287348   8.862   8.761   8.326
28472SOL     OW87349   9.152   9.172   8.062
28472SOL    HW187350   9.153   9.178   7.962
28472SOL    HW287351   9.098   9.093   8.090
28473SOL     OW87352   8.021   8.152   7.701
28473SOL    HW187353   8.024   8.243   7.660
28473SOL    HW287354   7.960   8.153   7.781
28474SOL     OW87355   8.770   7.839   8.406
28474SOL    HW187356   8.680   7.797   8.411
28474SOL    HW287357   8.828   7.803   8.478
28475SOL     OW87358   8.938   9.167   7.735
28475SOL    HW187359   9.037   9.175   7.750
28475SOL    HW287360   8.921   9.134   7.642
28476SOL     OW87361   8.827   7.907   9.083
28476SOL    HW187362   8.826   7.945   9.176
28476SOL    HW287363   8.877   7.821   9.083
28477SOL     OW87364   8.424   8.408   8.979
28477SOL    HW187365   8.511   8.456   8.967
28477SOL    HW287366   8.357   8.443   8.913
28478SOL     OW87367   8.324   7.755   8.590
28478SOL    HW187368   8.236   7.709   8.580
28478SOL    HW287369   8.386   7.723   8.519
28479SOL     OW87370   8.454   8.125   7.731
28479SOL    HW187371   8.530   8.089   7.785
28479SOL    HW287372   8.375   8.065   7.741
28480SOL     OW87373   7.510   8.304   8.237
28480SOL    HW187374   7.603   8.306   8.273
28480SOL    HW287375   7.456   8.376   8.281
28481SOL     OW87376   7.522   9.305   9.082
28481SOL    HW187377   7.550   9.275   9.173
28481SOL    HW287378   7.430   9.270   9.062
28482SOL     OW87379   8.217   7.758   7.590
28482SOL    HW187380   8.315   7.752   7.606
28482SOL    HW287381   8.175   7.668   7.607
28483SOL     OW87382   9.078   8.045   9.291
28483SOL    HW187383   9.067   8.131   9.241
28483SOL    HW287384   9.113   7.975   9.228
28484SOL     OW87385   8.841   8.610   8.010
28484SOL    HW187386   8.931   8.611   7.968
28484SOL    HW287387   8.781   8.674   7.962
28485SOL     OW87388   8.048   7.550   8.343
28485SOL    HW187389   8.050   7.591   8.434
28485SOL    HW287390   8.071   7.619   8.275
28486SOL     OW87391   8.421   8.893   7.907
28486SOL    HW187392   8.398   8.966   7.843
28486SOL    HW287393   8.395   8.920   8.000
28487SOL     OW87394   7.802   9.213   8.332
28487SOL    HW187395   7.838   9.120   8.332
28487SOL    HW287396   7.875   9.278   8.351
28488SOL     OW87397   9.164   8.385   8.378
28488SOL    HW187398   9.135   8.404   8.285
28488SOL    HW287399   9.111   8.441   8.442
28489SOL     OW87400   8.635   8.953   8.973
28489SOL    HW187401   8.621   8.890   9.050
28489SOL    HW287402   8.571   8.932   8.900
28490SOL     OW87403   7.737   8.346   7.714
28490SOL    HW187404   7.820   8.377   7.667
28490SOL    HW287405   7.707   8.259   7.673
28491SOL     OW87406   8.934   8.229   8.150
28491SOL    HW187407   8.935   8.187   8.240
28491SOL    HW287408   9.010   8.294   8.142
28492SOL     OW87409   7.916   8.754   9.214
28492SOL    HW187410   7.895   8.754   9.117
28492SOL    HW287411   7.832   8.738   9.266
28493SOL     OW87412   8.553   9.211   7.652
28493SOL    HW187413   8.470   9.175   7.696
28493SOL    HW287414   8.592   9.141   7.593
28494SOL     OW87415   7.703   7.694   8.906
28494SOL    HW187416   7.643   7.773   8.914
28494SOL    HW287417   7.662   7.616   8.953
28495SOL     OW87418   9.096   8.858   7.538
28495SOL    HW187419   9.033   8.935   7.528
28495SOL    HW287420   9.048   8.773   7.516
28496SOL     OW87421   7.902   9.216   7.756
28496SOL    HW187422   7.951   9.262   7.830
28496SOL    HW287423   7.965   9.155   7.708
28497SOL     OW87424   8.823   7.568   7.888
28497SOL    HW187425   8.825   7.549   7.790
28497SOL    HW287426   8.914   7.554   7.927
28498SOL     OW87427   7.627   9.261   8.688
28498SOL    HW187428   7.688   9.189   8.721
28498SOL    HW287429   7.606   9.246   8.592
28499SOL     OW87430   8.407   9.121   8.337
28499SOL    HW187431   8.500   9.084   8.341
28499SOL    HW287432   8.356   9.076   8.264
28500SOL     OW87433   7.845   8.123   7.909
28500SOL    HW187434   7.828   8.025   7.921
28500SOL    HW287435   7.757   8.171   7.908
28501SOL     OW87436   8.965   7.662   9.091
28501SOL    HW187437   8.977   7.664   9.190
28501SOL    HW287438   8.903   7.587   9.066
28502SOL     OW87439   8.069   7.529   7.599
28502SOL    HW187440   8.095   7.436   7.624
28502SOL    HW287441   8.026   7.528   7.509
28503SOL     OW87442   8.281   8.942   8.634
28503SOL    HW187443   8.267   8.897   8.546
28503SOL    HW287444   8.353   8.894   8.685
28504SOL     OW87445   8.875   8.033   8.840
28504SOL    HW187446   8.865   7.996   8.932
28504SOL    HW287447   8.851   8.130   8.840
28505SOL     OW87448   8.251   8.791   8.396
28505SOL    HW187449   8.347   8.791   8.369
28505SOL    HW287450   8.194   8.805   8.316
28506SOL     OW87451   8.423   7.967   8.371
28506SOL    HW187452   8.390   7.949   8.278
28506SOL    HW287453   8.464   7.884   8.409
28507SOL     OW87454   7.977   7.551   7.972
28507SOL    HW187455   7.890   7.528   8.016
28507SOL    HW287456   7.960   7.613   7.895
28508SOL     OW87457   8.910   8.655   7.496
28508SOL    HW187458   8.937   8.579   7.555
28508SOL    HW287459   8.823   8.692   7.528
28509SOL     OW87460   7.731   7.505   7.629
28509SOL    HW187461   7.780   7.579   7.583
28509SOL    HW287462   7.796   7.452   7.684
28510SOL     OW87463   8.402   7.687   8.003
28510SOL    HW187464   8.367   7.773   8.043
28510SOL    HW287465   8.470   7.708   7.933
28511SOL     OW87466   8.651   9.012   8.252
28511SOL    HW187467   8.672   9.088   8.191
28511SOL    HW287468   8.736   8.966   8.279
28512SOL     OW87469   7.943   8.587   8.116
28512SOL    HW187470   7.877   8.587   8.191
28512SOL    HW287471   7.895   8.581   8.029
28513SOL     OW87472   8.701   9.225   8.079
28513SOL    HW187473   8.766   9.287   8.033
28513SOL    HW287474   8.618   9.276   8.103
28514SOL     OW87475   7.577   7.976   8.864
28514SOL    HW187476   7.667   7.981   8.821
28514SOL    HW287477   7.564   8.055   8.924
28515SOL     OW87478   8.058   7.632   8.606
28515SOL    HW187479   8.105   7.586   8.682
28515SOL    HW287480   7.959   7.622   8.618
28516SOL     OW87481   8.514   7.531   8.192
28516SOL    HW187482   8.467   7.584   8.121
28516SOL    HW287483   8.454   7.457   8.224
28517SOL     OW87484   8.855   8.583   8.304
28517SOL    HW187485   8.807   8.500   8.331
28517SOL    HW287486   8.851   8.593   8.205
28518SOL     OW87487   8.917   8.106   8.403
28518SOL    HW187488   8.856   8.026   8.403
28518SOL    HW287489   8.975   8.103   8.484
28519SOL     OW87490   9.273   8.235   7.797
28519SOL    HW187491   9.324   8.201   7.876
28519SOL    HW287492   9.276   8.167   7.723
28520SOL     OW87493   7.915   8.850   7.583
28520SOL    HW187494   7.838   8.815   7.635
28520SOL    HW287495   7.913   8.813   7.490
28521SOL     OW87496   9.189   8.761   8.059
28521SOL    HW187497   9.253   8.756   8.135
28521SOL    HW287498   9.124   8.835   8.074
28522SOL     OW87499   8.877   8.049   7.514
28522SOL    HW187500   8.866   7.955   7.546
28522SOL    HW287501   8.969   8.061   7.478
28523SOL     OW87502   7.932   7.710   7.762
28523SOL    HW187503   7.984   7.650   7.701
28523SOL    HW287504   7.913   7.797   7.715
28524SOL     OW87505   9.115   8.667   9.088
28524SOL    HW187506   9.134   8.624   9.176
28524SOL    HW287507   9.168   8.752   9.081
28525SOL     OW87508   8.452   8.782   8.814
28525SOL    HW187509   8.359   8.776   8.852
28525SOL    HW287510   8.511   8.716   8.859
28526SOL     OW87511   9.061   9.083   9.123
28526SOL    HW187512   9.049   9.119   9.031
28526SOL    HW287513   9.134   9.016   9.124
28527SOL     OW87514   8.603   8.727   8.590
28527SOL    HW187515   8.538   8.753   8.660
28527SOL    HW287516   8.564   8.746   8.499
28528SOL     OW87517   9.006   8.543   8.537
28528SOL    HW187518   9.004   8.615   8.606
28528SOL    HW287519   8.947   8.568   8.460
28529SOL     OW87520   8.434   7.484   8.783
28529SOL    HW187521   8.465   7.467   8.689
28529SOL    HW287522   8.500   7.546   8.827
28530SOL     OW87523   8.407   8.539   9.221
28530SOL    HW187524   8.313   8.558   9.250
28530SOL    HW287525   8.406   8.480   9.141
28531SOL     OW87526   8.167   8.483   7.814
28531SOL    HW187527   8.166   8.446   7.907
28531SOL    HW287528   8.235   8.435   7.759
28532SOL     OW87529   7.915   8.258   8.700
28532SOL    HW187530   7.979   8.270   8.775
28532SOL    HW287531   7.873   8.168   8.706
28533SOL     OW87532   8.698   7.852   8.739
28533SOL    HW187533   8.758   7.924   8.772
28533SOL    HW287534   8.603   7.884   8.738
28534SOL     OW87535   7.502   8.982   8.800
28534SOL    HW187536   7.449   9.047   8.745
28534SOL    HW287537   7.600   9.004   8.791
28535SOL     OW87538   7.777   8.563   7.892
28535SOL    HW187539   7.761   8.635   7.825
28535SOL    HW287540   7.764   8.474   7.849
28536SOL     OW87541   7.923   8.065   8.362
28536SOL    HW187542   7.937   8.113   8.276
28536SOL    HW287543   8.011   8.052   8.408
28537SOL     OW87544   8.679   8.796   7.862
28537SOL    HW187545   8.733   8.877   7.884
28537SOL    HW287546   8.583   8.814   7.881
28538SOL     OW87547   8.791   8.926   8.585
28538SOL    HW187548   8.832   8.938   8.675
28538SOL    HW287549   8.724   8.851   8.588
28539SOL     OW87550   9.078   8.094   7.940
28539SOL    HW187551   9.022   8.140   8.009
28539SOL    HW287552   9.134   8.163   7.892
28540SOL     OW87553   7.769   9.024   8.746
28540SOL    HW187554   7.770   8.962   8.667
28540SOL    HW287555   7.863   9.046   8.771
28541SOL     OW87556   7.906   8.228   9.086
28541SOL    HW187557   7.964   8.270   9.017
28541SOL    HW287558   7.937   8.135   9.105
28542SOL     OW87559   9.040   8.279   9.165
28542SOL    HW187560   8.942   8.292   9.148
28542SOL    HW287561   9.092   8.319   9.090
28543SOL     OW87562   8.620   7.555   9.235
28543SOL    HW187563   8.594   7.647   9.207
28543SOL    HW287564   8.682   7.516   9.168
28544SOL     OW87565   7.967   7.610   9.233
28544SOL    HW187566   7.930   7.534   9.180
28544SOL    HW287567   7.891   7.661   9.274
28545SOL     OW87568   8.114   8.335   8.513
28545SOL    HW187569   8.123   8.434   8.526
28545SOL    HW287570   8.037   8.301   8.567
28546SOL     OW87571   8.756   8.341   8.417
28546SOL    HW187572   8.665   8.307   8.395
28546SOL    HW287573   8.821   8.265   8.413
28547SOL     OW87574   7.792   7.601   8.660
28547SOL    HW187575   7.765   7.639   8.748
28547SOL    HW287576   7.763   7.505   8.655
28548SOL     OW87577   7.507   8.723   8.714
28548SOL    HW187578   7.541   8.667   8.789
28548SOL    HW287579   7.498   8.818   8.744
28549SOL     OW87580   8.176   8.061   8.479
28549SOL    HW187581   8.266   8.032   8.449
28549SOL    HW287582   8.175   8.160   8.492
28550SOL     OW87583   9.145   8.489   9.313
28550SOL    HW187584   9.109   8.408   9.267
28550SOL    HW287585   9.095   8.504   9.399
28551SOL     OW87586   7.738   7.503   8.088
28551SOL    HW187587   7.699   7.589   8.118
28551SOL    HW287588   7.767   7.450   8.168
28552SOL     OW87589   9.088   7.874   7.780
28552SOL    HW187590   9.135   7.800   7.827
28552SOL    HW287591   9.075   7.951   7.843
28553SOL     OW87592   8.504   8.227   8.404
28553SOL    HW187593   8.480   8.255   8.497
28553SOL    HW287594   8.484   8.130   8.392
28554SOL     OW87595   8.416   9.007   9.236
28554SOL    HW187596   8.381   9.066   9.163
28554SOL    HW287597   8.448   8.921   9.196
28555SOL     OW87598   9.278   8.913   9.076
28555SOL    HW187599   9.307   8.924   8.981
28555SOL    HW287600   9.355   8.928   9.137
28556SOL     OW87601   7.818   8.377   9.297
28556SOL    HW187602   7.898   8.397   9.354
28556SOL    HW287603   7.845   8.319   9.221
28557SOL     OW87604   8.915   7.784   7.585
28557SOL    HW187605   8.876   7.695   7.612
28557SOL    HW287606   8.979   7.814   7.656
28558SOL     OW87607   8.739   8.280   7.478
28558SOL    HW187608   8.780   8.189   7.491
28558SOL    HW287609   8.762   8.314   7.388
28559SOL     OW87610   8.515   8.786   8.338
28559SOL    HW187611   8.526   8.703   8.283
28559SOL    HW287612   8.562   8.862   8.293
28560SOL     OW87613   7.769   8.312   8.324
28560SOL    HW187614   7.831   8.293   8.248
28560SOL    HW287615   7.790   8.251   8.400
28561SOL     OW87616   7.691   7.972   8.468
28561SOL    HW187617   7.680   7.873   8.452
28561SOL    HW287618   7.772   8.004   8.420
28562SOL     OW87619   8.574   7.804   9.131
28562SOL    HW187620   8.527   7.852   9.205
28562SOL    HW287621   8.658   7.853   9.109
28563SOL     OW87622   8.607   7.654   8.903
28563SOL    HW187623   8.578   7.703   8.985
28563SOL    HW287624   8.644   7.718   8.836
28564SOL     OW87625   7.429   8.772   7.630
28564SOL    HW187626   7.353   8.807   7.576
28564SOL    HW287627   7.393   8.714   7.704
28565SOL     OW87628   7.546   9.219   8.429
28565SOL    HW187629   7.486   9.157   8.379
28565SOL    HW287630   7.637   9.218   8.389
28566SOL     OW87631   7.938   8.973   8.347
28566SOL    HW187632   8.010   9.035   8.378
28566SOL    HW287633   7.975   8.910   8.279
28567SOL     OW87634   8.446   8.340   8.643
28567SOL    HW187635   8.531   8.391   8.656
28567SOL    HW287636   8.372   8.383   8.694
28568SOL     OW87637   7.453   8.001   8.616
28568SOL    HW187638   7.524   7.998   8.546
28568SOL    HW287639   7.495   8.001   8.706
28569SOL     OW87640   7.629   8.014   9.194
28569SOL    HW187641   7.708   7.972   9.149
28569SOL    HW287642   7.596   8.091   9.139
28570SOL     OW87643   8.784   8.341   9.084
28570SOL    HW187644   8.798   8.439   9.097
28570SOL    HW287645   8.792   8.319   8.986
28571SOL     OW87646   8.228   7.981   7.749
28571SOL    HW187647   8.217   7.901   7.690
28571SOL    HW287648   8.154   8.047   7.731
28572SOL     OW87649   9.068   8.077   8.634
28572SOL    HW187650   9.009   8.046   8.708
28572SOL    HW287651   9.157   8.032   8.641
28573SOL     OW87652   7.664   8.986   9.169
28573SOL    HW187653   7.650   9.060   9.234
28573SOL    HW287654   7.674   8.899   9.218
28574SOL     OW87655   8.040   7.905   8.661
28574SOL    HW187656   8.050   7.808   8.638
28574SOL    HW287657   8.097   7.959   8.599
28575SOL     OW87658   8.290   9.144   9.020
28575SOL    HW187659   8.238   9.079   8.966
28575SOL    HW287660   8.332   9.212   8.959
28576SOL     OW87661   7.869   7.937   7.622
28576SOL    HW187662   7.943   8.004   7.635
28576SOL    HW287663   7.781   7.983   7.625
28577SOL     OW87664   7.592   8.583   8.941
28577SOL    HW187665   7.595   8.553   9.036
28577SOL    HW287666   7.629   8.511   8.882
28578SOL     OW87667   8.689   8.476   8.647
28578SOL    HW187668   8.724   8.429   8.566
28578SOL    HW287669   8.665   8.570   8.623
28579SOL     OW87670   8.744   8.284   7.755
28579SOL    HW187671   8.687   8.360   7.786
28579SOL    HW287672   8.738   8.277   7.655
28580SOL     OW87673   9.158   9.142   8.602
28580SOL    HW187674   9.240   9.175   8.555
28580SOL    HW287675   9.147   9.044   8.585
28581SOL     OW87676   8.717   9.194   8.559
28581SOL    HW187677   8.803   9.243   8.543
28581SOL    HW287678   8.735   9.096   8.563
28582SOL     OW87679   7.568   8.728   8.449
28582SOL    HW187680   7.532   8.718   8.542
28582SOL    HW287681   7.492   8.741   8.385
28583SOL     OW87682   8.123   9.173   9.238
28583SOL    HW187683   8.047   9.237   9.224
28583SOL    HW287684   8.190   9.185   9.165
28584SOL     OW87685   9.227   7.670   7.891
28584SOL    HW187686   9.275   7.639   7.809
28584SOL    HW287687   9.171   7.596   7.927
28585SOL     OW87688   8.812   9.023   7.929
28585SOL    HW187689   8.855   9.069   7.851
28585SOL    HW287690   8.759   9.090   7.982
28586SOL     OW87691   7.604   9.207   9.320
28586SOL    HW187692   7.549   9.144   9.374
28586SOL    HW287693   7.654   9.269   9.382
28587SOL     OW87694   8.706   8.385   8.087
28587SOL    HW187695   8.775   8.315   8.108
28587SOL    HW287696   8.752   8.466   8.050
28588SOL     OW87697   8.193   8.752   8.907
28588SOL    HW187698   8.174   8.806   8.989
28588SOL    HW287699   8.116   8.759   8.844
28589SOL     OW87700   8.086   9.055   7.627
28589SOL    HW187701   8.111   9.080   7.534
28589SOL    HW287702   8.024   8.976   7.625
28590SOL     OW87703   9.056   9.172   8.860
28590SOL    HW187704   9.093   9.159   8.768
28590SOL    HW287705   9.076   9.265   8.891
28591SOL     OW87706   9.325   7.589   8.453
28591SOL    HW187707   9.349   7.498   8.420
28591SOL    HW287708   9.230   7.610   8.428
28592SOL     OW87709   7.647   7.748   8.165
28592SOL    HW187710   7.547   7.751   8.155
28592SOL    HW287711   7.671   7.743   8.262
28593SOL     OW87712   8.638   9.010   7.487
28593SOL    HW187713   8.638   8.917   7.524
28593SOL    HW287714   8.565   9.019   7.420
28594SOL     OW87715   8.249   8.510   8.797
28594SOL    HW187716   8.220   8.528   8.703
28594SOL    HW287717   8.233   8.590   8.853
28595SOL     OW87718   8.347   8.356   7.654
28595SOL    HW187719   8.420   8.414   7.617
28595SOL    HW287720   8.387   8.269   7.685
28596SOL     OW87721   8.913   9.059   7.484
28596SOL    HW187722   8.814   9.046   7.475
28596SOL    HW287723   8.953   9.078   7.394
28597SOL     OW87724   7.813   8.761   8.965
28597SOL    HW187725   7.813   8.831   8.894
28597SOL    HW287726   7.734   8.700   8.952
28598SOL     OW87727   9.031   8.740   8.729
28598SOL    HW187728   9.117   8.727   8.778
28598SOL    HW287729   8.973   8.804   8.780
28599SOL     OW87730   8.520   8.545   8.214
28599SOL    HW187731   8.437   8.495   8.240
28599SOL    HW287732   8.583   8.484   8.167
28600SOL     OW87733   8.533   7.690   8.415
28600SOL    HW187734   8.529   7.654   8.322
28600SOL    HW287735   8.547   7.615   8.480
28601SOL     OW87736   8.023   8.935   7.937
28601SOL    HW187737   8.069   8.880   7.867
28601SOL    HW287738   7.925   8.937   7.919
28602SOL     OW87739   9.340   7.904   8.921
28602SOL    HW187740   9.395   7.983   8.946
28602SOL    HW287741   9.314   7.910   8.824
28603SOL     OW87742   7.698   8.766   7.728
28603SOL    HW187743   7.604   8.771   7.693
28603SOL    HW287744   7.710   8.835   7.799
28604SOL     OW87745   7.593   8.501   9.200
28604SOL    HW187746   7.507   8.476   9.244
28604SOL    HW287747   7.668   8.449   9.241
28605SOL     OW87748   7.552   7.805   7.417
28605SOL    HW187749   7.462   7.797   7.374
28605SOL    HW287750   7.595   7.891   7.389
28606SOL     OW87751   8.828   8.305   8.818
28606SOL    HW187752   8.767   8.357   8.758
28606SOL    HW287753   8.923   8.322   8.792
28607SOL     OW87754   7.487   7.606   7.666
28607SOL    HW187755   7.473   7.674   7.594
28607SOL    HW287756   7.581   7.572   7.662
28608SOL     OW87757   8.661   8.742   7.586
28608SOL    HW187758   8.617   8.652   7.576
28608SOL    HW287759   8.669   8.764   7.683
28609SOL     OW87760   8.097   8.301   8.897
28609SOL    HW187761   8.140   8.384   8.863
28609SOL    HW287762   8.167   8.239   8.933
28610SOL     OW87763   8.959   9.318   8.524
28610SOL    HW187764   9.001   9.373   8.452
28610SOL    HW287765   9.025   9.251   8.557
28611SOL     OW87766   8.092   7.998   9.087
28611SOL    HW187767   8.169   8.059   9.068
28611SOL    HW287768   8.126   7.908   9.114
28612SOL     OW87769   8.842   8.608   9.096
28612SOL    HW187770   8.827   8.631   9.192
28612SOL    HW287771   8.935   8.633   9.070
28613SOL     OW87772   7.778   9.204   9.032
28613SOL    HW187773   7.690   9.251   9.026
28613SOL    HW287774   7.764   9.110   9.063
28614SOL     OW87775   9.076   8.346   8.713
28614SOL    HW187776   9.088   8.257   8.670
28614SOL    HW287777   9.056   8.415   8.643
28615SOL     OW87778   8.614   7.738   7.833
28615SOL    HW187779   8.685   7.673   7.861
28615SOL    HW287780   8.650   7.831   7.840
28616SOL     OW87781   7.952   8.221   8.137
28616SOL    HW187782   8.028   8.283   8.116
28616SOL    HW287783   7.915   8.183   8.053
28617SOL     OW87784   9.171   7.846   9.125
28617SOL    HW187785   9.228   7.866   9.046
28617SOL    HW287786   9.102   7.777   9.101
28618SOL     OW87787   9.155   8.416   8.967
28618SOL    HW187788   9.150   8.514   8.986
28618SOL    HW287789   9.136   8.400   8.870
28619SOL     OW87790   8.233   8.795   7.533
28619SOL    HW187791   8.214   8.788   7.631
28619SOL    HW287792   8.228   8.891   7.506
28620SOL     OW87793   8.130   9.150   8.400
28620SOL    HW187794   8.100   9.244   8.387
28620SOL    HW287795   8.230   9.147   8.401
28621SOL     OW87796   8.305   8.381   8.302
28621SOL    HW187797   8.383   8.325   8.331
28621SOL    HW287798   8.232   8.373   8.369
28622SOL     OW87799   8.563   8.490   7.536
28622SOL    HW187800   8.499   8.510   7.462
28622SOL    HW287801   8.622   8.413   7.509
28623SOL     OW87802   9.463   8.986   8.299
28623SOL    HW187803   9.403   9.049   8.349
28623SOL    HW287804   9.415   8.899   8.286
28624SOL     OW87805   7.660   8.744   9.304
28624SOL    HW187806   7.638   8.658   9.258
28624SOL    HW287807   7.592   8.761   9.376
28625SOL     OW87808   7.632   8.712   8.084
28625SOL    HW187809   7.670   8.674   8.169
28625SOL    HW287810   7.662   8.656   8.007
28626SOL     OW87811   8.122   8.909   9.120
28626SOL    HW187812   8.045   8.858   9.160
28626SOL    HW287813   8.131   8.997   9.166
28627SOL     OW87814   9.294   7.633   8.725
28627SOL    HW187815   9.380   7.634   8.777
28627SOL    HW287816   9.313   7.608   8.630
28628SOL     OW87817   7.777   7.865   7.954
28628SOL    HW187818   7.813   7.798   7.890
28628SOL    HW287819   7.732   7.818   8.030
28629SOL     OW87820   7.800   8.009   8.712
28629SOL    HW187821   7.890   7.966   8.710
28629SOL    HW287822   7.755   7.997   8.624
28630SOL     OW87823   8.280   9.016   8.122
28630SOL    HW187824   8.242   9.088   8.064
28630SOL    HW287825   8.210   8.947   8.140
28631SOL     OW87826   8.904   7.727   8.617
28631SOL    HW187827   8.956   7.675   8.685
28631SOL    HW287828   8.825   7.769   8.661
28632SOL     OW87829   8.522   7.433   8.528
28632SOL    HW187830   8.456   7.392   8.464
28632SOL    HW287831   8.609   7.385   8.521
28633SOL     OW87832   8.195   8.760   7.802
28633SOL    HW187833   8.182   8.661   7.809
28633SOL    HW287834   8.281   8.785   7.845
28634SOL     OW87835   8.056   9.035   8.758
28634SOL    HW187836   8.044   9.131   8.782
28634SOL    HW287837   8.142   9.024   8.706
28635SOL     OW87838   8.812   7.533   7.620
28635SOL    HW187839   8.860   7.460   7.571
28635SOL    HW287840   8.717   7.505   7.636
28636SOL     OW87841   9.067   7.657   8.406
28636SOL    HW187842   9.008   7.686   8.482
28636SOL    HW287843   9.073   7.731   8.339
28637SOL     OW87844   7.483   8.430   7.786
28637SOL    HW187845   7.576   8.416   7.753
28637SOL    HW287846   7.441   8.341   7.807
28638SOL     OW87847   8.320   9.111   7.769
28638SOL    HW187848   8.234   9.087   7.723
28638SOL    HW287849   8.302   9.180   7.839
28639SOL     OW87850   7.645   8.034   9.464
28639SOL    HW187851   7.550   8.031   9.496
28639SOL    HW287852   7.646   8.043   9.364
28640SOL     OW87853   9.257   8.105   9.485
28640SOL    HW187854   9.189   8.097   9.412
28640SOL    HW287855   9.238   8.037   9.556
28641SOL     OW87856   7.676   9.224   9.774
28641SOL    HW187857   7.688   9.306   9.830
28641SOL    HW287858   7.754   9.215   9.712
28642SOL     OW87859   7.633   8.969   9.856
28642SOL    HW187860   7.655   9.064   9.831
28642SOL    HW287861   7.590   8.968   9.947
28643SOL     OW87862   8.051   8.446   9.495
28643SOL    HW187863   8.087   8.499   9.418
28643SOL    HW287864   8.104   8.467   9.577
28644SOL     OW87865   7.484   8.138   9.881
28644SOL    HW187866   7.395   8.112   9.845
28644SOL    HW287867   7.473   8.210   9.950
28645SOL     OW87868   9.294   9.189   9.640
28645SOL    HW187869   9.379   9.166   9.688
28645SOL    HW287870   9.297   9.284   9.610
28646SOL     OW87871   7.475   9.034   9.471
28646SOL    HW187872   7.465   8.935   9.479
28646SOL    HW287873   7.443   9.078   9.555
28647SOL     OW87874   9.038   8.363   9.930
28647SOL    HW187875   9.114   8.359   9.995
28647SOL    HW287876   9.047   8.443   9.872
28648SOL     OW87877   9.120   8.582   9.779
28648SOL    HW187878   9.218   8.573   9.760
28648SOL    HW287879   9.106   8.657   9.844
28649SOL     OW87880   8.048   8.797   9.986
28649SOL    HW187881   7.997   8.713   0.005
28649SOL    HW287882   8.038   8.820   9.889
28650SOL     OW87883   8.211   7.528   9.919
28650SOL    HW187884   8.275   7.579   9.861
28650SOL    HW287885   8.127   7.508   9.868
28651SOL     OW87886   8.993   8.522   9.541
28651SOL    HW187887   8.911   8.469   9.561
28651SOL    HW287888   9.038   8.549   9.626
28652SOL     OW87889   8.042   8.171   9.580
28652SOL    HW187890   8.055   8.261   9.539
28652SOL    HW287891   7.988   8.181   9.664
28653SOL     OW87892   9.024   9.136   9.614
28653SOL    HW187893   9.123   9.145   9.624
28653SOL    HW287894   9.000   9.124   9.518
28654SOL     OW87895   8.501   8.105   9.738
28654SOL    HW187896   8.530   8.070   9.827
28654SOL    HW287897   8.407   8.077   9.720
28655SOL     OW87898   7.429   8.330   0.064
28655SOL    HW187899   7.448   8.317   0.162
28655SOL    HW287900   7.466   8.418   0.035
28656SOL     OW87901   8.308   7.806   9.517
28656SOL    HW187902   8.361   7.849   9.444
28656SOL    HW287903   8.246   7.738   9.476
28657SOL     OW87904   8.709   8.561   9.830
28657SOL    HW187905   8.771   8.570   9.907
28657SOL    HW287906   8.690   8.652   9.792
28658SOL     OW87907   8.444   8.933   9.853
28658SOL    HW187908   8.408   9.010   9.799
28658SOL    HW287909   8.386   8.919   9.933
28659SOL     OW87910   7.786   9.359   0.177
28659SOL    HW187911   7.772   9.284   0.242
28659SOL    HW287912   7.883   9.367   0.155
28660SOL     OW87913   7.798   8.435   9.610
28660SOL    HW187914   7.890   8.450   9.575
28660SOL    HW287915   7.756   8.358   9.562
28661SOL     OW87916   8.574   9.221   9.553
28661SOL    HW187917   8.496   9.194   9.608
28661SOL    HW287918   8.598   9.147   9.490
28662SOL     OW87919   9.034   8.852   9.390
28662SOL    HW187920   8.999   8.945   9.377
28662SOL    HW287921   8.962   8.787   9.370
28663SOL     OW87922   7.922   9.259   9.639
28663SOL    HW187923   7.966   9.315   9.709
28663SOL    HW287924   7.991   9.200   9.596
28664SOL     OW87925   8.888   7.663   9.786
28664SOL    HW187926   8.890   7.626   9.693
28664SOL    HW287927   8.979   7.696   9.811
28665SOL     OW87928   7.888   8.171   9.807
28665SOL    HW187929   7.905   8.075   9.831
28665SOL    HW287930   7.789   8.186   9.797
28666SOL     OW87931   8.134   7.601   9.451
28666SOL    HW187932   8.184   7.514   9.451
28666SOL    HW287933   8.073   7.604   9.372
28667SOL     OW87934   7.969   7.508   9.785
28667SOL    HW187935   7.888   7.507   9.843
28667SOL    HW287936   7.976   7.595   9.737
28668SOL     OW87937   8.832   8.666   9.363
28668SOL    HW187938   8.887   8.609   9.426
28668SOL    HW287939   8.748   8.693   9.409
28669SOL     OW87940   7.714   7.483   9.451
28669SOL    HW187941   7.748   7.574   9.425
28669SOL    HW287942   7.789   7.428   9.488
28670SOL     OW87943   8.378   7.683   9.758
28670SOL    HW187944   8.346   7.719   9.671
28670SOL    HW287945   8.475   7.704   9.769
28671SOL     OW87946   7.865   8.606   0.075
28671SOL    HW187947   7.813   8.667   0.134
28671SOL    HW287948   7.821   8.600   9.986
28672SOL     OW87949   8.702   9.220   9.888
28672SOL    HW187950   8.755   9.292   9.845
28672SOL    HW287951   8.657   9.256   9.970
28673SOL     OW87952   8.487   7.950   9.350
28673SOL    HW187953   8.495   8.042   9.311
28673SOL    HW287954   8.548   7.941   9.428
28674SOL     OW87955   8.293   7.887   9.927
28674SOL    HW187956   8.253   7.951   9.861
28674SOL    HW287957   8.311   7.800   9.881
28675SOL     OW87958   9.406   8.281   9.635
28675SOL    HW187959   9.390   8.242   9.725
28675SOL    HW287960   9.350   8.232   9.567
28676SOL     OW87961   7.917   8.896   9.491
28676SOL    HW187962   7.832   8.872   9.539
28676SOL    HW287963   7.916   8.856   9.399
28677SOL     OW87964   8.811   8.001   9.341
28677SOL    HW187965   8.773   7.976   9.430
28677SOL    HW287966   8.909   8.015   9.350
28678SOL     OW87967   7.996   7.738   9.648
28678SOL    HW187968   8.055   7.691   9.582
28678SOL    HW287969   7.952   7.816   9.604
28679SOL     OW87970   8.206   8.499   9.715
28679SOL    HW187971   8.154   8.458   9.790
28679SOL    HW287972   8.289   8.445   9.699
28680SOL     OW87973   7.747   8.608   9.824
28680SOL    HW187974   7.741   8.692   9.771
28680SOL    HW287975   7.774   8.532   9.764
28681SOL     OW87976   8.658   8.817   9.731
28681SOL    HW187977   8.735   8.880   9.739
28681SOL    HW287978   8.577   8.855   9.776
28682SOL     OW87979   9.041   8.144   9.772
28682SOL    HW187980   9.030   8.221   9.835
28682SOL    HW287981   8.971   8.149   9.701
28683SOL     OW87982   8.654   7.950   9.569
28683SOL    HW187983   8.656   7.869   9.628
28683SOL    HW287984   8.610   8.025   9.618
28684SOL     OW87985   7.737   7.508   9.937
28684SOL    HW187986   7.662   7.573   9.951
28684SOL    HW287987   7.775   7.482   0.026
28685SOL     OW87988   9.166   7.921   9.664
28685SOL    HW187989   9.171   7.833   9.712
28685SOL    HW287990   9.115   7.986   9.720
28686SOL     OW87991   8.993   7.691   9.357
28686SOL    HW187992   8.946   7.632   9.423
28686SOL    HW287993   9.050   7.757   9.406
28687SOL     OW87994   8.633   8.188   9.256
28687SOL    HW187995   8.698   8.119   9.289
28687SOL    HW287996   8.678   8.245   9.187
28688SOL     OW87997   7.465   8.761   9.494
28688SOL    HW187998   7.372   8.777   9.461
28688SOL    HW287999   7.475   8.665   9.521
28689SOL     OW88000   8.248   8.017   9.682
28689SOL    HW188001   8.263   7.939   9.620
28689SOL    HW288002   8.177   8.076   9.644
28690SOL     OW88003   7.891   7.947   9.512
28690SOL    HW188004   7.956   8.022   9.523
28690SOL    HW288005   7.798   7.984   9.504
28691SOL     OW88006   8.759   8.410   9.602
28691SOL    HW188007   8.730   8.451   9.688
28691SOL    HW288008   8.681   8.404   9.540
28692SOL     OW88009   9.195   7.652   9.755
28692SOL    HW188010   9.260   7.653   9.679
28692SOL    HW288011   9.163   7.559   9.771
28693SOL     OW88012   8.838   9.018   9.771
28693SOL    HW188013   8.907   9.058   9.710
28693SOL    HW288014   8.779   9.091   9.806
28694SOL     OW88015   8.109   9.102   9.505
28694SOL    HW188016   8.127   9.126   9.409
28694SOL    HW288017   8.045   9.025   9.508
28695SOL     OW88018   8.656   9.027   9.372
28695SOL    HW188019   8.647   8.937   9.413
28695SOL    HW288020   8.577   9.044   9.312
28696SOL     OW88021   8.426   8.358   9.656
28696SOL    HW188022   8.468   8.374   9.566
28696SOL    HW288023   8.460   8.272   9.694
28697SOL     OW88024   8.920   9.109   9.355
28697SOL    HW188025   8.825   9.079   9.346
28697SOL    HW288026   8.964   9.107   9.265
28698SOL     OW88027   8.047   8.857   9.727
28698SOL    HW188028   8.138   8.824   9.702
28698SOL    HW288029   7.993   8.870   9.644
28699SOL     OW88030   7.696   8.820   9.644
28699SOL    HW188031   7.612   8.801   9.594
28699SOL    HW288032   7.676   8.878   9.723
28700SOL     OW88033   7.504   7.794   9.299
28700SOL    HW188034   7.419   7.781   9.248
28700SOL    HW288035   7.547   7.879   9.270
28701SOL     OW88036   7.475   7.599   9.518
28701SOL    HW188037   7.462   7.675   9.454
28701SOL    HW288038   7.564   7.557   9.502
28702SOL     OW88039   8.603   8.773   9.466
28702SOL    HW188040   8.505   8.754   9.451
28702SOL    HW288041   8.620   8.778   9.564
28703SOL     OW88042   8.637   7.771   9.787
28703SOL    HW188043   8.731   7.739   9.797
28703SOL    HW288044   8.618   7.840   9.858
28704SOL     OW88045   8.055   8.370   9.903
28704SOL    HW188046   8.056   8.370   0.003
28704SOL    HW288047   7.994   8.298   9.870
28705SOL     OW88048   8.322   8.799   9.409
28705SOL    HW188049   8.305   8.801   9.507
28705SOL    HW288050   8.334   8.892   9.375
28706SOL     OW88051   8.551   8.395   9.415
28706SOL    HW188052   8.502   8.458   9.355
28706SOL    HW288053   8.579   8.315   9.363
28707SOL     OW88054   7.513   8.568   9.966
28707SOL    HW188055   7.502   8.639   0.035
28707SOL    HW288056   7.596   8.585   9.913
28708SOL     OW88057   7.923   7.911   9.867
28708SOL    HW188058   7.958   7.843   9.802
28708SOL    HW288059   7.903   7.867   9.954
28709SOL     OW88060   8.294   8.758   9.675
28709SOL    HW188061   8.268   8.663   9.693
28709SOL    HW288062   8.355   8.790   9.748
28710SOL     OW88063   8.875   7.531   9.550
28710SOL    HW188064   8.930   7.449   9.566
28710SOL    HW288065   8.783   7.505   9.520
28711SOL     OW88066   7.532   8.513   9.577
28711SOL    HW188067   7.632   8.520   9.586
28711SOL    HW288068   7.504   8.417   9.581
28712SOL     OW88069   8.333   9.141   9.693
28712SOL    HW188070   8.258   9.118   9.631
28712SOL    HW288071   8.312   9.226   9.741
28713SOL     OW88072   7.673   9.571   1.031
28713SOL    HW188073   7.724   9.523   1.102
28713SOL    HW288074   7.580   9.535   1.027
28714SOL     OW88075   7.454   9.691   0.633
28714SOL    HW188076   7.370   9.695   0.687
28714SOL    HW288077   7.440   9.635   0.552
28715SOL     OW88078   9.068   9.945   0.116
28715SOL    HW188079   9.073   9.954   0.016
28715SOL    HW288080   9.071   9.849   0.141
28716SOL     OW88081   7.985   9.798   1.421
28716SOL    HW188082   8.080   9.830   1.417
28716SOL    HW288083   7.978   9.721   1.485
28717SOL     OW88084   9.041   9.757   0.743
28717SOL    HW188085   9.029   9.803   0.655
28717SOL    HW288086   9.004   9.815   0.816
28718SOL     OW88087   9.059   9.409   1.449
28718SOL    HW188088   9.117   9.488   1.426
28718SOL    HW288089   9.008   9.429   1.533
28719SOL     OW88090   7.477   9.966   0.582
28719SOL    HW188091   7.477   9.868   0.599
28719SOL    HW288092   7.570   0.002   0.586
28720SOL     OW88093   8.305   9.378   0.518
28720SOL    HW188094   8.337   9.467   0.485
28720SOL    HW288095   8.207   9.384   0.539
28721SOL     OW88096   8.734   9.722   0.946
28721SOL    HW188097   8.653   9.671   0.916
28721SOL    HW288098   8.775   9.675   1.024
28722SOL     OW88099   8.246   9.879   1.447
28722SOL    HW188100   8.223   9.873   1.544
28722SOL    HW288101   8.265   9.974   1.423
28723SOL     OW88102   8.840   9.725   1.680
28723SOL    HW188103   8.906   9.790   1.718
28723SOL    HW288104   8.879   9.633   1.682
28724SOL     OW88105   8.380   9.722   1.262
28724SOL    HW188106   8.325   9.773   1.328
28724SOL    HW288107   8.322   9.655   1.216
28725SOL     OW88108   8.315   9.649   0.164
28725SOL    HW188109   8.325   9.704   0.082
28725SOL    HW288110   8.325   9.552   0.141
28726SOL     OW88111   9.067   9.874   1.724
28726SOL    HW188112   9.054   9.927   1.640
28726SOL    HW288113   9.123   9.793   1.705
28727SOL     OW88114   8.033   9.445   0.820
28727SOL    HW188115   8.039   9.540   0.853
28727SOL    HW288116   8.042   9.444   0.720
28728SOL     OW88117   7.750   9.518   1.472
28728SOL    HW188118   7.690   9.447   1.509
28728SOL    HW288119   7.729   9.606   1.516
28729SOL     OW88120   8.859   9.455   0.445
28729SOL    HW188121   8.838   9.426   0.352
28729SOL    HW288122   8.954   9.486   0.450
28730SOL     OW88123   8.962   9.482   1.705
28730SOL    HW188124   8.965   9.501   1.803
28730SOL    HW288125   8.891   9.414   1.686
28731SOL     OW88126   8.048   9.400   0.096
28731SOL    HW188127   8.140   9.363   0.106
28731SOL    HW288128   8.031   9.422   9.999
28732SOL     OW88129   8.230   9.591   1.751
28732SOL    HW188130   8.317   9.544   1.762
28732SOL    HW288131   8.159   9.543   1.803
28733SOL     OW88132   8.764   9.878   1.470
28733SOL    HW188133   8.784   9.815   1.546
28733SOL    HW288134   8.839   9.943   1.460
28734SOL     OW88135   8.461   9.806   0.770
28734SOL    HW188136   8.372   9.794   0.725
28734SOL    HW288137   8.479   9.728   0.829
28735SOL     OW88138   8.028   9.426   0.533
28735SOL    HW188139   7.931   9.418   0.559
28735SOL    HW288140   8.038   9.497   0.464
28736SOL     OW88141   8.374   9.623   0.429
28736SOL    HW188142   8.370   9.628   0.330
28736SOL    HW288143   8.451   9.677   0.462
28737SOL     OW88144   8.509   9.925   1.569
28737SOL    HW188145   8.445   9.887   1.503
28737SOL    HW288146   8.602   9.922   1.532
28738SOL     OW88147   8.612   9.864   9.995
28738SOL    HW188148   8.518   9.834   9.981
28738SOL    HW288149   8.625   9.892   0.090
28739SOL     OW88150   7.530   9.925   1.332
28739SOL    HW188151   7.629   9.912   1.326
28739SOL    HW288152   7.509   0.010   1.381
28740SOL     OW88153   8.246   9.787   0.614
28740SOL    HW188154   8.230   9.876   0.571
28740SOL    HW288155   8.273   9.721   0.545
28741SOL     OW88156   8.509   9.355   0.709
28741SOL    HW188157   8.443   9.365   0.635
28741SOL    HW288158   8.475   9.290   0.776
28742SOL     OW88159   8.927   9.907   0.948
28742SOL    HW188160   8.843   9.854   0.936
28742SOL    HW288161   8.969   9.884   1.036
28743SOL     OW88162   8.063   9.581   0.300
28743SOL    HW188163   8.043   9.515   0.228
28743SOL    HW288164   8.148   9.629   0.280
28744SOL     OW88165   8.426   9.337   1.368
28744SOL    HW188166   8.433   9.366   1.273
28744SOL    HW288167   8.483   9.397   1.425
28745SOL     OW88168   8.652   9.686   1.307
28745SOL    HW188169   8.687   9.766   1.356
28745SOL    HW288170   8.557   9.701   1.282
28746SOL     OW88171   8.056   9.730   0.890
28746SOL    HW188172   8.017   9.731   0.798
28746SOL    HW288173   8.112   9.811   0.904
28747SOL     OW88174   9.051   9.904   0.508
28747SOL    HW188175   8.993   9.984   0.491
28747SOL    HW288176   9.144   9.933   0.527
28748SOL     OW88177   8.439   9.438   1.851
28748SOL    HW188178   8.509   9.497   1.811
28748SOL    HW288179   8.482   9.364   1.903
28749SOL     OW88180   7.889   9.388   1.742
28749SOL    HW188181   7.850   9.299   1.719
28749SOL    HW288182   7.834   9.460   1.700
28750SOL     OW88183   8.185   9.976   0.935
28750SOL    HW188184   8.249   0.006   0.864
28750SOL    HW288185   8.116   0.047   0.950
28751SOL     OW88186   7.769   9.381   0.623
28751SOL    HW188187   7.732   9.468   0.656
28751SOL    HW288188   7.782   9.319   0.700
28752SOL     OW88189   9.061   9.695   0.326
28752SOL    HW188190   9.109   9.620   0.372
28752SOL    HW288191   9.054   9.773   0.387
28753SOL     OW88192   8.918   9.593   0.115
28753SOL    HW188193   8.881   9.503   0.138
28753SOL    HW288194   8.970   9.629   0.193
28754SOL     OW88195   7.807   0.028   0.881
28754SOL    HW188196   7.881   0.087   0.913
28754SOL    HW288197   7.807   9.943   0.934
28755SOL     OW88198   7.818   9.797   1.023
28755SOL    HW188199   7.761   9.715   1.026
28755SOL    HW288200   7.905   9.774   0.979
28756SOL     OW88201   8.591   9.636   1.738
28756SOL    HW188202   8.539   9.697   1.798
28756SOL    HW288203   8.682   9.674   1.723
28757SOL     OW88204   8.599   9.500   1.502
28757SOL    HW188205   8.583   9.551   1.587
28757SOL    HW288206   8.623   9.564   1.429
28758SOL     OW88207   7.486   9.904   1.061
28758SOL    HW188208   7.565   9.870   1.011
28758SOL    HW288209   7.509   9.914   1.158
28759SOL     OW88210   8.388   9.912   0.289
28759SOL    HW188211   8.343   9.828   0.259
28759SOL    HW288212   8.341   9.948   0.369
28760SOL     OW88213   9.045   9.824   1.174
28760SOL    HW188214   8.989   9.744   1.195
28760SOL    HW288215   9.133   9.794   1.138
28761SOL     OW88216   8.341   9.385   0.081
28761SOL    HW188217   8.324   9.378   9.983
28761SOL    HW288218   8.420   9.329   0.105
28762SOL     OW88219   9.150   9.461   0.468
28762SOL    HW188220   9.208   9.420   0.397
28762SOL    HW288221   9.115   9.389   0.528
28763SOL     OW88222   9.290   9.437   0.952
28763SOL    HW188223   9.302   9.349   0.906
28763SOL    HW288224   9.198   9.472   0.934
28764SOL     OW88225   7.683   9.605   0.751
28764SOL    HW188226   7.597   9.641   0.714
28764SOL    HW288227   7.674   9.594   0.850
28765SOL     OW88228   8.515   9.565   0.893
28765SOL    HW188229   8.521   9.499   0.819
28765SOL    HW288230   8.491   9.517   0.978
28766SOL     OW88231   9.253   9.621   1.407
28766SOL    HW188232   9.275   9.714   1.377
28766SOL    HW288233   9.270   9.557   1.332
28767SOL     OW88234   7.480   9.575   9.953
28767SOL    HW188235   7.412   9.531   9.894
28767SOL    HW288236   7.466   9.674   9.950
28768SOL     OW88237   7.523   9.444   0.197
28768SOL    HW188238   7.497   9.494   0.114
28768SOL    HW288239   7.620   9.423   0.193
28769SOL     OW88240   8.178   9.853   1.713
28769SOL    HW188241   8.249   9.910   1.753
28769SOL    HW288242   8.201   9.756   1.728
28770SOL     OW88243   9.185   9.637   1.669
28770SOL    HW188244   9.214   9.630   1.573
28770SOL    HW288245   9.111   9.572   1.685
28771SOL     OW88246   8.608   0.185   0.045
28771SOL    HW188247   8.599   0.283   0.028
28771SOL    HW288248   8.700   0.165   0.078
28772SOL     OW88249   9.298   9.432   1.227
28772SOL    HW188250   9.317   9.338   1.255
28772SOL    HW288251   9.295   9.438   1.127
28773SOL     OW88252   7.912   9.718   0.659
28773SOL    HW188253   7.902   9.752   0.565
28773SOL    HW288254   7.824   9.682   0.690
28774SOL     OW88255   7.793   9.913   1.272
28774SOL    HW188256   7.862   9.875   1.333
28774SOL    HW288257   7.807   9.877   1.180
28775SOL     OW88258   8.861   9.599   1.154
28775SOL    HW188259   8.857   9.500   1.138
28775SOL    HW288260   8.788   9.626   1.217
28776SOL     OW88261   8.455   9.382   1.096
28776SOL    HW188262   8.367   9.345   1.064
28776SOL    HW288263   8.527   9.314   1.081
28777SOL     OW88264   8.820   9.346   0.199
28777SOL    HW188265   8.891   9.276   0.204
28777SOL    HW288266   8.730   9.303   0.187
28778SOL     OW88267   9.037   9.538   0.922
28778SOL    HW188268   8.988   9.576   1.001
28778SOL    HW288269   9.034   9.603   0.846
28779SOL     OW88270   7.603   9.625   2.904
28779SOL    HW188271   7.653   9.586   2.981
28779SOL    HW288272   7.516   9.577   2.892
28780SOL     OW88273   7.413   9.714   2.520
28780SOL    HW188274   7.324   9.729   2.564
28780SOL    HW288275   7.403   9.647   2.447
28781SOL     OW88276   9.033   9.928   1.989
28781SOL    HW188277   9.051   9.910   1.892
28781SOL    HW288278   9.059   9.848   2.043
28782SOL     OW88279   7.876   9.715   3.336
28782SOL    HW188280   7.963   9.676   3.307
28782SOL    HW288281   7.809   9.642   3.348
28783SOL     OW88282   9.063   9.738   2.598
28783SOL    HW188283   9.056   9.776   2.506
28783SOL    HW288284   9.003   9.788   2.660
28784SOL     OW88285   8.987   9.444   3.229
28784SOL    HW188286   9.075   9.465   3.187
28784SOL    HW288287   8.939   9.528   3.253
28785SOL     OW88288   7.465   9.977   2.443
28785SOL    HW188289   7.453   9.882   2.471
28785SOL    HW288290   7.559   0.006   2.462
28786SOL     OW88291   8.251   9.377   2.360
28786SOL    HW188292   8.297   9.463   2.335
28786SOL    HW288293   8.152   9.391   2.361
28787SOL     OW88294   7.778   9.568   3.699
28787SOL    HW188295   7.824   9.655   3.685
28787SOL    HW288296   7.684   9.575   3.666
28788SOL     OW88297   8.698   9.673   2.772
28788SOL    HW188298   8.608   9.629   2.774
28788SOL    HW288299   8.758   9.629   2.839
28789SOL     OW88300   8.291   9.881   3.237
28789SOL    HW188301   8.260   9.869   3.332
28789SOL    HW288302   8.224   9.841   3.175
28790SOL     OW88303   8.867   9.794   3.549
28790SOL    HW188304   8.913   9.870   3.594
28790SOL    HW288305   8.915   9.708   3.570
28791SOL     OW88306   8.482   9.854   3.027
28791SOL    HW188307   8.405   9.855   3.090
28791SOL    HW288308   8.449   9.841   2.933
28792SOL     OW88309   8.505   9.998   2.312
28792SOL    HW188310   8.584   0.054   2.337
28792SOL    HW288311   8.423   0.037   2.352
28793SOL     OW88312   8.285   9.656   2.052
28793SOL    HW188313   8.353   9.701   1.995
28793SOL    HW288314   8.255   9.571   2.008
28794SOL     OW88315   9.062   9.961   3.659
28794SOL    HW188316   9.101   9.978   3.749
28794SOL    HW288317   9.120   9.896   3.609
28795SOL     OW88318   7.989   9.427   2.843
28795SOL    HW188319   7.999   9.453   2.939
28795SOL    HW288320   7.999   9.507   2.785
28796SOL     OW88321   8.925   0.061   2.551
28796SOL    HW188322   8.897   9.991   2.617
28796SOL    HW288323   8.969   0.137   2.600
28797SOL     OW88324   7.664   9.539   3.382
28797SOL    HW188325   7.624   9.607   3.443
28797SOL    HW288326   7.633   9.447   3.408
28798SOL     OW88327   8.844   9.401   2.314
28798SOL    HW188328   8.831   9.376   2.218
28798SOL    HW288329   8.935   9.372   2.343
28799SOL     OW88330   9.016   9.578   3.624
28799SOL    HW188331   8.982   9.570   3.718
28799SOL    HW288332   9.013   9.488   3.580
28800SOL     OW88333   8.085   9.431   1.920
28800SOL    HW188334   8.146   9.352   1.914
28800SOL    HW288335   8.005   9.416   1.862
28801SOL     OW88336   8.207   9.585   3.560
28801SOL    HW188337   8.297   9.541   3.568
28801SOL    HW288338   8.150   9.557   3.637
28802SOL     OW88339   8.789   9.891   3.307
28802SOL    HW188340   8.820   9.856   3.395
28802SOL    HW288341   8.850   9.964   3.276
28803SOL     OW88342   8.384   9.802   2.757
28803SOL    HW188343   8.363   9.803   2.660
28803SOL    HW288344   8.407   9.709   2.785
28804SOL     OW88345   7.980   9.422   2.345
28804SOL    HW188346   7.910   9.429   2.416
28804SOL    HW288347   7.966   9.495   2.277
28805SOL     OW88348   7.743   9.402   2.062
28805SOL    HW188349   7.802   9.482   2.074
28805SOL    HW288350   7.787   9.322   2.103
28806SOL     OW88351   8.383   9.615   2.303
28806SOL    HW188352   8.348   9.631   2.211
28806SOL    HW288353   8.483   9.608   2.300
28807SOL     OW88354   8.525   9.932   3.386
28807SOL    HW188355   8.460   9.902   3.316
28807SOL    HW288356   8.618   9.921   3.352
28808SOL     OW88357   8.469   9.800   1.917
28808SOL    HW188358   8.440   9.887   1.877
28808SOL    HW288359   8.533   9.817   1.992
28809SOL     OW88360   7.544   9.939   3.186
28809SOL    HW188361   7.644   9.936   3.183
28809SOL    HW288362   7.513   0.032   3.206
28810SOL     OW88363   7.998   9.528   3.096
28810SOL    HW188364   8.047   9.491   3.175
28810SOL    HW288365   7.900   9.520   3.111
28811SOL     OW88366   8.328   9.811   2.498
28811SOL    HW188367   8.289   9.891   2.452
28811SOL    HW288368   8.344   9.738   2.432
28812SOL     OW88369   8.409   9.373   2.584
28812SOL    HW188370   8.349   9.379   2.504
28812SOL    HW288371   8.383   9.293   2.639
28813SOL     OW88372   8.882   9.875   2.748
28813SOL    HW188373   8.806   9.811   2.759
28813SOL    HW288374   8.912   9.908   2.837
28814SOL     OW88375   7.954   9.578   2.113
28814SOL    HW188376   8.011   9.527   2.047
28814SOL    HW288377   7.984   9.674   2.115
28815SOL     OW88378   8.393   9.378   3.212
28815SOL    HW188379   8.418   9.362   3.117
28815SOL    HW288380   8.466   9.429   3.258
28816SOL     OW88381   8.686   9.703   3.142
28816SOL    HW188382   8.732   9.771   3.199
28816SOL    HW288383   8.614   9.747   3.089
28817SOL     OW88384   8.004   9.677   2.730
28817SOL    HW188385   7.969   9.690   2.638
28817SOL    HW288386   8.063   9.754   2.755
28818SOL     OW88387   9.072   9.907   2.377
28818SOL    HW188388   9.011   9.968   2.428
28818SOL    HW288389   9.165   9.944   2.380
28819SOL     OW88390   8.441   9.459   3.601
28819SOL    HW188391   8.510   9.532   3.603
28819SOL    HW288392   8.485   9.373   3.575
28820SOL     OW88393   7.940   9.359   3.634
28820SOL    HW188394   7.892   9.289   3.581
28820SOL    HW288395   7.879   9.436   3.650
28821SOL     OW88396   8.624   9.836   2.135
28821SOL    HW188397   8.649   9.750   2.179
28821SOL    HW288398   8.574   9.893   2.200
28822SOL     OW88399   7.726   9.507   3.121
28822SOL    HW188400   7.700   9.529   3.215
28822SOL    HW288401   7.703   9.412   3.101
28823SOL     OW88402   8.135   9.896   2.825
28823SOL    HW188403   8.230   9.878   2.801
28823SOL    HW288404   8.115   9.993   2.811
28824SOL     OW88405   7.762   9.404   2.524
28824SOL    HW188406   7.723   9.493   2.549
28824SOL    HW288407   7.773   9.348   2.607
28825SOL     OW88408   9.071   9.722   2.170
28825SOL    HW188409   9.127   9.649   2.210
28825SOL    HW288410   9.056   9.793   2.239
28826SOL     OW88411   8.966   9.561   1.963
28826SOL    HW188412   8.906   9.493   2.006
28826SOL    HW288413   9.000   9.624   2.033
28827SOL     OW88414   7.831   0.012   2.752
28827SOL    HW188415   7.910   0.069   2.773
28827SOL    HW288416   7.828   9.934   2.815
28828SOL     OW88417   7.825   9.786   2.908
28828SOL    HW188418   7.740   9.733   2.904
28828SOL    HW288419   7.894   9.742   2.851
28829SOL     OW88420   8.620   9.665   3.576
28829SOL    HW188421   8.570   9.709   3.650
28829SOL    HW288422   8.707   9.714   3.562
28830SOL     OW88423   8.603   9.517   3.330
28830SOL    HW188424   8.602   9.567   3.417
28830SOL    HW288425   8.634   9.578   3.257
28831SOL     OW88426   7.461   9.870   2.936
28831SOL    HW188427   7.507   9.788   2.902
28831SOL    HW288428   7.500   9.896   3.025
28832SOL     OW88429   7.816   9.818   3.581
28832SOL    HW188430   7.840   9.784   3.490
28832SOL    HW288431   7.862   9.906   3.598
28833SOL     OW88432   8.190   9.909   2.122
28833SOL    HW188433   8.223   9.817   2.101
28833SOL    HW288434   8.233   9.942   2.206
28834SOL     OW88435   8.973   9.953   2.988
28834SOL    HW188436   8.959   9.994   3.078
28834SOL    HW288437   9.062   9.909   2.985
28835SOL     OW88438   8.117   9.774   3.070
28835SOL    HW188439   8.074   9.684   3.066
28835SOL    HW288440   8.110   9.818   2.980
28836SOL     OW88441   9.224   9.530   2.296
28836SOL    HW188442   9.283   9.501   2.220
28836SOL    HW288443   9.175   9.450   2.332
28837SOL     OW88444   9.295   9.471   2.858
28837SOL    HW188445   9.318   9.378   2.830
28837SOL    HW288446   9.204   9.494   2.824
28838SOL     OW88447   7.651   9.638   2.623
28838SOL    HW188448   7.564   9.669   2.584
28838SOL    HW288449   7.643   9.633   2.723
28839SOL     OW88450   8.461   9.541   2.794
28839SOL    HW188451   8.439   9.494   2.708
28839SOL    HW288452   8.463   9.474   2.868
28840SOL     OW88453   9.252   9.707   3.298
28840SOL    HW188454   9.279   9.792   3.254
28840SOL    HW288455   9.231   9.639   3.228
28841SOL     OW88456   8.147   9.459   3.317
28841SOL    HW188457   8.233   9.430   3.277
28841SOL    HW288458   8.164   9.507   3.403
28842SOL     OW88459   7.473   9.435   2.109
28842SOL    HW188460   7.421   9.461   2.028
28842SOL    HW288461   7.570   9.435   2.087
28843SOL     OW88462   8.210   9.858   3.496
28843SOL    HW188463   8.278   9.904   3.553
28843SOL    HW288464   8.205   9.761   3.521
28844SOL     OW88465   8.662   9.612   2.295
28844SOL    HW188466   8.731   9.540   2.296
28844SOL    HW288467   8.671   9.669   2.377
28845SOL     OW88468   9.215   9.753   3.557
28845SOL    HW188469   9.227   9.734   3.459
28845SOL    HW288470   9.147   9.690   3.595
28846SOL     OW88471   8.537   0.206   1.918
28846SOL    HW188472   8.565   0.272   1.849
28846SOL    HW288473   8.613   0.187   1.980
28847SOL     OW88474   9.233   9.494   3.126
28847SOL    HW188475   9.311   9.464   3.182
28847SOL    HW288476   9.257   9.489   3.029
28848SOL     OW88477   7.877   9.735   2.499
28848SOL    HW188478   7.868   9.823   2.452
28848SOL    HW288479   7.788   9.708   2.536
28849SOL     OW88480   7.811   9.914   3.150
28849SOL    HW188481   7.844   9.854   3.223
28849SOL    HW288482   7.828   9.872   3.061
28850SOL     OW88483   8.846   9.560   2.969
28850SOL    HW188484   8.869   9.470   3.004
28850SOL    HW288485   8.792   9.610   3.037
28851SOL     OW88486   8.473   9.309   2.952
28851SOL    HW188487   8.410   9.250   2.901
28851SOL    HW288488   8.566   9.273   2.945
28852SOL     OW88489   8.822   9.343   2.045
28852SOL    HW188490   8.883   9.276   2.001
28852SOL    HW288491   8.727   9.321   2.022
28853SOL     OW88492   8.672   9.765   2.513
28853SOL    HW188493   8.615   9.847   2.514
28853SOL    HW288494   8.686   9.732   2.606
28854SOL     OW88495   9.044   9.528   2.778
28854SOL    HW188496   8.975   9.558   2.843
28854SOL    HW288497   9.049   9.592   2.702
28855SOL     OW88498   7.631   9.632   4.749
28855SOL    HW188499   7.672   9.599   4.834
28855SOL    HW288500   7.552   9.575   4.726
28856SOL     OW88501   7.441   9.701   4.373
28856SOL    HW188502   7.359   9.715   4.427
28856SOL    HW288503   7.423   9.635   4.301
28857SOL     OW88504   7.960   9.681   5.193
28857SOL    HW188505   8.036   9.618   5.209
28857SOL    HW288506   7.875   9.640   5.225
28858SOL     OW88507   9.028   9.693   4.442
28858SOL    HW188508   8.946   9.696   4.385
28858SOL    HW288509   9.017   9.757   4.519
28859SOL     OW88510   9.160   9.417   5.283
28859SOL    HW188511   9.176   9.494   5.222
28859SOL    HW288512   9.100   9.446   5.358
28860SOL     OW88513   7.495   9.963   4.291
28860SOL    HW188514   7.485   9.868   4.320
28860SOL    HW288515   7.588   9.994   4.309
28861SOL     OW88516   8.271   9.380   4.245
28861SOL    HW188517   8.308   9.468   4.213
28861SOL    HW288518   8.172   9.386   4.251
28862SOL     OW88519   7.839   9.546   5.612
28862SOL    HW188520   7.889   9.632   5.624
28862SOL    HW288521   7.741   9.563   5.615
28863SOL     OW88522   8.719   9.672   4.635
28863SOL    HW188523   8.625   9.638   4.636
28863SOL    HW288524   8.775   9.619   4.699
28864SOL     OW88525   8.300   9.846   5.139
28864SOL    HW188526   8.257   9.835   5.229
28864SOL    HW288527   8.238   9.810   5.069
28865SOL     OW88528   8.878   9.778   5.392
28865SOL    HW188529   8.921   9.843   5.455
28865SOL    HW288530   8.912   9.686   5.411
28866SOL     OW88531   8.477   9.750   4.946
28866SOL    HW188532   8.422   9.778   5.025
28866SOL    HW288533   8.420   9.698   4.882
28867SOL     OW88534   8.549   0.021   4.211
28867SOL    HW188535   8.578   0.029   4.307
28867SOL    HW288536   8.452   0.045   4.204
28868SOL     OW88537   8.275   9.682   3.915
28868SOL    HW188538   8.349   9.714   3.857
28868SOL    HW288539   8.226   9.608   3.869
28869SOL     OW88540   9.063   9.926   5.548
28869SOL    HW188541   9.104   0.016   5.531
28869SOL    HW288542   9.120   9.856   5.506
28870SOL     OW88543   8.009   9.426   4.674
28870SOL    HW188544   8.009   9.450   4.771
28870SOL    HW288545   8.020   9.508   4.619
28871SOL     OW88546   8.910   0.047   4.443
28871SOL    HW188547   8.913   9.971   4.508
28871SOL    HW288548   8.951   0.128   4.484
28872SOL     OW88549   7.688   9.615   5.232
28872SOL    HW188550   7.651   9.708   5.224
28872SOL    HW288551   7.631   9.561   5.293
28873SOL     OW88552   8.801   9.409   4.153
28873SOL    HW188553   8.780   9.375   4.062
28873SOL    HW288554   8.891   9.453   4.153
28874SOL     OW88555   8.976   9.529   5.470
28874SOL    HW188556   8.961   9.560   5.564
28874SOL    HW288557   8.913   9.454   5.449
28875SOL     OW88558   8.123   9.463   3.810
28875SOL    HW188559   8.197   9.396   3.823
28875SOL    HW288560   8.050   9.422   3.756
28876SOL     OW88561   8.248   9.574   5.502
28876SOL    HW188562   8.336   9.527   5.497
28876SOL    HW288563   8.194   9.535   5.577
28877SOL     OW88564   8.888   9.868   5.130
28877SOL    HW188565   8.882   9.828   5.221
28877SOL    HW288566   8.907   9.965   5.137
28878SOL     OW88567   8.386   9.793   4.591
28878SOL    HW188568   8.351   9.786   4.498
28878SOL    HW288569   8.417   9.703   4.622
28879SOL     OW88570   8.001   9.401   4.232
28879SOL    HW188571   7.927   9.400   4.300
28879SOL    HW288572   7.991   9.481   4.173
28880SOL     OW88573   7.704   9.373   3.879
28880SOL    HW188574   7.745   9.448   3.827
28880SOL    HW288575   7.774   9.329   3.935
28881SOL     OW88576   8.375   9.618   4.159
28881SOL    HW188577   8.342   9.639   4.067
28881SOL    HW288578   8.475   9.622   4.160
28882SOL     OW88579   8.522   0.002   5.197
28882SOL    HW188580   8.438   9.953   5.174
28882SOL    HW288581   8.506   0.100   5.187
28883SOL     OW88582   8.486   9.794   3.780
28883SOL    HW188583   8.459   9.875   3.728
28883SOL    HW288584   8.541   9.822   3.859
28884SOL     OW88585   7.577   9.869   5.046
28884SOL    HW188586   7.674   9.849   5.034
28884SOL    HW288587   7.564   9.968   5.049
28885SOL     OW88588   7.997   9.502   4.932
28885SOL    HW188589   8.022   9.429   4.996
28885SOL    HW288590   7.901   9.526   4.944
28886SOL     OW88591   8.298   9.805   4.342
28886SOL    HW188592   8.287   9.893   4.296
28886SOL    HW288593   8.319   9.734   4.275
28887SOL     OW88594   8.455   9.358   4.449
28887SOL    HW188595   8.388   9.369   4.375
28887SOL    HW288596   8.425   9.283   4.508
28888SOL     OW88597   8.921   9.859   4.638
28888SOL    HW188598   8.841   9.800   4.649
28888SOL    HW288599   8.954   9.889   4.728
28889SOL     OW88600   7.975   9.591   4.040
28889SOL    HW188601   8.012   9.538   3.964
28889SOL    HW288602   7.995   9.688   4.025
28890SOL     OW88603   8.391   9.377   5.131
28890SOL    HW188604   8.399   9.364   5.032
28890SOL    HW288605   8.474   9.421   5.165
28891SOL     OW88606   8.728   9.667   5.022
28891SOL    HW188607   8.781   9.744   5.058
28891SOL    HW288608   8.639   9.700   4.991
28892SOL     OW88609   8.026   9.680   4.567
28892SOL    HW188610   7.998   9.689   4.471
28892SOL    HW288611   8.085   9.757   4.592
28893SOL     OW88612   8.480   9.442   5.502
28893SOL    HW188613   8.548   9.515   5.490
28893SOL    HW288614   8.517   9.356   5.467
28894SOL     OW88615   7.974   9.341   5.494
28894SOL    HW188616   7.927   9.289   5.423
28894SOL    HW288617   7.919   9.420   5.519
28895SOL     OW88618   8.624   9.861   4.009
28895SOL    HW188619   8.639   9.772   4.051
28895SOL    HW288620   8.592   9.926   4.079
28896SOL     OW88621   7.726   9.520   4.978
28896SOL    HW188622   7.713   9.555   5.071
28896SOL    HW288623   7.704   9.423   4.975
28897SOL     OW88624   8.155   9.897   4.690
28897SOL    HW188625   8.248   9.873   4.661
28897SOL    HW288626   8.142   9.996   4.681
28898SOL     OW88627   7.776   9.385   4.392
28898SOL    HW188628   7.740   9.475   4.417
28898SOL    HW288629   7.787   9.329   4.475
28899SOL     OW88630   9.042   9.537   4.122
28899SOL    HW188631   9.097   9.463   4.083
28899SOL    HW288632   9.100   9.591   4.184
28900SOL     OW88633   8.915   9.547   3.870
28900SOL    HW188634   8.841   9.482   3.880
28900SOL    HW288635   8.960   9.560   3.959
28901SOL     OW88636   7.840   0.043   4.626
28901SOL    HW188637   7.924   0.095   4.641
28901SOL    HW288638   7.846   9.956   4.674
28902SOL     OW88639   7.850   9.793   4.744
28902SOL    HW188640   7.764   9.742   4.742
28902SOL    HW288641   7.916   9.748   4.684
28903SOL     OW88642   8.639   9.660   5.450
28903SOL    HW188643   8.602   9.704   5.533
28903SOL    HW288644   8.719   9.710   5.419
28904SOL     OW88645   8.624   9.497   5.216
28904SOL    HW188646   8.620   9.555   5.297
28904SOL    HW288647   8.667   9.548   5.141
28905SOL     OW88648   7.419   9.873   4.819
28905SOL    HW188649   7.446   9.803   4.753
28905SOL    HW288650   7.474   9.864   4.902
28906SOL     OW88651   7.716   9.836   5.593
28906SOL    HW188652   7.795   9.864   5.539
28906SOL    HW288653   7.727   9.868   5.687
28907SOL     OW88654   8.068   9.846   4.009
28907SOL    HW188655   8.156   9.802   3.996
28907SOL    HW288656   8.069   9.896   4.096
28908SOL     OW88657   9.023   9.920   4.889
28908SOL    HW188658   8.977   9.880   4.969
28908SOL    HW288659   9.098   9.860   4.861
28909SOL     OW88660   8.166   9.735   4.925
28909SOL    HW188661   8.108   9.654   4.927
28909SOL    HW288662   8.146   9.789   4.842
28910SOL     OW88663   9.294   9.450   4.694
28910SOL    HW188664   9.334   9.359   4.682
28910SOL    HW288665   9.202   9.451   4.656
28911SOL     OW88666   7.682   9.628   4.470
28911SOL    HW188667   7.595   9.658   4.431
28911SOL    HW288668   7.678   9.634   4.570
28912SOL     OW88669   8.476   9.539   4.657
28912SOL    HW188670   8.472   9.484   4.574
28912SOL    HW288671   8.464   9.481   4.737
28913SOL     OW88672   9.238   9.665   5.149
28913SOL    HW188673   9.260   9.756   5.115
28913SOL    HW288674   9.228   9.602   5.072
28914SOL     OW88675   8.169   9.499   5.247
28914SOL    HW188676   8.251   9.464   5.201
28914SOL    HW288677   8.193   9.527   5.340
28915SOL     OW88678   7.562   9.697   3.575
28915SOL    HW188679   7.470   9.736   3.578
28915SOL    HW288680   7.629   9.769   3.592
28916SOL     OW88681   7.446   9.423   3.955
28916SOL    HW188682   7.387   9.459   3.884
28916SOL    HW288683   7.540   9.416   3.921
28917SOL     OW88684   8.205   9.827   5.403
28917SOL    HW188685   8.237   9.898   5.465
28917SOL    HW288686   8.226   9.737   5.441
28918SOL     OW88687   8.648   9.638   4.169
28918SOL    HW188688   8.695   9.550   4.162
28918SOL    HW288689   8.686   9.690   4.246
28919SOL     OW88690   9.181   9.714   5.415
28919SOL    HW188691   9.199   9.705   5.317
28919SOL    HW288692   9.115   9.645   5.444
28920SOL     OW88693   8.576   0.180   3.743
28920SOL    HW188694   8.585   0.246   3.668
28920SOL    HW288695   8.610   0.220   3.828
28921SOL     OW88696   9.231   9.468   4.966
28921SOL    HW188697   9.224   9.369   4.978
28921SOL    HW288698   9.251   9.488   4.870
28922SOL     OW88699   7.907   9.698   4.321
28922SOL    HW188700   7.902   9.671   4.225
28922SOL    HW288701   7.820   9.679   4.366
28923SOL     OW88702   7.844   9.848   5.013
28923SOL    HW188703   7.900   9.790   5.073
28923SOL    HW288704   7.865   9.825   4.918
28924SOL     OW88705   8.860   9.535   4.821
28924SOL    HW188706   8.870   9.436   4.836
28924SOL    HW288707   8.818   9.576   4.901
28925SOL     OW88708   8.438   9.336   4.853
28925SOL    HW188709   8.369   9.275   4.813
28925SOL    HW288710   8.527   9.290   4.853
28926SOL     OW88711   8.739   9.331   3.899
28926SOL    HW188712   8.762   9.289   3.811
28926SOL    HW288713   8.651   9.297   3.931
28927SOL     OW88714   8.762   9.772   4.377
28927SOL    HW188715   8.780   9.870   4.384
28927SOL    HW288716   8.737   9.736   4.468
28928SOL     OW88717   9.036   9.473   4.616
28928SOL    HW188718   8.978   9.509   4.689
28928SOL    HW288719   9.037   9.537   4.539
28929SOL     OW88720   7.682   9.575   6.572
28929SOL    HW188721   7.728   9.541   6.653
28929SOL    HW288722   7.590   9.535   6.566
28930SOL     OW88723   7.464   9.689   6.214
28930SOL    HW188724   7.385   9.698   6.274
28930SOL    HW288725   7.443   9.626   6.139
28931SOL     OW88726   9.131   9.980   5.825
28931SOL    HW188727   9.093   9.947   5.739
28931SOL    HW288728   9.215   0.031   5.807
28932SOL     OW88729   7.885   9.648   7.156
28932SOL    HW188730   7.971   9.608   7.126
28932SOL    HW288731   7.808   9.598   7.116
28933SOL     OW88732   9.043   9.725   6.273
28933SOL    HW188733   9.029   9.770   6.185
28933SOL    HW288734   8.992   9.773   6.344
28934SOL     OW88735   9.171   9.401   6.988
28934SOL    HW188736   9.200   9.441   6.901
28934SOL    HW288737   9.187   9.466   7.062
28935SOL     OW88738   7.491   9.965   6.148
28935SOL    HW188739   7.495   9.866   6.162
28935SOL    HW288740   7.580   0.005   6.171
28936SOL     OW88741   8.279   9.360   6.089
28936SOL    HW188742   8.315   9.453   6.080
28936SOL    HW288743   8.179   9.363   6.089
28937SOL     OW88744   7.815   9.543   7.402
28937SOL    HW188745   7.861   9.589   7.326
28937SOL    HW288746   7.723   9.579   7.412
28938SOL     OW88747   8.681   9.644   6.452
28938SOL    HW188748   8.592   9.607   6.477
28938SOL    HW288749   8.752   9.605   6.511
28939SOL     OW88750   8.912   9.778   7.263
28939SOL    HW188751   8.966   9.856   7.296
28939SOL    HW288752   8.956   9.693   7.291
28940SOL     OW88753   8.487   9.702   6.737
28940SOL    HW188754   8.396   9.736   6.763
28940SOL    HW288755   8.477   9.632   6.666
28941SOL     OW88756   8.506   0.025   5.844
28941SOL    HW188757   8.487   0.060   5.935
28941SOL    HW288758   8.443   0.066   5.778
28942SOL     OW88759   8.382   9.661   5.803
28942SOL    HW188760   8.443   9.715   5.745
28942SOL    HW288761   8.367   9.571   5.761
28943SOL     OW88762   8.010   9.382   6.547
28943SOL    HW188763   8.019   9.413   6.642
28943SOL    HW288764   8.029   9.458   6.485
28944SOL     OW88765   9.039   0.035   6.298
28944SOL    HW188766   8.981   9.979   6.357
28944SOL    HW288767   9.044   0.128   6.335
28945SOL     OW88768   7.657   9.529   7.066
28945SOL    HW188769   7.584   9.597   7.063
28945SOL    HW288770   7.623   9.445   7.109
28946SOL     OW88771   8.879   9.376   6.078
28946SOL    HW188772   8.865   9.374   5.979
28946SOL    HW288773   8.971   9.410   6.099
28947SOL     OW88774   9.050   9.566   7.366
28947SOL    HW188775   9.018   9.597   7.456
28947SOL    HW288776   9.049   9.466   7.363
28948SOL     OW88777   8.128   9.427   5.705
28948SOL    HW188778   8.183   9.352   5.743
28948SOL    HW288779   8.069   9.391   5.633
28949SOL     OW88780   8.184   9.538   7.291
28949SOL    HW188781   8.282   9.556   7.305
28949SOL    HW288782   8.143   9.509   7.378
28950SOL     OW88783   8.827   9.871   7.016
28950SOL    HW188784   8.863   9.822   7.096
28950SOL    HW288785   8.886   9.949   6.996
28951SOL     OW88786   8.258   9.706   6.507
28951SOL    HW188787   8.243   9.728   6.410
28951SOL    HW288788   8.319   9.627   6.515
28952SOL     OW88789   8.008   9.375   6.064
28952SOL    HW188790   7.929   9.365   6.124
28952SOL    HW288791   8.003   9.462   6.015
28953SOL     OW88792   7.757   9.305   5.720
28953SOL    HW188793   7.803   9.390   5.693
28953SOL    HW288794   7.819   9.251   5.777
28954SOL     OW88795   8.390   9.607   6.075
28954SOL    HW188796   8.397   9.630   5.978
28954SOL    HW288797   8.478   9.623   6.120
28955SOL     OW88798   8.591   9.975   7.113
28955SOL    HW188799   8.549   0.040   7.049
28955SOL    HW288800   8.676   9.941   7.073
28956SOL     OW88801   8.547   9.824   5.657
28956SOL    HW188802   8.552   9.887   5.579
28956SOL    HW288803   8.547   9.876   5.742
28957SOL     OW88804   7.567   9.968   7.026
28957SOL    HW188805   7.618   9.926   7.101
28957SOL    HW288806   7.577   0.067   7.031
28958SOL     OW88807   8.025   9.476   6.799
28958SOL    HW188808   8.071   9.460   6.887
28958SOL    HW288809   7.926   9.478   6.813
28959SOL     OW88810   8.249   9.766   6.246
28959SOL    HW188811   8.230   9.850   6.195
28959SOL    HW288812   8.296   9.700   6.187
28960SOL     OW88813   8.449   9.342   6.306
28960SOL    HW188814   8.392   9.350   6.224
28960SOL    HW288815   8.419   9.264   6.361
28961SOL     OW88816   8.898   9.856   6.459
28961SOL    HW188817   8.811   9.810   6.471
28961SOL    HW288818   8.950   9.852   6.544
28962SOL     OW88819   8.017   9.595   5.902
28962SOL    HW188820   8.050   9.538   5.827
28962SOL    HW288821   8.064   9.684   5.900
28963SOL     OW88822   8.403   9.360   6.952
28963SOL    HW188823   8.426   9.341   6.857
28963SOL    HW288824   8.472   9.420   6.992
28964SOL     OW88825   8.733   9.666   6.851
28964SOL    HW188826   8.769   9.743   6.903
28964SOL    HW288827   8.643   9.689   6.814
28965SOL     OW88828   9.006   9.899   6.053
28965SOL    HW188829   9.009   9.967   6.127
28965SOL    HW288830   9.063   9.930   5.977
28966SOL     OW88831   8.448   9.566   7.352
28966SOL    HW188832   8.512   9.634   7.318
28966SOL    HW288833   8.485   9.474   7.340
28967SOL     OW88834   7.942   9.304   7.373
28967SOL    HW188835   7.885   9.237   7.325
28967SOL    HW288836   7.893   9.390   7.381
28968SOL     OW88837   7.755   9.469   6.819
28968SOL    HW188838   7.718   9.500   6.906
28968SOL    HW288839   7.732   9.373   6.806
28969SOL     OW88840   7.783   9.340   6.217
28969SOL    HW188841   7.750   9.432   6.236
28969SOL    HW288842   7.789   9.288   6.302
28970SOL     OW88843   8.905   9.607   5.716
28970SOL    HW188844   8.873   9.520   5.752
28970SOL    HW288845   8.883   9.680   5.781
28971SOL     OW88846   7.831   0.071   6.491
28971SOL    HW188847   7.875   0.161   6.489
28971SOL    HW288848   7.854   0.024   6.575
28972SOL     OW88849   7.674   9.841   6.614
28972SOL    HW188850   7.674   9.742   6.597
28972SOL    HW288851   7.682   9.890   6.527
28973SOL     OW88852   8.634   9.728   7.235
28973SOL    HW188853   8.599   9.815   7.201
28973SOL    HW288854   8.731   9.738   7.258
28974SOL     OW88855   8.611   9.517   7.052
28974SOL    HW188856   8.610   9.588   7.122
28974SOL    HW288857   8.665   9.548   6.974
28975SOL     OW88858   7.463   9.911   6.780
28975SOL    HW188859   7.536   9.881   6.718
28975SOL    HW288860   7.502   9.939   6.867
28976SOL     OW88861   7.714   9.852   7.232
28976SOL    HW188862   7.781   9.785   7.200
28976SOL    HW288863   7.758   9.918   7.293
28977SOL     OW88864   8.168   9.826   5.880
28977SOL    HW188865   8.250   9.775   5.854
28977SOL    HW288866   8.189   9.882   5.960
28978SOL     OW88867   9.065   9.843   6.672
28978SOL    HW188868   9.067   9.808   6.765
28978SOL    HW288869   9.158   9.863   6.641
28979SOL     OW88870   9.165   9.425   6.118
28979SOL    HW188871   9.188   9.406   6.023
28979SOL    HW288872   9.155   9.338   6.168
28980SOL     OW88873   9.294   9.453   6.519
28980SOL    HW188874   9.322   9.357   6.508
28980SOL    HW288875   9.205   9.466   6.476
28981SOL     OW88876   7.708   9.594   6.289
28981SOL    HW188877   7.621   9.632   6.260
28981SOL    HW288878   7.713   9.591   6.389
28982SOL     OW88879   8.452   9.505   6.529
28982SOL    HW188880   8.452   9.462   6.439
28982SOL    HW288881   8.460   9.435   6.600
28983SOL     OW88882   9.170   9.747   6.922
28983SOL    HW188883   9.235   9.823   6.922
28983SOL    HW288884   9.206   9.673   6.866
28984SOL     OW88885   8.147   9.429   7.046
28984SOL    HW188886   8.236   9.401   7.010
28984SOL    HW288887   8.159   9.469   7.137
28985SOL     OW88888   7.574   9.607   5.622
28985SOL    HW188889   7.546   9.570   5.533
28985SOL    HW288890   7.607   9.701   5.610
28986SOL     OW88891   7.529   9.418   5.814
28986SOL    HW188892   7.522   9.498   5.755
28986SOL    HW288893   7.614   9.369   5.796
28987SOL     OW88894   9.234   9.608   7.153
28987SOL    HW188895   9.197   9.674   7.087
28987SOL    HW288896   9.181   9.614   7.238
28988SOL     OW88897   8.441   0.242   5.633
28988SOL    HW188898   8.453   0.339   5.612
28988SOL    HW288899   8.510   0.188   5.584
28989SOL     OW88900   9.282   9.545   6.777
28989SOL    HW188901   9.381   9.540   6.794
28989SOL    HW288902   9.263   9.519   6.682
28990SOL     OW88903   7.804   9.721   6.038
28990SOL    HW188904   7.875   9.668   5.993
28990SOL    HW288905   7.781   9.679   6.126
28991SOL     OW88906   8.852   9.541   6.638
28991SOL    HW188907   8.885   9.450   6.662
28991SOL    HW288908   8.819   9.587   6.720
28992SOL     OW88909   8.481   9.287   6.693
28992SOL    HW188910   8.419   9.218   6.657
28992SOL    HW288911   8.575   9.255   6.687
28993SOL     OW88912   8.820   9.365   5.802
28993SOL    HW188913   8.868   9.296   5.747
28993SOL    HW288914   8.726   9.334   5.819
28994SOL     OW88915   9.040   9.496   6.440
28994SOL    HW188916   8.973   9.531   6.505
28994SOL    HW288917   9.043   9.557   6.360
28995SOL     OW88918   7.614   9.673   8.514
28995SOL    HW188919   7.665   9.629   8.588
28995SOL    HW288920   7.540   9.613   8.484
28996SOL     OW88921   7.422   9.678   8.124
28996SOL    HW188922   7.331   9.682   8.163
28996SOL    HW288923   7.417   9.643   8.030
28997SOL     OW88924   9.150   9.931   7.580
28997SOL    HW188925   9.193   0.017   7.610
28997SOL    HW288926   9.121   9.879   7.660
28998SOL     OW88927   9.052   9.722   8.178
28998SOL    HW188928   8.963   9.703   8.136
28998SOL    HW288929   9.053   9.815   8.214
28999SOL     OW88930   9.138   9.421   8.951
28999SOL    HW188931   9.163   9.489   8.883
28999SOL    HW288932   9.102   9.467   9.032
29000SOL     OW88933   7.503   9.918   8.228
29000SOL    HW188934   7.476   9.829   8.192
29000SOL    HW288935   7.591   9.911   8.273
29001SOL     OW88936   8.269   9.303   7.960
29001SOL    HW188937   8.315   9.385   7.926
29001SOL    HW288938   8.171   9.321   7.969
29002SOL     OW88939   7.744   9.564   9.308
29002SOL    HW188940   7.779   9.623   9.235
29002SOL    HW288941   7.649   9.587   9.326
29003SOL     OW88942   8.695   9.707   8.364
29003SOL    HW188943   8.607   9.660   8.352
29003SOL    HW288944   8.750   9.656   8.430
29004SOL     OW88945   8.354   9.905   8.936
29004SOL    HW188946   8.277   9.874   8.991
29004SOL    HW288947   8.333   9.994   8.896
29005SOL     OW88948   8.855   9.670   9.191
29005SOL    HW188949   8.863   9.698   9.287
29005SOL    HW288950   8.924   9.601   9.170
29006SOL     OW88951   8.428   9.795   8.693
29006SOL    HW188952   8.406   9.825   8.787
29006SOL    HW288953   8.344   9.766   8.648
29007SOL     OW88954   8.446   9.640   7.628
29007SOL    HW188955   8.410   9.635   7.535
29007SOL    HW288956   8.517   9.571   7.640
29008SOL     OW88957   9.081   9.961   9.384
29008SOL    HW188958   9.115   0.055   9.374
29008SOL    HW288959   9.118   9.905   9.310
29009SOL     OW88960   8.008   9.393   8.364
29009SOL    HW188961   7.994   9.419   8.460
29009SOL    HW288962   8.018   9.475   8.308
29010SOL     OW88963   9.000   9.981   8.255
29010SOL    HW188964   8.925   9.965   8.319
29010SOL    HW288965   9.041   0.070   8.273
29011SOL     OW88966   7.614   9.539   8.979
29011SOL    HW188967   7.534   9.593   8.953
29011SOL    HW288968   7.585   9.454   9.022
29012SOL     OW88969   8.875   9.372   7.910
29012SOL    HW188970   8.885   9.301   7.840
29012SOL    HW288971   8.955   9.432   7.908
29013SOL     OW88972   9.079   9.492   9.227
29013SOL    HW188973   9.034   9.513   9.314
29013SOL    HW288974   9.121   9.402   9.232
29014SOL     OW88975   8.120   9.421   7.541
29014SOL    HW188976   8.198   9.364   7.569
29014SOL    HW288977   8.055   9.365   7.489
29015SOL     OW88978   8.201   9.594   9.182
29015SOL    HW188979   8.285   9.539   9.180
29015SOL    HW288980   8.140   9.559   9.253
29016SOL     OW88981   8.811   9.813   8.958
29016SOL    HW188982   8.821   9.762   9.044
29016SOL    HW288983   8.743   9.885   8.970
29017SOL     OW88984   8.372   9.772   8.217
29017SOL    HW188985   8.309   9.745   8.144
29017SOL    HW288986   8.402   9.691   8.268
29018SOL     OW88987   8.005   9.366   7.959
29018SOL    HW188988   7.924   9.373   8.016
29018SOL    HW288989   8.008   9.445   7.896
29019SOL     OW88990   7.739   9.388   7.619
29019SOL    HW188991   7.789   9.451   7.560
29019SOL    HW288992   7.804   9.328   7.666
29020SOL     OW88993   8.395   9.532   7.883
29020SOL    HW188994   8.396   9.569   7.790
29020SOL    HW288995   8.488   9.529   7.919
29021SOL     OW88996   8.608   9.991   8.989
29021SOL    HW188997   8.521   9.943   8.977
29021SOL    HW288998   8.601   0.083   8.951
29022SOL     OW88999   7.713   9.967   8.840
29022SOL    HW189000   7.792   9.908   8.855
29022SOL    HW289001   7.705   0.032   8.915
29023SOL     OW89002   7.949   9.435   8.622
29023SOL    HW189003   7.977   9.371   8.694
29023SOL    HW289004   7.867   9.485   8.652
29024SOL     OW89005   8.204   9.686   8.009
29024SOL    HW189006   8.162   9.740   7.936
29024SOL    HW289007   8.272   9.623   7.969
29025SOL     OW89008   8.457   9.328   8.167
29025SOL    HW189009   8.390   9.322   8.092
29025SOL    HW289010   8.437   9.257   8.234
29026SOL     OW89011   8.804   9.949   8.453
29026SOL    HW189012   8.746   9.880   8.410
29026SOL    HW289013   8.829   9.919   8.545
29027SOL     OW89014   8.028   9.555   7.769
29027SOL    HW189015   8.059   9.517   7.681
29027SOL    HW289016   8.041   9.654   7.769
29028SOL     OW89017   8.385   9.335   8.831
29028SOL    HW189018   8.398   9.320   8.733
29028SOL    HW289019   8.462   9.387   8.868
29029SOL     OW89020   8.679   9.680   8.747
29029SOL    HW189021   8.722   9.734   8.819
29029SOL    HW289022   8.592   9.721   8.721
29030SOL     OW89023   8.009   9.814   8.390
29030SOL    HW189024   8.016   9.743   8.319
29030SOL    HW289025   8.063   9.893   8.363
29031SOL     OW89026   9.018   9.990   7.976
29031SOL    HW189027   9.013   9.982   8.075
29031SOL    HW289028   9.087   0.058   7.951
29032SOL     OW89029   8.418   9.434   9.197
29032SOL    HW189030   8.486   9.506   9.189
29032SOL    HW289031   8.459   9.346   9.173
29033SOL     OW89032   7.907   9.355   9.225
29033SOL    HW189033   7.864   9.298   9.155
29033SOL    HW289034   7.846   9.431   9.248
29034SOL     OW89035   7.709   9.520   8.721
29034SOL    HW189036   7.692   9.541   8.817
29034SOL    HW289037   7.683   9.425   8.703
29035SOL     OW89038   8.156   0.039   8.354
29035SOL    HW189039   8.230   0.046   8.287
29035SOL    HW289040   8.095   0.117   8.344
29036SOL     OW89041   7.769   9.365   8.105
29036SOL    HW189042   7.729   9.451   8.138
29036SOL    HW289043   7.780   9.302   8.183
29037SOL     OW89044   9.047   9.782   7.791
29037SOL    HW189045   9.077   9.697   7.834
29037SOL    HW289046   9.035   9.853   7.860
29038SOL     OW89047   7.752   0.140   8.267
29038SOL    HW189048   7.835   0.186   8.300
29038SOL    HW289049   7.738   0.055   8.318
29039SOL     OW89050   7.736   9.884   8.383
29039SOL    HW189051   7.689   9.815   8.438
29039SOL    HW289052   7.834   9.865   8.383
29040SOL     OW89053   8.588   9.640   9.153
29040SOL    HW189054   8.546   9.714   9.205
29040SOL    HW289055   8.687   9.641   9.167
29041SOL     OW89056   8.597   9.480   8.926
29041SOL    HW189057   8.587   9.537   9.007
29041SOL    HW289058   8.632   9.535   8.850
29042SOL     OW89059   7.495   9.849   8.705
29042SOL    HW189060   7.534   9.801   8.626
29042SOL    HW289061   7.567   9.899   8.753
29043SOL     OW89062   7.805   9.697   9.084
29043SOL    HW189063   7.735   9.638   9.043
29043SOL    HW289064   7.854   9.745   9.012
29044SOL     OW89065   8.089   9.826   7.782
29044SOL    HW189066   8.105   9.854   7.687
29044SOL    HW289067   8.064   9.906   7.836
29045SOL     OW89068   9.110   9.531   7.895
29045SOL    HW189069   9.187   9.495   7.843
29045SOL    HW289070   9.142   9.562   7.985
29046SOL     OW89071   9.274   9.476   8.540
29046SOL    HW189072   9.307   9.384   8.517
29046SOL    HW289073   9.198   9.500   8.480
29047SOL     OW89074   7.668   9.590   8.217
29047SOL    HW189075   7.581   9.620   8.179
29047SOL    HW289076   7.676   9.623   8.312
29048SOL     OW89077   8.475   9.540   8.343
29048SOL    HW189078   8.475   9.474   8.268
29048SOL    HW289079   8.459   9.493   8.430
29049SOL     OW89080   8.154   9.443   8.946
29049SOL    HW189081   8.241   9.414   8.905
29049SOL    HW289082   8.172   9.505   9.022
29050SOL     OW89083   7.574   9.669   7.395
29050SOL    HW189084   7.481   9.655   7.363
29050SOL    HW289085   7.616   9.745   7.346
29051SOL     OW89086   7.492   9.480   7.674
29051SOL    HW189087   7.467   9.536   7.595
29051SOL    HW289088   7.588   9.452   7.667
29052SOL     OW89089   8.120   9.839   9.074
29052SOL    HW189090   8.083   9.905   9.139
29052SOL    HW289091   8.146   9.755   9.122
29053SOL     OW89092   8.654   9.534   7.965
29053SOL    HW189093   8.723   9.472   7.929
29053SOL    HW289094   8.699   9.606   8.019
29054SOL     OW89095   9.170   9.761   9.204
29054SOL    HW189096   9.137   9.778   9.110
29054SOL    HW289097   9.151   9.666   9.228
29055SOL     OW89098   8.592   0.200   7.576
29055SOL    HW189099   8.622   0.244   7.492
29055SOL    HW289100   8.649   0.120   7.594
29056SOL     OW89101   8.010   9.621   8.197
29056SOL    HW189102   8.082   9.637   8.129
29056SOL    HW289103   7.921   9.617   8.152
29057SOL     OW89104   8.839   9.573   8.554
29057SOL    HW189105   8.858   9.475   8.567
29057SOL    HW289106   8.781   9.605   8.629
29058SOL     OW89107   8.467   9.301   8.556
29058SOL    HW189108   8.421   9.240   8.491
29058SOL    HW289109   8.562   9.273   8.567
29059SOL     OW89110   8.783   9.733   8.108
29059SOL    HW189111   8.751   9.819   8.069
29059SOL    HW289112   8.746   9.723   8.201
29060SOL     OW89113   9.061   9.550   8.393
29060SOL    HW189114   8.980   9.574   8.447
29060SOL    HW289115   9.063   9.605   8.310
29061SOL     OW89116   9.171   9.863   9.617
29061SOL    HW189117   9.136   9.898   9.530
29061SOL    HW289118   9.115   9.785   9.646
29062SOL     OW89119   7.427   9.845   9.927
29062SOL    HW189120   7.370   9.903   9.869
29062SOL    HW289121   7.511   9.894   9.950
29063SOL     OW89122   8.266   9.388   9.815
29063SOL    HW189123   8.321   9.462   9.778
29063SOL    HW289124   8.170   9.414   9.814
29064SOL     OW89125   8.589   9.967   9.739
29064SOL    HW189126   8.607   9.945   9.835
29064SOL    HW289127   8.534   0.051   9.734
29065SOL     OW89128   8.337   9.678   9.468
29065SOL    HW189129   8.400   9.733   9.413
29065SOL    HW289130   8.300   9.604   9.412
29066SOL     OW89131   8.868   9.385   9.747
29066SOL    HW189132   8.861   9.347   9.655
29066SOL    HW289133   8.964   9.397   9.771
29067SOL     OW89134   8.095   9.454   9.399
29067SOL    HW189135   8.160   9.381   9.420
29067SOL    HW289136   8.021   9.418   9.343
29068SOL     OW89137   7.991   9.460   9.826
29068SOL    HW189138   7.894   9.462   9.853
29068SOL    HW289139   8.006   9.528   9.754
29069SOL     OW89140   7.721   9.376   9.500
29069SOL    HW189141   7.750   9.451   9.441
29069SOL    HW289142   7.802   9.337   9.546
29070SOL     OW89143   8.411   9.603   9.723
29070SOL    HW189144   8.380   9.630   9.631
29070SOL    HW289145   8.511   9.593   9.723
29071SOL     OW89146   8.509   9.836   9.329
29071SOL    HW189147   8.496   9.930   9.298
29071SOL    HW289148   8.575   9.834   9.403
29072SOL     OW89149   8.356   9.782   9.928
29072SOL    HW189150   8.314   9.864   9.890
29072SOL    HW289151   8.374   9.716   9.856
29073SOL     OW89152   8.039   9.624   9.617
29073SOL    HW189153   8.054   9.569   9.535
29073SOL    HW289154   8.067   9.719   9.599
29074SOL     OW89155   9.075   0.000   9.846
29074SOL    HW189156   8.996   0.058   9.825
29074SOL    HW289157   9.100   9.946   9.766
29075SOL     OW89158   8.676   9.812   9.543
29075SOL    HW189159   8.686   9.720   9.581
29075SOL    HW289160   8.639   9.873   9.613
29076SOL     OW89161   7.729   9.450   9.923
29076SOL    HW189162   7.645   9.505   9.924
29076SOL    HW289163   7.747   9.415   0.015
29077SOL     OW89164   9.013   9.668   9.711
29077SOL    HW189165   9.062   9.590   9.750
29077SOL    HW289166   8.943   9.699   9.775
29078SOL     OW89167   8.958   9.561   9.458
29078SOL    HW189168   8.896   9.484   9.468
29078SOL    HW289169   8.970   9.607   9.546
29079SOL     OW89170   7.859   9.748   0.380
29079SOL    HW189171   7.773   9.710   0.346
29079SOL    HW289172   7.935   9.693   0.348
29080SOL     OW89173   8.178   9.877   9.564
29080SOL    HW189174   8.242   9.807   9.532
29080SOL    HW289175   8.209   9.914   9.652
29081SOL     OW89176   9.158   9.451   9.794
29081SOL    HW189177   9.214   9.453   9.712
29081SOL    HW289178   9.175   9.367   9.844
29082SOL     OW89179   7.479   9.639   9.351
29082SOL    HW189180   7.422   9.633   9.269
29082SOL    HW289181   7.476   9.732   9.387
29083SOL     OW89182   7.465   9.444   9.550
29083SOL    HW189183   7.447   9.511   9.477
29083SOL    HW289184   7.560   9.414   9.545
29084SOL     OW89185   8.685   9.592   9.716
29084SOL    HW189186   8.734   9.505   9.712
29084SOL    HW289187   8.727   9.650   9.785
29085SOL     OW89188   8.678   0.208   9.408
29085SOL    HW189189   8.668   0.288   9.467
29085SOL    HW289190   8.744   0.145   9.448
29086SOL     OW89191   7.819   9.930   9.796
29086SOL    HW189192   7.830   9.831   9.788
29086SOL    HW289193   7.751   9.950   9.868
29087SOL     OW89194   8.812   9.334   9.483
29087SOL    HW189195   8.854   9.260   9.432
29087SOL    HW289196   8.718   9.309   9.507
29088SOL     OW89197   8.828   9.729   9.902
29088SOL    HW189198   8.754   9.789   9.934
29088SOL    HW289199   8.864   9.677   9.980
29089SOL     OW89200   9.415   0.601   0.089
29089SOL    HW189201   9.328   0.567   0.122
29089SOL    HW289202   9.419   0.592   9.989
29090SOL     OW89203   9.449   0.344   1.102
29090SOL    HW189204   9.506   0.285   1.157
29090SOL    HW289205   9.375   0.290   1.060
29091SOL     OW89206   9.294   0.460   0.572
29091SOL    HW189207   9.207   0.509   0.563
29091SOL    HW289208   9.285   0.368   0.535
29092SOL     OW89209   9.918   1.203   1.120
29092SOL    HW189210   9.842   1.263   1.094
29092SOL    HW289211   9.945   1.223   1.215
29093SOL     OW89212   0.036   0.870   1.898
29093SOL    HW189213   0.093   0.793   1.927
29093SOL    HW289214   0.082   0.919   1.823
29094SOL     OW89215   9.697   1.370   1.069
29094SOL    HW189216   9.615   1.314   1.075
29094SOL    HW289217   9.703   1.412   0.978
29095SOL     OW89218   9.806   0.381   1.452
29095SOL    HW189219   9.881   0.316   1.459
29095SOL    HW289220   9.720   0.335   1.475
29096SOL     OW89221   9.579   1.688   0.461
29096SOL    HW189222   9.579   1.763   0.526
29096SOL    HW289223   9.669   1.680   0.419
29097SOL     OW89224   9.508   1.425   0.481
29097SOL    HW189225   9.534   1.522   0.479
29097SOL    HW289226   9.455   1.406   0.563
29098SOL     OW89227   9.607   1.085   0.893
29098SOL    HW189228   9.618   0.987   0.906
29098SOL    HW289229   9.568   1.126   0.976
29099SOL     OW89230   9.444   0.694   0.587
29099SOL    HW189231   9.396   0.606   0.594
29099SOL    HW289232   9.426   0.748   0.670
29100SOL     OW89233   9.470   1.630   0.119
29100SOL    HW189234   9.499   1.535   0.135
29100SOL    HW289235   9.403   1.656   0.189
29101SOL     OW89236   9.885   1.420   0.733
29101SOL    HW189237   9.846   1.328   0.737
29101SOL    HW289238   9.904   1.444   0.638
29102SOL     OW89239   9.673   0.197   1.748
29102SOL    HW189240   9.716   0.256   1.816
29102SOL    HW289241   9.603   0.140   1.792
29103SOL     OW89242   9.814   0.662   0.261
29103SOL    HW189243   9.841   0.738   0.202
29103SOL    HW289244   9.784   0.699   0.349
29104SOL     OW89245   9.402   0.851   0.814
29104SOL    HW189246   9.493   0.827   0.850
29104SOL    HW289247   9.358   0.916   0.876
29105SOL     OW89248   9.424   1.868   1.609
29105SOL    HW189249   9.423   1.840   1.705
29105SOL    HW289250   9.355   1.816   1.558
29106SOL     OW89251   0.271   0.264   0.246
29106SOL    HW189252   0.322   0.345   0.220
29106SOL    HW289253   0.309   0.184   0.199
29107SOL     OW89254   9.908   0.218   0.958
29107SOL    HW189255   9.892   0.202   1.056
29107SOL    HW289256   9.889   0.313   0.936
29108SOL     OW89257   9.653   1.849   0.890
29108SOL    HW189258   9.727   1.783   0.888
29108SOL    HW289259   9.690   1.941   0.904
29109SOL     OW89260   9.597   1.033   0.257
29109SOL    HW189261   9.646   1.103   0.204
29109SOL    HW289262   9.635   0.943   0.235
29110SOL     OW89263   9.726   1.198   1.769
29110SOL    HW189264   9.709   1.206   1.671
29110SOL    HW289265   9.652   1.241   1.819
29111SOL     OW89266   9.562   0.268   1.511
29111SOL    HW189267   9.520   0.359   1.513
29111SOL    HW289268   9.594   0.244   1.603
29112SOL     OW89269   9.845   1.701   0.388
29112SOL    HW189270   9.861   1.792   0.425
29112SOL    HW289271   9.898   1.691   0.303
29113SOL     OW89272   9.558   1.812   1.240
29113SOL    HW189273   9.606   1.725   1.251
29113SOL    HW289274   9.503   1.810   1.157
29114SOL     OW89275   9.718   0.679   0.523
29114SOL    HW189276   9.725   0.580   0.512
29114SOL    HW289277   9.624   0.704   0.546
29115SOL     OW89278   0.145   1.422   0.821
29115SOL    HW189279   0.195   1.358   0.763
29115SOL    HW289280   0.047   1.418   0.799
29116SOL     OW89281   9.739   0.047   0.442
29116SOL    HW189282   9.671   0.043   0.516
29116SOL    HW289283   9.722   0.129   0.387
29117SOL     OW89284   9.522   0.080   0.198
29117SOL    HW189285   9.594   0.142   0.230
29117SOL    HW289286   9.552   9.985   0.207
29118SOL     OW89287   0.308   0.140   0.490
29118SOL    HW189288   0.293   0.204   0.566
29118SOL    HW289289   0.295   0.187   0.403
29119SOL     OW89290   9.786   1.167   0.705
29119SOL    HW189291   9.731   1.134   0.782
29119SOL    HW289292   9.731   1.166   0.621
29120SOL     OW89293   9.484   0.526   1.462
29120SOL    HW189294   9.568   0.559   1.421
29120SOL    HW289295   9.408   0.538   1.398
29121SOL     OW89296   9.860   0.180   1.216
29121SOL    HW189297   9.909   0.166   1.302
29121SOL    HW289298   9.762   0.183   1.234
29122SOL     OW89299   9.735   0.264   0.268
29122SOL    HW189300   9.835   0.260   0.266
29122SOL    HW289301   9.703   0.335   0.206
29123SOL     OW89302   9.737   0.847   1.253
29123SOL    HW189303   9.787   0.903   1.319
29123SOL    HW289304   9.740   0.751   1.282
29124SOL     OW89305   9.408   1.535   1.363
29124SOL    HW189306   9.345   1.592   1.311
29124SOL    HW289307   9.502   1.552   1.333
29125SOL     OW89308   9.616   1.173   0.493
29125SOL    HW189309   9.591   1.268   0.471
29125SOL    HW289310   9.609   1.117   0.411
29126SOL     OW89311   9.868   0.490   0.927
29126SOL    HW189312   9.893   0.540   0.845
29126SOL    HW289313   9.929   0.517   1.002
29127SOL     OW89314   9.661   1.559   1.270
29127SOL    HW189315   9.683   1.494   1.196
29127SOL    HW289316   9.725   1.545   1.346
29128SOL     OW89317   9.731   0.866   1.618
29128SOL    HW189318   9.789   0.924   1.562
29128SOL    HW289319   9.766   0.772   1.616
29129SOL     OW89320   9.876   0.021   1.703
29129SOL    HW189321   9.843   9.940   1.654
29129SOL    HW289322   9.804   0.089   1.709
29130SOL     OW89323   9.876   0.939   1.032
29130SOL    HW189324   9.895   1.036   1.049
29130SOL    HW289325   9.833   0.899   1.114
29131SOL     OW89326   9.586   0.171   1.264
29131SOL    HW189327   9.572   0.207   1.356
29131SOL    HW289328   9.592   0.071   1.269
29132SOL     OW89329   9.443   1.264   1.366
29132SOL    HW189330   9.382   1.227   1.436
29132SOL    HW289331   9.430   1.363   1.360
29133SOL     OW89332   9.552   0.073   0.649
29133SOL    HW189333   9.534   0.171   0.643
29133SOL    HW289334   9.598   0.053   0.736
29134SOL     OW89335   9.711   0.955   1.902
29134SOL    HW189336   9.727   1.049   1.871
29134SOL    HW289337   9.713   0.893   1.824
29135SOL     OW89338   9.645   0.809   0.936
29135SOL    HW189339   9.736   0.845   0.957
29135SOL    HW289340   9.634   0.720   0.980
29136SOL     OW89341   9.633   0.547   1.050
29136SOL    HW189342   9.569   0.471   1.056
29136SOL    HW289343   9.715   0.518   1.000
29137SOL     OW89344   9.307   1.230   0.115
29137SOL    HW189345   9.221   1.277   0.096
29137SOL    HW289346   9.290   1.152   0.175
29138SOL     OW89347   9.409   1.796   1.001
29138SOL    HW189348   9.359   1.722   0.954
29138SOL    HW289349   9.496   1.811   0.955
29139SOL     OW89350   9.856   1.667   0.865
29139SOL    HW189351   9.951   1.692   0.885
29139SOL    HW289352   9.854   1.580   0.816
29140SOL     OW89353   9.324   0.561   1.233
29140SOL    HW189354   9.376   0.500   1.174
29140SOL    HW289355   9.368   0.650   1.236
29141SOL     OW89356   9.445   0.542   1.731
29141SOL    HW189357   9.467   0.543   1.633
29141SOL    HW289358   9.349   0.568   1.743
29142SOL     OW89359   0.039   0.526   0.319
29142SOL    HW189360   0.025   0.428   0.328
29142SOL    HW289361   9.953   0.571   0.296
29143SOL     OW89362   9.540   1.539   1.758
29143SOL    HW189363   9.502   1.614   1.812
29143SOL    HW289364   9.541   1.455   1.813
29144SOL     OW89365   9.662   0.486   0.126
29144SOL    HW189366   9.719   0.550   0.178
29144SOL    HW289367   9.569   0.522   0.119
29145SOL     OW89368   9.474   1.206   1.095
29145SOL    HW189369   9.460   1.218   1.194
29145SOL    HW289370   9.391   1.166   1.055
29146SOL     OW89371   9.820   1.521   1.488
29146SOL    HW189372   9.793   1.596   1.549
29146SOL    HW289373   9.914   1.536   1.456
29147SOL     OW89374   9.432   1.768   1.862
29147SOL    HW189375   9.364   1.710   1.907
29147SOL    HW289376   9.492   1.809   1.930
29148SOL     OW89377   9.523   0.345   0.673
29148SOL    HW189378   9.439   0.387   0.638
29148SOL    HW289379   9.532   0.367   0.770
29149SOL     OW89380   9.694   1.265   1.505
29149SOL    HW189381   9.734   1.355   1.490
29149SOL    HW289382   9.612   1.254   1.448
29150SOL     OW89383   9.940   1.462   0.470
29150SOL    HW189384   9.939   1.405   0.388
29150SOL    HW289385   9.902   1.552   0.449
29151SOL     OW89386   9.517   1.375   0.214
29151SOL    HW189387   9.436   1.327   0.181
29151SOL    HW289388   9.505   1.395   0.312
29152SOL     OW89389   9.356   1.102   1.784
29152SOL    HW189390   9.281   1.057   1.833
29152SOL    HW289391   9.407   1.034   1.732
29153SOL     OW89392   9.983   0.174   1.472
29153SOL    HW189393   0.076   0.211   1.466
29153SOL    HW289394   9.974   0.121   1.557
29154SOL     OW89395   9.893   0.993   1.425
29154SOL    HW189396   9.884   1.093   1.428
29154SOL    HW289397   9.983   0.969   1.389
29155SOL     OW89398   9.680   1.739   1.634
29155SOL    HW189399   9.604   1.793   1.597
29155SOL    HW289400   9.644   1.659   1.681
29156SOL     OW89401   9.935   0.639   0.698
29156SOL    HW189402   9.967   0.722   0.743
29156SOL    HW289403   9.857   0.661   0.638
29157SOL     OW89404   9.515   1.306   1.897
29157SOL    HW189405   9.447   1.238   1.869
29157SOL    HW289406   9.501   1.329   1.993
29158SOL     OW89407   9.443   1.222   0.703
29158SOL    HW189408   9.480   1.180   0.786
29158SOL    HW289409   9.497   1.193   0.624
29159SOL     OW89410   9.952   1.334   1.702
29159SOL    HW189411   9.877   1.284   1.744
29159SOL    HW289412   9.926   1.361   1.609
29160SOL     OW89413   9.727   0.413   0.503
29160SOL    HW189414   9.724   0.357   0.420
29160SOL    HW289415   9.658   0.380   0.567
29161SOL     OW89416   9.708   0.588   1.315
29161SOL    HW189417   9.760   0.515   1.357
29161SOL    HW289418   9.691   0.566   1.219
29162SOL     OW89419   9.322   1.009   0.286
29162SOL    HW189420   9.420   1.025   0.281
29162SOL    HW289421   9.305   0.917   0.322
29163SOL     OW89422   9.518   0.495   1.987
29163SOL    HW189423   9.435   0.526   2.032
29163SOL    HW289424   9.511   0.511   1.889
29164SOL     OW89425   9.301   0.477   2.498
29164SOL    HW189426   9.216   0.491   2.549
29164SOL    HW289427   9.291   0.398   2.437
29165SOL     OW89428   9.880   1.198   2.984
29165SOL    HW189429   9.813   1.263   2.947
29165SOL    HW289430   9.914   1.233   3.072
29166SOL     OW89431   0.133   0.875   3.823
29166SOL    HW189432   0.107   0.817   3.900
29166SOL    HW289433   0.223   0.848   3.790
29167SOL     OW89434   9.697   1.395   2.906
29167SOL    HW189435   9.613   1.345   2.886
29167SOL    HW289436   9.707   1.471   2.842
29168SOL     OW89437   9.769   0.367   3.348
29168SOL    HW189438   9.821   0.282   3.359
29168SOL    HW289439   9.685   0.361   3.401
29169SOL     OW89440   9.500   1.563   2.382
29169SOL    HW189441   9.510   1.653   2.424
29169SOL    HW289442   9.498   1.493   2.453
29170SOL     OW89443   9.624   1.116   2.683
29170SOL    HW189444   9.627   1.016   2.696
29170SOL    HW289445   9.578   1.158   2.761
29171SOL     OW89446   9.404   0.724   2.426
29171SOL    HW189447   9.370   0.634   2.453
29171SOL    HW289448   9.394   0.788   2.503
29172SOL     OW89449   9.289   1.593   2.003
29172SOL    HW189450   9.241   1.506   2.012
29172SOL    HW289451   9.277   1.646   2.087
29173SOL     OW89452   9.399   0.788   3.354
29173SOL    HW189453   9.466   0.842   3.303
29173SOL    HW289454   9.315   0.841   3.364
29174SOL     OW89455   9.827   1.469   2.594
29174SOL    HW189456   9.814   1.370   2.594
29174SOL    HW289457   9.844   1.501   2.501
29175SOL     OW89458   9.560   0.939   3.197
29175SOL    HW189459   9.644   0.888   3.178
29175SOL    HW289460   9.531   0.987   3.114
29176SOL     OW89461   9.610   0.140   3.818
29176SOL    HW189462   9.656   0.185   3.894
29176SOL    HW289463   9.541   0.201   3.780
29177SOL     OW89464   9.861   0.738   2.091
29177SOL    HW189465   9.867   0.808   2.020
29177SOL    HW289466   9.785   0.758   2.151
29178SOL     OW89467   9.379   0.896   2.641
29178SOL    HW189468   9.467   0.874   2.684
29178SOL    HW289469   9.339   0.976   2.687
29179SOL     OW89470   9.429   1.861   3.526
29179SOL    HW189471   9.423   1.821   3.618
29179SOL    HW289472   9.363   1.815   3.466
29180SOL     OW89473   0.179   0.254   2.158
29180SOL    HW189474   0.189   0.345   2.119
29180SOL    HW289475   0.225   0.187   2.098
29181SOL     OW89476   9.645   1.891   2.739
29181SOL    HW189477   9.702   1.812   2.763
29181SOL    HW289478   9.688   1.974   2.772
29182SOL     OW89479   9.578   0.967   2.144
29182SOL    HW189480   9.619   0.966   2.053
29182SOL    HW289481   9.596   0.880   2.190
29183SOL     OW89482   9.785   1.235   3.585
29183SOL    HW189483   9.765   1.265   3.491
29183SOL    HW289484   9.711   1.264   3.646
29184SOL     OW89485   9.527   0.368   3.473
29184SOL    HW189486   9.449   0.350   3.412
29184SOL    HW289487   9.505   0.338   3.565
29185SOL     OW89488   9.835   1.719   2.174
29185SOL    HW189489   9.826   1.763   2.264
29185SOL    HW289490   9.850   1.789   2.104
29186SOL     OW89491   9.564   1.785   3.060
29186SOL    HW189492   9.621   1.705   3.079
29186SOL    HW289493   9.507   1.767   2.979
29187SOL     OW89494   9.643   0.734   2.288
29187SOL    HW189495   9.672   0.639   2.292
29187SOL    HW289496   9.555   0.744   2.335
29188SOL     OW89497   9.846   0.045   2.014
29188SOL    HW189498   9.920   0.026   2.078
29188SOL    HW289499   9.878   0.031   1.920
29189SOL     OW89500   0.078   1.469   2.695
29189SOL    HW189501   0.123   1.399   2.639
29189SOL    HW289502   9.982   1.476   2.669
29190SOL     OW89503   9.796   0.154   2.438
29190SOL    HW189504   9.702   0.140   2.469
29190SOL    HW289505   9.794   0.189   2.344
29191SOL     OW89506   9.584   0.030   2.085
29191SOL    HW189507   9.681   0.029   2.062
29191SOL    HW289508   9.566   9.967   2.160
29192SOL     OW89509   0.378   0.177   2.335
29192SOL    HW189510   0.291   0.206   2.297
29192SOL    HW289511   0.448   0.178   2.263
29193SOL     OW89512   9.827   1.198   2.523
29193SOL    HW189513   9.761   1.162   2.588
29193SOL    HW289514   9.787   1.201   2.432
29194SOL     OW89515   9.426   0.569   3.191
29194SOL    HW189516   9.524   0.554   3.178
29194SOL    HW289517   9.412   0.647   3.251
29195SOL     OW89518   9.795   0.266   2.181
29195SOL    HW189519   9.820   0.185   2.127
29195SOL    HW289520   9.805   0.348   2.125
29196SOL     OW89521   9.777   0.785   3.128
29196SOL    HW189522   9.860   0.789   3.183
29196SOL    HW289523   9.743   0.691   3.127
29197SOL     OW89524   9.424   1.543   3.195
29197SOL    HW189525   9.386   1.634   3.211
29197SOL    HW289526   9.523   1.550   3.179
29198SOL     OW89527   9.644   1.195   2.280
29198SOL    HW189528   9.595   1.269   2.234
29198SOL    HW289529   9.621   1.108   2.238
29199SOL     OW89530   9.899   0.600   2.617
29199SOL    HW189531   9.884   0.654   2.534
29199SOL    HW289532   9.959   0.651   2.680
29200SOL     OW89533   9.693   1.537   3.139
29200SOL    HW189534   9.700   1.480   3.057
29200SOL    HW289535   9.784   1.554   3.176
29201SOL     OW89536   9.780   0.801   3.476
29201SOL    HW189537   9.853   0.810   3.408
29201SOL    HW289538   9.750   0.705   3.481
29202SOL     OW89539   9.821   0.025   3.662
29202SOL    HW189540   9.800   9.942   3.610
29202SOL    HW289541   9.737   0.061   3.702
29203SOL     OW89542   9.845   0.931   2.905
29203SOL    HW189543   9.859   1.027   2.930
29203SOL    HW289544   9.824   0.879   2.987
29204SOL     OW89545   9.408   1.279   3.129
29204SOL    HW189546   9.421   1.231   3.216
29204SOL    HW289547   9.401   1.377   3.146
29205SOL     OW89548   9.539   0.138   2.547
29205SOL    HW189549   9.539   0.237   2.541
29205SOL    HW289550   9.536   0.110   2.643
29206SOL     OW89551   9.678   0.980   3.657
29206SOL    HW189552   9.727   1.065   3.637
29206SOL    HW289553   9.710   0.908   3.596
29207SOL     OW89554   9.635   0.845   2.750
29207SOL    HW189555   9.713   0.877   2.803
29207SOL    HW289556   9.635   0.745   2.748
29208SOL     OW89557   9.671   0.567   2.755
29208SOL    HW189558   9.688   0.502   2.829
29208SOL    HW289559   9.755   0.581   2.702
29209SOL     OW89560   9.251   1.294   2.086
29209SOL    HW189561   9.180   1.317   2.020
29209SOL    HW289562   9.256   1.195   2.098
29210SOL     OW89563   9.403   1.777   2.827
29210SOL    HW189564   9.369   1.702   2.770
29210SOL    HW289565   9.485   1.816   2.786
29211SOL     OW89566   9.789   1.659   2.784
29211SOL    HW189567   9.881   1.681   2.816
29211SOL    HW289568   9.794   1.599   2.705
29212SOL     OW89569   9.313   0.605   2.945
29212SOL    HW189570   9.384   0.604   2.875
29212SOL    HW289571   9.355   0.590   3.035
29213SOL     OW89572   9.477   0.628   3.567
29213SOL    HW189573   9.502   0.540   3.526
29213SOL    HW289574   9.447   0.691   3.495
29214SOL     OW89575   0.132   0.724   2.161
29214SOL    HW189576   0.145   0.727   2.261
29214SOL    HW289577   0.035   0.730   2.140
29215SOL     OW89578   9.513   1.520   3.599
29215SOL    HW189579   9.476   1.587   3.662
29215SOL    HW289580   9.542   1.439   3.650
29216SOL     OW89581   9.789   0.483   2.016
29216SOL    HW189582   9.827   0.572   2.044
29216SOL    HW289583   9.690   0.491   2.006
29217SOL     OW89584   9.480   1.150   3.359
29217SOL    HW189585   9.448   1.133   3.453
29217SOL    HW289586   9.513   1.065   3.319
29218SOL     OW89587   9.474   1.233   2.875
29218SOL    HW189588   9.451   1.249   2.971
29218SOL    HW289589   9.393   1.197   2.827
29219SOL     OW89590   9.927   1.626   3.523
29219SOL    HW189591   9.833   1.657   3.512
29219SOL    HW289592   9.962   1.592   3.436
29220SOL     OW89593   9.417   1.710   3.764
29220SOL    HW189594   9.347   1.665   3.820
29220SOL    HW289595   9.485   1.753   3.824
29221SOL     OW89596   9.554   0.411   2.559
29221SOL    HW189597   9.460   0.439   2.541
29221SOL    HW289598   9.592   0.467   2.632
29222SOL     OW89599   9.682   1.334   3.353
29222SOL    HW189600   9.675   1.397   3.277
29222SOL    HW289601   9.605   1.271   3.352
29223SOL     OW89602   9.883   1.500   2.334
29223SOL    HW189603   9.894   1.413   2.286
29223SOL    HW289604   9.861   1.572   2.269
29224SOL     OW89605   9.490   1.384   2.171
29224SOL    HW189606   9.395   1.362   2.149
29224SOL    HW289607   9.493   1.462   2.233
29225SOL     OW89608   9.423   1.093   3.627
29225SOL    HW189609   9.339   1.056   3.667
29225SOL    HW289610   9.498   1.027   3.641
29226SOL     OW89611   9.930   0.140   3.400
29226SOL    HW189612   0.015   0.186   3.376
29226SOL    HW289613   9.925   0.129   3.499
29227SOL     OW89614   9.477   0.279   2.163
29227SOL    HW189615   9.506   0.355   2.105
29227SOL    HW289616   9.528   0.197   2.138
29228SOL     OW89617   0.005   0.792   3.277
29228SOL    HW189618   0.053   0.857   3.217
29228SOL    HW289619   0.064   0.769   3.354
29229SOL     OW89620   9.668   1.717   3.496
29229SOL    HW189621   9.595   1.783   3.476
29229SOL    HW289622   9.627   1.630   3.524
29230SOL     OW89623   9.873   0.801   2.430
29230SOL    HW189624   9.863   0.890   2.473
29230SOL    HW289625   9.791   0.780   2.376
29231SOL     OW89626   9.571   1.296   3.733
29231SOL    HW189627   9.509   1.226   3.699
29231SOL    HW289628   9.566   1.300   3.833
29232SOL     OW89629   9.491   1.288   2.503
29232SOL    HW189630   9.528   1.232   2.577
29232SOL    HW289631   9.534   1.263   2.416
29233SOL     OW89632   9.983   1.399   3.675
29233SOL    HW189633   9.919   1.331   3.639
29233SOL    HW289634   9.968   1.487   3.630
29234SOL     OW89635   9.702   0.477   2.338
29234SOL    HW189636   9.732   0.397   2.286
29234SOL    HW289637   9.649   0.448   2.417
29235SOL     OW89638   9.693   0.525   3.145
29235SOL    HW189639   9.727   0.473   3.223
29235SOL    HW289640   9.707   0.472   3.061
29236SOL     OW89641   9.301   1.026   2.175
29236SOL    HW189642   9.400   1.019   2.158
29236SOL    HW289643   9.261   0.935   2.176
29237SOL     OW89644   9.479   0.650   3.837
29237SOL    HW189645   9.391   0.620   3.874
29237SOL    HW289646   9.475   0.649   3.737
29238SOL     OW89647   9.445   0.333   4.778
29238SOL    HW189648   9.498   0.286   4.849
29238SOL    HW289649   9.382   0.268   4.735
29239SOL     OW89650   9.233   0.476   4.342
29239SOL    HW189651   9.152   0.486   4.400
29239SOL    HW289652   9.206   0.443   4.252
29240SOL     OW89653   9.842   1.205   4.815
29240SOL    HW189654   9.767   1.271   4.808
29240SOL    HW289655   9.906   1.234   4.886
29241SOL     OW89656   0.020   0.904   5.637
29241SOL    HW189657   9.930   0.879   5.601
29241SOL    HW289658   0.080   0.931   5.562
29242SOL     OW89659   9.652   1.413   4.811
29242SOL    HW189660   9.588   1.353   4.764
29242SOL    HW289661   9.690   1.479   4.745
29243SOL     OW89662   9.729   0.458   5.234
29243SOL    HW189663   9.816   0.410   5.226
29243SOL    HW289664   9.654   0.392   5.237
29244SOL     OW89665   9.603   1.729   4.221
29244SOL    HW189666   9.602   1.807   4.284
29244SOL    HW289667   9.687   1.731   4.166
29245SOL     OW89668   9.509   1.471   4.208
29245SOL    HW189669   9.549   1.560   4.231
29245SOL    HW289670   9.518   1.409   4.287
29246SOL     OW89671   9.632   1.084   4.552
29246SOL    HW189672   9.629   0.985   4.565
29246SOL    HW289673   9.594   1.130   4.632
29247SOL     OW89674   9.389   0.708   4.321
29247SOL    HW189675   9.339   0.623   4.337
29247SOL    HW289676   9.379   0.768   4.400
29248SOL     OW89677   9.245   1.543   3.928
29248SOL    HW189678   9.269   1.447   3.937
29248SOL    HW289679   9.286   1.595   4.002
29249SOL     OW89680   9.377   0.759   5.305
29249SOL    HW189681   9.438   0.828   5.344
29249SOL    HW289682   9.295   0.804   5.270
29250SOL     OW89683   9.861   1.434   4.450
29250SOL    HW189684   9.849   1.335   4.444
29250SOL    HW289685   9.867   1.473   4.358
29251SOL     OW89686   9.505   0.982   4.941
29251SOL    HW189687   9.598   0.945   4.949
29251SOL    HW289688   9.445   0.913   4.901
29252SOL     OW89689   9.620   0.125   5.482
29252SOL    HW189690   9.689   0.114   5.553
29252SOL    HW289691   9.546   0.183   5.516
29253SOL     OW89692   9.795   0.770   4.056
29253SOL    HW189693   9.731   0.824   4.002
29253SOL    HW289694   9.753   0.747   4.144
29254SOL     OW89695   9.369   0.880   4.532
29254SOL    HW189696   9.455   0.853   4.576
29254SOL    HW289697   9.339   0.968   4.568
29255SOL     OW89698   9.417   1.885   5.338
29255SOL    HW189699   9.439   1.814   5.404
29255SOL    HW289700   9.321   1.877   5.311
29256SOL     OW89701   0.198   0.284   4.019
29256SOL    HW189702   0.195   0.379   3.987
29256SOL    HW289703   0.244   0.227   3.951
29257SOL     OW89704   9.904   0.226   4.693
29257SOL    HW189705   9.880   0.213   4.789
29257SOL    HW289706   9.885   0.320   4.666
29258SOL     OW89707   9.645   1.831   4.636
29258SOL    HW189708   9.699   1.747   4.644
29258SOL    HW289709   9.702   1.910   4.659
29259SOL     OW89710   9.592   0.897   3.908
29259SOL    HW189711   9.629   0.934   3.823
29259SOL    HW289712   9.546   0.810   3.889
29260SOL     OW89713   9.816   1.179   5.419
29260SOL    HW189714   9.789   1.198   5.325
29260SOL    HW289715   9.756   1.229   5.481
29261SOL     OW89716   9.540   0.261   5.245
29261SOL    HW189717   9.441   0.275   5.239
29261SOL    HW289718   9.561   0.209   5.327
29262SOL     OW89719   9.832   1.751   4.058
29262SOL    HW189720   9.843   1.850   4.059
29262SOL    HW289721   9.915   1.709   4.021
29263SOL     OW89722   9.512   1.835   4.958
29263SOL    HW189723   9.588   1.782   4.996
29263SOL    HW289724   9.483   1.796   4.871
29264SOL     OW89725   9.666   0.690   4.282
29264SOL    HW189726   9.670   0.591   4.267
29264SOL    HW289727   9.570   0.717   4.296
29265SOL     OW89728   9.939   0.157   3.865
29265SOL    HW189729   9.988   0.104   3.933
29265SOL    HW289730   9.905   0.096   3.794
29266SOL     OW89731   0.098   1.412   4.601
29266SOL    HW189732   0.131   1.335   4.547
29266SOL    HW289733   0.007   1.439   4.569
29267SOL     OW89734   9.918   0.240   4.264
29267SOL    HW189735   9.922   0.143   4.290
29267SOL    HW289736   9.861   0.250   4.183
29268SOL     OW89737   9.542   9.878   3.870
29268SOL    HW189738   9.560   9.974   3.850
29268SOL    HW289739   9.595   9.851   3.951
29269SOL     OW89740   0.387   0.189   4.199
29269SOL    HW189741   0.300   0.232   4.174
29269SOL    HW289742   0.455   0.206   4.128
29270SOL     OW89743   9.834   1.165   4.382
29270SOL    HW189744   9.771   1.128   4.451
29270SOL    HW289745   9.792   1.157   4.291
29271SOL     OW89746   9.384   0.563   5.115
29271SOL    HW189747   9.474   0.579   5.075
29271SOL    HW289748   9.367   0.630   5.188
29272SOL     OW89749   9.835   0.221   4.948
29272SOL    HW189750   9.876   0.246   5.036
29272SOL    HW289751   9.736   0.215   4.958
29273SOL     OW89752   9.761   0.286   4.021
29273SOL    HW189753   9.834   0.246   3.966
29273SOL    HW289754   9.743   0.379   3.990
29274SOL     OW89755   9.744   0.852   4.971
29274SOL    HW189756   9.820   0.872   5.033
29274SOL    HW289757   9.704   0.763   4.993
29275SOL     OW89758   9.669   1.132   4.151
29275SOL    HW189759   9.630   1.198   4.087
29275SOL    HW289760   9.680   1.044   4.105
29276SOL     OW89761   9.856   0.493   4.682
29276SOL    HW189762   9.870   0.552   4.602
29276SOL    HW289763   9.916   0.524   4.756
29277SOL     OW89764   9.725   1.685   5.070
29277SOL    HW189765   9.664   1.606   5.073
29277SOL    HW289766   9.820   1.654   5.061
29278SOL     OW89767   9.825   0.742   5.310
29278SOL    HW189768   9.882   0.787   5.241
29278SOL    HW289769   9.810   0.647   5.283
29279SOL     OW89770   9.844   0.058   5.324
29279SOL    HW189771   9.833   9.969   5.278
29279SOL    HW289772   9.758   0.081   5.371
29280SOL     OW89773   9.855   0.938   4.735
29280SOL    HW189774   9.848   1.037   4.745
29280SOL    HW289775   9.829   0.894   4.821
29281SOL     OW89776   9.565   0.194   4.983
29281SOL    HW189777   9.556   0.224   5.078
29281SOL    HW289778   9.575   0.095   4.981
29282SOL     OW89779   9.484   0.077   4.384
29282SOL    HW189780   9.467   0.176   4.389
29282SOL    HW289781   9.558   0.053   4.446
29283SOL     OW89782   9.771   0.921   5.502
29283SOL    HW189783   9.799   1.011   5.468
29283SOL    HW289784   9.791   0.852   5.433
29284SOL     OW89785   9.614   0.818   4.650
29284SOL    HW189786   9.705   0.850   4.674
29284SOL    HW289787   9.603   0.723   4.680
29285SOL     OW89788   9.604   0.554   4.749
29285SOL    HW189789   9.542   0.476   4.751
29285SOL    HW289790   9.695   0.524   4.718
29286SOL     OW89791   9.280   1.251   3.904
29286SOL    HW189792   9.241   1.235   3.814
29286SOL    HW289793   9.292   1.164   3.952
29287SOL     OW89794   9.383   1.782   4.699
29287SOL    HW189795   9.349   1.705   4.645
29287SOL    HW289796   9.475   1.806   4.668
29288SOL     OW89797   9.798   1.601   4.656
29288SOL    HW189798   9.886   1.633   4.691
29288SOL    HW289799   9.813   1.545   4.574
29289SOL     OW89800   9.243   0.492   4.894
29289SOL    HW189801   9.308   0.441   4.837
29289SOL    HW289802   9.290   0.530   4.973
29290SOL     OW89803   9.526   0.552   5.435
29290SOL    HW189804   9.605   0.535   5.375
29290SOL    HW289805   9.465   0.617   5.391
29291SOL     OW89806   0.068   0.730   4.046
29291SOL    HW189807   0.102   0.724   4.140
29291SOL    HW289808   9.969   0.745   4.048
29292SOL     OW89809   9.718   1.594   5.456
29292SOL    HW189810   9.632   1.640   5.476
29292SOL    HW289811   9.711   1.497   5.480
29293SOL     OW89812   9.710   0.535   3.931
29293SOL    HW189813   9.762   0.608   3.976
29293SOL    HW289814   9.626   0.572   3.893
29294SOL     OW89815   9.448   1.104   5.180
29294SOL    HW189816   9.474   1.046   5.258
29294SOL    HW289817   9.466   1.054   5.095
29295SOL     OW89818   9.492   1.192   4.757
29295SOL    HW189819   9.499   1.130   4.835
29295SOL    HW289820   9.405   1.177   4.709
29296SOL     OW89821   0.041   1.519   5.348
29296SOL    HW189822   9.973   1.575   5.395
29296SOL    HW289823   0.133   1.551   5.371
29297SOL     OW89824   9.475   1.698   5.530
29297SOL    HW189825   9.411   1.628   5.563
29297SOL    HW289826   9.510   1.751   5.607
29298SOL     OW89827   9.455   0.343   4.427
29298SOL    HW189828   9.373   0.393   4.399
29298SOL    HW289829   9.473   0.361   4.524
29299SOL     OW89830   9.676   1.258   5.198
29299SOL    HW189831   9.664   1.343   5.146
29299SOL    HW289832   9.594   1.201   5.187
29300SOL     OW89833   9.876   1.495   4.185
29300SOL    HW189834   9.902   1.433   4.111
29300SOL    HW289835   9.850   1.583   4.147
29301SOL     OW89836   9.526   1.308   3.999
29301SOL    HW189837   9.433   1.289   3.970
29301SOL    HW289838   9.526   1.377   4.071
29302SOL     OW89839   9.516   0.971   5.409
29302SOL    HW189840   9.466   1.014   5.484
29302SOL    HW289841   9.608   0.948   5.441
29303SOL     OW89842   9.934   0.280   5.197
29303SOL    HW189843   0.034   0.289   5.191
29303SOL    HW289844   9.911   0.198   5.249
29304SOL     OW89845   9.431   0.333   3.729
29304SOL    HW189846   9.344   0.346   3.682
29304SOL    HW289847   9.449   0.411   3.789
29305SOL     OW89848   9.957   0.908   5.131
29305SOL    HW189849   9.951   1.000   5.169
29305SOL    HW289850   0.041   0.900   5.077
29306SOL     OW89851   9.814   1.805   5.311
29306SOL    HW189852   9.778   1.787   5.219
29306SOL    HW289853   9.783   1.733   5.373
29307SOL     OW89854   9.875   0.651   4.465
29307SOL    HW189855   9.935   0.729   4.485
29307SOL    HW289856   9.802   0.681   4.404
29308SOL     OW89857   9.622   1.335   5.526
29308SOL    HW189858   9.565   1.324   5.445
29308SOL    HW289859   9.566   1.324   5.608
29309SOL     OW89860   9.509   1.233   4.356
29309SOL    HW189861   9.544   1.185   4.437
29309SOL    HW289862   9.555   1.198   4.275
29310SOL     OW89863   0.054   1.284   5.500
29310SOL    HW189864   9.970   1.234   5.478
29310SOL    HW289865   0.063   1.364   5.440
29311SOL     OW89866   9.649   0.427   4.247
29311SOL    HW189867   9.679   0.361   4.178
29311SOL    HW289868   9.586   0.382   4.310
29312SOL     OW89869   9.632   0.609   5.017
29312SOL    HW189870   9.686   0.546   5.073
29312SOL    HW289871   9.635   0.580   4.921
29313SOL     OW89872   9.343   1.012   4.028
29313SOL    HW189873   9.434   0.995   3.992
29313SOL    HW289874   9.298   0.925   4.047
29314SOL     OW89875   9.564   0.635   5.693
29314SOL    HW189876   9.473   0.638   5.734
29314SOL    HW289877   9.557   0.607   5.598
29315SOL     OW89878   9.437   0.337   6.658
29315SOL    HW189879   9.492   0.295   6.731
29315SOL    HW289880   9.360   0.277   6.636
29316SOL     OW89881   9.366   0.438   6.164
29316SOL    HW189882   9.283   0.452   6.218
29316SOL    HW289883   9.357   0.353   6.112
29317SOL     OW89884   9.966   1.495   6.815
29317SOL    HW189885   0.002   1.531   6.728
29317SOL    HW289886   0.024   1.420   6.847
29318SOL     OW89887   0.132   0.869   7.531
29318SOL    HW189888   0.198   0.919   7.587
29318SOL    HW289889   0.163   0.774   7.521
29319SOL     OW89890   9.588   1.495   6.579
29319SOL    HW189891   9.507   1.437   6.572
29319SOL    HW289892   9.592   1.556   6.499
29320SOL     OW89893   9.698   0.371   7.187
29320SOL    HW189894   9.783   0.324   7.164
29320SOL    HW289895   9.621   0.326   7.140
29321SOL     OW89896   9.574   1.647   5.979
29321SOL    HW189897   9.565   1.710   6.057
29321SOL    HW289898   9.670   1.632   5.960
29322SOL     OW89899   9.523   1.368   5.986
29322SOL    HW189900   9.543   1.466   5.986
29322SOL    HW289901   9.472   1.345   6.069
29323SOL     OW89902   9.485   0.679   6.163
29323SOL    HW189903   9.449   0.586   6.168
29323SOL    HW289904   9.445   0.733   6.237
29324SOL     OW89905   9.312   1.531   5.675
29324SOL    HW189906   9.219   1.509   5.646
29324SOL    HW289907   9.309   1.595   5.752
29325SOL     OW89908   9.466   0.755   7.149
29325SOL    HW189909   9.552   0.804   7.141
29325SOL    HW289910   9.391   0.815   7.120
29326SOL     OW89911   9.824   1.425   6.298
29326SOL    HW189912   9.756   1.352   6.307
29326SOL    HW289913   9.866   1.420   6.207
29327SOL     OW89914   9.499   0.988   6.882
29327SOL    HW189915   9.554   0.905   6.888
29327SOL    HW289916   9.482   1.010   6.786
29328SOL     OW89917   9.593   0.215   7.394
29328SOL    HW189918   9.643   0.284   7.341
29328SOL    HW289919   9.510   0.256   7.432
29329SOL     OW89920   9.887   0.727   5.911
29329SOL    HW189921   9.832   0.795   5.864
29329SOL    HW289922   9.843   0.701   5.997
29330SOL     OW89923   9.386   0.861   6.373
29330SOL    HW189924   9.474   0.832   6.408
29330SOL    HW289925   9.356   0.943   6.422
29331SOL     OW89926   9.388   1.896   7.197
29331SOL    HW189927   9.389   1.845   7.283
29331SOL    HW289928   9.295   1.898   7.161
29332SOL     OW89929   0.171   0.276   5.896
29332SOL    HW189930   0.190   0.366   5.855
29332SOL    HW289931   0.225   0.206   5.849
29333SOL     OW89932   9.699   0.871   5.767
29333SOL    HW189933   9.725   0.908   5.678
29333SOL    HW289934   9.645   0.788   5.755
29334SOL     OW89935   9.710   1.259   7.295
29334SOL    HW189936   9.692   1.289   7.202
29334SOL    HW289937   9.639   1.294   7.356
29335SOL     OW89938   9.480   0.220   7.115
29335SOL    HW189939   9.395   0.271   7.109
29335SOL    HW289940   9.479   0.163   7.197
29336SOL     OW89941   9.842   1.653   5.946
29336SOL    HW189942   9.884   1.722   6.006
29336SOL    HW289943   9.897   1.644   5.863
29337SOL     OW89944   9.575   1.733   6.918
29337SOL    HW189945   9.611   1.755   7.009
29337SOL    HW289946   9.621   1.651   6.884
29338SOL     OW89947   9.757   0.645   6.137
29338SOL    HW189948   9.770   0.547   6.152
29338SOL    HW289949   9.659   0.666   6.141
29339SOL     OW89950   9.832   0.070   5.652
29339SOL    HW189951   9.876   0.092   5.739
29339SOL    HW289952   9.898   0.083   5.578
29340SOL     OW89953   0.054   1.415   6.448
29340SOL    HW189954   0.118   1.370   6.385
29340SOL    HW289955   9.964   1.421   6.405
29341SOL     OW89956   9.596   9.991   5.780
29341SOL    HW189957   9.683   0.011   5.735
29341SOL    HW289958   9.614   9.940   5.864
29342SOL     OW89959   0.347   0.126   6.068
29342SOL    HW189960   0.267   0.185   6.059
29342SOL    HW289961   0.417   0.154   6.002
29343SOL     OW89962   9.653   1.207   6.286
29343SOL    HW189963   9.662   1.148   6.367
29343SOL    HW289964   9.662   1.153   6.203
29344SOL     OW89965   9.410   0.557   6.971
29344SOL    HW189966   9.495   0.532   6.925
29344SOL    HW289967   9.428   0.632   7.035
29345SOL     OW89968   9.906   0.115   6.875
29345SOL    HW189969   9.951   0.035   6.836
29345SOL    HW289970   9.876   0.176   6.801
29346SOL     OW89971   9.751   0.300   5.918
29346SOL    HW189972   9.819   0.228   5.901
29346SOL    HW289973   9.765   0.375   5.854
29347SOL     OW89974   9.658   0.768   6.886
29347SOL    HW189975   9.752   0.792   6.911
29347SOL    HW289976   9.652   0.669   6.872
29348SOL     OW89977   9.326   1.602   6.923
29348SOL    HW189978   9.281   1.645   6.845
29348SOL    HW289979   9.415   1.645   6.939
29349SOL     OW89980   9.625   1.101   6.017
29349SOL    HW189981   9.617   1.196   5.987
29349SOL    HW289982   9.669   1.047   5.945
29350SOL     OW89983   9.887   0.558   6.500
29350SOL    HW189984   9.886   0.652   6.466
29350SOL    HW289985   9.931   0.556   6.590
29351SOL     OW89986   9.690   1.500   6.833
29351SOL    HW189987   9.652   1.492   6.741
29351SOL    HW289988   9.790   1.495   6.828
29352SOL     OW89989   9.753   0.819   7.186
29352SOL    HW189990   9.811   0.838   7.107
29352SOL    HW289991   9.771   0.726   7.219
29353SOL     OW89992   9.767   0.021   7.318
29353SOL    HW189993   9.724   9.930   7.309
29353SOL    HW289994   9.697   0.088   7.343
29354SOL     OW89995   9.582   0.217   6.863
29354SOL    HW189996   9.541   0.217   6.954
29354SOL    HW289997   9.628   0.129   6.848
29355SOL     OW89998   9.341   1.337   6.839
29355SOL    HW189999   9.342   1.273   6.915
29355SOL    HW290000   9.335   1.431   6.873
29356SOL     OW90001   9.683   1.000   7.376
29356SOL    HW190002   9.709   1.092   7.347
29356SOL    HW290003   9.715   0.933   7.310
29357SOL     OW90004   9.630   0.792   6.472
29357SOL    HW190005   9.714   0.785   6.419
29357SOL    HW290006   9.612   0.706   6.519
29358SOL     OW90007   9.611   0.539   6.573
29358SOL    HW190008   9.547   0.462   6.577
29358SOL    HW290009   9.696   0.509   6.530
29359SOL     OW90010   9.710   1.672   6.357
29359SOL    HW190011   9.758   1.710   6.435
29359SOL    HW290012   9.750   1.583   6.332
29360SOL     OW90013   9.245   0.537   6.755
29360SOL    HW190014   9.298   0.474   6.697
29360SOL    HW290015   9.298   0.558   6.837
29361SOL     OW90016   9.510   0.531   7.300
29361SOL    HW190017   9.588   0.488   7.255
29361SOL    HW290018   9.487   0.616   7.252
29362SOL     OW90019   0.162   0.719   5.924
29362SOL    HW190020   0.174   0.698   6.021
29362SOL    HW290021   0.066   0.732   5.904
29363SOL     OW90022   9.804   0.513   5.756
29363SOL    HW190023   9.853   0.582   5.809
29363SOL    HW290024   9.715   0.550   5.729
29364SOL     OW90025   9.386   1.153   7.061
29364SOL    HW190026   9.409   1.126   7.155
29364SOL    HW290027   9.435   1.094   6.997
29365SOL     OW90028   9.351   1.351   6.565
29365SOL    HW190029   9.342   1.346   6.665
29365SOL    HW290030   9.331   1.261   6.525
29366SOL     OW90031   9.997   1.560   7.276
29366SOL    HW190032   0.042   1.626   7.336
29366SOL    HW290033   0.025   1.576   7.181
29367SOL     OW90034   9.423   1.744   7.411
29367SOL    HW190035   9.385   1.652   7.421
29367SOL    HW290036   9.475   1.767   7.493
29368SOL     OW90037   9.623   1.338   7.050
29368SOL    HW190038   9.647   1.397   6.973
29368SOL    HW290039   9.538   1.289   7.029
29369SOL     OW90040   9.923   1.411   6.045
29369SOL    HW190041   9.953   1.355   5.968
29369SOL    HW290042   9.889   1.499   6.012
29370SOL     OW90043   9.444   1.302   5.734
29370SOL    HW190044   9.389   1.380   5.706
29370SOL    HW290045   9.475   1.316   5.828
29371SOL     OW90046   9.423   1.063   7.318
29371SOL    HW190047   9.352   1.018   7.371
29371SOL    HW290048   9.513   1.026   7.342
29372SOL     OW90049   9.894   0.191   7.130
29372SOL    HW190050   9.894   0.155   7.037
29372SOL    HW290051   9.863   0.120   7.193
29373SOL     OW90052   9.422   0.306   5.542
29373SOL    HW190053   9.328   0.306   5.508
29373SOL    HW290054   9.466   0.393   5.520
29374SOL     OW90055   9.364   0.129   5.763
29374SOL    HW190056   9.379   0.201   5.696
29374SOL    HW290057   9.446   0.073   5.771
29375SOL     OW90058   9.913   0.835   6.957
29375SOL    HW190059   9.935   0.912   6.897
29375SOL    HW290060   9.986   0.766   6.950
29376SOL     OW90061   9.637   1.789   7.182
29376SOL    HW190062   9.544   1.825   7.187
29376SOL    HW290063   9.644   1.707   7.239
29377SOL     OW90064   9.872   0.781   6.348
29377SOL    HW190065   9.965   0.818   6.341
29377SOL    HW290066   9.845   0.741   6.260
29378SOL     OW90067   9.481   1.297   7.447
29378SOL    HW190068   9.453   1.214   7.399
29378SOL    HW290069   9.491   1.277   7.544
29379SOL     OW90070   9.396   1.268   6.213
29379SOL    HW190071   9.482   1.263   6.263
29379SOL    HW290072   9.377   1.181   6.169
29380SOL     OW90073   9.964   1.316   7.380
29380SOL    HW190074   9.876   1.279   7.348
29380SOL    HW290075   9.977   1.408   7.343
29381SOL     OW90076   9.791   0.373   6.172
29381SOL    HW190077   9.767   0.345   6.079
29381SOL    HW290078   9.760   0.304   6.237
29382SOL     OW90079   9.642   0.496   6.840
29382SOL    HW190080   9.652   0.397   6.852
29382SOL    HW290081   9.635   0.518   6.743
29383SOL     OW90082   9.363   1.040   6.066
29383SOL    HW190083   9.460   1.053   6.048
29383SOL    HW290084   9.336   0.947   6.043
29384SOL     OW90085   9.470   0.320   8.523
29384SOL    HW190086   9.536   0.278   8.585
29384SOL    HW290087   9.400   0.253   8.499
29385SOL     OW90088   9.332   0.367   8.081
29385SOL    HW190089   9.261   0.409   8.137
29385SOL    HW290090   9.289   0.312   8.010
29386SOL     OW90091   9.860   1.217   8.562
29386SOL    HW190092   9.793   1.291   8.549
29386SOL    HW290093   9.934   1.250   8.621
29387SOL     OW90094   0.123   0.793   9.348
29387SOL    HW190095   0.212   0.838   9.343
29387SOL    HW290096   0.061   0.833   9.280
29388SOL     OW90097   9.682   1.430   8.520
29388SOL    HW190098   9.613   1.375   8.474
29388SOL    HW290099   9.725   1.492   8.455
29389SOL     OW90100   9.780   0.398   8.941
29389SOL    HW190101   9.842   0.320   8.943
29389SOL    HW290102   9.690   0.371   8.975
29390SOL     OW90103   9.517   1.696   7.931
29390SOL    HW190104   9.501   1.757   8.008
29390SOL    HW290105   9.614   1.699   7.905
29391SOL     OW90106   9.464   1.423   7.900
29391SOL    HW190107   9.476   1.521   7.917
29391SOL    HW290108   9.468   1.373   7.987
29392SOL     OW90109   9.593   1.036   8.287
29392SOL    HW190110   9.606   0.953   8.342
29392SOL    HW290111   9.566   1.112   8.347
29393SOL     OW90112   9.410   0.734   9.044
29393SOL    HW190113   9.484   0.793   9.076
29393SOL    HW290114   9.338   0.791   9.005
29394SOL     OW90115   9.837   1.422   8.153
29394SOL    HW190116   9.817   1.325   8.161
29394SOL    HW290117   9.844   1.447   8.057
29395SOL     OW90118   9.518   0.996   8.766
29395SOL    HW190119   9.605   0.948   8.779
29395SOL    HW290120   9.494   0.996   8.669
29396SOL     OW90121   9.665   0.325   9.299
29396SOL    HW190122   9.697   0.401   9.356
29396SOL    HW290123   9.571   0.301   9.325
29397SOL     OW90124   9.920   0.835   7.706
29397SOL    HW190125   9.980   0.852   7.628
29397SOL    HW290126   9.827   0.865   7.685
29398SOL     OW90127   9.417   1.848   9.084
29398SOL    HW190128   9.422   1.797   9.170
29398SOL    HW290129   9.334   1.821   9.034
29399SOL     OW90130   0.123   0.327   7.733
29399SOL    HW190131   0.086   0.417   7.756
29399SOL    HW290132   0.130   0.318   7.633
29400SOL     OW90133   9.810   0.232   8.401
29400SOL    HW190134   9.855   0.214   8.489
29400SOL    HW290135   9.829   0.326   8.373
29401SOL     OW90136   9.773   1.859   8.467
29401SOL    HW190137   9.794   1.774   8.419
29401SOL    HW290138   9.834   1.931   8.436
29402SOL     OW90139   9.672   0.932   7.644
29402SOL    HW190140   9.685   0.967   7.551
29402SOL    HW290141   9.581   0.890   7.651
29403SOL     OW90142   9.734   1.161   9.114
29403SOL    HW190143   9.711   1.202   9.026
29403SOL    HW290144   9.687   1.211   9.187
29404SOL     OW90145   9.511   0.321   8.958
29404SOL    HW190146   9.466   0.387   8.898
29404SOL    HW290147   9.468   0.231   8.946
29405SOL     OW90148   9.784   1.702   7.783
29405SOL    HW190149   9.801   1.783   7.840
29405SOL    HW290150   9.862   1.687   7.722
29406SOL     OW90151   9.590   1.815   8.656
29406SOL    HW190152   9.611   1.730   8.705
29406SOL    HW290153   9.663   1.834   8.590
29407SOL     OW90154   9.884   0.154   7.536
29407SOL    HW190155   9.924   0.099   7.609
29407SOL    HW290156   9.850   0.095   7.464
29408SOL     OW90157   0.089   1.404   8.262
29408SOL    HW190158   0.122   1.326   8.208
29408SOL    HW290159   9.994   1.424   8.236
29409SOL     OW90160   9.724   0.071   7.837
29409SOL    HW190161   9.691   0.061   7.931
29409SOL    HW290162   9.739   0.168   7.817
29410SOL     OW90163   9.550   0.058   7.628
29410SOL    HW190164   9.596   0.105   7.553
29410SOL    HW290165   9.613   0.047   7.704
29411SOL     OW90166   0.277   0.210   7.927
29411SOL    HW190167   0.235   0.240   8.012
29411SOL    HW290168   0.233   0.258   7.850
29412SOL     OW90169   9.805   1.148   8.120
29412SOL    HW190170   9.749   1.103   8.190
29412SOL    HW290171   9.762   1.138   8.031
29413SOL     OW90172   9.437   0.558   8.835
29413SOL    HW190173   9.529   0.574   8.799
29413SOL    HW290174   9.417   0.626   8.906
29414SOL     OW90175   9.893   0.201   8.659
29414SOL    HW190176   9.936   0.187   8.748
29414SOL    HW290177   9.794   0.211   8.672
29415SOL     OW90178   9.752   0.329   7.736
29415SOL    HW190179   9.795   0.288   7.655
29415SOL    HW290180   9.674   0.385   7.708
29416SOL     OW90181   9.751   0.857   8.783
29416SOL    HW190182   9.832   0.867   8.840
29416SOL    HW290183   9.726   0.760   8.776
29417SOL     OW90184   9.372   1.554   8.791
29417SOL    HW190185   9.319   1.613   8.730
29417SOL    HW290186   9.469   1.572   8.777
29418SOL     OW90187   9.663   1.112   7.884
29418SOL    HW190188   9.628   1.180   7.820
29418SOL    HW290189   9.679   1.026   7.836
29419SOL     OW90190   9.853   0.496   8.356
29419SOL    HW190191   9.865   0.552   8.274
29419SOL    HW290192   9.923   0.521   8.424
29420SOL     OW90193   9.648   1.565   8.754
29420SOL    HW190194   9.660   1.510   8.671
29420SOL    HW290195   9.736   1.575   8.801
29421SOL     OW90196   9.794   0.715   9.070
29421SOL    HW190197   9.866   0.758   9.015
29421SOL    HW290198   9.786   0.619   9.045
29422SOL     OW90199   9.788   0.119   9.182
29422SOL    HW190200   9.720   0.049   9.162
29422SOL    HW290201   9.742   0.200   9.218
29423SOL     OW90202   9.850   0.945   8.544
29423SOL    HW190203   9.858   1.045   8.540
29423SOL    HW290204   9.819   0.919   8.635
29424SOL     OW90205   9.628   0.204   8.716
29424SOL    HW190206   9.610   0.247   8.804
29424SOL    HW290207   9.629   0.104   8.727
29425SOL     OW90208   9.413   1.291   8.721
29425SOL    HW190209   9.375   1.230   8.790
29425SOL    HW290210   9.387   1.386   8.742
29426SOL     OW90211   9.623   0.078   8.094
29426SOL    HW190212   9.615   0.177   8.100
29426SOL    HW290213   9.636   0.040   8.186
29427SOL     OW90214   9.621   0.912   9.151
29427SOL    HW190215   9.665   0.999   9.129
29427SOL    HW290216   9.682   0.837   9.127
29428SOL     OW90217   9.636   0.818   8.439
29428SOL    HW190218   9.722   0.854   8.475
29428SOL    HW290219   9.626   0.723   8.466
29429SOL     OW90220   9.633   0.543   8.503
29429SOL    HW190221   9.568   0.467   8.499
29429SOL    HW290222   9.712   0.522   8.445
29430SOL     OW90223   9.828   1.608   8.355
29430SOL    HW190224   9.925   1.627   8.371
29430SOL    HW290225   9.818   1.550   8.274
29431SOL     OW90226   9.276   0.497   8.624
29431SOL    HW190227   9.335   0.438   8.569
29431SOL    HW290228   9.327   0.529   8.704
29432SOL     OW90229   9.383   0.484   9.148
29432SOL    HW190230   9.441   0.423   9.094
29432SOL    HW290231   9.386   0.577   9.110
29433SOL     OW90232   0.048   0.595   7.768
29433SOL    HW190233   0.089   0.603   7.859
29433SOL    HW290234   9.986   0.673   7.753
29434SOL     OW90235   9.555   1.527   9.166
29434SOL    HW190236   9.528   1.597   9.233
29434SOL    HW290237   9.571   1.440   9.214
29435SOL     OW90238   9.353   1.116   8.938
29435SOL    HW190239   9.385   1.119   9.033
29435SOL    HW290240   9.421   1.071   8.881
29436SOL     OW90241   9.482   1.225   8.464
29436SOL    HW190242   9.469   1.253   8.559
29436SOL    HW290243   9.399   1.181   8.430
29437SOL     OW90244   0.023   1.479   9.140
29437SOL    HW190245   0.053   1.550   9.203
29437SOL    HW290246   0.044   1.507   9.046
29438SOL     OW90247   9.459   1.730   9.323
29438SOL    HW190248   9.401   1.663   9.370
29438SOL    HW290249   9.508   1.785   9.390
29439SOL     OW90250   9.596   0.346   8.136
29439SOL    HW190251   9.500   0.359   8.111
29439SOL    HW290252   9.606   0.358   8.235
29440SOL     OW90253   9.647   1.289   8.892
29440SOL    HW190254   9.634   1.388   8.891
29440SOL    HW290255   9.597   1.248   8.816
29441SOL     OW90256   9.856   1.455   7.885
29441SOL    HW190257   9.891   1.397   7.812
29441SOL    HW290258   9.818   1.539   7.847
29442SOL     OW90259   9.482   1.236   7.710
29442SOL    HW190260   9.428   1.158   7.742
29442SOL    HW290261   9.472   1.312   7.773
29443SOL     OW90262   9.402   1.087   9.206
29443SOL    HW190263   9.317   1.061   9.252
29443SOL    HW290264   9.465   1.009   9.205
29444SOL     OW90265   9.930   0.152   8.943
29444SOL    HW190266   9.976   0.068   8.912
29444SOL    HW290267   9.890   0.137   9.033
29445SOL     OW90268   9.372   0.372   7.465
29445SOL    HW190269   9.280   0.363   7.429
29445SOL    HW290270   9.424   0.436   7.409
29446SOL     OW90271   9.301   0.156   7.645
29446SOL    HW190272   9.308   0.238   7.588
29446SOL    HW290273   9.389   0.109   7.647
29447SOL     OW90274   9.986   0.854   8.923
29447SOL    HW190275   0.026   0.914   8.992
29447SOL    HW290276   0.045   0.850   8.843
29448SOL     OW90277   9.683   1.771   9.066
29448SOL    HW190278   9.590   1.806   9.054
29448SOL    HW290279   9.679   1.674   9.092
29449SOL     OW90280   9.575   1.285   9.299
29449SOL    HW190281   9.499   1.226   9.270
29449SOL    HW290282   9.584   1.282   9.398
29450SOL     OW90283   9.469   1.201   8.078
29450SOL    HW190284   9.489   1.152   8.163
29450SOL    HW290285   9.527   1.164   8.005
29451SOL     OW90286   0.001   1.213   9.156
29451SOL    HW190287   9.906   1.184   9.145
29451SOL    HW290288   0.007   1.312   9.146
29452SOL     OW90289   9.819   0.414   7.993
29452SOL    HW190290   9.807   0.391   7.897
29452SOL    HW290291   9.738   0.385   8.045
29453SOL     OW90292   9.696   0.592   8.762
29453SOL    HW190293   9.744   0.519   8.811
29453SOL    HW290294   9.689   0.569   8.665
29454SOL     OW90295   9.336   1.014   7.792
29454SOL    HW190296   9.368   0.949   7.724
29454SOL    HW290297   9.323   0.968   7.880
29455SOL     OW90298   9.494   0.630   9.364
29455SOL    HW190299   9.413   0.645   9.422
29455SOL    HW290300   9.469   0.574   9.285
29456SOL     OW90301   9.547   1.648   9.780
29456SOL    HW190302   9.545   1.732   9.835
29456SOL    HW290303   9.630   1.647   9.723
29457SOL     OW90304   9.636   1.391   9.809
29457SOL    HW190305   9.593   1.481   9.817
29457SOL    HW290306   9.585   1.324   9.863
29458SOL     OW90307   9.332   1.551   9.469
29458SOL    HW190308   9.320   1.453   9.482
29458SOL    HW290309   9.306   1.599   9.553
29459SOL     OW90310   9.922   0.726   9.525
29459SOL    HW190311   9.992   0.733   9.454
29459SOL    HW290312   9.919   0.812   9.576
29460SOL     OW90313   9.275   0.843   0.055
29460SOL    HW190314   9.340   0.768   0.071
29460SOL    HW290315   9.280   0.908   0.130
29461SOL     OW90316   0.102   0.356   9.572
29461SOL    HW190317   0.141   0.423   9.509
29461SOL    HW290318   0.046   0.291   9.521
29462SOL     OW90319   9.576   1.876   0.130
29462SOL    HW190320   9.538   1.783   0.125
29462SOL    HW290321   9.675   1.871   0.131
29463SOL     OW90322   9.567   0.884   9.427
29463SOL    HW190323   9.608   0.917   9.342
29463SOL    HW290324   9.539   0.789   9.415
29464SOL     OW90325   9.774   1.697   9.641
29464SOL    HW190326   9.826   1.768   9.688
29464SOL    HW290327   9.836   1.641   9.586
29465SOL     OW90328   9.786   0.849   9.824
29465SOL    HW190329   9.748   0.757   9.825
29465SOL    HW290330   9.728   0.908   9.768
29466SOL     OW90331   9.946   0.175   9.409
29466SOL    HW190332   9.963   0.095   9.467
29466SOL    HW290333   9.891   0.148   9.330
29467SOL     OW90334   9.794   0.191   9.845
29467SOL    HW190335   9.703   0.167   9.877
29467SOL    HW290336   9.788   0.236   9.756
29468SOL     OW90337   0.221   0.277   9.807
29468SOL    HW190338   0.181   0.302   9.719
29468SOL    HW290339   0.293   0.342   9.830
29469SOL     OW90340   9.730   1.236   0.123
29469SOL    HW190341   9.664   1.301   0.161
29469SOL    HW290342   9.704   1.213   0.029
29470SOL     OW90343   9.786   0.304   9.600
29470SOL    HW190344   9.831   0.255   9.526
29470SOL    HW290345   9.754   0.393   9.567
29471SOL     OW90346   9.638   1.007   9.659
29471SOL    HW190347   9.623   1.104   9.639
29471SOL    HW290348   9.622   0.954   9.576
29472SOL     OW90349   9.545   0.117   9.930
29472SOL    HW190350   9.461   0.150   9.885
29472SOL    HW290351   9.531   0.118   0.029
29473SOL     OW90352   9.297   1.282   9.518
29473SOL    HW190353   9.209   1.307   9.478
29473SOL    HW290354   9.302   1.182   9.525
29474SOL     OW90355   9.966   0.548   9.730
29474SOL    HW190356   0.002   0.463   9.691
29474SOL    HW290357   9.946   0.613   9.656
29475SOL     OW90358   9.728   0.537   9.467
29475SOL    HW190359   9.795   0.609   9.483
29475SOL    HW290360   9.643   0.578   9.433
29476SOL     OW90361   9.897   1.365   9.735
29476SOL    HW190362   9.951   1.330   9.812
29476SOL    HW290363   9.803   1.380   9.766
29477SOL     OW90364   9.565   1.266   9.575
29477SOL    HW190365   9.467   1.281   9.563
29477SOL    HW290366   9.598   1.321   9.652
29478SOL     OW90367   9.401   0.290   9.347
29478SOL    HW190368   9.315   0.256   9.384
29478SOL    HW290369   9.382   0.362   9.280
29479SOL     OW90370   9.891   0.840   0.070
29479SOL    HW190371   9.952   0.919   0.083
29479SOL    HW290372   9.843   0.849   9.983
29480SOL     OW90373   9.513   1.185   9.935
29480SOL    HW190374   9.435   1.201   9.995
29480SOL    HW290375   9.496   1.104   9.879
29481SOL     OW90376   9.722   0.575   9.866
29481SOL    HW190377   9.805   0.546   9.819
29481SOL    HW290378   9.716   0.529   9.955
29482SOL     OW90379   9.331   1.010   9.538
29482SOL    HW190380   9.421   0.967   9.524
29482SOL    HW290381   9.272   0.988   9.461
29483SOL     OW90382   9.561   2.698   0.149
29483SOL    HW190383   9.497   2.649   0.208
29483SOL    HW290384   9.642   2.642   0.133
29484SOL     OW90385   9.557   2.170   1.136
29484SOL    HW190386   9.584   2.117   1.216
29484SOL    HW290387   9.468   2.139   1.104
29485SOL     OW90388   9.323   2.284   0.630
29485SOL    HW190389   9.243   2.315   0.682
29485SOL    HW290390   9.296   2.207   0.571
29486SOL     OW90391   9.836   3.061   1.097
29486SOL    HW190392   9.773   3.137   1.080
29486SOL    HW290393   9.897   3.084   1.172
29487SOL     OW90394   0.119   2.649   1.928
29487SOL    HW190395   0.174   2.717   1.977
29487SOL    HW290396   0.064   2.695   1.857
29488SOL     OW90397   9.673   3.279   1.050
29488SOL    HW190398   9.602   3.230   0.998
29488SOL    HW290399   9.722   3.340   0.988
29489SOL     OW90400   9.557   3.548   0.483
29489SOL    HW190401   9.571   3.626   0.544
29489SOL    HW290402   9.641   3.529   0.433
29490SOL     OW90403   9.454   3.298   0.510
29490SOL    HW190404   9.490   3.391   0.517
29490SOL    HW290405   9.411   3.272   0.597
29491SOL     OW90406   9.591   2.866   0.902
29491SOL    HW190407   9.677   2.836   0.945
29491SOL    HW290408   9.547   2.933   0.961
29492SOL     OW90409   9.451   2.512   0.545
29492SOL    HW190410   9.405   2.428   0.572
29492SOL    HW290411   9.453   2.576   0.623
29493SOL     OW90412   9.315   3.434   0.072
29493SOL    HW190413   9.344   3.339   0.083
29493SOL    HW290414   9.328   3.483   0.159
29494SOL     OW90415   9.405   2.554   1.560
29494SOL    HW190416   9.473   2.601   1.615
29494SOL    HW290417   9.338   2.619   1.526
29495SOL     OW90418   9.869   3.259   0.733
29495SOL    HW190419   9.810   3.180   0.747
29495SOL    HW290420   9.877   3.278   0.635
29496SOL     OW90421   0.117   1.914   0.441
29496SOL    HW190422   0.165   2.001   0.444
29496SOL    HW290423   0.031   1.921   0.492
29497SOL     OW90424   9.478   2.770   1.288
29497SOL    HW190425   9.574   2.750   1.267
29497SOL    HW290426   9.419   2.709   1.236
29498SOL     OW90427   9.622   2.114   1.903
29498SOL    HW190428   9.660   2.186   1.962
29498SOL    HW290429   9.522   2.122   1.903
29499SOL     OW90430   9.914   2.626   0.339
29499SOL    HW190431   9.876   2.624   0.246
29499SOL    HW290432   9.844   2.596   0.404
29500SOL     OW90433   9.459   2.664   0.774
29500SOL    HW190434   9.480   2.591   0.839
29500SOL    HW290435   9.504   2.749   0.805
29501SOL     OW90436   9.363   3.764   1.629
29501SOL    HW190437   9.364   3.732   1.724
29501SOL    HW290438   9.268   3.777   1.600
29502SOL     OW90439   0.224   2.128   0.094
29502SOL    HW190440   0.242   2.224   0.075
29502SOL    HW290441   0.295   2.072   0.051
29503SOL     OW90442   9.699   2.135   0.901
29503SOL    HW190443   9.645   2.148   0.984
29503SOL    HW290444   9.779   2.195   0.903
29504SOL     OW90445   9.649   3.663   0.904
29504SOL    HW190446   9.713   3.585   0.902
29504SOL    HW290447   9.690   3.738   0.957
29505SOL     OW90448   9.604   2.936   0.275
29505SOL    HW190449   9.666   3.001   0.231
29505SOL    HW290450   9.605   2.849   0.226
29506SOL     OW90451   9.789   3.127   1.653
29506SOL    HW190452   9.748   3.131   1.562
29506SOL    HW290453   9.717   3.118   1.721
29507SOL     OW90454   9.405   2.131   1.539
29507SOL    HW190455   9.316   2.168   1.565
29507SOL    HW290456   9.412   2.036   1.570
29508SOL     OW90457   9.796   3.531   0.345
29508SOL    HW190458   9.828   3.613   0.391
29508SOL    HW290459   9.867   3.498   0.283
29509SOL     OW90460   9.542   3.643   1.209
29509SOL    HW190461   9.587   3.559   1.240
29509SOL    HW290462   9.495   3.626   1.122
29510SOL     OW90463   9.726   2.506   0.506
29510SOL    HW190464   9.752   2.409   0.501
29510SOL    HW290465   9.627   2.513   0.511
29511SOL     OW90466   9.841   1.842   0.107
29511SOL    HW190467   9.903   1.914   0.137
29511SOL    HW290468   9.891   1.755   0.106
29512SOL     OW90469   0.125   3.248   0.825
29512SOL    HW190470   0.177   3.188   0.764
29512SOL    HW290471   0.029   3.250   0.796
29513SOL     OW90472   9.856   1.952   0.517
29513SOL    HW190473   9.772   1.921   0.561
29513SOL    HW290474   9.855   2.052   0.510
29514SOL     OW90475   0.219   2.162   0.405
29514SOL    HW190476   0.168   2.245   0.380
29514SOL    HW290477   0.302   2.158   0.350
29515SOL     OW90478   9.699   3.055   0.742
29515SOL    HW190479   9.668   2.980   0.801
29515SOL    HW290480   9.655   3.047   0.652
29516SOL     OW90481   9.385   2.360   1.369
29516SOL    HW190482   9.412   2.274   1.413
29516SOL    HW290483   9.397   2.435   1.434
29517SOL     OW90484   9.727   2.672   1.219
29517SOL    HW190485   9.804   2.681   1.282
29517SOL    HW290486   9.708   2.575   1.203
29518SOL     OW90487   9.377   3.413   1.371
29518SOL    HW190488   9.330   3.487   1.322
29518SOL    HW290489   9.475   3.422   1.357
29519SOL     OW90490   9.544   3.040   0.521
29519SOL    HW190491   9.522   3.135   0.500
29519SOL    HW290492   9.575   2.994   0.438
29520SOL     OW90493   9.906   2.321   0.913
29520SOL    HW190494   9.857   2.396   0.868
29520SOL    HW290495   9.961   2.356   0.988
29521SOL     OW90496   9.644   3.400   1.290
29521SOL    HW190497   9.657   3.352   1.203
29521SOL    HW290498   9.730   3.397   1.342
29522SOL     OW90499   9.825   2.614   1.619
29522SOL    HW190500   9.868   2.664   1.544
29522SOL    HW290501   9.829   2.516   1.601
29523SOL     OW90502   9.798   1.970   1.750
29523SOL    HW190503   9.762   1.884   1.716
29523SOL    HW290504   9.725   2.022   1.794
29524SOL     OW90505   9.840   2.807   1.012
29524SOL    HW190506   9.843   2.903   1.041
29524SOL    HW290507   9.803   2.751   1.086
29525SOL     OW90508   9.622   2.040   1.371
29525SOL    HW190509   9.549   2.064   1.435
29525SOL    HW290510   9.603   1.950   1.331
29526SOL     OW90511   9.386   3.165   1.257
29526SOL    HW190512   9.371   3.091   1.323
29526SOL    HW290513   9.369   3.253   1.300
29527SOL     OW90514   9.608   1.899   0.627
29527SOL    HW190515   9.580   1.995   0.624
29527SOL    HW290516   9.616   1.870   0.722
29528SOL     OW90517   9.582   2.664   1.739
29528SOL    HW190518   9.578   2.612   1.824
29528SOL    HW290519   9.674   2.656   1.700
29529SOL     OW90520   9.586   2.497   0.957
29529SOL    HW190521   9.657   2.515   0.889
29529SOL    HW290522   9.628   2.456   1.039
29530SOL     OW90523   9.336   3.121   0.115
29530SOL    HW190524   9.247   3.142   0.074
29530SOL    HW290525   9.326   3.046   0.180
29531SOL     OW90526   9.382   3.634   0.977
29531SOL    HW190527   9.320   3.576   0.923
29531SOL    HW290528   9.471   3.639   0.931
29532SOL     OW90529   9.832   3.462   0.904
29532SOL    HW190530   9.923   3.496   0.927
29532SOL    HW290531   9.840   3.391   0.833
29533SOL     OW90532   9.374   2.531   1.145
29533SOL    HW190533   9.442   2.522   1.072
29533SOL    HW290534   9.394   2.464   1.217
29534SOL     OW90535   9.444   2.338   1.724
29534SOL    HW190536   9.464   2.260   1.665
29534SOL    HW290537   9.420   2.417   1.668
29535SOL     OW90538   0.060   2.378   0.323
29535SOL    HW190539   9.978   2.327   0.299
29535SOL    HW290540   0.034   2.469   0.356
29536SOL     OW90541   9.517   3.379   1.767
29536SOL    HW190542   9.470   3.401   1.852
29536SOL    HW290543   9.556   3.287   1.774
29537SOL     OW90544   9.400   2.964   1.460
29537SOL    HW190545   9.426   2.942   1.554
29537SOL    HW290546   9.439   2.895   1.398
29538SOL     OW90547   9.443   3.092   1.001
29538SOL    HW190548   9.434   3.127   1.095
29538SOL    HW290549   9.368   3.030   0.981
29539SOL     OW90550   0.124   3.433   1.706
29539SOL    HW190551   0.101   3.511   1.765
29539SOL    HW290552   0.219   3.407   1.723
29540SOL     OW90553   9.384   3.669   1.877
29540SOL    HW190554   9.355   3.577   1.901
29540SOL    HW290555   9.463   3.695   1.934
29541SOL     OW90556   9.577   2.171   0.651
29541SOL    HW190557   9.488   2.216   0.652
29541SOL    HW290558   9.614   2.167   0.744
29542SOL     OW90559   9.633   3.143   1.432
29542SOL    HW190560   9.612   3.219   1.370
29542SOL    HW290561   9.555   3.080   1.434
29543SOL     OW90562   9.876   3.293   0.469
29543SOL    HW190563   9.923   3.237   0.401
29543SOL    HW290564   9.840   3.376   0.425
29544SOL     OW90565   9.531   3.258   0.253
29544SOL    HW190566   9.460   3.209   0.204
29544SOL    HW290567   9.499   3.280   0.346
29545SOL     OW90568   9.436   2.898   1.725
29545SOL    HW190569   9.357   2.894   1.787
29545SOL    HW290570   9.492   2.816   1.737
29546SOL     OW90571   9.867   2.094   1.515
29546SOL    HW190572   9.795   2.066   1.451
29546SOL    HW290573   9.853   2.049   1.603
29547SOL     OW90574   9.211   2.157   0.061
29547SOL    HW190575   9.118   2.134   0.087
29547SOL    HW290576   9.230   2.252   0.084
29548SOL     OW90577   9.359   2.000   0.242
29548SOL    HW190578   9.309   2.053   0.172
29548SOL    HW290579   9.446   1.969   0.204
29549SOL     OW90580   9.954   2.679   1.369
29549SOL    HW190581   0.013   2.751   1.332
29549SOL    HW290582   0.005   2.594   1.377
29550SOL     OW90583   9.605   3.625   1.657
29550SOL    HW190584   9.518   3.667   1.632
29550SOL    HW290585   9.589   3.533   1.694
29551SOL     OW90586   9.794   2.529   0.777
29551SOL    HW190587   9.873   2.588   0.796
29551SOL    HW290588   9.770   2.534   0.680
29552SOL     OW90589   9.580   3.114   1.822
29552SOL    HW190590   9.527   3.038   1.786
29552SOL    HW290591   9.571   3.117   1.921
29553SOL     OW90592   9.376   3.140   0.731
29553SOL    HW190593   9.404   3.132   0.827
29553SOL    HW290594   9.434   3.081   0.674
29554SOL     OW90595   9.983   3.225   1.804
29554SOL    HW190596   9.912   3.186   1.746
29554SOL    HW290597   0.024   3.304   1.758
29555SOL     OW90598   9.793   2.234   0.491
29555SOL    HW190599   9.790   2.222   0.392
29555SOL    HW290600   9.705   2.206   0.531
29556SOL     OW90601   9.334   2.896   0.285
29556SOL    HW190602   9.432   2.918   0.294
29556SOL    HW290603   9.321   2.798   0.300
29557SOL     OW90604   9.532   2.472   1.942
29557SOL    HW190605   9.449   2.478   1.998
29557SOL    HW290606   9.513   2.418   1.860
29558SOL     OW90607   9.475   2.191   2.834
29558SOL    HW190608   9.526   2.148   2.909
29558SOL    HW290609   9.388   2.143   2.822
29559SOL     OW90610   9.837   3.073   3.021
29559SOL    HW190611   9.779   3.152   3.001
29559SOL    HW290612   9.910   3.101   3.085
29560SOL     OW90613   0.050   2.599   3.638
29560SOL    HW190614   0.091   2.551   3.716
29560SOL    HW290615   0.109   2.589   3.558
29561SOL     OW90616   9.676   3.293   2.960
29561SOL    HW190617   9.604   3.242   2.914
29561SOL    HW290618   9.722   3.353   2.895
29562SOL     OW90619   9.657   2.168   3.280
29562SOL    HW190620   9.735   2.109   3.303
29562SOL    HW290621   9.587   2.159   3.352
29563SOL     OW90622   9.565   3.583   2.327
29563SOL    HW190623   9.574   3.652   2.399
29563SOL    HW290624   9.656   3.557   2.295
29564SOL     OW90625   9.514   3.291   2.302
29564SOL    HW190626   9.526   3.382   2.341
29564SOL    HW290627   9.494   3.225   2.375
29565SOL     OW90628   9.593   2.974   2.683
29565SOL    HW190629   9.591   2.878   2.710
29565SOL    HW290630   9.557   3.031   2.757
29566SOL     OW90631   9.431   2.543   2.477
29566SOL    HW190632   9.469   2.461   2.520
29566SOL    HW290633   9.412   2.611   2.548
29567SOL     OW90634   9.357   3.417   1.983
29567SOL    HW190635   9.322   3.323   1.988
29567SOL    HW290636   9.342   3.462   2.072
29568SOL     OW90637   9.531   2.592   3.499
29568SOL    HW190638   9.629   2.614   3.504
29568SOL    HW290639   9.478   2.673   3.525
29569SOL     OW90640   9.878   3.289   2.596
29569SOL    HW190641   9.866   3.191   2.612
29569SOL    HW290642   9.887   3.306   2.498
29570SOL     OW90643   0.089   1.874   2.378
29570SOL    HW190644   0.116   1.968   2.397
29570SOL    HW290645   9.992   1.862   2.399
29571SOL     OW90646   9.463   2.788   3.157
29571SOL    HW190647   9.558   2.759   3.156
29571SOL    HW290648   9.410   2.733   3.092
29572SOL     OW90649   9.635   2.067   3.764
29572SOL    HW190650   9.686   2.142   3.806
29572SOL    HW290651   9.538   2.093   3.757
29573SOL     OW90652   9.363   2.751   2.665
29573SOL    HW190653   9.448   2.731   2.713
29573SOL    HW290654   9.321   2.833   2.704
29574SOL     OW90655   9.360   3.707   3.497
29574SOL    HW190656   9.389   3.675   3.587
29574SOL    HW290657   9.264   3.681   3.482
29575SOL     OW90658   0.086   2.231   2.115
29575SOL    HW190659   0.127   2.285   2.040
29575SOL    HW290660   0.096   2.134   2.095
29576SOL     OW90661   9.662   3.692   2.775
29576SOL    HW190662   9.721   3.612   2.787
29576SOL    HW290663   9.712   3.774   2.805
29577SOL     OW90664   9.724   3.106   3.584
29577SOL    HW190665   9.681   3.117   3.494
29577SOL    HW290666   9.664   3.145   3.654
29578SOL     OW90667   9.456   2.129   3.466
29578SOL    HW190668   9.363   2.165   3.465
29578SOL    HW290669   9.454   2.032   3.488
29579SOL     OW90670   9.821   3.569   2.234
29579SOL    HW190671   9.850   3.651   2.283
29579SOL    HW290672   9.883   3.553   2.157
29580SOL     OW90673   9.448   3.690   3.088
29580SOL    HW190674   9.500   3.612   3.123
29580SOL    HW290675   9.433   3.680   2.990
29581SOL     OW90676   9.868   1.941   2.017
29581SOL    HW190677   9.964   1.948   2.041
29581SOL    HW290678   9.857   1.953   1.918
29582SOL     OW90679   0.116   3.269   2.729
29582SOL    HW190680   0.168   3.208   2.669
29582SOL    HW290681   0.023   3.280   2.694
29583SOL     OW90682   9.805   1.877   2.392
29583SOL    HW190683   9.719   1.855   2.439
29583SOL    HW290684   9.798   1.967   2.349
29584SOL     OW90685   9.599   1.850   2.061
29584SOL    HW190686   9.672   1.912   2.033
29584SOL    HW290687   9.638   1.773   2.112
29585SOL     OW90688   0.154   2.142   2.371
29585SOL    HW190689   0.116   2.179   2.286
29585SOL    HW290690   0.252   2.159   2.374
29586SOL     OW90691   9.857   3.026   2.640
29586SOL    HW190692   9.760   3.006   2.650
29586SOL    HW290693   9.910   2.943   2.660
29587SOL     OW90694   9.419   2.467   3.273
29587SOL    HW190695   9.508   2.440   3.235
29587SOL    HW290696   9.433   2.521   3.356
29588SOL     OW90697   9.780   2.103   2.234
29588SOL    HW190698   9.819   2.046   2.162
29588SOL    HW290699   9.742   2.186   2.194
29589SOL     OW90700   9.714   2.676   3.150
29589SOL    HW190701   9.791   2.699   3.209
29589SOL    HW290702   9.697   2.577   3.155
29590SOL     OW90703   9.316   3.406   3.207
29590SOL    HW190704   9.261   3.463   3.146
29590SOL    HW290705   9.413   3.426   3.193
29591SOL     OW90706   9.818   2.424   2.766
29591SOL    HW190707   9.831   2.470   2.678
29591SOL    HW290708   9.882   2.462   2.833
29592SOL     OW90709   9.576   3.461   3.157
29592SOL    HW190710   9.623   3.399   3.094
29592SOL    HW290711   9.633   3.476   3.238
29593SOL     OW90712   9.804   2.673   3.530
29593SOL    HW190713   9.838   2.701   3.440
29593SOL    HW290714   9.879   2.637   3.585
29594SOL     OW90715   9.799   1.938   3.595
29594SOL    HW190716   9.757   1.852   3.565
29594SOL    HW290717   9.734   1.990   3.650
29595SOL     OW90718   9.808   2.817   2.936
29595SOL    HW190719   9.815   2.913   2.963
29595SOL    HW290720   9.779   2.762   3.014
29596SOL     OW90721   9.538   2.055   3.069
29596SOL    HW190722   9.589   2.096   3.145
29596SOL    HW290723   9.554   1.956   3.068
29597SOL     OW90724   9.383   3.149   3.133
29597SOL    HW190725   9.357   3.077   3.198
29597SOL    HW290726   9.346   3.237   3.164
29598SOL     OW90727   9.667   2.860   3.683
29598SOL    HW190728   9.696   2.948   3.648
29598SOL    HW290729   9.717   2.787   3.637
29599SOL     OW90730   9.600   2.713   2.793
29599SOL    HW190731   9.679   2.752   2.840
29599SOL    HW290732   9.589   2.617   2.821
29600SOL     OW90733   9.577   2.438   2.880
29600SOL    HW190734   9.526   2.354   2.860
29600SOL    HW290735   9.666   2.435   2.835
29601SOL     OW90736   9.271   3.147   1.978
29601SOL    HW190737   9.184   3.197   1.977
29601SOL    HW290738   9.258   3.057   1.938
29602SOL     OW90739   9.394   3.645   2.826
29602SOL    HW190740   9.353   3.569   2.776
29602SOL    HW290741   9.490   3.655   2.797
29603SOL     OW90742   9.823   3.468   2.794
29603SOL    HW190743   9.914   3.498   2.824
29603SOL    HW290744   9.832   3.407   2.715
29604SOL     OW90745   9.363   2.557   3.020
29604SOL    HW190746   9.438   2.521   2.964
29604SOL    HW290747   9.376   2.530   3.115
29605SOL     OW90748   9.510   2.351   3.629
29605SOL    HW190749   9.508   2.275   3.564
29605SOL    HW290750   9.512   2.438   3.579
29606SOL     OW90751   9.936   2.435   2.222
29606SOL    HW190752   9.981   2.362   2.169
29606SOL    HW290753   9.988   2.452   2.305
29607SOL     OW90754   9.484   3.386   3.594
29607SOL    HW190755   9.472   3.468   3.649
29607SOL    HW290756   9.516   3.311   3.652
29608SOL     OW90757   9.712   2.322   2.084
29608SOL    HW190758   9.785   2.375   2.127
29608SOL    HW290759   9.650   2.385   2.037
29609SOL     OW90760   9.367   2.950   3.344
29609SOL    HW190761   9.385   2.909   3.434
29609SOL    HW290762   9.406   2.893   3.273
29610SOL     OW90763   9.463   3.119   2.877
29610SOL    HW190764   9.442   3.129   2.974
29610SOL    HW290765   9.386   3.075   2.831
29611SOL     OW90766   0.016   3.464   3.515
29611SOL    HW190767   0.002   3.480   3.613
29611SOL    HW290768   0.112   3.443   3.498
29612SOL     OW90769   9.449   3.613   3.736
29612SOL    HW190770   9.427   3.557   3.816
29612SOL    HW290771   9.500   3.694   3.765
29613SOL     OW90772   9.506   2.289   2.574
29613SOL    HW190773   9.433   2.245   2.522
29613SOL    HW290774   9.503   2.256   2.669
29614SOL     OW90775   9.589   3.126   3.351
29614SOL    HW190776   9.600   3.158   3.257
29614SOL    HW290777   9.508   3.067   3.357
29615SOL     OW90778   9.903   3.323   2.327
29615SOL    HW190779   9.917   3.266   2.247
29615SOL    HW290780   9.865   3.411   2.299
29616SOL     OW90781   9.516   3.126   2.089
29616SOL    HW190782   9.423   3.132   2.054
29616SOL    HW290783   9.528   3.193   2.163
29617SOL     OW90784   9.410   2.829   3.581
29617SOL    HW190785   9.329   2.829   3.639
29617SOL    HW290786   9.491   2.848   3.637
29618SOL     OW90787   9.870   2.014   3.347
29618SOL    HW190788   9.945   2.080   3.339
29618SOL    HW290789   9.850   1.997   3.443
29619SOL     OW90790   9.336   2.155   1.905
29619SOL    HW190791   9.237   2.146   1.913
29619SOL    HW290792   9.358   2.233   1.847
29620SOL     OW90793   9.373   1.989   2.120
29620SOL    HW190794   9.357   2.055   2.046
29620SOL    HW290795   9.461   1.944   2.106
29621SOL     OW90796   9.937   2.735   3.292
29621SOL    HW190797   9.979   2.825   3.279
29621SOL    HW290798   9.998   2.665   3.257
29622SOL     OW90799   9.598   3.571   3.426
29622SOL    HW190800   9.514   3.626   3.421
29622SOL    HW290801   9.579   3.486   3.475
29623SOL     OW90802   9.881   2.611   2.550
29623SOL    HW190803   9.908   2.688   2.608
29623SOL    HW290804   9.849   2.646   2.462
29624SOL     OW90805   9.560   3.201   3.778
29624SOL    HW190806   9.467   3.177   3.805
29624SOL    HW290807   9.610   3.235   3.858
29625SOL     OW90808   9.443   3.076   2.469
29625SOL    HW190809   9.504   3.042   2.541
29625SOL    HW290810   9.413   3.000   2.412
29626SOL     OW90811   9.979   3.197   3.603
29626SOL    HW190812   9.891   3.151   3.590
29626SOL    HW290813   9.981   3.281   3.549
29627SOL     OW90814   9.779   2.225   2.502
29627SOL    HW190815   9.778   2.191   2.408
29627SOL    HW290816   9.688   2.259   2.525
29628SOL     OW90817   9.653   2.409   3.151
29628SOL    HW190818   9.668   2.319   3.192
29628SOL    HW290819   9.640   2.399   3.053
29629SOL     OW90820   9.335   2.865   2.299
29629SOL    HW190821   9.419   2.872   2.247
29629SOL    HW290822   9.301   2.771   2.295
29630SOL     OW90823   9.555   2.438   3.884
29630SOL    HW190824   9.461   2.438   3.919
29630SOL    HW290825   9.553   2.415   3.787
29631SOL     OW90826   9.472   2.198   4.757
29631SOL    HW190827   9.524   2.164   4.835
29631SOL    HW290828   9.386   2.147   4.750
29632SOL     OW90829   9.257   2.270   4.367
29632SOL    HW190830   9.163   2.289   4.395
29632SOL    HW290831   9.260   2.183   4.318
29633SOL     OW90832   9.864   3.070   4.792
29633SOL    HW190833   9.787   3.134   4.786
29633SOL    HW290834   9.916   3.088   4.875
29634SOL     OW90835   9.976   2.740   5.710
29634SOL    HW190836   0.012   2.798   5.783
29634SOL    HW290837   0.009   2.775   5.622
29635SOL     OW90838   9.657   3.252   4.784
29635SOL    HW190839   9.580   3.203   4.743
29635SOL    HW290840   9.685   3.326   4.723
29636SOL     OW90841   9.722   2.295   5.206
29636SOL    HW190842   9.810   2.249   5.205
29636SOL    HW290843   9.651   2.232   5.236
29637SOL     OW90844   9.484   3.369   4.391
29637SOL    HW190845   9.417   3.400   4.459
29637SOL    HW290846   9.477   3.270   4.381
29638SOL     OW90847   9.619   2.963   4.535
29638SOL    HW190848   9.627   2.865   4.555
29638SOL    HW290849   9.567   3.008   4.607
29639SOL     OW90850   9.277   2.544   4.328
29639SOL    HW190851   9.285   2.444   4.339
29639SOL    HW290852   9.322   2.589   4.405
29640SOL     OW90853   9.387   3.436   3.934
29640SOL    HW190854   9.343   3.347   3.920
29640SOL    HW290855   9.331   3.492   3.995
29641SOL     OW90856   9.413   2.628   5.288
29641SOL    HW190857   9.502   2.674   5.297
29641SOL    HW290858   9.343   2.696   5.267
29642SOL     OW90859   9.817   3.355   4.398
29642SOL    HW190860   9.814   3.257   4.381
29642SOL    HW290861   9.763   3.402   4.328
29643SOL     OW90862   0.127   1.927   4.211
29643SOL    HW190863   0.168   2.013   4.179
29643SOL    HW290864   0.037   1.946   4.251
29644SOL     OW90865   9.477   2.797   5.004
29644SOL    HW190866   9.573   2.776   4.987
29644SOL    HW290867   9.420   2.739   4.946
29645SOL     OW90868   9.623   2.184   5.569
29645SOL    HW190869   9.660   2.225   5.653
29645SOL    HW290870   9.525   2.169   5.579
29646SOL     OW90871   9.383   2.682   4.533
29646SOL    HW190872   9.479   2.686   4.563
29646SOL    HW290873   9.334   2.761   4.571
29647SOL     OW90874   9.393   3.759   5.372
29647SOL    HW190875   9.390   3.713   5.461
29647SOL    HW290876   9.301   3.761   5.333
29648SOL     OW90877   9.796   2.051   4.687
29648SOL    HW190878   9.828   2.057   4.781
29648SOL    HW290879   9.803   2.141   4.644
29649SOL     OW90880   9.598   2.880   3.949
29649SOL    HW190881   9.623   2.882   3.853
29649SOL    HW290882   9.615   2.789   3.987
29650SOL     OW90883   9.785   3.098   5.445
29650SOL    HW190884   9.763   3.111   5.349
29650SOL    HW290885   9.717   3.145   5.502
29651SOL     OW90886   9.519   2.119   5.247
29651SOL    HW190887   9.432   2.167   5.234
29651SOL    HW290888   9.501   2.029   5.287
29652SOL     OW90889   9.476   3.631   4.895
29652SOL    HW190890   9.551   3.565   4.891
29652SOL    HW290891   9.447   3.655   4.802
29653SOL     OW90892   9.991   1.931   3.787
29653SOL    HW190893   0.056   1.856   3.770
29653SOL    HW290894   9.925   1.935   3.712
29654SOL     OW90895   0.070   3.369   4.494
29654SOL    HW190896   0.105   3.281   4.465
29654SOL    HW290897   9.976   3.381   4.460
29655SOL     OW90898   9.865   2.018   4.276
29655SOL    HW190899   9.779   1.987   4.317
29655SOL    HW290900   9.855   2.023   4.177
29656SOL     OW90901   9.608   1.838   3.909
29656SOL    HW190902   9.637   1.917   3.855
29656SOL    HW290903   9.687   1.797   3.954
29657SOL     OW90904   0.230   2.169   4.119
29657SOL    HW190905   0.269   2.158   4.027
29657SOL    HW290906   0.293   2.222   4.175
29658SOL     OW90907   9.809   3.082   4.357
29658SOL    HW190908   9.758   3.037   4.430
29658SOL    HW290909   9.759   3.073   4.271
29659SOL     OW90910   9.413   2.446   5.088
29659SOL    HW190911   9.509   2.443   5.061
29659SOL    HW290912   9.402   2.511   5.164
29660SOL     OW90913   9.859   2.114   4.941
29660SOL    HW190914   9.903   2.123   5.031
29660SOL    HW290915   9.760   2.109   4.953
29661SOL     OW90916   9.854   2.019   4.005
29661SOL    HW190917   9.913   1.986   3.930
29661SOL    HW290918   9.814   2.107   3.979
29662SOL     OW90919   9.736   2.709   4.967
29662SOL    HW190920   9.795   2.730   5.045
29662SOL    HW290921   9.707   2.613   4.973
29663SOL     OW90922   9.413   3.419   5.072
29663SOL    HW190923   9.401   3.507   5.025
29663SOL    HW290924   9.510   3.399   5.080
29664SOL     OW90925   9.642   3.075   4.136
29664SOL    HW190926   9.637   3.163   4.089
29664SOL    HW290927   9.630   3.001   4.070
29665SOL     OW90928   9.863   2.328   4.637
29665SOL    HW190929   9.857   2.409   4.579
29665SOL    HW290930   9.920   2.348   4.717
29666SOL     OW90931   9.680   3.364   5.028
29666SOL    HW190932   9.673   3.318   4.940
29666SOL    HW290933   9.774   3.393   5.043
29667SOL     OW90934   9.686   2.682   5.340
29667SOL    HW190935   9.766   2.690   5.280
29667SOL    HW290936   9.684   2.591   5.381
29668SOL     OW90937   9.833   2.053   5.442
29668SOL    HW190938   9.805   1.969   5.395
29668SOL    HW290939   9.752   2.101   5.476
29669SOL     OW90940   9.857   2.806   4.742
29669SOL    HW190941   9.862   2.905   4.750
29669SOL    HW290942   9.825   2.767   4.829
29670SOL     OW90943   9.592   2.092   4.982
29670SOL    HW190944   9.572   2.113   5.077
29670SOL    HW290945   9.569   1.996   4.964
29671SOL     OW90946   9.366   3.175   4.954
29671SOL    HW190947   9.393   3.105   5.020
29671SOL    HW290948   9.377   3.266   4.996
29672SOL     OW90949   9.623   1.946   4.388
29672SOL    HW190950   9.574   2.032   4.403
29672SOL    HW290951   9.631   1.896   4.474
29673SOL     OW90952   9.672   2.864   5.541
29673SOL    HW190953   9.731   2.941   5.515
29673SOL    HW290954   9.683   2.791   5.473
29674SOL     OW90955   9.638   2.689   4.630
29674SOL    HW190956   9.716   2.733   4.675
29674SOL    HW290957   9.626   2.598   4.669
29675SOL     OW90958   9.613   2.425   4.716
29675SOL    HW190959   9.548   2.350   4.725
29675SOL    HW290960   9.699   2.390   4.679
29676SOL     OW90961   9.307   3.173   3.882
29676SOL    HW190962   9.218   3.193   3.841
29676SOL    HW290963   9.304   3.083   3.926
29677SOL     OW90964   9.390   3.693   4.648
29677SOL    HW190965   9.360   3.610   4.600
29677SOL    HW290966   9.449   3.747   4.587
29678SOL     OW90967   9.759   3.458   4.642
29678SOL    HW190968   9.833   3.522   4.661
29678SOL    HW290969   9.771   3.420   4.550
29679SOL     OW90970   9.362   2.576   4.856
29679SOL    HW190971   9.423   2.546   4.783
29679SOL    HW290972   9.382   2.524   4.939
29680SOL     OW90973   9.547   2.466   5.479
29680SOL    HW190974   9.569   2.371   5.459
29680SOL    HW290975   9.484   2.502   5.411
29681SOL     OW90976   0.026   2.320   4.005
29681SOL    HW190977   0.090   2.252   4.041
29681SOL    HW290978   9.992   2.378   4.079
29682SOL     OW90979   9.529   3.424   5.445
29682SOL    HW190980   9.493   3.492   5.509
29682SOL    HW290981   9.557   3.342   5.496
29683SOL     OW90982   9.771   2.258   3.901
29683SOL    HW190983   9.862   2.295   3.921
29683SOL    HW290984   9.703   2.332   3.903
29684SOL     OW90985   9.444   3.008   5.168
29684SOL    HW190986   9.452   2.985   5.265
29684SOL    HW290987   9.455   2.924   5.114
29685SOL     OW90988   9.443   3.081   4.709
29685SOL    HW190989   9.414   3.111   4.799
29685SOL    HW290990   9.372   3.023   4.668
29686SOL     OW90991   9.416   3.610   5.606
29686SOL    HW190992   9.357   3.555   5.665
29686SOL    HW290993   9.485   3.656   5.661
29687SOL     OW90994   9.496   2.172   4.476
29687SOL    HW190995   9.416   2.217   4.437
29687SOL    HW290996   9.495   2.182   4.576
29688SOL     OW90997   9.683   3.146   5.200
29688SOL    HW190998   9.683   3.229   5.144
29688SOL    HW290999   9.599   3.094   5.182
29689SOL     OW91000   9.617   3.323   4.022
29689SOL    HW191001   9.533   3.363   3.986
29689SOL    HW291002   9.649   3.377   4.100
29690SOL     OW91003   9.446   2.973   5.441
29690SOL    HW191004   9.364   2.941   5.488
29690SOL    HW291005   9.526   2.927   5.478
29691SOL     OW91006   9.942   2.138   5.203
29691SOL    HW191007   0.040   2.120   5.193
29691SOL    HW291008   9.910   2.102   5.291
29692SOL     OW91009   9.370   2.150   3.776
29692SOL    HW191010   9.284   2.128   3.731
29692SOL    HW291011   9.402   2.240   3.745
29693SOL     OW91012   9.394   1.983   4.002
29693SOL    HW191013   9.374   2.052   3.933
29693SOL    HW291014   9.480   1.937   3.979
29694SOL     OW91015   9.907   2.721   5.176
29694SOL    HW191016   9.953   2.808   5.188
29694SOL    HW291017   9.972   2.652   5.146
29695SOL     OW91018   9.644   3.659   5.339
29695SOL    HW191019   9.553   3.701   5.342
29695SOL    HW291020   9.636   3.562   5.364
29696SOL     OW91021   9.840   2.551   4.500
29696SOL    HW191022   9.920   2.612   4.508
29696SOL    HW291023   9.756   2.605   4.512
29697SOL     OW91024   9.571   3.193   5.582
29697SOL    HW191025   9.508   3.125   5.544
29697SOL    HW291026   9.555   3.202   5.680
29698SOL     OW91027   9.466   3.103   4.350
29698SOL    HW191028   9.509   3.046   4.420
29698SOL    HW291029   9.513   3.088   4.262
29699SOL     OW91030   0.035   3.114   5.540
29699SOL    HW191031   9.945   3.103   5.497
29699SOL    HW291032   0.063   3.210   5.535
29700SOL     OW91033   9.666   2.452   4.998
29700SOL    HW191034   9.700   2.393   5.071
29700SOL    HW291035   9.678   2.407   4.909
29701SOL     OW91036   9.330   2.920   4.008
29701SOL    HW191037   9.427   2.921   3.984
29701SOL    HW291038   9.302   2.826   4.030
29702SOL     OW91039   9.502   2.516   5.744
29702SOL    HW191040   9.407   2.488   5.760
29702SOL    HW291041   9.523   2.507   5.646
29703SOL     OW91042   9.514   2.167   6.606
29703SOL    HW191043   9.557   2.115   6.680
29703SOL    HW291044   9.425   2.128   6.585
29704SOL     OW91045   9.309   2.282   6.218
29704SOL    HW191046   9.221   2.299   6.262
29704SOL    HW291047   9.297   2.212   6.148
29705SOL     OW91048   9.907   3.059   6.728
29705SOL    HW191049   9.821   3.104   6.703
29705SOL    HW291050   9.939   3.095   6.816
29706SOL     OW91051   0.059   2.708   7.478
29706SOL    HW191052   0.117   2.683   7.556
29706SOL    HW291053   0.097   2.789   7.434
29707SOL     OW91054   9.675   3.198   6.681
29707SOL    HW191055   9.595   3.149   6.646
29707SOL    HW291056   9.710   3.259   6.610
29708SOL     OW91057   9.730   2.258   7.036
29708SOL    HW191058   9.810   2.199   7.039
29708SOL    HW291059   9.648   2.205   7.056
29709SOL     OW91060   9.487   3.394   6.084
29709SOL    HW191061   9.390   3.418   6.092
29709SOL    HW291062   9.503   3.307   6.129
29710SOL     OW91063   9.582   2.957   6.393
29710SOL    HW191064   9.590   2.858   6.407
29710SOL    HW291065   9.546   2.999   6.476
29711SOL     OW91066   9.421   2.535   6.159
29711SOL    HW191067   9.389   2.442   6.180
29711SOL    HW291068   9.401   2.595   6.236
29712SOL     OW91069   9.270   3.445   5.767
29712SOL    HW191070   9.262   3.345   5.775
29712SOL    HW291071   9.203   3.488   5.827
29713SOL     OW91072   9.470   2.606   7.161
29713SOL    HW191073   9.567   2.626   7.146
29713SOL    HW291074   9.424   2.688   7.196
29714SOL     OW91075   9.875   3.245   6.273
29714SOL    HW191076   9.851   3.148   6.267
29714SOL    HW291077   9.873   3.285   6.181
29715SOL     OW91078   0.000   1.843   6.074
29715SOL    HW191079   0.011   1.906   6.151
29715SOL    HW291080   9.996   1.895   5.989
29716SOL     OW91081   9.514   2.866   6.832
29716SOL    HW191082   9.595   2.808   6.829
29716SOL    HW291083   9.504   2.913   6.744
29717SOL     OW91084   9.615   2.172   7.415
29717SOL    HW191085   9.648   2.228   7.491
29717SOL    HW291086   9.517   2.153   7.429
29718SOL     OW91087   9.847   2.533   5.854
29718SOL    HW191088   9.866   2.614   5.798
29718SOL    HW291089   9.789   2.559   5.930
29719SOL     OW91090   9.355   2.703   6.371
29719SOL    HW191091   9.446   2.692   6.413
29719SOL    HW291092   9.311   2.784   6.410
29720SOL     OW91093   9.425   3.714   7.214
29720SOL    HW191094   9.428   3.677   7.307
29720SOL    HW291095   9.330   3.731   7.188
29721SOL     OW91096   0.122   2.225   5.818
29721SOL    HW191097   0.122   2.322   5.845
29721SOL    HW291098   0.108   2.219   5.719
29722SOL     OW91099   9.957   2.153   6.560
29722SOL    HW191100   9.915   2.119   6.645
29722SOL    HW291101   9.920   2.243   6.538
29723SOL     OW91102   9.556   2.804   5.785
29723SOL    HW191103   9.604   2.827   5.701
29723SOL    HW291104   9.541   2.705   5.789
29724SOL     OW91105   9.728   3.068   7.324
29724SOL    HW191106   9.688   3.089   7.235
29724SOL    HW291107   9.671   3.108   7.396
29725SOL     OW91108   9.500   2.108   7.068
29725SOL    HW191109   9.418   2.162   7.050
29725SOL    HW291110   9.476   2.028   7.123
29726SOL     OW91111   9.810   3.531   5.870
29726SOL    HW191112   9.820   3.606   5.935
29726SOL    HW291113   9.895   3.521   5.818
29727SOL     OW91114   9.605   3.592   6.795
29727SOL    HW191115   9.642   3.506   6.831
29727SOL    HW291116   9.622   3.597   6.697
29728SOL     OW91117   9.700   2.546   6.093
29728SOL    HW191118   9.731   2.457   6.127
29728SOL    HW291119   9.601   2.554   6.106
29729SOL     OW91120   9.811   1.893   5.672
29729SOL    HW191121   9.882   1.913   5.739
29729SOL    HW291122   9.826   1.948   5.590
29730SOL     OW91123   0.101   3.239   6.434
29730SOL    HW191124   0.138   3.153   6.400
29730SOL    HW291125   0.017   3.261   6.384
29731SOL     OW91126   9.571   1.815   5.754
29731SOL    HW191127   9.661   1.845   5.723
29731SOL    HW291128   9.581   1.752   5.831
29732SOL     OW91129   0.140   2.109   6.065
29732SOL    HW191130   0.151   2.143   5.971
29732SOL    HW291131   0.216   2.049   6.088
29733SOL     OW91132   9.780   2.995   6.204
29733SOL    HW191133   9.716   2.973   6.277
29733SOL    HW291134   9.732   2.993   6.116
29734SOL     OW91135   9.396   2.439   6.959
29734SOL    HW191136   9.487   2.437   6.917
29734SOL    HW291137   9.398   2.499   7.039
29735SOL     OW91138   9.850   2.067   6.796
29735SOL    HW191139   9.888   2.062   6.888
29735SOL    HW291140   9.753   2.042   6.799
29736SOL     OW91141   9.738   2.705   6.824
29736SOL    HW191142   9.817   2.717   6.883
29736SOL    HW291143   9.699   2.614   6.839
29737SOL     OW91144   9.410   3.409   6.943
29737SOL    HW191145   9.395   3.498   6.900
29737SOL    HW291146   9.508   3.389   6.945
29738SOL     OW91147   9.613   3.002   5.976
29738SOL    HW191148   9.593   3.083   5.921
29738SOL    HW291149   9.604   2.920   5.920
29739SOL     OW91150   9.879   2.416   6.524
29739SOL    HW191151   9.882   2.471   6.441
29739SOL    HW291152   9.942   2.453   6.592
29740SOL     OW91153   9.675   3.334   6.913
29740SOL    HW191154   9.677   3.281   6.828
29740SOL    HW291155   9.761   3.320   6.963
29741SOL     OW91156   9.746   2.645   7.165
29741SOL    HW191157   9.814   2.693   7.109
29741SOL    HW291158   9.772   2.548   7.172
29742SOL     OW91159   9.777   2.002   7.284
29742SOL    HW191160   9.728   1.924   7.245
29742SOL    HW291161   9.712   2.067   7.323
29743SOL     OW91162   9.848   2.817   6.599
29743SOL    HW191163   9.873   2.908   6.631
29743SOL    HW291164   9.814   2.763   6.676
29744SOL     OW91165   9.585   2.001   6.827
29744SOL    HW191166   9.552   2.047   6.910
29744SOL    HW291167   9.577   1.902   6.838
29745SOL     OW91168   9.338   3.172   6.829
29745SOL    HW191169   9.338   3.102   6.901
29745SOL    HW291170   9.357   3.261   6.870
29746SOL     OW91171   9.642   2.811   7.367
29746SOL    HW191172   9.683   2.901   7.356
29746SOL    HW291173   9.684   2.747   7.303
29747SOL     OW91174   9.610   2.691   6.490
29747SOL    HW191175   9.698   2.731   6.515
29747SOL    HW291176   9.605   2.596   6.522
29748SOL     OW91177   9.619   2.424   6.594
29748SOL    HW191178   9.575   2.334   6.590
29748SOL    HW291179   9.713   2.416   6.561
29749SOL     OW91180   9.252   3.159   5.785
29749SOL    HW191181   9.180   3.170   5.716
29749SOL    HW291182   9.257   3.063   5.812
29750SOL     OW91183   9.383   3.687   6.567
29750SOL    HW191184   9.345   3.621   6.502
29750SOL    HW291185   9.482   3.688   6.560
29751SOL     OW91186   9.793   3.363   6.507
29751SOL    HW191187   9.871   3.419   6.536
29751SOL    HW291188   9.812   3.325   6.416
29752SOL     OW91189   9.252   2.485   6.736
29752SOL    HW191190   9.312   2.509   6.660
29752SOL    HW291191   9.306   2.473   6.819
29753SOL     OW91192   9.472   2.410   7.348
29753SOL    HW191193   9.540   2.342   7.323
29753SOL    HW291194   9.464   2.478   7.276
29754SOL     OW91195   0.107   2.488   5.896
29754SOL    HW191196   0.129   2.518   5.989
29754SOL    HW291197   0.009   2.501   5.879
29755SOL     OW91198   9.528   3.373   7.335
29755SOL    HW191199   9.500   3.454   7.386
29755SOL    HW291200   9.550   3.299   7.398
29756SOL     OW91201   9.682   2.313   5.813
29756SOL    HW191202   9.764   2.368   5.825
29756SOL    HW291203   9.603   2.373   5.802
29757SOL     OW91204   9.375   2.969   7.035
29757SOL    HW191205   9.378   2.916   7.119
29757SOL    HW291206   9.425   2.920   6.963
29758SOL     OW91207   9.447   3.046   6.617
29758SOL    HW191208   9.406   3.097   6.692
29758SOL    HW291209   9.375   3.001   6.564
29759SOL     OW91210   9.898   3.421   7.175
29759SOL    HW191211   9.820   3.482   7.177
29759SOL    HW291212   9.956   3.443   7.097
29760SOL     OW91213   9.454   3.602   7.462
29760SOL    HW191214   9.395   3.538   7.510
29760SOL    HW291215   9.511   3.652   7.528
29761SOL     OW91216   9.556   2.237   6.338
29761SOL    HW191217   9.466   2.253   6.298
29761SOL    HW291218   9.546   2.206   6.432
29762SOL     OW91219   9.598   3.128   7.097
29762SOL    HW191220   9.612   3.200   7.029
29762SOL    HW291221   9.517   3.074   7.072
29763SOL     OW91222   9.866   3.300   6.008
29763SOL    HW191223   9.886   3.228   5.942
29763SOL    HW291224   9.829   3.380   5.960
29764SOL     OW91225   9.510   3.222   5.849
29764SOL    HW191226   9.413   3.205   5.831
29764SOL    HW291227   9.519   3.301   5.910
29765SOL     OW91228   9.374   2.835   7.273
29765SOL    HW191229   9.294   2.831   7.332
29765SOL    HW291230   9.457   2.838   7.330
29766SOL     OW91231   9.929   2.054   7.067
29766SOL    HW191232  10.000   1.984   7.069
29766SOL    HW291233   9.869   2.043   7.147
29767SOL     OW91234   9.347   2.192   5.632
29767SOL    HW191235   9.290   2.198   5.550
29767SOL    HW291236   9.325   2.269   5.692
29768SOL     OW91237   9.360   1.977   5.806
29768SOL    HW191238   9.346   2.050   5.740
29768SOL    HW291239   9.444   1.927   5.784
29769SOL     OW91240   9.957   2.718   6.985
29769SOL    HW191241   0.018   2.792   6.955
29769SOL    HW291242   0.008   2.633   6.990
29770SOL     OW91243   9.663   3.568   7.199
29770SOL    HW191244   9.586   3.627   7.174
29770SOL    HW291245   9.629   3.483   7.240
29771SOL     OW91246   9.878   2.585   6.311
29771SOL    HW191247   9.923   2.672   6.328
29771SOL    HW291248   9.815   2.594   6.234
29772SOL     OW91249   9.573   3.175   7.519
29772SOL    HW191250   9.479   3.151   7.543
29772SOL    HW291251   9.630   3.173   7.601
29773SOL     OW91252   9.485   3.127   6.189
29773SOL    HW191253   9.518   3.079   6.271
29773SOL    HW291254   9.523   3.083   6.108
29774SOL     OW91255   9.946   3.230   7.366
29774SOL    HW191256   9.881   3.156   7.348
29774SOL    HW291257   9.935   3.301   7.298
29775SOL     OW91258   9.777   2.304   6.193
29775SOL    HW191259   9.772   2.236   6.120
29775SOL    HW291260   9.705   2.286   6.261
29776SOL     OW91261   9.647   2.453   6.864
29776SOL    HW191262   9.691   2.380   6.916
29776SOL    HW291263   9.649   2.430   6.766
29777SOL     OW91264   9.294   2.880   5.859
29777SOL    HW191265   9.391   2.881   5.835
29777SOL    HW291266   9.269   2.791   5.896
29778SOL     OW91267   9.455   2.509   7.597
29778SOL    HW191268   9.360   2.504   7.626
29778SOL    HW291269   9.463   2.481   7.502
29779SOL     OW91270   9.530   2.125   8.460
29779SOL    HW191271   9.589   2.099   8.536
29779SOL    HW291272   9.434   2.115   8.488
29780SOL     OW91273   9.329   2.242   8.094
29780SOL    HW191274   9.250   2.261   8.153
29780SOL    HW291275   9.299   2.186   8.017
29781SOL     OW91276   9.793   3.186   8.733
29781SOL    HW191277   9.741   3.208   8.651
29781SOL    HW291278   9.835   3.269   8.769
29782SOL     OW91279   0.139   2.692   9.369
29782SOL    HW191280   0.223   2.729   9.328
29782SOL    HW291281   0.099   2.759   9.431
29783SOL     OW91282   9.646   3.293   8.521
29783SOL    HW191283   9.563   3.257   8.478
29783SOL    HW291284   9.708   3.326   8.450
29784SOL     OW91285   9.825   2.320   8.911
29784SOL    HW191286   9.893   2.248   8.919
29784SOL    HW291287   9.735   2.284   8.939
29785SOL     OW91288   9.547   3.626   7.901
29785SOL    HW191289   9.585   3.677   7.979
29785SOL    HW291290   9.580   3.667   7.816
29786SOL     OW91291   9.550   3.353   7.929
29786SOL    HW191292   9.564   3.452   7.916
29786SOL    HW291293   9.478   3.339   7.997
29787SOL     OW91294   9.580   3.014   8.290
29787SOL    HW191295   9.650   2.989   8.357
29787SOL    HW291296   9.514   3.076   8.333
29788SOL     OW91297   9.375   2.504   7.998
29788SOL    HW191298   9.376   2.411   8.034
29788SOL    HW291299   9.459   2.551   8.024
29789SOL     OW91300   9.334   3.410   7.603
29789SOL    HW191301   9.338   3.313   7.628
29789SOL    HW291302   9.319   3.465   7.685
29790SOL     OW91303   9.407   2.626   8.973
29790SOL    HW191304   9.493   2.677   8.968
29790SOL    HW291305   9.331   2.688   8.959
29791SOL     OW91306   0.070   1.815   7.995
29791SOL    HW191307   0.115   1.901   7.975
29791SOL    HW291308   9.971   1.826   7.990
29792SOL     OW91309   9.495   2.826   8.744
29792SOL    HW191310   9.576   2.784   8.704
29792SOL    HW291311   9.437   2.864   8.671
29793SOL     OW91312   9.758   2.191   9.242
29793SOL    HW191313   9.763   2.260   9.314
29793SOL    HW291314   9.662   2.170   9.224
29794SOL     OW91315   9.857   2.568   7.594
29794SOL    HW191316   9.921   2.618   7.535
29794SOL    HW291317   9.780   2.628   7.618
29795SOL     OW91318   9.408   2.843   8.151
29795SOL    HW191319   9.469   2.772   8.116
29795SOL    HW291320   9.460   2.910   8.204
29796SOL     OW91321   9.394   3.782   9.103
29796SOL    HW191322   9.407   3.736   9.191
29796SOL    HW291323   9.307   3.754   9.063
29797SOL     OW91324   0.241   2.154   7.659
29797SOL    HW191325   0.286   2.243   7.652
29797SOL    HW291326   0.170   2.146   7.589
29798SOL     OW91327   9.933   2.093   8.415
29798SOL    HW191328   9.928   2.091   8.515
29798SOL    HW291329   9.913   2.186   8.383
29799SOL     OW91330   9.695   3.637   8.342
29799SOL    HW191331   9.732   3.544   8.334
29799SOL    HW291332   9.764   3.697   8.383
29800SOL     OW91333   9.628   2.721   7.628
29800SOL    HW191334   9.633   2.762   7.538
29800SOL    HW291335   9.558   2.649   7.628
29801SOL     OW91336   9.793   3.074   9.205
29801SOL    HW191337   9.769   3.066   9.108
29801SOL    HW291338   9.723   3.128   9.252
29802SOL     OW91339   9.570   2.221   8.957
29802SOL    HW191340   9.493   2.267   8.913
29802SOL    HW291341   9.535   2.166   9.034
29803SOL     OW91342   9.545   3.707   8.652
29803SOL    HW191343   9.583   3.626   8.695
29803SOL    HW291344   9.505   3.682   8.564
29804SOL     OW91345   9.814   1.967   7.556
29804SOL    HW191346   9.902   1.941   7.594
29804SOL    HW291347   9.821   1.969   7.456
29805SOL     OW91348   9.811   1.919   7.945
29805SOL    HW191349   9.783   1.946   8.037
29805SOL    HW291350   9.794   1.993   7.881
29806SOL     OW91351   9.586   1.834   7.617
29806SOL    HW191352   9.663   1.889   7.586
29806SOL    HW291353   9.619   1.764   7.681
29807SOL     OW91354   0.178   2.047   7.898
29807SOL    HW191355   0.208   2.090   7.813
29807SOL    HW291356   0.257   2.031   7.957
29808SOL     OW91357   9.768   3.032   8.082
29808SOL    HW191358   9.693   3.038   8.148
29808SOL    HW291359   9.744   2.969   8.009
29809SOL     OW91360   9.416   2.405   8.816
29809SOL    HW191361   9.508   2.417   8.779
29809SOL    HW291362   9.393   2.484   8.873
29810SOL     OW91363   9.901   2.101   8.679
29810SOL    HW191364   9.947   2.099   8.768
29810SOL    HW291365   9.803   2.094   8.691
29811SOL     OW91366   9.753   2.129   7.766
29811SOL    HW191367   9.774   2.066   7.692
29811SOL    HW291368   9.724   2.217   7.729
29812SOL     OW91369   9.715   2.696   8.619
29812SOL    HW191370   9.781   2.738   8.682
29812SOL    HW291371   9.692   2.604   8.650
29813SOL     OW91372   9.371   3.413   8.796
29813SOL    HW191373   9.317   3.476   8.740
29813SOL    HW291374   9.468   3.434   8.785
29814SOL     OW91375   9.632   2.859   7.868
29814SOL    HW191376   9.609   2.955   7.847
29814SOL    HW291377   9.639   2.808   7.782
29815SOL     OW91378   9.902   2.370   8.385
29815SOL    HW191379   9.931   2.423   8.305
29815SOL    HW291380   9.943   2.407   8.468
29816SOL     OW91381   9.632   3.465   8.732
29816SOL    HW191382   9.635   3.402   8.655
29816SOL    HW291383   9.717   3.459   8.783
29817SOL     OW91384   9.679   2.704   9.007
29817SOL    HW191385   9.739   2.750   8.941
29817SOL    HW291386   9.715   2.613   9.027
29818SOL     OW91387   9.867   1.962   9.133
29818SOL    HW191388   9.802   1.891   9.104
29818SOL    HW291389   9.818   2.045   9.158
29819SOL     OW91390   9.633   2.079   8.719
29819SOL    HW191391   9.609   2.119   8.808
29819SOL    HW291392   9.609   1.982   8.718
29820SOL     OW91393   9.384   3.153   8.706
29820SOL    HW191394   9.405   3.097   8.786
29820SOL    HW291395   9.371   3.248   8.734
29821SOL     OW91396   9.653   2.835   9.248
29821SOL    HW191397   9.714   2.915   9.239
29821SOL    HW291398   9.659   2.780   9.165
29822SOL     OW91399   9.635   2.371   8.458
29822SOL    HW191400   9.598   2.279   8.446
29822SOL    HW291401   9.726   2.376   8.419
29823SOL     OW91402   9.326   3.128   7.637
29823SOL    HW191403   9.237   3.157   7.603
29823SOL    HW291404   9.316   3.042   7.686
29824SOL     OW91405   9.427   3.633   8.412
29824SOL    HW191406   9.372   3.567   8.361
29824SOL    HW291407   9.521   3.631   8.378
29825SOL     OW91408   9.830   3.394   8.344
29825SOL    HW191409   9.909   3.447   8.375
29825SOL    HW291410   9.862   3.315   8.291
29826SOL     OW91411   9.356   2.425   8.544
29826SOL    HW191412   9.440   2.423   8.490
29826SOL    HW291413   9.378   2.422   8.642
29827SOL     OW91414   9.522   2.441   9.139
29827SOL    HW191415   9.558   2.373   9.076
29827SOL    HW291416   9.473   2.511   9.088
29828SOL     OW91417   0.111   2.535   7.708
29828SOL    HW191418   0.113   2.541   7.808
29828SOL    HW291419   0.016   2.533   7.677
29829SOL     OW91420   9.530   3.431   9.173
29829SOL    HW191421   9.508   3.502   9.239
29829SOL    HW291422   9.552   3.346   9.221
29830SOL     OW91423   9.684   2.352   7.620
29830SOL    HW191424   9.759   2.418   7.610
29830SOL    HW291425   9.598   2.401   7.631
29831SOL     OW91426   9.423   3.005   8.940
29831SOL    HW191427   9.424   2.984   9.038
29831SOL    HW291428   9.452   2.925   8.888
29832SOL     OW91429   9.404   3.168   8.433
29832SOL    HW191430   9.388   3.159   8.531
29832SOL    HW291431   9.317   3.167   8.385
29833SOL     OW91432   0.011   3.426   9.073
29833SOL    HW191433   9.966   3.418   9.161
29833SOL    HW291434   0.110   3.413   9.085
29834SOL     OW91435   9.448   3.644   9.331
29834SOL    HW191436   9.395   3.574   9.379
29834SOL    HW291437   9.496   3.701   9.398
29835SOL     OW91438   9.557   2.118   8.179
29835SOL    HW191439   9.479   2.171   8.147
29835SOL    HW291440   9.560   2.120   8.279
29836SOL     OW91441   9.706   3.060   8.954
29836SOL    HW191442   9.744   3.098   8.870
29836SOL    HW291443   9.606   3.054   8.946
29837SOL     OW91444   9.979   3.140   7.826
29837SOL    HW191445   9.943   3.192   7.748
29837SOL    HW291446   9.906   3.129   7.894
29838SOL     OW91447   9.553   3.113   7.809
29838SOL    HW191448   9.470   3.123   7.753
29838SOL    HW291449   9.569   3.197   7.860
29839SOL     OW91450   9.416   2.969   9.212
29839SOL    HW191451   9.333   2.945   9.263
29839SOL    HW291452   9.491   2.908   9.238
29840SOL     OW91453   9.998   2.111   8.935
29840SOL    HW191454   0.097   2.116   8.943
29840SOL    HW291455   9.962   2.047   9.003
29841SOL     OW91456   9.339   2.187   7.453
29841SOL    HW191457   9.254   2.171   7.403
29841SOL    HW291458   9.372   2.280   7.434
29842SOL     OW91459   9.374   2.005   7.665
29842SOL    HW191460   9.355   2.070   7.591
29842SOL    HW291461   9.457   1.953   7.644
29843SOL     OW91462   9.880   2.771   8.821
29843SOL    HW191463   9.948   2.844   8.811
29843SOL    HW291464   9.927   2.684   8.837
29844SOL     OW91465   9.642   3.670   9.063
29844SOL    HW191466   9.551   3.712   9.058
29844SOL    HW291467   9.632   3.572   9.079
29845SOL     OW91468   9.569   3.190   9.304
29845SOL    HW191469   9.499   3.126   9.273
29845SOL    HW291470   9.563   3.201   9.403
29846SOL     OW91471   0.047   3.068   9.092
29846SOL    HW191472   9.959   3.071   9.140
29846SOL    HW291473   0.034   3.095   8.996
29847SOL     OW91474   9.779   2.208   8.032
29847SOL    HW191475   9.757   2.190   7.936
29847SOL    HW291476   9.700   2.184   8.089
29848SOL     OW91477   9.663   2.443   8.715
29848SOL    HW191478   9.737   2.398   8.766
29848SOL    HW291479   9.662   2.409   8.621
29849SOL     OW91480   9.303   2.923   7.815
29849SOL    HW191481   9.381   2.933   7.878
29849SOL    HW291482   9.278   2.827   7.808
29850SOL     OW91483   9.502   2.410   9.405
29850SOL    HW191484   9.407   2.418   9.436
29850SOL    HW291485   9.506   2.428   9.307
29851SOL     OW91486   9.500   3.630   9.782
29851SOL    HW191487   9.511   3.705   9.848
29851SOL    HW291488   9.557   3.648   9.702
29852SOL     OW91489   9.604   3.366   9.792
29852SOL    HW191490   9.550   3.447   9.814
29852SOL    HW291491   9.584   3.294   9.858
29853SOL     OW91492   9.386   2.578   9.836
29853SOL    HW191493   9.301   2.530   9.816
29853SOL    HW291494   9.368   2.653   9.900
29854SOL     OW91495   9.327   3.454   9.471
29854SOL    HW191496   9.304   3.357   9.477
29854SOL    HW291497   9.286   3.503   9.548
29855SOL     OW91498   0.118   1.934   9.833
29855SOL    HW191499   0.147   2.029   9.819
29855SOL    HW291500   0.019   1.931   9.849
29856SOL     OW91501   9.789   2.599   9.631
29856SOL    HW191502   9.734   2.666   9.581
29856SOL    HW291503   9.743   2.577   9.717
29857SOL     OW91504   9.331   2.776   0.022
29857SOL    HW191505   9.422   2.749   0.053
29857SOL    HW291506   9.291   2.841   0.087
29858SOL     OW91507   0.099   2.287   9.558
29858SOL    HW191508   0.150   2.351   9.500
29858SOL    HW291509   0.050   2.221   9.501
29859SOL     OW91510   9.639   3.715   0.177
29859SOL    HW191511   9.646   3.622   0.213
29859SOL    HW291512   9.730   3.754   0.168
29860SOL     OW91513   9.617   2.775   9.513
29860SOL    HW191514   9.633   2.793   9.416
29860SOL    HW291515   9.527   2.734   9.526
29861SOL     OW91516   9.791   3.677   9.626
29861SOL    HW191517   9.815   3.584   9.654
29861SOL    HW291518   9.835   3.699   9.540
29862SOL     OW91519   9.665   2.530   9.866
29862SOL    HW191520   9.687   2.433   9.868
29862SOL    HW291521   9.566   2.542   9.856
29863SOL     OW91522   9.824   1.963   9.429
29863SOL    HW191523   9.904   1.932   9.480
29863SOL    HW291524   9.842   1.955   9.331
29864SOL     OW91525   9.842   1.930   9.793
29864SOL    HW191526   9.755   1.908   9.837
29864SOL    HW291527   9.832   2.012   9.737
29865SOL     OW91528   9.589   1.865   9.522
29865SOL    HW191529   9.662   1.918   9.478
29865SOL    HW291530   9.629   1.792   9.577
29866SOL     OW91531   0.212   2.180   9.781
29866SOL    HW191532   0.168   2.219   9.699
29866SOL    HW291533   0.291   2.237   9.805
29867SOL     OW91534   9.746   3.137   0.144
29867SOL    HW191535   9.684   3.196   0.195
29867SOL    HW291536   9.715   3.129   0.049
29868SOL     OW91537   9.786   2.150   9.633
29868SOL    HW191538   9.794   2.078   9.564
29868SOL    HW291539   9.776   2.238   9.588
29869SOL     OW91540   9.579   2.976   9.701
29869SOL    HW191541   9.583   3.062   9.649
29869SOL    HW291542   9.610   2.901   9.643
29870SOL     OW91543   9.571   1.911   9.863
29870SOL    HW191544   9.499   1.968   9.824
29870SOL    HW291545   9.564   1.912   9.963
29871SOL     OW91546   9.279   3.185   9.511
29871SOL    HW191547   9.197   3.205   9.459
29871SOL    HW291548   9.274   3.091   9.546
29872SOL     OW91549   0.027   2.501   9.713
29872SOL    HW191550   0.051   2.418   9.663
29872SOL    HW291551   9.944   2.540   9.675
29873SOL     OW91552   9.754   2.368   9.472
29873SOL    HW191553   9.790   2.450   9.516
29873SOL    HW291554   9.657   2.381   9.451
29874SOL     OW91555   9.854   3.426   9.707
29874SOL    HW191556   9.922   3.409   9.778
29874SOL    HW291557   9.764   3.397   9.738
29875SOL     OW91558   9.542   3.212   9.573
29875SOL    HW191559   9.443   3.214   9.558
29875SOL    HW291560   9.566   3.279   9.643
29876SOL     OW91561   9.358   1.965   9.639
29876SOL    HW191562   9.310   2.013   9.566
29876SOL    HW291563   9.446   1.932   9.606
29877SOL     OW91564   9.829   2.633   0.067
29877SOL    HW191565   9.868   2.724   0.054
29877SOL    HW291566   9.777   2.607   9.986
29878SOL     OW91567   9.559   3.131   9.932
29878SOL    HW191568   9.477   3.115   9.987
29878SOL    HW291569   9.564   3.063   9.859
29879SOL     OW91570   9.315   2.939   9.646
29879SOL    HW191571   9.408   2.955   9.678
29879SOL    HW291572   9.310   2.851   9.599
29880SOL     OW91573   9.357   4.232   0.155
29880SOL    HW191574   9.281   4.238   0.220
29880SOL    HW291575   9.366   4.319   0.106
29881SOL     OW91576   9.522   3.999   1.003
29881SOL    HW191577   9.556   3.967   1.092
29881SOL    HW291578   9.427   3.971   0.992
29882SOL     OW91579   9.306   4.128   0.650
29882SOL    HW191580   9.224   4.143   0.705
29882SOL    HW291581   9.287   4.059   0.580
29883SOL     OW91582   9.847   4.956   1.131
29883SOL    HW191583   9.782   5.030   1.110
29883SOL    HW291584   9.912   4.987   1.200
29884SOL     OW91585   0.132   4.602   1.968
29884SOL    HW191586   0.227   4.597   1.937
29884SOL    HW291587   0.115   4.527   2.032
29885SOL     OW91588   9.688   5.175   1.064
29885SOL    HW191589   9.616   5.132   1.009
29885SOL    HW291590   9.750   5.225   1.004
29886SOL     OW91591   9.732   4.112   1.485
29886SOL    HW191592   9.810   4.051   1.496
29886SOL    HW291593   9.647   4.062   1.503
29887SOL     OW91594   9.556   5.402   0.465
29887SOL    HW191595   9.560   5.479   0.527
29887SOL    HW291596   9.647   5.387   0.424
29888SOL     OW91597   9.535   5.127   0.453
29888SOL    HW191598   9.537   5.227   0.465
29888SOL    HW291599   9.499   5.085   0.536
29889SOL     OW91600   9.605   4.789   0.862
29889SOL    HW191601   9.617   4.692   0.881
29889SOL    HW291602   9.551   4.831   0.936
29890SOL     OW91603   9.415   4.382   0.595
29890SOL    HW191604   9.378   4.292   0.615
29890SOL    HW291605   9.395   4.444   0.671
29891SOL     OW91606   9.223   5.328   0.068
29891SOL    HW191607   9.273   5.249   0.032
29891SOL    HW291608   9.273   5.367   0.146
29892SOL     OW91609   9.472   4.467   1.579
29892SOL    HW191610   9.563   4.508   1.569
29892SOL    HW291611   9.403   4.531   1.546
29893SOL     OW91612   9.908   5.107   0.714
29893SOL    HW191613   9.869   5.016   0.721
29893SOL    HW291614   9.916   5.133   0.617
29894SOL     OW91615   0.114   3.742   0.480
29894SOL    HW191616   0.149   3.835   0.481
29894SOL    HW291617   0.016   3.743   0.500
29895SOL     OW91618   9.547   4.726   1.270
29895SOL    HW191619   9.626   4.668   1.252
29895SOL    HW291620   9.518   4.769   1.184
29896SOL     OW91621   9.631   4.030   1.859
29896SOL    HW191622   9.667   4.092   1.929
29896SOL    HW291623   9.533   4.017   1.872
29897SOL     OW91624   9.800   4.345   0.284
29897SOL    HW191625   9.792   4.421   0.220
29897SOL    HW291626   9.768   4.374   0.374
29898SOL     OW91627   9.366   4.562   0.805
29898SOL    HW191628   9.457   4.543   0.842
29898SOL    HW291629   9.318   4.625   0.866
29899SOL     OW91630   9.418   5.622   1.615
29899SOL    HW191631   9.415   5.576   1.704
29899SOL    HW291632   9.326   5.630   1.578
29900SOL     OW91633   0.158   4.019   0.113
29900SOL    HW191634   0.255   4.040   0.112
29900SOL    HW291635   0.143   3.926   0.147
29901SOL     OW91636   9.924   3.981   0.995
29901SOL    HW191637   9.898   3.962   1.089
29901SOL    HW291638   9.895   4.074   0.970
29902SOL     OW91639   9.671   5.515   0.879
29902SOL    HW191640   9.733   5.437   0.881
29902SOL    HW291641   9.722   5.599   0.901
29903SOL     OW91642   9.625   4.742   0.210
29903SOL    HW191643   9.655   4.816   0.149
29903SOL    HW291644   9.663   4.655   0.179
29904SOL     OW91645   9.776   4.935   1.689
29904SOL    HW191646   9.748   4.965   1.598
29904SOL    HW291647   9.714   4.974   1.757
29905SOL     OW91648   9.496   3.970   1.508
29905SOL    HW191649   9.417   4.029   1.493
29905SOL    HW291650   9.469   3.888   1.558
29906SOL     OW91651   9.801   5.385   0.349
29906SOL    HW191652   9.849   5.466   0.380
29906SOL    HW291653   9.842   5.353   0.263
29907SOL     OW91654   9.509   5.543   1.222
29907SOL    HW191655   9.560   5.464   1.256
29907SOL    HW291656   9.478   5.526   1.128
29908SOL     OW91657   9.690   4.375   0.533
29908SOL    HW191658   9.716   4.279   0.548
29908SOL    HW291659   9.592   4.385   0.552
29909SOL     OW91660   9.885   3.818   0.129
29909SOL    HW191661   9.977   3.788   0.154
29909SOL    HW291662   9.874   3.812   0.030
29910SOL     OW91663   0.164   5.136   0.813
29910SOL    HW191664   0.224   5.124   0.734
29910SOL    HW291665   0.070   5.116   0.787
29911SOL     OW91666   9.838   3.765   0.483
29911SOL    HW191667   9.767   3.758   0.554
29911SOL    HW291668   9.820   3.845   0.426
29912SOL     OW91669   0.200   3.993   0.423
29912SOL    HW191670   0.148   4.076   0.404
29912SOL    HW291671   0.290   4.000   0.381
29913SOL     OW91672   9.800   4.859   0.683
29913SOL    HW191673   9.738   4.829   0.756
29913SOL    HW291674   9.751   4.857   0.596
29914SOL     OW91675   9.435   4.294   1.372
29914SOL    HW191676   9.530   4.292   1.341
29914SOL    HW291677   9.428   4.354   1.452
29915SOL     OW91678   9.849   3.930   1.249
29915SOL    HW191679   9.883   3.913   1.342
29915SOL    HW291680   9.750   3.922   1.248
29916SOL     OW91681   9.779   3.978   0.320
29916SOL    HW191682   9.828   3.926   0.250
29916SOL    HW291683   9.714   4.040   0.277
29917SOL     OW91684   9.769   4.563   1.230
29917SOL    HW191685   9.837   4.596   1.295
29917SOL    HW291686   9.745   4.469   1.252
29918SOL     OW91687   9.361   5.285   1.345
29918SOL    HW191688   9.312   5.350   1.287
29918SOL    HW291689   9.460   5.300   1.334
29919SOL     OW91690   9.654   4.874   0.451
29919SOL    HW191691   9.635   4.969   0.426
29919SOL    HW291692   9.650   4.817   0.369
29920SOL     OW91693   9.877   4.251   0.927
29920SOL    HW191694   9.859   4.328   0.866
29920SOL    HW291695   9.939   4.279   0.999
29921SOL     OW91696   9.633   5.302   1.299
29921SOL    HW191697   9.654   5.252   1.215
29921SOL    HW291698   9.718   5.321   1.348
29922SOL     OW91699   9.756   4.516   1.565
29922SOL    HW191700   9.825   4.568   1.515
29922SOL    HW291701   9.766   4.419   1.544
29923SOL     OW91702   9.766   3.832   1.731
29923SOL    HW191703   9.709   3.754   1.706
29923SOL    HW291704   9.709   3.904   1.771
29924SOL     OW91705   9.912   4.712   1.030
29924SOL    HW191706   9.874   4.802   1.052
29924SOL    HW291707   9.864   4.642   1.083
29925SOL     OW91708   9.580   3.903   1.253
29925SOL    HW191709   9.548   3.931   1.344
29925SOL    HW291710   9.566   3.805   1.241
29926SOL     OW91711   9.368   5.028   1.257
29926SOL    HW191712   9.373   4.967   1.337
29926SOL    HW291713   9.354   5.122   1.288
29927SOL     OW91714   9.620   3.758   0.651
29927SOL    HW191715   9.588   3.852   0.662
29927SOL    HW291716   9.632   3.716   0.741
29928SOL     OW91717   9.712   4.681   1.785
29928SOL    HW191718   9.754   4.767   1.757
29928SOL    HW291719   9.732   4.610   1.717
29929SOL     OW91720   9.610   4.517   0.913
29929SOL    HW191721   9.690   4.499   0.856
29929SOL    HW291722   9.606   4.449   0.986
29930SOL     OW91723   9.625   4.246   1.030
29930SOL    HW191724   9.584   4.156   1.017
29930SOL    HW291725   9.715   4.248   0.988
29931SOL     OW91726   9.299   4.954   0.116
29931SOL    HW191727   9.208   4.995   0.126
29931SOL    HW291728   9.307   4.874   0.175
29932SOL     OW91729   9.411   5.499   0.971
29932SOL    HW191730   9.349   5.446   0.913
29932SOL    HW291731   9.502   5.501   0.929
29933SOL     OW91732   9.859   5.309   0.894
29933SOL    HW191733   9.946   5.353   0.913
29933SOL    HW291734   9.872   5.238   0.824
29934SOL     OW91735   9.352   4.307   1.113
29934SOL    HW191736   9.436   4.294   1.059
29934SOL    HW291737   9.376   4.311   1.210
29935SOL     OW91738   9.490   4.277   1.772
29935SOL    HW191739   9.561   4.213   1.743
29935SOL    HW291740   9.477   4.346   1.702
29936SOL     OW91741   0.044   4.202   0.308
29936SOL    HW191742   0.049   4.134   0.234
29936SOL    HW291743   9.954   4.246   0.307
29937SOL     OW91744   9.538   5.264   1.727
29937SOL    HW191745   9.497   5.328   1.791
29937SOL    HW291746   9.562   5.179   1.775
29938SOL     OW91747   9.623   4.160   0.191
29938SOL    HW191748   9.683   4.232   0.225
29938SOL    HW291749   9.528   4.190   0.199
29939SOL     OW91750   9.416   4.853   1.465
29939SOL    HW191751   9.445   4.834   1.559
29939SOL    HW291752   9.473   4.801   1.402
29940SOL     OW91753   9.433   4.872   1.050
29940SOL    HW191754   9.408   4.938   1.121
29940SOL    HW291755   9.351   4.837   1.006
29941SOL     OW91756   9.882   5.339   1.730
29941SOL    HW191757   9.812   5.396   1.687
29941SOL    HW291758   9.954   5.396   1.768
29942SOL     OW91759   9.418   5.484   1.849
29942SOL    HW191760   9.358   5.414   1.888
29942SOL    HW291761   9.480   5.519   1.920
29943SOL     OW91762   9.551   4.017   0.722
29943SOL    HW191763   9.466   4.061   0.694
29943SOL    HW291764   9.555   4.012   0.822
29944SOL     OW91765   9.650   5.031   1.464
29944SOL    HW191766   9.639   5.119   1.419
29944SOL    HW291767   9.567   4.976   1.453
29945SOL     OW91768   9.927   5.149   0.444
29945SOL    HW191769   9.919   5.087   0.366
29945SOL    HW291770   9.881   5.235   0.423
29946SOL     OW91771   9.528   5.085   0.181
29946SOL    HW191772   9.440   5.044   0.159
29946SOL    HW291773   9.530   5.110   0.277
29947SOL     OW91774   9.473   4.798   1.723
29947SOL    HW191775   9.395   4.767   1.777
29947SOL    HW291776   9.555   4.747   1.749
29948SOL     OW91777   9.917   3.890   1.517
29948SOL    HW191778   9.986   3.817   1.517
29948SOL    HW291779   9.854   3.876   1.593
29949SOL     OW91780   9.320   3.978   0.049
29949SOL    HW191781   9.224   3.959   0.067
29949SOL    HW291782   9.340   4.073   0.074
29950SOL     OW91783   9.407   3.834   0.268
29950SOL    HW191784   9.376   3.886   0.188
29950SOL    HW291785   9.499   3.798   0.249
29951SOL     OW91786   9.949   4.655   1.417
29951SOL    HW191787   9.947   4.751   1.445
29951SOL    HW291788   0.038   4.633   1.379
29952SOL     OW91789   9.661   5.492   1.635
29952SOL    HW191790   9.581   5.546   1.607
29952SOL    HW291791   9.631   5.400   1.663
29953SOL     OW91792   9.823   4.458   0.762
29953SOL    HW191793   9.906   4.514   0.762
29953SOL    HW291794   9.792   4.445   0.668
29954SOL     OW91795   9.577   5.023   1.852
29954SOL    HW191796   9.521   4.952   1.809
29954SOL    HW291797   9.560   5.023   1.951
29955SOL     OW91798   9.476   4.923   0.653
29955SOL    HW191799   9.509   4.880   0.737
29955SOL    HW291800   9.529   4.889   0.575
29956SOL     OW91801   9.975   5.091   1.796
29956SOL    HW191802   9.918   5.022   1.751
29956SOL    HW291803   9.941   5.182   1.772
29957SOL     OW91804   9.762   4.114   0.563
29957SOL    HW191805   9.772   4.061   0.479
29957SOL    HW291806   9.692   4.071   0.621
29958SOL     OW91807   9.696   4.304   1.294
29958SOL    HW191808   9.725   4.231   1.356
29958SOL    HW291809   9.687   4.268   1.202
29959SOL     OW91810   9.359   4.745   0.286
29959SOL    HW191811   9.455   4.754   0.260
29959SOL    HW291812   9.342   4.652   0.319
29960SOL     OW91813   9.483   4.388   2.019
29960SOL    HW191814   9.393   4.372   2.059
29960SOL    HW291815   9.483   4.359   1.923
29961SOL     OW91816   9.471   4.061   2.919
29961SOL    HW191817   9.511   4.019   3.000
29961SOL    HW291818   9.400   4.002   2.882
29962SOL     OW91819   9.311   4.131   2.513
29962SOL    HW191820   9.227   4.155   2.562
29962SOL    HW291821   9.289   4.068   2.439
29963SOL     OW91822   9.855   4.939   2.974
29963SOL    HW191823   9.776   4.996   2.953
29963SOL    HW291824   9.906   4.979   3.050
29964SOL     OW91825   0.104   4.653   3.802
29964SOL    HW191826   0.081   4.587   3.873
29964SOL    HW291827   0.204   4.655   3.790
29965SOL     OW91828   9.644   5.104   2.905
29965SOL    HW191829   9.569   5.039   2.895
29965SOL    HW291830   9.666   5.143   2.815
29966SOL     OW91831   9.692   4.095   3.400
29966SOL    HW191832   9.775   4.040   3.399
29966SOL    HW291833   9.612   4.034   3.407
29967SOL     OW91834   9.554   5.410   2.345
29967SOL    HW191835   9.563   5.486   2.410
29967SOL    HW291836   9.641   5.399   2.295
29968SOL     OW91837   9.489   5.141   2.345
29968SOL    HW191838   9.510   5.237   2.363
29968SOL    HW291839   9.480   5.093   2.433
29969SOL     OW91840   9.591   4.769   2.712
29969SOL    HW191841   9.610   4.677   2.749
29969SOL    HW291842   9.548   4.824   2.784
29970SOL     OW91843   9.439   4.373   2.469
29970SOL    HW191844   9.397   4.283   2.479
29970SOL    HW291845   9.421   4.429   2.550
29971SOL     OW91846   9.311   5.271   1.973
29971SOL    HW191847   9.284   5.176   1.985
29971SOL    HW291848   9.317   5.315   2.063
29972SOL     OW91849   9.413   4.444   3.469
29972SOL    HW191850   9.503   4.487   3.467
29972SOL    HW291851   9.344   4.509   3.440
29973SOL     OW91852   9.867   5.118   2.544
29973SOL    HW191853   9.821   5.029   2.552
29973SOL    HW291854   9.868   5.147   2.449
29974SOL     OW91855   0.149   3.750   2.408
29974SOL    HW191856   0.200   3.821   2.360
29974SOL    HW291857   0.051   3.769   2.399
29975SOL     OW91858   9.505   4.669   3.196
29975SOL    HW191859   9.598   4.638   3.177
29975SOL    HW291860   9.447   4.652   3.116
29976SOL     OW91861   9.575   3.853   3.769
29976SOL    HW191862   9.642   3.898   3.827
29976SOL    HW291863   9.491   3.907   3.765
29977SOL     OW91864   9.826   4.435   2.171
29977SOL    HW191865   9.775   4.508   2.126
29977SOL    HW291866   9.790   4.422   2.263
29978SOL     OW91867   9.388   4.526   2.686
29978SOL    HW191868   9.475   4.511   2.732
29978SOL    HW291869   9.339   4.602   2.730
29979SOL     OW91870   9.387   5.617   3.498
29979SOL    HW191871   9.389   5.566   3.585
29979SOL    HW291872   9.291   5.632   3.471
29980SOL     OW91873   0.138   4.098   2.141
29980SOL    HW191874   0.119   4.193   2.164
29980SOL    HW291875   0.149   4.089   2.042
29981SOL     OW91876   9.794   3.928   2.848
29981SOL    HW191877   9.815   3.925   2.946
29981SOL    HW291878   9.831   4.012   2.808
29982SOL     OW91879   9.715   5.542   2.750
29982SOL    HW191880   9.777   5.467   2.728
29982SOL    HW291881   9.767   5.620   2.784
29983SOL     OW91882   9.645   4.611   2.055
29983SOL    HW191883   9.672   4.643   1.964
29983SOL    HW291884   9.579   4.537   2.046
29984SOL     OW91885   9.753   4.915   3.573
29984SOL    HW191886   9.731   4.940   3.478
29984SOL    HW291887   9.692   4.966   3.635
29985SOL     OW91888   9.463   3.947   3.409
29985SOL    HW191889   9.381   4.002   3.394
29985SOL    HW291890   9.437   3.857   3.446
29986SOL     OW91891   9.796   5.422   2.190
29986SOL    HW191892   9.813   5.506   2.242
29986SOL    HW291893   9.871   5.406   2.127
29987SOL     OW91894   9.487   5.507   3.059
29987SOL    HW191895   9.543   5.427   3.085
29987SOL    HW291896   9.476   5.509   2.960
29988SOL     OW91897   9.712   4.379   2.413
29988SOL    HW191898   9.735   4.282   2.419
29988SOL    HW291899   9.613   4.390   2.425
29989SOL     OW91900   9.832   3.802   1.999
29989SOL    HW191901   9.927   3.800   2.030
29989SOL    HW291902   9.829   3.802   1.899
29990SOL     OW91903   9.873   3.799   2.373
29990SOL    HW191904   9.796   3.790   2.436
29990SOL    HW291905   9.853   3.872   2.307
29991SOL     OW91906   9.583   3.721   2.063
29991SOL    HW191907   9.675   3.748   2.035
29991SOL    HW291908   9.589   3.655   2.138
29992SOL     OW91909   0.324   3.928   2.260
29992SOL    HW191910   0.252   3.994   2.240
29992SOL    HW291911   0.407   3.952   2.209
29993SOL     OW91912   9.744   4.878   2.516
29993SOL    HW191913   9.695   4.832   2.590
29993SOL    HW291914   9.707   4.849   2.428
29994SOL     OW91915   9.410   4.286   3.250
29994SOL    HW191916   9.507   4.287   3.225
29994SOL    HW291917   9.395   4.345   3.330
29995SOL     OW91918   9.822   3.939   3.121
29995SOL    HW191919   9.862   3.924   3.211
29995SOL    HW291920   9.722   3.939   3.129
29996SOL     OW91921   9.776   3.989   2.191
29996SOL    HW191922   9.791   3.919   2.122
29996SOL    HW291923   9.741   4.072   2.148
29997SOL     OW91924   9.750   4.556   3.135
29997SOL    HW191925   9.815   4.587   3.205
29997SOL    HW291926   9.725   4.460   3.153
29998SOL     OW91927   9.354   5.267   3.202
29998SOL    HW191928   9.306   5.342   3.156
29998SOL    HW291929   9.452   5.273   3.183
29999SOL     OW91930   9.582   4.803   2.269
29999SOL    HW191931   9.572   4.885   2.212
29999SOL    HW291932   9.614   4.727   2.212
30000SOL     OW91933   9.886   4.198   2.790
30000SOL    HW191934   9.865   4.283   2.741
30000SOL    HW291935   9.958   4.216   2.857
30001SOL     OW91936   9.620   5.268   3.124
30001SOL    HW191937   9.627   5.206   3.046
30001SOL    HW291938   9.711   5.289   3.159
30002SOL     OW91939   9.690   4.499   3.447
30002SOL    HW191940   9.770   4.552   3.419
30002SOL    HW291941   9.686   4.414   3.395
30003SOL     OW91942   9.740   3.758   3.570
30003SOL    HW191943   9.703   3.681   3.517
30003SOL    HW291944   9.672   3.790   3.635
30004SOL     OW91945   9.911   4.675   2.936
30004SOL    HW191946   9.886   4.772   2.939
30004SOL    HW291947   9.843   4.621   2.986
30005SOL     OW91948   9.551   3.931   3.147
30005SOL    HW191949   9.524   3.948   3.242
30005SOL    HW291950   9.522   3.840   3.120
30006SOL     OW91951   9.371   5.002   3.131
30006SOL    HW191952   9.361   4.944   3.212
30006SOL    HW291953   9.352   5.097   3.156
30007SOL     OW91954   9.635   3.777   2.517
30007SOL    HW191955   9.599   3.870   2.529
30007SOL    HW291956   9.646   3.734   2.607
30008SOL     OW91957   9.640   4.675   3.658
30008SOL    HW191958   9.694   4.757   3.635
30008SOL    HW291959   9.661   4.602   3.593
30009SOL     OW91960   9.628   4.501   2.809
30009SOL    HW191961   9.705   4.483   2.749
30009SOL    HW291962   9.625   4.432   2.882
30010SOL     OW91963   9.663   4.252   2.947
30010SOL    HW191964   9.589   4.188   2.928
30010SOL    HW291965   9.745   4.225   2.896
30011SOL     OW91966   9.238   5.006   2.028
30011SOL    HW191967   9.148   5.035   1.995
30011SOL    HW291968   9.236   4.909   2.052
30012SOL     OW91969   9.433   5.508   2.795
30012SOL    HW191970   9.388   5.431   2.751
30012SOL    HW291971   9.528   5.514   2.763
30013SOL     OW91972   9.266   4.227   3.030
30013SOL    HW191973   9.326   4.175   2.968
30013SOL    HW291974   9.319   4.259   3.109
30014SOL     OW91975   9.464   4.212   3.614
30014SOL    HW191976   9.532   4.165   3.558
30014SOL    HW291977   9.431   4.293   3.565
30015SOL     OW91978   0.092   4.385   2.157
30015SOL    HW191979   0.124   4.404   2.249
30015SOL    HW291980   9.993   4.400   2.152
30016SOL     OW91981   9.534   5.269   3.576
30016SOL    HW191982   9.500   5.340   3.637
30016SOL    HW291983   9.552   5.186   3.629
30017SOL     OW91984   9.694   4.216   2.062
30017SOL    HW191985   9.765   4.280   2.092
30017SOL    HW291986   9.607   4.264   2.053
30018SOL     OW91987   9.383   4.844   3.358
30018SOL    HW191988   9.402   4.836   3.456
30018SOL    HW291989   9.437   4.776   3.308
30019SOL     OW91990   9.443   4.917   2.887
30019SOL    HW191991   9.414   4.947   2.978
30019SOL    HW291992   9.369   4.864   2.845
30020SOL     OW91993   0.017   5.235   3.517
30020SOL    HW191994   0.041   5.311   3.578
30020SOL    HW291995   0.044   5.257   3.424
30021SOL     OW91996   9.427   5.472   3.725
30021SOL    HW191997   9.378   5.400   3.773
30021SOL    HW291998   9.492   5.516   3.787
30022SOL     OW91999   9.556   4.032   2.592
30022SOL    HW192000   9.468   4.069   2.564
30022SOL    HW292001   9.564   4.036   2.692
30023SOL     OW92002   9.641   4.999   3.335
30023SOL    HW192003   9.633   5.090   3.295
30023SOL    HW292004   9.554   4.950   3.323
30024SOL     OW92005   9.870   5.174   2.286
30024SOL    HW192006   9.906   5.119   2.211
30024SOL    HW292007   9.835   5.261   2.250
30025SOL     OW92008   9.494   5.011   2.113
30025SOL    HW192009   9.401   5.015   2.078
30025SOL    HW292010   9.501   5.068   2.195
30026SOL     OW92011   9.404   4.813   3.625
30026SOL    HW192012   9.322   4.788   3.676
30026SOL    HW292013   9.480   4.753   3.651
30027SOL     OW92014   9.890   3.897   3.393
30027SOL    HW192015   9.981   3.855   3.398
30027SOL    HW292016   9.828   3.848   3.454
30028SOL     OW92017   9.358   4.062   1.892
30028SOL    HW192018   9.276   4.042   1.838
30028SOL    HW292019   9.395   4.151   1.864
30029SOL     OW92020   9.371   3.884   2.111
30029SOL    HW192021   9.356   3.947   2.036
30029SOL    HW292022   9.457   3.834   2.096
30030SOL     OW92023   9.916   4.619   3.342
30030SOL    HW192024   9.943   4.716   3.346
30030SOL    HW292025   9.997   4.562   3.348
30031SOL     OW92026   9.643   5.520   3.486
30031SOL    HW192027   9.549   5.555   3.477
30031SOL    HW292028   9.640   5.422   3.506
30032SOL     OW92029   9.837   4.429   2.655
30032SOL    HW192030   9.920   4.484   2.662
30032SOL    HW292031   9.806   4.427   2.560
30033SOL     OW92032   9.556   5.033   3.718
30033SOL    HW192033   9.484   4.971   3.685
30033SOL    HW292034   9.554   5.036   3.817
30034SOL     OW92035   9.428   4.886   2.502
30034SOL    HW192036   9.473   4.843   2.580
30034SOL    HW292037   9.472   4.855   2.417
30035SOL     OW92038   9.998   5.012   3.667
30035SOL    HW192039   9.918   4.958   3.641
30035SOL    HW292040   0.003   5.094   3.610
30036SOL     OW92041   9.770   4.116   2.433
30036SOL    HW192042   9.769   4.064   2.348
30036SOL    HW292043   9.697   4.081   2.493
30037SOL     OW92044   9.682   4.298   3.216
30037SOL    HW192045   9.700   4.220   3.275
30037SOL    HW292046   9.688   4.270   3.120
30038SOL     OW92047   9.296   4.750   2.156
30038SOL    HW192048   9.386   4.791   2.168
30038SOL    HW292049   9.294   4.660   2.200
30039SOL     OW92050   9.496   4.328   3.859
30039SOL    HW192051   9.405   4.313   3.898
30039SOL    HW292052   9.498   4.292   3.765
30040SOL     OW92053   9.477   4.077   4.781
30040SOL    HW192054   9.523   4.019   4.848
30040SOL    HW292055   9.399   4.027   4.742
30041SOL     OW92056   9.853   4.961   4.887
30041SOL    HW192057   9.788   5.029   4.852
30041SOL    HW292058   9.915   5.005   4.952
30042SOL     OW92059   0.083   4.550   5.548
30042SOL    HW192060   0.110   4.551   5.644
30042SOL    HW292061   0.149   4.603   5.494
30043SOL     OW92062   9.680   5.168   4.802
30043SOL    HW192063   9.609   5.121   4.751
30043SOL    HW292064   9.733   5.225   4.739
30044SOL     OW92065   9.746   4.088   5.126
30044SOL    HW192066   9.828   4.039   5.157
30044SOL    HW292067   9.666   4.051   5.174
30045SOL     OW92068   9.544   5.443   4.224
30045SOL    HW192069   9.555   5.520   4.287
30045SOL    HW292070   9.630   5.427   4.175
30046SOL     OW92071   9.499   5.174   4.200
30046SOL    HW192072   9.510   5.270   4.226
30046SOL    HW292073   9.491   5.118   4.283
30047SOL     OW92074   9.603   4.840   4.593
30047SOL    HW192075   9.609   4.744   4.623
30047SOL    HW292076   9.558   4.894   4.664
30048SOL     OW92077   9.430   4.419   4.349
30048SOL    HW192078   9.401   4.334   4.392
30048SOL    HW292079   9.413   4.496   4.411
30049SOL     OW92080   9.333   5.269   3.868
30049SOL    HW192081   9.309   5.173   3.877
30049SOL    HW292082   9.324   5.314   3.957
30050SOL     OW92083   9.433   4.535   5.294
30050SOL    HW192084   9.499   4.607   5.314
30050SOL    HW292085   9.344   4.576   5.271
30051SOL     OW92086   9.877   5.139   4.445
30051SOL    HW192087   9.842   5.046   4.441
30051SOL    HW292088   9.892   5.173   4.352
30052SOL     OW92089   0.100   3.750   4.224
30052SOL    HW192090   0.174   3.818   4.222
30052SOL    HW292091   0.025   3.783   4.280
30053SOL     OW92092   9.683   4.045   5.562
30053SOL    HW192093   9.713   4.098   5.641
30053SOL    HW292094   9.583   4.050   5.554
30054SOL     OW92095   9.801   4.499   4.042
30054SOL    HW192096   9.729   4.547   3.991
30054SOL    HW292097   9.771   4.486   4.137
30055SOL     OW92098   9.386   4.613   4.537
30055SOL    HW192099   9.468   4.591   4.589
30055SOL    HW292100   9.343   4.694   4.576
30056SOL     OW92101   9.395   5.618   5.314
30056SOL    HW192102   9.409   5.571   5.401
30056SOL    HW292103   9.298   5.618   5.291
30057SOL     OW92104   0.249   4.051   3.947
30057SOL    HW192105   0.327   4.110   3.925
30057SOL    HW292106   0.186   4.048   3.869
30058SOL     OW92107   9.766   3.969   4.579
30058SOL    HW192108   9.778   3.942   4.674
30058SOL    HW292109   9.806   4.060   4.564
30059SOL     OW92110   9.710   5.572   4.624
30059SOL    HW192111   9.759   5.485   4.632
30059SOL    HW292112   9.771   5.647   4.653
30060SOL     OW92113   9.570   4.593   3.912
30060SOL    HW192114   9.599   4.632   3.825
30060SOL    HW292115   9.537   4.499   3.897
30061SOL     OW92116   9.753   4.915   5.410
30061SOL    HW192117   9.728   4.871   5.324
30061SOL    HW292118   9.677   4.971   5.442
30062SOL     OW92119   9.511   3.961   5.222
30062SOL    HW192120   9.440   4.032   5.221
30062SOL    HW292121   9.487   3.891   5.289
30063SOL     OW92122   9.785   5.422   4.070
30063SOL    HW192123   9.804   5.510   4.114
30063SOL    HW292124   9.857   5.401   4.004
30064SOL     OW92125   9.418   5.513   4.933
30064SOL    HW192126   9.466   5.432   4.967
30064SOL    HW292127   9.425   5.518   4.833
30065SOL     OW92128   9.700   4.431   4.288
30065SOL    HW192129   9.724   4.334   4.277
30065SOL    HW292130   9.603   4.439   4.310
30066SOL     OW92131   9.926   3.855   3.752
30066SOL    HW192132   9.968   3.790   3.816
30066SOL    HW292133   9.873   3.805   3.684
30067SOL     OW92134   0.125   5.145   4.566
30067SOL    HW192135   0.177   5.097   4.495
30067SOL    HW292136   0.028   5.143   4.545
30068SOL     OW92137   9.879   3.873   4.342
30068SOL    HW192138   9.841   3.888   4.434
30068SOL    HW292139   9.804   3.870   4.275
30069SOL     OW92140   0.307   3.931   4.185
30069SOL    HW192141   0.260   3.987   4.117
30069SOL    HW292142   0.399   3.909   4.152
30070SOL     OW92143   9.783   4.890   4.393
30070SOL    HW192144   9.726   4.863   4.471
30070SOL    HW292145   9.735   4.869   4.308
30071SOL     OW92146   9.424   4.345   5.098
30071SOL    HW192147   9.517   4.336   5.062
30071SOL    HW292148   9.423   4.415   5.169
30072SOL     OW92149   9.798   3.941   4.846
30072SOL    HW192150   9.857   3.997   4.904
30072SOL    HW292151   9.714   3.918   4.894
30073SOL     OW92152   9.762   3.972   3.931
30073SOL    HW192153   9.835   3.945   3.868
30073SOL    HW292154   9.759   4.072   3.938
30074SOL     OW92155   9.738   4.569   5.068
30074SOL    HW192156   9.824   4.558   5.118
30074SOL    HW292157   9.703   4.480   5.040
30075SOL     OW92158   9.614   4.834   4.173
30075SOL    HW192159   9.591   4.899   4.101
30075SOL    HW292160   9.594   4.741   4.143
30076SOL     OW92161   9.899   4.215   4.585
30076SOL    HW192162   9.913   4.297   4.530
30076SOL    HW292163   9.952   4.222   4.670
30077SOL     OW92164   9.557   5.293   5.012
30077SOL    HW192165   9.608   5.251   4.938
30077SOL    HW292166   9.620   5.320   5.085
30078SOL     OW92167   9.825   4.516   5.431
30078SOL    HW192168   9.862   4.522   5.338
30078SOL    HW292169   9.901   4.521   5.496
30079SOL     OW92170   9.816   3.852   5.431
30079SOL    HW192171   9.753   3.779   5.402
30079SOL    HW292172   9.763   3.926   5.473
30080SOL     OW92173   9.825   4.692   4.834
30080SOL    HW192174   9.831   4.791   4.846
30080SOL    HW292175   9.794   4.650   4.919
30081SOL     OW92176   9.558   3.884   4.965
30081SOL    HW192177   9.555   3.905   5.063
30081SOL    HW292178   9.536   3.787   4.951
30082SOL     OW92179   9.624   4.688   5.508
30082SOL    HW192180   9.674   4.773   5.490
30082SOL    HW292181   9.681   4.610   5.486
30083SOL     OW92182   9.624   4.569   4.681
30083SOL    HW192183   9.702   4.610   4.729
30083SOL    HW292184   9.626   4.470   4.692
30084SOL     OW92185   9.655   4.285   4.723
30084SOL    HW192186   9.589   4.210   4.729
30084SOL    HW292187   9.734   4.256   4.670
30085SOL     OW92188   9.264   4.991   3.890
30085SOL    HW192189   9.180   5.039   3.866
30085SOL    HW292190   9.251   4.893   3.876
30086SOL     OW92191   9.429   5.527   4.665
30086SOL    HW192192   9.384   5.447   4.625
30086SOL    HW292193   9.524   5.531   4.635
30087SOL     OW92194   9.845   5.332   4.636
30087SOL    HW192195   9.937   5.369   4.651
30087SOL    HW292196   9.848   5.266   4.561
30088SOL     OW92197   9.294   4.263   4.875
30088SOL    HW192198   9.359   4.201   4.831
30088SOL    HW292199   9.337   4.307   4.953
30089SOL     OW92200   9.524   4.334   5.461
30089SOL    HW192201   9.621   4.326   5.439
30089SOL    HW292202   9.482   4.402   5.402
30090SOL     OW92203   0.067   4.455   3.998
30090SOL    HW192204   0.100   4.413   4.082
30090SOL    HW292205   9.969   4.474   4.005
30091SOL     OW92206   9.553   5.276   5.394
30091SOL    HW192207   9.504   5.341   5.452
30091SOL    HW292208   9.549   5.185   5.435
30092SOL     OW92209   9.733   4.240   3.964
30092SOL    HW192210   9.781   4.326   3.982
30092SOL    HW292211   9.643   4.260   3.927
30093SOL     OW92212   9.444   5.000   4.750
30093SOL    HW192213   9.403   5.047   4.828
30093SOL    HW292214   9.375   4.944   4.705
30094SOL     OW92215   9.899   5.349   5.413
30094SOL    HW192216   9.830   5.406   5.368
30094SOL    HW292217   9.967   5.408   5.456
30095SOL     OW92218   9.438   5.478   5.542
30095SOL    HW192219   9.366   5.424   5.585
30095SOL    HW292220   9.494   5.521   5.613
30096SOL     OW92221   9.903   5.187   4.179
30096SOL    HW192222   9.933   5.133   4.101
30096SOL    HW292223   9.849   5.265   4.147
30097SOL     OW92224   9.515   5.012   3.989
30097SOL    HW192225   9.421   4.997   3.960
30097SOL    HW292226   9.517   5.081   4.061
30098SOL     OW92227   9.377   4.819   5.451
30098SOL    HW192228   9.305   4.792   5.515
30098SOL    HW292229   9.459   4.765   5.469
30099SOL     OW92230   9.942   3.902   5.198
30099SOL    HW192231   9.918   3.819   5.147
30099SOL    HW292232   9.911   3.893   5.293
30100SOL     OW92233   9.347   3.997   3.792
30100SOL    HW192234   9.249   3.981   3.799
30100SOL    HW292235   9.364   4.078   3.735
30101SOL     OW92236   9.394   3.865   4.040
30101SOL    HW192237   9.383   3.911   3.952
30101SOL    HW292238   9.491   3.853   4.060
30102SOL     OW92239   9.658   5.502   5.301
30102SOL    HW192240   9.576   5.555   5.277
30102SOL    HW292241   9.631   5.411   5.332
30103SOL     OW92242   9.945   4.434   4.425
30103SOL    HW192243   9.965   4.496   4.501
30103SOL    HW292244   9.857   4.459   4.384
30104SOL     OW92245   9.535   5.034   5.518
30104SOL    HW192246   9.462   4.970   5.492
30104SOL    HW292247   9.534   5.047   5.617
30105SOL     OW92248   9.473   4.959   4.377
30105SOL    HW192249   9.514   4.923   4.462
30105SOL    HW292250   9.514   4.913   4.299
30106SOL     OW92251   9.957   5.091   5.484
30106SOL    HW192252   9.895   5.023   5.445
30106SOL    HW292253   9.933   5.182   5.449
30107SOL     OW92254   9.776   4.179   4.234
30107SOL    HW192255   9.764   4.180   4.134
30107SOL    HW292256   9.870   4.155   4.256
30108SOL     OW92257   9.673   4.317   4.996
30108SOL    HW192258   9.708   4.234   5.041
30108SOL    HW292259   9.674   4.304   4.897
30109SOL     OW92260   9.332   4.710   4.049
30109SOL    HW192261   9.410   4.693   3.989
30109SOL    HW292262   9.294   4.622   4.080
30110SOL     OW92263   9.498   4.364   5.731
30110SOL    HW192264   9.416   4.315   5.760
30110SOL    HW292265   9.507   4.358   5.631
30111SOL     OW92266   9.553   4.039   6.635
30111SOL    HW192267   9.582   3.982   6.712
30111SOL    HW292268   9.459   4.017   6.610
30112SOL     OW92269   9.392   4.111   6.259
30112SOL    HW192270   9.298   4.133   6.281
30112SOL    HW292271   9.398   4.017   6.226
30113SOL     OW92272   9.818   4.946   6.773
30113SOL    HW192273   9.771   5.024   6.732
30113SOL    HW292274   9.903   4.976   6.816
30114SOL     OW92275   9.698   5.168   6.669
30114SOL    HW192276   9.624   5.121   6.620
30114SOL    HW292277   9.743   5.233   6.607
30115SOL     OW92278   9.722   4.100   7.138
30115SOL    HW192279   9.808   4.049   7.146
30115SOL    HW292280   9.647   4.037   7.122
30116SOL     OW92281   9.525   5.458   6.047
30116SOL    HW192282   9.535   5.525   6.121
30116SOL    HW292283   9.613   5.448   5.999
30117SOL     OW92284   9.519   5.183   6.015
30117SOL    HW192285   9.512   5.277   6.046
30117SOL    HW292286   9.520   5.121   6.093
30118SOL     OW92287   9.637   4.838   6.405
30118SOL    HW192288   9.629   4.741   6.428
30118SOL    HW292289   9.596   4.893   6.478
30119SOL     OW92290   9.471   4.380   6.196
30119SOL    HW192291   9.450   4.287   6.228
30119SOL    HW292292   9.439   4.447   6.262
30120SOL     OW92293   9.247   5.327   5.657
30120SOL    HW192294   9.190   5.246   5.673
30120SOL    HW292295   9.268   5.370   5.745
30121SOL     OW92296   9.442   4.443   7.140
30121SOL    HW192297   9.524   4.498   7.155
30121SOL    HW292298   9.367   4.503   7.111
30122SOL     OW92299   9.885   5.173   6.307
30122SOL    HW192300   9.868   5.075   6.306
30122SOL    HW292301   9.883   5.208   6.213
30123SOL     OW92302   0.092   3.715   6.074
30123SOL    HW192303   0.125   3.808   6.059
30123SOL    HW292304   9.992   3.716   6.083
30124SOL     OW92305   9.518   4.652   6.892
30124SOL    HW192306   9.607   4.606   6.893
30124SOL    HW292307   9.473   4.637   6.804
30125SOL     OW92308   9.605   3.947   7.471
30125SOL    HW192309   9.662   4.021   7.506
30125SOL    HW292310   9.515   3.982   7.446
30126SOL     OW92311   9.839   4.443   5.886
30126SOL    HW192312   9.789   4.525   5.855
30126SOL    HW292313   9.812   4.422   5.980
30127SOL     OW92314   9.385   4.595   6.375
30127SOL    HW192315   9.471   4.580   6.422
30127SOL    HW292316   9.344   4.681   6.407
30128SOL     OW92317   9.402   5.608   7.189
30128SOL    HW192318   9.409   5.559   7.276
30128SOL    HW292319   9.305   5.620   7.166
30129SOL     OW92320   0.179   4.049   5.751
30129SOL    HW192321   0.215   4.141   5.737
30129SOL    HW292322   0.253   3.983   5.744
30130SOL     OW92323   9.940   4.061   6.630
30130SOL    HW192324   9.879   3.982   6.618
30130SOL    HW292325   9.904   4.138   6.578
30131SOL     OW92326   9.658   5.559   6.494
30131SOL    HW192327   9.721   5.481   6.503
30131SOL    HW292328   9.705   5.643   6.521
30132SOL     OW92329   9.540   4.632   5.775
30132SOL    HW192330   9.567   4.662   5.683
30132SOL    HW292331   9.526   4.533   5.774
30133SOL     OW92332   9.760   4.924   7.269
30133SOL    HW192333   9.739   4.928   7.171
30133SOL    HW292334   9.690   4.974   7.320
30134SOL     OW92335   9.509   3.939   7.090
30134SOL    HW192336   9.426   3.992   7.075
30134SOL    HW292337   9.488   3.857   7.142
30135SOL     OW92338   9.774   5.445   5.907
30135SOL    HW192339   9.798   5.521   5.968
30135SOL    HW292340   9.852   5.423   5.849
30136SOL     OW92341   9.465   5.561   6.795
30136SOL    HW192342   9.518   5.483   6.828
30136SOL    HW292343   9.445   5.549   6.698
30137SOL     OW92344   9.745   4.378   6.135
30137SOL    HW192345   9.769   4.282   6.141
30137SOL    HW292346   9.647   4.390   6.153
30138SOL     OW92347   9.870   3.822   5.702
30138SOL    HW192348   9.960   3.787   5.729
30138SOL    HW292349   9.867   3.835   5.603
30139SOL     OW92350   0.126   5.150   6.437
30139SOL    HW192351   0.165   5.076   6.383
30139SOL    HW292352   0.035   5.172   6.403
30140SOL     OW92353   9.813   3.734   6.053
30140SOL    HW192354   9.731   3.702   6.101
30140SOL    HW292355   9.794   3.823   6.011
30141SOL     OW92356   9.621   3.714   5.753
30141SOL    HW192357   9.700   3.769   5.726
30141SOL    HW292358   9.653   3.631   5.800
30142SOL     OW92359   0.193   3.950   6.007
30142SOL    HW192360   0.160   3.989   5.921
30142SOL    HW292361   0.280   3.993   6.032
30143SOL     OW92362   9.856   4.903   6.255
30143SOL    HW192363   9.786   4.873   6.320
30143SOL    HW292364   9.824   4.888   6.162
30144SOL     OW92365   9.442   4.268   6.935
30144SOL    HW192366   9.538   4.256   6.911
30144SOL    HW292367   9.433   4.334   7.009
30145SOL     OW92368   9.818   3.816   6.679
30145SOL    HW192369   9.905   3.792   6.720
30145SOL    HW292370   9.753   3.841   6.751
30146SOL     OW92371   9.783   3.973   5.914
30146SOL    HW192372   9.822   3.919   5.839
30146SOL    HW292373   9.750   4.060   5.878
30147SOL     OW92374   9.756   4.519   6.879
30147SOL    HW192375   9.821   4.546   6.949
30147SOL    HW292376   9.741   4.420   6.884
30148SOL     OW92377   9.335   5.268   6.903
30148SOL    HW192378   9.277   5.331   6.851
30148SOL    HW292379   9.430   5.295   6.892
30149SOL     OW92380   9.598   4.841   5.953
30149SOL    HW192381   9.571   4.916   5.892
30149SOL    HW292382   9.585   4.754   5.905
30150SOL     OW92383   9.870   4.305   6.526
30150SOL    HW192384   9.893   4.330   6.432
30150SOL    HW292385   9.941   4.339   6.588
30151SOL     OW92386   9.593   5.336   6.867
30151SOL    HW192387   9.646   5.271   6.812
30151SOL    HW292388   9.644   5.358   6.950
30152SOL     OW92389   9.708   4.507   7.215
30152SOL    HW192390   9.785   4.544   7.164
30152SOL    HW292391   9.732   4.418   7.253
30153SOL     OW92392   9.776   3.789   7.329
30153SOL    HW192393   9.741   3.706   7.287
30153SOL    HW292394   9.701   3.840   7.370
30154SOL     OW92395   9.802   4.692   6.675
30154SOL    HW192396   9.798   4.786   6.709
30154SOL    HW292397   9.790   4.628   6.751
30155SOL     OW92398   9.610   3.863   6.846
30155SOL    HW192399   9.575   3.894   6.934
30155SOL    HW292400   9.594   3.764   6.836
30156SOL     OW92401   9.426   5.011   6.857
30156SOL    HW192402   9.392   4.944   6.923
30156SOL    HW292403   9.382   5.099   6.874
30157SOL     OW92404   9.660   4.702   7.398
30157SOL    HW192405   9.711   4.781   7.363
30157SOL    HW292406   9.676   4.624   7.338
30158SOL     OW92407   9.617   4.574   6.514
30158SOL    HW192408   9.686   4.616   6.572
30158SOL    HW292409   9.611   4.476   6.535
30159SOL     OW92410   9.605   4.303   6.578
30159SOL    HW192411   9.579   4.209   6.600
30159SOL    HW292412   9.702   4.306   6.555
30160SOL     OW92413   9.253   4.981   5.731
30160SOL    HW192414   9.173   5.041   5.729
30160SOL    HW292415   9.227   4.890   5.698
30161SOL     OW92416   9.387   5.518   6.535
30161SOL    HW192417   9.348   5.443   6.483
30161SOL    HW292418   9.483   5.530   6.510
30162SOL     OW92419   9.842   5.351   6.508
30162SOL    HW192420   9.932   5.389   6.531
30162SOL    HW292421   9.850   5.291   6.428
30163SOL     OW92422   9.348   4.337   6.688
30163SOL    HW192423   9.430   4.340   6.630
30163SOL    HW292424   9.373   4.314   6.781
30164SOL     OW92425   9.545   4.251   7.307
30164SOL    HW192426   9.611   4.200   7.252
30164SOL    HW292427   9.499   4.319   7.249
30165SOL     OW92428   9.528   5.261   7.274
30165SOL    HW192429   9.498   5.333   7.336
30165SOL    HW292430   9.546   5.177   7.326
30166SOL     OW92431   9.721   4.211   5.786
30166SOL    HW192432   9.790   4.278   5.814
30166SOL    HW292433   9.633   4.257   5.775
30167SOL     OW92434   9.391   4.821   7.058
30167SOL    HW192435   9.414   4.816   7.155
30167SOL    HW292436   9.454   4.764   7.006
30168SOL     OW92437   9.492   4.977   6.593
30168SOL    HW192438   9.473   4.988   6.691
30168SOL    HW292439   9.415   4.932   6.549
30169SOL     OW92440   0.024   5.254   7.201
30169SOL    HW192441   0.021   5.269   7.102
30169SOL    HW292442   0.113   5.283   7.236
30170SOL     OW92443   9.432   5.468   7.420
30170SOL    HW192444   9.385   5.397   7.472
30170SOL    HW292445   9.490   5.521   7.482
30171SOL     OW92446   9.637   4.051   6.365
30171SOL    HW192447   9.550   4.079   6.324
30171SOL    HW292448   9.625   4.039   6.463
30172SOL     OW92449   9.679   4.940   7.010
30172SOL    HW192450   9.734   4.931   6.926
30172SOL    HW292451   9.586   4.969   6.986
30173SOL     OW92452   9.869   5.215   6.038
30173SOL    HW192453   9.905   5.157   5.965
30173SOL    HW292454   9.818   5.291   5.999
30174SOL     OW92455   9.508   5.042   5.788
30174SOL    HW192456   9.412   5.020   5.772
30174SOL    HW292457   9.515   5.105   5.866
30175SOL     OW92458   9.416   4.804   7.328
30175SOL    HW192459   9.335   4.777   7.380
30175SOL    HW292460   9.496   4.756   7.364
30176SOL     OW92461   9.944   3.916   7.157
30176SOL    HW192462   0.004   3.843   7.126
30176SOL    HW292463   9.882   3.881   7.226
30177SOL     OW92464   9.417   4.093   5.545
30177SOL    HW192465   9.323   4.080   5.514
30177SOL    HW292466   9.450   4.182   5.513
30178SOL     OW92467   9.415   3.920   5.773
30178SOL    HW192468   9.420   3.980   5.693
30178SOL    HW292469   9.491   3.855   5.771
30179SOL     OW92470   9.923   4.604   7.076
30179SOL    HW192471   9.935   4.703   7.083
30179SOL    HW292472   0.012   4.559   7.087
30180SOL     OW92473   9.631   5.463   7.121
30180SOL    HW192474   9.550   5.521   7.126
30180SOL    HW292475   9.615   5.378   7.173
30181SOL     OW92476   9.970   4.426   6.295
30181SOL    HW192477   9.978   4.506   6.354
30181SOL    HW292478   9.891   4.437   6.235
30182SOL     OW92479   9.557   5.030   7.411
30182SOL    HW192480   9.487   4.963   7.386
30182SOL    HW292481   9.568   5.032   7.510
30183SOL     OW92482   9.511   4.962   6.186
30183SOL    HW192483   9.552   4.920   6.267
30183SOL    HW292484   9.538   4.911   6.105
30184SOL     OW92485   9.975   5.053   7.373
30184SOL    HW192486   9.903   4.994   7.339
30184SOL    HW292487   9.985   5.132   7.312
30185SOL     OW92488   9.804   4.112   6.156
30185SOL    HW192489   9.794   4.052   6.077
30185SOL    HW292490   9.747   4.078   6.231
30186SOL     OW92491   9.716   4.247   6.905
30186SOL    HW192492   9.727   4.198   6.992
30186SOL    HW292493   9.767   4.199   6.834
30187SOL     OW92494   9.275   4.664   5.883
30187SOL    HW192495   9.370   4.675   5.854
30187SOL    HW292496   9.265   4.577   5.933
30188SOL     OW92497   9.517   4.359   7.571
30188SOL    HW192498   9.426   4.334   7.602
30188SOL    HW292499   9.530   4.328   7.477
30189SOL     OW92500   9.525   4.021   8.432
30189SOL    HW192501   9.583   3.987   8.506
30189SOL    HW292502   9.434   3.980   8.440
30190SOL     OW92503   9.296   4.118   8.086
30190SOL    HW192504   9.209   4.150   8.125
30190SOL    HW292505   9.278   4.044   8.022
30191SOL     OW92506   9.882   4.918   8.571
30191SOL    HW192507   9.812   4.986   8.549
30191SOL    HW292508   9.950   4.959   8.632
30192SOL     OW92509   9.694   5.117   8.507
30192SOL    HW192510   9.617   5.066   8.468
30192SOL    HW292511   9.736   5.173   8.435
30193SOL     OW92512   9.715   4.063   8.874
30193SOL    HW192513   9.799   4.026   8.912
30193SOL    HW292514   9.640   4.050   8.939
30194SOL     OW92515   9.548   5.439   7.881
30194SOL    HW192516   9.569   5.498   7.958
30194SOL    HW292517   9.621   5.444   7.813
30195SOL     OW92518   9.611   5.170   7.901
30195SOL    HW192519   9.572   5.262   7.910
30195SOL    HW292520   9.572   5.111   7.972
30196SOL     OW92521   9.611   4.803   8.266
30196SOL    HW192522   9.614   4.707   8.294
30196SOL    HW292523   9.564   4.856   8.336
30197SOL     OW92524   9.419   4.364   8.053
30197SOL    HW192525   9.374   4.276   8.069
30197SOL    HW292526   9.399   4.426   8.129
30198SOL     OW92527   9.339   5.269   7.570
30198SOL    HW192528   9.318   5.173   7.588
30198SOL    HW292529   9.313   5.324   7.649
30199SOL     OW92530   9.409   4.502   8.990
30199SOL    HW192531   9.499   4.544   8.996
30199SOL    HW292532   9.341   4.572   8.967
30200SOL     OW92533   9.887   5.090   8.145
30200SOL    HW192534   9.863   4.993   8.142
30200SOL    HW292535   9.893   5.126   8.051
30201SOL     OW92536   0.141   3.758   8.027
30201SOL    HW192537   0.179   3.827   7.964
30201SOL    HW292538   0.042   3.753   8.014
30202SOL     OW92539   9.455   4.682   8.718
30202SOL    HW192540   9.544   4.638   8.711
30202SOL    HW292541   9.401   4.662   8.636
30203SOL     OW92542   9.629   4.007   9.346
30203SOL    HW192543   9.672   4.088   9.386
30203SOL    HW292544   9.531   4.024   9.334
30204SOL     OW92545   9.381   4.555   8.251
30204SOL    HW192546   9.474   4.544   8.286
30204SOL    HW292547   9.331   4.622   8.306
30205SOL     OW92548   9.388   5.608   9.082
30205SOL    HW192549   9.392   5.560   9.170
30205SOL    HW292550   9.293   5.617   9.054
30206SOL     OW92551   9.912   3.805   8.421
30206SOL    HW192552   9.936   3.840   8.511
30206SOL    HW292553   9.917   3.878   8.354
30207SOL     OW92554   9.650   5.497   8.357
30207SOL    HW192555   9.712   5.419   8.344
30207SOL    HW292556   9.703   5.577   8.384
30208SOL     OW92557   9.581   4.629   7.649
30208SOL    HW192558   9.618   4.663   7.562
30208SOL    HW292559   9.556   4.533   7.638
30209SOL     OW92560   9.767   4.976   9.145
30209SOL    HW192561   9.741   4.997   9.050
30209SOL    HW292562   9.694   5.006   9.206
30210SOL     OW92563   9.486   4.032   9.023
30210SOL    HW192564   9.409   4.055   8.963
30210SOL    HW292565   9.468   3.944   9.068
30211SOL     OW92566   9.795   5.475   7.708
30211SOL    HW192567   9.816   5.534   7.786
30211SOL    HW292568   9.870   5.410   7.694
30212SOL     OW92569   9.560   5.492   8.629
30212SOL    HW192570   9.607   5.416   8.674
30212SOL    HW292571   9.584   5.493   8.532
30213SOL     OW92572   9.689   4.361   7.996
30213SOL    HW192573   9.718   4.269   8.021
30213SOL    HW292574   9.591   4.371   8.013
30214SOL     OW92575   9.887   3.891   7.564
30214SOL    HW192576   9.977   3.857   7.592
30214SOL    HW292577   9.862   3.850   7.476
30215SOL     OW92578   0.127   5.112   8.269
30215SOL    HW192579   0.192   5.061   8.213
30215SOL    HW292580   0.035   5.104   8.229
30216SOL     OW92581   9.873   3.787   7.939
30216SOL    HW192582   9.799   3.778   8.006
30216SOL    HW292583   9.861   3.872   7.888
30217SOL     OW92584   9.606   3.740   7.646
30217SOL    HW192585   9.623   3.820   7.587
30217SOL    HW292586   9.694   3.699   7.672
30218SOL     OW92587   0.233   3.939   7.851
30218SOL    HW192588   0.186   4.026   7.834
30218SOL    HW292589   0.331   3.955   7.853
30219SOL     OW92590   9.820   4.829   8.088
30219SOL    HW192591   9.752   4.810   8.159
30219SOL    HW292592   9.778   4.819   7.998
30220SOL     OW92593   9.400   4.303   8.809
30220SOL    HW192594   9.497   4.292   8.786
30220SOL    HW292595   9.390   4.379   8.872
30221SOL     OW92596   9.963   3.950   8.670
30221SOL    HW192597   9.968   3.922   8.766
30221SOL    HW292598   9.868   3.961   8.643
30222SOL     OW92599   9.801   4.012   7.788
30222SOL    HW192600   9.836   3.967   7.706
30222SOL    HW292601   9.773   4.105   7.766
30223SOL     OW92602   9.692   4.552   8.705
30223SOL    HW192603   9.766   4.577   8.768
30223SOL    HW292604   9.676   4.454   8.711
30224SOL     OW92605   9.396   5.302   8.784
30224SOL    HW192606   9.378   5.384   8.731
30224SOL    HW292607   9.495   5.288   8.792
30225SOL     OW92608   9.663   4.817   7.845
30225SOL    HW192609   9.642   4.892   7.782
30225SOL    HW292610   9.647   4.729   7.800
30226SOL     OW92611   9.904   4.273   8.389
30226SOL    HW192612   9.889   4.346   8.323
30226SOL    HW292613   9.976   4.301   8.453
30227SOL     OW92614   9.674   5.259   8.738
30227SOL    HW192615   9.682   5.204   8.655
30227SOL    HW292616   9.765   5.279   8.774
30228SOL     OW92617   9.690   4.531   9.037
30228SOL    HW192618   9.769   4.546   8.977
30228SOL    HW292619   9.685   4.434   9.060
30229SOL     OW92620   9.787   3.870   9.168
30229SOL    HW192621   9.735   3.794   9.127
30229SOL    HW292622   9.726   3.924   9.226
30230SOL     OW92623   9.829   4.661   8.495
30230SOL    HW192624   9.854   4.757   8.513
30230SOL    HW292625   9.779   4.625   8.573
30231SOL     OW92626   9.687   3.938   8.637
30231SOL    HW192627   9.685   3.983   8.726
30231SOL    HW292628   9.644   3.848   8.644
30232SOL     OW92629   9.383   5.050   8.675
30232SOL    HW192630   9.398   4.988   8.752
30232SOL    HW292631   9.375   5.144   8.709
30233SOL     OW92632   9.656   3.771   8.105
30233SOL    HW192633   9.607   3.856   8.124
30233SOL    HW292634   9.667   3.719   8.190
30234SOL     OW92635   9.678   4.725   9.222
30234SOL    HW192636   9.730   4.806   9.196
30234SOL    HW292637   9.693   4.653   9.154
30235SOL     OW92638   9.626   4.539   8.363
30235SOL    HW192639   9.710   4.582   8.397
30235SOL    HW292640   9.629   4.441   8.383
30236SOL     OW92641   9.637   4.268   8.449
30236SOL    HW192642   9.592   4.181   8.430
30236SOL    HW292643   9.733   4.262   8.423
30237SOL     OW92644   9.301   4.991   7.637
30237SOL    HW192645   9.212   5.019   7.601
30237SOL    HW292646   9.298   4.895   7.664
30238SOL     OW92647   9.370   5.506   8.354
30238SOL    HW192648   9.329   5.427   8.308
30238SOL    HW292649   9.470   5.499   8.350
30239SOL     OW92650   9.833   5.289   8.329
30239SOL    HW192651   9.922   5.331   8.348
30239SOL    HW292652   9.842   5.222   8.256
30240SOL     OW92653   9.374   4.363   8.543
30240SOL    HW192654   9.460   4.341   8.496
30240SOL    HW292655   9.383   4.341   8.640
30241SOL     OW92656   9.527   4.289   9.130
30241SOL    HW192657   9.512   4.197   9.095
30241SOL    HW292658   9.468   4.353   9.081
30242SOL     OW92659   0.126   4.175   7.792
30242SOL    HW192660   0.119   4.202   7.696
30242SOL    HW292661   0.113   4.255   7.850
30243SOL     OW92662   9.517   5.261   9.159
30243SOL    HW192663   9.491   5.336   9.221
30243SOL    HW292664   9.536   5.179   9.213
30244SOL     OW92665   9.713   4.263   7.737
30244SOL    HW192666   9.713   4.315   7.822
30244SOL    HW292667   9.645   4.300   7.674
30245SOL     OW92668   9.428   4.884   8.891
30245SOL    HW192669   9.433   4.855   8.986
30245SOL    HW292670   9.437   4.805   8.831
30246SOL     OW92671   9.454   4.945   8.437
30246SOL    HW192672   9.428   4.986   8.525
30246SOL    HW292673   9.378   4.891   8.402
30247SOL     OW92674   0.148   5.233   9.192
30247SOL    HW192675   0.124   5.319   9.238
30247SOL    HW292676   0.247   5.220   9.193
30248SOL     OW92677   9.435   5.471   9.312
30248SOL    HW192678   9.385   5.405   9.367
30248SOL    HW292679   9.497   5.523   9.371
30249SOL     OW92680   9.538   4.011   8.163
30249SOL    HW192681   9.452   4.050   8.128
30249SOL    HW292682   9.539   4.016   8.263
30250SOL     OW92683   9.663   5.031   8.903
30250SOL    HW192684   9.659   5.113   8.846
30250SOL    HW292685   9.579   4.978   8.892
30251SOL     OW92686   9.881   5.142   7.880
30251SOL    HW192687   9.910   5.100   7.794
30251SOL    HW292688   9.782   5.155   7.879
30252SOL     OW92689   9.564   5.019   7.684
30252SOL    HW192690   9.465   5.011   7.672
30252SOL    HW292691   9.584   5.086   7.755
30253SOL     OW92692   9.430   4.807   9.153
30253SOL    HW192693   9.360   4.749   9.195
30253SOL    HW292694   9.521   4.775   9.180
30254SOL     OW92695   9.947   3.905   8.951
30254SOL    HW192696   0.011   3.828   8.956
30254SOL    HW292697   9.880   3.897   9.025
30255SOL     OW92698   9.372   4.063   7.408
30255SOL    HW192699   9.280   4.069   7.368
30255SOL    HW292700   9.427   4.139   7.375
30256SOL     OW92701   9.348   3.845   7.683
30256SOL    HW192702   9.324   3.908   7.610
30256SOL    HW292703   9.445   3.819   7.674
30257SOL     OW92704   9.899   4.597   8.870
30257SOL    HW192705   9.940   4.688   8.869
30257SOL    HW292706   9.967   4.528   8.847
30258SOL     OW92707   9.634   5.491   9.048
30258SOL    HW192708   9.546   5.537   9.044
30258SOL    HW292709   9.621   5.395   9.074
30259SOL     OW92710   9.867   4.443   8.191
30259SOL    HW192711   9.937   4.511   8.168
30259SOL    HW292712   9.803   4.435   8.115
30260SOL     OW92713   9.550   5.029   9.298
30260SOL    HW192714   9.484   4.964   9.262
30260SOL    HW292715   9.552   5.025   9.397
30261SOL     OW92716   9.524   4.948   8.050
30261SOL    HW192717   9.549   4.902   8.135
30261SOL    HW292718   9.560   4.897   7.972
30262SOL     OW92719   0.019   5.004   9.229
30262SOL    HW192720   9.926   5.004   9.192
30262SOL    HW292721   0.064   5.090   9.204
30263SOL     OW92722   9.766   4.102   8.043
30263SOL    HW192723   9.776   4.063   7.951
30263SOL    HW292724   9.684   4.065   8.085
30264SOL     OW92725   9.655   4.284   8.725
30264SOL    HW192726   9.691   4.206   8.775
30264SOL    HW292727   9.660   4.266   8.626
30265SOL     OW92728   9.344   4.735   7.756
30265SOL    HW192729   9.433   4.724   7.712
30265SOL    HW292730   9.311   4.646   7.787
30266SOL     OW92731   9.524   4.337   9.396
30266SOL    HW192732   9.435   4.312   9.434
30266SOL    HW292733   9.524   4.318   9.298
30267SOL     OW92734   9.535   5.446   9.745
30267SOL    HW192735   9.550   5.508   9.821
30267SOL    HW292736   9.612   5.453   9.681
30268SOL     OW92737   9.591   5.185   9.783
30268SOL    HW192738   9.558   5.279   9.776
30268SOL    HW292739   9.522   5.128   9.827
30269SOL     OW92740   9.435   4.383   9.836
30269SOL    HW192741   9.475   4.293   9.855
30269SOL    HW292742   9.407   4.426   9.921
30270SOL     OW92743   9.322   5.291   9.470
30270SOL    HW192744   9.306   5.195   9.494
30270SOL    HW292745   9.295   5.349   9.547
30271SOL     OW92746   0.106   3.739   9.854
30271SOL    HW192747   0.165   3.810   9.816
30271SOL    HW292748   0.011   3.771   9.854
30272SOL     OW92749   9.887   4.429   9.637
30272SOL    HW192750   9.897   4.522   9.603
30272SOL    HW292751   9.827   4.430   9.717
30273SOL     OW92752   9.349   4.492   0.069
30273SOL    HW192753   9.360   4.513   0.166
30273SOL    HW292754   9.274   4.547   0.032
30274SOL     OW92755   0.163   4.008   9.533
30274SOL    HW192756   0.202   4.088   9.488
30274SOL    HW292757   0.069   4.026   9.559
30275SOL     OW92758   9.663   5.584   0.193
30275SOL    HW192759   9.681   5.502   0.247
30275SOL    HW292760   9.749   5.632   0.175
30276SOL     OW92761   9.495   4.610   9.392
30276SOL    HW192762   9.572   4.654   9.346
30276SOL    HW292763   9.513   4.512   9.400
30277SOL     OW92764   9.792   5.492   9.624
30277SOL    HW192765   9.825   5.550   9.699
30277SOL    HW292766   9.867   5.435   9.590
30278SOL     OW92767   9.713   4.408   9.848
30278SOL    HW192768   9.704   4.312   9.875
30278SOL    HW292769   9.624   4.443   9.819
30279SOL     OW92770   9.888   3.727   9.384
30279SOL    HW192771   9.959   3.662   9.355
30279SOL    HW292772   9.847   3.769   9.303
30280SOL     OW92773   9.817   3.801   9.866
30280SOL    HW192774   9.724   3.827   9.892
30280SOL    HW292775   9.815   3.757   9.776
30281SOL     OW92776   9.575   3.801   9.519
30281SOL    HW192777   9.601   3.877   9.459
30281SOL    HW292778   9.658   3.760   9.558
30282SOL     OW92779   0.298   3.917   9.753
30282SOL    HW192780   0.239   3.954   9.682
30282SOL    HW292781   0.394   3.928   9.725
30283SOL     OW92782   9.714   4.941   0.048
30283SOL    HW192783   9.649   5.008   0.081
30283SOL    HW292784   9.701   4.927   9.949
30284SOL     OW92785   9.667   4.875   9.778
30284SOL    HW192786   9.621   4.912   9.697
30284SOL    HW292787   9.758   4.843   9.753
30285SOL     OW92788   9.549   3.846   9.954
30285SOL    HW192789   9.463   3.894   9.975
30285SOL    HW292790   9.578   3.794   0.035
30286SOL     OW92791   9.267   5.037   9.556
30286SOL    HW192792   9.185   5.052   9.500
30286SOL    HW292793   9.241   4.996   9.643
30287SOL     OW92794   0.164   4.420   9.611
30287SOL    HW192795   0.218   4.442   9.693
30287SOL    HW292796   0.072   4.395   9.639
30288SOL     OW92797   9.754   4.235   9.489
30288SOL    HW192798   9.810   4.306   9.532
30288SOL    HW292799   9.667   4.274   9.458
30289SOL     OW92800   9.852   5.240   9.856
30289SOL    HW192801   9.895   5.276   9.773
30289SOL    HW292802   9.759   5.211   9.834
30290SOL     OW92803   9.541   5.019   9.570
30290SOL    HW192804   9.441   5.017   9.565
30290SOL    HW292805   9.569   5.090   9.635
30291SOL     OW92806   9.353   4.038   9.340
30291SOL    HW192807   9.295   4.035   9.258
30291SOL    HW292808   9.329   4.119   9.394
30292SOL     OW92809   9.314   3.868   9.571
30292SOL    HW192810   9.294   3.921   9.488
30292SOL    HW292811   9.410   3.841   9.570
30293SOL     OW92812   9.767   4.536   0.089
30293SOL    HW192813   9.843   4.599   0.074
30293SOL    HW292814   9.742   4.493   0.002
30294SOL     OW92815   9.416   4.994   9.872
30294SOL    HW192816   9.370   4.974   9.959
30294SOL    HW292817   9.484   4.923   9.853
30295SOL     OW92818   9.598   4.160   9.919
30295SOL    HW192819   9.589   4.067   9.883
30295SOL    HW292820   9.614   4.156   0.018
30296SOL     OW92821   9.433   6.152   0.099
30296SOL    HW192822   9.346   6.148   0.147
30296SOL    HW292823   9.420   6.197   0.010
30297SOL     OW92824   9.534   5.893   0.977
30297SOL    HW192825   9.591   5.853   1.049
30297SOL    HW292826   9.441   5.857   0.985
30298SOL     OW92827   9.292   6.026   0.643
30298SOL    HW192828   9.215   6.027   0.707
30298SOL    HW292829   9.257   6.017   0.550
30299SOL     OW92830   9.807   6.801   1.117
30299SOL    HW192831   9.775   6.893   1.093
30299SOL    HW292832   9.874   6.807   1.190
30300SOL     OW92833   0.065   6.527   1.908
30300SOL    HW192834   0.124   6.543   1.987
30300SOL    HW292835   9.977   6.491   1.938
30301SOL     OW92836   9.729   7.059   1.073
30301SOL    HW192837   9.636   7.038   1.043
30301SOL    HW292838   9.773   7.119   1.006
30302SOL     OW92839   9.765   5.982   1.440
30302SOL    HW192840   9.843   5.919   1.443
30302SOL    HW292841   9.683   5.934   1.471
30303SOL     OW92842   9.505   7.288   0.514
30303SOL    HW192843   9.536   7.364   0.571
30303SOL    HW292844   9.582   7.251   0.463
30304SOL     OW92845   9.581   6.688   1.006
30304SOL    HW192846   9.585   6.589   0.996
30304SOL    HW292847   9.666   6.721   1.048
30305SOL     OW92848   9.422   6.264   0.577
30305SOL    HW192849   9.387   6.176   0.608
30305SOL    HW292850   9.422   6.329   0.653
30306SOL     OW92851   9.395   7.130   0.130
30306SOL    HW192852   9.316   7.076   0.100
30306SOL    HW292853   9.365   7.201   0.194
30307SOL     OW92854   9.451   6.335   1.564
30307SOL    HW192855   9.536   6.388   1.565
30307SOL    HW292856   9.375   6.394   1.538
30308SOL     OW92857   9.962   6.981   0.746
30308SOL    HW192858   0.010   6.897   0.723
30308SOL    HW292859   9.914   7.015   0.665
30309SOL     OW92860   0.101   5.562   0.494
30309SOL    HW192861   0.157   5.636   0.457
30309SOL    HW292862   0.005   5.590   0.497
30310SOL     OW92863   9.535   6.611   1.299
30310SOL    HW192864   9.618   6.556   1.303
30310SOL    HW292865   9.524   6.649   1.207
30311SOL     OW92866   9.604   5.922   1.838
30311SOL    HW192867   9.651   5.977   1.908
30311SOL    HW292868   9.511   5.902   1.869
30312SOL     OW92869   9.852   6.228   0.236
30312SOL    HW192870   9.835   6.283   0.154
30312SOL    HW292871   9.784   6.251   0.306
30313SOL     OW92872   9.411   6.435   0.784
30313SOL    HW192873   9.486   6.436   0.851
30313SOL    HW292874   9.343   6.504   0.810
30314SOL     OW92875   0.381   5.937   0.068
30314SOL    HW192876   0.405   5.997   0.144
30314SOL    HW292877   0.284   5.947   0.047
30315SOL     OW92878   9.816   5.738   0.926
30315SOL    HW192879   9.862   5.753   1.014
30315SOL    HW292880   9.840   5.811   0.862
30316SOL     OW92881   9.728   7.451   0.917
30316SOL    HW192882   9.784   7.369   0.910
30316SOL    HW292883   9.786   7.530   0.939
30317SOL     OW92884   9.623   6.516   0.298
30317SOL    HW192885   9.658   6.531   0.205
30317SOL    HW292886   9.633   6.420   0.322
30318SOL     OW92887   9.742   6.775   1.690
30318SOL    HW192888   9.729   6.811   1.598
30318SOL    HW292889   9.680   6.821   1.754
30319SOL     OW92890   9.536   5.839   1.487
30319SOL    HW192891   9.456   5.898   1.479
30319SOL    HW292892   9.512   5.756   1.537
30320SOL     OW92893   9.754   7.254   0.339
30320SOL    HW192894   9.775   7.338   0.389
30320SOL    HW292895   9.818   7.243   0.263
30321SOL     OW92896   9.597   7.330   1.312
30321SOL    HW192897   9.670   7.262   1.320
30321SOL    HW292898   9.565   7.335   1.218
30322SOL     OW92899   9.656   6.253   0.427
30322SOL    HW192900   9.698   6.170   0.466
30322SOL    HW292901   9.569   6.271   0.474
30323SOL     OW92902   9.902   5.703   0.114
30323SOL    HW192903   9.996   5.686   0.142
30323SOL    HW292904   9.892   5.689   0.016
30324SOL     OW92905   0.200   7.094   0.811
30324SOL    HW192906   0.235   7.138   0.729
30324SOL    HW292907   0.115   7.045   0.790
30325SOL     OW92908   9.835   5.638   0.469
30325SOL    HW192909   9.761   5.626   0.535
30325SOL    HW292910   9.821   5.721   0.416
30326SOL     OW92911   0.291   5.755   0.413
30326SOL    HW192912   0.374   5.792   0.371
30326SOL    HW292913   0.302   5.754   0.513
30327SOL     OW92914   9.441   6.168   1.354
30327SOL    HW192915   9.535   6.173   1.322
30327SOL    HW292916   9.429   6.228   1.434
30328SOL     OW92917   9.903   5.799   1.187
30328SOL    HW192918   9.942   5.773   1.276
30328SOL    HW292919   9.803   5.802   1.195
30329SOL     OW92920   9.787   5.857   0.307
30329SOL    HW192921   9.843   5.803   0.244
30329SOL    HW292922   9.732   5.922   0.255
30330SOL     OW92923   9.766   6.451   1.290
30330SOL    HW192924   9.834   6.465   1.361
30330SOL    HW292925   9.739   6.355   1.286
30331SOL     OW92926   9.375   7.188   1.391
30331SOL    HW192927   9.309   7.228   1.328
30331SOL    HW292928   9.463   7.234   1.381
30332SOL     OW92929   9.894   6.176   0.936
30332SOL    HW192930   9.926   6.254   0.882
30332SOL    HW292931   9.943   6.173   1.023
30333SOL     OW92932   9.779   7.131   1.330
30333SOL    HW192933   9.766   7.099   1.237
30333SOL    HW292934   9.876   7.131   1.352
30334SOL     OW92935   9.747   6.355   1.604
30334SOL    HW192936   9.828   6.393   1.560
30334SOL    HW292937   9.745   6.256   1.590
30335SOL     OW92938   9.775   5.749   1.705
30335SOL    HW192939   9.735   5.659   1.688
30335SOL    HW292940   9.705   5.811   1.739
30336SOL     OW92941   9.861   6.533   1.046
30336SOL    HW192942   9.867   6.632   1.052
30336SOL    HW292943   9.836   6.496   1.136
30337SOL     OW92944   9.631   5.786   1.223
30337SOL    HW192945   9.606   5.824   1.312
30337SOL    HW292946   9.594   5.693   1.214
30338SOL     OW92947   9.429   6.930   1.309
30338SOL    HW192948   9.385   6.860   1.366
30338SOL    HW292949   9.403   7.021   1.343
30339SOL     OW92950   9.610   5.619   0.631
30339SOL    HW192951   9.575   5.712   0.644
30339SOL    HW292952   9.630   5.578   0.720
30340SOL     OW92953   9.663   6.535   1.794
30340SOL    HW192954   9.702   6.620   1.759
30340SOL    HW292955   9.691   6.459   1.735
30341SOL     OW92956   9.621   6.420   0.965
30341SOL    HW192957   9.716   6.448   0.978
30341SOL    HW292958   9.613   6.322   0.982
30342SOL     OW92959   9.635   6.143   1.007
30342SOL    HW192960   9.598   6.052   0.987
30342SOL    HW292961   9.727   6.150   0.971
30343SOL     OW92962   9.397   6.803   0.119
30343SOL    HW192963   9.323   6.870   0.117
30343SOL    HW292964   9.373   6.728   0.181
30344SOL     OW92965   9.503   7.364   1.060
30344SOL    HW192966   9.465   7.292   1.002
30344SOL    HW292967   9.580   7.407   1.013
30345SOL     OW92968   9.884   7.216   0.904
30345SOL    HW192969   9.971   7.258   0.930
30345SOL    HW292970   9.901   7.141   0.840
30346SOL     OW92971   9.334   6.143   1.105
30346SOL    HW192972   9.410   6.147   1.041
30346SOL    HW292973   9.369   6.157   1.198
30347SOL     OW92974   9.480   6.175   1.781
30347SOL    HW192975   9.523   6.088   1.758
30347SOL    HW292976   9.464   6.228   1.698
30348SOL     OW92977   9.525   7.142   1.776
30348SOL    HW192978   9.472   7.164   1.858
30348SOL    HW292979   9.562   7.050   1.784
30349SOL     OW92980   9.679   6.036   0.132
30349SOL    HW192981   9.746   6.103   0.165
30349SOL    HW292982   9.588   6.078   0.130
30350SOL     OW92983   9.363   6.717   1.481
30350SOL    HW192984   9.394   6.707   1.575
30350SOL    HW292985   9.430   6.677   1.419
30351SOL     OW92986   9.476   6.946   1.039
30351SOL    HW192987   9.450   6.943   1.136
30351SOL    HW292988   9.496   6.854   1.007
30352SOL     OW92989   9.903   7.136   1.733
30352SOL    HW192990   9.836   7.207   1.709
30352SOL    HW292991   9.988   7.153   1.683
30353SOL     OW92992   9.528   5.882   0.694
30353SOL    HW192993   9.442   5.929   0.672
30353SOL    HW292994   9.544   5.885   0.793
30354SOL     OW92995   9.674   6.905   1.457
30354SOL    HW192996   9.720   6.988   1.426
30354SOL    HW292997   9.593   6.889   1.400
30355SOL     OW92998   9.882   7.067   0.502
30355SOL    HW192999   9.970   7.046   0.461
30355SOL    HW293000   9.830   7.127   0.441
30356SOL     OW93001   9.665   6.883   0.147
30356SOL    HW193002   9.570   6.852   0.141
30356SOL    HW293003   9.667   6.982   0.164
30357SOL     OW93004   9.424   6.670   1.743
30357SOL    HW193005   9.338   6.635   1.780
30357SOL    HW293006   9.499   6.608   1.766
30358SOL     OW93007   9.936   5.752   1.484
30358SOL    HW193008   9.987   5.666   1.493
30358SOL    HW293009   9.868   5.758   1.558
30359SOL     OW93010   9.403   5.818   9.952
30359SOL    HW193011   9.323   5.818   9.891
30359SOL    HW293012   9.467   5.889   9.922
30360SOL     OW93013   9.403   5.690   0.209
30360SOL    HW193014   9.388   5.747   0.129
30360SOL    HW293015   9.500   5.667   0.217
30361SOL     OW93016   9.971   6.462   1.478
30361SOL    HW193017   0.010   6.516   1.552
30361SOL    HW293018   0.040   6.449   1.406
30362SOL     OW93019   9.705   7.313   1.658
30362SOL    HW193020   9.691   7.303   1.560
30362SOL    HW293021   9.638   7.256   1.707
30363SOL     OW93022   0.066   6.352   0.586
30363SOL    HW193023   0.044   6.374   0.682
30363SOL    HW293024   9.992   6.385   0.527
30364SOL     OW93025   9.565   6.881   1.861
30364SOL    HW193026   9.494   6.818   1.829
30364SOL    HW293027   9.567   6.882   1.961
30365SOL     OW93028   9.934   6.898   1.847
30365SOL    HW193029   9.879   6.832   1.796
30365SOL    HW293030   9.915   6.990   1.812
30366SOL     OW93031   9.728   6.002   0.538
30366SOL    HW193032   9.755   5.947   0.459
30366SOL    HW293033   9.652   5.957   0.586
30367SOL     OW93034   9.698   6.188   1.275
30367SOL    HW193035   9.736   6.112   1.327
30367SOL    HW293036   9.688   6.160   1.179
30368SOL     OW93037   9.353   6.586   0.290
30368SOL    HW193038   9.452   6.575   0.298
30368SOL    HW293039   9.308   6.512   0.340
30369SOL     OW93040   9.463   6.255   2.032
30369SOL    HW193041   9.372   6.232   2.066
30369SOL    HW293042   9.468   6.235   1.934
30370SOL     OW93043   9.498   5.858   2.869
30370SOL    HW193044   9.544   5.822   2.950
30370SOL    HW293045   9.406   5.817   2.862
30371SOL     OW93046   9.286   5.959   2.478
30371SOL    HW193047   9.204   5.999   2.519
30371SOL    HW293048   9.259   5.888   2.413
30372SOL     OW93049   0.230   6.394   3.851
30372SOL    HW193050   0.295   6.452   3.802
30372SOL    HW293051   0.163   6.451   3.899
30373SOL     OW93052   9.804   7.108   3.016
30373SOL    HW193053   9.857   7.028   3.046
30373SOL    HW293054   9.840   7.140   2.928
30374SOL     OW93055   9.741   5.960   3.318
30374SOL    HW193056   9.823   5.905   3.333
30374SOL    HW293057   9.661   5.909   3.348
30375SOL     OW93058   9.559   7.270   2.361
30375SOL    HW193059   9.567   7.344   2.429
30375SOL    HW293060   9.642   7.265   2.307
30376SOL     OW93061   9.551   6.990   2.373
30376SOL    HW193062   9.549   7.089   2.391
30376SOL    HW293063   9.594   6.944   2.451
30377SOL     OW93064   9.610   6.635   2.751
30377SOL    HW193065   9.617   6.536   2.764
30377SOL    HW293066   9.606   6.680   2.840
30378SOL     OW93067   9.444   6.182   2.409
30378SOL    HW193068   9.398   6.093   2.410
30378SOL    HW293069   9.435   6.225   2.499
30379SOL     OW93070   9.377   7.143   1.999
30379SOL    HW193071   9.342   7.051   2.015
30379SOL    HW293072   9.357   7.201   2.078
30380SOL     OW93073   9.411   6.369   3.419
30380SOL    HW193074   9.497   6.419   3.425
30380SOL    HW293075   9.336   6.432   3.402
30381SOL     OW93076   9.870   6.991   2.599
30381SOL    HW193077   9.800   6.919   2.595
30381SOL    HW293078   9.893   7.019   2.506
30382SOL     OW93079   0.084   5.613   2.358
30382SOL    HW193080   0.128   5.703   2.359
30382SOL    HW293081   9.987   5.623   2.377
30383SOL     OW93082   9.525   6.529   3.153
30383SOL    HW193083   9.619   6.498   3.142
30383SOL    HW293084   9.465   6.474   3.095
30384SOL     OW93085   9.616   5.931   3.692
30384SOL    HW193086   9.664   5.989   3.757
30384SOL    HW293087   9.522   5.915   3.724
30385SOL     OW93088   9.822   6.324   2.156
30385SOL    HW193089   9.754   6.387   2.120
30385SOL    HW293090   9.790   6.289   2.245
30386SOL     OW93091   9.400   6.305   2.640
30386SOL    HW193092   9.474   6.341   2.697
30386SOL    HW293093   9.340   6.379   2.612
30387SOL     OW93094   0.195   5.877   2.023
30387SOL    HW193095   0.213   5.975   2.021
30387SOL    HW293096   0.125   5.855   1.955
30388SOL     OW93097   9.871   5.775   2.837
30388SOL    HW193098   9.867   5.762   2.936
30388SOL    HW293099   9.857   5.871   2.815
30389SOL     OW93100   9.694   7.414   2.787
30389SOL    HW193101   9.759   7.338   2.788
30389SOL    HW293102   9.743   7.500   2.805
30390SOL     OW93103   9.616   6.478   2.061
30390SOL    HW193104   9.634   6.509   1.968
30390SOL    HW293105   9.552   6.401   2.059
30391SOL     OW93106   9.765   6.850   3.544
30391SOL    HW193107   9.739   6.856   3.447
30391SOL    HW293108   9.689   6.881   3.601
30392SOL     OW93109   9.504   5.824   3.364
30392SOL    HW193110   9.426   5.883   3.350
30392SOL    HW293111   9.478   5.746   3.421
30393SOL     OW93112   9.804   7.274   2.222
30393SOL    HW193113   9.814   7.364   2.264
30393SOL    HW293114   9.873   7.263   2.150
30394SOL     OW93115   9.505   7.383   3.123
30394SOL    HW193116   9.556   7.299   3.141
30394SOL    HW293117   9.479   7.387   3.026
30395SOL     OW93118   9.719   6.216   2.384
30395SOL    HW193119   9.746   6.123   2.408
30395SOL    HW293120   9.619   6.222   2.384
30396SOL     OW93121   9.802   5.707   1.981
30396SOL    HW193122   9.889   5.675   2.019
30396SOL    HW293123   9.814   5.730   1.885
30397SOL     OW93124   0.126   6.921   2.689
30397SOL    HW193125   0.162   6.889   2.602
30397SOL    HW293126   0.031   6.949   2.677
30398SOL     OW93127   9.813   5.648   2.342
30398SOL    HW193128   9.742   5.638   2.411
30398SOL    HW293129   9.795   5.729   2.287
30399SOL     OW93130   9.589   5.561   2.047
30399SOL    HW193131   9.661   5.623   2.015
30399SOL    HW293132   9.631   5.485   2.097
30400SOL     OW93133   0.175   5.864   2.294
30400SOL    HW193134   0.174   5.863   2.194
30400SOL    HW293135   0.264   5.896   2.327
30401SOL     OW93136   9.681   6.795   2.537
30401SOL    HW193137   9.652   6.735   2.612
30401SOL    HW293138   9.683   6.742   2.452
30402SOL     OW93139   9.417   6.166   3.245
30402SOL    HW193140   9.513   6.161   3.219
30402SOL    HW293141   9.403   6.241   3.309
30403SOL     OW93142   9.857   5.743   3.103
30403SOL    HW193143   9.896   5.745   3.195
30403SOL    HW293144   9.758   5.751   3.108
30404SOL     OW93145   9.743   5.867   2.189
30404SOL    HW193146   9.766   5.805   2.113
30404SOL    HW293147   9.715   5.956   2.152
30405SOL     OW93148   9.775   6.411   3.118
30405SOL    HW193149   9.834   6.425   3.197
30405SOL    HW293150   9.736   6.319   3.122
30406SOL     OW93151   9.361   7.123   3.277
30406SOL    HW193152   9.314   7.200   3.234
30406SOL    HW293153   9.460   7.131   3.260
30407SOL     OW93154   9.679   6.667   2.266
30407SOL    HW193155   9.637   6.748   2.228
30407SOL    HW293156   9.660   6.588   2.208
30408SOL     OW93157   9.857   6.060   2.810
30408SOL    HW193158   9.854   6.124   2.734
30408SOL    HW293159   9.928   6.087   2.875
30409SOL     OW93160   9.626   7.151   3.206
30409SOL    HW193161   9.689   7.134   3.130
30409SOL    HW293162   9.673   7.201   3.278
30410SOL     OW93163   9.697   6.410   3.480
30410SOL    HW193164   9.783   6.400   3.430
30410SOL    HW293165   9.675   6.323   3.525
30411SOL     OW93166   9.777   5.740   3.578
30411SOL    HW193167   9.727   5.659   3.546
30411SOL    HW293168   9.712   5.810   3.607
30412SOL     OW93169   9.977   6.497   2.933
30412SOL    HW193170   9.959   6.596   2.929
30412SOL    HW293171   9.906   6.453   2.987
30413SOL     OW93172   9.585   5.753   3.110
30413SOL    HW193173   9.558   5.784   3.201
30413SOL    HW293174   9.552   5.660   3.096
30414SOL     OW93175   9.322   6.905   3.118
30414SOL    HW193176   9.366   6.825   3.159
30414SOL    HW293177   9.331   6.983   3.179
30415SOL     OW93178   9.608   5.621   2.516
30415SOL    HW193179   9.569   5.712   2.531
30415SOL    HW293180   9.649   5.588   2.601
30416SOL     OW93181   9.666   6.603   3.667
30416SOL    HW193182   9.719   6.684   3.643
30416SOL    HW293183   9.683   6.530   3.602
30417SOL     OW93184   9.626   6.362   2.786
30417SOL    HW193185   9.705   6.342   2.727
30417SOL    HW293186   9.608   6.283   2.845
30418SOL     OW93187   9.605   6.101   2.893
30418SOL    HW193188   9.555   6.016   2.880
30418SOL    HW293189   9.699   6.090   2.860
30419SOL     OW93190   9.278   6.881   2.049
30419SOL    HW193191   9.196   6.922   2.007
30419SOL    HW293192   9.256   6.790   2.084
30420SOL     OW93193   9.428   7.378   2.862
30420SOL    HW193194   9.376   7.317   2.801
30420SOL    HW293195   9.522   7.387   2.828
30421SOL     OW93196   9.887   7.209   2.769
30421SOL    HW193197   9.973   7.256   2.747
30421SOL    HW293198   9.875   7.132   2.707
30422SOL     OW93199   9.354   6.209   2.984
30422SOL    HW193200   9.432   6.178   2.930
30422SOL    HW293201   9.373   6.194   3.081
30423SOL     OW93202   9.546   6.202   3.599
30423SOL    HW193203   9.561   6.104   3.582
30423SOL    HW293204   9.482   6.238   3.531
30424SOL     OW93205   0.091   6.307   2.175
30424SOL    HW193206   0.107   6.289   2.272
30424SOL    HW293207   9.993   6.312   2.157
30425SOL     OW93208   9.579   7.145   3.564
30425SOL    HW193209   9.547   7.224   3.618
30425SOL    HW293210   9.560   7.061   3.615
30426SOL     OW93211   9.684   6.096   2.053
30426SOL    HW193212   9.758   6.160   2.073
30426SOL    HW293213   9.597   6.145   2.052
30427SOL     OW93214   9.437   6.732   3.311
30427SOL    HW193215   9.435   6.708   3.408
30427SOL    HW293216   9.468   6.652   3.258
30428SOL     OW93217   9.976   7.248   3.456
30428SOL    HW193218   9.881   7.277   3.441
30428SOL    HW293219   0.028   7.258   3.371
30429SOL     OW93220   9.529   5.874   2.587
30429SOL    HW193221   9.442   5.910   2.551
30429SOL    HW293222   9.527   5.875   2.687
30430SOL     OW93223   9.671   6.885   3.285
30430SOL    HW193224   9.645   6.979   3.261
30430SOL    HW293225   9.589   6.828   3.289
30431SOL     OW93226   9.911   7.050   2.338
30431SOL    HW193227   9.942   6.998   2.259
30431SOL    HW293228   9.862   7.131   2.308
30432SOL     OW93229   9.532   6.868   2.138
30432SOL    HW193230   9.437   6.875   2.108
30432SOL    HW293231   9.544   6.920   2.223
30433SOL     OW93232   9.415   6.675   3.579
30433SOL    HW193233   9.335   6.643   3.629
30433SOL    HW293234   9.498   6.639   3.621
30434SOL     OW93235   9.947   5.752   3.368
30434SOL    HW193236   0.008   5.674   3.378
30434SOL    HW293237   9.883   5.754   3.445
30435SOL     OW93238   9.341   5.912   1.930
30435SOL    HW193239   9.291   5.916   1.844
30435SOL    HW293240   9.317   5.991   1.987
30436SOL     OW93241   9.360   5.697   2.107
30436SOL    HW193242   9.344   5.769   2.039
30436SOL    HW293243   9.450   5.656   2.092
30437SOL     OW93244   9.938   6.393   3.335
30437SOL    HW193245   0.002   6.467   3.355
30437SOL    HW293246   9.988   6.314   3.300
30438SOL     OW93247   9.714   7.309   3.405
30438SOL    HW193248   9.656   7.390   3.397
30438SOL    HW293249   9.673   7.245   3.470
30439SOL     OW93250   9.834   6.274   2.634
30439SOL    HW193251   9.923   6.317   2.643
30439SOL    HW293252   9.807   6.270   2.538
30440SOL     OW93253   9.546   6.906   3.689
30440SOL    HW193254   9.476   6.840   3.661
30440SOL    HW293255   9.551   6.907   3.789
30441SOL     OW93256   9.994   7.000   3.569
30441SOL    HW193257   9.910   6.947   3.560
30441SOL    HW293258   9.981   7.090   3.528
30442SOL     OW93259   9.759   5.956   2.447
30442SOL    HW193260   9.749   5.917   2.356
30442SOL    HW293261   9.683   5.926   2.505
30443SOL     OW93262   9.670   6.161   3.152
30443SOL    HW193263   9.709   6.089   3.210
30443SOL    HW293264   9.658   6.126   3.060
30444SOL     OW93265   9.289   6.606   2.146
30444SOL    HW193266   9.380   6.619   2.108
30444SOL    HW293267   9.286   6.520   2.198
30445SOL     OW93268   9.493   6.257   3.858
30445SOL    HW193269   9.404   6.217   3.882
30445SOL    HW293270   9.509   6.245   3.760
30446SOL     OW93271   9.538   5.901   4.752
30446SOL    HW193272   9.577   5.843   4.824
30446SOL    HW293273   9.447   5.868   4.729
30447SOL     OW93274   9.299   6.001   4.374
30447SOL    HW193275   9.212   6.017   4.420
30447SOL    HW293276   9.287   5.933   4.302
30448SOL     OW93277   9.833   6.799   4.855
30448SOL    HW193278   9.752   6.855   4.837
30448SOL    HW293279   9.890   6.845   4.923
30449SOL     OW93280   9.637   6.993   4.802
30449SOL    HW193281   9.569   6.936   4.757
30449SOL    HW293282   9.684   7.049   4.734
30450SOL     OW93283   9.766   5.947   5.242
30450SOL    HW193284   9.843   5.885   5.229
30450SOL    HW293285   9.681   5.893   5.244
30451SOL     OW93286   9.482   7.301   4.190
30451SOL    HW193287   9.495   7.368   4.263
30451SOL    HW293288   9.564   7.299   4.132
30452SOL     OW93289   9.560   7.031   4.199
30452SOL    HW193290   9.518   7.120   4.216
30452SOL    HW293291   9.527   6.965   4.267
30453SOL     OW93292   9.621   6.681   4.550
30453SOL    HW193293   9.656   6.593   4.581
30453SOL    HW293294   9.568   6.724   4.624
30454SOL     OW93295   9.342   6.277   4.343
30454SOL    HW193296   9.337   6.178   4.354
30454SOL    HW293297   9.385   6.316   4.425
30455SOL     OW93298   9.324   7.126   3.772
30455SOL    HW193299   9.311   7.038   3.816
30455SOL    HW293300   9.319   7.199   3.841
30456SOL     OW93301   9.384   6.361   5.287
30456SOL    HW193302   9.468   6.398   5.248
30456SOL    HW293303   9.306   6.418   5.260
30457SOL     OW93304   9.842   7.033   4.409
30457SOL    HW193305   9.819   6.937   4.395
30457SOL    HW293306   9.846   7.079   4.320
30458SOL     OW93307   0.046   5.570   4.252
30458SOL    HW193308   0.107   5.647   4.233
30458SOL    HW293309   9.951   5.601   4.249
30459SOL     OW93310   9.465   6.512   5.038
30459SOL    HW193311   9.548   6.485   4.989
30459SOL    HW293312   9.385   6.495   4.981
30460SOL     OW93313   9.644   5.891   5.569
30460SOL    HW193314   9.680   5.954   5.637
30460SOL    HW293315   9.544   5.893   5.570
30461SOL     OW93316   9.899   6.280   4.002
30461SOL    HW193317   9.943   6.366   3.975
30461SOL    HW293318   9.839   6.296   4.080
30462SOL     OW93319   9.441   6.399   4.562
30462SOL    HW193320   9.536   6.412   4.589
30462SOL    HW293321   9.385   6.473   4.599
30463SOL     OW93322   9.416   7.473   5.338
30463SOL    HW193323   9.423   7.424   5.425
30463SOL    HW293324   9.320   7.481   5.312
30464SOL     OW93325   0.172   5.960   3.974
30464SOL    HW193326   0.194   6.025   3.902
30464SOL    HW293327   0.127   5.880   3.934
30465SOL     OW93328   9.884   5.810   4.702
30465SOL    HW193329   9.880   5.793   4.800
30465SOL    HW293330   9.851   5.902   4.682
30466SOL     OW93331   9.650   7.392   4.615
30466SOL    HW193332   9.697   7.304   4.624
30466SOL    HW293333   9.713   7.466   4.636
30467SOL     OW93334   9.567   6.517   3.916
30467SOL    HW193335   9.610   6.554   3.833
30467SOL    HW293336   9.545   6.420   3.902
30468SOL     OW93337   9.763   6.794   5.419
30468SOL    HW193338   9.747   6.818   5.323
30468SOL    HW293339   9.689   6.830   5.475
30469SOL     OW93340   9.511   5.842   5.216
30469SOL    HW193341   9.446   5.918   5.217
30469SOL    HW293342   9.468   5.762   5.258
30470SOL     OW93343   9.714   7.314   4.050
30470SOL    HW193344   9.754   7.385   4.109
30470SOL    HW293345   9.762   7.228   4.065
30471SOL     OW93346   9.506   7.387   4.945
30471SOL    HW193347   9.547   7.305   4.985
30471SOL    HW293348   9.474   7.367   4.853
30472SOL     OW93349   9.740   6.303   4.228
30472SOL    HW193350   9.729   6.205   4.245
30472SOL    HW293351   9.651   6.348   4.237
30473SOL     OW93352   9.827   5.705   3.845
30473SOL    HW193353   9.923   5.695   3.871
30473SOL    HW293354   9.820   5.714   3.745
30474SOL     OW93355   0.065   7.012   4.557
30474SOL    HW193356   0.127   6.950   4.510
30474SOL    HW293357   9.981   7.021   4.504
30475SOL     OW93358   9.796   5.663   4.199
30475SOL    HW193359   9.728   5.662   4.273
30475SOL    HW293360   9.786   5.747   4.146
30476SOL     OW93361   9.603   5.570   3.910
30476SOL    HW193362   9.679   5.627   3.880
30476SOL    HW293363   9.637   5.495   3.966
30477SOL     OW93364   0.213   5.759   4.159
30477SOL    HW193365   0.224   5.846   4.112
30477SOL    HW293366   0.283   5.750   4.230
30478SOL     OW93367   9.778   6.778   4.349
30478SOL    HW193368   9.729   6.738   4.426
30478SOL    HW293369   9.741   6.742   4.264
30479SOL     OW93370   9.366   6.107   5.171
30479SOL    HW193371   9.465   6.115   5.161
30479SOL    HW293372   9.331   6.187   5.221
30480SOL     OW93373   9.862   5.758   4.965
30480SOL    HW193374   9.901   5.748   5.057
30480SOL    HW293375   9.762   5.747   4.971
30481SOL     OW93376   9.754   5.881   4.039
30481SOL    HW193377   9.778   5.814   3.969
30481SOL    HW293378   9.737   5.970   3.995
30482SOL     OW93379   9.677   6.399   4.896
30482SOL    HW193380   9.756   6.415   4.955
30482SOL    HW293381   9.655   6.302   4.895
30483SOL     OW93382   9.337   7.113   5.059
30483SOL    HW193383   9.290   7.185   5.007
30483SOL    HW293384   9.435   7.131   5.058
30484SOL     OW93385   9.620   6.698   4.124
30484SOL    HW193386   9.603   6.777   4.066
30484SOL    HW293387   9.614   6.615   4.070
30485SOL     OW93388   9.608   7.140   5.029
30485SOL    HW193389   9.623   7.082   4.948
30485SOL    HW293390   9.696   7.161   5.072
30486SOL     OW93391   9.685   6.394   5.256
30486SOL    HW193392   9.761   6.429   5.202
30486SOL    HW293393   9.661   6.302   5.224
30487SOL     OW93394   9.789   5.698   5.442
30487SOL    HW193395   9.733   5.628   5.398
30487SOL    HW293396   9.730   5.770   5.478
30488SOL     OW93397   0.006   6.602   4.793
30488SOL    HW193398   9.936   6.670   4.814
30488SOL    HW293399   0.001   6.578   4.695
30489SOL     OW93400   9.591   5.738   4.975
30489SOL    HW193401   9.561   5.782   5.059
30489SOL    HW293402   9.536   5.655   4.960
30490SOL     OW93403   9.369   6.853   4.980
30490SOL    HW193404   9.392   6.800   5.062
30490SOL    HW293405   9.349   6.947   5.006
30491SOL     OW93406   9.606   5.657   4.391
30491SOL    HW193407   9.574   5.751   4.407
30491SOL    HW293408   9.646   5.621   4.475
30492SOL     OW93409   9.664   6.542   5.488
30492SOL    HW193410   9.714   6.627   5.468
30492SOL    HW293411   9.673   6.479   5.411
30493SOL     OW93412   9.627   6.126   4.878
30493SOL    HW193413   9.589   6.050   4.826
30493SOL    HW293414   9.727   6.119   4.879
30494SOL     OW93415   9.283   6.861   3.901
30494SOL    HW193416   9.192   6.899   3.885
30494SOL    HW293417   9.275   6.764   3.923
30495SOL     OW93418   9.396   7.355   4.694
30495SOL    HW193419   9.352   7.282   4.642
30495SOL    HW293420   9.488   7.371   4.659
30496SOL     OW93421   9.792   7.162   4.643
30496SOL    HW193422   9.881   7.189   4.680
30496SOL    HW293423   9.805   7.117   4.555
30497SOL     OW93424   9.323   6.171   4.905
30497SOL    HW193425   9.412   6.173   4.859
30497SOL    HW293426   9.336   6.145   5.000
30498SOL     OW93427   9.487   6.169   5.459
30498SOL    HW193428   9.570   6.136   5.414
30498SOL    HW293429   9.446   6.241   5.403
30499SOL     OW93430   0.110   6.162   4.141
30499SOL    HW193431   0.132   6.080   4.089
30499SOL    HW293432   0.037   6.212   4.095
30500SOL     OW93433   9.523   7.114   5.401
30500SOL    HW193434   9.502   7.188   5.465
30500SOL    HW293435   9.539   7.030   5.452
30501SOL     OW93436   9.718   6.105   3.890
30501SOL    HW193437   9.797   6.161   3.917
30501SOL    HW293438   9.636   6.163   3.888
30502SOL     OW93439   9.426   6.712   5.216
30502SOL    HW193440   9.424   6.684   5.312
30502SOL    HW293441   9.446   6.633   5.158
30503SOL     OW93442   9.447   6.791   4.729
30503SOL    HW193443   9.419   6.813   4.822
30503SOL    HW293444   9.377   6.732   4.687
30504SOL     OW93445   0.017   7.172   5.391
30504SOL    HW193446   0.022   7.220   5.479
30504SOL    HW293447   0.109   7.148   5.361
30505SOL     OW93448   9.452   7.322   5.563
30505SOL    HW193449   9.389   7.258   5.606
30505SOL    HW293450   9.515   7.360   5.631
30506SOL     OW93451   9.544   5.915   4.464
30506SOL    HW193452   9.454   5.951   4.437
30506SOL    HW293453   9.553   5.919   4.564
30507SOL     OW93454   9.647   6.881   5.188
30507SOL    HW193455   9.618   6.970   5.153
30507SOL    HW293456   9.567   6.820   5.194
30508SOL     OW93457   9.829   7.088   4.138
30508SOL    HW193458   9.900   7.031   4.096
30508SOL    HW293459   9.744   7.035   4.147
30509SOL     OW93460   9.537   6.905   3.964
30509SOL    HW193461   9.440   6.890   3.945
30509SOL    HW293462   9.548   6.965   4.043
30510SOL     OW93463   9.406   6.643   5.484
30510SOL    HW193464   9.333   6.604   5.540
30510SOL    HW293465   9.490   6.591   5.498
30511SOL     OW93466   9.954   5.737   5.234
30511SOL    HW193467   0.026   5.667   5.239
30511SOL    HW293468   9.893   5.728   5.312
30512SOL     OW93469   9.353   5.918   3.779
30512SOL    HW193470   9.296   5.920   3.697
30512SOL    HW293471   9.328   5.993   3.840
30513SOL     OW93472   9.376   5.712   3.970
30513SOL    HW193473   9.360   5.779   3.897
30513SOL    HW293474   9.465   5.667   3.955
30514SOL     OW93475   9.892   6.422   5.068
30514SOL    HW193476   9.956   6.498   5.057
30514SOL    HW293477   9.942   6.335   5.068
30515SOL     OW93478   9.658   7.347   5.301
30515SOL    HW193479   9.570   7.395   5.297
30515SOL    HW293480   9.641   7.251   5.326
30516SOL     OW93481   9.968   6.458   4.246
30516SOL    HW193482   0.020   6.451   4.332
30516SOL    HW293483   9.883   6.406   4.254
30517SOL     OW93484   9.541   6.880   5.543
30517SOL    HW193485   9.477   6.806   5.523
30517SOL    HW293486   9.545   6.895   5.642
30518SOL     OW93487   9.474   6.809   4.343
30518SOL    HW193488   9.513   6.769   4.426
30518SOL    HW293489   9.509   6.760   4.263
30519SOL     OW93490   9.973   6.930   5.529
30519SOL    HW193491   9.901   6.871   5.491
30519SOL    HW293492   9.974   7.017   5.480
30520SOL     OW93493   9.698   6.040   4.267
30520SOL    HW193494   9.720   5.975   4.194
30520SOL    HW293495   9.648   5.992   4.340
30521SOL     OW93496   9.629   6.152   5.148
30521SOL    HW193497   9.692   6.084   5.186
30521SOL    HW293498   9.631   6.146   5.048
30522SOL     OW93499   9.317   6.587   4.014
30522SOL    HW193500   9.408   6.577   3.975
30522SOL    HW293501   9.280   6.497   4.037
30523SOL     OW93502   9.476   6.252   5.713
30523SOL    HW193503   9.378   6.262   5.733
30523SOL    HW293504   9.487   6.227   5.617
30524SOL     OW93505   9.495   5.922   6.598
30524SOL    HW193506   9.541   5.889   6.681
30524SOL    HW293507   9.405   5.880   6.591
30525SOL     OW93508   9.271   6.019   6.230
30525SOL    HW193509   9.180   6.033   6.270
30525SOL    HW293510   9.264   5.959   6.151
30526SOL     OW93511   9.852   6.808   6.689
30526SOL    HW193512   9.789   6.886   6.694
30526SOL    HW293513   9.931   6.825   6.749
30527SOL     OW93514   9.686   7.028   6.674
30527SOL    HW193515   9.610   6.982   6.627
30527SOL    HW293516   9.731   7.091   6.611
30528SOL     OW93517   9.700   6.032   7.162
30528SOL    HW193518   9.787   5.986   7.144
30528SOL    HW293519   9.625   5.966   7.152
30529SOL     OW93520   9.549   7.282   6.079
30529SOL    HW193521   9.551   7.356   6.146
30529SOL    HW293522   9.636   7.280   6.029
30530SOL     OW93523   9.589   7.013   6.052
30530SOL    HW193524   9.566   7.108   6.075
30530SOL    HW293525   9.537   6.951   6.110
30531SOL     OW93526   9.613   6.714   6.394
30531SOL    HW193527   9.607   6.618   6.421
30531SOL    HW293528   9.577   6.772   6.467
30532SOL     OW93529   9.404   6.265   6.187
30532SOL    HW193530   9.357   6.179   6.211
30532SOL    HW293531   9.381   6.335   6.254
30533SOL     OW93532   9.315   7.138   5.698
30533SOL    HW193533   9.290   7.042   5.712
30533SOL    HW293534   9.320   7.184   5.786
30534SOL     OW93535   9.442   6.330   7.107
30534SOL    HW193536   9.525   6.369   7.067
30534SOL    HW293537   9.363   6.388   7.084
30535SOL     OW93538   9.842   6.991   6.331
30535SOL    HW193539   9.808   6.906   6.369
30535SOL    HW293540   9.850   6.983   6.231
30536SOL     OW93541   0.057   5.531   6.135
30536SOL    HW193542   0.108   5.618   6.138
30536SOL    HW293543   9.959   5.550   6.130
30537SOL     OW93544   9.494   6.565   6.873
30537SOL    HW193545   9.566   6.498   6.887
30537SOL    HW293546   9.478   6.577   6.774
30538SOL     OW93547   9.661   5.801   7.399
30538SOL    HW193548   9.724   5.871   7.432
30538SOL    HW293549   9.568   5.837   7.402
30539SOL     OW93550   9.797   6.304   5.898
30539SOL    HW193551   9.748   6.376   5.850
30539SOL    HW293552   9.758   6.291   5.989
30540SOL     OW93553   9.354   6.491   6.366
30540SOL    HW193554   9.441   6.468   6.410
30540SOL    HW293555   9.315   6.572   6.410
30541SOL     OW93556   9.441   7.438   7.209
30541SOL    HW193557   9.453   7.403   7.302
30541SOL    HW293558   9.346   7.421   7.180
30542SOL     OW93559   0.221   5.916   5.846
30542SOL    HW193560   0.240   6.011   5.824
30542SOL    HW293561   0.159   5.877   5.777
30543SOL     OW93562   9.793   5.792   6.550
30543SOL    HW193563   9.820   5.821   6.642
30543SOL    HW293564   9.801   5.869   6.487
30544SOL     OW93565   9.675   7.418   6.500
30544SOL    HW193566   9.735   7.339   6.508
30544SOL    HW293567   9.727   7.502   6.515
30545SOL     OW93568   9.632   6.471   5.755
30545SOL    HW193569   9.656   6.504   5.664
30545SOL    HW293570   9.570   6.394   5.749
30546SOL     OW93571   9.767   6.784   7.274
30546SOL    HW193572   9.742   6.814   7.182
30546SOL    HW293573   9.703   6.822   7.340
30547SOL     OW93574   9.499   5.853   7.105
30547SOL    HW193575   9.412   5.897   7.086
30547SOL    HW293576   9.483   5.763   7.147
30548SOL     OW93577   9.788   7.299   5.951
30548SOL    HW193578   9.828   7.379   5.997
30548SOL    HW293579   9.861   7.243   5.911
30549SOL     OW93580   9.511   7.391   6.811
30549SOL    HW193581   9.548   7.306   6.850
30549SOL    HW293582   9.484   7.375   6.717
30550SOL     OW93583   9.679   6.246   6.142
30550SOL    HW193584   9.702   6.150   6.157
30550SOL    HW293585   9.581   6.260   6.155
30551SOL     OW93586   9.844   5.715   5.710
30551SOL    HW193587   9.926   5.680   5.755
30551SOL    HW293588   9.847   5.692   5.613
30552SOL     OW93589   0.099   6.991   6.425
30552SOL    HW193590   0.137   6.926   6.359
30552SOL    HW293591   0.002   7.006   6.405
30553SOL     OW93592   9.805   5.646   6.085
30553SOL    HW193593   9.731   5.644   6.152
30553SOL    HW293594   9.797   5.729   6.029
30554SOL     OW93595   9.597   5.592   5.738
30554SOL    HW193596   9.669   5.657   5.714
30554SOL    HW293597   9.636   5.520   5.795
30555SOL     OW93598   0.162   5.782   6.071
30555SOL    HW193599   0.187   5.839   5.993
30555SOL    HW293600   0.244   5.762   6.125
30556SOL     OW93601   9.854   6.692   6.250
30556SOL    HW193602   9.768   6.692   6.302
30556SOL    HW293603   9.843   6.752   6.170
30557SOL     OW93604   9.404   6.136   6.920
30557SOL    HW193605   9.498   6.114   6.893
30557SOL    HW293606   9.405   6.206   6.992
30558SOL     OW93607   9.826   5.885   6.810
30558SOL    HW193608   9.873   5.880   6.898
30558SOL    HW293609   9.734   5.846   6.818
30559SOL     OW93610   9.755   5.862   5.919
30559SOL    HW193611   9.791   5.804   5.847
30559SOL    HW293612   9.719   5.947   5.880
30560SOL     OW93613   9.675   6.376   6.926
30560SOL    HW193614   9.770   6.399   6.950
30560SOL    HW293615   9.669   6.280   6.899
30561SOL     OW93616   9.330   7.141   6.936
30561SOL    HW193617   9.286   7.205   6.873
30561SOL    HW293618   9.429   7.148   6.926
30562SOL     OW93619   9.557   6.667   5.939
30562SOL    HW193620   9.568   6.752   5.888
30562SOL    HW293621   9.596   6.592   5.886
30563SOL     OW93622   9.841   6.168   6.497
30563SOL    HW193623   9.870   6.233   6.426
30563SOL    HW293624   9.916   6.156   6.563
30564SOL     OW93625   9.598   7.146   6.903
30564SOL    HW193626   9.647   7.101   6.828
30564SOL    HW293627   9.664   7.182   6.969
30565SOL     OW93628   9.780   6.327   7.212
30565SOL    HW193629   9.843   6.353   7.138
30565SOL    HW293630   9.763   6.228   7.207
30566SOL     OW93631   9.808   5.655   7.212
30566SOL    HW193632   9.756   5.579   7.174
30566SOL    HW293633   9.753   5.702   7.282
30567SOL     OW93634   9.575   5.802   6.844
30567SOL    HW193635   9.551   5.827   6.938
30567SOL    HW293636   9.540   5.711   6.823
30568SOL     OW93637   9.378   6.887   6.840
30568SOL    HW193638   9.375   6.819   6.913
30568SOL    HW293639   9.346   6.975   6.875
30569SOL     OW93640   9.586   5.645   6.247
30569SOL    HW193641   9.549   5.737   6.261
30569SOL    HW293642   9.612   5.605   6.334
30570SOL     OW93643   9.694   6.533   7.369
30570SOL    HW193644   9.737   6.615   7.332
30570SOL    HW293645   9.724   6.453   7.316
30571SOL     OW93646   9.589   6.453   6.498
30571SOL    HW193647   9.668   6.491   6.545
30571SOL    HW293648   9.582   6.355   6.519
30572SOL     OW93649   9.576   6.180   6.552
30572SOL    HW193650   9.542   6.087   6.569
30572SOL    HW293651   9.674   6.176   6.532
30573SOL     OW93652   9.265   6.873   5.782
30573SOL    HW193653   9.175   6.899   5.746
30573SOL    HW293654   9.261   6.780   5.819
30574SOL     OW93655   9.414   7.346   6.559
30574SOL    HW193656   9.374   7.274   6.503
30574SOL    HW293657   9.505   7.369   6.524
30575SOL     OW93658   9.834   7.198   6.510
30575SOL    HW193659   9.929   7.225   6.530
30575SOL    HW293660   9.834   7.135   6.433
30576SOL     OW93661   9.319   6.215   6.669
30576SOL    HW193662   9.404   6.217   6.616
30576SOL    HW293663   9.339   6.185   6.762
30577SOL     OW93664   9.512   6.166   7.322
30577SOL    HW193665   9.589   6.121   7.277
30577SOL    HW293666   9.471   6.233   7.260
30578SOL     OW93667   0.066   6.257   5.879
30578SOL    HW193668   0.088   6.251   5.977
30578SOL    HW293669   9.969   6.278   5.869
30579SOL     OW93670   9.540   7.104   7.291
30579SOL    HW193671   9.525   7.177   7.358
30579SOL    HW293672   9.556   7.018   7.339
30580SOL     OW93673   9.682   6.083   5.779
30580SOL    HW193674   9.748   6.150   5.815
30580SOL    HW293675   9.595   6.128   5.762
30581SOL     OW93676   9.395   6.715   7.067
30581SOL    HW193677   9.418   6.687   7.160
30581SOL    HW293678   9.439   6.654   7.002
30582SOL     OW93679   9.470   6.853   6.588
30582SOL    HW193680   9.446   6.867   6.684
30582SOL    HW293681   9.394   6.811   6.540
30583SOL     OW93682   0.010   7.138   7.365
30583SOL    HW193683   0.003   7.195   7.447
30583SOL    HW293684   0.095   7.160   7.316
30584SOL     OW93685   9.467   7.311   7.452
30584SOL    HW193686   9.401   7.244   7.485
30584SOL    HW293687   9.509   7.358   7.530
30585SOL     OW93688   9.511   5.903   6.318
30585SOL    HW193689   9.427   5.947   6.287
30585SOL    HW293690   9.518   5.910   6.417
30586SOL     OW93691   9.633   6.879   7.053
30586SOL    HW193692   9.617   6.963   7.001
30586SOL    HW293693   9.549   6.825   7.055
30587SOL     OW93694   9.837   6.900   6.061
30587SOL    HW193695   9.885   6.892   5.974
30587SOL    HW293696   9.749   6.945   6.047
30588SOL     OW93697   9.531   6.906   5.811
30588SOL    HW193698   9.431   6.904   5.804
30588SOL    HW293699   9.558   6.961   5.890
30589SOL     OW93700   9.446   6.642   7.323
30589SOL    HW193701   9.367   6.599   7.368
30589SOL    HW293702   9.528   6.589   7.342
30590SOL     OW93703   9.904   5.871   7.074
30590SOL    HW193704   0.004   5.871   7.078
30590SOL    HW293705   9.869   5.789   7.119
30591SOL     OW93706   9.379   5.941   5.591
30591SOL    HW193707   9.296   5.912   5.543
30591SOL    HW293708   9.408   6.031   5.556
30592SOL     OW93709   9.376   5.746   5.800
30592SOL    HW193710   9.367   5.820   5.733
30592SOL    HW293711   9.461   5.697   5.783
30593SOL     OW93712   9.947   6.389   6.999
30593SOL    HW193713  10.000   6.473   6.986
30593SOL    HW293714   0.004   6.310   6.978
30594SOL     OW93715   9.665   7.294   7.134
30594SOL    HW193716   9.587   7.356   7.143
30594SOL    HW293717   9.649   7.211   7.187
30595SOL     OW93718   9.880   6.368   6.284
30595SOL    HW193719   9.873   6.468   6.284
30595SOL    HW293720   9.802   6.329   6.235
30596SOL     OW93721   9.564   6.870   7.431
30596SOL    HW193722   9.506   6.795   7.399
30596SOL    HW293723   9.550   6.883   7.529
30597SOL     OW93724   9.469   6.801   6.176
30597SOL    HW193725   9.516   6.768   6.258
30597SOL    HW293726   9.494   6.743   6.098
30598SOL     OW93727   9.998   6.872   7.394
30598SOL    HW193728   9.923   6.828   7.344
30598SOL    HW293729   9.994   6.970   7.380
30599SOL     OW93730   9.736   5.977   6.171
30599SOL    HW193731   9.734   5.932   6.082
30599SOL    HW293732   9.657   5.948   6.225
30600SOL     OW93733   9.677   6.107   6.896
30600SOL    HW193734   9.689   6.085   6.993
30600SOL    HW293735   9.734   6.047   6.840
30601SOL     OW93736   9.291   6.628   5.918
30601SOL    HW193737   9.390   6.641   5.925
30601SOL    HW293738   9.269   6.532   5.936
30602SOL     OW93739   9.505   6.243   7.588
30602SOL    HW193740   9.418   6.216   7.629
30602SOL    HW293741   9.503   6.227   7.490
30603SOL     OW93742   9.545   5.883   8.480
30603SOL    HW193743   9.551   5.847   8.573
30603SOL    HW293744   9.460   5.850   8.437
30604SOL     OW93745   9.815   6.796   8.609
30604SOL    HW193746   9.756   6.871   8.579
30604SOL    HW293747   9.871   6.827   8.686
30605SOL     OW93748   9.661   7.006   8.519
30605SOL    HW193749   9.585   6.954   8.481
30605SOL    HW293750   9.711   7.051   8.445
30606SOL     OW93751   9.751   5.945   8.933
30606SOL    HW193752   9.830   5.885   8.950
30606SOL    HW293753   9.667   5.897   8.957
30607SOL     OW93754   9.489   7.302   7.918
30607SOL    HW193755   9.528   7.371   7.978
30607SOL    HW293756   9.474   7.217   7.969
30608SOL     OW93757   9.433   7.082   8.065
30608SOL    HW193758   9.381   7.098   8.149
30608SOL    HW293759   9.453   6.985   8.055
30609SOL     OW93760   9.584   6.698   8.270
30609SOL    HW193761   9.594   6.603   8.298
30609SOL    HW293762   9.546   6.752   8.345
30610SOL     OW93763   9.433   6.325   8.052
30610SOL    HW193764   9.417   6.231   8.083
30610SOL    HW293765   9.402   6.388   8.123
30611SOL     OW93766   9.310   7.120   7.559
30611SOL    HW193767   9.276   7.027   7.568
30611SOL    HW293768   9.278   7.176   7.636
30612SOL     OW93769   9.425   6.354   8.984
30612SOL    HW193770   9.511   6.404   8.988
30612SOL    HW293771   9.350   6.418   8.964
30613SOL     OW93772   9.921   6.994   8.127
30613SOL    HW193773   9.865   6.911   8.120
30613SOL    HW293774   9.942   7.027   8.036
30614SOL     OW93775   0.088   5.557   7.957
30614SOL    HW193776   0.150   5.617   8.007
30614SOL    HW293777   9.996   5.597   7.956
30615SOL     OW93778   9.521   6.555   8.775
30615SOL    HW193779   9.606   6.503   8.767
30615SOL    HW293780   9.474   6.555   8.687
30616SOL     OW93781   9.621   5.839   9.326
30616SOL    HW193782   9.662   5.915   9.377
30616SOL    HW293783   9.523   5.856   9.315
30617SOL     OW93784   9.885   6.322   7.800
30617SOL    HW193785   9.911   6.416   7.779
30617SOL    HW293786   9.820   6.322   7.876
30618SOL     OW93787   9.351   6.488   8.256
30618SOL    HW193788   9.434   6.465   8.307
30618SOL    HW293789   9.307   6.567   8.297
30619SOL     OW93790   9.404   7.472   9.043
30619SOL    HW193791   9.420   7.440   9.137
30619SOL    HW293792   9.314   7.440   9.012
30620SOL     OW93793   0.194   5.997   7.641
30620SOL    HW193794   0.158   5.986   7.548
30620SOL    HW293795   0.171   5.916   7.695
30621SOL     OW93796   9.771   5.727   8.440
30621SOL    HW193797   9.815   5.723   8.530
30621SOL    HW293798   9.694   5.791   8.443
30622SOL     OW93799   9.668   7.368   8.318
30622SOL    HW193800   9.720   7.283   8.322
30622SOL    HW293801   9.727   7.445   8.343
30623SOL     OW93802   9.598   6.515   7.628
30623SOL    HW193803   9.643   6.528   7.541
30623SOL    HW293804   9.562   6.422   7.634
30624SOL     OW93805   9.765   6.811   9.157
30624SOL    HW193806   9.755   6.841   9.062
30624SOL    HW293807   9.695   6.855   9.213
30625SOL     OW93808   9.504   5.826   8.972
30625SOL    HW193809   9.423   5.874   8.938
30625SOL    HW293810   9.476   5.747   9.026
30626SOL     OW93811   9.541   7.386   8.636
30626SOL    HW193812   9.577   7.304   8.680
30626SOL    HW293813   9.501   7.361   8.547
30627SOL     OW93814   9.702   6.269   7.999
30627SOL    HW193815   9.681   6.173   7.984
30627SOL    HW293816   9.618   6.320   8.015
30628SOL     OW93817   9.914   5.736   7.583
30628SOL    HW193818   9.984   5.751   7.652
30628SOL    HW293819   9.899   5.638   7.571
30629SOL     OW93820   0.140   6.969   8.298
30629SOL    HW193821   0.207   6.915   8.248
30629SOL    HW293822   0.056   6.977   8.244
30630SOL     OW93823   9.821   5.650   7.908
30630SOL    HW193824   9.757   5.632   7.982
30630SOL    HW293825   9.804   5.742   7.871
30631SOL     OW93826   9.597   5.609   7.582
30631SOL    HW193827   9.635   5.674   7.517
30631SOL    HW293828   9.671   5.556   7.623
30632SOL     OW93829   9.765   6.779   8.079
30632SOL    HW193830   9.709   6.744   8.153
30632SOL    HW293831   9.725   6.754   7.991
30633SOL     OW93832   9.439   6.140   8.816
30633SOL    HW193833   9.535   6.134   8.788
30633SOL    HW293834   9.426   6.220   8.874
30634SOL     OW93835   9.850   5.733   8.700
30634SOL    HW193836   9.897   5.730   8.788
30634SOL    HW293837   9.752   5.748   8.716
30635SOL     OW93838   9.754   5.889   7.750
30635SOL    HW193839   9.803   5.829   7.686
30635SOL    HW293840   9.753   5.982   7.714
30636SOL     OW93841   9.747   6.406   8.748
30636SOL    HW193842   9.817   6.434   8.814
30636SOL    HW293843   9.736   6.307   8.751
30637SOL     OW93844   9.361   7.142   8.786
30637SOL    HW193845   9.316   7.204   8.721
30637SOL    HW293846   9.460   7.155   8.781
30638SOL     OW93847   9.621   6.719   7.846
30638SOL    HW193848   9.588   6.794   7.788
30638SOL    HW293849   9.628   6.636   7.791
30639SOL     OW93850   9.839   6.189   8.437
30639SOL    HW193851   9.869   6.211   8.344
30639SOL    HW293852   9.918   6.188   8.499
30640SOL     OW93853   9.632   7.147   8.747
30640SOL    HW193854   9.650   7.092   8.666
30640SOL    HW293855   9.719   7.180   8.785
30641SOL     OW93856   9.712   6.392   9.073
30641SOL    HW193857   9.793   6.423   9.023
30641SOL    HW293858   9.723   6.295   9.097
30642SOL     OW93859   9.781   5.690   9.165
30642SOL    HW193860   9.733   5.612   9.126
30642SOL    HW293861   9.716   5.747   9.215
30643SOL     OW93862   9.803   6.541   8.522
30643SOL    HW193863   9.800   6.637   8.548
30643SOL    HW293864   9.788   6.483   8.602
30644SOL     OW93865   9.577   5.751   8.716
30644SOL    HW193866   9.549   5.770   8.810
30644SOL    HW293867   9.561   5.655   8.695
30645SOL     OW93868   9.386   6.880   8.716
30645SOL    HW193869   9.405   6.826   8.798
30645SOL    HW293870   9.367   6.975   8.743
30646SOL     OW93871   9.626   5.601   8.093
30646SOL    HW193872   9.575   5.687   8.104
30646SOL    HW293873   9.636   5.557   8.182
30647SOL     OW93874   9.663   6.576   9.267
30647SOL    HW193875   9.714   6.657   9.236
30647SOL    HW293876   9.679   6.500   9.203
30648SOL     OW93877   9.588   6.436   8.382
30648SOL    HW193878   9.672   6.468   8.428
30648SOL    HW293879   9.580   6.337   8.394
30649SOL     OW93880   9.575   6.153   8.429
30649SOL    HW193881   9.558   6.055   8.439
30649SOL    HW293882   9.674   6.170   8.431
30650SOL     OW93883   9.248   6.849   7.606
30650SOL    HW193884   9.161   6.833   7.560
30650SOL    HW293885   9.284   6.762   7.640
30651SOL     OW93886   9.409   7.329   8.393
30651SOL    HW193887   9.364   7.257   8.340
30651SOL    HW293888   9.501   7.344   8.357
30652SOL     OW93889   9.821   7.141   8.340
30652SOL    HW193890   9.902   7.161   8.395
30652SOL    HW293891   9.848   7.092   8.257
30653SOL     OW93892   9.334   6.173   8.566
30653SOL    HW193893   9.410   6.177   8.502
30653SOL    HW293894   9.369   6.163   8.660
30654SOL     OW93895   9.496   6.153   9.152
30654SOL    HW193896   9.530   6.079   9.094
30654SOL    HW293897   9.463   6.228   9.095
30655SOL     OW93898   0.061   6.119   7.847
30655SOL    HW193899   0.110   6.089   7.765
30655SOL    HW293900   9.998   6.193   7.824
30656SOL     OW93901   9.525   7.137   9.143
30656SOL    HW193902   9.504   7.213   9.205
30656SOL    HW293903   9.540   7.054   9.196
30657SOL     OW93904   9.755   6.144   7.640
30657SOL    HW193905   9.799   6.208   7.703
30657SOL    HW293906   9.661   6.174   7.623
30658SOL     OW93907   9.441   6.742   8.950
30658SOL    HW193908   9.436   6.712   9.045
30658SOL    HW293909   9.473   6.666   8.893
30659SOL     OW93910   9.444   6.839   8.458
30659SOL    HW193911   9.427   6.853   8.556
30659SOL    HW293912   9.364   6.796   8.416
30660SOL     OW93913   9.451   7.357   9.287
30660SOL    HW193914   9.393   7.295   9.339
30660SOL    HW293915   9.508   7.411   9.350
30661SOL     OW93916   9.478   5.829   8.122
30661SOL    HW193917   9.415   5.806   8.048
30661SOL    HW293918   9.427   5.838   8.208
30662SOL     OW93919   9.667   6.909   8.920
30662SOL    HW193920   9.643   6.992   8.869
30662SOL    HW293921   9.587   6.850   8.928
30663SOL     OW93922   9.991   7.037   7.860
30663SOL    HW193923   9.980   6.960   7.797
30663SOL    HW293924   0.014   7.119   7.808
30664SOL     OW93925   9.503   6.918   7.697
30664SOL    HW193926   9.407   6.900   7.673
30664SOL    HW293927   9.512   7.012   7.727
30665SOL     OW93928   9.413   6.673   9.212
30665SOL    HW193929   9.334   6.643   9.265
30665SOL    HW293930   9.494   6.624   9.242
30666SOL     OW93931   9.953   5.730   8.962
30666SOL    HW193932   0.022   5.658   8.967
30666SOL    HW293933   9.890   5.722   9.039
30667SOL     OW93934   9.416   5.926   7.426
30667SOL    HW193935   9.326   5.914   7.385
30667SOL    HW293936   9.450   6.018   7.407
30668SOL     OW93937   9.378   5.736   7.679
30668SOL    HW193938   9.361   5.811   7.614
30668SOL    HW293939   9.462   5.689   7.653
30669SOL     OW93940   9.925   6.507   8.931
30669SOL    HW193941   9.916   6.595   8.976
30669SOL    HW293942   0.013   6.502   8.884
30670SOL     OW93943   9.650   7.347   9.009
30670SOL    HW193944   9.565   7.398   8.997
30670SOL    HW293945   9.630   7.257   9.049
30671SOL     OW93946   9.919   6.264   8.178
30671SOL    HW193947   9.941   6.351   8.223
30671SOL    HW293948   9.841   6.277   8.117
30672SOL     OW93949   9.545   6.904   9.283
30672SOL    HW193950   9.484   6.832   9.251
30672SOL    HW293951   9.540   6.910   9.383
30673SOL     OW93952   9.449   6.806   8.054
30673SOL    HW193953   9.490   6.766   8.136
30673SOL    HW293954   9.496   6.772   7.973
30674SOL     OW93955   9.615   6.013   7.961
30674SOL    HW193956   9.652   5.960   7.885
30674SOL    HW293957   9.565   5.952   8.023
30675SOL     OW93958   9.707   6.135   8.747
30675SOL    HW193959   9.733   6.066   8.815
30675SOL    HW293960   9.751   6.113   8.660
30676SOL     OW93961   9.358   6.623   7.714
30676SOL    HW193962   9.447   6.610   7.672
30676SOL    HW293963   9.325   6.537   7.753
30677SOL     OW93964   9.444   6.126   9.414
30677SOL    HW193965   9.364   6.177   9.445
30677SOL    HW293966   9.464   6.151   9.319
30678SOL     OW93967   9.490   7.304   9.772
30678SOL    HW193968   9.493   7.372   9.845
30678SOL    HW293969   9.573   7.310   9.717
30679SOL     OW93970   9.599   7.043   9.763
30679SOL    HW193971   9.547   7.124   9.789
30679SOL    HW293972   9.572   6.966   9.822
30680SOL     OW93973   9.355   6.301   9.863
30680SOL    HW193974   9.274   6.254   9.829
30680SOL    HW293975   9.329   6.363   9.937
30681SOL     OW93976   9.319   7.184   9.441
30681SOL    HW193977   9.288   7.091   9.462
30681SOL    HW293978   9.294   7.245   9.516
30682SOL     OW93979   0.117   5.593   9.849
30682SOL    HW193980   0.159   5.682   9.831
30682SOL    HW293981   0.018   5.603   9.851
30683SOL     OW93982   9.764   6.289   9.612
30683SOL    HW193983   9.738   6.379   9.576
30683SOL    HW293984   9.718   6.274   9.699
30684SOL     OW93985   9.246   6.424   0.079
30684SOL    HW193986   9.216   6.343   0.131
30684SOL    HW293987   9.274   6.495   0.142
30685SOL     OW93988   0.266   6.037   9.563
30685SOL    HW193989   0.364   6.046   9.542
30685SOL    HW293990   0.217   6.009   9.480
30686SOL     OW93991   9.618   7.450   0.187
30686SOL    HW193992   9.636   7.361   0.230
30686SOL    HW293993   9.705   7.496   0.168
30687SOL     OW93994   9.636   6.524   9.537
30687SOL    HW193995   9.650   6.546   9.440
30687SOL    HW293996   9.547   6.479   9.548
30688SOL     OW93997   9.733   7.344   9.658
30688SOL    HW193998   9.775   7.407   9.723
30688SOL    HW293999   9.788   7.261   9.653
30689SOL     OW94000   9.620   6.239   9.838
30689SOL    HW194001   9.622   6.139   9.843
30689SOL    HW294002   9.526   6.271   9.841
30690SOL     OW94003   9.939   5.805   9.366
30690SOL    HW194004   9.984   5.744   9.431
30690SOL    HW294005   9.891   5.752   9.297
30691SOL     OW94006   9.843   5.666   9.842
30691SOL    HW194007   9.750   5.646   9.875
30691SOL    HW294008   9.839   5.743   9.778
30692SOL     OW94009   9.596   5.615   9.478
30692SOL    HW194010   9.625   5.695   9.425
30692SOL    HW294011   9.675   5.575   9.523
30693SOL     OW94012   0.182   5.849   9.757
30693SOL    HW194013   0.221   5.917   9.694
30693SOL    HW294014   0.162   5.893   9.845
30694SOL     OW94015   9.720   6.613   0.048
30694SOL    HW194016   9.714   6.704   0.089
30694SOL    HW294017   9.724   6.622   9.948
30695SOL     OW94018   9.814   5.865   9.659
30695SOL    HW194019   9.890   5.836   9.601
30695SOL    HW294020   9.758   5.931   9.609
30696SOL     OW94021   9.716   6.649   9.770
30696SOL    HW194022   9.649   6.718   9.798
30696SOL    HW294023   9.685   6.604   9.686
30697SOL     OW94024   9.591   5.624   9.937
30697SOL    HW194025   9.520   5.694   9.938
30697SOL    HW294026   9.611   5.595   0.031
30698SOL     OW94027   9.238   6.929   9.516
30698SOL    HW194028   9.173   6.944   9.441
30698SOL    HW294029   9.201   6.862   9.579
30699SOL     OW94030   9.681   6.050   9.510
30699SOL    HW194031   9.732   6.131   9.538
30699SOL    HW294032   9.589   6.076   9.482
30700SOL     OW94033   9.856   7.098   9.690
30700SOL    HW194034   9.898   7.030   9.630
30700SOL    HW294035   9.765   7.067   9.717
30701SOL     OW94036   9.505   6.903   9.547
30701SOL    HW194037   9.409   6.927   9.537
30701SOL    HW294038   9.546   6.961   9.619
30702SOL     OW94039   9.347   5.890   9.329
30702SOL    HW194040   9.284   5.909   9.253
30702SOL    HW294041   9.378   5.977   9.369
30703SOL     OW94042   9.347   5.713   9.540
30703SOL    HW194043   9.328   5.773   9.463
30703SOL    HW294044   9.440   5.676   9.532
30704SOL     OW94045   9.810   6.351   0.000
30704SOL    HW194046   9.796   6.449   0.012
30704SOL    HW294047   9.740   6.315   9.938
30705SOL     OW94048   9.514   6.808   9.873
30705SOL    HW194049   9.472   6.806   9.964
30705SOL    HW294050   9.454   6.762   9.808
30706SOL     OW94051   9.628   5.967   9.870
30706SOL    HW194052   9.699   5.928   9.811
30706SOL    HW294053   9.664   5.976   9.963
30707SOL     OW94054   9.389   6.684   9.669
30707SOL    HW194055   9.439   6.744   9.607
30707SOL    HW294056   9.391   6.590   9.634
30708SOL     OW94057   9.356   7.967   0.044
30708SOL    HW194058   9.281   7.991   0.105
30708SOL    HW294059   9.359   8.032   9.967
30709SOL     OW94060   9.523   7.734   0.988
30709SOL    HW194061   9.571   7.686   1.062
30709SOL    HW294062   9.434   7.691   0.972
30710SOL     OW94063   9.289   7.874   0.636
30710SOL    HW194064   9.203   7.889   0.686
30710SOL    HW294065   9.276   7.802   0.568
30711SOL     OW94066   9.804   8.635   1.085
30711SOL    HW194067   9.748   8.714   1.058
30711SOL    HW294068   9.871   8.663   1.154
30712SOL     OW94069   0.108   8.318   1.905
30712SOL    HW194070   0.206   8.328   1.886
30712SOL    HW294071   0.056   8.353   1.827
30713SOL     OW94072   9.680   8.877   1.013
30713SOL    HW194073   9.590   8.882   0.970
30713SOL    HW294074   9.747   8.924   0.956
30714SOL     OW94075   9.703   7.817   1.485
30714SOL    HW194076   9.787   7.766   1.503
30714SOL    HW294077   9.627   7.772   1.531
30715SOL     OW94078   9.564   9.153   0.448
30715SOL    HW194079   9.572   9.229   0.513
30715SOL    HW294080   9.653   9.133   0.409
30716SOL     OW94081   9.495   8.921   0.565
30716SOL    HW194082   9.529   9.007   0.527
30716SOL    HW294083   9.571   8.869   0.604
30717SOL     OW94084   9.607   8.555   0.821
30717SOL    HW194085   9.629   8.461   0.848
30717SOL    HW294086   9.548   8.596   0.890
30718SOL     OW94087   9.400   8.123   0.564
30718SOL    HW194088   9.359   8.034   0.585
30718SOL    HW294089   9.396   8.181   0.645
30719SOL     OW94090   9.431   8.962   0.157
30719SOL    HW194091   9.378   8.880   0.135
30719SOL    HW294092   9.370   9.034   0.189
30720SOL     OW94093   9.386   8.233   1.560
30720SOL    HW194094   9.477   8.275   1.554
30720SOL    HW294095   9.316   8.302   1.538
30721SOL     OW94096   0.059   7.409   0.520
30721SOL    HW194097   0.099   7.500   0.509
30721SOL    HW294098   9.960   7.415   0.509
30722SOL     OW94099   9.520   8.376   1.321
30722SOL    HW194100   9.611   8.342   1.298
30722SOL    HW294101   9.458   8.357   1.245
30723SOL     OW94102   9.611   7.747   1.866
30723SOL    HW194103   9.664   7.816   1.916
30723SOL    HW294104   9.518   7.744   1.903
30724SOL     OW94105   9.748   8.071   0.237
30724SOL    HW194106   9.784   8.145   0.180
30724SOL    HW294107   9.716   8.108   0.324
30725SOL     OW94108   9.394   8.284   0.786
30725SOL    HW194109   9.486   8.278   0.824
30725SOL    HW294110   9.335   8.333   0.850
30726SOL     OW94111   9.465   9.320   1.622
30726SOL    HW194112   9.457   9.279   1.712
30726SOL    HW294113   9.390   9.287   1.564
30727SOL     OW94114   0.202   7.738   0.227
30727SOL    HW194115   0.288   7.788   0.220
30727SOL    HW294116   0.137   7.773   0.159
30728SOL     OW94117   9.880   7.682   0.997
30728SOL    HW194118   9.873   7.666   1.095
30728SOL    HW294119   9.866   7.779   0.978
30729SOL     OW94120   9.724   9.243   0.865
30729SOL    HW194121   9.784   9.163   0.870
30729SOL    HW294122   9.774   9.324   0.892
30730SOL     OW94123   9.736   8.364   0.398
30730SOL    HW194124   9.815   8.344   0.340
30730SOL    HW294125   9.712   8.283   0.452
30731SOL     OW94126   9.756   8.669   1.727
30731SOL    HW194127   9.738   8.698   1.633
30731SOL    HW294128   9.687   8.708   1.787
30732SOL     OW94129   9.827   9.114   0.371
30732SOL    HW194130   9.844   9.207   0.403
30732SOL    HW294131   9.888   9.093   0.295
30733SOL     OW94132   9.609   9.228   1.206
30733SOL    HW194133   9.655   9.148   1.243
30733SOL    HW294134   9.565   9.204   1.119
30734SOL     OW94135   9.672   8.117   0.509
30734SOL    HW194136   9.703   8.023   0.523
30734SOL    HW294137   9.574   8.123   0.526
30735SOL     OW94138   9.854   7.569   0.110
30735SOL    HW194139   9.946   7.537   0.128
30735SOL    HW294140   9.837   7.567   0.011
30736SOL     OW94141   0.119   8.865   0.960
30736SOL    HW194142   0.127   8.879   0.861
30736SOL    HW294143   0.103   8.768   0.978
30737SOL     OW94144   9.790   7.489   0.468
30737SOL    HW194145   9.730   7.491   0.548
30737SOL    HW294146   9.777   7.572   0.414
30738SOL     OW94147   0.165   7.658   0.485
30738SOL    HW194148   0.186   7.687   0.391
30738SOL    HW294149   0.249   7.628   0.530
30739SOL     OW94150   9.698   8.741   0.627
30739SOL    HW194151   9.683   8.688   0.710
30739SOL    HW294152   9.678   8.684   0.547
30740SOL     OW94153   9.398   8.030   1.383
30740SOL    HW194154   9.496   8.020   1.365
30740SOL    HW294155   9.383   8.105   1.447
30741SOL     OW94156   9.848   7.650   1.262
30741SOL    HW194157   9.884   7.646   1.355
30741SOL    HW294158   9.748   7.644   1.265
30742SOL     OW94159   9.743   7.720   0.306
30742SOL    HW194160   9.801   7.670   0.241
30742SOL    HW294161   9.676   7.774   0.255
30743SOL     OW94162   9.764   8.256   1.265
30743SOL    HW194163   9.824   8.277   1.342
30743SOL    HW294164   9.727   8.164   1.276
30744SOL     OW94165   9.424   8.973   1.311
30744SOL    HW194166   9.378   9.047   1.263
30744SOL    HW294167   9.523   8.986   1.307
30745SOL     OW94168   9.562   8.567   0.413
30745SOL    HW194169   9.588   8.647   0.359
30745SOL    HW294170   9.630   8.495   0.400
30746SOL     OW94171   9.870   7.960   0.972
30746SOL    HW194172   9.866   8.003   0.883
30746SOL    HW294173   9.938   8.005   1.029
30747SOL     OW94174   9.702   8.964   1.270
30747SOL    HW194175   9.690   8.925   1.179
30747SOL    HW294176   9.799   8.971   1.290
30748SOL     OW94177   9.672   8.247   1.615
30748SOL    HW194178   9.757   8.264   1.564
30748SOL    HW294179   9.662   8.149   1.629
30749SOL     OW94180   9.795   7.564   1.754
30749SOL    HW194181   9.758   7.475   1.727
30749SOL    HW294182   9.722   7.620   1.794
30750SOL     OW94183   9.857   8.377   1.035
30750SOL    HW194184   9.831   8.472   1.049
30750SOL    HW294185   9.837   8.325   1.118
30751SOL     OW94186   9.578   7.604   1.249
30751SOL    HW194187   9.480   7.623   1.253
30751SOL    HW294188   9.595   7.510   1.279
30752SOL     OW94189   9.411   8.712   1.235
30752SOL    HW194190   9.429   8.660   1.318
30752SOL    HW294191   9.406   8.810   1.257
30753SOL     OW94192   9.607   7.496   0.671
30753SOL    HW194193   9.573   7.590   0.675
30753SOL    HW294194   9.647   7.472   0.760
30754SOL     OW94195   9.647   8.425   1.817
30754SOL    HW194196   9.700   8.507   1.792
30754SOL    HW294197   9.659   8.355   1.746
30755SOL     OW94198   9.633   8.272   0.916
30755SOL    HW194199   9.719   8.307   0.954
30755SOL    HW294200   9.620   8.177   0.945
30756SOL     OW94201   9.606   7.991   1.021
30756SOL    HW194202   9.563   7.903   1.002
30756SOL    HW294203   9.704   7.986   1.001
30757SOL     OW94204   9.300   8.718   0.119
30757SOL    HW194205   9.209   8.729   0.077
30757SOL    HW294206   9.294   8.652   0.194
30758SOL     OW94207   9.484   9.166   0.967
30758SOL    HW194208   9.467   9.072   0.937
30758SOL    HW294209   9.566   9.200   0.922
30759SOL     OW94210   9.869   9.005   0.862
30759SOL    HW194211   9.952   8.974   0.908
30759SOL    HW294212   9.877   8.989   0.764
30760SOL     OW94213   9.356   8.083   1.120
30760SOL    HW194214   9.440   8.062   1.071
30760SOL    HW294215   9.369   8.066   1.217
30761SOL     OW94216   9.460   8.029   1.725
30761SOL    HW194217   9.429   7.941   1.687
30761SOL    HW294218   9.423   8.104   1.670
30762SOL     OW94219   0.008   8.022   0.329
30762SOL    HW194220   0.020   7.971   0.414
30762SOL    HW294221   9.914   8.009   0.295
30763SOL     OW94222   9.513   8.970   1.709
30763SOL    HW194223   9.491   9.049   1.767
30763SOL    HW294224   9.524   8.889   1.766
30764SOL     OW94225   9.606   7.878   0.119
30764SOL    HW194226   9.657   7.953   0.160
30764SOL    HW294227   9.513   7.909   0.097
30765SOL     OW94228   9.454   8.586   1.477
30765SOL    HW194229   9.438   8.563   1.574
30765SOL    HW294230   9.481   8.503   1.428
30766SOL     OW94231   9.407   8.651   0.977
30766SOL    HW194232   9.409   8.670   1.075
30766SOL    HW294233   9.338   8.581   0.958
30767SOL     OW94234   0.036   8.973   1.567
30767SOL    HW194235   9.966   9.035   1.603
30767SOL    HW294236   0.125   8.998   1.604
30768SOL     OW94237   9.447   9.186   1.859
30768SOL    HW194238   9.380   9.132   1.908
30768SOL    HW294239   9.505   9.235   1.925
30769SOL     OW94240   9.538   7.762   0.709
30769SOL    HW194241   9.451   7.806   0.683
30769SOL    HW294242   9.545   7.760   0.808
30770SOL     OW94243   9.682   8.750   1.479
30770SOL    HW194244   9.684   8.825   1.412
30770SOL    HW294245   9.596   8.700   1.470
30771SOL     OW94246   9.890   8.946   0.589
30771SOL    HW194247   9.827   8.869   0.595
30771SOL    HW294248   9.867   9.002   0.510
30772SOL     OW94249   9.593   8.818   0.322
30772SOL    HW194250   9.557   8.867   0.243
30772SOL    HW294251   9.547   8.849   0.405
30773SOL     OW94252   9.403   8.528   1.744
30773SOL    HW194253   9.321   8.503   1.794
30773SOL    HW294254   9.481   8.476   1.780
30774SOL     OW94255   9.936   7.641   1.536
30774SOL    HW194256   0.008   7.572   1.533
30774SOL    HW294257   9.877   7.626   1.615
30775SOL     OW94258   9.337   7.700   9.991
30775SOL    HW194259   9.276   7.688   9.913
30775SOL    HW294260   9.346   7.797   0.012
30776SOL     OW94261   9.377   7.576   0.239
30776SOL    HW194262   9.352   7.624   0.155
30776SOL    HW294263   9.471   7.541   0.230
30777SOL     OW94264   9.910   8.318   1.487
30777SOL    HW194265   9.920   8.417   1.484
30777SOL    HW294266   9.998   8.276   1.509
30778SOL     OW94267   9.688   9.160   1.594
30778SOL    HW194268   9.611   9.222   1.582
30778SOL    HW294269   9.653   9.070   1.622
30779SOL     OW94270   9.847   8.102   0.745
30779SOL    HW194271   9.908   8.177   0.769
30779SOL    HW294272   9.788   8.129   0.669
30780SOL     OW94273   9.529   8.745   1.860
30780SOL    HW194274   9.473   8.677   1.813
30780SOL    HW294275   9.503   8.749   1.957
30781SOL     OW94276   9.407   8.581   0.635
30781SOL    HW194277   9.470   8.564   0.711
30781SOL    HW294278   9.455   8.574   0.548
30782SOL     OW94279   0.024   8.729   1.711
30782SOL    HW194280   9.929   8.704   1.730
30782SOL    HW294281   0.027   8.807   1.648
30783SOL     OW94282   9.746   7.854   0.544
30783SOL    HW194283   9.744   7.802   0.459
30783SOL    HW294284   9.676   7.818   0.607
30784SOL     OW94285   9.657   8.010   1.303
30784SOL    HW194286   9.683   7.935   1.364
30784SOL    HW294287   9.651   7.976   1.210
30785SOL     OW94288   9.314   8.513   0.315
30785SOL    HW194289   9.406   8.533   0.348
30785SOL    HW294290   9.297   8.414   0.321
30786SOL     OW94291   9.478   8.086   1.988
30786SOL    HW194292   9.392   8.051   2.027
30786SOL    HW294293   9.478   8.072   1.889
30787SOL     OW94294   9.516   7.744   2.862
30787SOL    HW194295   9.564   7.707   2.941
30787SOL    HW294296   9.422   7.710   2.860
30788SOL     OW94297   9.296   7.840   2.507
30788SOL    HW194298   9.213   7.868   2.555
30788SOL    HW294299   9.274   7.770   2.439
30789SOL     OW94300   9.835   8.682   2.930
30789SOL    HW194301   9.760   8.747   2.918
30789SOL    HW294302   9.900   8.717   2.997
30790SOL     OW94303   0.102   8.352   3.811
30790SOL    HW194304   0.193   8.387   3.835
30790SOL    HW294305   0.080   8.274   3.870
30791SOL     OW94306   9.618   8.849   2.884
30791SOL    HW194307   9.539   8.789   2.895
30791SOL    HW294308   9.619   8.888   2.792
30792SOL     OW94309   9.748   7.898   3.364
30792SOL    HW194310   9.827   7.837   3.372
30792SOL    HW294311   9.664   7.844   3.368
30793SOL     OW94312   9.573   9.158   2.301
30793SOL    HW194313   9.593   9.227   2.371
30793SOL    HW294314   9.647   9.154   2.234
30794SOL     OW94315   9.478   8.900   2.329
30794SOL    HW194316   9.511   8.994   2.322
30794SOL    HW294317   9.546   8.844   2.376
30795SOL     OW94318   9.571   8.588   2.679
30795SOL    HW194319   9.629   8.528   2.733
30795SOL    HW294320   9.501   8.629   2.738
30796SOL     OW94321   9.426   8.088   2.469
30796SOL    HW194322   9.388   7.999   2.491
30796SOL    HW294323   9.397   8.155   2.537
30797SOL     OW94324   9.283   9.024   1.998
30797SOL    HW194325   9.242   8.933   1.998
30797SOL    HW294326   9.271   9.065   2.089
30798SOL     OW94327   9.426   8.189   3.429
30798SOL    HW194328   9.515   8.235   3.419
30798SOL    HW294329   9.353   8.253   3.406
30799SOL     OW94330   0.061   7.444   2.443
30799SOL    HW194331   0.111   7.527   2.420
30799SOL    HW294332   9.964   7.455   2.419
30800SOL     OW94333   9.461   8.387   3.145
30800SOL    HW194334   9.557   8.361   3.131
30800SOL    HW294335   9.405   8.348   3.073
30801SOL     OW94336   9.620   7.760   3.726
30801SOL    HW194337   9.651   7.827   3.794
30801SOL    HW294338   9.520   7.756   3.728
30802SOL     OW94339   9.812   8.175   2.191
30802SOL    HW194340   9.753   8.244   2.150
30802SOL    HW294341   9.779   8.154   2.283
30803SOL     OW94342   9.350   8.283   2.652
30803SOL    HW194343   9.439   8.263   2.692
30803SOL    HW294344   9.303   8.352   2.708
30804SOL     OW94345   9.404   9.259   3.480
30804SOL    HW194346   9.437   9.237   3.572
30804SOL    HW294347   9.312   9.223   3.468
30805SOL     OW94348   0.216   7.790   2.106
30805SOL    HW194349   0.225   7.889   2.092
30805SOL    HW294350   0.176   7.749   2.024
30806SOL     OW94351   9.828   7.654   2.829
30806SOL    HW194352   9.859   7.664   2.924
30806SOL    HW294353   9.848   7.737   2.778
30807SOL     OW94354   9.591   8.328   2.067
30807SOL    HW194355   9.618   8.370   1.981
30807SOL    HW294356   9.547   8.240   2.049
30808SOL     OW94357   9.739   8.643   3.578
30808SOL    HW194358   9.704   8.668   3.488
30808SOL    HW294359   9.677   8.679   3.648
30809SOL     OW94360   9.525   7.741   3.354
30809SOL    HW194361   9.432   7.777   3.358
30809SOL    HW294362   9.524   7.643   3.373
30810SOL     OW94363   9.806   9.199   2.149
30810SOL    HW194364   9.843   9.271   2.209
30810SOL    HW294365   9.879   9.137   2.122
30811SOL     OW94366   9.564   9.266   2.981
30811SOL    HW194367   9.595   9.181   3.024
30811SOL    HW294368   9.503   9.245   2.905
30812SOL     OW94369   9.710   8.103   2.437
30812SOL    HW194370   9.734   8.006   2.445
30812SOL    HW294371   9.612   8.115   2.450
30813SOL     OW94372   9.837   7.532   2.024
30813SOL    HW194373   9.930   7.520   2.060
30813SOL    HW294374   9.841   7.535   1.924
30814SOL     OW94375   0.246   8.872   2.634
30814SOL    HW194376   0.331   8.902   2.677
30814SOL    HW294377   0.201   8.805   2.693
30815SOL     OW94378   9.810   7.508   2.359
30815SOL    HW194379   9.738   7.498   2.427
30815SOL    HW294380   9.793   7.590   2.304
30816SOL     OW94381   9.590   7.423   2.053
30816SOL    HW194382   9.681   7.462   2.047
30816SOL    HW294383   9.597   7.323   2.063
30817SOL     OW94384   0.184   7.665   2.339
30817SOL    HW194385   0.207   7.720   2.259
30817SOL    HW294386   0.266   7.652   2.395
30818SOL     OW94387   9.649   8.710   2.443
30818SOL    HW194388   9.623   8.672   2.532
30818SOL    HW294389   9.622   8.646   2.371
30819SOL     OW94390   9.390   8.007   3.233
30819SOL    HW194391   9.484   8.004   3.199
30819SOL    HW294392   9.384   8.073   3.308
30820SOL     OW94393   9.872   7.699   3.099
30820SOL    HW194394   9.903   7.688   3.193
30820SOL    HW294395   9.773   7.681   3.094
30821SOL     OW94396   9.758   7.726   2.195
30821SOL    HW194397   9.784   7.656   2.129
30821SOL    HW294398   9.735   7.811   2.147
30822SOL     OW94399   9.709   8.287   3.095
30822SOL    HW194400   9.798   8.296   3.140
30822SOL    HW294401   9.675   8.193   3.108
30823SOL     OW94402   9.373   9.013   3.181
30823SOL    HW194403   9.313   9.070   3.126
30823SOL    HW294404   9.468   9.026   3.153
30824SOL     OW94405   9.561   8.542   2.247
30824SOL    HW194406   9.513   8.608   2.190
30824SOL    HW294407   9.587   8.463   2.192
30825SOL     OW94408   9.882   7.985   2.781
30825SOL    HW194409   9.895   8.061   2.717
30825SOL    HW294410   9.937   8.001   2.863
30826SOL     OW94411   9.632   9.024   3.092
30826SOL    HW194412   9.632   8.956   3.018
30826SOL    HW294413   9.717   9.017   3.144
30827SOL     OW94414   9.732   8.198   3.427
30827SOL    HW194415   9.803   8.241   3.370
30827SOL    HW294416   9.736   8.099   3.416
30828SOL     OW94417   9.745   7.574   3.579
30828SOL    HW194418   9.684   7.495   3.581
30828SOL    HW294419   9.700   7.652   3.622
30829SOL     OW94420   9.718   8.444   2.870
30829SOL    HW194421   9.773   8.526   2.885
30829SOL    HW294422   9.717   8.389   2.954
30830SOL     OW94423   9.604   7.648   3.104
30830SOL    HW194424   9.574   7.693   3.188
30830SOL    HW294425   9.577   7.551   3.107
30831SOL     OW94426   9.372   8.746   3.107
30831SOL    HW194427   9.360   8.683   3.185
30831SOL    HW294428   9.355   8.840   3.138
30832SOL     OW94429   9.608   7.480   2.537
30832SOL    HW194430   9.573   7.573   2.546
30832SOL    HW294431   9.639   7.446   2.626
30833SOL     OW94432   9.664   8.382   3.633
30833SOL    HW194433   9.707   8.470   3.614
30833SOL    HW294434   9.696   8.314   3.567
30834SOL     OW94435   9.582   8.230   2.766
30834SOL    HW194436   9.644   8.303   2.795
30834SOL    HW294437   9.611   8.143   2.805
30835SOL     OW94438   9.633   7.983   2.874
30835SOL    HW194439   9.586   7.896   2.861
30835SOL    HW294440   9.725   7.978   2.834
30836SOL     OW94441   9.179   8.747   1.979
30836SOL    HW194442   9.088   8.780   1.953
30836SOL    HW294443   9.191   8.654   1.946
30837SOL     OW94444   9.382   9.217   2.778
30837SOL    HW194445   9.369   9.119   2.767
30837SOL    HW294446   9.413   9.257   2.692
30838SOL     OW94447   9.331   8.070   2.972
30838SOL    HW194448   9.414   8.065   2.917
30838SOL    HW294449   9.352   8.047   3.067
30839SOL     OW94450   9.476   8.005   3.619
30839SOL    HW194451   9.561   7.962   3.591
30839SOL    HW294452   9.449   8.074   3.552
30840SOL     OW94453   0.098   8.166   2.223
30840SOL    HW194454   0.104   8.140   2.320
30840SOL    HW294455   0.002   8.181   2.199
30841SOL     OW94456   9.545   8.956   3.584
30841SOL    HW194457   9.521   9.034   3.641
30841SOL    HW294458   9.560   8.876   3.642
30842SOL     OW94459   9.707   7.952   2.049
30842SOL    HW194460   9.771   8.018   2.090
30842SOL    HW294461   9.621   7.997   2.029
30843SOL     OW94462   9.373   8.564   3.322
30843SOL    HW194463   9.392   8.535   3.415
30843SOL    HW294464   9.414   8.499   3.258
30844SOL     OW94465   9.379   8.697   2.845
30844SOL    HW194466   9.367   8.710   2.943
30844SOL    HW294467   9.315   8.628   2.813
30845SOL     OW94468   9.944   8.993   3.432
30845SOL    HW194469   9.864   9.053   3.425
30845SOL    HW294470   0.005   9.009   3.355
30846SOL     OW94471   9.479   9.174   3.727
30846SOL    HW194472   9.437   9.116   3.796
30846SOL    HW294473   9.537   9.242   3.772
30847SOL     OW94474   9.538   7.740   2.588
30847SOL    HW194475   9.452   7.778   2.557
30847SOL    HW294476   9.542   7.742   2.688
30848SOL     OW94477   9.611   8.715   3.349
30848SOL    HW194478   9.613   8.792   3.284
30848SOL    HW294479   9.525   8.666   3.340
30849SOL     OW94480   9.423   8.737   2.113
30849SOL    HW194481   9.329   8.743   2.079
30849SOL    HW294482   9.436   8.806   2.185
30850SOL     OW94483   9.409   8.477   3.568
30850SOL    HW194484   9.334   8.466   3.634
30850SOL    HW294485   9.494   8.441   3.607
30851SOL     OW94486   9.913   7.662   3.376
30851SOL    HW194487   9.998   7.610   3.379
30851SOL    HW294488   9.850   7.627   3.445
30852SOL     OW94489   9.346   7.760   1.929
30852SOL    HW194490   9.297   7.757   1.842
30852SOL    HW294491   9.312   7.837   1.984
30853SOL     OW94492   9.368   7.558   2.118
30853SOL    HW194493   9.347   7.626   2.048
30853SOL    HW294494   9.455   7.513   2.096
30854SOL     OW94495   9.942   8.252   3.232
30854SOL    HW194496   0.022   8.309   3.213
30854SOL    HW294497   9.967   8.156   3.225
30855SOL     OW94498   9.685   9.143   3.436
30855SOL    HW194499   9.604   9.192   3.404
30855SOL    HW294500   9.657   9.063   3.490
30856SOL     OW94501   9.916   8.204   2.605
30856SOL    HW194502   9.998   8.171   2.559
30856SOL    HW294503   9.835   8.184   2.549
30857SOL     OW94504   9.558   8.742   3.756
30857SOL    HW194505   9.462   8.715   3.755
30857SOL    HW294506   9.589   8.752   3.851
30858SOL     OW94507   9.385   8.550   2.473
30858SOL    HW194508   9.446   8.539   2.551
30858SOL    HW294509   9.431   8.520   2.389
30859SOL     OW94510   9.971   8.789   3.621
30859SOL    HW194511   9.898   8.725   3.600
30859SOL    HW294512   9.969   8.866   3.557
30860SOL     OW94513   9.755   7.833   2.447
30860SOL    HW194514   9.751   7.794   2.355
30860SOL    HW294515   9.680   7.797   2.502
30861SOL     OW94516   9.641   8.026   3.141
30861SOL    HW194517   9.701   7.974   3.202
30861SOL    HW294518   9.655   7.997   3.047
30862SOL     OW94519   9.290   8.407   2.196
30862SOL    HW194520   9.374   8.406   2.143
30862SOL    HW294521   9.266   8.314   2.224
30863SOL     OW94522   9.448   8.097   3.872
30863SOL    HW194523   9.356   8.075   3.905
30863SOL    HW294524   9.455   8.076   3.775
30864SOL     OW94525   9.558   7.745   4.712
30864SOL    HW194526   9.607   7.703   4.788
30864SOL    HW294527   9.464   7.711   4.709
30865SOL     OW94528   9.306   7.858   4.359
30865SOL    HW194529   9.222   7.878   4.409
30865SOL    HW294530   9.287   7.794   4.286
30866SOL     OW94531   9.878   8.847   4.805
30866SOL    HW194532   9.780   8.836   4.823
30866SOL    HW294533   9.928   8.834   4.890
30867SOL     OW94534   0.223   8.295   5.684
30867SOL    HW194535   0.292   8.323   5.618
30867SOL    HW294536   0.136   8.341   5.664
30868SOL     OW94537   9.601   8.892   4.790
30868SOL    HW194538   9.518   8.844   4.765
30868SOL    HW294539   9.645   8.928   4.708
30869SOL     OW94540   9.776   7.812   5.173
30869SOL    HW194541   9.858   7.756   5.187
30869SOL    HW294542   9.696   7.763   5.206
30870SOL     OW94543   9.598   9.146   4.210
30870SOL    HW194544   9.615   9.225   4.269
30870SOL    HW294545   9.662   9.148   4.133
30871SOL     OW94546   9.554   8.879   4.271
30871SOL    HW194547   9.560   8.977   4.252
30871SOL    HW294548   9.637   8.849   4.318
30872SOL     OW94549   9.557   8.586   4.578
30872SOL    HW194550   9.596   8.536   4.656
30872SOL    HW294551   9.499   8.660   4.612
30873SOL     OW94552   9.420   8.113   4.329
30873SOL    HW194553   9.380   8.023   4.346
30873SOL    HW294554   9.398   8.175   4.404
30874SOL     OW94555   9.379   9.007   3.911
30874SOL    HW194556   9.344   8.914   3.903
30874SOL    HW294557   9.359   9.043   4.002
30875SOL     OW94558   9.459   8.194   5.266
30875SOL    HW194559   9.538   8.216   5.208
30875SOL    HW294560   9.433   8.275   5.317
30876SOL     OW94561   9.782   8.785   4.384
30876SOL    HW194562   9.777   8.685   4.388
30876SOL    HW294563   9.834   8.813   4.304
30877SOL     OW94564   0.052   7.440   4.186
30877SOL    HW194565   0.093   7.531   4.185
30877SOL    HW294566   9.956   7.448   4.212
30878SOL     OW94567   9.452   8.392   4.976
30878SOL    HW194568   9.521   8.332   5.018
30878SOL    HW294569   9.375   8.337   4.944
30879SOL     OW94570   9.630   7.724   5.532
30879SOL    HW194571   9.670   7.784   5.601
30879SOL    HW294572   9.534   7.706   5.554
30880SOL     OW94573   9.796   8.166   4.026
30880SOL    HW194574   9.738   8.232   3.978
30880SOL    HW294575   9.761   8.152   4.119
30881SOL     OW94576   9.351   8.303   4.535
30881SOL    HW194577   9.420   8.270   4.599
30881SOL    HW294578   9.315   8.391   4.566
30882SOL     OW94579   9.428   9.358   5.338
30882SOL    HW194580   9.438   9.312   5.426
30882SOL    HW294581   9.331   9.365   5.315
30883SOL     OW94582   0.259   7.718   3.928
30883SOL    HW194583   0.280   7.816   3.931
30883SOL    HW294584   0.203   7.699   3.847
30884SOL     OW94585   9.833   7.582   4.666
30884SOL    HW194586   9.869   7.593   4.759
30884SOL    HW294587   9.875   7.649   4.606
30885SOL     OW94588   9.684   9.228   4.605
30885SOL    HW194589   9.716   9.134   4.592
30885SOL    HW294590   9.761   9.285   4.634
30886SOL     OW94591   9.611   8.321   3.899
30886SOL    HW194592   9.634   8.351   3.806
30886SOL    HW294593   9.541   8.250   3.895
30887SOL     OW94594   9.723   8.691   5.454
30887SOL    HW194595   9.695   8.715   5.360
30887SOL    HW294596   9.658   8.731   5.519
30888SOL     OW94597   9.534   7.689   5.210
30888SOL    HW194598   9.451   7.741   5.195
30888SOL    HW294599   9.513   7.607   5.264
30889SOL     OW94600   9.785   9.191   4.010
30889SOL    HW194601   9.822   9.261   4.071
30889SOL    HW294602   9.860   9.139   3.969
30890SOL     OW94603   9.553   9.252   4.943
30890SOL    HW194604   9.582   9.169   4.989
30890SOL    HW294605   9.513   9.229   4.854
30891SOL     OW94606   9.691   8.105   4.270
30891SOL    HW194607   9.720   8.010   4.284
30891SOL    HW294608   9.593   8.112   4.288
30892SOL     OW94609   9.882   7.591   3.818
30892SOL    HW194610   9.933   7.511   3.849
30892SOL    HW294611   9.843   7.572   3.728
30893SOL     OW94612   9.790   7.512   4.213
30893SOL    HW194613   9.713   7.507   4.277
30893SOL    HW294614   9.783   7.594   4.157
30894SOL     OW94615   9.604   7.489   3.878
30894SOL    HW194616   9.674   7.560   3.866
30894SOL    HW294617   9.641   7.416   3.935
30895SOL     OW94618   0.175   7.682   4.181
30895SOL    HW194619   0.206   7.698   4.087
30895SOL    HW294620   0.252   7.652   4.236
30896SOL     OW94621   9.724   8.509   4.371
30896SOL    HW194622   9.658   8.527   4.443
30896SOL    HW294623   9.676   8.495   4.284
30897SOL     OW94624   9.375   8.012   5.082
30897SOL    HW194625   9.467   7.986   5.052
30897SOL    HW294626   9.381   8.079   5.156
30898SOL     OW94627   9.917   7.623   4.930
30898SOL    HW194628   9.956   7.627   5.022
30898SOL    HW294629   9.817   7.627   4.936
30899SOL     OW94630   9.778   7.724   4.040
30899SOL    HW194631   9.832   7.681   3.967
30899SOL    HW294632   9.731   7.804   4.003
30900SOL     OW94633   9.650   8.234   5.078
30900SOL    HW194634   9.746   8.259   5.093
30900SOL    HW294635   9.645   8.138   5.050
30901SOL     OW94636   9.348   9.007   5.091
30901SOL    HW194637   9.307   9.079   5.035
30901SOL    HW294638   9.448   9.012   5.084
30902SOL     OW94639   9.595   8.490   4.121
30902SOL    HW194640   9.589   8.584   4.088
30902SOL    HW294641   9.606   8.428   4.044
30903SOL     OW94642   9.893   8.076   4.620
30903SOL    HW194643   9.900   8.148   4.551
30903SOL    HW294644   9.976   8.077   4.677
30904SOL     OW94645   9.616   8.993   5.041
30904SOL    HW194646   9.616   8.953   4.949
30904SOL    HW294647   9.710   9.006   5.071
30905SOL     OW94648   9.831   8.260   5.370
30905SOL    HW194649   9.866   8.275   5.277
30905SOL    HW294650   9.854   8.168   5.400
30906SOL     OW94651   9.804   7.556   5.411
30906SOL    HW194652   9.758   7.476   5.372
30906SOL    HW294653   9.736   7.619   5.448
30907SOL     OW94654   9.644   7.622   4.953
30907SOL    HW194655   9.614   7.665   5.038
30907SOL    HW294656   9.604   7.531   4.944
30908SOL     OW94657   9.356   8.760   4.972
30908SOL    HW194658   9.371   8.690   5.042
30908SOL    HW294659   9.341   8.849   5.017
30909SOL     OW94660   9.570   7.492   4.374
30909SOL    HW194661   9.553   7.589   4.391
30909SOL    HW294662   9.597   7.447   4.459
30910SOL     OW94663   9.675   8.429   5.513
30910SOL    HW194664   9.701   8.523   5.492
30910SOL    HW294665   9.732   8.366   5.461
30911SOL     OW94666   9.534   8.223   4.722
30911SOL    HW194667   9.591   8.303   4.742
30911SOL    HW294668   9.589   8.140   4.727
30912SOL     OW94669   9.673   7.992   4.747
30912SOL    HW194670   9.637   7.903   4.717
30912SOL    HW294671   9.756   8.013   4.695
30913SOL     OW94672   9.300   8.735   3.904
30913SOL    HW194673   9.218   8.775   3.863
30913SOL    HW294674   9.279   8.644   3.939
30914SOL     OW94675   9.427   9.206   4.703
30914SOL    HW194676   9.382   9.126   4.662
30914SOL    HW294677   9.516   9.219   4.661
30915SOL     OW94678   9.768   8.969   4.586
30915SOL    HW194679   9.834   8.938   4.655
30915SOL    HW294680   9.773   8.909   4.506
30916SOL     OW94681   9.307   8.168   4.868
30916SOL    HW194682   9.385   8.179   4.807
30916SOL    HW294683   9.331   8.106   4.942
30917SOL     OW94684   9.486   7.981   5.432
30917SOL    HW194685   9.552   7.915   5.396
30917SOL    HW294686   9.478   8.059   5.369
30918SOL     OW94687   0.064   8.156   4.006
30918SOL    HW194688   0.091   8.157   4.102
30918SOL    HW294689   9.964   8.155   4.000
30919SOL     OW94690   9.499   9.012   5.467
30919SOL    HW194691   9.487   9.094   5.523
30919SOL    HW294692   9.524   8.935   5.526
30920SOL     OW94693   9.669   7.945   3.926
30920SOL    HW194694   9.737   8.012   3.954
30920SOL    HW294695   9.580   7.989   3.916
30921SOL     OW94696   9.406   8.573   5.174
30921SOL    HW194697   9.411   8.526   5.262
30921SOL    HW294698   9.417   8.507   5.100
30922SOL     OW94699   9.364   8.757   4.706
30922SOL    HW194700   9.355   8.757   4.806
30922SOL    HW294701   9.313   8.681   4.667
30923SOL     OW94702   0.032   8.992   5.399
30923SOL    HW194703   0.070   9.066   5.454
30923SOL    HW294704   0.058   9.005   5.303
30924SOL     OW94705   9.475   9.257   5.601
30924SOL    HW194706   9.412   9.329   5.630
30924SOL    HW294707   9.569   9.284   5.624
30925SOL     OW94708   9.552   7.758   4.436
30925SOL    HW194709   9.465   7.799   4.411
30925SOL    HW294710   9.562   7.758   4.535
30926SOL     OW94711   9.614   8.755   5.212
30926SOL    HW194712   9.600   8.838   5.158
30926SOL    HW294713   9.538   8.692   5.197
30927SOL     OW94714   9.912   8.852   4.162
30927SOL    HW194715   0.008   8.829   4.175
30927SOL    HW294716   9.888   8.843   4.066
30928SOL     OW94717   9.543   8.741   4.035
30928SOL    HW194718   9.451   8.747   3.997
30928SOL    HW294719   9.549   8.800   4.116
30929SOL     OW94720   9.424   8.425   5.403
30929SOL    HW194721   9.348   8.428   5.468
30929SOL    HW294722   9.511   8.429   5.452
30930SOL     OW94723   9.980   7.612   5.212
30930SOL    HW194724   0.014   7.521   5.188
30930SOL    HW294725   9.918   7.605   5.291
30931SOL     OW94726   9.346   7.790   3.729
30931SOL    HW194727   9.257   7.778   3.685
30931SOL    HW294728   9.386   7.877   3.700
30932SOL     OW94729   9.360   7.597   3.935
30932SOL    HW194730   9.342   7.669   3.869
30932SOL    HW294731   9.453   7.562   3.922
30933SOL     OW94732   9.920   8.277   5.109
30933SOL    HW194733   9.940   8.353   5.047
30933SOL    HW294734   9.988   8.205   5.096
30934SOL     OW94735   9.654   9.194   5.306
30934SOL    HW194736   9.575   9.253   5.288
30934SOL    HW294737   9.622   9.109   5.348
30935SOL     OW94738   9.864   8.265   4.404
30935SOL    HW194739   9.833   8.360   4.402
30935SOL    HW294740   9.797   8.206   4.359
30936SOL     OW94741   9.538   8.789   5.627
30936SOL    HW194742   9.455   8.745   5.594
30936SOL    HW294743   9.550   8.769   5.725
30937SOL     OW94744   9.387   8.679   4.369
30937SOL    HW194745   9.449   8.624   4.425
30937SOL    HW294746   9.438   8.754   4.326
30938SOL     OW94747   9.965   8.776   5.544
30938SOL    HW194748   9.880   8.734   5.511
30938SOL    HW294749   9.986   8.857   5.489
30939SOL     OW94750   9.772   7.843   4.292
30939SOL    HW194751   9.775   7.798   4.203
30939SOL    HW294752   9.697   7.807   4.346
30940SOL     OW94753   9.632   7.975   5.013
30940SOL    HW194754   9.695   7.916   5.064
30940SOL    HW294755   9.656   7.972   4.916
30941SOL     OW94756   9.310   8.485   4.071
30941SOL    HW194757   9.404   8.497   4.103
30941SOL    HW294758   9.285   8.388   4.077
30942SOL     OW94759   9.441   7.972   5.694
30942SOL    HW194760   9.361   8.024   5.724
30942SOL    HW294761   9.454   7.986   5.596
30943SOL     OW94762   9.525   7.718   6.608
30943SOL    HW194763   9.574   7.687   6.689
30943SOL    HW294764   9.435   7.675   6.605
30944SOL     OW94765   9.240   7.769   6.259
30944SOL    HW194766   9.153   7.812   6.284
30944SOL    HW294767   9.229   7.719   6.173
30945SOL     OW94768   9.888   8.703   6.748
30945SOL    HW194769   9.811   8.763   6.726
30945SOL    HW294770   9.928   8.730   6.836
30946SOL     OW94771   0.175   8.246   7.550
30946SOL    HW194772   0.263   8.257   7.505
30946SOL    HW294773   0.130   8.336   7.557
30947SOL     OW94774   9.674   8.866   6.682
30947SOL    HW194775   9.588   8.829   6.647
30947SOL    HW294776   9.714   8.927   6.614
30948SOL     OW94777   9.688   7.878   7.087
30948SOL    HW194778   9.776   7.835   7.064
30948SOL    HW294779   9.618   7.807   7.098
30949SOL     OW94780   9.581   9.146   6.049
30949SOL    HW194781   9.595   9.234   6.095
30949SOL    HW294782   9.519   9.159   5.972
30950SOL     OW94783   9.598   8.876   6.057
30950SOL    HW194784   9.599   8.976   6.062
30950SOL    HW294785   9.647   8.838   6.135
30951SOL     OW94786   9.571   8.599   6.452
30951SOL    HW194787   9.635   8.550   6.512
30951SOL    HW294788   9.508   8.653   6.507
30952SOL     OW94789   9.409   8.226   7.152
30952SOL    HW194790   9.494   8.277   7.141
30952SOL    HW294791   9.332   8.286   7.130
30953SOL     OW94792   9.875   8.912   6.283
30953SOL    HW194793   9.822   8.828   6.279
30953SOL    HW294794   9.889   8.947   6.190
30954SOL     OW94795   0.079   7.423   6.119
30954SOL    HW194796   0.135   7.498   6.085
30954SOL    HW294797   9.985   7.455   6.131
30955SOL     OW94798   9.486   8.424   6.933
30955SOL    HW194799   9.578   8.394   6.906
30955SOL    HW294800   9.420   8.395   6.865
30956SOL     OW94801   9.677   7.647   7.373
30956SOL    HW194802   9.713   7.708   7.443
30956SOL    HW294803   9.577   7.648   7.376
30957SOL     OW94804   9.819   8.132   5.830
30957SOL    HW194805   9.777   8.218   5.801
30957SOL    HW294806   9.796   8.113   5.925
30958SOL     OW94807   9.479   9.272   7.147
30958SOL    HW194808   9.465   9.258   7.244
30958SOL    HW294809   9.409   9.222   7.095
30959SOL     OW94810   0.173   7.840   5.818
30959SOL    HW194811   0.223   7.917   5.780
30959SOL    HW294812   0.152   7.774   5.746
30960SOL     OW94813   9.833   7.656   6.499
30960SOL    HW194814   9.785   7.742   6.514
30960SOL    HW294815   9.888   7.662   6.416
30961SOL     OW94816   9.659   9.259   6.440
30961SOL    HW194817   9.698   9.169   6.461
30961SOL    HW294818   9.725   9.330   6.465
30962SOL     OW94819   9.667   8.354   5.775
30962SOL    HW194820   9.669   8.383   5.679
30962SOL    HW294821   9.577   8.314   5.795
30963SOL     OW94822   9.774   8.679   7.315
30963SOL    HW194823   9.752   8.700   7.220
30963SOL    HW294824   9.703   8.716   7.375
30964SOL     OW94825   9.504   7.680   7.091
30964SOL    HW194826   9.413   7.718   7.076
30964SOL    HW294827   9.496   7.594   7.142
30965SOL     OW94828   9.848   9.215   5.862
30965SOL    HW194829   9.872   9.276   5.937
30965SOL    HW294830   9.932   9.175   5.823
30966SOL     OW94831   9.534   9.242   6.766
30966SOL    HW194832   9.575   9.161   6.806
30966SOL    HW294833   9.491   9.217   6.679
30967SOL     OW94834   9.749   8.081   6.082
30967SOL    HW194835   9.700   7.996   6.099
30967SOL    HW294836   9.699   8.158   6.123
30968SOL     OW94837   9.842   7.536   5.686
30968SOL    HW194838   9.934   7.522   5.724
30968SOL    HW294839   9.846   7.536   5.586
30969SOL     OW94840   0.115   8.931   6.409
30969SOL    HW194841   0.176   8.864   6.366
30969SOL    HW294842   0.025   8.927   6.367
30970SOL     OW94843   9.830   7.544   6.107
30970SOL    HW194844   9.748   7.523   6.160
30970SOL    HW294845   9.806   7.602   6.029
30971SOL     OW94846   9.616   7.411   5.763
30971SOL    HW194847   9.687   7.467   5.721
30971SOL    HW294848   9.658   7.351   5.831
30972SOL     OW94849   0.178   7.659   6.016
30972SOL    HW194850   0.181   7.732   5.947
30972SOL    HW294851   0.214   7.693   6.102
30973SOL     OW94852   9.710   8.700   6.240
30973SOL    HW194853   9.661   8.664   6.319
30973SOL    HW294854   9.709   8.632   6.167
30974SOL     OW94855   9.380   8.021   6.972
30974SOL    HW194856   9.474   8.028   6.939
30974SOL    HW294857   9.365   8.090   7.043
30975SOL     OW94858   9.750   7.691   5.894
30975SOL    HW194859   9.783   7.626   5.825
30975SOL    HW294860   9.730   7.779   5.850
30976SOL     OW94861   9.718   8.314   6.847
30976SOL    HW194862   9.813   8.317   6.880
30976SOL    HW294863   9.684   8.220   6.852
30977SOL     OW94864   9.359   9.055   6.957
30977SOL    HW194865   9.312   9.103   6.883
30977SOL    HW294866   9.457   9.050   6.937
30978SOL     OW94867   9.634   8.510   5.996
30978SOL    HW194868   9.581   8.588   5.963
30978SOL    HW294869   9.665   8.456   5.919
30979SOL     OW94870   9.819   7.942   6.508
30979SOL    HW194871   9.868   7.968   6.425
30979SOL    HW294872   9.875   7.964   6.588
30980SOL     OW94873   9.625   9.018   6.902
30980SOL    HW194874   9.655   8.958   6.829
30980SOL    HW294875   9.702   9.039   6.962
30981SOL     OW94876   9.701   8.278   7.199
30981SOL    HW194877   9.770   8.280   7.128
30981SOL    HW294878   9.684   8.183   7.227
30982SOL     OW94879   9.826   7.511   7.186
30982SOL    HW194880   9.781   7.425   7.164
30982SOL    HW294881   9.773   7.561   7.255
30983SOL     OW94882   9.761   8.485   6.637
30983SOL    HW194883   9.812   8.563   6.674
30983SOL    HW294884   9.736   8.424   6.711
30984SOL     OW94885   9.638   7.630   6.851
30984SOL    HW194886   9.594   7.660   6.936
30984SOL    HW294887   9.610   7.536   6.831
30985SOL     OW94888   9.381   8.782   6.880
30985SOL    HW194889   9.393   8.721   6.958
30985SOL    HW294890   9.358   8.874   6.913
30986SOL     OW94891   9.602   7.490   6.249
30986SOL    HW194892   9.555   7.577   6.263
30986SOL    HW294893   9.630   7.453   6.338
30987SOL     OW94894   9.674   8.429   7.424
30987SOL    HW194895   9.724   8.513   7.404
30987SOL    HW294896   9.682   8.366   7.346
30988SOL     OW94897   9.578   7.979   6.625
30988SOL    HW194898   9.546   7.884   6.618
30988SOL    HW294899   9.663   7.989   6.574
30989SOL     OW94900   9.307   8.675   5.565
30989SOL    HW194901   9.236   8.740   5.593
30989SOL    HW294902   9.268   8.583   5.560
30990SOL     OW94903   9.404   9.196   6.526
30990SOL    HW194904   9.370   9.110   6.486
30990SOL    HW294905   9.489   9.221   6.481
30991SOL     OW94906   9.800   9.035   6.512
30991SOL    HW194907   9.882   9.076   6.552
30991SOL    HW294908   9.824   8.991   6.425
30992SOL     OW94909   9.325   8.065   6.706
30992SOL    HW194910   9.412   8.048   6.659
30992SOL    HW294911   9.338   8.053   6.805
30993SOL     OW94912   9.577   8.041   7.280
30993SOL    HW194913   9.614   7.979   7.211
30993SOL    HW294914   9.502   8.093   7.240
30994SOL     OW94915   0.063   8.065   5.933
30994SOL    HW194916   0.093   7.974   5.904
30994SOL    HW294917   9.979   8.089   5.885
30995SOL     OW94918   9.529   8.975   7.311
30995SOL    HW194919   9.513   9.058   7.366
30995SOL    HW294920   9.545   8.898   7.373
30996SOL     OW94921   9.698   7.906   5.736
30996SOL    HW194922   9.754   7.985   5.760
30996SOL    HW294923   9.602   7.934   5.730
30997SOL     OW94924   9.422   8.613   7.111
30997SOL    HW194925   9.427   8.584   7.206
30997SOL    HW294926   9.448   8.537   7.051
30998SOL     OW94927   9.399   8.741   6.611
30998SOL    HW194928   9.391   8.758   6.709
30998SOL    HW294929   9.330   8.675   6.583
30999SOL     OW94930   0.049   9.023   7.284
30999SOL    HW194931   9.956   9.059   7.285
30999SOL    HW294932   0.084   9.024   7.190
31000SOL     OW94933   9.466   9.223   7.418
31000SOL    HW194934   9.384   9.178   7.454
31000SOL    HW294935   9.512   9.272   7.492
31001SOL     OW94936   9.498   7.727   6.324
31001SOL    HW194937   9.402   7.749   6.303
31001SOL    HW294938   9.514   7.736   6.422
31002SOL     OW94939   9.652   8.765   7.083
31002SOL    HW194940   9.634   8.837   7.016
31002SOL    HW294941   9.569   8.710   7.096
31003SOL     OW94942   9.895   8.974   6.021
31003SOL    HW194943   9.917   8.901   5.956
31003SOL    HW294944   9.843   9.046   5.975
31004SOL     OW94945   9.474   8.709   5.897
31004SOL    HW194946   9.381   8.744   5.886
31004SOL    HW294947   9.528   8.772   5.953
31005SOL     OW94948   9.421   8.537   7.376
31005SOL    HW194949   9.337   8.500   7.415
31005SOL    HW294950   9.498   8.479   7.402
31006SOL     OW94951   9.882   7.703   6.997
31006SOL    HW194952   9.830   7.685   6.914
31006SOL    HW294953   9.864   7.630   7.064
31007SOL     OW94954   9.362   7.722   5.626
31007SOL    HW194955   9.298   7.741   5.552
31007SOL    HW294956   9.391   7.808   5.668
31008SOL     OW94957   9.379   7.535   5.825
31008SOL    HW194958   9.361   7.602   5.752
31008SOL    HW294959   9.471   7.497   5.813
31009SOL     OW94960   9.970   8.298   6.940
31009SOL    HW194961   0.041   8.365   6.921
31009SOL    HW294962   0.007   8.206   6.932
31010SOL     OW94963   9.713   9.131   7.166
31010SOL    HW194964   9.638   9.192   7.141
31010SOL    HW294965   9.677   9.051   7.214
31011SOL     OW94966   9.946   7.998   6.265
31011SOL    HW194967   0.008   8.074   6.285
31011SOL    HW294968   9.886   8.023   6.189
31012SOL     OW94969   9.567   8.757   7.468
31012SOL    HW194970   9.499   8.686   7.446
31012SOL    HW294971   9.587   8.755   7.566
31013SOL     OW94972   9.363   8.552   6.249
31013SOL    HW194973   9.433   8.565   6.319
31013SOL    HW294974   9.406   8.541   6.159
31014SOL     OW94975   0.019   8.769   7.393
31014SOL    HW194976   9.935   8.727   7.360
31014SOL    HW294977   0.034   8.856   7.346
31015SOL     OW94978   9.639   7.842   6.117
31015SOL    HW194979   9.657   7.773   6.047
31015SOL    HW294980   9.586   7.800   6.191
31016SOL     OW94981   9.631   8.057   6.881
31016SOL    HW194982   9.673   7.989   6.940
31016SOL    HW294983   9.627   8.022   6.787
31017SOL     OW94984   9.315   8.485   5.928
31017SOL    HW194985   9.376   8.558   5.899
31017SOL    HW294986   9.355   8.396   5.907
31018SOL     OW94987   9.526   7.929   7.528
31018SOL    HW194988   9.450   7.972   7.577
31018SOL    HW294989   9.546   7.981   7.445
31019SOL     OW94990   9.547   7.744   8.422
31019SOL    HW194991   9.603   7.709   8.497
31019SOL    HW294992   9.459   7.696   8.420
31020SOL     OW94993   9.307   7.863   8.074
31020SOL    HW194994   9.228   7.874   8.135
31020SOL    HW294995   9.285   7.797   8.003
31021SOL     OW94996   9.831   8.678   8.505
31021SOL    HW194997   9.777   8.761   8.493
31021SOL    HW294998   9.913   8.700   8.558
31022SOL     OW94999   0.154   8.233   9.364
31022SOL    HW195000   0.113   8.287   9.438
31022SOL    HW295001   0.232   8.283   9.325
31023SOL     OW95002   9.673   8.907   8.473
31023SOL    HW195003   9.591   8.917   8.417
31023SOL    HW295004   9.745   8.967   8.438
31024SOL     OW95005   9.748   7.827   8.876
31024SOL    HW195006   9.835   7.777   8.883
31024SOL    HW295007   9.674   7.771   8.912
31025SOL     OW95008   9.518   8.544   8.291
31025SOL    HW195009   9.473   8.463   8.253
31025SOL    HW295010   9.576   8.517   8.368
31026SOL     OW95011   9.398   8.131   8.011
31026SOL    HW195012   9.371   8.037   8.031
31026SOL    HW295013   9.399   8.185   8.095
31027SOL     OW95014   9.262   9.088   7.526
31027SOL    HW195015   9.219   8.999   7.509
31027SOL    HW295016   9.229   9.125   7.613
31028SOL     OW95017   9.828   8.876   8.157
31028SOL    HW195018   9.804   8.780   8.164
31028SOL    HW295019   9.800   8.911   8.067
31029SOL     OW95020   0.104   7.439   7.988
31029SOL    HW195021   0.144   7.521   8.030
31029SOL    HW295022   0.004   7.450   7.982
31030SOL     OW95023   9.477   8.359   8.807
31030SOL    HW195024   9.568   8.346   8.768
31030SOL    HW295025   9.412   8.379   8.734
31031SOL     OW95026   9.611   7.712   9.260
31031SOL    HW195027   9.652   7.771   9.329
31031SOL    HW295028   9.511   7.716   9.268
31032SOL     OW95029   9.852   8.058   7.698
31032SOL    HW195030   9.872   8.125   7.626
31032SOL    HW295031   9.767   8.082   7.744
31033SOL     OW95032   9.378   8.300   8.232
31033SOL    HW195033   9.458   8.263   8.279
31033SOL    HW295034   9.306   8.319   8.299
31034SOL     OW95035   9.384   9.337   9.046
31034SOL    HW195036   9.372   9.316   9.143
31034SOL    HW295037   9.294   9.349   9.003
31035SOL     OW95038   0.134   7.805   7.749
31035SOL    HW195039   0.151   7.869   7.674
31035SOL    HW295040   0.195   7.727   7.740
31036SOL     OW95041   9.835   7.574   8.368
31036SOL    HW195042   9.873   7.598   8.457
31036SOL    HW295043   9.861   7.643   8.301
31037SOL     OW95044   9.645   9.249   8.435
31037SOL    HW195045   9.708   9.179   8.400
31037SOL    HW295046   9.682   9.340   8.417
31038SOL     OW95047   9.616   8.376   7.701
31038SOL    HW195048   9.638   8.383   7.604
31038SOL    HW295049   9.613   8.280   7.728
31039SOL     OW95050   9.767   8.595   9.161
31039SOL    HW195051   9.749   8.628   9.068
31039SOL    HW295052   9.711   8.645   9.226
31040SOL     OW95053   9.507   7.685   8.904
31040SOL    HW195054   9.449   7.765   8.922
31040SOL    HW295055   9.479   7.609   8.964
31041SOL     OW95056   9.772   9.191   7.751
31041SOL    HW195057   9.802   9.260   7.817
31041SOL    HW295058   9.852   9.151   7.706
31042SOL     OW95059   9.608   9.198   8.701
31042SOL    HW195060   9.649   9.112   8.732
31042SOL    HW295061   9.623   9.208   8.602
31043SOL     OW95062   9.616   8.114   7.831
31043SOL    HW195063   9.643   8.022   7.861
31043SOL    HW295064   9.539   8.146   7.887
31044SOL     OW95065   0.091   8.894   8.243
31044SOL    HW195066   0.140   8.814   8.208
31044SOL    HW295067   9.995   8.888   8.215
31045SOL     OW95068   9.841   7.503   7.940
31045SOL    HW195069   9.760   7.492   7.997
31045SOL    HW295070   9.814   7.515   7.845
31046SOL     OW95071   9.563   7.422   7.683
31046SOL    HW195072   9.650   7.472   7.685
31046SOL    HW295073   9.550   7.373   7.769
31047SOL     OW95074   0.366   7.612   7.983
31047SOL    HW195075   0.372   7.703   8.024
31047SOL    HW295076   0.336   7.620   7.888
31048SOL     OW95077   9.762   8.603   8.144
31048SOL    HW195078   9.678   8.587   8.196
31048SOL    HW295079   9.746   8.585   8.047
31049SOL     OW95080   9.514   8.117   8.929
31049SOL    HW195081   9.562   8.075   8.852
31049SOL    HW295082   9.483   8.209   8.903
31050SOL     OW95083   9.911   7.666   8.620
31050SOL    HW195084   9.954   7.659   8.710
31050SOL    HW295085   9.812   7.664   8.629
31051SOL     OW95086   9.715   8.281   8.698
31051SOL    HW195087   9.813   8.295   8.718
31051SOL    HW295088   9.695   8.184   8.699
31052SOL     OW95089   9.425   8.968   8.828
31052SOL    HW195090   9.408   9.064   8.806
31052SOL    HW295091   9.522   8.948   8.816
31053SOL     OW95092   9.724   8.562   7.874
31053SOL    HW195093   9.688   8.643   7.828
31053SOL    HW295094   9.694   8.480   7.826
31054SOL     OW95095   9.925   8.016   8.320
31054SOL    HW195096   9.953   8.075   8.244
31054SOL    HW295097   9.983   8.033   8.399
31055SOL     OW95098   9.698   8.932   8.744
31055SOL    HW195099   9.679   8.912   8.647
31055SOL    HW295100   9.796   8.946   8.756
31056SOL     OW95101   9.783   7.569   9.105
31056SOL    HW195102   9.742   7.484   9.071
31056SOL    HW295103   9.713   7.622   9.153
31057SOL     OW95104   9.687   8.453   8.488
31057SOL    HW195105   9.746   8.534   8.493
31057SOL    HW295106   9.700   8.397   8.570
31058SOL     OW95107   9.640   7.635   8.658
31058SOL    HW195108   9.609   7.668   8.747
31058SOL    HW295109   9.610   7.540   8.645
31059SOL     OW95110   9.283   8.734   8.822
31059SOL    HW195111   9.339   8.673   8.879
31059SOL    HW295112   9.330   8.821   8.811
31060SOL     OW95113   9.607   7.487   8.080
31060SOL    HW195114   9.582   7.583   8.096
31060SOL    HW295115   9.627   7.443   8.167
31061SOL     OW95116   9.620   8.377   9.259
31061SOL    HW195117   9.684   8.443   9.220
31061SOL    HW295118   9.631   8.289   9.212
31062SOL     OW95119   9.589   8.224   8.369
31062SOL    HW195120   9.640   8.299   8.412
31062SOL    HW295121   9.628   8.137   8.398
31063SOL     OW95122   9.686   7.981   8.448
31063SOL    HW195123   9.641   7.896   8.422
31063SOL    HW295124   9.774   7.988   8.400
31064SOL     OW95125   9.316   8.770   7.703
31064SOL    HW195126   9.241   8.792   7.641
31064SOL    HW295127   9.325   8.670   7.709
31065SOL     OW95128   9.370   9.229   8.447
31065SOL    HW195129   9.338   9.259   8.357
31065SOL    HW295130   9.470   9.234   8.450
31066SOL     OW95131   9.838   9.078   8.346
31066SOL    HW195132   9.932   9.111   8.357
31066SOL    HW295133   9.832   9.017   8.267
31067SOL     OW95134   9.324   7.951   8.648
31067SOL    HW195135   9.323   7.865   8.597
31067SOL    HW295136   9.414   7.993   8.642
31068SOL     OW95137   0.051   8.047   7.889
31068SOL    HW195138   0.099   7.961   7.872
31068SOL    HW295139   9.975   8.056   7.824
31069SOL     OW95140   9.506   8.967   9.225
31069SOL    HW195141   9.452   8.997   9.305
31069SOL    HW295142   9.549   8.879   9.245
31070SOL     OW95143   9.758   7.803   7.604
31070SOL    HW195144   9.814   7.874   7.648
31070SOL    HW295145   9.667   7.840   7.586
31071SOL     OW95146   9.452   8.581   8.966
31071SOL    HW195147   9.428   8.567   9.062
31071SOL    HW295148   9.459   8.492   8.920
31072SOL     OW95149   9.985   8.949   9.022
31072SOL    HW195150   9.909   9.001   9.061
31072SOL    HW295151   0.071   8.980   9.064
31073SOL     OW95152   9.350   9.278   9.307
31073SOL    HW195153   9.332   9.183   9.333
31073SOL    HW295154   9.427   9.313   9.360
31074SOL     OW95155   9.547   7.748   8.142
31074SOL    HW195156   9.460   7.794   8.119
31074SOL    HW295157   9.561   7.752   8.241
31075SOL     OW95158   9.690   8.714   8.931
31075SOL    HW195159   9.691   8.787   8.863
31075SOL    HW295160   9.598   8.673   8.934
31076SOL     OW95161   9.792   8.935   7.875
31076SOL    HW195162   9.890   8.924   7.888
31076SOL    HW295163   9.773   9.028   7.843
31077SOL     OW95164   9.619   8.773   7.737
31077SOL    HW195165   9.525   8.806   7.747
31077SOL    HW295166   9.681   8.837   7.782
31078SOL     OW95167   9.401   8.539   9.231
31078SOL    HW195168   9.311   8.516   9.267
31078SOL    HW295169   9.465   8.464   9.252
31079SOL     OW95170   9.963   7.632   8.908
31079SOL    HW195171   0.013   7.548   8.890
31079SOL    HW295172   9.900   7.618   8.984
31080SOL     OW95173   9.400   7.710   7.432
31080SOL    HW195174   9.324   7.740   7.375
31080SOL    HW295175   9.446   7.789   7.472
31081SOL     OW95176   9.339   7.567   7.661
31081SOL    HW195177   9.340   7.620   7.576
31081SOL    HW295178   9.427   7.520   7.672
31082SOL     OW95179   9.981   8.293   8.739
31082SOL    HW195180   0.052   8.349   8.697
31082SOL    HW295181   0.023   8.211   8.779
31083SOL     OW95182   9.616   9.190   9.105
31083SOL    HW195183   9.540   9.238   9.062
31083SOL    HW295184   9.584   9.104   9.144
31084SOL     OW95185   9.584   8.721   9.314
31084SOL    HW195186   9.511   8.662   9.280
31084SOL    HW295187   9.577   8.728   9.414
31085SOL     OW95188   0.023   8.690   9.143
31085SOL    HW195189   9.936   8.645   9.159
31085SOL    HW295190   0.010   8.769   9.083
31086SOL     OW95191   9.683   7.875   7.933
31086SOL    HW195192   9.776   7.838   7.926
31086SOL    HW295193   9.635   7.830   8.008
31087SOL     OW95194   9.637   8.012   8.711
31087SOL    HW195195   9.687   7.944   8.766
31087SOL    HW295196   9.660   7.999   8.614
31088SOL     OW95197   9.356   8.491   7.752
31088SOL    HW195198   9.454   8.481   7.736
31088SOL    HW295199   9.314   8.400   7.756
31089SOL     OW95200   9.473   8.017   9.344
31089SOL    HW195201   9.402   8.069   9.392
31089SOL    HW295202   9.521   8.078   9.280
31090SOL     OW95203   9.543   9.158   9.748
31090SOL    HW195204   9.540   9.233   9.813
31090SOL    HW295205   9.615   9.175   9.681
31091SOL     OW95206   9.635   8.897   9.781
31091SOL    HW195207   9.596   8.990   9.783
31091SOL    HW295208   9.582   8.838   9.842
31092SOL     OW95209   9.306   8.171   9.864
31092SOL    HW195210   9.215   8.155   9.825
31092SOL    HW295211   9.299   8.239   9.938
31093SOL     OW95212   9.339   9.025   9.430
31093SOL    HW195213   9.306   8.933   9.448
31093SOL    HW295214   9.323   9.083   9.510
31094SOL     OW95215   0.029   7.455   9.790
31094SOL    HW195216   0.096   7.526   9.769
31094SOL    HW295217   9.944   7.498   9.820
31095SOL     OW95218   9.856   8.088   9.517
31095SOL    HW195219   9.900   8.089   9.428
31095SOL    HW295220   9.788   8.162   9.522
31096SOL     OW95221   9.275   8.347   0.070
31096SOL    HW195222   9.277   8.296   0.156
31096SOL    HW295223   9.316   8.437   0.084
31097SOL     OW95224   0.181   7.827   9.524
31097SOL    HW195225   0.252   7.889   9.491
31097SOL    HW295226   0.120   7.803   9.448
31098SOL     OW95227   9.600   9.294   0.159
31098SOL    HW195228   9.610   9.199   0.188
31098SOL    HW295229   9.691   9.335   0.149
31099SOL     OW95230   9.653   8.267   9.508
31099SOL    HW195231   9.642   8.318   9.423
31099SOL    HW295232   9.569   8.274   9.562
31100SOL     OW95233   9.751   9.235   9.590
31100SOL    HW195234   9.800   9.287   9.661
31100SOL    HW295235   9.812   9.167   9.551
31101SOL     OW95236   9.868   7.582   9.372
31101SOL    HW195237   9.922   7.510   9.416
31101SOL    HW295238   9.854   7.559   9.276
31102SOL     OW95239   9.782   7.559   9.842
31102SOL    HW195240   9.687   7.546   9.872
31102SOL    HW295241   9.784   7.619   9.762
31103SOL     OW95242   9.602   7.491   9.470
31103SOL    HW195243   9.667   7.548   9.421
31103SOL    HW295244   9.651   7.433   9.535
31104SOL     OW95245   0.213   7.640   9.718
31104SOL    HW195246   0.191   7.712   9.651
31104SOL    HW295247   0.288   7.584   9.682
31105SOL     OW95248   9.792   7.702   9.618
31105SOL    HW195249   9.840   7.651   9.547
31105SOL    HW295250   9.738   7.775   9.576
31106SOL     OW95251   9.531   7.516   9.940
31106SOL    HW195252   9.462   7.587   9.951
31106SOL    HW295253   9.557   7.480   0.030
31107SOL     OW95254   9.259   8.776   9.512
31107SOL    HW195255   9.174   8.802   9.466
31107SOL    HW295256   9.248   8.685   9.553
31108SOL     OW95257   0.049   8.001   9.686
31108SOL    HW195258   0.100   7.934   9.632
31108SOL    HW295259   9.973   8.037   9.632
31109SOL     OW95260   9.676   7.892   9.468
31109SOL    HW195261   9.745   7.961   9.493
31109SOL    HW295262   9.595   7.938   9.432
31110SOL     OW95263   9.905   8.874   9.733
31110SOL    HW195264   9.947   8.803   9.790
31110SOL    HW295265   9.808   8.882   9.756
31111SOL     OW95266   9.527   8.748   9.577
31111SOL    HW195267   9.434   8.782   9.559
31111SOL    HW295268   9.571   8.805   9.646
31112SOL     OW95269   9.347   7.778   9.323
31112SOL    HW195270   9.275   7.789   9.254
31112SOL    HW295271   9.392   7.866   9.338
31113SOL     OW95272   9.362   7.608   9.538
31113SOL    HW195273   9.342   7.671   9.463
31113SOL    HW295274   9.453   7.569   9.525
31114SOL     OW95275   9.474   8.719   9.906
31114SOL    HW195276   9.417   8.721   9.988
31114SOL    HW295277   9.440   8.648   9.844
31115SOL     OW95278   9.758   7.925   9.891
31115SOL    HW195279   9.753   7.866   9.811
31115SOL    HW295280   9.695   7.890   9.961
31116SOL     OW95281   9.383   8.548   9.702
31116SOL    HW195282   9.449   8.603   9.651
31116SOL    HW295283   9.393   8.452   9.676
31117SOL     OW95284   9.502   9.599   0.997
31117SOL    HW195285   9.552   9.563   1.076
31117SOL    HW295286   9.427   9.538   0.975
31118SOL     OW95287   9.269   9.662   0.627
31118SOL    HW195288   9.194   9.695   0.684
31118SOL    HW295289   9.237   9.589   0.568
31119SOL     OW95290   0.154   0.159   1.807
31119SOL    HW195291   0.074   0.216   1.826
31119SOL    HW295292   0.189   0.122   1.893
31120SOL     OW95293   9.705   9.739   1.514
31120SOL    HW195294   9.793   9.696   1.496
31120SOL    HW295295   9.632   9.671   1.503
31121SOL     OW95296   9.319   9.944   0.579
31121SOL    HW195297   9.320   9.844   0.590
31121SOL    HW295298   9.408   9.981   0.604
31122SOL     OW95299   0.096   9.258   0.521
31122SOL    HW195300   0.157   9.300   0.588
31122SOL    HW295301   0.007   9.305   0.523
31123SOL     OW95302   9.637   9.523   1.807
31123SOL    HW195303   9.649   9.622   1.807
31123SOL    HW295304   9.539   9.501   1.802
31124SOL     OW95305   0.058   9.751   0.236
31124SOL    HW195306   0.033   9.838   0.278
31124SOL    HW295307   0.025   9.749   0.142
31125SOL     OW95308   9.857   9.472   0.923
31125SOL    HW195309   9.877   9.503   1.016
31125SOL    HW295310   9.891   9.539   0.857
31126SOL     OW95311   9.513   9.550   1.479
31126SOL    HW195312   9.420   9.581   1.459
31126SOL    HW295313   9.509   9.466   1.534
31127SOL     OW95314   9.833   9.416   0.100
31127SOL    HW195315   9.920   9.398   0.146
31127SOL    HW295316   9.848   9.417   0.001
31128SOL     OW95317   9.841   9.365   0.478
31128SOL    HW195318   9.764   9.363   0.542
31128SOL    HW295319   9.842   9.453   0.430
31129SOL     OW95320   0.139   9.572   0.423
31129SOL    HW195321   0.108   9.638   0.355
31129SOL    HW295322   0.234   9.591   0.447
31130SOL     OW95323   9.342   9.869   1.333
31130SOL    HW195324   9.440   9.888   1.333
31130SOL    HW295325   9.292   9.956   1.333
31131SOL     OW95326   9.885   9.560   1.189
31131SOL    HW195327   9.915   9.571   1.284
31131SOL    HW295328   9.787   9.541   1.186
31132SOL     OW95329   9.795   9.631   0.272
31132SOL    HW195330   9.792   9.556   0.205
31132SOL    HW295331   9.884   9.676   0.266
31133SOL     OW95332   9.923   9.824   0.978
31133SOL    HW195333   9.965   9.889   0.915
31133SOL    HW295334   9.966   9.833   1.068
31134SOL     OW95335   9.818   9.391   1.657
31134SOL    HW195336   9.786   9.301   1.629
31134SOL    HW295337   9.745   9.439   1.706
31135SOL     OW95338   9.620   9.497   1.224
31135SOL    HW195339   9.583   9.523   1.313
31135SOL    HW295340   9.620   9.397   1.215
31136SOL     OW95341   9.616   9.344   0.637
31136SOL    HW195342   9.578   9.434   0.658
31136SOL    HW295343   9.653   9.304   0.721
31137SOL     OW95344   9.672   0.059   0.893
31137SOL    HW195345   9.755   0.111   0.913
31137SOL    HW295346   9.666   9.980   0.954
31138SOL     OW95347   9.664   9.825   1.047
31138SOL    HW195348   9.612   9.745   1.016
31138SOL    HW295349   9.760   9.814   1.021
31139SOL     OW95350   9.293   9.766   1.087
31139SOL    HW195351   9.367   9.714   1.043
31139SOL    HW295352   9.326   9.803   1.174
31140SOL     OW95353   9.569   9.795   1.764
31140SOL    HW195354   9.611   9.795   1.673
31140SOL    HW295355   9.539   9.887   1.787
31141SOL     OW95356   9.988   9.977   0.378
31141SOL    HW195357   0.031   9.941   0.461
31141SOL    HW295358   9.891   9.992   0.395
31142SOL     OW95359   9.519   9.591   0.710
31142SOL    HW195360   9.428   9.621   0.681
31142SOL    HW295361   9.528   9.604   0.809
31143SOL     OW95362   9.923   9.567   1.466
31143SOL    HW195363   0.022   9.555   1.469
31143SOL    HW295364   9.880   9.498   1.526
31144SOL     OW95365   9.366   9.583   9.957
31144SOL    HW195366   9.282   9.567   9.905
31144SOL    HW295367   9.397   9.677   9.942
31145SOL     OW95368   9.360   9.420   0.192
31145SOL    HW195369   9.349   9.490   0.120
31145SOL    HW295370   9.453   9.384   0.189
31146SOL     OW95371   9.742   9.639   0.554
31146SOL    HW195372   9.725   9.658   0.457
31146SOL    HW295373   9.655   9.635   0.603
31147SOL     OW95374   9.609   9.902   1.303
31147SOL    HW195375   9.658   9.851   1.373
31147SOL    HW295376   9.638   9.871   1.213
31148SOL     OW95377   9.529   9.611   2.842
31148SOL    HW195378   9.574   9.581   2.926
31148SOL    HW295379   9.436   9.573   2.840
31149SOL     OW95380   9.316   9.705   2.486
31149SOL    HW195381   9.237   9.718   2.546
31149SOL    HW295382   9.291   9.646   2.410
31150SOL     OW95383   0.178   0.018   3.668
31150SOL    HW195384   0.126   0.101   3.653
31150SOL    HW295385   0.232   0.026   3.752
31151SOL     OW95386   9.337   9.988   2.427
31151SOL    HW195387   9.346   9.890   2.448
31151SOL    HW295388   9.413   0.038   2.468
31152SOL     OW95389   0.155   9.403   2.370
31152SOL    HW195390   0.193   9.493   2.347
31152SOL    HW295391   0.055   9.409   2.372
31153SOL     OW95392   9.617   9.572   3.620
31153SOL    HW195393   9.667   9.656   3.600
31153SOL    HW295394   9.536   9.593   3.674
31154SOL     OW95395   0.231   9.790   2.055
31154SOL    HW195396   0.151   9.773   2.112
31154SOL    HW295397   0.218   9.749   1.965
31155SOL     OW95398   9.968   9.644   2.864
31155SOL    HW195399   9.926   9.619   2.951
31155SOL    HW295400   9.973   9.743   2.856
31156SOL     OW95401   9.435   9.472   3.315
31156SOL    HW195402   9.400   9.554   3.361
31156SOL    HW295403   9.430   9.394   3.378
31157SOL     OW95404   9.922   9.584   1.897
31157SOL    HW195405   9.977   9.532   1.962
31157SOL    HW295406   9.884   9.522   1.828
31158SOL     OW95407   9.882   9.406   2.313
31158SOL    HW195408   9.808   9.387   2.378
31158SOL    HW295409   9.859   9.486   2.259
31159SOL     OW95410   9.613   9.337   2.015
31159SOL    HW195411   9.650   9.403   1.949
31159SOL    HW295412   9.688   9.287   2.058
31160SOL     OW95413   0.272   9.646   2.309
31160SOL    HW195414   0.302   9.653   2.213
31160SOL    HW295415   0.338   9.693   2.368
31161SOL     OW95416   9.365   9.947   3.206
31161SOL    HW195417   9.444   9.899   3.168
31161SOL    HW295418   9.377   9.959   3.304
31162SOL     OW95419   9.845   9.592   3.096
31162SOL    HW195420   9.870   9.618   3.189
31162SOL    HW295421   9.754   9.550   3.098
31163SOL     OW95422   9.817   9.628   2.168
31163SOL    HW195423   9.814   9.617   2.069
31163SOL    HW295424   9.897   9.683   2.193
31164SOL     OW95425   9.928   9.919   2.848
31164SOL    HW195426   9.959   9.993   2.788
31164SOL    HW295427   9.988   9.914   2.928
31165SOL     OW95428   9.792   9.390   3.522
31165SOL    HW195429   9.760   9.299   3.498
31165SOL    HW295430   9.715   9.444   3.556
31166SOL     OW95431   9.588   9.506   3.097
31166SOL    HW195432   9.539   9.499   3.184
31166SOL    HW295433   9.586   9.417   3.050
31167SOL     OW95434   9.662   9.349   2.477
31167SOL    HW195435   9.619   9.431   2.514
31167SOL    HW295436   9.723   9.309   2.546
31168SOL     OW95437   9.659   9.875   2.862
31168SOL    HW195438   9.632   9.785   2.827
31168SOL    HW295439   9.758   9.884   2.855
31169SOL     OW95440   9.221   9.838   2.995
31169SOL    HW195441   9.281   9.793   2.929
31169SOL    HW295442   9.276   9.889   3.060
31170SOL     OW95443   0.032   9.767   2.237
31170SOL    HW195444   0.107   9.733   2.294
31170SOL    HW295445   0.029   9.867   2.243
31171SOL     OW95446   9.547   9.583   2.571
31171SOL    HW195447   9.465   9.627   2.535
31171SOL    HW295448   9.550   9.594   2.671
31172SOL     OW95449   9.870   9.620   3.383
31172SOL    HW195450   9.970   9.618   3.371
31172SOL    HW295451   9.840   9.534   3.424
31173SOL     OW95452   9.374   9.617   1.864
31173SOL    HW195453   9.297   9.620   1.800
31173SOL    HW295454   9.439   9.689   1.842
31174SOL     OW95455   9.375   9.448   2.084
31174SOL    HW195456   9.356   9.512   2.009
31174SOL    HW295457   9.466   9.410   2.072
31175SOL     OW95458   9.773   9.674   2.444
31175SOL    HW195459   9.767   9.665   2.344
31175SOL    HW295460   9.686   9.645   2.485
31176SOL     OW95461   9.556   9.793   3.104
31176SOL    HW195462   9.577   9.695   3.111
31176SOL    HW295463   9.603   9.831   3.025
31177SOL     OW95464   9.487   9.631   4.719
31177SOL    HW195465   9.536   9.598   4.800
31177SOL    HW295466   9.412   9.568   4.698
31178SOL     OW95467   9.282   9.704   4.335
31178SOL    HW195468   9.192   9.702   4.379
31178SOL    HW295469   9.298   9.794   4.294
31179SOL     OW95470   0.143   0.148   5.575
31179SOL    HW195471   0.080   0.223   5.593
31179SOL    HW295472   0.180   0.113   5.661
31180SOL     OW95473   9.709   9.762   5.196
31180SOL    HW195474   9.794   9.712   5.177
31180SOL    HW295475   9.632   9.698   5.198
31181SOL     OW95476   0.084   9.251   4.230
31181SOL    HW195477   0.125   9.342   4.233
31181SOL    HW295478   9.984   9.259   4.240
31182SOL     OW95479   9.665   9.571   5.464
31182SOL    HW195480   9.679   9.670   5.466
31182SOL    HW295481   9.570   9.551   5.486
31183SOL     OW95482   0.232   9.646   3.962
31183SOL    HW195483   0.162   9.707   3.999
31183SOL    HW295484   0.209   9.621   3.868
31184SOL     OW95485   9.893   9.405   4.656
31184SOL    HW195486   9.886   9.447   4.747
31184SOL    HW295487   9.893   9.476   4.586
31185SOL     OW95488   9.500   9.587   5.193
31185SOL    HW195489   9.407   9.622   5.181
31185SOL    HW295490   9.496   9.503   5.247
31186SOL     OW95491   9.881   9.491   3.770
31186SOL    HW195492   9.943   9.438   3.828
31186SOL    HW295493   9.868   9.444   3.683
31187SOL     OW95494   9.843   9.390   4.185
31187SOL    HW195495   9.774   9.391   4.256
31187SOL    HW295496   9.836   9.473   4.130
31188SOL     OW95497   9.635   9.354   3.857
31188SOL    HW195498   9.697   9.421   3.816
31188SOL    HW295499   9.687   9.290   3.913
31189SOL     OW95500   0.180   9.501   4.194
31189SOL    HW195501   0.207   9.544   4.107
31189SOL    HW295502   0.262   9.484   4.249
31190SOL     OW95503   9.332   9.905   5.052
31190SOL    HW195504   9.431   9.914   5.042
31190SOL    HW295505   9.289   9.994   5.040
31191SOL     OW95506   9.860   9.539   4.890
31191SOL    HW195507   9.898   9.558   4.981
31191SOL    HW295508   9.760   9.534   4.896
31192SOL     OW95509   9.823   9.615   4.018
31192SOL    HW195510   9.826   9.577   3.926
31192SOL    HW295511   9.894   9.684   4.028
31193SOL     OW95512   9.928   9.823   4.717
31193SOL    HW195513   9.972   9.890   4.656
31193SOL    HW295514   9.967   9.831   4.808
31194SOL     OW95515   9.835   9.397   5.354
31194SOL    HW195516   9.788   9.311   5.332
31194SOL    HW295517   9.769   9.462   5.392
31195SOL     OW95518   9.592   9.518   4.943
31195SOL    HW195519   9.561   9.552   5.032
31195SOL    HW295520   9.581   9.419   4.939
31196SOL     OW95521   9.643   9.364   4.372
31196SOL    HW195522   9.591   9.448   4.389
31196SOL    HW295523   9.654   9.314   4.457
31197SOL     OW95524   9.673   0.068   4.586
31197SOL    HW195525   9.753   0.124   4.610
31197SOL    HW295526   9.667   9.990   4.648
31198SOL     OW95527   9.661   9.847   4.751
31198SOL    HW195528   9.605   9.770   4.722
31198SOL    HW295529   9.758   9.826   4.735
31199SOL     OW95530   9.254   9.790   4.818
31199SOL    HW195531   9.324   9.743   4.764
31199SOL    HW295532   9.295   9.827   4.901
31200SOL     OW95533   9.604   9.848   5.438
31200SOL    HW195534   9.639   9.834   5.345
31200SOL    HW295535   9.600   9.946   5.458
31201SOL     OW95536   0.029   9.789   4.062
31201SOL    HW195537   0.031   9.764   4.159
31201SOL    HW295538   0.044   9.888   4.053
31202SOL     OW95539   9.516   9.602   4.434
31202SOL    HW195540   9.431   9.634   4.391
31202SOL    HW295541   9.514   9.622   4.532
31203SOL     OW95542   9.915   9.579   5.160
31203SOL    HW195543   0.015   9.577   5.160
31203SOL    HW295544   9.881   9.507   5.220
31204SOL     OW95545   9.401   9.677   3.757
31204SOL    HW195546   9.330   9.712   3.696
31204SOL    HW295547   9.446   9.754   3.803
31205SOL     OW95548   9.381   9.446   3.901
31205SOL    HW195549   9.379   9.534   3.854
31205SOL    HW295550   9.473   9.407   3.896
31206SOL     OW95551   9.746   9.663   4.292
31206SOL    HW195552   9.730   9.656   4.194
31206SOL    HW295553   9.660   9.651   4.341
31207SOL     OW95554   9.597   9.925   5.002
31207SOL    HW195555   9.649   9.871   5.068
31207SOL    HW295556   9.624   9.899   4.909
31208SOL     OW95557   9.524   9.597   6.541
31208SOL    HW195558   9.556   9.565   6.630
31208SOL    HW295559   9.436   9.554   6.520
31209SOL     OW95560   9.295   9.655   6.203
31209SOL    HW195561   9.214   9.694   6.248
31209SOL    HW295562   9.271   9.568   6.161
31210SOL     OW95563   0.222   0.044   7.344
31210SOL    HW195564   0.178   0.123   7.386
31210SOL    HW295565   0.320   0.063   7.335
31211SOL     OW95566   9.701   9.707   7.041
31211SOL    HW195567   9.785   9.657   7.021
31211SOL    HW295568   9.624   9.643   7.042
31212SOL     OW95569   9.285   9.983   6.180
31212SOL    HW195570   9.304   9.885   6.175
31212SOL    HW295571   9.201   9.999   6.232
31213SOL     OW95572   0.134   9.288   6.122
31213SOL    HW195573   0.159   9.372   6.073
31213SOL    HW295574   0.035   9.284   6.131
31214SOL     OW95575   9.697   9.542   7.362
31214SOL    HW195576   9.667   9.633   7.334
31214SOL    HW295577   9.623   9.496   7.412
31215SOL     OW95578   0.270   9.694   5.805
31215SOL    HW195579   0.206   9.755   5.852
31215SOL    HW295580   0.245   9.688   5.708
31216SOL     OW95581   9.869   9.425   6.497
31216SOL    HW195582   9.860   9.466   6.587
31216SOL    HW295583   9.901   9.493   6.432
31217SOL     OW95584   9.487   9.533   7.066
31217SOL    HW195585   9.400   9.571   7.098
31217SOL    HW295586   9.494   9.438   7.095
31218SOL     OW95587   9.907   9.537   5.643
31218SOL    HW195588   9.977   9.481   5.687
31218SOL    HW295589   9.890   9.502   5.551
31219SOL     OW95590   9.875   9.405   6.067
31219SOL    HW195591   9.784   9.391   6.106
31219SOL    HW295592   9.872   9.485   6.007
31220SOL     OW95593   9.683   9.381   5.724
31220SOL    HW195594   9.746   9.450   5.688
31220SOL    HW295595   9.735   9.313   5.777
31221SOL     OW95596   0.193   9.518   5.997
31221SOL    HW195597   0.232   9.578   5.928
31221SOL    HW295598   0.202   9.559   6.087
31222SOL     OW95599   9.350   9.947   6.903
31222SOL    HW195600   9.450   9.953   6.906
31222SOL    HW295601   9.312   0.038   6.920
31223SOL     OW95602   9.825   9.527   6.746
31223SOL    HW195603   9.875   9.532   6.833
31223SOL    HW295604   9.727   9.524   6.764
31224SOL     OW95605   9.878   9.637   5.908
31224SOL    HW195606   9.869   9.605   5.814
31224SOL    HW295607   9.953   9.703   5.915
31225SOL     OW95608   9.875   9.886   6.558
31225SOL    HW195609   9.932   9.923   6.484
31225SOL    HW295610   9.928   9.880   6.642
31226SOL     OW95611   9.856   9.364   7.217
31226SOL    HW195612   9.810   9.277   7.200
31226SOL    HW295613   9.797   9.424   7.271
31227SOL     OW95614   9.556   9.502   6.806
31227SOL    HW195615   9.537   9.520   6.902
31227SOL    HW295616   9.552   9.404   6.788
31228SOL     OW95617   9.636   9.380   6.193
31228SOL    HW195618   9.600   9.472   6.211
31228SOL    HW295619   9.638   9.328   6.279
31229SOL     OW95620   9.609   9.849   6.603
31229SOL    HW195621   9.582   9.758   6.574
31229SOL    HW295622   9.705   9.864   6.580
31230SOL     OW95623   9.333   9.918   6.634
31230SOL    HW195624   9.424   9.896   6.598
31230SOL    HW295625   9.337   9.923   6.734
31231SOL     OW95626   0.068   9.843   5.910
31231SOL    HW195627   0.051   9.874   6.004
31231SOL    HW295628   0.044   9.916   5.846
31232SOL     OW95629   9.558   9.636   6.267
31232SOL    HW195630   9.464   9.650   6.237
31232SOL    HW295631   9.561   9.627   6.366
31233SOL     OW95632   9.915   9.538   7.009
31233SOL    HW195633   0.011   9.564   7.017
31233SOL    HW295634   9.894   9.467   7.076
31234SOL     OW95635   9.415   9.682   5.548
31234SOL    HW195636   9.327   9.698   5.503
31234SOL    HW295637   9.480   9.752   5.518
31235SOL     OW95638   9.409   9.488   5.732
31235SOL    HW195639   9.404   9.569   5.674
31235SOL    HW295640   9.504   9.472   5.759
31236SOL     OW95641   9.780   9.757   6.149
31236SOL    HW195642   9.791   9.717   6.058
31236SOL    HW295643   9.694   9.725   6.189
31237SOL     OW95644   9.620   9.927   6.868
31237SOL    HW195645   9.663   9.856   6.924
31237SOL    HW295646   9.622   9.900   6.772
31238SOL     OW95647   9.500   9.632   8.542
31238SOL    HW195648   9.559   9.576   8.601
31238SOL    HW295649   9.412   9.587   8.530
31239SOL     OW95650   9.296   9.754   8.049
31239SOL    HW195651   9.216   9.742   8.108
31239SOL    HW295652   9.374   9.704   8.088
31240SOL     OW95653   0.194   9.972   9.170
31240SOL    HW195654   0.152   0.062   9.157
31240SOL    HW295655   0.261   9.977   9.244
31241SOL     OW95656   9.672   9.738   8.953
31241SOL    HW195657   9.755   9.687   8.976
31241SOL    HW295658   9.596   9.674   8.942
31242SOL     OW95659   9.361   0.018   8.030
31242SOL    HW195660   9.341   9.920   8.032
31242SOL    HW295661   9.458   0.032   8.051
31243SOL     OW95662   0.096   9.202   7.948
31243SOL    HW195663   0.173   9.250   7.988
31243SOL    HW295664   0.019   9.265   7.938
31244SOL     OW95665   9.635   9.591   9.322
31244SOL    HW195666   9.707   9.649   9.359
31244SOL    HW295667   9.558   9.647   9.292
31245SOL     OW95668   0.249   9.739   7.735
31245SOL    HW195669   0.280   9.834   7.742
31245SOL    HW295670   0.219   9.721   7.641
31246SOL     OW95671   9.779   9.473   8.353
31246SOL    HW195672   9.817   9.506   8.439
31246SOL    HW295673   9.822   9.520   8.276
31247SOL     OW95674   9.466   9.561   8.907
31247SOL    HW195675   9.381   9.586   8.859
31247SOL    HW295676   9.448   9.483   8.967
31248SOL     OW95677   9.912   9.578   7.530
31248SOL    HW195678   9.953   9.490   7.554
31248SOL    HW295679   9.838   9.563   7.465
31249SOL     OW95680   9.886   9.378   7.919
31249SOL    HW195681   9.822   9.361   7.993
31249SOL    HW295682   9.860   9.463   7.872
31250SOL     OW95683   9.587   9.358   7.630
31250SOL    HW195684   9.588   9.433   7.695
31250SOL    HW295685   9.648   9.286   7.661
31251SOL     OW95686   0.184   9.479   7.811
31251SOL    HW195687   0.216   9.572   7.792
31251SOL    HW295688   0.229   9.445   7.894
31252SOL     OW95689   9.430   0.062   8.900
31252SOL    HW195690   9.494   0.008   8.845
31252SOL    HW295691   9.347   0.079   8.848
31253SOL     OW95692   9.872   9.553   8.598
31253SOL    HW195693   9.906   9.634   8.646
31253SOL    HW295694   9.795   9.515   8.649
31254SOL     OW95695   9.824   9.615   7.790
31254SOL    HW195696   9.850   9.604   7.694
31254SOL    HW295697   9.873   9.694   7.829
31255SOL     OW95698   9.916   9.771   8.374
31255SOL    HW195699   9.952   9.790   8.283
31255SOL    HW295700   9.973   9.816   8.442
31256SOL     OW95701   9.776   9.393   9.191
31256SOL    HW195702   9.727   9.313   9.158
31256SOL    HW295703   9.712   9.460   9.229
31257SOL     OW95704   9.637   9.469   8.717
31257SOL    HW195705   9.585   9.506   8.793
31257SOL    HW295706   9.631   9.369   8.717
31258SOL     OW95707   9.731   9.315   8.120
31258SOL    HW195708   9.741   9.349   8.214
31258SOL    HW295709   9.680   9.230   8.121
31259SOL     OW95710   9.646   0.022   8.360
31259SOL    HW195711   9.702   0.103   8.373
31259SOL    HW295712   9.676   9.950   8.423
31260SOL     OW95713   9.698   9.815   8.526
31260SOL    HW195714   9.631   9.741   8.527
31260SOL    HW295715   9.778   9.787   8.473
31261SOL     OW95716   9.404   9.905   8.438
31261SOL    HW195717   9.431   9.816   8.475
31261SOL    HW295718   9.483   9.951   8.398
31262SOL     OW95719   9.583   9.947   9.104
31262SOL    HW195720   9.623   9.870   9.053
31262SOL    HW295721   9.521   9.997   9.044
31263SOL     OW95722   0.008   9.814   7.865
31263SOL    HW195723   0.087   9.773   7.819
31263SOL    HW295724   9.987   9.902   7.824
31264SOL     OW95725   9.888   9.579   9.020
31264SOL    HW195726   9.969   9.547   8.970
31264SOL    HW295727   9.853   9.504   9.076
31265SOL     OW95728   9.342   9.423   7.776
31265SOL    HW195729   9.413   9.474   7.824
31265SOL    HW295730   9.376   9.394   7.687
31266SOL     OW95731   9.570   9.545   7.868
31266SOL    HW195732   9.658   9.582   7.841
31266SOL    HW295733   9.550   9.570   7.962
31267SOL     OW95734   9.627   9.931   8.763
31267SOL    HW195735   9.652   9.864   8.832
31267SOL    HW295736   9.654   9.897   8.672
31268SOL     OW95737   9.478   9.838   9.901
31268SOL    HW195738   9.447   9.862   9.809
31268SOL    HW295739   9.511   9.920   9.947
31269SOL     OW95740   0.237   9.700   9.489
31269SOL    HW195741   0.241   9.797   9.511
31269SOL    HW295742   0.172   9.686   9.414
31270SOL     OW95743   9.910   9.476   9.422
31270SOL    HW195744   9.965   9.419   9.482
31270SOL    HW295745   9.872   9.421   9.349
31271SOL     OW95746   9.811   9.402   9.813
31271SOL    HW195747   9.716   9.397   9.845
31271SOL    HW295748   9.822   9.483   9.755
31272SOL     OW95749   9.549   9.380   9.469
31272SOL    HW195750   9.587   9.458   9.419
31272SOL    HW295751   9.624   9.327   9.509
31273SOL     OW95752   0.328   9.532   9.681
31273SOL    HW195753   0.277   9.586   9.614
31273SOL    HW295754   0.424   9.560   9.678
31274SOL     OW95755   9.797   9.615   9.631
31274SOL    HW195756   9.840   9.561   9.558
31274SOL    HW295757   9.782   9.708   9.598
31275SOL     OW95758   9.548   9.378   9.907
31275SOL    HW195759   9.491   9.459   9.913
31275SOL    HW295760   9.565   9.342   9.998
31276SOL     OW95761   9.604   9.818   0.180
31276SOL    HW195762   9.573   9.775   0.096
31276SOL    HW295763   9.673   9.760   0.224
31277SOL     OW95764   9.441   9.762   9.251
31277SOL    HW195765   9.342   9.767   9.232
31277SOL    HW295766   9.487   9.838   9.207
31278SOL     OW95767   9.307   9.453   9.569
31278SOL    HW195768   9.259   9.497   9.493
31278SOL    HW295769   9.403   9.437   9.543
31279SOL     OW95770   9.703   9.681   9.883
31279SOL    HW195771   9.731   9.658   9.790
31279SOL    HW295772   9.620   9.737   9.880
  10.00000  10.00000  10.00000
