
[ moleculetype ]
; Name            nrexcl
GRA                 3

[ atoms ]
;   nr       type  resnr residue  atom   cgnr     charge       mass  typeB    chargeB      massB
     1     C      1    GRA     C1      1          0     12.011   ; qtot 0
     2     C      1    GRA     C2      2          0     12.011   ; qtot 0
     3     C      1    GRA     C3      3          0     12.011   ; qtot 0
     4     C      1    GRA     C4      4          0     12.011   ; qtot 0
     5     C      2    GRA     C1      5          0     12.011   ; qtot 0
     6     C      2    GRA     C2      6          0     12.011   ; qtot 0
     7     C      2    GRA     C3      7          0     12.011   ; qtot 0
     8     C      2    GRA     C4      8          0     12.011   ; qtot 0
     9     C      3    GRA     C1      9          0     12.011   ; qtot 0
    10     C      3    GRA     C2     10          0     12.011   ; qtot 0
    11     C      3    GRA     C3     11          0     12.011   ; qtot 0
    12     C      3    GRA     C4     12          0     12.011   ; qtot 0
    13     C      4    GRA     C1     13          0     12.011   ; qtot 0
    14     C      4    GRA     C2     14          0     12.011   ; qtot 0
    15     C      4    GRA     C3     15          0     12.011   ; qtot 0
    16     C      4    GRA     C4     16          0     12.011   ; qtot 0
    17     C      5    GRA     C1     17          0     12.011   ; qtot 0
    18     C      5    GRA     C2     18          0     12.011   ; qtot 0
    19     C      5    GRA     C3     19          0     12.011   ; qtot 0
    20     C      5    GRA     C4     20          0     12.011   ; qtot 0
    21     C      6    GRA     C1     21          0     12.011   ; qtot 0
    22     C      6    GRA     C2     22          0     12.011   ; qtot 0
    23     C      6    GRA     C3     23          0     12.011   ; qtot 0
    24     C      6    GRA     C4     24          0     12.011   ; qtot 0
    25     C      7    GRA     C1     25          0     12.011   ; qtot 0
    26     C      7    GRA     C2     26          0     12.011   ; qtot 0
    27     C      7    GRA     C3     27          0     12.011   ; qtot 0
    28     C      7    GRA     C4     28          0     12.011   ; qtot 0
    29     C      8    GRA     C1     29          0     12.011   ; qtot 0
    30     C      8    GRA     C2     30          0     12.011   ; qtot 0
    31     C      8    GRA     C3     31          0     12.011   ; qtot 0
    32     C      8    GRA     C4     32          0     12.011   ; qtot 0
    33     C      9    GRA     C1     33          0     12.011   ; qtot 0
    34     C      9    GRA     C2     34          0     12.011   ; qtot 0
    35     C      9    GRA     C3     35          0     12.011   ; qtot 0
    36     C      9    GRA     C4     36          0     12.011   ; qtot 0
    37     C     10    GRA     C1     37          0     12.011   ; qtot 0
    38     C     10    GRA     C2     38          0     12.011   ; qtot 0
    39     C     10    GRA     C3     39          0     12.011   ; qtot 0
    40     C     10    GRA     C4     40          0     12.011   ; qtot 0
    41     C     11    GRA     C1     41          0     12.011   ; qtot 0
    42     C     11    GRA     C2     42          0     12.011   ; qtot 0
    43     C     11    GRA     C3     43          0     12.011   ; qtot 0
    44     C     11    GRA     C4     44          0     12.011   ; qtot 0
    45     C     12    GRA     C1     45          0     12.011   ; qtot 0
    46     C     12    GRA     C2     46          0     12.011   ; qtot 0
    47     C     12    GRA     C3     47          0     12.011   ; qtot 0
    48     C     12    GRA     C4     48          0     12.011   ; qtot 0
    49     C     13    GRA     C1     49          0     12.011   ; qtot 0
    50     C     13    GRA     C2     50          0     12.011   ; qtot 0
    51     C     13    GRA     C3     51          0     12.011   ; qtot 0
    52     C     13    GRA     C4     52          0     12.011   ; qtot 0
    53     C     14    GRA     C1     53          0     12.011   ; qtot 0
    54     C     14    GRA     C2     54          0     12.011   ; qtot 0
    55     C     14    GRA     C3     55          0     12.011   ; qtot 0
    56     C     14    GRA     C4     56          0     12.011   ; qtot 0
    57     C     15    GRA     C1     57          0     12.011   ; qtot 0
    58     C     15    GRA     C2     58          0     12.011   ; qtot 0
    59     C     15    GRA     C3     59          0     12.011   ; qtot 0
    60     C     15    GRA     C4     60          0     12.011   ; qtot 0
    61     C     16    GRA     C1     61          0     12.011   ; qtot 0
    62     C     16    GRA     C2     62          0     12.011   ; qtot 0
    63     C     16    GRA     C3     63          0     12.011   ; qtot 0
    64     C     16    GRA     C4     64          0     12.011   ; qtot 0
    65     C     17    GRA     C1     65          0     12.011   ; qtot 0
    66     C     17    GRA     C2     66          0     12.011   ; qtot 0
    67     C     17    GRA     C3     67          0     12.011   ; qtot 0
    68     C     17    GRA     C4     68          0     12.011   ; qtot 0
    69     C     18    GRA     C1     69          0     12.011   ; qtot 0
    70     C     18    GRA     C2     70          0     12.011   ; qtot 0
    71     C     18    GRA     C3     71          0     12.011   ; qtot 0
    72     C     18    GRA     C4     72          0     12.011   ; qtot 0
    73     C     19    GRA     C1     73          0     12.011   ; qtot 0
    74     C     19    GRA     C2     74          0     12.011   ; qtot 0
    75     C     19    GRA     C3     75          0     12.011   ; qtot 0
    76     C     19    GRA     C4     76          0     12.011   ; qtot 0
    77     C     20    GRA     C1     77          0     12.011   ; qtot 0
    78     C     20    GRA     C2     78          0     12.011   ; qtot 0
    79     C     20    GRA     C3     79          0     12.011   ; qtot 0
    80     C     20    GRA     C4     80          0     12.011   ; qtot 0

[ bonds ]
;  ai    aj funct            c0            c1            c2            c3
    1     2     1  1.420000e-01  2.552240e+05  1.420000e-01  2.552240e+05 
    2     3     1  1.420000e-01  2.552240e+05  1.420000e-01  2.552240e+05 
    2    17     1  1.420000e-01  2.552240e+05  1.420000e-01  2.552240e+05 
    3     4     1  1.420000e-01  2.552240e+05  1.420000e-01  2.552240e+05 
    3    20     1  1.420000e-01  2.552240e+05  1.420000e-01  2.552240e+05 
    4     5     1  1.420000e-01  2.552240e+05  1.420000e-01  2.552240e+05 
;    4    67     1  1.420000e-01  2.552240e+05  1.420000e-01  2.552240e+05 
    5     6     1  1.420000e-01  2.552240e+05  1.420000e-01  2.552240e+05 
;    5    70     1  1.420000e-01  2.552240e+05  1.420000e-01  2.552240e+05 
    6     7     1  1.420000e-01  2.552240e+05  1.420000e-01  2.552240e+05 
    6    21     1  1.420000e-01  2.552240e+05  1.420000e-01  2.552240e+05 
    7     8     1  1.420000e-01  2.552240e+05  1.420000e-01  2.552240e+05 
    7    24     1  1.420000e-01  2.552240e+05  1.420000e-01  2.552240e+05 
    8     9     1  1.420000e-01  2.552240e+05  1.420000e-01  2.552240e+05 
;    8    71     1  1.420000e-01  2.552240e+05  1.420000e-01  2.552240e+05 
    9    10     1  1.420000e-01  2.552240e+05  1.420000e-01  2.552240e+05 
;    9    74     1  1.420000e-01  2.552240e+05  1.420000e-01  2.552240e+05 
   10    11     1  1.420000e-01  2.552240e+05  1.420000e-01  2.552240e+05 
   10    25     1  1.420000e-01  2.552240e+05  1.420000e-01  2.552240e+05 
   11    12     1  1.420000e-01  2.552240e+05  1.420000e-01  2.552240e+05 
   11    28     1  1.420000e-01  2.552240e+05  1.420000e-01  2.552240e+05 
   12    13     1  1.420000e-01  2.552240e+05  1.420000e-01  2.552240e+05 
;   12    75     1  1.420000e-01  2.552240e+05  1.420000e-01  2.552240e+05 
   13    14     1  1.420000e-01  2.552240e+05  1.420000e-01  2.552240e+05 
;   13    78     1  1.420000e-01  2.552240e+05  1.420000e-01  2.552240e+05 
   14    15     1  1.420000e-01  2.552240e+05  1.420000e-01  2.552240e+05 
   14    29     1  1.420000e-01  2.552240e+05  1.420000e-01  2.552240e+05 
   15    16     1  1.420000e-01  2.552240e+05  1.420000e-01  2.552240e+05 
   15    32     1  1.420000e-01  2.552240e+05  1.420000e-01  2.552240e+05 
;   16    79     1  1.420000e-01  2.552240e+05  1.420000e-01  2.552240e+05 
   17    18     1  1.420000e-01  2.552240e+05  1.420000e-01  2.552240e+05 
   18    19     1  1.420000e-01  2.552240e+05  1.420000e-01  2.552240e+05 
   18    33     1  1.420000e-01  2.552240e+05  1.420000e-01  2.552240e+05 
   19    20     1  1.420000e-01  2.552240e+05  1.420000e-01  2.552240e+05 
   19    36     1  1.420000e-01  2.552240e+05  1.420000e-01  2.552240e+05 
   20    21     1  1.420000e-01  2.552240e+05  1.420000e-01  2.552240e+05 
   21    22     1  1.420000e-01  2.552240e+05  1.420000e-01  2.552240e+05 
   22    23     1  1.420000e-01  2.552240e+05  1.420000e-01  2.552240e+05 
   22    37     1  1.420000e-01  2.552240e+05  1.420000e-01  2.552240e+05 
   23    24     1  1.420000e-01  2.552240e+05  1.420000e-01  2.552240e+05 
   23    40     1  1.420000e-01  2.552240e+05  1.420000e-01  2.552240e+05 
   24    25     1  1.420000e-01  2.552240e+05  1.420000e-01  2.552240e+05 
   25    26     1  1.420000e-01  2.552240e+05  1.420000e-01  2.552240e+05 
   26    27     1  1.420000e-01  2.552240e+05  1.420000e-01  2.552240e+05 
   26    41     1  1.420000e-01  2.552240e+05  1.420000e-01  2.552240e+05 
   27    28     1  1.420000e-01  2.552240e+05  1.420000e-01  2.552240e+05 
   27    44     1  1.420000e-01  2.552240e+05  1.420000e-01  2.552240e+05 
   28    29     1  1.420000e-01  2.552240e+05  1.420000e-01  2.552240e+05 
   29    30     1  1.420000e-01  2.552240e+05  1.420000e-01  2.552240e+05 
   30    31     1  1.420000e-01  2.552240e+05  1.420000e-01  2.552240e+05 
   30    45     1  1.420000e-01  2.552240e+05  1.420000e-01  2.552240e+05 
   31    32     1  1.420000e-01  2.552240e+05  1.420000e-01  2.552240e+05 
   31    48     1  1.420000e-01  2.552240e+05  1.420000e-01  2.552240e+05 
   33    34     1  1.420000e-01  2.552240e+05  1.420000e-01  2.552240e+05 
   34    35     1  1.420000e-01  2.552240e+05  1.420000e-01  2.552240e+05 
   34    49     1  1.420000e-01  2.552240e+05  1.420000e-01  2.552240e+05 
   35    36     1  1.420000e-01  2.552240e+05  1.420000e-01  2.552240e+05 
   35    52     1  1.420000e-01  2.552240e+05  1.420000e-01  2.552240e+05 
   36    37     1  1.420000e-01  2.552240e+05  1.420000e-01  2.552240e+05 
   37    38     1  1.420000e-01  2.552240e+05  1.420000e-01  2.552240e+05 
   38    39     1  1.420000e-01  2.552240e+05  1.420000e-01  2.552240e+05 
   38    53     1  1.420000e-01  2.552240e+05  1.420000e-01  2.552240e+05 
   39    40     1  1.420000e-01  2.552240e+05  1.420000e-01  2.552240e+05 
   39    56     1  1.420000e-01  2.552240e+05  1.420000e-01  2.552240e+05 
   40    41     1  1.420000e-01  2.552240e+05  1.420000e-01  2.552240e+05 
   41    42     1  1.420000e-01  2.552240e+05  1.420000e-01  2.552240e+05 
   42    43     1  1.420000e-01  2.552240e+05  1.420000e-01  2.552240e+05 
   42    57     1  1.420000e-01  2.552240e+05  1.420000e-01  2.552240e+05 
   43    44     1  1.420000e-01  2.552240e+05  1.420000e-01  2.552240e+05 
   43    60     1  1.420000e-01  2.552240e+05  1.420000e-01  2.552240e+05 
   44    45     1  1.420000e-01  2.552240e+05  1.420000e-01  2.552240e+05 
   45    46     1  1.420000e-01  2.552240e+05  1.420000e-01  2.552240e+05 
   46    47     1  1.420000e-01  2.552240e+05  1.420000e-01  2.552240e+05 
   46    61     1  1.420000e-01  2.552240e+05  1.420000e-01  2.552240e+05 
   47    48     1  1.420000e-01  2.552240e+05  1.420000e-01  2.552240e+05 
   47    64     1  1.420000e-01  2.552240e+05  1.420000e-01  2.552240e+05 
   49    50     1  1.420000e-01  2.552240e+05  1.420000e-01  2.552240e+05 
   50    51     1  1.420000e-01  2.552240e+05  1.420000e-01  2.552240e+05 
   50    65     1  1.420000e-01  2.552240e+05  1.420000e-01  2.552240e+05 
   51    52     1  1.420000e-01  2.552240e+05  1.420000e-01  2.552240e+05 
   51    68     1  1.420000e-01  2.552240e+05  1.420000e-01  2.552240e+05 
   52    53     1  1.420000e-01  2.552240e+05  1.420000e-01  2.552240e+05 
   53    54     1  1.420000e-01  2.552240e+05  1.420000e-01  2.552240e+05 
   54    55     1  1.420000e-01  2.552240e+05  1.420000e-01  2.552240e+05 
   54    69     1  1.420000e-01  2.552240e+05  1.420000e-01  2.552240e+05 
   55    56     1  1.420000e-01  2.552240e+05  1.420000e-01  2.552240e+05 
   55    72     1  1.420000e-01  2.552240e+05  1.420000e-01  2.552240e+05 
   56    57     1  1.420000e-01  2.552240e+05  1.420000e-01  2.552240e+05 
   57    58     1  1.420000e-01  2.552240e+05  1.420000e-01  2.552240e+05 
   58    59     1  1.420000e-01  2.552240e+05  1.420000e-01  2.552240e+05 
   58    73     1  1.420000e-01  2.552240e+05  1.420000e-01  2.552240e+05 
   59    60     1  1.420000e-01  2.552240e+05  1.420000e-01  2.552240e+05 
   59    76     1  1.420000e-01  2.552240e+05  1.420000e-01  2.552240e+05 
   60    61     1  1.420000e-01  2.552240e+05  1.420000e-01  2.552240e+05 
   61    62     1  1.420000e-01  2.552240e+05  1.420000e-01  2.552240e+05 
   62    63     1  1.420000e-01  2.552240e+05  1.420000e-01  2.552240e+05 
   62    77     1  1.420000e-01  2.552240e+05  1.420000e-01  2.552240e+05 
   63    64     1  1.420000e-01  2.552240e+05  1.420000e-01  2.552240e+05 
   63    80     1  1.420000e-01  2.552240e+05  1.420000e-01  2.552240e+05 
   65    66     1  1.420000e-01  2.552240e+05  1.420000e-01  2.552240e+05 
;   65    80     1  1.420000e-01  2.552240e+05  1.420000e-01  2.552240e+05 
   66    67     1  1.420000e-01  2.552240e+05  1.420000e-01  2.552240e+05 
   67    68     1  1.420000e-01  2.552240e+05  1.420000e-01  2.552240e+05 
   68    69     1  1.420000e-01  2.552240e+05  1.420000e-01  2.552240e+05 
   69    70     1  1.420000e-01  2.552240e+05  1.420000e-01  2.552240e+05 
   70    71     1  1.420000e-01  2.552240e+05  1.420000e-01  2.552240e+05 
   71    72     1  1.420000e-01  2.552240e+05  1.420000e-01  2.552240e+05 
   72    73     1  1.420000e-01  2.552240e+05  1.420000e-01  2.552240e+05 
   73    74     1  1.420000e-01  2.552240e+05  1.420000e-01  2.552240e+05 
   74    75     1  1.420000e-01  2.552240e+05  1.420000e-01  2.552240e+05 
   75    76     1  1.420000e-01  2.552240e+05  1.420000e-01  2.552240e+05 
   76    77     1  1.420000e-01  2.552240e+05  1.420000e-01  2.552240e+05 
   77    78     1  1.420000e-01  2.552240e+05  1.420000e-01  2.552240e+05 
   78    79     1  1.420000e-01  2.552240e+05  1.420000e-01  2.552240e+05 
   79    80     1  1.420000e-01  2.552240e+05  1.420000e-01  2.552240e+05 

[ pairs ]
;  ai    aj funct            c0            c1            c2            c3
    1     5     1 
    1    19     1 
    1    21     1
    1    33     1 
    2     6     1 
    2    22     1 
    2    34     1 
    2    36     1 
    3     7     1 
    3    25     1 
    3    23     1 
    3    34     1 
    3    37     1 
;    3    66     1 
;    3    68     1 
;    3    70     1 
    4     7     1 
    4    17     1 
    4    19     1 
    4    21     1 
 ;   4    51     1 
;    4    65     1 
;    4    69     1 
;    4    71     1 
    5     8     1 
    5    20     1 
    5    22     1 
    5    24     1 
;    5    54     1 
;    5    66     1 
;    5    68     1 
;    5    72     1 
    6     9     1 
    6    19     1 
    6    23     1 
    6    25     1 
    6    37     1 
;    6    67     1 
;    6    69     1 
;    6    71     1 
    7    10     1 
    7    20     1 
    7    22     1 
    7    26     1 
;    7    40     1 
;    7    70     1 
;    7    72     1 
;    7    74     1 
    8    11     1 
    8    21     1 
    8    23     1 
    8    25     1 
;    8    55     1 
;    8    69     1 
;    8    73     1 
;    8    75     1 
    9    12     1 
    9    24     1 
    9    26     1 
    9    28     1 
;    9    58     1 
;    9    70     1 
;    9    72     1 
;    9    76     1 
   10    13     1 
   10    23     1 
   10    27     1 
   10    29     1 
   10    41     1 
;   10    71     1 
;   10    73     1 
;   10    75     1 
   11    14     1 
   11    24     1 
   11    26     1 
   11    30     1 
   11    44     1 
;   11    74     1 
;   11    76     1 
;   11    78     1 
   12    15     1 
   12    25     1 
   12    27     1 
   12    29     1 
   12    59     1 
;   12    73     1 
;   12    77     1 
;   12    79     1 
   13    16     1 
   13    28     1 
   13    30     1 
   13    32     1 
;   13    62     1 
;   13    74     1 
;   13    76     1 
;   13    80     1 
   14    17     1 
   14    27     1 
   14    31     1 
   14    45     1 
;   14    75     1 
;   14    77     1 
;   14    79     1 
   15    11     1 
   15    27     1 
   15    45     1 
   15    47     1 
   16    48     1 
   16    30     1 
   16    28     1 
   16    12     1 
   17    21     1 
   17    35     1 
   17    37     1 
   17    49     1 
   17    5     1 
   18    4     1 
   18    6     1 
   18    22     1 
   18    38     1 
   18    52     1 
   18    50     1 
   19    22     1 
;   19    32     1 
;   19    34     1 
   19    38     1 
   19    48     1 
   19    52     1 
;   20    23     1 
   20    33     1 
   20    35     1 
   20    37     1 
;   20    67     1 
   21    24     1 
   21    36     1 
   21    38     1 
   21    40     1 
;   21    70     1 
   22    25     1 
   22    35     1 
   22    39     1 
   22    41     1 
   22    53     1 
   23    26     1 
   23    36     1 
   23    38     1 
   23    42     1 
   23    56     1 
   24    27     1 
   24    37     1 
   24    39     1 
   24    41     1 
;   24    71     1 
   25    28     1 
   25    40     1 
   25    42     1 
   25    44     1 
;   25    74     1 
   26    29     1 
   26    39     1 
   26    43     1 
   26    45     1 
   26    57     1 
   27    30     1 
   27    40     1 
   27    42     1 
   27    46     1 
;   27    60     1 
   28    31     1 
   28    41     1 
   28    43     1 
   28    45     1 
;  28    75     1 
   29    32     1 
   29    44     1 
   29    46     1 
   29    48     1 
;   29    78     1 
;   30    33     1 
   30    43     1 
   30    47     1 
   30    61     1 
   31    62     1 
   31    61     1 
   31    13     1 
   31    11     1
   31    27     1
   31    43     1 
   32    64     1 
   32    46     1 
   32    28     1 
   32    12     1
   32    44     1 
   33    1      1 
   33    65     1 
   33    37     1 
   33    3      1 
   33    21     1
   33    53     1
   33    51     1 
   34    65     1 
   34    2      1 
   34    68     1 
   34    54     1 
   34    38     1 
   34    20     1
   34    22     1 
   35    38     1 
   35    48     1 
   35    50     1 
   35    54     1 
   35    64     1 
   35    68     1 
   36    39     1 
   36    49     1 
   36    51     1 
   36    53     1 
   37    40     1 
   37    52     1 
   37    54     1 
   37    56     1 
   38    41     1 
   38    51     1 
   38    55     1 
   38    57     1 
   38    69     1 
   39    42     1 
   39    52     1 
   39    54     1 
   39    58     1 
;   39    72     1 
   40    43     1 
   40    53     1 
   40    55     1 
   40    57     1 
   41    44     1 
   41    56     1 
   41    58     1 
   41    60     1 
   42    45     1 
   42    55     1 
   42    59     1 
   42    61     1 
   42    73     1 
   43    46     1 
   43    56     1 
   43    58     1 
   43    62     1 
   43    76     1 
   44    47     1 
   44    57     1 
   44    59     1 
   44    61     1 
   45    48     1 
   45    60     1 
   45    62     1 
   45    64     1 
   46    49     1 
   46    59     1 
   46    63     1 
   46    77     1 
   47    79     1 
   47    77     1 
   47    62     1 
   47    59     1
   47    43     1
   47    27     1
   47    29     1 
   48    80     1 
   48    62     1 
   48    60     1
   48    44     1
   48    14     1
   48    28     1 
   49    67     1 
   49    69     1 
   49    53     1 
   49    19     1 
   49    17     1 
   49    37     1
   50    70     1
   50    54     1 
   50    38     1 
   50    36     1 
   50    18     1 
   51    54     1 
   51    64     1 
   51    66     1 
   51    70     1 
   51    80     1 
   52    55     1 
   52    65     1 
   52    67     1 
   52    69     1 
   53    56     1 
   53    68     1 
   53    70     1 
   53    72     1 
   54    57     1 
   54    67     1 
   54    71     1 
   54    73     1 
   55    58     1 
   55    68     1 
   55    70     1 
   55    74     1 
   56    59     1 
   56    69     1 
   56    71     1 
   56    73     1 
   57    60     1 
   57    72     1 
   57    74     1 
   57    76     1 
   58    61     1 
   58    71     1 
   58    75     1 
   58    77     1 
   59    62     1 
   59    72     1 
   59    74     1 
   59    78     1 
   60    63     1 
   60    73     1 
   60    75     1 
   60    77     1 
   61    64     1 
   61    76     1 
   61    78     1 
   61    80     1 
   62    65     1 
   62    75     1 
   62    79     1 
   63    75     1 
   63    59     1 
   63    31     1
   63    45     1
   63    43     1 
   64    78     1 
   64    76     1 
   64    60     1
   64    30     1
   64    44     1 
   65    69     1 
   65    35     1
   65    53     1 
   66    52     1 
   66    34     1
   66    70     1
   66    54     1 
   67    70     1 
   67    80     1 
   68    71     1 
   69    72     1 
   70    73     1 
   71    74     1 
   72    75     1 
   73    76     1 
   74    77     1 
   75    78     1 
   76    79     1 
   77    80     1
   79    75     1
   79    59     1
   79    12     1
   79    16     1   
   80    76     1
   80    60     1
   80    46     1
[ angles ]
;  ai    aj    ak funct            c0            c1            c2            c3
;    2     1    16     1  1.200000e+02  3.347200e+02  1.200000e+02  3.347200e+02 
;    2     1    66     1  1.200000e+02  3.347200e+02  1.200000e+02  3.347200e+02 
;   16     1    66     1  1.200000e+02  3.347200e+02  1.200000e+02  3.347200e+02 
    1     2     3     1  1.200000e+02  3.347200e+02  1.200000e+02  3.347200e+02 
    1     2    17     1  1.200000e+02  3.347200e+02  1.200000e+02  3.347200e+02 
    3     2    17     1  1.200000e+02  3.347200e+02  1.200000e+02  3.347200e+02 
    2     3     4     1  1.200000e+02  3.347200e+02  1.200000e+02  3.347200e+02 
    2     3    20     1  1.200000e+02  3.347200e+02  1.200000e+02  3.347200e+02 
    4     3    20     1  1.200000e+02  3.347200e+02  1.200000e+02  3.347200e+02 
    3     4     5     1  1.200000e+02  3.347200e+02  1.200000e+02  3.347200e+02 
;    3     4    67     1  1.200000e+02  3.347200e+02  1.200000e+02  3.347200e+02 
;    5     4    67     1  1.200000e+02  3.347200e+02  1.200000e+02  3.347200e+02 
    4     5     6     1  1.200000e+02  3.347200e+02  1.200000e+02  3.347200e+02 
;    4     5    70     1  1.200000e+02  3.347200e+02  1.200000e+02  3.347200e+02 
;    6     5    70     1  1.200000e+02  3.347200e+02  1.200000e+02  3.347200e+02 
    5     6     7     1  1.200000e+02  3.347200e+02  1.200000e+02  3.347200e+02 
    5     6    21     1  1.200000e+02  3.347200e+02  1.200000e+02  3.347200e+02 
    7     6    21     1  1.200000e+02  3.347200e+02  1.200000e+02  3.347200e+02 
    6     7     8     1  1.200000e+02  3.347200e+02  1.200000e+02  3.347200e+02 
    6     7    24     1  1.200000e+02  3.347200e+02  1.200000e+02  3.347200e+02 
    8     7    24     1  1.200000e+02  3.347200e+02  1.200000e+02  3.347200e+02 
    7     8     9     1  1.200000e+02  3.347200e+02  1.200000e+02  3.347200e+02 
;    7     8    71     1  1.200000e+02  3.347200e+02  1.200000e+02  3.347200e+02 
;    9     8    71     1  1.200000e+02  3.347200e+02  1.200000e+02  3.347200e+02 
    8     9    10     1  1.200000e+02  3.347200e+02  1.200000e+02  3.347200e+02 
;    8     9    74     1  1.200000e+02  3.347200e+02  1.200000e+02  3.347200e+02 
;   10     9    74     1  1.200000e+02  3.347200e+02  1.200000e+02  3.347200e+02 
    9    10    11     1  1.200000e+02  3.347200e+02  1.200000e+02  3.347200e+02 
    9    10    25     1  1.200000e+02  3.347200e+02  1.200000e+02  3.347200e+02 
   11    10    25     1  1.200000e+02  3.347200e+02  1.200000e+02  3.347200e+02 
   10    11    12     1  1.200000e+02  3.347200e+02  1.200000e+02  3.347200e+02 
   10    11    28     1  1.200000e+02  3.347200e+02  1.200000e+02  3.347200e+02 
   12    11    28     1  1.200000e+02  3.347200e+02  1.200000e+02  3.347200e+02 
   11    12    13     1  1.200000e+02  3.347200e+02  1.200000e+02  3.347200e+02 
;   11    12    75     1  1.200000e+02  3.347200e+02  1.200000e+02  3.347200e+02 
;   13    12    75     1  1.200000e+02  3.347200e+02  1.200000e+02  3.347200e+02 
   12    13    14     1  1.200000e+02  3.347200e+02  1.200000e+02  3.347200e+02 
;   12    13    78     1  1.200000e+02  3.347200e+02  1.200000e+02  3.347200e+02 
;   14    13    78     1  1.200000e+02  3.347200e+02  1.200000e+02  3.347200e+02 
   13    14    15     1  1.200000e+02  3.347200e+02  1.200000e+02  3.347200e+02 
   13    14    29     1  1.200000e+02  3.347200e+02  1.200000e+02  3.347200e+02 
   15    14    29     1  1.200000e+02  3.347200e+02  1.200000e+02  3.347200e+02 
   14    15    16     1  1.200000e+02  3.347200e+02  1.200000e+02  3.347200e+02 
   14    15    32     1  1.200000e+02  3.347200e+02  1.200000e+02  3.347200e+02 
   16    15    32     1  1.200000e+02  3.347200e+02  1.200000e+02  3.347200e+02 
    1    16    15     1  1.200000e+02  3.347200e+02  1.200000e+02  3.347200e+02 
;    1    16    79     1  1.200000e+02  3.347200e+02  1.200000e+02  3.347200e+02 
;   15    16    79     1  1.200000e+02  3.347200e+02  1.200000e+02  3.347200e+02 
    2    17    18     1  1.200000e+02  3.347200e+02  1.200000e+02  3.347200e+02 
;    2    17    32     1  1.200000e+02  3.347200e+02  1.200000e+02  3.347200e+02 
;   18    17    32     1  1.200000e+02  3.347200e+02  1.200000e+02  3.347200e+02 
   17    18    19     1  1.200000e+02  3.347200e+02  1.200000e+02  3.347200e+02 
   17    18    33     1  1.200000e+02  3.347200e+02  1.200000e+02  3.347200e+02 
   19    18    33     1  1.200000e+02  3.347200e+02  1.200000e+02  3.347200e+02 
   18    19    20     1  1.200000e+02  3.347200e+02  1.200000e+02  3.347200e+02 
   18    19    36     1  1.200000e+02  3.347200e+02  1.200000e+02  3.347200e+02 
   20    19    36     1  1.200000e+02  3.347200e+02  1.200000e+02  3.347200e+02 
    3    20    19     1  1.200000e+02  3.347200e+02  1.200000e+02  3.347200e+02 
    3    20    21     1  1.200000e+02  3.347200e+02  1.200000e+02  3.347200e+02 
   19    20    21     1  1.200000e+02  3.347200e+02  1.200000e+02  3.347200e+02 
    6    21    20     1  1.200000e+02  3.347200e+02  1.200000e+02  3.347200e+02 
    6    21    22     1  1.200000e+02  3.347200e+02  1.200000e+02  3.347200e+02 
   20    21    22     1  1.200000e+02  3.347200e+02  1.200000e+02  3.347200e+02 
   21    22    23     1  1.200000e+02  3.347200e+02  1.200000e+02  3.347200e+02 
   21    22    37     1  1.200000e+02  3.347200e+02  1.200000e+02  3.347200e+02 
   23    22    37     1  1.200000e+02  3.347200e+02  1.200000e+02  3.347200e+02 
   22    23    24     1  1.200000e+02  3.347200e+02  1.200000e+02  3.347200e+02 
   22    23    40     1  1.200000e+02  3.347200e+02  1.200000e+02  3.347200e+02 
   24    23    40     1  1.200000e+02  3.347200e+02  1.200000e+02  3.347200e+02 
    7    24    23     1  1.200000e+02  3.347200e+02  1.200000e+02  3.347200e+02 
    7    24    25     1  1.200000e+02  3.347200e+02  1.200000e+02  3.347200e+02 
   23    24    25     1  1.200000e+02  3.347200e+02  1.200000e+02  3.347200e+02 
   10    25    24     1  1.200000e+02  3.347200e+02  1.200000e+02  3.347200e+02 
   10    25    26     1  1.200000e+02  3.347200e+02  1.200000e+02  3.347200e+02 
   24    25    26     1  1.200000e+02  3.347200e+02  1.200000e+02  3.347200e+02 
   25    26    27     1  1.200000e+02  3.347200e+02  1.200000e+02  3.347200e+02 
   25    26    41     1  1.200000e+02  3.347200e+02  1.200000e+02  3.347200e+02 
   27    26    41     1  1.200000e+02  3.347200e+02  1.200000e+02  3.347200e+02 
   26    27    28     1  1.200000e+02  3.347200e+02  1.200000e+02  3.347200e+02 
   26    27    44     1  1.200000e+02  3.347200e+02  1.200000e+02  3.347200e+02 
   28    27    44     1  1.200000e+02  3.347200e+02  1.200000e+02  3.347200e+02 
   11    28    27     1  1.200000e+02  3.347200e+02  1.200000e+02  3.347200e+02 
   11    28    29     1  1.200000e+02  3.347200e+02  1.200000e+02  3.347200e+02 
   27    28    29     1  1.200000e+02  3.347200e+02  1.200000e+02  3.347200e+02 
   14    29    28     1  1.200000e+02  3.347200e+02  1.200000e+02  3.347200e+02 
   14    29    30     1  1.200000e+02  3.347200e+02  1.200000e+02  3.347200e+02 
   28    29    30     1  1.200000e+02  3.347200e+02  1.200000e+02  3.347200e+02 
   29    30    31     1  1.200000e+02  3.347200e+02  1.200000e+02  3.347200e+02 
   29    30    45     1  1.200000e+02  3.347200e+02  1.200000e+02  3.347200e+02 
   31    30    45     1  1.200000e+02  3.347200e+02  1.200000e+02  3.347200e+02 
   30    31    32     1  1.200000e+02  3.347200e+02  1.200000e+02  3.347200e+02 
   30    31    48     1  1.200000e+02  3.347200e+02  1.200000e+02  3.347200e+02 
   32    31    48     1  1.200000e+02  3.347200e+02  1.200000e+02  3.347200e+02 
   15    32    17     1  1.200000e+02  3.347200e+02  1.200000e+02  3.347200e+02 
   15    32    31     1  1.200000e+02  3.347200e+02  1.200000e+02  3.347200e+02 
   17    32    31     1  1.200000e+02  3.347200e+02  1.200000e+02  3.347200e+02 
   18    33    34     1  1.200000e+02  3.347200e+02  1.200000e+02  3.347200e+02 
;   18    33    48     1  1.200000e+02  3.347200e+02  1.200000e+02  3.347200e+02 
;   34    33    48     1  1.200000e+02  3.347200e+02  1.200000e+02  3.347200e+02 
   33    34    35     1  1.200000e+02  3.347200e+02  1.200000e+02  3.347200e+02 
   33    34    49     1  1.200000e+02  3.347200e+02  1.200000e+02  3.347200e+02 
   35    34    49     1  1.200000e+02  3.347200e+02  1.200000e+02  3.347200e+02 
   34    35    36     1  1.200000e+02  3.347200e+02  1.200000e+02  3.347200e+02 
   34    35    52     1  1.200000e+02  3.347200e+02  1.200000e+02  3.347200e+02 
   36    35    52     1  1.200000e+02  3.347200e+02  1.200000e+02  3.347200e+02 
   19    36    35     1  1.200000e+02  3.347200e+02  1.200000e+02  3.347200e+02 
   19    36    37     1  1.200000e+02  3.347200e+02  1.200000e+02  3.347200e+02 
   35    36    37     1  1.200000e+02  3.347200e+02  1.200000e+02  3.347200e+02 
   22    37    36     1  1.200000e+02  3.347200e+02  1.200000e+02  3.347200e+02 
   22    37    38     1  1.200000e+02  3.347200e+02  1.200000e+02  3.347200e+02 
   36    37    38     1  1.200000e+02  3.347200e+02  1.200000e+02  3.347200e+02 
   37    38    39     1  1.200000e+02  3.347200e+02  1.200000e+02  3.347200e+02 
   37    38    53     1  1.200000e+02  3.347200e+02  1.200000e+02  3.347200e+02 
   39    38    53     1  1.200000e+02  3.347200e+02  1.200000e+02  3.347200e+02 
   38    39    40     1  1.200000e+02  3.347200e+02  1.200000e+02  3.347200e+02 
   38    39    56     1  1.200000e+02  3.347200e+02  1.200000e+02  3.347200e+02 
   40    39    56     1  1.200000e+02  3.347200e+02  1.200000e+02  3.347200e+02 
   23    40    39     1  1.200000e+02  3.347200e+02  1.200000e+02  3.347200e+02 
   23    40    41     1  1.200000e+02  3.347200e+02  1.200000e+02  3.347200e+02 
   39    40    41     1  1.200000e+02  3.347200e+02  1.200000e+02  3.347200e+02 
   26    41    40     1  1.200000e+02  3.347200e+02  1.200000e+02  3.347200e+02 
   26    41    42     1  1.200000e+02  3.347200e+02  1.200000e+02  3.347200e+02 
   40    41    42     1  1.200000e+02  3.347200e+02  1.200000e+02  3.347200e+02 
   41    42    43     1  1.200000e+02  3.347200e+02  1.200000e+02  3.347200e+02 
   41    42    57     1  1.200000e+02  3.347200e+02  1.200000e+02  3.347200e+02 
   43    42    57     1  1.200000e+02  3.347200e+02  1.200000e+02  3.347200e+02 
   42    43    44     1  1.200000e+02  3.347200e+02  1.200000e+02  3.347200e+02 
   42    43    60     1  1.200000e+02  3.347200e+02  1.200000e+02  3.347200e+02 
   44    43    60     1  1.200000e+02  3.347200e+02  1.200000e+02  3.347200e+02 
   27    44    43     1  1.200000e+02  3.347200e+02  1.200000e+02  3.347200e+02 
   27    44    45     1  1.200000e+02  3.347200e+02  1.200000e+02  3.347200e+02 
   43    44    45     1  1.200000e+02  3.347200e+02  1.200000e+02  3.347200e+02 
   30    45    44     1  1.200000e+02  3.347200e+02  1.200000e+02  3.347200e+02 
   30    45    46     1  1.200000e+02  3.347200e+02  1.200000e+02  3.347200e+02 
   44    45    46     1  1.200000e+02  3.347200e+02  1.200000e+02  3.347200e+02 
   45    46    47     1  1.200000e+02  3.347200e+02  1.200000e+02  3.347200e+02 
   45    46    61     1  1.200000e+02  3.347200e+02  1.200000e+02  3.347200e+02 
   47    46    61     1  1.200000e+02  3.347200e+02  1.200000e+02  3.347200e+02 
   46    47    48     1  1.200000e+02  3.347200e+02  1.200000e+02  3.347200e+02 
   46    47    64     1  1.200000e+02  3.347200e+02  1.200000e+02  3.347200e+02 
   48    47    64     1  1.200000e+02  3.347200e+02  1.200000e+02  3.347200e+02 
   31    48    33     1  1.200000e+02  3.347200e+02  1.200000e+02  3.347200e+02 
   31    48    47     1  1.200000e+02  3.347200e+02  1.200000e+02  3.347200e+02 
   33    48    47     1  1.200000e+02  3.347200e+02  1.200000e+02  3.347200e+02 
   34    49    50     1  1.200000e+02  3.347200e+02  1.200000e+02  3.347200e+02 
;   34    49    64     1  1.200000e+02  3.347200e+02  1.200000e+02  3.347200e+02 
;   50    49    64     1  1.200000e+02  3.347200e+02  1.200000e+02  3.347200e+02 
   49    50    51     1  1.200000e+02  3.347200e+02  1.200000e+02  3.347200e+02 
   49    50    65     1  1.200000e+02  3.347200e+02  1.200000e+02  3.347200e+02 
   51    50    65     1  1.200000e+02  3.347200e+02  1.200000e+02  3.347200e+02 
   50    51    52     1  1.200000e+02  3.347200e+02  1.200000e+02  3.347200e+02 
   50    51    68     1  1.200000e+02  3.347200e+02  1.200000e+02  3.347200e+02 
   52    51    68     1  1.200000e+02  3.347200e+02  1.200000e+02  3.347200e+02 
   35    52    51     1  1.200000e+02  3.347200e+02  1.200000e+02  3.347200e+02 
   35    52    53     1  1.200000e+02  3.347200e+02  1.200000e+02  3.347200e+02 
   51    52    53     1  1.200000e+02  3.347200e+02  1.200000e+02  3.347200e+02 
   38    53    52     1  1.200000e+02  3.347200e+02  1.200000e+02  3.347200e+02 
   38    53    54     1  1.200000e+02  3.347200e+02  1.200000e+02  3.347200e+02 
   52    53    54     1  1.200000e+02  3.347200e+02  1.200000e+02  3.347200e+02 
   53    54    55     1  1.200000e+02  3.347200e+02  1.200000e+02  3.347200e+02 
   53    54    69     1  1.200000e+02  3.347200e+02  1.200000e+02  3.347200e+02 
   55    54    69     1  1.200000e+02  3.347200e+02  1.200000e+02  3.347200e+02 
   54    55    56     1  1.200000e+02  3.347200e+02  1.200000e+02  3.347200e+02 
   54    55    72     1  1.200000e+02  3.347200e+02  1.200000e+02  3.347200e+02 
   56    55    72     1  1.200000e+02  3.347200e+02  1.200000e+02  3.347200e+02 
   39    56    55     1  1.200000e+02  3.347200e+02  1.200000e+02  3.347200e+02 
   39    56    57     1  1.200000e+02  3.347200e+02  1.200000e+02  3.347200e+02 
   55    56    57     1  1.200000e+02  3.347200e+02  1.200000e+02  3.347200e+02 
   42    57    56     1  1.200000e+02  3.347200e+02  1.200000e+02  3.347200e+02 
   42    57    58     1  1.200000e+02  3.347200e+02  1.200000e+02  3.347200e+02 
   56    57    58     1  1.200000e+02  3.347200e+02  1.200000e+02  3.347200e+02 
   57    58    59     1  1.200000e+02  3.347200e+02  1.200000e+02  3.347200e+02 
   57    58    73     1  1.200000e+02  3.347200e+02  1.200000e+02  3.347200e+02 
   59    58    73     1  1.200000e+02  3.347200e+02  1.200000e+02  3.347200e+02 
   58    59    60     1  1.200000e+02  3.347200e+02  1.200000e+02  3.347200e+02 
   58    59    76     1  1.200000e+02  3.347200e+02  1.200000e+02  3.347200e+02 
   60    59    76     1  1.200000e+02  3.347200e+02  1.200000e+02  3.347200e+02 
   43    60    59     1  1.200000e+02  3.347200e+02  1.200000e+02  3.347200e+02 
   43    60    61     1  1.200000e+02  3.347200e+02  1.200000e+02  3.347200e+02 
   59    60    61     1  1.200000e+02  3.347200e+02  1.200000e+02  3.347200e+02 
   46    61    60     1  1.200000e+02  3.347200e+02  1.200000e+02  3.347200e+02 
   46    61    62     1  1.200000e+02  3.347200e+02  1.200000e+02  3.347200e+02 
   60    61    62     1  1.200000e+02  3.347200e+02  1.200000e+02  3.347200e+02 
   61    62    63     1  1.200000e+02  3.347200e+02  1.200000e+02  3.347200e+02 
   61    62    77     1  1.200000e+02  3.347200e+02  1.200000e+02  3.347200e+02 
   63    62    77     1  1.200000e+02  3.347200e+02  1.200000e+02  3.347200e+02 
   62    63    64     1  1.200000e+02  3.347200e+02  1.200000e+02  3.347200e+02 
   62    63    80     1  1.200000e+02  3.347200e+02  1.200000e+02  3.347200e+02 
   64    63    80     1  1.200000e+02  3.347200e+02  1.200000e+02  3.347200e+02 
   47    64    49     1  1.200000e+02  3.347200e+02  1.200000e+02  3.347200e+02 
   47    64    63     1  1.200000e+02  3.347200e+02  1.200000e+02  3.347200e+02 
   49    64    63     1  1.200000e+02  3.347200e+02  1.200000e+02  3.347200e+02 
   50    65    66     1  1.200000e+02  3.347200e+02  1.200000e+02  3.347200e+02 
;   50    65    80     1  1.200000e+02  3.347200e+02  1.200000e+02  3.347200e+02 
;   66    65    80     1  1.200000e+02  3.347200e+02  1.200000e+02  3.347200e+02 
;    1    66    65     1  1.200000e+02  3.347200e+02  1.200000e+02  3.347200e+02 
;    1    66    67     1  1.200000e+02  3.347200e+02  1.200000e+02  3.347200e+02 
   65    66    67     1  1.200000e+02  3.347200e+02  1.200000e+02  3.347200e+02 
;    4    67    66     1  1.200000e+02  3.347200e+02  1.200000e+02  3.347200e+02 
;    4    67    68     1  1.200000e+02  3.347200e+02  1.200000e+02  3.347200e+02 
   66    67    68     1  1.200000e+02  3.347200e+02  1.200000e+02  3.347200e+02 
   51    68    67     1  1.200000e+02  3.347200e+02  1.200000e+02  3.347200e+02 
   51    68    69     1  1.200000e+02  3.347200e+02  1.200000e+02  3.347200e+02 
   67    68    69     1  1.200000e+02  3.347200e+02  1.200000e+02  3.347200e+02 
   54    69    68     1  1.200000e+02  3.347200e+02  1.200000e+02  3.347200e+02 
   54    69    70     1  1.200000e+02  3.347200e+02  1.200000e+02  3.347200e+02 
   68    69    70     1  1.200000e+02  3.347200e+02  1.200000e+02  3.347200e+02 
;    5    70    69     1  1.200000e+02  3.347200e+02  1.200000e+02  3.347200e+02 
;    5    70    71     1  1.200000e+02  3.347200e+02  1.200000e+02  3.347200e+02 
   69    70    71     1  1.200000e+02  3.347200e+02  1.200000e+02  3.347200e+02 
;    8    71    70     1  1.200000e+02  3.347200e+02  1.200000e+02  3.347200e+02 
;    8    71    72     1  1.200000e+02  3.347200e+02  1.200000e+02  3.347200e+02 
   70    71    72     1  1.200000e+02  3.347200e+02  1.200000e+02  3.347200e+02 
   55    72    71     1  1.200000e+02  3.347200e+02  1.200000e+02  3.347200e+02 
   55    72    73     1  1.200000e+02  3.347200e+02  1.200000e+02  3.347200e+02 
   71    72    73     1  1.200000e+02  3.347200e+02  1.200000e+02  3.347200e+02 
   58    73    72     1  1.200000e+02  3.347200e+02  1.200000e+02  3.347200e+02 
   58    73    74     1  1.200000e+02  3.347200e+02  1.200000e+02  3.347200e+02 
   72    73    74     1  1.200000e+02  3.347200e+02  1.200000e+02  3.347200e+02 
;    9    74    73     1  1.200000e+02  3.347200e+02  1.200000e+02  3.347200e+02 
;    9    74    75     1  1.200000e+02  3.347200e+02  1.200000e+02  3.347200e+02 
   73    74    75     1  1.200000e+02  3.347200e+02  1.200000e+02  3.347200e+02 
;   12    75    74     1  1.200000e+02  3.347200e+02  1.200000e+02  3.347200e+02 
;   12    75    76     1  1.200000e+02  3.347200e+02  1.200000e+02  3.347200e+02 
   74    75    76     1  1.200000e+02  3.347200e+02  1.200000e+02  3.347200e+02 
   59    76    75     1  1.200000e+02  3.347200e+02  1.200000e+02  3.347200e+02 
   59    76    77     1  1.200000e+02  3.347200e+02  1.200000e+02  3.347200e+02 
   75    76    77     1  1.200000e+02  3.347200e+02  1.200000e+02  3.347200e+02 
   62    77    76     1  1.200000e+02  3.347200e+02  1.200000e+02  3.347200e+02 
   62    77    78     1  1.200000e+02  3.347200e+02  1.200000e+02  3.347200e+02 
   76    77    78     1  1.200000e+02  3.347200e+02  1.200000e+02  3.347200e+02 
;   13    78    77     1  1.200000e+02  3.347200e+02  1.200000e+02  3.347200e+02 
;   13    78    79     1  1.200000e+02  3.347200e+02  1.200000e+02  3.347200e+02 
   77    78    79     1  1.200000e+02  3.347200e+02  1.200000e+02  3.347200e+02 
;   16    79    78     1  1.200000e+02  3.347200e+02  1.200000e+02  3.347200e+02 
;   16    79    80     1  1.200000e+02  3.347200e+02  1.200000e+02  3.347200e+02 
   78    79    80     1  1.200000e+02  3.347200e+02  1.200000e+02  3.347200e+02 
   63    80    65     1  1.200000e+02  3.347200e+02  1.200000e+02  3.347200e+02 
   63    80    79     1  1.200000e+02  3.347200e+02  1.200000e+02  3.347200e+02 
   65    80    79     1  1.200000e+02  3.347200e+02  1.200000e+02  3.347200e+02 

[ dihedrals ]
;  ai    aj    ak    al funct            c0            c1            c2            c3            c4            c5
;   16     1     2     3     1  3.600000e+02  1.297040e+01  3.000000e+00  3.600000e+02  1.297040e+01  3.000000e+00 
;   16     1     2    17     1  1.800000e+02  1.297040e+01  3.000000e+00  1.800000e+02  1.297040e+01  3.000000e+00 
;   66     1     2     3     1  1.800000e+02  1.297040e+01  3.000000e+00  1.800000e+02  1.297040e+01  3.000000e+00 
;   66     1     2    17     1  3.600000e+02  1.297040e+01  3.000000e+00  3.600000e+02  1.297040e+01  3.000000e+00 
;    2     1    16    15     1  1.800000e+02  1.297040e+01  3.000000e+00  1.800000e+02  1.297040e+01  3.000000e+00 
;    2     1    16    79     1  3.600000e+02  1.297040e+01  3.000000e+00  3.600000e+02  1.297040e+01  3.000000e+00 
;   66     1    16    15     1  3.600000e+02  1.297040e+01  3.000000e+00  3.600000e+02  1.297040e+01  3.000000e+00 
;   66     1    16    79     1  1.800000e+02  1.297040e+01  3.000000e+00  1.800000e+02  1.297040e+01  3.000000e+00 
;    2     1    66    65     1  3.600000e+02  1.297040e+01  3.000000e+00  3.600000e+02  1.297040e+01  3.000000e+00 
;    2     1    66    67     1  1.800000e+02  1.297040e+01  3.000000e+00  1.800000e+02  1.297040e+01  3.000000e+00 
;   16     1    66    65     1  1.800000e+02  1.297040e+01  3.000000e+00  1.800000e+02  1.297040e+01  3.000000e+00 
;   16     1    66    67     1  3.600000e+02  1.297040e+01  3.000000e+00  3.600000e+02  1.297040e+01  3.000000e+00 
    1     2     3     4     1  1.800000e+02  1.297040e+01  3.000000e+00  1.800000e+02  1.297040e+01  3.000000e+00 
    1     2     3    20     1  3.600000e+02  1.297040e+01  3.000000e+00  3.600000e+02  1.297040e+01  3.000000e+00 
   17     2     3     4     1  3.600000e+02  1.297040e+01  3.000000e+00  3.600000e+02  1.297040e+01  3.000000e+00 
   17     2     3    20     1  1.800000e+02  1.297040e+01  3.000000e+00  1.800000e+02  1.297040e+01  3.000000e+00 
    1     2    17    18     1  3.600000e+02  1.297040e+01  3.000000e+00  3.600000e+02  1.297040e+01  3.000000e+00 
    1     2    17    32     1  1.800000e+02  1.297040e+01  3.000000e+00  1.800000e+02  1.297040e+01  3.000000e+00 
    3     2    17    18     1  1.800000e+02  1.297040e+01  3.000000e+00  1.800000e+02  1.297040e+01  3.000000e+00 
    3     2    17    32     1  3.600000e+02  1.297040e+01  3.000000e+00  3.600000e+02  1.297040e+01  3.000000e+00 
    2     3     4     5     1  3.600000e+02  1.297040e+01  3.000000e+00  3.600000e+02  1.297040e+01  3.000000e+00 
;    2     3     4    67     1  1.800000e+02  1.297040e+01  3.000000e+00  1.800000e+02  1.297040e+01  3.000000e+00 
   20     3     4     5     1  1.800000e+02  1.297040e+01  3.000000e+00  1.800000e+02  1.297040e+01  3.000000e+00 
;   20     3     4    67     1  3.600000e+02  1.297040e+01  3.000000e+00  3.600000e+02  1.297040e+01  3.000000e+00 
    2     3    20    19     1  1.800000e+02  1.297040e+01  3.000000e+00  1.800000e+02  1.297040e+01  3.000000e+00 
    2     3    20    21     1  3.600000e+02  1.297040e+01  3.000000e+00  3.600000e+02  1.297040e+01  3.000000e+00 
    4     3    20    19     1  3.600000e+02  1.297040e+01  3.000000e+00  3.600000e+02  1.297040e+01  3.000000e+00 
    4     3    20    21     1  1.800000e+02  1.297040e+01  3.000000e+00  1.800000e+02  1.297040e+01  3.000000e+00 
    3     4     5     6     1  1.800000e+02  1.297040e+01  3.000000e+00  1.800000e+02  1.297040e+01  3.000000e+00 
;    3     4     5    70     1  3.600000e+02  1.297040e+01  3.000000e+00  3.600000e+02  1.297040e+01  3.000000e+00 
;   67     4     5     6     1  3.600000e+02  1.297040e+01  3.000000e+00  3.600000e+02  1.297040e+01  3.000000e+00 
;   67     4     5    70     1  1.800000e+02  1.297040e+01  3.000000e+00  1.800000e+02  1.297040e+01  3.000000e+00 
;    3     4    67    66     1  1.800000e+02  1.297040e+01  3.000000e+00  1.800000e+02  1.297040e+01  3.000000e+00 
;    3     4    67    68     1  3.600000e+02  1.297040e+01  3.000000e+00  3.600000e+02  1.297040e+01  3.000000e+00 
;    5     4    67    66     1  3.600000e+02  1.297040e+01  3.000000e+00  3.600000e+02  1.297040e+01  3.000000e+00 
;    5     4    67    68     1  1.800000e+02  1.297040e+01  3.000000e+00  1.800000e+02  1.297040e+01  3.000000e+00 
    4     5     6     7     1  3.600000e+02  1.297040e+01  3.000000e+00  3.600000e+02  1.297040e+01  3.000000e+00 
    4     5     6    21     1  1.800000e+02  1.297040e+01  3.000000e+00  1.800000e+02  1.297040e+01  3.000000e+00 
;   70     5     6     7     1  1.800000e+02  1.297040e+01  3.000000e+00  1.800000e+02  1.297040e+01  3.000000e+00 
;   70     5     6    21     1  3.600000e+02  1.297040e+01  3.000000e+00  3.600000e+02  1.297040e+01  3.000000e+00 
;    4     5    70    69     1  1.800000e+02  1.297040e+01  3.000000e+00  1.800000e+02  1.297040e+01  3.000000e+00 
;    4     5    70    71     1  3.600000e+02  1.297040e+01  3.000000e+00  3.600000e+02  1.297040e+01  3.000000e+00 
;    6     5    70    69     1  3.600000e+02  1.297040e+01  3.000000e+00  3.600000e+02  1.297040e+01  3.000000e+00 
;    6     5    70    71     1  1.800000e+02  1.297040e+01  3.000000e+00  1.800000e+02  1.297040e+01  3.000000e+00 
    5     6     7     8     1  1.800000e+02  1.297040e+01  3.000000e+00  1.800000e+02  1.297040e+01  3.000000e+00 
    5     6     7    24     1  3.600000e+02  1.297040e+01  3.000000e+00  3.600000e+02  1.297040e+01  3.000000e+00 
   21     6     7     8     1  3.600000e+02  1.297040e+01  3.000000e+00  3.600000e+02  1.297040e+01  3.000000e+00 
   21     6     7    24     1  1.800000e+02  1.297040e+01  3.000000e+00  1.800000e+02  1.297040e+01  3.000000e+00 
    5     6    21    20     1  1.800000e+02  1.297040e+01  3.000000e+00  1.800000e+02  1.297040e+01  3.000000e+00 
    5     6    21    22     1  3.600000e+02  1.297040e+01  3.000000e+00  3.600000e+02  1.297040e+01  3.000000e+00 
    7     6    21    20     1  3.600000e+02  1.297040e+01  3.000000e+00  3.600000e+02  1.297040e+01  3.000000e+00 
    7     6    21    22     1  1.800000e+02  1.297040e+01  3.000000e+00  1.800000e+02  1.297040e+01  3.000000e+00 
    6     7     8     9     1  3.600000e+02  1.297040e+01  3.000000e+00  3.600000e+02  1.297040e+01  3.000000e+00 
;   6     7     8    71     1  1.800000e+02  1.297040e+01  3.000000e+00  1.800000e+02  1.297040e+01  3.000000e+00 
   24     7     8     9     1  1.800000e+02  1.297040e+01  3.000000e+00  1.800000e+02  1.297040e+01  3.000000e+00 
;  24     7     8    71     1  3.600000e+02  1.297040e+01  3.000000e+00  3.600000e+02  1.297040e+01  3.000000e+00 
    6     7    24    23     1  1.800000e+02  1.297040e+01  3.000000e+00  1.800000e+02  1.297040e+01  3.000000e+00 
    6     7    24    25     1  3.600000e+02  1.297040e+01  3.000000e+00  3.600000e+02  1.297040e+01  3.000000e+00 
    8     7    24    23     1  3.600000e+02  1.297040e+01  3.000000e+00  3.600000e+02  1.297040e+01  3.000000e+00 
    8     7    24    25     1  1.800000e+02  1.297040e+01  3.000000e+00  1.800000e+02  1.297040e+01  3.000000e+00 
    7     8     9    10     1  1.800000e+02  1.297040e+01  3.000000e+00  1.800000e+02  1.297040e+01  3.000000e+00 
;   7     8     9    74     1  3.600000e+02  1.297040e+01  3.000000e+00  3.600000e+02  1.297040e+01  3.000000e+00 
;  71     8     9    10     1  3.600000e+02  1.297040e+01  3.000000e+00  3.600000e+02  1.297040e+01  3.000000e+00 
;  71     8     9    74     1  1.800000e+02  1.297040e+01  3.000000e+00  1.800000e+02  1.297040e+01  3.000000e+00 
;    7     8    71    70     1  1.800000e+02  1.297040e+01  3.000000e+00  1.800000e+02  1.297040e+01  3.000000e+00 
;    7     8    71    72     1  3.600000e+02  1.297040e+01  3.000000e+00  3.600000e+02  1.297040e+01  3.000000e+00 
;    9     8    71    70     1  3.600000e+02  1.297040e+01  3.000000e+00  3.600000e+02  1.297040e+01  3.000000e+00 
;    9     8    71    72     1  1.800000e+02  1.297040e+01  3.000000e+00  1.800000e+02  1.297040e+01  3.000000e+00 
    8     9    10    11     1  3.600000e+02  1.297040e+01  3.000000e+00  3.600000e+02  1.297040e+01  3.000000e+00 
    8     9    10    25     1  1.800000e+02  1.297040e+01  3.000000e+00  1.800000e+02  1.297040e+01  3.000000e+00 
;   74     9    10    11     1  1.800000e+02  1.297040e+01  3.000000e+00  1.800000e+02  1.297040e+01  3.000000e+00 
;   74     9    10    25     1  3.600000e+02  1.297040e+01  3.000000e+00  3.600000e+02  1.297040e+01  3.000000e+00 
;    8     9    74    73     1  1.800000e+02  1.297040e+01  3.000000e+00  1.800000e+02  1.297040e+01  3.000000e+00 
;    8     9    74    75     1  3.600000e+02  1.297040e+01  3.000000e+00  3.600000e+02  1.297040e+01  3.000000e+00 
;   10     9    74    73     1  3.600000e+02  1.297040e+01  3.000000e+00  3.600000e+02  1.297040e+01  3.000000e+00 
;   10     9    74    75     1  1.800000e+02  1.297040e+01  3.000000e+00  1.800000e+02  1.297040e+01  3.000000e+00 
    9    10    11    12     1  1.800000e+02  1.297040e+01  3.000000e+00  1.800000e+02  1.297040e+01  3.000000e+00 
    9    10    11    28     1  3.600000e+02  1.297040e+01  3.000000e+00  3.600000e+02  1.297040e+01  3.000000e+00 
   25    10    11    12     1  3.600000e+02  1.297040e+01  3.000000e+00  3.600000e+02  1.297040e+01  3.000000e+00 
   25    10    11    28     1  1.800000e+02  1.297040e+01  3.000000e+00  1.800000e+02  1.297040e+01  3.000000e+00 
    9    10    25    24     1  1.800000e+02  1.297040e+01  3.000000e+00  1.800000e+02  1.297040e+01  3.000000e+00 
    9    10    25    26     1  3.600000e+02  1.297040e+01  3.000000e+00  3.600000e+02  1.297040e+01  3.000000e+00 
   11    10    25    24     1  3.600000e+02  1.297040e+01  3.000000e+00  3.600000e+02  1.297040e+01  3.000000e+00 
   11    10    25    26     1  1.800000e+02  1.297040e+01  3.000000e+00  1.800000e+02  1.297040e+01  3.000000e+00 
   10    11    12    13     1  3.600000e+02  1.297040e+01  3.000000e+00  3.600000e+02  1.297040e+01  3.000000e+00 
;   10    11    12    75     1  1.800000e+02  1.297040e+01  3.000000e+00  1.800000e+02  1.297040e+01  3.000000e+00 
   28    11    12    13     1  1.800000e+02  1.297040e+01  3.000000e+00  1.800000e+02  1.297040e+01  3.000000e+00 
;   28    11    12    75     1  3.600000e+02  1.297040e+01  3.000000e+00  3.600000e+02  1.297040e+01  3.000000e+00 
   10    11    28    27     1  1.800000e+02  1.297040e+01  3.000000e+00  1.800000e+02  1.297040e+01  3.000000e+00 
   10    11    28    29     1  3.600000e+02  1.297040e+01  3.000000e+00  3.600000e+02  1.297040e+01  3.000000e+00 
   12    11    28    27     1  3.600000e+02  1.297040e+01  3.000000e+00  3.600000e+02  1.297040e+01  3.000000e+00 
   12    11    28    29     1  1.800000e+02  1.297040e+01  3.000000e+00  1.800000e+02  1.297040e+01  3.000000e+00 
   11    12    13    14     1  1.800000e+02  1.297040e+01  3.000000e+00  1.800000e+02  1.297040e+01  3.000000e+00 
;   11    12    13    78     1  3.600000e+02  1.297040e+01  3.000000e+00  3.600000e+02  1.297040e+01  3.000000e+00 
;   75    12    13    14     1  3.600000e+02  1.297040e+01  3.000000e+00  3.600000e+02  1.297040e+01  3.000000e+00 
;   75    12    13    78     1  1.800000e+02  1.297040e+01  3.000000e+00  1.800000e+02  1.297040e+01  3.000000e+00 
;   11    12    75    74     1  1.800000e+02  1.297040e+01  3.000000e+00  1.800000e+02  1.297040e+01  3.000000e+00 
;   11    12    75    76     1  3.600000e+02  1.297040e+01  3.000000e+00  3.600000e+02  1.297040e+01  3.000000e+00 
;   13    12    75    74     1  3.600000e+02  1.297040e+01  3.000000e+00  3.600000e+02  1.297040e+01  3.000000e+00 
;   13    12    75    76     1  1.800000e+02  1.297040e+01  3.000000e+00  1.800000e+02  1.297040e+01  3.000000e+00 
   12    13    14    15     1  3.600000e+02  1.297040e+01  3.000000e+00  3.600000e+02  1.297040e+01  3.000000e+00 
   12    13    14    29     1  1.800000e+02  1.297040e+01  3.000000e+00  1.800000e+02  1.297040e+01  3.000000e+00 
;   78    13    14    15     1  1.800000e+02  1.297040e+01  3.000000e+00  1.800000e+02  1.297040e+01  3.000000e+00 
;   78    13    14    29     1  3.600000e+02  1.297040e+01  3.000000e+00  3.600000e+02  1.297040e+01  3.000000e+00 
;   12    13    78    77     1  1.800000e+02  1.297040e+01  3.000000e+00  1.800000e+02  1.297040e+01  3.000000e+00 
;   12    13    78    79     1  3.600000e+02  1.297040e+01  3.000000e+00  3.600000e+02  1.297040e+01  3.000000e+00 
;   14    13    78    77     1  3.600000e+02  1.297040e+01  3.000000e+00  3.600000e+02  1.297040e+01  3.000000e+00 
;   14    13    78    79     1  1.800000e+02  1.297040e+01  3.000000e+00  1.800000e+02  1.297040e+01  3.000000e+00 
   13    14    15    16     1  1.800000e+02  1.297040e+01  3.000000e+00  1.800000e+02  1.297040e+01  3.000000e+00 
   13    14    15    32     1  3.600000e+02  1.297040e+01  3.000000e+00  3.600000e+02  1.297040e+01  3.000000e+00 
   29    14    15    16     1  3.600000e+02  1.297040e+01  3.000000e+00  3.600000e+02  1.297040e+01  3.000000e+00 
   29    14    15    32     1  1.800000e+02  1.297040e+01  3.000000e+00  1.800000e+02  1.297040e+01  3.000000e+00 
   13    14    29    28     1  1.800000e+02  1.297040e+01  3.000000e+00  1.800000e+02  1.297040e+01  3.000000e+00 
   13    14    29    30     1  3.600000e+02  1.297040e+01  3.000000e+00  3.600000e+02  1.297040e+01  3.000000e+00 
   15    14    29    28     1  3.600000e+02  1.297040e+01  3.000000e+00  3.600000e+02  1.297040e+01  3.000000e+00 
   15    14    29    30     1  1.800000e+02  1.297040e+01  3.000000e+00  1.800000e+02  1.297040e+01  3.000000e+00 
;   14    15    16     1     1  3.600000e+02  1.297040e+01  3.000000e+00  3.600000e+02  1.297040e+01  3.000000e+00 
;   14    15    16    79     1  1.800000e+02  1.297040e+01  3.000000e+00  1.800000e+02  1.297040e+01  3.000000e+00 
;   32    15    16     1     1  1.800000e+02  1.297040e+01  3.000000e+00  1.800000e+02  1.297040e+01  3.000000e+00 
;   32    15    16    79     1  3.600000e+02  1.297040e+01  3.000000e+00  3.600000e+02  1.297040e+01  3.000000e+00 
   14    15    32    17     1  3.600000e+02  1.297040e+01  3.000000e+00  3.600000e+02  1.297040e+01  3.000000e+00 
   14    15    32    31     1  1.800000e+02  1.297040e+01  3.000000e+00  1.800000e+02  1.297040e+01  3.000000e+00 
   16    15    32    17     1  1.800000e+02  1.297040e+01  3.000000e+00  1.800000e+02  1.297040e+01  3.000000e+00 
   16    15    32    31     1  3.600000e+02  1.297040e+01  3.000000e+00  3.600000e+02  1.297040e+01  3.000000e+00 
;    1    16    79    78     1  3.600000e+02  1.297040e+01  3.000000e+00  3.600000e+02  1.297040e+01  3.000000e+00 
;    1    16    79    80     1  1.800000e+02  1.297040e+01  3.000000e+00  1.800000e+02  1.297040e+01  3.000000e+00 
;   15    16    79    78     1  1.800000e+02  1.297040e+01  3.000000e+00  1.800000e+02  1.297040e+01  3.000000e+00 
;   15    16    79    80     1  3.600000e+02  1.297040e+01  3.000000e+00  3.600000e+02  1.297040e+01  3.000000e+00 
    2    17    18    19     1  1.800000e+02  1.297040e+01  3.000000e+00  1.800000e+02  1.297040e+01  3.000000e+00 
    2    17    18    33     1  3.600000e+02  1.297040e+01  3.000000e+00  3.600000e+02  1.297040e+01  3.000000e+00 
   32    17    18    19     1  3.600000e+02  1.297040e+01  3.000000e+00  3.600000e+02  1.297040e+01  3.000000e+00 
   32    17    18    33     1  1.800000e+02  1.297040e+01  3.000000e+00  1.800000e+02  1.297040e+01  3.000000e+00 
;    2    17    32    15     1  1.800000e+02  1.297040e+01  3.000000e+00  1.800000e+02  1.297040e+01  3.000000e+00 
;    2    17    32    31     1  3.600000e+02  1.297040e+01  3.000000e+00  3.600000e+02  1.297040e+01  3.000000e+00 
;   18    17    32    15     1  3.600000e+02  1.297040e+01  3.000000e+00  3.600000e+02  1.297040e+01  3.000000e+00 
;   18    17    32    31     1  1.800000e+02  1.297040e+01  3.000000e+00  1.800000e+02  1.297040e+01  3.000000e+00 
   17    18    19    20     1  1.800000e+02  1.297040e+01  3.000000e+00  1.800000e+02  1.297040e+01  3.000000e+00 
   17    18    19    36     1  3.600000e+02  1.297040e+01  3.000000e+00  3.600000e+02  1.297040e+01  3.000000e+00 
   33    18    19    20     1  3.600000e+02  1.297040e+01  3.000000e+00  3.600000e+02  1.297040e+01  3.000000e+00 
   33    18    19    36     1  1.800000e+02  1.297040e+01  3.000000e+00  1.800000e+02  1.297040e+01  3.000000e+00 
   17    18    33    34     1  3.600000e+02  1.297040e+01  3.000000e+00  3.600000e+02  1.297040e+01  3.000000e+00 
   17    18    33    48     1  1.800000e+02  1.297040e+01  3.000000e+00  1.800000e+02  1.297040e+01  3.000000e+00 
   19    18    33    34     1  1.800000e+02  1.297040e+01  3.000000e+00  1.800000e+02  1.297040e+01  3.000000e+00 
   19    18    33    48     1  3.600000e+02  1.297040e+01  3.000000e+00  3.600000e+02  1.297040e+01  3.000000e+00 
   18    19    20     3     1  1.800000e+02  1.297040e+01  3.000000e+00  1.800000e+02  1.297040e+01  3.000000e+00 
   18    19    20    21     1  3.600000e+02  1.297040e+01  3.000000e+00  3.600000e+02  1.297040e+01  3.000000e+00 
   36    19    20     3     1  3.600000e+02  1.297040e+01  3.000000e+00  3.600000e+02  1.297040e+01  3.000000e+00 
   36    19    20    21     1  1.800000e+02  1.297040e+01  3.000000e+00  1.800000e+02  1.297040e+01  3.000000e+00 
   18    19    36    35     1  1.800000e+02  1.297040e+01  3.000000e+00  1.800000e+02  1.297040e+01  3.000000e+00 
   18    19    36    37     1  3.600000e+02  1.297040e+01  3.000000e+00  3.600000e+02  1.297040e+01  3.000000e+00 
   20    19    36    35     1  3.600000e+02  1.297040e+01  3.000000e+00  3.600000e+02  1.297040e+01  3.000000e+00 
   20    19    36    37     1  1.800000e+02  1.297040e+01  3.000000e+00  1.800000e+02  1.297040e+01  3.000000e+00 
    3    20    21     6     1  1.800000e+02  1.297040e+01  3.000000e+00  1.800000e+02  1.297040e+01  3.000000e+00 
    3    20    21    22     1  3.600000e+02  1.297040e+01  3.000000e+00  3.600000e+02  1.297040e+01  3.000000e+00 
   19    20    21     6     1  3.600000e+02  1.297040e+01  3.000000e+00  3.600000e+02  1.297040e+01  3.000000e+00 
   19    20    21    22     1  1.800000e+02  1.297040e+01  3.000000e+00  1.800000e+02  1.297040e+01  3.000000e+00 
    6    21    22    23     1  1.800000e+02  1.297040e+01  3.000000e+00  1.800000e+02  1.297040e+01  3.000000e+00 
    6    21    22    37     1  3.600000e+02  1.297040e+01  3.000000e+00  3.600000e+02  1.297040e+01  3.000000e+00 
   20    21    22    23     1  3.600000e+02  1.297040e+01  3.000000e+00  3.600000e+02  1.297040e+01  3.000000e+00 
   20    21    22    37     1  1.800000e+02  1.297040e+01  3.000000e+00  1.800000e+02  1.297040e+01  3.000000e+00 
   21    22    23    24     1  1.800000e+02  1.297040e+01  3.000000e+00  1.800000e+02  1.297040e+01  3.000000e+00 
   21    22    23    40     1  3.600000e+02  1.297040e+01  3.000000e+00  3.600000e+02  1.297040e+01  3.000000e+00 
   37    22    23    24     1  3.600000e+02  1.297040e+01  3.000000e+00  3.600000e+02  1.297040e+01  3.000000e+00 
   37    22    23    40     1  1.800000e+02  1.297040e+01  3.000000e+00  1.800000e+02  1.297040e+01  3.000000e+00 
   21    22    37    36     1  1.800000e+02  1.297040e+01  3.000000e+00  1.800000e+02  1.297040e+01  3.000000e+00 
   21    22    37    38     1  3.600000e+02  1.297040e+01  3.000000e+00  3.600000e+02  1.297040e+01  3.000000e+00 
   23    22    37    36     1  3.600000e+02  1.297040e+01  3.000000e+00  3.600000e+02  1.297040e+01  3.000000e+00 
   23    22    37    38     1  1.800000e+02  1.297040e+01  3.000000e+00  1.800000e+02  1.297040e+01  3.000000e+00 
   22    23    24     7     1  1.800000e+02  1.297040e+01  3.000000e+00  1.800000e+02  1.297040e+01  3.000000e+00 
   22    23    24    25     1  3.600000e+02  1.297040e+01  3.000000e+00  3.600000e+02  1.297040e+01  3.000000e+00 
   40    23    24     7     1  3.600000e+02  1.297040e+01  3.000000e+00  3.600000e+02  1.297040e+01  3.000000e+00 
   40    23    24    25     1  1.800000e+02  1.297040e+01  3.000000e+00  1.800000e+02  1.297040e+01  3.000000e+00 
   22    23    40    39     1  1.800000e+02  1.297040e+01  3.000000e+00  1.800000e+02  1.297040e+01  3.000000e+00 
   22    23    40    41     1  3.600000e+02  1.297040e+01  3.000000e+00  3.600000e+02  1.297040e+01  3.000000e+00 
   24    23    40    39     1  3.600000e+02  1.297040e+01  3.000000e+00  3.600000e+02  1.297040e+01  3.000000e+00 
   24    23    40    41     1  1.800000e+02  1.297040e+01  3.000000e+00  1.800000e+02  1.297040e+01  3.000000e+00 
    7    24    25    10     1  1.800000e+02  1.297040e+01  3.000000e+00  1.800000e+02  1.297040e+01  3.000000e+00 
    7    24    25    26     1  3.600000e+02  1.297040e+01  3.000000e+00  3.600000e+02  1.297040e+01  3.000000e+00 
   23    24    25    10     1  3.600000e+02  1.297040e+01  3.000000e+00  3.600000e+02  1.297040e+01  3.000000e+00 
   23    24    25    26     1  1.800000e+02  1.297040e+01  3.000000e+00  1.800000e+02  1.297040e+01  3.000000e+00 
   10    25    26    27     1  1.800000e+02  1.297040e+01  3.000000e+00  1.800000e+02  1.297040e+01  3.000000e+00 
   10    25    26    41     1  3.600000e+02  1.297040e+01  3.000000e+00  3.600000e+02  1.297040e+01  3.000000e+00 
   24    25    26    27     1  3.600000e+02  1.297040e+01  3.000000e+00  3.600000e+02  1.297040e+01  3.000000e+00 
   24    25    26    41     1  1.800000e+02  1.297040e+01  3.000000e+00  1.800000e+02  1.297040e+01  3.000000e+00 
   25    26    27    28     1  1.800000e+02  1.297040e+01  3.000000e+00  1.800000e+02  1.297040e+01  3.000000e+00 
   25    26    27    44     1  3.600000e+02  1.297040e+01  3.000000e+00  3.600000e+02  1.297040e+01  3.000000e+00 
   41    26    27    28     1  3.600000e+02  1.297040e+01  3.000000e+00  3.600000e+02  1.297040e+01  3.000000e+00 
   41    26    27    44     1  1.800000e+02  1.297040e+01  3.000000e+00  1.800000e+02  1.297040e+01  3.000000e+00 
   25    26    41    40     1  1.800000e+02  1.297040e+01  3.000000e+00  1.800000e+02  1.297040e+01  3.000000e+00 
   25    26    41    42     1  3.600000e+02  1.297040e+01  3.000000e+00  3.600000e+02  1.297040e+01  3.000000e+00 
   27    26    41    40     1  3.600000e+02  1.297040e+01  3.000000e+00  3.600000e+02  1.297040e+01  3.000000e+00 
   27    26    41    42     1  1.800000e+02  1.297040e+01  3.000000e+00  1.800000e+02  1.297040e+01  3.000000e+00 
   26    27    28    11     1  1.800000e+02  1.297040e+01  3.000000e+00  1.800000e+02  1.297040e+01  3.000000e+00 
   26    27    28    29     1  3.600000e+02  1.297040e+01  3.000000e+00  3.600000e+02  1.297040e+01  3.000000e+00 
   44    27    28    11     1  3.600000e+02  1.297040e+01  3.000000e+00  3.600000e+02  1.297040e+01  3.000000e+00 
   44    27    28    29     1  1.800000e+02  1.297040e+01  3.000000e+00  1.800000e+02  1.297040e+01  3.000000e+00 
   26    27    44    43     1  1.800000e+02  1.297040e+01  3.000000e+00  1.800000e+02  1.297040e+01  3.000000e+00 
   26    27    44    45     1  3.600000e+02  1.297040e+01  3.000000e+00  3.600000e+02  1.297040e+01  3.000000e+00 
   28    27    44    43     1  3.600000e+02  1.297040e+01  3.000000e+00  3.600000e+02  1.297040e+01  3.000000e+00 
   28    27    44    45     1  1.800000e+02  1.297040e+01  3.000000e+00  1.800000e+02  1.297040e+01  3.000000e+00 
   11    28    29    14     1  1.800000e+02  1.297040e+01  3.000000e+00  1.800000e+02  1.297040e+01  3.000000e+00 
   11    28    29    30     1  3.600000e+02  1.297040e+01  3.000000e+00  3.600000e+02  1.297040e+01  3.000000e+00 
   27    28    29    14     1  3.600000e+02  1.297040e+01  3.000000e+00  3.600000e+02  1.297040e+01  3.000000e+00 
   27    28    29    30     1  1.800000e+02  1.297040e+01  3.000000e+00  1.800000e+02  1.297040e+01  3.000000e+00 
   14    29    30    31     1  1.800000e+02  1.297040e+01  3.000000e+00  1.800000e+02  1.297040e+01  3.000000e+00 
   14    29    30    45     1  3.600000e+02  1.297040e+01  3.000000e+00  3.600000e+02  1.297040e+01  3.000000e+00 
   28    29    30    31     1  3.600000e+02  1.297040e+01  3.000000e+00  3.600000e+02  1.297040e+01  3.000000e+00 
   28    29    30    45     1  1.800000e+02  1.297040e+01  3.000000e+00  1.800000e+02  1.297040e+01  3.000000e+00 
   29    30    31    32     1  1.800000e+02  1.297040e+01  3.000000e+00  1.800000e+02  1.297040e+01  3.000000e+00 
   29    30    31    48     1  3.600000e+02  1.297040e+01  3.000000e+00  3.600000e+02  1.297040e+01  3.000000e+00 
   45    30    31    32     1  3.600000e+02  1.297040e+01  3.000000e+00  3.600000e+02  1.297040e+01  3.000000e+00 
   45    30    31    48     1  1.800000e+02  1.297040e+01  3.000000e+00  1.800000e+02  1.297040e+01  3.000000e+00 
   29    30    45    44     1  1.800000e+02  1.297040e+01  3.000000e+00  1.800000e+02  1.297040e+01  3.000000e+00 
   29    30    45    46     1  3.600000e+02  1.297040e+01  3.000000e+00  3.600000e+02  1.297040e+01  3.000000e+00 
   31    30    45    44     1  3.600000e+02  1.297040e+01  3.000000e+00  3.600000e+02  1.297040e+01  3.000000e+00 
   31    30    45    46     1  1.800000e+02  1.297040e+01  3.000000e+00  1.800000e+02  1.297040e+01  3.000000e+00 
   30    31    32    15     1  1.800000e+02  1.297040e+01  3.000000e+00  1.800000e+02  1.297040e+01  3.000000e+00 
   30    31    32    17     1  3.600000e+02  1.297040e+01  3.000000e+00  3.600000e+02  1.297040e+01  3.000000e+00 
   48    31    32    15     1  3.600000e+02  1.297040e+01  3.000000e+00  3.600000e+02  1.297040e+01  3.000000e+00 
   48    31    32    17     1  1.800000e+02  1.297040e+01  3.000000e+00  1.800000e+02  1.297040e+01  3.000000e+00 
   30    31    48    33     1  3.600000e+02  1.297040e+01  3.000000e+00  3.600000e+02  1.297040e+01  3.000000e+00 
   30    31    48    47     1  1.800000e+02  1.297040e+01  3.000000e+00  1.800000e+02  1.297040e+01  3.000000e+00 
   32    31    48    33     1  1.800000e+02  1.297040e+01  3.000000e+00  1.800000e+02  1.297040e+01  3.000000e+00 
   32    31    48    47     1  3.600000e+02  1.297040e+01  3.000000e+00  3.600000e+02  1.297040e+01  3.000000e+00 
   18    33    34    35     1  1.800000e+02  1.297040e+01  3.000000e+00  1.800000e+02  1.297040e+01  3.000000e+00 
   18    33    34    49     1  3.600000e+02  1.297040e+01  3.000000e+00  3.600000e+02  1.297040e+01  3.000000e+00 
   48    33    34    35     1  3.600000e+02  1.297040e+01  3.000000e+00  3.600000e+02  1.297040e+01  3.000000e+00 
   48    33    34    49     1  1.800000e+02  1.297040e+01  3.000000e+00  1.800000e+02  1.297040e+01  3.000000e+00 
;   18    33    48    31     1  1.800000e+02  1.297040e+01  3.000000e+00  1.800000e+02  1.297040e+01  3.000000e+00 
;   18    33    48    47     1  3.600000e+02  1.297040e+01  3.000000e+00  3.600000e+02  1.297040e+01  3.000000e+00 
;   34    33    48    31     1  3.600000e+02  1.297040e+01  3.000000e+00  3.600000e+02  1.297040e+01  3.000000e+00 
;   34    33    48    47     1  1.800000e+02  1.297040e+01  3.000000e+00  1.800000e+02  1.297040e+01  3.000000e+00 
   33    34    35    36     1  1.800000e+02  1.297040e+01  3.000000e+00  1.800000e+02  1.297040e+01  3.000000e+00 
   33    34    35    52     1  3.600000e+02  1.297040e+01  3.000000e+00  3.600000e+02  1.297040e+01  3.000000e+00 
   49    34    35    36     1  3.600000e+02  1.297040e+01  3.000000e+00  3.600000e+02  1.297040e+01  3.000000e+00 
   49    34    35    52     1  1.800000e+02  1.297040e+01  3.000000e+00  1.800000e+02  1.297040e+01  3.000000e+00 
   33    34    49    50     1  3.600000e+02  1.297040e+01  3.000000e+00  3.600000e+02  1.297040e+01  3.000000e+00 
   33    34    49    64     1  1.800000e+02  1.297040e+01  3.000000e+00  1.800000e+02  1.297040e+01  3.000000e+00 
   35    34    49    50     1  1.800000e+02  1.297040e+01  3.000000e+00  1.800000e+02  1.297040e+01  3.000000e+00 
   35    34    49    64     1  3.600000e+02  1.297040e+01  3.000000e+00  3.600000e+02  1.297040e+01  3.000000e+00 
   34    35    36    19     1  1.800000e+02  1.297040e+01  3.000000e+00  1.800000e+02  1.297040e+01  3.000000e+00 
   34    35    36    37     1  3.600000e+02  1.297040e+01  3.000000e+00  3.600000e+02  1.297040e+01  3.000000e+00 
   52    35    36    19     1  3.600000e+02  1.297040e+01  3.000000e+00  3.600000e+02  1.297040e+01  3.000000e+00 
   52    35    36    37     1  1.800000e+02  1.297040e+01  3.000000e+00  1.800000e+02  1.297040e+01  3.000000e+00 
   34    35    52    51     1  1.800000e+02  1.297040e+01  3.000000e+00  1.800000e+02  1.297040e+01  3.000000e+00 
   34    35    52    53     1  3.600000e+02  1.297040e+01  3.000000e+00  3.600000e+02  1.297040e+01  3.000000e+00 
   36    35    52    51     1  3.600000e+02  1.297040e+01  3.000000e+00  3.600000e+02  1.297040e+01  3.000000e+00 
   36    35    52    53     1  1.800000e+02  1.297040e+01  3.000000e+00  1.800000e+02  1.297040e+01  3.000000e+00 
   19    36    37    22     1  1.800000e+02  1.297040e+01  3.000000e+00  1.800000e+02  1.297040e+01  3.000000e+00 
   19    36    37    38     1  3.600000e+02  1.297040e+01  3.000000e+00  3.600000e+02  1.297040e+01  3.000000e+00 
   35    36    37    22     1  3.600000e+02  1.297040e+01  3.000000e+00  3.600000e+02  1.297040e+01  3.000000e+00 
   35    36    37    38     1  1.800000e+02  1.297040e+01  3.000000e+00  1.800000e+02  1.297040e+01  3.000000e+00 
   22    37    38    39     1  1.800000e+02  1.297040e+01  3.000000e+00  1.800000e+02  1.297040e+01  3.000000e+00 
   22    37    38    53     1  3.600000e+02  1.297040e+01  3.000000e+00  3.600000e+02  1.297040e+01  3.000000e+00 
   36    37    38    39     1  3.600000e+02  1.297040e+01  3.000000e+00  3.600000e+02  1.297040e+01  3.000000e+00 
   36    37    38    53     1  1.800000e+02  1.297040e+01  3.000000e+00  1.800000e+02  1.297040e+01  3.000000e+00 
   37    38    39    40     1  1.800000e+02  1.297040e+01  3.000000e+00  1.800000e+02  1.297040e+01  3.000000e+00 
   37    38    39    56     1  3.600000e+02  1.297040e+01  3.000000e+00  3.600000e+02  1.297040e+01  3.000000e+00 
   53    38    39    40     1  3.600000e+02  1.297040e+01  3.000000e+00  3.600000e+02  1.297040e+01  3.000000e+00 
   53    38    39    56     1  1.800000e+02  1.297040e+01  3.000000e+00  1.800000e+02  1.297040e+01  3.000000e+00 
   37    38    53    52     1  1.800000e+02  1.297040e+01  3.000000e+00  1.800000e+02  1.297040e+01  3.000000e+00 
   37    38    53    54     1  3.600000e+02  1.297040e+01  3.000000e+00  3.600000e+02  1.297040e+01  3.000000e+00 
   39    38    53    52     1  3.600000e+02  1.297040e+01  3.000000e+00  3.600000e+02  1.297040e+01  3.000000e+00 
   39    38    53    54     1  1.800000e+02  1.297040e+01  3.000000e+00  1.800000e+02  1.297040e+01  3.000000e+00 
   38    39    40    23     1  1.800000e+02  1.297040e+01  3.000000e+00  1.800000e+02  1.297040e+01  3.000000e+00 
   38    39    40    41     1  3.600000e+02  1.297040e+01  3.000000e+00  3.600000e+02  1.297040e+01  3.000000e+00 
   56    39    40    23     1  3.600000e+02  1.297040e+01  3.000000e+00  3.600000e+02  1.297040e+01  3.000000e+00 
   56    39    40    41     1  1.800000e+02  1.297040e+01  3.000000e+00  1.800000e+02  1.297040e+01  3.000000e+00 
   38    39    56    55     1  1.800000e+02  1.297040e+01  3.000000e+00  1.800000e+02  1.297040e+01  3.000000e+00 
   38    39    56    57     1  3.600000e+02  1.297040e+01  3.000000e+00  3.600000e+02  1.297040e+01  3.000000e+00 
   40    39    56    55     1  3.600000e+02  1.297040e+01  3.000000e+00  3.600000e+02  1.297040e+01  3.000000e+00 
   40    39    56    57     1  1.800000e+02  1.297040e+01  3.000000e+00  1.800000e+02  1.297040e+01  3.000000e+00 
   23    40    41    26     1  1.800000e+02  1.297040e+01  3.000000e+00  1.800000e+02  1.297040e+01  3.000000e+00 
   23    40    41    42     1  3.600000e+02  1.297040e+01  3.000000e+00  3.600000e+02  1.297040e+01  3.000000e+00 
   39    40    41    26     1  3.600000e+02  1.297040e+01  3.000000e+00  3.600000e+02  1.297040e+01  3.000000e+00 
   39    40    41    42     1  1.800000e+02  1.297040e+01  3.000000e+00  1.800000e+02  1.297040e+01  3.000000e+00 
   26    41    42    43     1  1.800000e+02  1.297040e+01  3.000000e+00  1.800000e+02  1.297040e+01  3.000000e+00 
   26    41    42    57     1  3.600000e+02  1.297040e+01  3.000000e+00  3.600000e+02  1.297040e+01  3.000000e+00 
   40    41    42    43     1  3.600000e+02  1.297040e+01  3.000000e+00  3.600000e+02  1.297040e+01  3.000000e+00 
   40    41    42    57     1  1.800000e+02  1.297040e+01  3.000000e+00  1.800000e+02  1.297040e+01  3.000000e+00 
   41    42    43    44     1  1.800000e+02  1.297040e+01  3.000000e+00  1.800000e+02  1.297040e+01  3.000000e+00 
   41    42    43    60     1  3.600000e+02  1.297040e+01  3.000000e+00  3.600000e+02  1.297040e+01  3.000000e+00 
   57    42    43    44     1  3.600000e+02  1.297040e+01  3.000000e+00  3.600000e+02  1.297040e+01  3.000000e+00 
   57    42    43    60     1  1.800000e+02  1.297040e+01  3.000000e+00  1.800000e+02  1.297040e+01  3.000000e+00 
   41    42    57    56     1  1.800000e+02  1.297040e+01  3.000000e+00  1.800000e+02  1.297040e+01  3.000000e+00 
   41    42    57    58     1  3.600000e+02  1.297040e+01  3.000000e+00  3.600000e+02  1.297040e+01  3.000000e+00 
   43    42    57    56     1  3.600000e+02  1.297040e+01  3.000000e+00  3.600000e+02  1.297040e+01  3.000000e+00 
   43    42    57    58     1  1.800000e+02  1.297040e+01  3.000000e+00  1.800000e+02  1.297040e+01  3.000000e+00 
   42    43    44    27     1  1.800000e+02  1.297040e+01  3.000000e+00  1.800000e+02  1.297040e+01  3.000000e+00 
   42    43    44    45     1  3.600000e+02  1.297040e+01  3.000000e+00  3.600000e+02  1.297040e+01  3.000000e+00 
   60    43    44    27     1  3.600000e+02  1.297040e+01  3.000000e+00  3.600000e+02  1.297040e+01  3.000000e+00 
   60    43    44    45     1  1.800000e+02  1.297040e+01  3.000000e+00  1.800000e+02  1.297040e+01  3.000000e+00 
   42    43    60    59     1  1.800000e+02  1.297040e+01  3.000000e+00  1.800000e+02  1.297040e+01  3.000000e+00 
   42    43    60    61     1  3.600000e+02  1.297040e+01  3.000000e+00  3.600000e+02  1.297040e+01  3.000000e+00 
   44    43    60    59     1  3.600000e+02  1.297040e+01  3.000000e+00  3.600000e+02  1.297040e+01  3.000000e+00 
   44    43    60    61     1  1.800000e+02  1.297040e+01  3.000000e+00  1.800000e+02  1.297040e+01  3.000000e+00 
   27    44    45    30     1  1.800000e+02  1.297040e+01  3.000000e+00  1.800000e+02  1.297040e+01  3.000000e+00 
   27    44    45    46     1  3.600000e+02  1.297040e+01  3.000000e+00  3.600000e+02  1.297040e+01  3.000000e+00 
   43    44    45    30     1  3.600000e+02  1.297040e+01  3.000000e+00  3.600000e+02  1.297040e+01  3.000000e+00 
   43    44    45    46     1  1.800000e+02  1.297040e+01  3.000000e+00  1.800000e+02  1.297040e+01  3.000000e+00 
   30    45    46    47     1  1.800000e+02  1.297040e+01  3.000000e+00  1.800000e+02  1.297040e+01  3.000000e+00 
   30    45    46    61     1  3.600000e+02  1.297040e+01  3.000000e+00  3.600000e+02  1.297040e+01  3.000000e+00 
   44    45    46    47     1  3.600000e+02  1.297040e+01  3.000000e+00  3.600000e+02  1.297040e+01  3.000000e+00 
   44    45    46    61     1  1.800000e+02  1.297040e+01  3.000000e+00  1.800000e+02  1.297040e+01  3.000000e+00 
   45    46    47    48     1  1.800000e+02  1.297040e+01  3.000000e+00  1.800000e+02  1.297040e+01  3.000000e+00 
   45    46    47    64     1  3.600000e+02  1.297040e+01  3.000000e+00  3.600000e+02  1.297040e+01  3.000000e+00 
   61    46    47    48     1  3.600000e+02  1.297040e+01  3.000000e+00  3.600000e+02  1.297040e+01  3.000000e+00 
   61    46    47    64     1  1.800000e+02  1.297040e+01  3.000000e+00  1.800000e+02  1.297040e+01  3.000000e+00 
   45    46    61    60     1  1.800000e+02  1.297040e+01  3.000000e+00  1.800000e+02  1.297040e+01  3.000000e+00 
   45    46    61    62     1  3.600000e+02  1.297040e+01  3.000000e+00  3.600000e+02  1.297040e+01  3.000000e+00 
   47    46    61    60     1  3.600000e+02  1.297040e+01  3.000000e+00  3.600000e+02  1.297040e+01  3.000000e+00 
   47    46    61    62     1  1.800000e+02  1.297040e+01  3.000000e+00  1.800000e+02  1.297040e+01  3.000000e+00 
   46    47    48    31     1  1.800000e+02  1.297040e+01  3.000000e+00  1.800000e+02  1.297040e+01  3.000000e+00 
   46    47    48    33     1  3.600000e+02  1.297040e+01  3.000000e+00  3.600000e+02  1.297040e+01  3.000000e+00 
   64    47    48    31     1  3.600000e+02  1.297040e+01  3.000000e+00  3.600000e+02  1.297040e+01  3.000000e+00 
   64    47    48    33     1  1.800000e+02  1.297040e+01  3.000000e+00  1.800000e+02  1.297040e+01  3.000000e+00 
   46    47    64    49     1  3.600000e+02  1.297040e+01  3.000000e+00  3.600000e+02  1.297040e+01  3.000000e+00 
   46    47    64    63     1  1.800000e+02  1.297040e+01  3.000000e+00  1.800000e+02  1.297040e+01  3.000000e+00 
   48    47    64    49     1  1.800000e+02  1.297040e+01  3.000000e+00  1.800000e+02  1.297040e+01  3.000000e+00 
   48    47    64    63     1  3.600000e+02  1.297040e+01  3.000000e+00  3.600000e+02  1.297040e+01  3.000000e+00 
   34    49    50    51     1  1.800000e+02  1.297040e+01  3.000000e+00  1.800000e+02  1.297040e+01  3.000000e+00 
   34    49    50    65     1  3.600000e+02  1.297040e+01  3.000000e+00  3.600000e+02  1.297040e+01  3.000000e+00 
   64    49    50    51     1  3.600000e+02  1.297040e+01  3.000000e+00  3.600000e+02  1.297040e+01  3.000000e+00 
   64    49    50    65     1  1.800000e+02  1.297040e+01  3.000000e+00  1.800000e+02  1.297040e+01  3.000000e+00 
;   34    49    64    47     1  1.800000e+02  1.297040e+01  3.000000e+00  1.800000e+02  1.297040e+01  3.000000e+00 
;   34    49    64    63     1  3.600000e+02  1.297040e+01  3.000000e+00  3.600000e+02  1.297040e+01  3.000000e+00 
;   50    49    64    47     1  3.600000e+02  1.297040e+01  3.000000e+00  3.600000e+02  1.297040e+01  3.000000e+00 
;   50    49    64    63     1  1.800000e+02  1.297040e+01  3.000000e+00  1.800000e+02  1.297040e+01  3.000000e+00 
   49    50    51    52     1  1.800000e+02  1.297040e+01  3.000000e+00  1.800000e+02  1.297040e+01  3.000000e+00 
   49    50    51    68     1  3.600000e+02  1.297040e+01  3.000000e+00  3.600000e+02  1.297040e+01  3.000000e+00 
   65    50    51    52     1  3.600000e+02  1.297040e+01  3.000000e+00  3.600000e+02  1.297040e+01  3.000000e+00 
   65    50    51    68     1  1.800000e+02  1.297040e+01  3.000000e+00  1.800000e+02  1.297040e+01  3.000000e+00 
   49    50    65    66     1  3.600000e+02  1.297040e+01  3.000000e+00  3.600000e+02  1.297040e+01  3.000000e+00 
   49    50    65    80     1  1.800000e+02  1.297040e+01  3.000000e+00  1.800000e+02  1.297040e+01  3.000000e+00 
   51    50    65    66     1  1.800000e+02  1.297040e+01  3.000000e+00  1.800000e+02  1.297040e+01  3.000000e+00 
   51    50    65    80     1  3.600000e+02  1.297040e+01  3.000000e+00  3.600000e+02  1.297040e+01  3.000000e+00 
   50    51    52    35     1  1.800000e+02  1.297040e+01  3.000000e+00  1.800000e+02  1.297040e+01  3.000000e+00 
   50    51    52    53     1  3.600000e+02  1.297040e+01  3.000000e+00  3.600000e+02  1.297040e+01  3.000000e+00 
   68    51    52    35     1  3.600000e+02  1.297040e+01  3.000000e+00  3.600000e+02  1.297040e+01  3.000000e+00 
   68    51    52    53     1  1.800000e+02  1.297040e+01  3.000000e+00  1.800000e+02  1.297040e+01  3.000000e+00 
   50    51    68    67     1  1.800000e+02  1.297040e+01  3.000000e+00  1.800000e+02  1.297040e+01  3.000000e+00 
   50    51    68    69     1  3.600000e+02  1.297040e+01  3.000000e+00  3.600000e+02  1.297040e+01  3.000000e+00 
   52    51    68    67     1  3.600000e+02  1.297040e+01  3.000000e+00  3.600000e+02  1.297040e+01  3.000000e+00 
   52    51    68    69     1  1.800000e+02  1.297040e+01  3.000000e+00  1.800000e+02  1.297040e+01  3.000000e+00 
   35    52    53    38     1  1.800000e+02  1.297040e+01  3.000000e+00  1.800000e+02  1.297040e+01  3.000000e+00 
   35    52    53    54     1  3.600000e+02  1.297040e+01  3.000000e+00  3.600000e+02  1.297040e+01  3.000000e+00 
   51    52    53    38     1  3.600000e+02  1.297040e+01  3.000000e+00  3.600000e+02  1.297040e+01  3.000000e+00 
   51    52    53    54     1  1.800000e+02  1.297040e+01  3.000000e+00  1.800000e+02  1.297040e+01  3.000000e+00 
   38    53    54    55     1  1.800000e+02  1.297040e+01  3.000000e+00  1.800000e+02  1.297040e+01  3.000000e+00 
   38    53    54    69     1  3.600000e+02  1.297040e+01  3.000000e+00  3.600000e+02  1.297040e+01  3.000000e+00 
   52    53    54    55     1  3.600000e+02  1.297040e+01  3.000000e+00  3.600000e+02  1.297040e+01  3.000000e+00 
   52    53    54    69     1  1.800000e+02  1.297040e+01  3.000000e+00  1.800000e+02  1.297040e+01  3.000000e+00 
   53    54    55    56     1  1.800000e+02  1.297040e+01  3.000000e+00  1.800000e+02  1.297040e+01  3.000000e+00 
   53    54    55    72     1  3.600000e+02  1.297040e+01  3.000000e+00  3.600000e+02  1.297040e+01  3.000000e+00 
   69    54    55    56     1  3.600000e+02  1.297040e+01  3.000000e+00  3.600000e+02  1.297040e+01  3.000000e+00 
   69    54    55    72     1  1.800000e+02  1.297040e+01  3.000000e+00  1.800000e+02  1.297040e+01  3.000000e+00 
   53    54    69    68     1  1.800000e+02  1.297040e+01  3.000000e+00  1.800000e+02  1.297040e+01  3.000000e+00 
   53    54    69    70     1  3.600000e+02  1.297040e+01  3.000000e+00  3.600000e+02  1.297040e+01  3.000000e+00 
   55    54    69    68     1  3.600000e+02  1.297040e+01  3.000000e+00  3.600000e+02  1.297040e+01  3.000000e+00 
   55    54    69    70     1  1.800000e+02  1.297040e+01  3.000000e+00  1.800000e+02  1.297040e+01  3.000000e+00 
   54    55    56    39     1  1.800000e+02  1.297040e+01  3.000000e+00  1.800000e+02  1.297040e+01  3.000000e+00 
   54    55    56    57     1  3.600000e+02  1.297040e+01  3.000000e+00  3.600000e+02  1.297040e+01  3.000000e+00 
   72    55    56    39     1  3.600000e+02  1.297040e+01  3.000000e+00  3.600000e+02  1.297040e+01  3.000000e+00 
   72    55    56    57     1  1.800000e+02  1.297040e+01  3.000000e+00  1.800000e+02  1.297040e+01  3.000000e+00 
   54    55    72    71     1  1.800000e+02  1.297040e+01  3.000000e+00  1.800000e+02  1.297040e+01  3.000000e+00 
   54    55    72    73     1  3.600000e+02  1.297040e+01  3.000000e+00  3.600000e+02  1.297040e+01  3.000000e+00 
   56    55    72    71     1  3.600000e+02  1.297040e+01  3.000000e+00  3.600000e+02  1.297040e+01  3.000000e+00 
   56    55    72    73     1  1.800000e+02  1.297040e+01  3.000000e+00  1.800000e+02  1.297040e+01  3.000000e+00 
   39    56    57    42     1  1.800000e+02  1.297040e+01  3.000000e+00  1.800000e+02  1.297040e+01  3.000000e+00 
   39    56    57    58     1  3.600000e+02  1.297040e+01  3.000000e+00  3.600000e+02  1.297040e+01  3.000000e+00 
   55    56    57    42     1  3.600000e+02  1.297040e+01  3.000000e+00  3.600000e+02  1.297040e+01  3.000000e+00 
   55    56    57    58     1  1.800000e+02  1.297040e+01  3.000000e+00  1.800000e+02  1.297040e+01  3.000000e+00 
   42    57    58    59     1  1.800000e+02  1.297040e+01  3.000000e+00  1.800000e+02  1.297040e+01  3.000000e+00 
   42    57    58    73     1  3.600000e+02  1.297040e+01  3.000000e+00  3.600000e+02  1.297040e+01  3.000000e+00 
   56    57    58    59     1  3.600000e+02  1.297040e+01  3.000000e+00  3.600000e+02  1.297040e+01  3.000000e+00 
   56    57    58    73     1  1.800000e+02  1.297040e+01  3.000000e+00  1.800000e+02  1.297040e+01  3.000000e+00 
   57    58    59    60     1  1.800000e+02  1.297040e+01  3.000000e+00  1.800000e+02  1.297040e+01  3.000000e+00 
   57    58    59    76     1  3.600000e+02  1.297040e+01  3.000000e+00  3.600000e+02  1.297040e+01  3.000000e+00 
   73    58    59    60     1  3.600000e+02  1.297040e+01  3.000000e+00  3.600000e+02  1.297040e+01  3.000000e+00 
   73    58    59    76     1  1.800000e+02  1.297040e+01  3.000000e+00  1.800000e+02  1.297040e+01  3.000000e+00 
   57    58    73    72     1  1.800000e+02  1.297040e+01  3.000000e+00  1.800000e+02  1.297040e+01  3.000000e+00 
   57    58    73    74     1  3.600000e+02  1.297040e+01  3.000000e+00  3.600000e+02  1.297040e+01  3.000000e+00 
   59    58    73    72     1  3.600000e+02  1.297040e+01  3.000000e+00  3.600000e+02  1.297040e+01  3.000000e+00 
   59    58    73    74     1  1.800000e+02  1.297040e+01  3.000000e+00  1.800000e+02  1.297040e+01  3.000000e+00 
   58    59    60    43     1  1.800000e+02  1.297040e+01  3.000000e+00  1.800000e+02  1.297040e+01  3.000000e+00 
   58    59    60    61     1  3.600000e+02  1.297040e+01  3.000000e+00  3.600000e+02  1.297040e+01  3.000000e+00 
   76    59    60    43     1  3.600000e+02  1.297040e+01  3.000000e+00  3.600000e+02  1.297040e+01  3.000000e+00 
   76    59    60    61     1  1.800000e+02  1.297040e+01  3.000000e+00  1.800000e+02  1.297040e+01  3.000000e+00 
   58    59    76    75     1  1.800000e+02  1.297040e+01  3.000000e+00  1.800000e+02  1.297040e+01  3.000000e+00 
   58    59    76    77     1  3.600000e+02  1.297040e+01  3.000000e+00  3.600000e+02  1.297040e+01  3.000000e+00 
   60    59    76    75     1  3.600000e+02  1.297040e+01  3.000000e+00  3.600000e+02  1.297040e+01  3.000000e+00 
   60    59    76    77     1  1.800000e+02  1.297040e+01  3.000000e+00  1.800000e+02  1.297040e+01  3.000000e+00 
   43    60    61    46     1  1.800000e+02  1.297040e+01  3.000000e+00  1.800000e+02  1.297040e+01  3.000000e+00 
   43    60    61    62     1  3.600000e+02  1.297040e+01  3.000000e+00  3.600000e+02  1.297040e+01  3.000000e+00 
   59    60    61    46     1  3.600000e+02  1.297040e+01  3.000000e+00  3.600000e+02  1.297040e+01  3.000000e+00 
   59    60    61    62     1  1.800000e+02  1.297040e+01  3.000000e+00  1.800000e+02  1.297040e+01  3.000000e+00 
   46    61    62    63     1  1.800000e+02  1.297040e+01  3.000000e+00  1.800000e+02  1.297040e+01  3.000000e+00 
   46    61    62    77     1  3.600000e+02  1.297040e+01  3.000000e+00  3.600000e+02  1.297040e+01  3.000000e+00 
   60    61    62    63     1  3.600000e+02  1.297040e+01  3.000000e+00  3.600000e+02  1.297040e+01  3.000000e+00 
   60    61    62    77     1  1.800000e+02  1.297040e+01  3.000000e+00  1.800000e+02  1.297040e+01  3.000000e+00 
   61    62    63    64     1  1.800000e+02  1.297040e+01  3.000000e+00  1.800000e+02  1.297040e+01  3.000000e+00 
   61    62    63    80     1  3.600000e+02  1.297040e+01  3.000000e+00  3.600000e+02  1.297040e+01  3.000000e+00 
   77    62    63    64     1  3.600000e+02  1.297040e+01  3.000000e+00  3.600000e+02  1.297040e+01  3.000000e+00 
   77    62    63    80     1  1.800000e+02  1.297040e+01  3.000000e+00  1.800000e+02  1.297040e+01  3.000000e+00 
   61    62    77    76     1  1.800000e+02  1.297040e+01  3.000000e+00  1.800000e+02  1.297040e+01  3.000000e+00 
   61    62    77    78     1  3.600000e+02  1.297040e+01  3.000000e+00  3.600000e+02  1.297040e+01  3.000000e+00 
   63    62    77    76     1  3.600000e+02  1.297040e+01  3.000000e+00  3.600000e+02  1.297040e+01  3.000000e+00 
   63    62    77    78     1  1.800000e+02  1.297040e+01  3.000000e+00  1.800000e+02  1.297040e+01  3.000000e+00 
   62    63    64    47     1  1.800000e+02  1.297040e+01  3.000000e+00  1.800000e+02  1.297040e+01  3.000000e+00 
   62    63    64    49     1  3.600000e+02  1.297040e+01  3.000000e+00  3.600000e+02  1.297040e+01  3.000000e+00 
   80    63    64    47     1  3.600000e+02  1.297040e+01  3.000000e+00  3.600000e+02  1.297040e+01  3.000000e+00 
   80    63    64    49     1  1.800000e+02  1.297040e+01  3.000000e+00  1.800000e+02  1.297040e+01  3.000000e+00 
   62    63    80    65     1  3.600000e+02  1.297040e+01  3.000000e+00  3.600000e+02  1.297040e+01  3.000000e+00 
   62    63    80    79     1  1.800000e+02  1.297040e+01  3.000000e+00  1.800000e+02  1.297040e+01  3.000000e+00 
   64    63    80    65     1  1.800000e+02  1.297040e+01  3.000000e+00  1.800000e+02  1.297040e+01  3.000000e+00 
   64    63    80    79     1  3.600000e+02  1.297040e+01  3.000000e+00  3.600000e+02  1.297040e+01  3.000000e+00 
   50    65    66     1     1  3.600000e+02  1.297040e+01  3.000000e+00  3.600000e+02  1.297040e+01  3.000000e+00 
   50    65    66    67     1  1.800000e+02  1.297040e+01  3.000000e+00  1.800000e+02  1.297040e+01  3.000000e+00 
;   80    65    66     1     1  1.800000e+02  1.297040e+01  3.000000e+00  1.800000e+02  1.297040e+01  3.000000e+00 
;   80    65    66    67     1  3.600000e+02  1.297040e+01  3.000000e+00  3.600000e+02  1.297040e+01  3.000000e+00 
;   50    65    80    63     1  1.800000e+02  1.297040e+01  3.000000e+00  1.800000e+02  1.297040e+01  3.000000e+00 
;   50    65    80    79     1  3.600000e+02  1.297040e+01  3.000000e+00  3.600000e+02  1.297040e+01  3.000000e+00 
;   66    65    80    63     1  3.600000e+02  1.297040e+01  3.000000e+00  3.600000e+02  1.297040e+01  3.000000e+00 
;   66    65    80    79     1  1.800000e+02  1.297040e+01  3.000000e+00  1.800000e+02  1.297040e+01  3.000000e+00 
;    1    66    67     4     1  1.800000e+02  1.297040e+01  3.000000e+00  1.800000e+02  1.297040e+01  3.000000e+00 
;    1    66    67    68     1  3.600000e+02  1.297040e+01  3.000000e+00  3.600000e+02  1.297040e+01  3.000000e+00 
;   65    66    67     4     1  3.600000e+02  1.297040e+01  3.000000e+00  3.600000e+02  1.297040e+01  3.000000e+00 
   65    66    67    68     1  1.800000e+02  1.297040e+01  3.000000e+00  1.800000e+02  1.297040e+01  3.000000e+00 
;    4    67    68    51     1  3.600000e+02  1.297040e+01  3.000000e+00  3.600000e+02  1.297040e+01  3.000000e+00 
;    4    67    68    69     1  1.800000e+02  1.297040e+01  3.000000e+00  1.800000e+02  1.297040e+01  3.000000e+00 
   66    67    68    51     1  1.800000e+02  1.297040e+01  3.000000e+00  1.800000e+02  1.297040e+01  3.000000e+00 
   66    67    68    69     1  3.600000e+02  1.297040e+01  3.000000e+00  3.600000e+02  1.297040e+01  3.000000e+00 
   51    68    69    54     1  1.800000e+02  1.297040e+01  3.000000e+00  1.800000e+02  1.297040e+01  3.000000e+00 
   51    68    69    70     1  3.600000e+02  1.297040e+01  3.000000e+00  3.600000e+02  1.297040e+01  3.000000e+00 
   67    68    69    54     1  3.600000e+02  1.297040e+01  3.000000e+00  3.600000e+02  1.297040e+01  3.000000e+00 
   67    68    69    70     1  1.800000e+02  1.297040e+01  3.000000e+00  1.800000e+02  1.297040e+01  3.000000e+00 
;   54    69    70     5     1  3.600000e+02  1.297040e+01  3.000000e+00  3.600000e+02  1.297040e+01  3.000000e+00 
   54    69    70    71     1  1.800000e+02  1.297040e+01  3.000000e+00  1.800000e+02  1.297040e+01  3.000000e+00 
;   68    69    70     5     1  1.800000e+02  1.297040e+01  3.000000e+00  1.800000e+02  1.297040e+01  3.000000e+00 
   68    69    70    71     1  3.600000e+02  1.297040e+01  3.000000e+00  3.600000e+02  1.297040e+01  3.000000e+00 
;    5    70    71     8     1  1.800000e+02  1.297040e+01  3.000000e+00  1.800000e+02  1.297040e+01  3.000000e+00 
    5    70    71    72     1  3.600000e+02  1.297040e+01  3.000000e+00  3.600000e+02  1.297040e+01  3.000000e+00 
;   69    70    71     8     1  3.600000e+02  1.297040e+01  3.000000e+00  3.600000e+02  1.297040e+01  3.000000e+00 
   69    70    71    72     1  1.800000e+02  1.297040e+01  3.000000e+00  1.800000e+02  1.297040e+01  3.000000e+00 
;    8    71    72    55     1  3.600000e+02  1.297040e+01  3.000000e+00  3.600000e+02  1.297040e+01  3.000000e+00 
;    8    71    72    73     1  1.800000e+02  1.297040e+01  3.000000e+00  1.800000e+02  1.297040e+01  3.000000e+00 
   70    71    72    55     1  1.800000e+02  1.297040e+01  3.000000e+00  1.800000e+02  1.297040e+01  3.000000e+00 
   70    71    72    73     1  3.600000e+02  1.297040e+01  3.000000e+00  3.600000e+02  1.297040e+01  3.000000e+00 
   55    72    73    58     1  1.800000e+02  1.297040e+01  3.000000e+00  1.800000e+02  1.297040e+01  3.000000e+00 
   55    72    73    74     1  3.600000e+02  1.297040e+01  3.000000e+00  3.600000e+02  1.297040e+01  3.000000e+00 
   71    72    73    58     1  3.600000e+02  1.297040e+01  3.000000e+00  3.600000e+02  1.297040e+01  3.000000e+00 
   71    72    73    74     1  1.800000e+02  1.297040e+01  3.000000e+00  1.800000e+02  1.297040e+01  3.000000e+00 
;   58    73    74     9     1  3.600000e+02  1.297040e+01  3.000000e+00  3.600000e+02  1.297040e+01  3.000000e+00 
   58    73    74    75     1  1.800000e+02  1.297040e+01  3.000000e+00  1.800000e+02  1.297040e+01  3.000000e+00 
;   72    73    74     9     1  1.800000e+02  1.297040e+01  3.000000e+00  1.800000e+02  1.297040e+01  3.000000e+00 
   72    73    74    75     1  3.600000e+02  1.297040e+01  3.000000e+00  3.600000e+02  1.297040e+01  3.000000e+00 
;    9    74    75    12     1  1.800000e+02  1.297040e+01  3.000000e+00  1.800000e+02  1.297040e+01  3.000000e+00 
;    9    74    75    76     1  3.600000e+02  1.297040e+01  3.000000e+00  3.600000e+02  1.297040e+01  3.000000e+00 
   73    74    75    12     1  3.600000e+02  1.297040e+01  3.000000e+00  3.600000e+02  1.297040e+01  3.000000e+00 
   73    74    75    76     1  1.800000e+02  1.297040e+01  3.000000e+00  1.800000e+02  1.297040e+01  3.000000e+00 
;   12    75    76    59     1  3.600000e+02  1.297040e+01  3.000000e+00  3.600000e+02  1.297040e+01  3.000000e+00 
;   12    75    76    77     1  1.800000e+02  1.297040e+01  3.000000e+00  1.800000e+02  1.297040e+01  3.000000e+00 
   74    75    76    59     1  1.800000e+02  1.297040e+01  3.000000e+00  1.800000e+02  1.297040e+01  3.000000e+00 
   74    75    76    77     1  3.600000e+02  1.297040e+01  3.000000e+00  3.600000e+02  1.297040e+01  3.000000e+00 
   59    76    77    62     1  1.800000e+02  1.297040e+01  3.000000e+00  1.800000e+02  1.297040e+01  3.000000e+00 
   59    76    77    78     1  3.600000e+02  1.297040e+01  3.000000e+00  3.600000e+02  1.297040e+01  3.000000e+00 
   75    76    77    62     1  3.600000e+02  1.297040e+01  3.000000e+00  3.600000e+02  1.297040e+01  3.000000e+00 
   75    76    77    78     1  1.800000e+02  1.297040e+01  3.000000e+00  1.800000e+02  1.297040e+01  3.000000e+00 
;   62    77    78    13     1  3.600000e+02  1.297040e+01  3.000000e+00  3.600000e+02  1.297040e+01  3.000000e+00 
   62    77    78    79     1  1.800000e+02  1.297040e+01  3.000000e+00  1.800000e+02  1.297040e+01  3.000000e+00 
   76    77    78    13     1  1.800000e+02  1.297040e+01  3.000000e+00  1.800000e+02  1.297040e+01  3.000000e+00 
   76    77    78    79     1  3.600000e+02  1.297040e+01  3.000000e+00  3.600000e+02  1.297040e+01  3.000000e+00 
;   13    78    79    16     1  1.800000e+02  1.297040e+01  3.000000e+00  1.800000e+02  1.297040e+01  3.000000e+00 
;   13    78    79    80     1  3.600000e+02  1.297040e+01  3.000000e+00  3.600000e+02  1.297040e+01  3.000000e+00 
;   77    78    79    16     1  3.600000e+02  1.297040e+01  3.000000e+00  3.600000e+02  1.297040e+01  3.000000e+00 
   77    78    79    80     1  1.800000e+02  1.297040e+01  3.000000e+00  1.800000e+02  1.297040e+01  3.000000e+00 
;   16    79    80    63     1  3.600000e+02  1.297040e+01  3.000000e+00  3.600000e+02  1.297040e+01  3.000000e+00 
;   16    79    80    65     1  1.800000e+02  1.297040e+01  3.000000e+00  1.800000e+02  1.297040e+01  3.000000e+00 
   78    79    80    63     1  1.800000e+02  1.297040e+01  3.000000e+00  1.800000e+02  1.297040e+01  3.000000e+00 
   78    79    80    65     1  3.600000e+02  1.297040e+01  3.000000e+00  3.600000e+02  1.297040e+01  3.000000e+00 
