dispersed dyes in water
23442
    1APIC   R1A    1   2.875   3.084   3.205
    1APIC   R1B    2   2.792   3.105   3.096
    1APIC   R1C    3   2.762   3.235   3.056
    1APIC   R1D    4   2.817   3.343   3.125
    1APIC   R1E    5   2.903   3.321   3.231
    1APIC   R1F    6   2.931   3.191   3.274
    1APIC   N2A    7   3.032   3.168   3.367
    1APIC   R2D    8   2.977   3.426   3.283
    1APIC   R2E    9   3.084   3.401   3.368
    1APIC   R2F   10   3.118   3.271   3.405
    1APIC   L1A   11   3.251   3.228   3.411
    1APIC   N3A   12   3.448   3.210   3.280
    1APIC   R3B   13   3.366   3.291   3.360
    1APIC   R3C   14   3.386   3.428   3.356
    1APIC   R3D   15   3.486   3.484   3.278
    1APIC   R3E   16   3.571   3.403   3.205
    1APIC   R3F   17   3.552   3.266   3.205
    1APIC   R4A   18   3.642   3.185   3.135
    1APIC   R4D   19   3.677   3.460   3.135
    1APIC   R4E   20   3.765   3.379   3.064
    1APIC   R4F   21   3.747   3.242   3.064
    1APIC   H1A   22   2.903   2.981   3.230
    1APIC   H1B   23   2.759   3.021   3.036
    1APIC   H1C   24   2.700   3.252   2.969
    1APIC   H1D   25   2.787   3.444   3.097
    1APIC   H2D   26   2.944   3.529   3.267
    1APIC   H2E   27   3.125   3.486   3.423
    1APIC   L1H   28   3.273   3.156   3.491
    1APIC   H3C   29   3.338   3.493   3.430
    1APIC   H3D   30   3.501   3.592   3.281
    1APIC   H4A   31   3.643   3.077   3.150
    1APIC   H4D   32   3.693   3.568   3.138
    1APIC   H4E   33   3.848   3.424   3.009
    1APIC   H4F   34   3.819   3.177   3.014
    1APIC   T2A   35   3.008   3.057   3.470
    1APIC   T3A   36   2.910   3.106   3.577
    1APIC   T2B   37   3.389   3.077   3.232
    1APIC   T3B   38   3.302   3.093   3.107
    2HECX    H6   39   1.593   4.373   2.366
    2HECX    O2   40   1.572   4.436   2.448
    2HECX    C2   41   1.674   4.538   2.453
    2HECX    C1   42   1.637   4.657   2.544
    2HECX    O1   43   1.744   4.751   2.563
    2HECX    H1   44   1.818   4.705   2.624
    3HECX    H6   45   1.149   2.950   2.623
    3HECX    O2   46   1.117   3.023   2.691
    3HECX    C2   47   0.973   3.020   2.692
    3HECX    C1   48   0.916   2.908   2.780
    3HECX    O1   49   0.773   2.897   2.771
    3HECX    H1   50   0.732   2.905   2.869
    4HECX    H6   51   1.376   5.609   5.181
    4HECX    O2   52   1.427   5.586   5.273
    4HECX    C2   53   1.512   5.695   5.314
    4HECX    C1   54   1.595   5.661   5.439
    4HECX    O1   55   1.640   5.779   5.510
    4HECX    H1   56   1.586   5.783   5.601
    5HECX    H6   57   1.236   5.983   4.893
    5HECX    O2   58   1.201   6.006   4.988
    5HECX    C2   59   1.284   6.111   5.041
    5HECX    C1   60   1.221   6.249   5.023
    5HECX    O1   61   1.293   6.350   5.096
    5HECX    H1   62   1.261   6.446   5.064
    6HECX    H6   63   3.827   2.574   5.636
    6HECX    O2   64   3.804   2.529   5.730
    6HECX    C2   65   3.835   2.619   5.839
    6HECX    C1   66   3.709   2.669   5.912
    6HECX    O1   67   3.737   2.736   6.036
    6HECX    H1   68   3.788   2.667   6.098
    7HECX    H6   69   4.602   2.495   1.782
    7HECX    O2   70   4.537   2.461   1.704
    7HECX    C2   71   4.495   2.327   1.738
    7HECX    C1   72   4.551   2.213   1.652
    7HECX    O1   73   4.480   2.185   1.530
    7HECX    H1   74   4.533   2.108   1.480
    8HECX    H6   75   2.108   3.090   3.679
    8HECX    O2   76   2.145   3.174   3.729
    8HECX    C2   77   2.282   3.149   3.764
    8HECX    C1   78   2.330   3.223   3.890
    8HECX    O1   79   2.471   3.205   3.913
    8HECX    H1   80   2.488   3.173   4.011
    9HECX    H6   81   2.567   6.047   3.250
    9HECX    O2   82   2.609   6.055   3.348
    9HECX    C2   83   2.730   5.975   3.354
    9HECX    C1   84   2.717   5.835   3.291
    9HECX    O1   85   2.835   5.752   3.301
    9HECX    H1   86   2.799   5.653   3.327
   10HECX    H6   87   3.703   4.025   2.507
   10HECX    O2   88   3.766   4.054   2.586
   10HECX    C2   89   3.690   4.116   2.691
   10HECX    C1   90   3.593   4.019   2.762
   10HECX    O1   91   3.532   4.076   2.880
   10HECX    H1   92   3.435   4.031   2.894
   11HECX    H6   93   0.970   4.973   2.230
   11HECX    O2   94   0.935   4.881   2.199
   11HECX    C2   95   1.042   4.801   2.144
   11HECX    C1   96   0.994   4.711   2.028
   11HECX    O1   97   1.095   4.620   1.978
   11HECX    H1   98   1.158   4.667   1.912
   12HECX    H6   99   1.101   3.143   2.369
   12HECX    O2  100   1.162   3.060   2.348
   12HECX    C2  101   1.194   3.063   2.208
   12HECX    C1  102   1.300   3.169   2.176
   12HECX    O1  103   1.315   3.192   2.034
   12HECX    H1  104   1.360   3.285   2.022
   13HECX    H6  105   3.858   2.984   2.509
   13HECX    O2  106   3.802   3.053   2.559
   13HECX    C2  107   3.851   3.184   2.523
   13HECX    C1  108   3.838   3.215   2.372
   13HECX    O1  109   3.909   3.123   2.285
   13HECX    H1  110   3.877   3.145   2.190
   14HECX    H6  111   3.952   5.114   5.617
   14HECX    O2  112   4.044   5.130   5.579
   14HECX    C2  113   4.081   5.020   5.492
   14HECX    C1  114   4.205   5.055   5.408
   14HECX    O1  115   4.212   4.987   5.281
   14HECX    H1  116   4.131   5.018   5.224
   15HECX    H6  117   0.596   2.010   2.099
   15HECX    O2  118   0.525   2.015   2.174
   15HECX    C2  119   0.572   1.931   2.282
   15HECX    C1  120   0.470   1.915   2.396
   15HECX    O1  121   0.497   1.797   2.476
   15HECX    H1  122   0.491   1.709   2.410
   16HECX    H6  123   1.547   4.191   0.373
   16HECX    O2  124   1.505   4.105   0.333
   16HECX    C2  125   1.410   4.053   0.428
   16HECX    C1  126   1.290   3.985   0.359
   16HECX    O1  127   1.190   3.939   0.452
   16HECX    H1  128   1.102   3.914   0.397
   17HECX    H6  129   3.149   0.184   1.231
   17HECX    O2  130   3.193   0.097   1.188
   17HECX    C2  131   3.328   0.135   1.153
   17HECX    C1  132   3.396   0.049   1.045
   17HECX    O1  133   3.535   0.086   1.028
   17HECX    H1  134   3.581   0.024   0.960
   18HECX    H6  135   0.566   4.149   5.059
   18HECX    O2  136   0.611   4.159   4.965
   18HECX    C2  137   0.618   4.301   4.934
   18HECX    C1  138   0.653   4.332   4.787
   18HECX    O1  139   0.680   4.472   4.762
   18HECX    H1  140   0.669   4.491   4.656
   19HECX    H6  141   5.539   1.022   3.777
   19HECX    O2  142   5.620   1.043   3.713
   19HECX    C2  143   5.708   0.929   3.717
   19HECX    C1  144   5.822   0.930   3.615
   19HECX    O1  145   5.902   0.810   3.621
   19HECX    H1  146   5.860   0.738   3.551
   20HECX    H6  147   4.599   4.206   3.984
   20HECX    O2  148   4.684   4.249   3.930
   20HECX    C2  149   4.731   4.149   3.836
   20HECX    C1  150   4.752   4.201   3.693
   20HECX    O1  151   4.826   4.107   3.612
   20HECX    H1  152   4.931   4.127   3.628
   21HECX    H6  153   5.355   5.859   4.876
   21HECX    O2  154   5.266   5.903   4.858
   21HECX    C2  155   5.289   6.036   4.808
   21HECX    C1  156   5.161   6.121   4.793
   21HECX    O1  157   5.185   6.260   4.759
   21HECX    H1  158   5.210   6.312   4.848
   22HECX    H6  159   3.192   5.761   4.243
   22HECX    O2  160   3.137   5.797   4.328
   22HECX    C2  161   3.038   5.699   4.365
   22HECX    C1  162   2.911   5.704   4.279
   22HECX    O1  163   2.811   5.611   4.325
   22HECX    H1  164   2.741   5.594   4.248
   23HECX    H6  165   2.316   1.871   1.714
   23HECX    O2  166   2.376   1.898   1.797
   23HECX    C2  167   2.307   2.008   1.860
   23HECX    C1  168   2.299   1.995   2.013
   23HECX    O1  169   2.258   2.117   2.080
   23HECX    H1  170   2.260   2.098   2.185
   24HECX    H6  171   5.456   2.070   4.558
   24HECX    O2  172   5.394   2.034   4.634
   24HECX    C2  173   5.372   2.141   4.729
   24HECX    C1  174   5.471   2.141   4.847
   24HECX    O1  175   5.449   2.252   4.936
   24HECX    H1  176   5.537   2.271   4.991
   25HECX    H6  177   1.397   3.576   0.315
   25HECX    O2  178   1.309   3.630   0.303
   25HECX    C2  179   1.207   3.580   0.392
   25HECX    C1  180   1.113   3.475   0.331
   25HECX    O1  181   1.021   3.422   0.429
   25HECX    H1  182   0.964   3.347   0.386
   26HECX    H6  183   0.387   5.813   2.677
   26HECX    O2  184   0.304   5.828   2.611
   26HECX    C2  185   0.223   5.709   2.610
   26HECX    C1  186   0.214   5.647   2.470
   26HECX    O1  187   0.135   5.525   2.463
   26HECX    H1  188   0.034   5.555   2.456
   27HECX    H6  189   6.370   5.626   2.107
   27HECX    O2  190   6.440   5.592   2.176
   27HECX    C2  191   0.054   5.543   2.102
   27HECX    C1  192   0.039   5.396   2.061
   27HECX    O1  193   0.138   5.358   1.963
   27HECX    H1  194   0.154   5.251   1.969
   28HECX    H6  195   2.835   6.322   5.248
   28HECX    O2  196   2.786   6.240   5.221
   28HECX    C2  197   2.655   6.283   5.176
   28HECX    C1  198   2.569   6.171   5.119
   28HECX    O1  199   2.430   6.208   5.099
   28HECX    H1  200   2.391   6.138   5.025
   29HECX    H6  201   4.333   3.593   2.417
   29HECX    O2  202   4.344   3.495   2.441
   29HECX    C2  203   4.445   3.484   2.544
   29HECX    C1  204   4.512   3.346   2.551
   29HECX    O1  205   4.621   3.339   2.646
   29HECX    H1  206   4.698   3.284   2.599
   30HECX    H6  207   1.671   2.862   6.000
   30HECX    O2  208   1.739   2.797   5.946
   30HECX    C2  209   1.713   2.660   5.985
   30HECX    C1  210   1.804   2.558   5.915
   30HECX    O1  211   1.776   2.422   5.957
   30HECX    H1  212   1.822   2.404   6.050
   31HECX    H6  213   2.437   4.976   0.507
   31HECX    O2  214   2.500   5.039   0.559
   31HECX    C2  215   2.633   5.019   0.507
   31HECX    C1  216   2.734   4.991   0.620
   31HECX    O1  217   2.870   5.017   0.583
   31HECX    H1  218   2.877   5.113   0.540
   32HECX    H6  219   6.423   1.657   2.453
   32HECX    O2  220   6.407   1.755   2.413
   32HECX    C2  221   6.429   1.850   2.519
   32HECX    C1  222   6.309   1.941   2.544
   32HECX    O1  223   6.328   2.023   2.661
   32HECX    H1  224   6.233   2.071   2.684
   33HECX    H6  225   4.054   4.155   5.871
   33HECX    O2  226   3.974   4.126   5.929
   33HECX    C2  227   3.942   4.237   6.015
   33HECX    C1  228   3.799   4.234   6.069
   33HECX    O1  229   3.769   4.347   6.155
   33HECX    H1  230   3.671   4.379   6.128
   34HECX    H6  231   3.378   3.583   5.031
   34HECX    O2  232   3.278   3.556   5.015
   34HECX    C2  233   3.206   3.581   5.137
   34HECX    C1  234   3.199   3.732   5.169
   34HECX    O1  235   3.165   3.760   5.306
   34HECX    H1  236   3.123   3.859   5.312
   35HECX    H6  237   2.499   4.676   2.631
   35HECX    O2  238   2.524   4.772   2.658
   35HECX    C2  239   2.623   4.765   2.762
   35HECX    C1  240   2.569   4.704   2.893
   35HECX    O1  241   2.677   4.664   2.980
   35HECX    H1  242   2.735   4.592   2.929
   36HECX    H6  243   0.505   2.666   3.288
   36HECX    O2  244   0.450   2.749   3.248
   36HECX    C2  245   0.546   2.845   3.198
   36HECX    C1  246   0.575   2.829   3.048
   36HECX    O1  247   0.668   2.926   2.995
   36HECX    H1  248   0.624   3.023   2.998
   37HECX    H6  249   0.531   4.227   5.280
   37HECX    O2  250   0.545   4.319   5.329
   37HECX    C2  251   0.649   4.304   5.428
   37HECX    C1  252   0.786   4.280   5.363
   37HECX    O1  253   0.890   4.258   5.461
   37HECX    H1  254   0.925   4.353   5.499
   38HECX    H6  255   2.763   1.598   0.101
   38HECX    O2  256   2.851   1.619   0.153
   38HECX    C2  257   2.892   1.754   0.123
   38HECX    C1  258   3.025   1.789   0.191
   38HECX    O1  259   3.078   1.921   0.164
   38HECX    H1  260   3.156   1.912   0.093
   39HECX    H6  261   5.643   3.048   0.727
   39HECX    O2  262   5.710   2.970   0.737
   39HECX    C2  263   5.840   3.013   0.690
   39HECX    C1  264   5.934   2.893   0.666
   39HECX    O1  265   6.070   2.930   0.635
   39HECX    H1  266   6.115   2.850   0.587
   40HECX    H6  267   6.289   3.223   4.117
   40HECX    O2  268   6.259   3.274   4.202
   40HECX    C2  269   6.330   3.224   4.316
   40HECX    C1  270   6.280   3.288   4.446
   40HECX    O1  271   6.331   3.229   4.567
   40HECX    H1  272   6.271   3.266   4.647
   41HECX    H6  273   2.296   5.433   0.921
   41HECX    O2  274   2.362   5.454   1.000
   41HECX    C2  275   2.494   5.408   0.963
   41HECX    C1  276   2.604   5.455   1.059
   41HECX    O1  277   2.736   5.404   1.026
   41HECX    H1  278   2.732   5.299   1.019
   42HECX    H6  279   1.264   0.794   1.262
   42HECX    O2  280   1.255   0.782   1.367
   42HECX    C2  281   1.354   0.866   1.431
   42HECX    C1  282   1.302   0.939   1.556
   42HECX    O1  283   1.409   0.974   1.647
   42HECX    H1  284   1.409   1.079   1.665
   43HECX    H6  285   1.511   1.877   4.026
   43HECX    O2  286   1.442   1.799   4.015
   43HECX    C2  287   1.310   1.857   4.005
   43HECX    C1  288   1.246   1.851   3.866
   43HECX    O1  289   1.291   1.955   3.776
   43HECX    H1  290   1.238   1.943   3.684
   44HECX    H6  291   0.165   0.333   6.013
   44HECX    O2  292   0.148   0.271   5.928
   44HECX    C2  293   0.006   0.261   5.905
   44HECX    C1  294   6.471   0.261   5.756
   44HECX    O1  295   6.336   0.217   5.729
   44HECX    H1  296   6.342   0.142   5.657
   45HECX    H6  297   5.489   3.918   1.067
   45HECX    O2  298   5.471   3.965   1.162
   45HECX    C2  299   5.345   4.035   1.154
   45HECX    C1  300   5.226   3.937   1.162
   45HECX    O1  301   5.100   3.996   1.124
   45HECX    H1  302   5.066   4.056   1.204
   46HECX    H6  303   5.735   6.360   2.254
   46HECX    O2  304   5.690   6.411   2.335
   46HECX    C2  305   5.592   0.002   2.281
   46HECX    C1  306   5.655   0.120   2.206
   46HECX    O1  307   5.558   0.208   2.146
   46HECX    H1  308   5.531   0.169   2.050
   47HECX    H6  309   2.308   1.180   1.576
   47HECX    O2  310   2.323   1.175   1.477
   47HECX    C2  311   2.464   1.194   1.456
   47HECX    C1  312   2.500   1.213   1.308
   47HECX    O1  313   2.642   1.219   1.287
   47HECX    H1  314   2.660   1.257   1.189
   48HECX    H6  315   3.554   4.699   5.908
   48HECX    O2  316   3.538   4.691   5.804
   48HECX    C2  317   3.441   4.587   5.782
   48HECX    C1  318   3.367   4.601   5.648
   48HECX    O1  319   3.256   4.510   5.632
   48HECX    H1  320   3.295   4.412   5.615
   49HECX    H6  321   0.019   3.789   5.522
   49HECX    O2  322   6.476   3.875   5.475
   49HECX    C2  323   0.078   3.976   5.457
   49HECX    C1  324   0.190   3.932   5.362
   49HECX    O1  325   0.283   4.039   5.336
   49HECX    H1  326   0.227   4.114   5.283
   50HECX    H6  327   1.356   5.299   3.375
   50HECX    O2  328   1.354   5.343   3.470
   50HECX    C2  329   1.287   5.252   3.560
   50HECX    C1  330   1.288   5.307   3.704
   50HECX    O1  331   1.214   5.228   3.799
   50HECX    H1  332   1.268   5.139   3.822
   51HECX    H6  333   3.983   2.869   0.813
   51HECX    O2  334   3.977   2.898   0.709
   51HECX    C2  335   3.969   2.776   0.632
   51HECX    C1  336   3.909   2.797   0.493
   51HECX    O1  337   3.902   2.675   0.417
   51HECX    H1  338   3.879   2.700   0.316
   52HECX    H6  339   5.553   0.690   1.741
   52HECX    O2  340   5.604   0.678   1.831
   52HECX    C2  341   5.709   0.581   1.809
   52HECX    C1  342   5.742   0.497   1.934
   52HECX    O1  343   5.861   0.418   1.917
   52HECX    H1  344   5.879   0.359   2.004
   53HECX    H6  345   1.588   5.748   1.492
   53HECX    O2  346   1.548   5.669   1.551
   53HECX    C2  347   1.488   5.723   1.671
   53HECX    C1  348   1.335   5.720   1.666
   53HECX    O1  349   1.276   5.752   1.794
   53HECX    H1  350   1.179   5.767   1.781
   54HECX    H6  351   0.516   5.768   3.271
   54HECX    O2  352   0.468   5.810   3.183
   54HECX    C2  353   0.354   5.727   3.154
   54HECX    C1  354   0.278   5.765   3.026
   54HECX    O1  355   0.203   5.652   2.978
   54HECX    H1  356   0.270   5.592   2.926
   55HECX    H6  357   1.363   0.111   1.668
   55HECX    O2  358   1.394   0.024   1.721
   55HECX    C2  359   1.360   0.041   1.861
   55HECX    C1  360   1.328   6.408   1.931
   55HECX    O1  361   1.300   6.418   2.072
   55HECX    H1  362   1.260   6.324   2.104
   56HECX    H6  363   1.002   4.225   4.237
   56HECX    O2  364   0.922   4.294   4.249
   56HECX    C2  365   0.975   4.424   4.282
   56HECX    C1  366   0.987   4.521   4.163
   56HECX    O1  367   1.091   4.487   4.069
   56HECX    H1  368   1.109   4.573   4.012
   57HECX    H6  369   5.489   5.128   4.850
   57HECX    O2  370   5.500   5.025   4.839
   57HECX    C2  371   5.587   4.973   4.942
   57HECX    C1  372   5.737   4.977   4.904
   57HECX    O1  373   5.779   4.887   4.799
   57HECX    H1  374   5.809   4.798   4.846
   58HECX    H6  375   1.569   5.534   1.538
   58HECX    O2  376   1.588   5.429   1.524
   58HECX    C2  377   1.730   5.408   1.527
   58HECX    C1  378   1.792   5.451   1.393
   58HECX    O1  379   1.935   5.439   1.387
   58HECX    H1  380   1.977   5.499   1.464
   59HECX    H6  381   5.305   1.233   6.482
   59HECX    O2  382   5.284   1.321   6.426
   59HECX    C2  383   5.177   1.387   6.495
   59HECX    C1  384   5.079   1.467   6.407
   59HECX    O1  385   4.972   1.524   6.486
   59HECX    H1  386   4.929   1.446   0.045
   60HECX    H6  387   1.628   3.438   1.263
   60HECX    O2  388   1.733   3.418   1.254
   60HECX    C2  389   1.800   3.536   1.206
   60HECX    C1  390   1.848   3.521   1.061
   60HECX    O1  391   1.899   3.645   1.009
   60HECX    H1  392   1.952   3.625   0.928
   61HECX    H6  393   6.213   1.770   1.269
   61HECX    O2  394   6.287   1.834   1.228
   61HECX    C2  395   6.306   1.798   1.088
   61HECX    C1  396   6.332   1.649   1.064
   61HECX    O1  397   6.277   1.606   0.939
   61HECX    H1  398   6.307   1.505   0.923
   62HECX    H6  399   5.396   1.215   5.275
   62HECX    O2  400   5.310   1.160   5.292
   62HECX    C2  401   5.339   1.024   5.255
   62HECX    C1  402   5.218   0.929   5.257
   62HECX    O1  403   5.252   0.795   5.215
   62HECX    H1  404   5.277   0.800   5.111
   63HECX    H6  405   2.658   0.559   2.184
   63HECX    O2  406   2.737   0.628   2.191
   63HECX    C2  407   2.681   0.754   2.233
   63HECX    C1  408   2.693   0.868   2.131
   63HECX    O1  409   2.607   0.978   2.167
   63HECX    H1  410   2.637   1.065   2.120
   64HECX    H6  411   5.864   5.403   0.202
   64HECX    O2  412   5.869   5.304   0.165
   64HECX    C2  413   6.009   5.272   0.152
   64HECX    C1  414   6.064   5.233   0.289
   64HECX    O1  415   6.207   5.234   0.300
   64HECX    H1  416   6.229   5.244   0.402
   65HECX    H6  417   5.560   0.116   3.205
   65HECX    O2  418   5.519   0.168   3.286
   65HECX    C2  419   5.622   0.250   3.347
   65HECX    C1  420   5.565   0.354   3.444
   65HECX    O1  421   5.665   0.437   3.508
   65HECX    H1  422   5.733   0.370   3.563
   66HECX    H6  423   6.447   1.551   4.288
   66HECX    O2  424   6.465   1.456   4.244
   66HECX    C2  425   6.363   1.363   4.284
   66HECX    C1  426   6.228   1.384   4.214
   66HECX    O1  427   6.122   1.311   4.279
   66HECX    H1  428   6.035   1.326   4.223
   67HECX    H6  429   1.931   2.350   3.843
   67HECX    O2  430   2.030   2.337   3.807
   67HECX    C2  431   2.033   2.220   3.722
   67HECX    C1  432   2.052   2.257   3.574
   67HECX    O1  433   2.104   2.149   3.494
   67HECX    H1  434   2.035   2.069   3.490
   68HECX    H6  435   0.459   2.811   6.130
   68HECX    O2  436   0.410   2.904   6.136
   68HECX    C2  437   0.372   2.946   6.004
   68HECX    C1  438   0.281   2.844   5.931
   68HECX    O1  439   0.244   2.887   5.798
   68HECX    H1  440   0.305   2.835   5.729
   69HECX    H6  441   2.490   1.479   5.591
   69HECX    O2  442   2.573   1.480   5.528
   69HECX    C2  443   2.683   1.416   5.595
   69HECX    C1  444   2.773   1.510   5.676
   69HECX    O1  445   2.861   1.594   5.599
   69HECX    H1  446   2.921   1.534   5.539
   70HECX    H6  447   4.162   2.589   2.358
   70HECX    O2  448   4.183   2.510   2.427
   70HECX    C2  449   4.241   2.399   2.353
   70HECX    C1  450   4.280   2.279   2.439
   70HECX    O1  451   4.347   2.176   2.363
   70HECX    H1  452   4.430   2.142   2.419
   71HECX    H6  453   2.529   6.044   2.560
   71HECX    O2  454   2.581   5.961   2.600
   71HECX    C2  455   2.486   5.864   2.649
   71HECX    C1  456   2.555   5.731   2.684
   71HECX    O1  457   2.476   5.640   2.764
   71HECX    H1  458   2.533   5.558   2.774
   72HECX    H6  459   3.212   2.011   4.295
   72HECX    O2  460   3.175   1.990   4.196
   72HECX    C2  461   3.241   1.870   4.152
   72HECX    C1  462   3.394   1.880   4.158
   72HECX    O1  463   3.461   1.752   4.161
   72HECX    H1  464   3.453   1.704   4.064
   73HECX    H6  465   4.276   0.786   0.932
   73HECX    O2  466   4.306   0.788   0.833
   73HECX    C2  467   4.307   0.656   0.775
   73HECX    C1  468   4.176   0.576   0.791
   73HECX    O1  469   4.164   0.505   0.916
   73HECX    H1  470   4.061   0.477   0.928
   74HECX    H6  471   5.256   1.586   4.177
   74HECX    O2  472   5.253   1.590   4.282
   74HECX    C2  473   5.205   1.721   4.321
   74HECX    C1  474   5.282   1.780   4.440
   74HECX    O1  475   5.262   1.923   4.449
   74HECX    H1  476   5.309   1.960   4.536
   75HECX    H6  477   3.160   3.868   2.388
   75HECX    O2  478   3.092   3.930   2.442
   75HECX    C2  479   3.137   3.936   2.580
   75HECX    C1  480   3.027   3.981   2.677
   75HECX    O1  481   3.075   3.993   2.813
   75HECX    H1  482   2.991   4.002   2.878
   76HECX    H6  483   4.192   6.387   4.870
   76HECX    O2  484   4.240   6.392   4.777
   76HECX    C2  485   4.321   0.012   4.771
   76HECX    C1  486   4.452   6.492   4.849
   76HECX    O1  487   4.551   0.096   4.832
   76HECX    H1  488   4.588   0.088   4.733
   77HECX    H6  489   0.828   1.984   5.420
   77HECX    O2  490   0.840   2.060   5.345
   77HECX    C2  491   0.937   2.158   5.388
   77HECX    C1  492   1.014   2.224   5.273
   77HECX    O1  493   0.936   2.304   5.181
   77HECX    H1  494   0.940   2.403   5.209
   78HECX    H6  495   5.444   3.891   2.873
   78HECX    O2  496   5.372   3.915   2.800
   78HECX    C2  497   5.428   4.016   2.714
   78HECX    C1  498   5.329   4.071   2.611
   78HECX    O1  499   5.389   4.170   2.525
   78HECX    H1  500   5.316   4.229   2.492
   79HECX    H6  501   1.205   2.427   4.642
   79HECX    O2  502   1.252   2.521   4.652
   79HECX    C2  503   1.154   2.624   4.628
   79HECX    C1  504   1.069   2.598   4.503
   79HECX    O1  505   0.982   2.707   4.464
   79HECX    H1  506   0.920   2.734   4.544
   80HECX    H6  507   5.622   1.726   6.406
   80HECX    O2  508   5.582   1.671   6.479
   80HECX    C2  509   5.454   1.730   0.013
   80HECX    C1  510   5.384   1.659   0.129
   80HECX    O1  511   5.257   1.721   0.161
   80HECX    H1  512   5.209   1.665   0.235
   81HECX    H6  513   4.466   5.084   6.131
   81HECX    O2  514   4.516   5.164   6.084
   81HECX    C2  515   4.525   5.272   6.179
   81HECX    C1  516   4.470   5.403   6.120
   81HECX    O1  517   4.474   5.514   6.212
   81HECX    H1  518   4.402   5.587   6.176
   82HECX    H6  519   3.140   3.036   6.429
   82HECX    O2  520   3.060   3.005   6.364
   82HECX    C2  521   3.112   3.019   6.230
   82HECX    C1  522   3.011   2.996   6.117
   82HECX    O1  523   2.906   3.095   6.112
   82HECX    H1  524   2.815   3.040   6.108
   83HECX    H6  525   0.110   3.486   4.230
   83HECX    O2  526   0.154   3.476   4.328
   83HECX    C2  527   0.075   3.556   4.418
   83HECX    C1  528   0.094   3.519   4.566
   83HECX    O1  529   0.014   3.596   4.658
   83HECX    H1  530   0.062   3.591   4.751
   84HECX    H6  531   1.986   3.509   4.620
   84HECX    O2  532   2.031   3.421   4.595
   84HECX    C2  533   2.055   3.422   4.453
   84HECX    C1  534   2.168   3.325   4.414
   84HECX    O1  535   2.179   3.306   4.271
   84HECX    H1  536   2.120   3.225   4.246
   85HECX    H6  537   0.970   6.246   1.978
   85HECX    O2  538   0.950   6.188   2.064
   85HECX    C2  539   0.813   6.142   2.056
   85HECX    C1  540   0.766   6.047   2.167
   85HECX    O1  541   0.827   5.916   2.164
   85HECX    H1  542   0.783   5.859   2.089
   86HECX    H6  543   0.010   4.371   4.714
   86HECX    O2  544   0.028   4.438   4.791
   86HECX    C2  545   0.106   4.370   4.892
   86HECX    C1  546   0.205   4.461   4.966
   86HECX    O1  547   0.279   4.389   5.068
   86HECX    H1  548   0.336   4.457   5.123
   87HECX    H6  549   1.485   1.208   2.925
   87HECX    O2  550   1.485   1.202   2.817
   87HECX    C2  551   1.350   1.167   2.776
   87HECX    C1  552   1.319   1.017   2.778
   87HECX    O1  553   1.181   0.994   2.745
   87HECX    H1  554   1.154   0.901   2.785
   88HECX    H6  555   1.899   6.121   4.067
   88HECX    O2  556   1.924   6.140   4.168
   88HECX    C2  557   2.066   6.159   4.178
   88HECX    C1  558   2.147   6.030   4.163
   88HECX    O1  559   2.289   6.051   4.174
   88HECX    H1  560   2.338   5.975   4.124
   89HECX    H6  561   1.718   4.220   4.258
   89HECX    O2  562   1.807   4.211   4.200
   89HECX    C2  563   1.791   4.100   4.109
   89HECX    C1  564   1.921   4.060   4.038
   89HECX    O1  565   1.898   3.953   3.944
   89HECX    H1  566   1.894   3.993   3.846
   90HECX    H6  567   2.048   4.714   1.092
   90HECX    O2  568   2.014   4.698   0.990
   90HECX    C2  569   2.134   4.664   0.916
   90HECX    C1  570   2.111   4.588   0.784
   90HECX    O1  571   2.219   4.496   0.755
   90HECX    H1  572   2.208   4.459   0.657
   91HECX    H6  573   3.031   3.054   4.507
   91HECX    O2  574   3.077   3.145   4.540
   91HECX    C2  575   3.201   3.166   4.470
   91HECX    C1  576   3.320   3.096   4.538
   91HECX    O1  577   3.447   3.129   4.478
   91HECX    H1  578   3.519   3.065   4.521
   92HECX    H6  579   0.626   5.676   0.246
   92HECX    O2  580   0.606   5.658   0.348
   92HECX    C2  581   0.526   5.768   0.398
   92HECX    C1  582   0.446   5.735   0.526
   92HECX    O1  583   0.317   5.676   0.502
   92HECX    H1  584   0.263   5.680   0.592
   93HECX    H6  585   5.507   4.579   1.088
   93HECX    O2  586   5.478   4.495   1.145
   93HECX    C2  587   5.596   4.417   1.174
   93HECX    C1  588   5.626   4.395   1.324
   93HECX    O1  589   5.675   4.512   1.393
   93HECX    H1  590   5.720   4.482   1.481
   94HECX    H6  591   0.169   2.978   3.083
   94HECX    O2  592   0.115   3.067   3.056
   94HECX    C2  593   0.208   3.176   3.040
   94HECX    C1  594   0.137   3.304   2.993
   94HECX    O1  595   0.221   3.421   3.006
   94HECX    H1  596   0.250   3.453   2.907
   95HECX    H6  597   5.420   3.044   3.407
   95HECX    O2  598   5.456   2.977   3.484
   95HECX    C2  599   5.435   3.044   3.611
   95HECX    C1  600   5.483   2.960   3.730
   95HECX    O1  601   5.437   3.004   3.859
   95HECX    H1  602   5.501   2.958   3.929
   96HECX    H6  603   2.152   0.891   2.985
   96HECX    O2  604   2.128   0.892   2.882
   96HECX    C2  605   2.130   0.755   2.835
   96HECX    C1  606   2.116   0.746   2.683
   96HECX    O1  607   2.109   0.610   2.636
   96HECX    H1  608   2.111   0.614   2.531
   97HECX    H6  609   1.928   0.803   5.670
   97HECX    O2  610   1.842   0.856   5.637
   97HECX    C2  611   1.730   0.767   5.657
   97HECX    C1  612   1.723   0.655   5.553
   97HECX    O1  613   1.617   0.563   5.581
   97HECX    H1  614   1.550   0.559   5.497
   98HECX    H6  615   0.037   2.882   3.396
   98HECX    O2  616   0.095   2.874   3.485
   98HECX    C2  617   0.119   3.008   3.535
   98HECX    C1  618   0.189   3.008   3.671
   98HECX    O1  619   0.169   3.130   3.746
   98HECX    H1  620   0.145   3.100   3.846
   99HECX    H6  621   5.601   5.832   2.974
   99HECX    O2  622   5.605   5.871   3.072
   99HECX    C2  623   5.589   5.762   3.165
   99HECX    C1  624   5.680   5.642   3.135
   99HECX    O1  625   5.673   5.540   3.236
   99HECX    H1  626   5.675   5.447   3.189
  100HECX    H6  627   1.389   4.754   0.740
  100HECX    O2  628   1.447   4.748   0.828
  100HECX    C2  629   1.567   4.826   0.812
  100HECX    C1  630   1.560   4.971   0.861
  100HECX    O1  631   1.688   5.037   0.847
  100HECX    H1  632   1.745   5.010   0.933
  101HECX    H6  633   3.616   2.390   2.247
  101HECX    O2  634   3.680   2.472   2.274
  101HECX    C2  635   3.780   2.421   2.364
  101HECX    C1  636   3.866   2.532   2.427
  101HECX    O1  637   3.951   2.484   2.533
  101HECX    H1  638   4.050   2.490   2.499
  102HECX    H6  639   4.213   3.552   3.360
  102HECX    O2  640   4.274   3.567   3.275
  102HECX    C2  641   4.270   3.706   3.239
  102HECX    C1  642   4.351   3.738   3.111
  102HECX    O1  643   4.318   3.867   3.054
  102HECX    H1  644   4.407   3.911   3.018
  103HECX    H6  645   2.434   0.123   3.388
  103HECX    O2  646   2.333   0.118   3.354
  103HECX    C2  647   2.265   0.239   3.396
  103HECX    C1  648   2.238   0.247   3.547
  103HECX    O1  649   2.197   0.379   3.588
  103HECX    H1  650   2.247   0.404   3.678
  104HECX    H6  651   4.944   2.896   2.421
  104HECX    O2  652   4.948   2.968   2.496
  104HECX    C2  653   5.032   2.918   2.602
  104HECX    C1  654   5.118   3.029   2.667
  104HECX    O1  655   5.191   2.986   2.784
  104HECX    H1  656   5.124   2.981   2.867
  105HECX    H6  657   5.883   1.200   6.176
  105HECX    O2  658   5.825   1.129   6.232
  105HECX    C2  659   5.879   1.121   6.366
  105HECX    C1  660   5.901   1.259   6.429
  105HECX    O1  661   5.950   1.258   0.065
  105HECX    H1  662   5.865   1.274   0.127
  106HECX    H6  663   5.997   2.513   0.296
  106HECX    O2  664   6.006   2.505   0.194
  106HECX    C2  665   6.026   2.367   0.160
  106HECX    C1  666   6.128   2.350   0.046
  106HECX    O1  667   6.192   2.221   0.044
  106HECX    H1  668   6.281   2.233   6.482
  107HECX    H6  669   3.418   4.369   2.947
  107HECX    O2  670   3.334   4.408   2.897
  107HECX    C2  671   3.353   4.390   2.755
  107HECX    C1  672   3.274   4.272   2.699
  107HECX    O1  673   3.266   4.272   2.555
  107HECX    H1  674   3.179   4.322   2.525
  108HECX    H6  675   0.946   2.500   0.233
  108HECX    O2  676   1.003   2.425   0.183
  108HECX    C2  677   0.945   2.407   0.052
  108HECX    C1  678   0.983   2.516   6.451
  108HECX    O1  679   1.106   2.491   6.379
  108HECX    H1  680   1.187   2.488   6.446
  109HECX    H6  681   4.736   0.252   0.467
  109HECX    O2  682   4.838   0.245   0.434
  109HECX    C2  683   4.851   0.131   0.346
  109HECX    C1  684   4.786   0.152   0.208
  109HECX    O1  685   4.825   0.050   0.114
  109HECX    H1  686   4.762   0.055   0.031
  110HECX    H6  687   4.766   1.038   6.332
  110HECX    O2  688   4.774   1.049   6.438
  110HECX    C2  689   4.790   1.188   6.469
  110HECX    C1  690   4.845   1.210   0.110
  110HECX    O1  691   4.878   1.349   0.136
  110HECX    H1  692   4.904   1.358   0.237
  111HECX    H6  693   0.503   4.704   3.498
  111HECX    O2  694   0.440   4.736   3.578
  111HECX    C2  695   0.426   4.879   3.574
  111HECX    C1  696   0.342   4.925   3.694
  111HECX    O1  697   0.330   5.067   3.710
  111HECX    H1  698   0.297   5.085   3.810
  112HECX    H6  699   1.410   3.765   4.876
  112HECX    O2  700   1.432   3.869   4.888
  112HECX    C2  701   1.570   3.892   4.848
  112HECX    C1  702   1.655   3.954   4.959
  112HECX    O1  703   1.784   3.999   4.912
  112HECX    H1  704   1.780   4.105   4.892
  113HECX    H6  705   4.722   0.041   2.012
  113HECX    O2  706   4.632   0.043   2.068
  113HECX    C2  707   4.645   6.451   2.179
  113HECX    C1  708   4.516   6.438   2.260
  113HECX    O1  709   4.526   6.350   2.375
  113HECX    H1  710   4.427   6.337   2.409
  114HECX    H6  711   3.956   0.020   0.507
  114HECX    O2  712   3.991   0.048   0.411
  114HECX    C2  713   4.011   6.427   0.334
  114HECX    C1  714   4.098   6.450   0.209
  114HECX    O1  715   4.127   6.329   0.138
  114HECX    H1  716   4.173   6.353   0.046
  115HECX    H6  717   0.387   2.324   5.495
  115HECX    O2  718   0.491   2.335   5.521
  115HECX    C2  719   0.569   2.272   5.417
  115HECX    C1  720   0.523   2.130   5.383
  115HECX    O1  721   0.602   2.067   5.280
  115HECX    H1  722   0.705   2.073   5.305
  116HECX    H6  723   1.781   4.833   0.078
  116HECX    O2  724   1.808   4.870   0.166
  116HECX    C2  725   1.951   4.888   0.167
  116HECX    C1  726   1.994   5.024   0.109
  116HECX    O1  727   2.137   5.044   0.113
  116HECX    H1  728   2.165   5.072   0.212
  117HECX    H6  729   5.982   3.545   2.401
  117HECX    O2  730   5.891   3.585   2.434
  117HECX    C2  731   5.920   3.693   2.526
  117HECX    C1  732   5.926   3.647   2.673
  117HECX    O1  733   5.807   3.675   2.751
  117HECX    H1  734   5.722   3.631   2.700
  118HECX    H6  735   6.437   5.246   2.831
  118HECX    O2  736   6.469   5.290   2.922
  118HECX    C2  737   6.426   5.428   2.925
  118HECX    C1  738   6.442   5.507   2.793
  118HECX    O1  739   6.338   5.480   2.697
  118HECX    H1  740   6.367   5.517   2.606
  119HECX    H6  741   0.134   4.701   0.068
  119HECX    O2  742   0.093   4.688   6.471
  119HECX    C2  743   0.146   4.567   6.413
  119HECX    C1  744   0.104   4.548   6.266
  119HECX    O1  745   0.158   4.431   6.201
  119HECX    H1  746   0.079   4.390   6.142
  120HECX    H6  747   0.738   4.042   0.680
  120HECX    O2  748   0.723   4.011   0.582
  120HECX    C2  749   0.847   3.955   0.537
  120HECX    C1  750   0.874   3.976   0.387
  120HECX    O1  751   0.974   3.883   0.341
  120HECX    H1  752   0.922   3.793   0.319
  121HECX    H6  753   1.024   0.882   3.592
  121HECX    O2  754   1.057   0.830   3.681
  121HECX    C2  755   0.942   0.798   3.761
  121HECX    C1  756   0.841   0.716   3.681
  121HECX    O1  757   0.719   0.684   3.752
  121HECX    H1  758   0.644   0.757   3.723
  122HECX    H6  759   2.273   1.670   0.224
  122HECX    O2  760   2.211   1.727   0.158
  122HECX    C2  761   2.074   1.685   0.174
  122HECX    C1  762   1.988   1.717   0.051
  122HECX    O1  763   1.847   1.720   0.081
  122HECX    H1  764   1.800   1.645   0.021
  123HECX    H6  765   4.589   2.437   4.182
  123HECX    O2  766   4.576   2.431   4.288
  123HECX    C2  767   4.706   2.414   4.348
  123HECX    C1  768   4.785   2.546   4.362
  123HECX    O1  769   4.898   2.531   4.450
  123HECX    H1  770   4.861   2.524   4.548
  124HECX    H6  771   0.936   2.237   0.575
  124HECX    O2  772   0.962   2.289   0.655
  124HECX    C2  773   1.063   2.384   0.616
  124HECX    C1  774   1.130   2.453   0.736
  124HECX    O1  775   1.236   2.545   0.696
  124HECX    H1  776   1.187   2.633   0.653
  125HECX    H6  777   0.850   0.507   5.439
  125HECX    O2  778   0.810   0.524   5.537
  125HECX    C2  779   0.667   0.540   5.527
  125HECX    C1  780   0.602   0.525   5.665
  125HECX    O1  781   0.458   0.531   5.663
  125HECX    H1  782   0.433   0.626   5.698
  126HECX    H6  783   2.872   0.219   3.146
  126HECX    O2  784   2.913   0.307   3.190
  126HECX    C2  785   2.914   0.293   3.333
  126HECX    C1  786   3.041   0.229   3.392
  126HECX    O1  787   3.058   0.092   3.350
  126HECX    H1  788   3.160   0.077   3.318
  127HECX    H6  789   3.659   0.119   5.679
  127HECX    O2  790   3.606   0.039   5.637
  127HECX    C2  791   3.466   0.056   5.668
  127HECX    C1  792   3.375   0.038   5.544
  127HECX    O1  793   3.233   0.037   5.571
  127HECX    H1  794   3.207   6.448   5.614
  128HECX    H6  795   3.423   1.869   3.249
  128HECX    O2  796   3.364   1.959   3.253
  128HECX    C2  797   3.240   1.924   3.318
  128HECX    C1  798   3.247   1.929   3.470
  128HECX    O1  799   3.137   1.857   3.532
  128HECX    H1  800   3.131   1.888   3.632
  129HECX    H6  801   6.245   3.217   2.181
  129HECX    O2  802   6.159   3.250   2.218
  129HECX    C2  803   6.051   3.187   2.146
  129HECX    C1  804   5.921   3.182   2.227
  129HECX    O1  805   5.808   3.141   2.148
  129HECX    H1  806   5.771   3.225   2.095
  130HECX    H6  807   0.468   2.590   4.130
  130HECX    O2  808   0.547   2.591   4.062
  130HECX    C2  809   0.557   2.724   4.006
  130HECX    C1  810   0.481   2.744   3.874
  130HECX    O1  811   0.531   2.664   3.765
  130HECX    H1  812   0.618   2.708   3.726
  131HECX    H6  813   5.241   5.893   4.424
  131HECX    O2  814   5.260   5.792   4.404
  131HECX    C2  815   5.149   5.739   4.328
  131HECX    C1  816   5.030   5.696   4.415
  131HECX    O1  817   4.912   5.666   4.336
  131HECX    H1  818   4.914   5.562   4.313
  132HECX    H6  819   6.427   0.246   1.236
  132HECX    O2  820   6.454   0.157   1.291
  132HECX    C2  821   6.448   0.046   1.199
  132HECX    C1  822   0.042   6.430   1.233
  132HECX    O1  823   0.032   6.322   1.138
  132HECX    H1  824   0.123   6.311   1.089
  133HECX    H6  825   5.045   0.020   1.517
  133HECX    O2  826   5.107   6.450   1.565
  133HECX    C2  827   5.084   6.323   1.501
  133HECX    C1  828   5.214   6.253   1.461
  133HECX    O1  829   5.194   6.137   1.378
  133HECX    H1  830   5.284   6.082   1.379
  134HECX    H6  831   5.672   3.736   2.091
  134HECX    O2  832   5.752   3.788   2.043
  134HECX    C2  833   5.868   3.781   2.129
  134HECX    C1  834   5.955   3.660   2.096
  134HECX    O1  835   6.084   3.665   2.160
  134HECX    H1  836   6.140   3.740   2.111
  135HECX    H6  837   5.941   3.806   1.137
  135HECX    O2  838   5.938   3.827   1.031
  135HECX    C2  839   5.866   3.952   1.019
  135HECX    C1  840   5.821   3.989   0.877
  135HECX    O1  841   5.775   4.126   0.871
  135HECX    H1  842   5.739   4.147   0.776
  136HECX    H6  843   1.673   5.159   4.349
  136HECX    O2  844   1.764   5.211   4.353
  136HECX    C2  845   1.853   5.157   4.254
  136HECX    C1  846   1.917   5.023   4.291
  136HECX    O1  847   2.009   4.977   4.190
  136HECX    H1  848   2.086   5.046   4.181
  137HECX    H6  849   3.866   2.406   0.833
  137HECX    O2  850   3.962   2.442   0.846
  137HECX    C2  851   4.056   2.333   0.856
  137HECX    C1  852   4.186   2.378   0.925
  137HECX    O1  853   4.291   2.278   0.925
  137HECX    H1  854   4.361   2.306   0.851
  138HECX    H6  855   4.666   3.806   5.547
  138HECX    O2  856   4.583   3.742   5.526
  138HECX    C2  857   4.572   3.648   5.636
  138HECX    C1  858   4.447   3.559   5.630
  138HECX    O1  859   4.442   3.465   5.739
  138HECX    H1  860   4.364   3.397   5.718
  139HECX    H6  861   4.642   2.181   3.485
  139HECX    O2  862   4.548   2.184   3.538
  139HECX    C2  863   4.578   2.231   3.672
  139HECX    C1  864   4.513   2.147   3.783
  139HECX    O1  865   4.505   2.220   3.907
  139HECX    H1  866   4.413   2.274   3.905
  140HECX    H6  867   4.910   6.494   5.600
  140HECX    O2  868   4.952   6.482   5.698
  140HECX    C2  869   4.952   0.113   5.760
  140HECX    C1  870   5.093   0.148   5.808
  140HECX    O1  871   5.104   0.274   5.877
  140HECX    H1  872   5.210   0.289   5.891
  141HECX    H6  873   5.420   4.505   4.592
  141HECX    O2  874   5.501   4.568   4.617
  141HECX    C2  875   5.451   4.680   4.693
  141HECX    C1  876   5.451   4.808   4.608
  141HECX    O1  877   5.375   4.917   4.663
  141HECX    H1  878   5.434   4.963   4.742
  142HECX    H6  879   4.064   0.190   4.088
  142HECX    O2  880   3.976   0.132   4.095
  142HECX    C2  881   3.945   0.113   4.235
  142HECX    C1  882   4.066   0.065   4.315
  142HECX    O1  883   4.047   0.064   4.458
  142HECX    H1  884   4.008   6.472   4.490
  143HECX    H6  885   4.544   5.354   1.584
  143HECX    O2  886   4.439   5.357   1.565
  143HECX    C2  887   4.391   5.489   1.600
  143HECX    C1  888   4.404   5.593   1.488
  143HECX    O1  889   4.357   5.724   1.527
  143HECX    H1  890   4.420   5.760   1.602
  144HECX    H6  891   4.737   4.182   1.126
  144HECX    O2  892   4.749   4.163   1.228
  144HECX    C2  893   4.662   4.055   1.268
  144HECX    C1  894   4.667   4.030   1.420
  144HECX    O1  895   4.604   3.906   1.461
  144HECX    H1  896   4.596   3.905   1.566
  145HECX    H6  897   0.818   3.067   4.239
  145HECX    O2  898   0.878   3.113   4.312
  145HECX    C2  899   0.999   3.034   4.320
  145HECX    C1  900   1.086   3.065   4.443
  145HECX    O1  901   1.145   3.197   4.441
  145HECX    H1  902   1.132   3.237   4.537
  146HECX    H6  903   1.305   4.584   5.746
  146HECX    O2  904   1.281   4.591   5.850
  146HECX    C2  905   1.328   4.472   5.917
  146HECX    C1  906   1.223   4.411   6.012
  146HECX    O1  907   1.256   4.277   6.056
  146HECX    H1  908   1.165   4.234   6.096
  147HECX    H6  909   4.087   4.415   1.919
  147HECX    O2  910   4.005   4.363   1.963
  147HECX    C2  911   3.888   4.444   1.944
  147HECX    C1  912   3.768   4.414   2.036
  147HECX    O1  913   3.667   4.517   2.023
  147HECX    H1  914   3.585   4.496   2.084
  148HECX    H6  915   2.835   2.578   1.019
  148HECX    O2  916   2.912   2.636   0.986
  148HECX    C2  917   2.941   2.733   1.088
  148HECX    C1  918   3.039   2.841   1.042
  148HECX    O1  919   3.083   2.930   1.148
  148HECX    H1  920   3.080   3.028   1.105
  149HECX    H6  921   3.474   2.986   1.627
  149HECX    O2  922   3.374   2.949   1.637
  149HECX    C2  923   3.289   3.023   1.547
  149HECX    C1  924   3.180   2.939   1.478
  149HECX    O1  925   3.093   3.018   1.395
  149HECX    H1  926   3.087   2.973   1.301
  150HECX    H6  927   1.556   5.503   4.484
  150HECX    O2  928   1.506   5.552   4.567
  150HECX    C2  929   1.367   5.567   4.532
  150HECX    C1  930   1.345   5.676   4.427
  150HECX    O1  931   1.208   5.685   4.380
  150HECX    H1  932   1.205   5.751   4.301
  151HECX    H6  933   2.388   0.470   3.069
  151HECX    O2  934   2.381   0.512   3.166
  151HECX    C2  935   2.512   0.508   3.226
  151HECX    C1  936   2.513   0.575   3.364
  151HECX    O1  937   2.638   0.560   3.437
  151HECX    H1  938   2.643   0.464   3.478
  152HECX    H6  939   0.657   4.730   4.224
  152HECX    O2  940   0.570   4.670   4.235
  152HECX    C2  941   0.460   4.759   4.264
  152HECX    C1  942   0.325   4.687   4.270
  152HECX    O1  943   0.215   4.777   4.298
  152HECX    H1  944   0.213   4.794   4.400
  153HECX    H6  945   2.684   4.129   2.363
  153HECX    O2  946   2.701   4.087   2.458
  153HECX    C2  947   2.627   4.161   2.556
  153HECX    C1  948   2.707   4.281   2.610
  153HECX    O1  949   2.633   4.363   2.704
  153HECX    H1  950   2.574   4.431   2.647
  154HECX    H6  951   0.071   5.217   2.988
  154HECX    O2  952   0.148   5.158   3.033
  154HECX    C2  953   0.240   5.124   2.927
  154HECX    C1  954   0.332   5.006   2.961
  154HECX    O1  955   0.455   5.012   2.885
  154HECX    H1  956   0.480   5.113   2.873
  155HECX    H6  957   1.480   0.650   3.909
  155HECX    O2  958   1.396   0.711   3.881
  155HECX    C2  959   1.406   0.837   3.950
  155HECX    C1  960   1.300   0.939   3.906
  155HECX    O1  961   1.304   1.063   3.980
  155HECX    H1  962   1.354   1.134   3.918
  156HECX    H6  963   2.656   5.489   6.341
  156HECX    O2  964   2.710   5.522   6.257
  156HECX    C2  965   2.704   5.424   6.151
  156HECX    C1  966   2.714   5.494   6.014
  156HECX    O1  967   2.722   5.407   5.899
  156HECX    H1  968   2.629   5.385   5.866
  157HECX    H6  969   2.858   3.823   5.929
  157HECX    O2  970   2.813   3.914   5.957
  157HECX    C2  971   2.775   3.908   6.096
  157HECX    C1  972   2.643   3.981   6.128
  157HECX    O1  973   2.526   3.911   6.082
  157HECX    H1  974   2.443   3.974   6.088
  158HECX    H6  975   0.631   5.499   5.924
  158HECX    O2  976   0.661   5.445   5.839
  158HECX    C2  977   0.567   5.335   5.821
  158HECX    C1  978   0.541   5.299   5.674
  158HECX    O1  979   0.458   5.182   5.662
  158HECX    H1  980   0.380   5.201   5.595
  159HECX    H6  981   4.364   0.905   0.809
  159HECX    O2  982   4.417   1.000   0.807
  159HECX    C2  983   4.346   1.088   0.717
  159HECX    C1  984   4.350   1.040   0.572
  159HECX    O1  985   4.287   1.134   0.483
  159HECX    H1  986   4.361   1.174   0.418
  160HECX    H6  987   1.725   2.785   1.164
  160HECX    O2  988   1.814   2.732   1.184
  160HECX    C2  989   1.835   2.634   1.080
  160HECX    C1  990   1.707   2.560   1.039
  160HECX    O1  991   1.720   2.475   0.922
  160HECX    H1  992   1.779   2.527   0.851
  161HECX    H6  993   5.826   1.953   6.209
  161HECX    O2  994   5.813   1.869   6.272
  161HECX    C2  995   5.850   1.912   6.405
  161HECX    C1  996   5.901   1.801   6.499
  161HECX    O1  997   5.962   1.860   0.116
  161HECX    H1  998   6.014   1.785   0.173
  162HECX    H6  999   2.948   2.916   6.402
  162HECX    O2 1000   2.865   2.861   6.436
  162HECX    C2 1001   2.862   2.869   0.080
  162HECX    C1 1002   2.850   2.733   0.150
  162HECX    O1 1003   2.857   2.748   0.293
  162HECX    H1 1004   2.871   2.652   0.339
  163HECX    H6 1005   1.948   3.046   4.121
  163HECX    O2 1006   1.865   3.011   4.068
  163HECX    C2 1007   1.907   2.979   3.934
  163HECX    C1 1008   1.795   2.914   3.851
  163HECX    O1 1009   1.842   2.864   3.725
  163HECX    H1 1010   1.755   2.834   3.667
  164HECX    H6 1011   5.976   6.034   0.515
  164HECX    O2 1012   6.022   5.963   0.450
  164HECX    C2 1013   6.039   6.029   0.323
  164HECX    C1 1014   5.930   5.996   0.220
  164HECX    O1 1015   5.930   6.086   0.107
  164HECX    H1 1016   6.027   6.098   0.069
  165HECX    H6 1017   0.380   3.246   4.615
  165HECX    O2 1018   0.340   3.146   4.631
  165HECX    C2 1019   0.211   3.140   4.566
  165HECX    C1 1020   0.105   3.067   4.648
  165HECX    O1 1021   6.487   3.036   4.571
  165HECX    H1 1022   6.423   3.123   4.571
  166HECX    H6 1023   5.797   2.306   5.893
  166HECX    O2 1024   5.897   2.303   5.902
  166HECX    C2 1025   5.951   2.274   5.772
  166HECX    C1 1026   6.085   2.198   5.778
  166HECX    O1 1027   6.133   2.154   5.649
  166HECX    H1 1028   6.074   2.076   5.614
  167HECX    H6 1029   6.436   2.404   3.890
  167HECX    O2 1030   6.468   2.426   3.988
  167HECX    C2 1031   6.434   2.313   4.071
  167HECX    C1 1032   0.023   2.301   4.195
  167HECX    O1 1033   0.006   2.176   4.265
  167HECX    H1 1034   6.418   2.181   4.325
  168HECX    H6 1035   0.817   3.017   6.162
  168HECX    O2 1036   0.837   3.034   6.265
  168HECX    C2 1037   0.716   3.005   6.339
  168HECX    C1 1038   0.706   3.084   6.470
  168HECX    O1 1039   0.599   3.041   0.057
  168HECX    H1 1040   0.530   3.118   0.069
  169HECX    H6 1041   1.214   3.986   3.443
  169HECX    O2 1042   1.248   3.895   3.403
  169HECX    C2 1043   1.390   3.908   3.383
  169HECX    C1 1044   1.469   3.824   3.484
  169HECX    O1 1045   1.595   3.884   3.519
  169HECX    H1 1046   1.587   3.912   3.623
  170HECX    H6 1047   3.953   1.763   1.020
  170HECX    O2 1048   3.886   1.824   1.075
  170HECX    C2 1049   3.883   1.775   1.210
  170HECX    C1 1050   3.749   1.803   1.281
  170HECX    O1 1051   3.738   1.737   1.409
  170HECX    H1 1052   3.752   1.808   1.488
  171HECX    H6 1053   0.207   4.312   4.184
  171HECX    O2 1054   0.263   4.254   4.114
  171HECX    C2 1055   0.238   4.115   4.139
  171HECX    C1 1056   0.321   4.021   4.052
  171HECX    O1 1057   0.286   3.882   4.071
  171HECX    H1 1058   0.309   3.856   4.172
  172HECX    H6 1059   4.923   1.880   2.202
  172HECX    O2 1060   4.946   1.981   2.205
  172HECX    C2 1061   5.000   2.017   2.076
  172HECX    C1 1062   5.152   1.999   2.060
  172HECX    O1 1063   5.192   2.005   1.921
  172HECX    H1 1064   5.167   1.912   1.878
  173HECX    H6 1065   5.210   4.775   0.165
  173HECX    O2 1066   5.263   4.856   0.121
  173HECX    C2 1067   5.177   4.972   0.120
  173HECX    C1 1068   5.066   4.959   0.015
  173HECX    O1 1069   4.978   5.073   0.012
  173HECX    H1 1070   5.019   5.148   6.445
  174HECX    H6 1071   3.873   4.781   3.797
  174HECX    O2 1072   3.898   4.679   3.788
  174HECX    C2 1073   3.997   4.650   3.888
  174HECX    C1 1074   4.069   4.516   3.868
  174HECX    O1 1075   4.154   4.485   3.980
  174HECX    H1 1076   4.243   4.540   3.973
  175HECX    H6 1077   5.624   6.243   2.615
  175HECX    O2 1078   5.587   6.145   2.627
  175HECX    C2 1079   5.684   6.053   2.574
  175HECX    C1 1080   5.671   6.039   2.422
  175HECX    O1 1081   5.775   5.958   2.362
  175HECX    H1 1082   5.740   5.923   2.271
  176HECX    H6 1083   1.092   0.082   5.285
  176HECX    O2 1084   1.102   0.175   5.228
  176HECX    C2 1085   1.053   0.280   5.313
  176HECX    C1 1086   0.980   0.388   5.232
  176HECX    O1 1087   0.897   0.475   5.311
  176HECX    H1 1088   0.821   0.514   5.246
  177HECX    H6 1089   6.278   6.348   5.148
  177HECX    O2 1090   6.218   6.433   5.144
  177HECX    C2 1091   6.143   6.444   5.267
  177HECX    C1 1092   6.062   6.317   5.300
  177HECX    O1 1093   5.993   6.323   5.427
  177HECX    H1 1094   5.970   6.224   5.456
  178HECX    H6 1095   2.030   5.010   4.659
  178HECX    O2 1096   2.130   4.974   4.657
  178HECX    C2 1097   2.204   5.035   4.548
  178HECX    C1 1098   2.279   4.930   4.466
  178HECX    O1 1099   2.405   4.976   4.414
  178HECX    H1 1100   2.463   4.890   4.389
  179HECX    H6 1101   4.222   5.768   1.521
  179HECX    O2 1102   4.120   5.793   1.535
  179HECX    C2 1103   4.069   5.860   1.418
  179HECX    C1 1104   3.916   5.851   1.410
  179HECX    O1 1105   3.858   5.912   1.292
  179HECX    H1 1106   3.834   5.838   1.224
  180HECX    H6 1107   4.930   4.830   3.210
  180HECX    O2 1108   4.829   4.859   3.216
  180HECX    C2 1109   4.824   4.982   3.292
  180HECX    C1 1110   4.820   4.963   3.443
  180HECX    O1 1111   4.823   5.088   3.514
  180HECX    H1 1112   4.843   5.067   3.615
  181HECX    H6 1113   1.982   2.426   1.320
  181HECX    O2 1114   1.883   2.399   1.325
  181HECX    C2 1115   1.878   2.256   1.310
  181HECX    C1 1116   1.814   2.191   1.433
  181HECX    O1 1117   1.803   2.048   1.422
  181HECX    H1 1118   1.702   2.022   1.446
  182HECX    H6 1119   2.663   4.913   2.430
  182HECX    O2 1120   2.698   4.831   2.376
  182HECX    C2 1121   2.842   4.827   2.382
  182HECX    C1 1122   2.898   4.745   2.265
  182HECX    O1 1123   3.039   4.717   2.269
  182HECX    H1 1124   3.094   4.805   2.256
  183HECX    H6 1125   3.168   5.648   4.815
  183HECX    O2 1126   3.073   5.677   4.837
  183HECX    C2 1127   3.049   5.652   4.978
  183HECX    C1 1128   2.914   5.584   5.005
  183HECX    O1 1129   2.888   5.551   5.143
  183HECX    H1 1130   2.863   5.638   5.198
  184HECX    H6 1131   1.907   3.221   4.783
  184HECX    O2 1132   1.943   3.150   4.715
  184HECX    C2 1133   1.831   3.089   4.648
  184HECX    C1 1134   1.790   3.167   4.522
  184HECX    O1 1135   1.690   3.099   4.444
  184HECX    H1 1136   1.598   3.105   4.495
  185HECX    H6 1137   4.288   5.736   3.731
  185HECX    O2 1138   4.272   5.745   3.833
  185HECX    C2 1139   4.357   5.650   3.901
  185HECX    C1 1140   4.335   5.652   4.053
  185HECX    O1 1141   4.414   5.554   4.122
  185HECX    H1 1142   4.445   5.596   4.207
  186HECX    H6 1143   2.003   5.153   0.691
  186HECX    O2 1144   2.079   5.226   0.680
  186HECX    C2 1145   2.177   5.179   0.585
  186HECX    C1 1146   2.115   5.152   0.447
  186HECX    O1 1147   2.211   5.116   0.345
  186HECX    H1 1148   2.270   5.205   0.324
  187HECX    H6 1149   1.479   1.345   5.667
  187HECX    O2 1150   1.551   1.384   5.734
  187HECX    C2 1151   1.481   1.423   5.853
  187HECX    C1 1152   1.520   1.336   5.972
  187HECX    O1 1153   1.454   1.371   6.096
  187HECX    H1 1154   1.448   1.479   6.101
  188HECX    H6 1155   3.186   2.135   5.852
  188HECX    O2 1156   3.228   2.080   5.770
  188HECX    C2 1157   3.288   2.174   5.678
  188HECX    C1 1158   3.333   2.108   5.547
  188HECX    O1 1159   3.409   2.197   5.462
  188HECX    H1 1160   3.508   2.210   5.505
  189HECX    H6 1161   1.719   1.106   4.177
  189HECX    O2 1162   1.640   1.068   4.224
  189HECX    C2 1163   1.684   0.960   4.308
  189HECX    C1 1164   1.669   0.823   4.242
  189HECX    O1 1165   1.673   0.718   4.341
  189HECX    H1 1166   1.664   0.630   4.294
  190HECX    H6 1167   4.466   3.655   3.730
  190HECX    O2 1168   4.469   3.555   3.708
  190HECX    C2 1169   4.603   3.516   3.671
  190HECX    C1 1170   4.689   3.481   3.794
  190HECX    O1 1171   4.816   3.422   3.760
  190HECX    H1 1172   4.812   3.321   3.786
  191HECX    H6 1173   6.144   2.392   3.204
  191HECX    O2 1174   6.155   2.482   3.151
  191HECX    C2 1175   6.296   2.505   3.132
  191HECX    C1 1176   6.327   2.641   3.067
  191HECX    O1 1177   6.459   2.689   3.101
  191HECX    H1 1178   0.031   2.641   3.045
  192HECX    H6 1179   1.673   2.220   5.223
  192HECX    O2 1180   1.606   2.192   5.300
  192HECX    C2 1181   1.646   2.260   5.420
  192HECX    C1 1182   1.777   2.208   5.480
  192HECX    O1 1183   1.826   2.298   5.582
  192HECX    H1 1184   1.781   2.270   5.673
  193HECX    H6 1185   0.957   2.751   1.059
  193HECX    O2 1186   0.991   2.791   0.968
  193HECX    C2 1187   0.895   2.764   0.864
  193HECX    C1 1188   0.773   2.857   0.870
  193HECX    O1 1189   0.672   2.826   0.770
  193HECX    H1 1190   0.602   2.905   0.768
  194HECX    H6 1191   2.436   3.177   0.197
  194HECX    O2 1192   2.533   3.131   0.214
  194HECX    C2 1193   2.588   3.181   0.337
  194HECX    C1 1194   2.739   3.162   0.350
  194HECX    O1 1195   2.799   3.248   0.449
  194HECX    H1 1196   2.785   3.351   0.418
  195HECX    H6 1197   1.612   1.957   1.934
  195HECX    O2 1198   1.664   2.050   1.916
  195HECX    C2 1199   1.686   2.113   2.044
  195HECX    C1 1200   1.577   2.211   2.087
  195HECX    O1 1201   1.621   2.286   2.202
  195HECX    H1 1202   1.692   2.354   2.167
  196HECX    H6 1203   4.232   5.453   6.397
  196HECX    O2 1204   4.144   5.415   6.357
  196HECX    C2 1205   4.153   5.273   6.339
  196HECX    C1 1206   4.112   5.228   6.197
  196HECX    O1 1207   4.123   5.085   6.181
  196HECX    H1 1208   4.123   5.060   6.079
  197HECX    H6 1209   4.986   3.847   4.755
  197HECX    O2 1210   4.994   3.750   4.792
  197HECX    C2 1211   5.035   3.760   4.930
  197HECX    C1 1212   5.100   3.630   4.978
  197HECX    O1 1213   5.090   3.615   5.120
  197HECX    H1 1214   5.099   3.513   5.143
  198HECX    H6 1215   4.604   4.907   5.146
  198HECX    O2 1216   4.697   4.881   5.104
  198HECX    C2 1217   4.800   4.946   5.182
  198HECX    C1 1218   4.944   4.908   5.143
  198HECX    O1 1219   4.978   4.769   5.167
  198HECX    H1 1220   5.053   4.743   5.098
  199HECX    H6 1221   5.324   3.220   5.741
  199HECX    O2 1222   5.382   3.297   5.769
  199HECX    C2 1223   5.322   3.355   5.887
  199HECX    C1 1224   5.399   3.474   5.946
  199HECX    O1 1225   5.342   3.523   6.069
  199HECX    H1 1226   5.293   3.614   6.051
  200HECX    H6 1227   1.316   6.401   4.007
  200HECX    O2 1228   1.301   0.005   3.992
  200HECX    C2 1229   1.396   0.047   3.891
  200HECX    C1 1230   1.389   0.196   3.860
  200HECX    O1 1231   1.470   0.229   3.746
  200HECX    H1 1232   1.439   0.324   3.713
  201HECX    H6 1233   0.977   4.982   4.960
  201HECX    O2 1234   0.879   5.022   4.980
  201HECX    C2 1235   0.893   5.166   4.978
  201HECX    C1 1236   0.822   5.232   5.097
  201HECX    O1 1237   0.845   5.374   5.109
  201HECX    H1 1238   0.787   5.405   5.191
  202HECX    H6 1239   0.515   1.327   5.275
  202HECX    O2 1240   0.586   1.352   5.355
  202HECX    C2 1241   0.566   1.491   5.389
  202HECX    C1 1242   0.433   1.518   5.462
  202HECX    O1 1243   0.315   1.525   5.379
  202HECX    H1 1244   0.240   1.472   5.432
  203HECX    H6 1245   5.918   2.008   1.910
  203HECX    O2 1246   5.864   1.921   1.940
  203HECX    C2 1247   5.947   1.840   2.026
  203HECX    C1 1248   5.995   1.915   2.151
  203HECX    O1 1249   6.032   1.827   2.258
  203HECX    H1 1250   5.984   1.860   2.346
  204HECX    H6 1251   3.949   3.306   3.964
  204HECX    O2 1252   3.937   3.381   4.040
  204HECX    C2 1253   3.887   3.311   4.157
  204HECX    C1 1254   3.999   3.274   4.255
  204HECX    O1 1255   3.965   3.161   4.337
  204HECX    H1 1256   4.038   3.153   4.411
  205HECX    H6 1257   6.270   4.585   2.875
  205HECX    O2 1258   6.183   4.616   2.822
  205HECX    C2 1259   6.214   4.624   2.682
  205HECX    C1 1260   6.088   4.626   2.594
  205HECX    O1 1261   6.116   4.614   2.453
  205HECX    H1 1262   6.059   4.685   2.406
  206HECX    H6 1263   4.981   1.675   2.293
  206HECX    O2 1264   5.044   1.636   2.367
  206HECX    C2 1265   5.163   1.718   2.372
  206HECX    C1 1266   5.256   1.678   2.487
  206HECX    O1 1267   5.369   1.765   2.506
  206HECX    H1 1268   5.443   1.712   2.557
  207HECX    H6 1269   2.708   0.745   6.219
  207HECX    O2 1270   2.763   0.788   6.299
  207HECX    C2 1271   2.803   0.922   6.264
  207HECX    C1 1272   2.692   1.028   6.261
  207HECX    O1 1273   2.744   1.159   6.226
  207HECX    H1 1274   2.752   1.214   6.317
  208HECX    H6 1275   2.019   4.275   1.371
  208HECX    O2 1276   1.916   4.262   1.386
  208HECX    C2 1277   1.855   4.393   1.388
  208HECX    C1 1278   1.709   4.390   1.437
  208HECX    O1 1279   1.650   4.522   1.445
  208HECX    H1 1280   1.660   4.568   1.348
  209HECX    H6 1281   2.611   2.231   3.349
  209HECX    O2 1282   2.635   2.333   3.347
  209HECX    C2 1283   2.518   2.407   3.388
  209HECX    C1 1284   2.481   2.384   3.535
  209HECX    O1 1285   2.364   2.458   3.573
  209HECX    H1 1286   2.338   2.430   3.673
  210HECX    H6 1287   1.249   0.039   2.404
  210HECX    O2 1288   1.197   0.014   2.490
  210HECX    C2 1289   1.197   0.129   2.578
  210HECX    C1 1290   1.080   0.222   2.547
  210HECX    O1 1291   1.061   0.333   2.637
  210HECX    H1 1292   0.987   0.394   2.595
  211HECX    H6 1293   2.157   2.429   4.872
  211HECX    O2 1294   2.108   2.345   4.916
  211HECX    C2 1295   2.193   2.231   4.889
  211HECX    C1 1296   2.122   2.095   4.893
  211HECX    O1 1297   2.204   1.989   4.838
  211HECX    H1 1298   2.141   1.926   4.779
  212HECX    H6 1299   0.140   0.928   6.357
  212HECX    O2 1300   0.215   0.996   6.326
  212HECX    C2 1301   0.341   0.943   6.371
  212HECX    C1 1302   0.462   1.023   6.323
  212HECX    O1 1303   0.586   0.979   6.384
  212HECX    H1 1304   0.659   1.025   6.335
  213HECX    H6 1305   1.708   3.284   5.264
  213HECX    O2 1306   1.711   3.203   5.199
  213HECX    C2 1307   1.815   3.113   5.241
  213HECX    C1 1308   1.879   3.035   5.125
  213HECX    O1 1309   1.977   2.936   5.165
  213HECX    H1 1310   2.051   2.982   5.226
  214HECX    H6 1311   6.044   2.682   4.104
  214HECX    O2 1312   6.040   2.758   4.030
  214HECX    C2 1313   6.175   2.787   3.989
  214HECX    C1 1314   6.176   2.871   3.860
  214HECX    O1 1315   6.302   2.932   3.825
  214HECX    H1 1316   6.284   2.999   3.742
  215HECX    H6 1317   5.278   3.190   1.305
  215HECX    O2 1318   5.357   3.143   1.257
  215HECX    C2 1319   5.329   3.130   1.116
  215HECX    C1 1320   5.378   2.999   1.054
  215HECX    O1 1321   5.350   2.993   0.912
  215HECX    H1 1322   5.371   2.896   0.876
  216HECX    H6 1323   3.453   4.846   4.584
  216HECX    O2 1324   3.390   4.929   4.556
  216HECX    C2 1325   3.377   4.923   4.412
  216HECX    C1 1326   3.252   4.990   4.354
  216HECX    O1 1327   3.274   5.032   4.217
  216HECX    H1 1328   3.307   5.133   4.218
  217HECX    H6 1329   0.087   6.122   0.223
  217HECX    O2 1330   0.029   6.038   0.251
  217HECX    C2 1331   0.002   5.958   0.134
  217HECX    C1 1332   0.129   5.890   0.081
  217HECX    O1 1333   0.102   5.812   6.462
  217HECX    H1 1334   0.080   5.711   6.496
  218HECX    H6 1335   0.030   5.977   5.746
  218HECX    O2 1336   0.014   5.990   5.849
  218HECX    C2 1337   0.120   5.927   5.921
  218HECX    C1 1338   0.076   5.810   6.011
  218HECX    O1 1339   0.188   5.723   6.040
  218HECX    H1 1340   0.210   5.724   6.143
  219HECX    H6 1341   4.605   2.418   5.226
  219HECX    O2 1342   4.709   2.434   5.229
  219HECX    C2 1343   4.767   2.307   5.268
  219HECX    C1 1344   4.910   2.311   5.325
  219HECX    O1 1345   4.959   2.176   5.346
  219HECX    H1 1346   5.041   2.177   5.412
  220HECX    H6 1347   4.211   3.890   2.974
  220HECX    O2 1348   4.135   3.900   2.897
  220HECX    C2 1349   4.035   3.995   2.942
  220HECX    C1 1350   4.063   4.137   2.892
  220HECX    O1 1351   3.972   4.238   2.939
  220HECX    H1 1352   3.991   4.323   2.882
  221HECX    H6 1353   2.374   0.013   3.063
  221HECX    O2 1354   2.467   6.484   3.027
  221HECX    C2 1355   2.571   0.068   3.082
  221HECX    C1 1356   2.705   0.050   3.009
  221HECX    O1 1357   2.821   0.104   3.078
  221HECX    H1 1358   2.854   0.025   3.147
  222HECX    H6 1359   2.448   3.337   2.106
  222HECX    O2 1360   2.535   3.301   2.155
  222HECX    C2 1361   2.624   3.251   2.054
  222HECX    C1 1362   2.626   3.098   2.051
  222HECX    O1 1363   2.659   3.040   1.922
  222HECX    H1 1364   2.595   3.084   1.846
  223HECX    H6 1365   4.341   6.124   5.922
  223HECX    O2 1366   4.445   6.108   5.942
  223HECX    C2 1367   4.517   6.217   5.881
  223HECX    C1 1368   4.600   6.300   5.980
  223HECX    O1 1369   4.669   6.410   5.917
  223HECX    H1 1370   4.763   6.423   5.967
  224HECX    H6 1371   6.086   2.849   1.800
  224HECX    O2 1372   6.054   2.924   1.731
  224HECX    C2 1373   6.125   3.046   1.760
  224HECX    C1 1374   6.278   3.030   1.762
  224HECX    O1 1375   6.349   3.148   1.806
  224HECX    H1 1376   6.387   3.197   1.721
  225HECX    H6 1377   1.588   5.746   4.769
  225HECX    O2 1378   1.506   5.793   4.809
  225HECX    C2 1379   1.476   5.732   4.937
  225HECX    C1 1380   1.338   5.665   4.938
  225HECX    O1 1381   1.297   5.618   5.068
  225HECX    H1 1382   1.197   5.587   5.059
  226HECX    H6 1383   4.641   0.465   3.377
  226HECX    O2 1384   4.711   0.480   3.306
  226HECX    C2 1385   4.653   0.453   3.178
  226HECX    C1 1386   4.736   0.508   3.061
  226HECX    O1 1387   4.672   0.486   2.933
  226HECX    H1 1388   4.708   0.395   2.893
  227HECX    H6 1389   1.817   4.388   0.619
  227HECX    O2 1390   1.722   4.401   0.664
  227HECX    C2 1391   1.729   4.516   0.752
  227HECX    C1 1392   1.770   4.486   0.897
  227HECX    O1 1393   1.783   4.604   0.980
  227HECX    H1 1394   1.883   4.640   0.976
  228HECX    H6 1395   2.762   0.263   1.619
  228HECX    O2 1396   2.706   0.340   1.577
  228HECX    C2 1397   2.577   0.344   1.640
  228HECX    C1 1398   2.576   0.418   1.775
  228HECX    O1 1399   2.444   0.463   1.811
  228HECX    H1 1400   2.439   0.565   1.786
  229HECX    H6 1401   4.387   6.090   4.374
  229HECX    O2 1402   4.320   6.150   4.430
  229HECX    C2 1403   4.278   6.256   4.342
  229HECX    C1 1404   4.174   6.204   4.243
  229HECX    O1 1405   4.140   6.293   4.135
  229HECX    H1 1406   4.061   6.249   4.082
  230HECX    H6 1407   1.903   1.053   6.471
  230HECX    O2 1408   1.984   0.985   6.475
  230HECX    C2 1409   1.975   0.897   6.361
  230HECX    C1 1410   1.855   0.802   6.370
  230HECX    O1 1411   1.834   0.721   6.252
  230HECX    H1 1412   1.727   0.700   6.249
  231HECX    H6 1413   1.861   4.544   3.558
  231HECX    O2 1414   1.828   4.502   3.648
  231HECX    C2 1415   1.932   4.514   3.747
  231HECX    C1 1416   1.886   4.476   3.889
  231HECX    O1 1417   1.996   4.465   3.981
  231HECX    H1 1418   1.960   4.464   4.079
  232HECX    H6 1419   2.919   2.453   3.921
  232HECX    O2 1420   2.946   2.433   3.821
  232HECX    C2 1421   2.884   2.529   3.732
  232HECX    C1 1422   2.749   2.584   3.780
  232HECX    O1 1423   2.728   2.718   3.731
  232HECX    H1 1424   2.644   2.758   3.775
  233HECX    H6 1425   1.496   2.519   4.046
  233HECX    O2 1426   1.427   2.496   3.967
  233HECX    C2 1427   1.352   2.379   4.007
  233HECX    C1 1428   1.239   2.413   4.104
  233HECX    O1 1429   1.189   2.297   4.173
  233HECX    H1 1430   1.082   2.308   4.189
  234HECX    H6 1431   1.890   4.055   1.866
  234HECX    O2 1432   1.840   3.968   1.827
  234HECX    C2 1433   1.733   3.934   1.918
  234HECX    C1 1434   1.667   3.800   1.885
  234HECX    O1 1435   1.549   3.778   1.964
  234HECX    H1 1436   1.462   3.793   1.899
  235HECX    H6 1437   6.447   0.982   5.767
  235HECX    O2 1438   6.416   0.976   5.668
  235HECX    C2 1439   6.282   0.920   5.668
  235HECX    C1 1440   6.239   0.858   5.534
  235HECX    O1 1441   6.116   0.783   5.543
  235HECX    H1 1442   6.093   0.742   5.446
  236HECX    H6 1443   0.598   3.983   2.650
  236HECX    O2 1444   0.689   3.952   2.603
  236HECX    C2 1445   0.797   4.025   2.665
  236HECX    C1 1446   0.849   4.141   2.580
  236HECX    O1 1447   0.949   4.217   2.651
  236HECX    H1 1448   0.996   4.283   2.583
  237HECX    H6 1449   4.007   1.695   6.487
  237HECX    O2 1450   4.027   1.799   6.472
  237HECX    C2 1451   4.164   1.824   0.010
  237HECX    C1 1452   4.183   1.812   0.162
  237HECX    O1 1453   4.314   1.850   0.207
  237HECX    H1 1454   4.324   1.814   0.307
  238HECX    H6 1455   5.571   3.308   1.466
  238HECX    O2 1456   5.566   3.320   1.569
  238HECX    C2 1457   5.520   3.453   1.599
  238HECX    C1 1458   5.368   3.461   1.618
  238HECX    O1 1459   5.295   3.472   1.494
  238HECX    H1 1460   5.290   3.575   1.469
  239HECX    H6 1461   5.478   0.185   1.835
  239HECX    O2 1462   5.484   0.130   1.923
  239HECX    C2 1463   5.400   0.012   1.913
  239HECX    C1 1464   5.360   6.469   1.771
  239HECX    O1 1465   5.273   0.061   1.702
  239HECX    H1 1466   5.201   0.003   1.646
  240HECX    H6 1467   2.465   3.021   2.566
  240HECX    O2 1468   2.557   3.048   2.611
  240HECX    C2 1469   2.634   3.131   2.522
  240HECX    C1 1470   2.727   3.224   2.601
  240HECX    O1 1471   2.806   3.310   2.517
  240HECX    H1 1472   2.877   3.359   2.577
  241HECX    H6 1473   5.311   2.033   0.297
  241HECX    O2 1474   5.315   1.993   0.396
  241HECX    C2 1475   5.437   1.917   0.404
  241HECX    C1 1476   5.439   1.817   0.521
  241HECX    O1 1477   5.495   1.689   0.483
  241HECX    H1 1478   5.600   1.702   0.470
  242HECX    H6 1479   2.125   3.372   4.954
  242HECX    O2 1480   2.074   3.352   5.045
  242HECX    C2 1481   2.143   3.417   5.154
  242HECX    C1 1482   2.077   3.386   5.288
  242HECX    O1 1483   2.169   3.388   5.400
  242HECX    H1 1484   2.115   3.361   5.487
  243HECX    H6 1485   2.654   5.961   1.424
  243HECX    O2 1486   2.698   6.051   1.385
  243HECX    C2 1487   2.639   6.163   1.454
  243HECX    C1 1488   2.570   6.262   1.360
  243HECX    O1 1489   2.533   6.385   1.427
  243HECX    H1 1490   2.622   6.447   1.430
  244HECX    H6 1491   0.409   5.127   3.303
  244HECX    O2 1492   0.513   5.146   3.309
  244HECX    C2 1493   0.556   5.198   3.182
  244HECX    C1 1494   0.590   5.348   3.182
  244HECX    O1 1495   0.657   5.386   3.060
  244HECX    H1 1496   0.750   5.334   3.057
  245HECX    H6 1497   0.919   4.289   2.220
  245HECX    O2 1498   1.019   4.311   2.253
  245HECX    C2 1499   1.114   4.240   2.171
  245HECX    C1 1500   1.103   4.276   2.022
  245HECX    O1 1501   1.228   4.255   1.952
  245HECX    H1 1502   1.286   4.333   1.971
  246HECX    H6 1503   2.205   0.438   0.847
  246HECX    O2 1504   2.305   0.464   0.872
  246HECX    C2 1505   2.335   0.592   0.813
  246HECX    C1 1506   2.412   0.580   0.680
  246HECX    O1 1507   2.364   0.670   0.578
  246HECX    H1 1508   2.264   0.644   0.555
  247HECX    H6 1509   1.814   1.506   2.733
  247HECX    O2 1510   1.851   1.478   2.639
  247HECX    C2 1511   1.801   1.344   2.617
  247HECX    C1 1512   1.654   1.342   2.575
  247HECX    O1 1513   1.602   1.208   2.580
  247HECX    H1 1514   1.560   1.195   2.674
  248HECX    H6 1515   5.146   4.788   2.542
  248HECX    O2 1516   5.111   4.818   2.638
  248HECX    C2 1517   5.046   4.707   2.703
  248HECX    C1 1518   4.893   4.719   2.700
  248HECX    O1 1519   4.825   4.599   2.743
  248HECX    H1 1520   4.851   4.578   2.838
  249HECX    H6 1521   5.123   3.418   2.624
  249HECX    O2 1522   5.219   3.445   2.596
  249HECX    C2 1523   5.318   3.373   2.673
  249HECX    C1 1524   5.296   3.372   2.825
  249HECX    O1 1525   5.284   3.503   2.885
  249HECX    H1 1526   5.252   3.490   2.984
  250HECX    H6 1527   6.236   4.150   0.063
  250HECX    O2 1528   6.161   4.114   0.007
  250HECX    C2 1529   6.037   4.155   0.069
  250HECX    C1 1530   5.914   4.087   0.008
  250HECX    O1 1531   5.791   4.132   0.068
  250HECX    H1 1532   5.715   4.062   0.047
  251HECX    H6 1533   3.073   5.646   2.157
  251HECX    O2 1534   3.131   5.715   2.218
  251HECX    C2 1535   3.262   5.733   2.158
  251HECX    C1 1536   3.346   5.835   2.236
  251HECX    O1 1537   3.483   5.847   2.192
  251HECX    H1 1538   3.541   5.832   2.277
  252HECX    H6 1539   0.665   4.227   3.030
  252HECX    O2 1540   0.663   4.139   3.089
  252HECX    C2 1541   0.555   4.056   3.040
  252HECX    C1 1542   0.445   4.031   3.145
  252HECX    O1 1543   0.321   3.985   3.087
  252HECX    H1 1544   0.255   3.960   3.166
  253HECX    H6 1545   2.146   4.647   1.263
  253HECX    O2 1546   2.098   4.732   1.219
  253HECX    C2 1547   2.143   4.846   1.294
  253HECX    C1 1548   2.172   4.970   1.208
  253HECX    O1 1549   2.252   5.066   1.281
  253HECX    H1 1550   2.236   5.165   1.240
  254HECX    H6 1551   0.945   3.668   4.866
  254HECX    O2 1552   0.931   3.614   4.950
  254HECX    C2 1553   1.060   3.601   5.013
  254HECX    C1 1554   1.051   3.549   5.158
  254HECX    O1 1555   1.177   3.498   5.207
  254HECX    H1 1556   1.155   3.404   5.251
  255HECX    H6 1557   5.466   5.209   6.211
  255HECX    O2 1558   5.501   5.127   6.269
  255HECX    C2 1559   5.469   5.150   6.408
  255HECX    C1 1560   5.553   5.262   6.470
  255HECX    O1 1561   5.525   5.284   0.110
  255HECX    H1 1562   5.589   5.225   0.169
  256HECX    H6 1563   5.617   3.365   2.050
  256HECX    O2 1564   5.723   3.349   2.035
  256HECX    C2 1565   5.754   3.408   1.906
  256HECX    C1 1566   5.878   3.346   1.838
  256HECX    O1 1567   5.915   3.410   1.714
  256HECX    H1 1568   5.895   3.340   1.635
  257HECX    H6 1569   1.133   1.309   6.446
  257HECX    O2 1570   1.155   1.233   6.378
  257HECX    C2 1571   1.183   1.112   6.451
  257HECX    C1 1572   1.065   1.013   6.449
  257HECX    O1 1573   1.098   0.888   0.011
  257HECX    H1 1574   1.013   0.845   0.043
  258HECX    H6 1575   3.739   5.852   2.498
  258HECX    O2 1576   3.821   5.884   2.555
  258HECX    C2 1577   3.863   6.013   2.505
  258HECX    C1 1578   3.922   6.001   2.364
  258HECX    O1 1579   3.937   6.127   2.295
  258HECX    H1 1580   3.840   6.173   2.285
  259HECX    H6 1581   2.807   1.788   6.260
  259HECX    O2 1582   2.760   1.851   6.334
  259HECX    C2 1583   2.770   1.989   6.293
  259HECX    C1 1584   2.640   2.071   6.310
  259HECX    O1 1585   2.599   2.096   6.446
  259HECX    H1 1586   2.540   2.185   6.444
  260HECX    H6 1587   2.623   3.942   5.117
  260HECX    O2 1588   2.626   3.842   5.157
  260HECX    C2 1589   2.750   3.779   5.117
  260HECX    C1 1590   2.817   3.691   5.224
  260HECX    O1 1591   2.752   3.567   5.261
  260HECX    H1 1592   2.828   3.498   5.288
  261HECX    H6 1593   2.261   1.976   5.340
  261HECX    O2 1594   2.320   1.890   5.352
  261HECX    C2 1595   2.247   1.771   5.315
  261HECX    C1 1596   2.333   1.645   5.337
  261HECX    O1 1597   2.273   1.519   5.299
  261HECX    H1 1598   2.267   1.513   5.192
  262HECX    H6 1599   4.588   3.518   4.985
  262HECX    O2 1600   4.553   3.606   5.031
  262HECX    C2 1601   4.426   3.634   4.969
  262HECX    C1 1602   4.330   3.723   5.050
  262HECX    O1 1603   4.356   3.864   5.038
  262HECX    H1 1604   4.407   3.900   5.124
  263HECX    H6 1605   1.023   2.579   2.297
  263HECX    O2 1606   1.009   2.535   2.199
  263HECX    C2 1607   0.921   2.421   2.214
  263HECX    C1 1608   0.876   2.368   2.078
  263HECX    O1 1609   0.821   2.235   2.084
  263HECX    H1 1610   0.821   2.198   1.988
  264HECX    H6 1611   5.901   1.185   5.646
  264HECX    O2 1612   5.966   1.128   5.704
  264HECX    C2 1613   5.901   1.104   5.832
  264HECX    C1 1614   5.956   0.986   5.914
  264HECX    O1 1615   5.919   0.855   5.865
  264HECX    H1 1616   5.947   0.785   5.938
  265HECX    H6 1617   4.395   6.433   2.836
  265HECX    O2 1618   4.495   6.395   2.841
  265HECX    C2 1619   4.519   6.330   2.714
  265HECX    C1 1620   4.666   6.324   2.670
  265HECX    O1 1621   4.688   6.262   2.541
  265HECX    H1 1622   4.619   6.305   2.470
  266HECX    H6 1623   1.766   4.303   5.371
  266HECX    O2 1624   1.792   4.292   5.273
  266HECX    C2 1625   1.895   4.387   5.239
  266HECX    C1 1626   1.967   4.359   5.107
  266HECX    O1 1627   1.901   4.411   4.990
  266HECX    H1 1628   1.938   4.508   4.975
  267HECX    H6 1629   2.308   3.034   4.941
  267HECX    O2 1630   2.397   2.974   4.933
  267HECX    C2 1631   2.478   3.026   4.825
  267HECX    C1 1632   2.548   3.158   4.860
  267HECX    O1 1633   2.630   3.208   4.753
  267HECX    H1 1634   2.696   3.280   4.793
  268HECX    H6 1635   0.322   1.080   3.785
  268HECX    O2 1636   0.410   1.060   3.844
  268HECX    C2 1637   0.479   1.186   3.865
  268HECX    C1 1638   0.569   1.187   3.989
  268HECX    O1 1639   0.662   1.296   3.988
  268HECX    H1 1640   0.757   1.256   3.969
  269HECX    H6 1641   1.561   4.886   3.676
  269HECX    O2 1642   1.580   4.781   3.686
  269HECX    C2 1643   1.612   4.732   3.554
  269HECX    C1 1644   1.491   4.677   3.477
  269HECX    O1 1645   1.522   4.651   3.338
  269HECX    H1 1646   1.444   4.590   3.298
  270HECX    H6 1647   0.314   4.560   5.337
  270HECX    O2 1648   0.230   4.578   5.399
  270HECX    C2 1649   0.185   4.449   5.448
  270HECX    C1 1650   0.280   4.382   5.550
  270HECX    O1 1651   0.238   4.392   5.688
  270HECX    H1 1652   0.281   4.481   5.732
  271HECX    H6 1653   2.381   6.122   4.835
  271HECX    O2 1654   2.336   6.074   4.921
  271HECX    C2 1655   2.229   5.989   4.874
  271HECX    C1 1656   2.179   5.885   4.975
  271HECX    O1 1657   2.114   5.939   5.092
  271HECX    H1 1658   2.191   5.952   5.168
  272HECX    H6 1659   4.711   2.830   5.850
  272HECX    O2 1660   4.640   2.838   5.927
  272HECX    C2 1661   4.685   2.760   6.040
  272HECX    C1 1662   4.774   2.841   6.134
  272HECX    O1 1663   4.797   2.774   6.260
  272HECX    H1 1664   4.704   2.765   6.310
  273HECX    H6 1665   5.520   5.399   2.482
  273HECX    O2 1666   5.536   5.335   2.559
  273HECX    C2 1667   5.480   5.208   2.523
  273HECX    C1 1668   5.536   5.093   2.606
  273HECX    O1 1669   5.458   4.974   2.583
  273HECX    H1 1670   5.370   4.985   2.634
  274HECX    H6 1671   5.860   0.729   4.547
  274HECX    O2 1672   5.790   0.739   4.471
  274HECX    C2 1673   5.837   0.842   4.381
  274HECX    C1 1674   5.972   0.809   4.314
  274HECX    O1 1675   6.035   0.925   4.257
  274HECX    H1 1676   6.118   0.895   4.211
  275HECX    H6 1677   4.683   4.820   4.206
  275HECX    O2 1678   4.704   4.800   4.309
  275HECX    C2 1679   4.724   4.659   4.332
  275HECX    C1 1680   4.812   4.587   4.229
  275HECX    O1 1681   4.844   4.455   4.276
  275HECX    H1 1682   4.873   4.396   4.193
  276HECX    H6 1683   2.673   4.193   3.218
  276HECX    O2 1684   2.709   4.158   3.129
  276HECX    C2 1685   2.641   4.234   3.028
  276HECX    C1 1686   2.543   4.151   2.945
  276HECX    O1 1687   2.462   4.237   2.862
  276HECX    H1 1688   2.526   4.288   2.798
  277HECX    H6 1689   0.509   4.374   1.213
  277HECX    O2 1690   0.578   4.342   1.137
  277HECX    C2 1691   0.563   4.433   1.026
  277HECX    C1 1692   0.564   4.361   0.891
  277HECX    O1 1693   0.512   4.444   0.785
  277HECX    H1 1694   0.567   4.429   0.704
  278HECX    H6 1695   5.042   4.599   4.616
  278HECX    O2 1696   5.131   4.636   4.568
  278HECX    C2 1697   5.100   4.681   4.434
  278HECX    C1 1698   5.225   4.696   4.345
  278HECX    O1 1699   5.198   4.753   4.217
  278HECX    H1 1700   5.284   4.806   4.188
  279HECX    H6 1701   4.925   1.294   0.509
  279HECX    O2 1702   4.895   1.250   0.598
  279HECX    C2 1703   4.975   1.133   0.624
  279HECX    C1 1704   4.995   1.111   0.775
  279HECX    O1 1705   5.045   0.981   0.812
  279HECX    H1 1706   5.059   0.981   0.915
  280HECX    H6 1707   5.148   5.175   6.093
  280HECX    O2 1708   5.140   5.087   6.151
  280HECX    C2 1709   5.210   4.980   6.085
  280HECX    C1 1710   5.191   4.844   6.155
  280HECX    O1 1711   5.267   4.738   6.092
  280HECX    H1 1712   5.342   4.706   6.162
  281HECX    H6 1713   2.843   2.513   1.619
  281HECX    O2 1714   2.868   2.440   1.548
  281HECX    C2 1715   2.745   2.389   1.490
  281HECX    C1 1716   2.704   2.448   1.354
  281HECX    O1 1717   2.762   2.382   1.239
  281HECX    H1 1718   2.722   2.427   1.153
  282HECX    H6 1719   5.540   0.482   2.404
  282HECX    O2 1720   5.580   0.555   2.470
  282HECX    C2 1721   5.628   0.488   2.589
  282HECX    C1 1722   5.761   0.547   2.640
  282HECX    O1 1723   5.806   0.496   2.768
  282HECX    H1 1724   5.901   0.541   2.788
  283HECX    H6 1725   4.530   2.571   5.635
  283HECX    O2 1726   4.489   2.472   5.652
  283HECX    C2 1727   4.372   2.461   5.569
  283HECX    C1 1728   4.306   2.324   5.583
  283HECX    O1 1729   4.192   2.303   5.498
  283HECX    H1 1730   4.151   2.215   5.529
  284HECX    H6 1731   5.194   3.114   1.491
  284HECX    O2 1732   5.198   3.030   1.552
  284HECX    C2 1733   5.172   2.912   1.472
  284HECX    C1 1734   5.299   2.841   1.423
  284HECX    O1 1735   5.291   2.698   1.443
  284HECX    H1 1736   5.323   2.648   1.358
  285HECX    H6 1737   4.562   3.393   0.405
  285HECX    O2 1738   4.570   3.294   0.447
  285HECX    C2 1739   4.524   3.294   0.583
  285HECX    C1 1740   4.375   3.328   0.599
  285HECX    O1 1741   4.319   3.283   0.724
  285HECX    H1 1742   4.264   3.195   0.703
  286HECX    H6 1743   5.672   1.568   4.078
  286HECX    O2 1744   5.762   1.542   4.033
  286HECX    C2 1745   5.836   1.664   4.014
  286HECX    C1 1746   5.949   1.652   3.911
  286HECX    O1 1747   6.018   1.777   3.898
  286HECX    H1 1748   6.005   1.814   3.800
  287HECX    H6 1749   2.234   1.431   4.280
  287HECX    O2 1750   2.159   1.491   4.234
  287HECX    C2 1751   2.060   1.531   4.331
  287HECX    C1 1752   1.934   1.593   4.267
  287HECX    O1 1753   1.835   1.636   4.364
  287HECX    H1 1754   1.769   1.557   4.389
  288HECX    H6 1755   0.476   5.282   0.356
  288HECX    O2 1756   0.400   5.208   0.348
  288HECX    C2 1757   0.341   5.195   0.479
  288HECX    C1 1758   0.239   5.305   0.509
  288HECX    O1 1759   0.185   5.294   0.642
  288HECX    H1 1760   0.090   5.338   0.643
  289HECX    H6 1761   1.311   4.615   3.156
  289HECX    O2 1762   1.342   4.535   3.216
  289HECX    C2 1763   1.316   4.413   3.143
  289HECX    C1 1764   1.359   4.284   3.213
  289HECX    O1 1765   1.341   4.167   3.130
  289HECX    H1 1766   1.237   4.156   3.109
  290HECX    H6 1767   4.340   2.545   3.005
  290HECX    O2 1768   4.437   2.507   2.981
  290HECX    C2 1769   4.516   2.614   2.925
  290HECX    C1 1770   4.644   2.560   2.858
  290HECX    O1 1771   4.722   2.664   2.796
  290HECX    H1 1772   4.678   2.689   2.711
  291HECX    H6 1773   4.745   2.141   2.844
  291HECX    O2 1774   4.640   2.139   2.839
  291HECX    C2 1775   4.600   2.173   2.704
  291HECX    C1 1776   4.593   2.051   2.610
  291HECX    O1 1777   4.551   2.085   2.476
  291HECX    H1 1778   4.637   2.095   2.414
  292HECX    H6 1779   4.362   1.588   1.306
  292HECX    O2 1780   4.304   1.550   1.381
  292HECX    C2 1781   4.240   1.656   1.455
  292HECX    C1 1782   4.156   1.599   1.570
  292HECX    O1 1783   4.097   1.696   1.658
  292HECX    H1 1784   4.029   1.644   1.719
  293HECX    H6 1785   1.722   5.622   2.069
  293HECX    O2 1786   1.729   5.527   2.112
  293HECX    C2 1787   1.841   5.456   2.055
  293HECX    C1 1788   1.825   5.423   1.906
  293HECX    O1 1789   1.926   5.331   1.861
  293HECX    H1 1790   1.890   5.233   1.890
  294HECX    H6 1791   2.372   2.076   3.916
  294HECX    O2 1792   2.446   2.010   3.930
  294HECX    C2 1793   2.425   1.899   3.841
  294HECX    C1 1794   2.289   1.829   3.859
  294HECX    O1 1795   2.263   1.727   3.760
  294HECX    H1 1796   2.281   1.632   3.803
  295HECX    H6 1797   4.530   0.252   0.583
  295HECX    O2 1798   4.602   0.278   0.509
  295HECX    C2 1799   4.562   0.404   0.449
  295HECX    C1 1800   4.581   0.522   0.545
  295HECX    O1 1801   4.575   0.650   0.480
  295HECX    H1 1802   4.477   0.670   0.444
  296HECX    H6 1803   4.465   4.455   1.527
  296HECX    O2 1804   4.414   4.543   1.557
  296HECX    C2 1805   4.302   4.560   1.469
  296HECX    C1 1806   4.186   4.466   1.508
  296HECX    O1 1807   4.074   4.468   1.417
  296HECX    H1 1808   3.985   4.458   1.476
  297HECX    H6 1809   3.969   2.014   5.540
  297HECX    O2 1810   3.888   1.972   5.596
  297HECX    C2 1811   3.765   2.032   5.551
  297HECX    C1 1812   3.754   2.179   5.593
  297HECX    O1 1813   3.625   2.236   5.567
  297HECX    H1 1814   3.607   2.309   5.642
  298HECX    H6 1815   4.913   5.727   3.766
  298HECX    O2 1816   4.834   5.690   3.827
  298HECX    C2 1817   4.856   5.550   3.854
  298HECX    C1 1818   4.974   5.526   3.950
  298HECX    O1 1819   5.016   5.388   3.954
  298HECX    H1 1820   5.115   5.382   3.992
  299HECX    H6 1821   6.051   1.232   4.813
  299HECX    O2 1822   6.064   1.282   4.906
  299HECX    C2 1823   6.001   1.197   5.006
  299HECX    C1 1824   5.864   1.251   5.054
  299HECX    O1 1825   5.795   1.160   5.143
  299HECX    H1 1826   5.840   1.162   5.232
  300HECX    H6 1827   4.438   4.298   2.250
  300HECX    O2 1828   4.535   4.257   2.266
  300HECX    C2 1829   4.523   4.133   2.339
  300HECX    C1 1830   4.622   4.129   2.456
  300HECX    O1 1831   4.668   3.997   2.490
  300HECX    H1 1832   4.758   4.008   2.531
  301HECX    H6 1833   3.496   4.930   0.128
  301HECX    O2 1834   3.519   5.023   0.154
  301HECX    C2 1835   3.454   5.051   0.280
  301HECX    C1 1836   3.546   5.016   0.397
  301HECX    O1 1837   3.490   5.040   0.527
  301HECX    H1 1838   3.507   5.139   0.554
  302HECX    H6 1839   3.976   6.232   1.317
  302HECX    O2 1840   4.002   6.302   1.395
  302HECX    C2 1841   3.881   6.350   1.457
  302HECX    C1 1842   3.838   6.269   1.581
  302HECX    O1 1843   3.738   6.339   1.657
  302HECX    H1 1844   3.788   6.416   1.709
  303HECX    H6 1845   0.417   6.437   1.936
  303HECX    O2 1846   0.373   6.485   1.854
  303HECX    C2 1847   0.233   6.453   1.854
  303HECX    C1 1848   0.163   6.489   1.722
  303HECX    O1 1849   0.019   6.476   1.732
  303HECX    H1 1850   6.486   6.408   1.660
  304HECX    H6 1851   5.351   5.444   0.368
  304HECX    O2 1852   5.338   5.473   0.472
  304HECX    C2 1853   5.464   5.458   0.539
  304HECX    C1 1854   5.448   5.379   0.670
  304HECX    O1 1855   5.572   5.340   0.735
  304HECX    H1 1856   5.628   5.287   0.664
  305HECX    H6 1857   1.782   3.863   0.432
  305HECX    O2 1858   1.765   3.871   0.537
  305HECX    C2 1859   1.659   3.781   0.575
  305HECX    C1 1860   1.677   3.728   0.718
  305HECX    O1 1861   1.575   3.633   0.756
  305HECX    H1 1862   1.574   3.555   0.688
  306HECX    H6 1863   2.789   5.866   5.728
  306HECX    O2 1864   2.823   5.870   5.827
  306HECX    C2 1865   2.963   5.907   5.818
  306HECX    C1 1866   3.040   5.819   5.718
  306HECX    O1 1867   3.151   5.888   5.657
  306HECX    H1 1868   3.234   5.884   5.724
  307HECX    H6 1869   6.144   6.080   2.069
  307HECX    O2 1870   6.051   6.043   2.029
  307HECX    C2 1871   5.961   6.155   2.015
  307HECX    C1 1872   5.891   6.189   2.147
  307HECX    O1 1873   5.790   6.292   2.137
  307HECX    H1 1874   5.701   6.246   2.094
  308HECX    H6 1875   6.291   3.275   1.231
  308HECX    O2 1876   6.344   3.190   1.209
  308HECX    C2 1877   6.302   3.082   1.294
  308HECX    C1 1878   6.363   2.950   1.245
  308HECX    O1 1879   6.347   2.838   1.334
  308HECX    H1 1880   6.441   2.800   1.350
  309HECX    H6 1881   1.490   5.103   5.052
  309HECX    O2 1882   1.455   5.031   4.993
  309HECX    C2 1883   1.314   5.053   4.976
  309HECX    C1 1884   1.239   4.920   4.954
  309HECX    O1 1885   1.099   4.936   4.925
  309HECX    H1 1886   1.088   4.951   4.817
  310HECX    H6 1887   1.382   5.525   0.657
  310HECX    O2 1888   1.480   5.480   0.646
  310HECX    C2 1889   1.545   5.485   0.775
  310HECX    C1 1890   1.673   5.401   0.779
  310HECX    O1 1891   1.746   5.416   0.903
  310HECX    H1 1892   1.699   5.359   0.979
  311HECX    H6 1893   4.719   6.348   3.889
  311HECX    O2 1894   4.715   6.367   3.785
  311HECX    C2 1895   4.790   6.488   3.760
  311HECX    C1 1896   4.805   0.020   3.610
  311HECX    O1 1897   4.862   0.150   3.585
  311HECX    H1 1898   4.965   0.148   3.613
  312HECX    H6 1899   3.095   0.428   4.787
  312HECX    O2 1900   3.021   0.490   4.834
  312HECX    C2 1901   3.072   0.624   4.850
  312HECX    C1 1902   3.044   0.710   4.726
  312HECX    O1 1903   3.068   0.851   4.741
  312HECX    H1 1904   2.994   0.889   4.799
  313HECX    H6 1905   5.990   0.275   0.370
  313HECX    O2 1906   5.992   0.232   0.275
  313HECX    C2 1907   6.131   0.217   0.240
  313HECX    C1 1908   6.159   0.177   0.095
  313HECX    O1 1909   6.108   0.047   0.058
  313HECX    H1 1910   6.066   0.057   6.463
  314HECX    H6 1911   4.221   1.980   0.973
  314HECX    O2 1912   4.190   1.903   0.904
  314HECX    C2 1913   4.218   1.945   0.770
  314HECX    C1 1914   4.368   1.948   0.739
  314HECX    O1 1915   4.392   1.961   0.597
  314HECX    H1 1916   4.494   1.988   0.582
  315HECX    H6 1917   1.388   3.075   5.032
  315HECX    O2 1918   1.311   3.001   5.033
  315HECX    C2 1919   1.217   3.030   4.927
  315HECX    C1 1920   1.111   3.132   4.972
  315HECX    O1 1921   1.023   3.176   4.866
  315HECX    H1 1922   0.941   3.218   4.909
  316HECX    H6 1923   5.389   3.278   4.596
  316HECX    O2 1924   5.416   3.276   4.495
  316HECX    C2 1925   5.301   3.233   4.419
  316HECX    C1 1926   5.282   3.314   4.290
  316HECX    O1 1927   5.147   3.364   4.279
  316HECX    H1 1928   5.131   3.434   4.354
  317HECX    H6 1929   4.174   4.730   0.231
  317HECX    O2 1930   4.078   4.706   0.203
  317HECX    C2 1931   4.047   4.770   0.078
  317HECX    C1 1932   3.910   4.725   0.027
  317HECX    O1 1933   3.881   4.776   6.396
  317HECX    H1 1934   3.823   4.704   6.344
  318HECX    H6 1935   2.953   0.153   2.457
  318HECX    O2 1936   2.853   0.189   2.450
  318HECX    C2 1937   2.847   0.325   2.498
  318HECX    C1 1938   2.710   0.391   2.478
  318HECX    O1 1939   2.696   0.518   2.546
  318HECX    H1 1940   2.608   0.564   2.509
  319HECX    H6 1941   3.193   0.003   5.886
  319HECX    O2 1942   3.141   0.096   5.871
  319HECX    C2 1943   3.010   0.088   5.931
  319HECX    C1 1944   3.013   0.091   6.085
  319HECX    O1 1945   2.881   0.090   6.142
  319HECX    H1 1946   2.837   0.006   6.110
  320HECX    H6 1947   6.463   2.541   0.821
  320HECX    O2 1948   6.418   2.618   0.874
  320HECX    C2 1949   6.284   2.577   0.911
  320HECX    C1 1950   6.225   2.677   1.011
  320HECX    O1 1951   6.112   2.630   1.087
  320HECX    H1 1952   6.122   2.666   1.187
  321HECX    H6 1953   2.642   3.784   5.545
  321HECX    O2 1954   2.650   3.887   5.565
  321HECX    C2 1955   2.607   3.907   5.702
  321HECX    C1 1956   2.543   4.044   5.737
  321HECX    O1 1957   2.401   4.056   5.713
  321HECX    H1 1958   2.362   4.130   5.776
  322HECX    H6 1959   3.606   2.128   4.408
  322HECX    O2 1960   3.583   2.161   4.505
  322HECX    C2 1961   3.604   2.054   4.599
  322HECX    C1 1962   3.559   2.094   4.741
  322HECX    O1 1963   3.563   1.988   4.840
  322HECX    H1 1964   3.556   1.891   4.795
  323HECX    H6 1965   3.067   4.051   1.560
  323HECX    O2 1966   3.112   3.975   1.500
  323HECX    C2 1967   3.018   3.868   1.478
  323HECX    C1 1968   2.986   3.786   1.604
  323HECX    O1 1969   2.896   3.675   1.580
  323HECX    H1 1970   2.951   3.584   1.589
  324HECX    H6 1971   4.905   4.736   5.713
  324HECX    O2 1972   4.825   4.662   5.703
  324HECX    C2 1973   4.838   4.595   5.576
  324HECX    C1 1974   4.846   4.690   5.455
  324HECX    O1 1975   4.858   4.623   5.328
  324HECX    H1 1976   4.908   4.689   5.260
  325HECX    H6 1977   2.053   6.442   1.514
  325HECX    O2 1978   2.100   6.360   1.467
  325HECX    C2 1979   2.124   6.261   1.570
  325HECX    C1 1980   2.206   6.139   1.525
  325HECX    O1 1981   2.134   6.053   1.435
  325HECX    H1 1982   2.192   6.046   1.346
  326HECX    H6 1983   0.744   5.676   6.042
  326HECX    O2 1984   0.833   5.727   6.049
  326HECX    C2 1985   0.881   5.758   5.916
  326HECX    C1 1986   0.842   5.898   5.864
  326HECX    O1 1987   0.906   6.009   5.930
  326HECX    H1 1988   0.841   6.096   5.928
  327HECX    H6 1989   4.817   1.300   3.598
  327HECX    O2 1990   4.844   1.400   3.584
  327HECX    C2 1991   4.982   1.415   3.623
  327HECX    C1 1992   5.025   1.562   3.636
  327HECX    O1 1993   5.164   1.581   3.668
  327HECX    H1 1994   5.215   1.601   3.578
  328HECX    H6 1995   3.447   4.390   1.454
  328HECX    O2 1996   3.455   4.299   1.397
  328HECX    C2 1997   3.325   4.237   1.383
  328HECX    C1 1998   3.330   4.113   1.292
  328HECX    O1 1999   3.201   4.053   1.273
  328HECX    H1 2000   3.166   4.018   1.366
  329HECX    H6 2001   0.106   2.164   3.061
  329HECX    O2 2002   0.114   2.060   3.044
  329HECX    C2 2003   0.204   2.038   2.934
  329HECX    C1 2004   0.349   2.010   2.979
  329HECX    O1 2005   0.437   1.989   2.867
  329HECX    H1 2006   0.495   1.904   2.886
  330HECX    H6 2007   1.532   3.807   2.089
  330HECX    O2 2008   1.518   3.832   2.195
  330HECX    C2 2009   1.382   3.875   2.212
  330HECX    C1 2010   1.352   3.914   2.357
  330HECX    O1 2011   1.223   3.978   2.371
  330HECX    H1 2012   1.234   4.052   2.445
  331HECX    H6 2013   3.079   4.829   0.244
  331HECX    O2 2014   3.010   4.846   0.171
  331HECX    C2 2015   2.907   4.926   0.233
  331HECX    C1 2016   2.786   4.954   0.141
  331HECX    O1 2017   2.771   5.094   0.110
  331HECX    H1 2018   2.844   5.121   0.038
  332HECX    H6 2019   5.458   0.915   3.180
  332HECX    O2 2020   5.515   0.897   3.267
  332HECX    C2 2021   5.638   0.971   3.256
  332HECX    C1 2022   5.731   0.913   3.148
  332HECX    O1 2023   5.847   0.993   3.119
  332HECX    H1 2024   5.899   0.947   3.043
  333HECX    H6 2025   1.159   1.144   4.760
  333HECX    O2 2026   1.172   1.054   4.706
  333HECX    C2 2027   1.042   1.022   4.652
  333HECX    C1 2028   1.036   0.907   4.552
  333HECX    O1 2029   0.904   0.897   4.495
  333HECX    H1 2030   0.880   0.797   4.483
  334HECX    H6 2031   2.870   3.804   0.168
  334HECX    O2 2032   2.877   3.892   0.227
  334HECX    C2 2033   2.985   3.970   0.171
  334HECX    C1 2034   3.100   3.988   0.271
  334HECX    O1 2035   3.214   4.054   0.212
  334HECX    H1 2036   3.285   4.072   0.290
  335HECX    H6 2037   5.929   5.465   1.263
  335HECX    O2 2038   5.891   5.371   1.295
  335HECX    C2 2039   5.987   5.298   1.375
  335HECX    C1 2040   5.929   5.162   1.416
  335HECX    O1 2041   6.004   5.083   1.511
  335HECX    H1 2042   5.949   4.994   1.524
  336HECX    H6 2043   3.274   2.765   0.382
  336HECX    O2 2044   3.377   2.746   0.400
  336HECX    C2 2045   3.396   2.604   0.411
  336HECX    C1 2046   3.311   2.545   0.525
  336HECX    O1 2047   3.308   2.401   0.527
  336HECX    H1 2048   3.238   2.374   0.599
  337HECX    H6 2049   5.842   6.340   3.884
  337HECX    O2 2050   5.850   6.312   3.986
  337HECX    C2 2051   5.918   6.417   4.058
  337HECX    C1 2052   5.955   6.376   4.202
  337HECX    O1 2053   6.020   6.479   4.278
  337HECX    H1 2054   6.114   6.498   4.240
  338HECX    H6 2055   4.430   5.146   4.507
  338HECX    O2 2056   4.510   5.164   4.574
  338HECX    C2 2057   4.577   5.286   4.537
  338HECX    C1 2058   4.685   5.325   4.640
  338HECX    O1 2059   4.732   5.460   4.625
  338HECX    H1 2060   4.807   5.477   4.696
  339HECX    H6 2061   0.583   3.590   5.648
  339HECX    O2 2062   0.614   3.548   5.742
  339HECX    C2 2063   0.654   3.411   5.722
  339HECX    C1 2064   0.704   3.345   5.852
  339HECX    O1 2065   0.754   3.211   5.832
  339HECX    H1 2066   0.796   3.180   5.918
  340HECX    H6 2067   5.653   4.004   3.853
  340HECX    O2 2068   5.701   4.071   3.789
  340HECX    C2 2069   5.680   4.204   3.842
  340HECX    C1 2070   5.744   4.313   3.755
  340HECX    O1 2071   5.758   4.438   3.825
  340HECX    H1 2072   5.793   4.508   3.757
  341HECX    H6 2073   6.242   0.921   1.407
  341HECX    O2 2074   6.168   0.872   1.461
  341HECX    C2 2075   6.171   0.922   1.596
  341HECX    C1 2076   6.121   0.821   1.700
  341HECX    O1 2077   6.127   0.874   1.835
  341HECX    H1 2078   6.226   0.907   1.854
  342HECX    H6 2079   5.543   0.844   6.180
  342HECX    O2 2080   5.520   0.836   6.281
  342HECX    C2 2081   5.395   0.902   6.304
  342HECX    C1 2082   5.301   0.816   6.390
  342HECX    O1 2083   5.186   0.890   6.436
  342HECX    H1 2084   5.148   0.840   0.022
  343HECX    H6 2085   3.857   0.528   3.767
  343HECX    O2 2086   3.880   0.533   3.870
  343HECX    C2 2087   3.869   0.671   3.911
  343HECX    C1 2088   3.761   0.697   4.017
  343HECX    O1 2089   3.770   0.830   4.074
  343HECX    H1 2090   3.705   0.832   4.156
  344HECX    H6 2091   3.740   1.502   4.178
  344HECX    O2 2092   3.826   1.505   4.128
  344HECX    C2 2093   3.820   1.620   4.042
  344HECX    C1 2094   3.957   1.662   3.985
  344HECX    O1 2095   3.942   1.760   3.880
  344HECX    H1 2096   4.034   1.810   3.866
  345HECX    H6 2097   0.267   3.440   3.136
  345HECX    O2 2098   0.298   3.446   3.239
  345HECX    C2 2099   0.261   3.575   3.291
  345HECX    C1 2100   0.110   3.585   3.319
  345HECX    O1 2101   0.075   3.704   3.393
  345HECX    H1 2102   0.096   3.683   3.494
  346HECX    H6 2103   3.651   5.827   6.196
  346HECX    O2 2104   3.704   5.779   6.119
  346HECX    C2 2105   3.823   5.719   6.175
  346HECX    C1 2106   3.912   5.651   6.069
  346HECX    O1 2107   4.039   5.603   6.117
  346HECX    H1 2108   4.081   5.541   6.045
  347HECX    H6 2109   4.752   2.641   0.116
  347HECX    O2 2110   4.691   2.568   0.071
  347HECX    C2 2111   4.653   2.475   0.174
  347HECX    C1 2112   4.641   2.330   0.126
  347HECX    O1 2113   4.616   2.239   0.235
  347HECX    H1 2114   4.620   2.143   0.196
  348HECX    H6 2115   0.958   2.491   3.084
  348HECX    O2 2116   0.938   2.581   3.037
  348HECX    C2 2117   1.063   2.649   3.015
  348HECX    C1 2118   1.146   2.584   2.903
  348HECX    O1 2119   1.267   2.658   2.876
  348HECX    H1 2120   1.330   2.598   2.817
  349HECX    H6 2121   3.331   6.381   5.992
  349HECX    O2 2122   3.267   6.389   5.907
  349HECX    C2 2123   3.246   6.256   5.856
  349HECX    C1 2124   3.123   6.243   5.766
  349HECX    O1 2125   3.133   6.302   5.634
  349HECX    H1 2126   3.034   6.325   5.606
  350HECX    H6 2127   4.530   1.443   6.315
  350HECX    O2 2128   4.617   1.489   6.280
  350HECX    C2 2129   4.646   1.606   6.359
  350HECX    C1 2130   4.541   1.717   6.340
  350HECX    O1 2131   4.571   1.840   6.410
  350HECX    H1 2132   4.494   1.910   6.384
  351HECX    H6 2133   2.500   5.236   4.076
  351HECX    O2 2134   2.540   5.309   4.139
  351HECX    C2 2135   2.547   5.251   4.271
  351HECX    C1 2136   2.683   5.186   4.303
  351HECX    O1 2137   2.719   5.077   4.215
  351HECX    H1 2138   2.651   5.003   4.227
  352HECX    H6 2139   1.003   1.666   6.191
  352HECX    O2 2140   1.095   1.676   6.238
  352HECX    C2 2141   1.196   1.615   6.156
  352HECX    C1 2142   1.331   1.687   6.169
  352HECX    O1 2143   1.438   1.618   6.101
  352HECX    H1 2144   1.487   1.687   6.036
  353HECX    H6 2145   4.298   3.014   4.104
  353HECX    O2 2146   4.223   2.984   4.035
  353HECX    C2 2147   4.175   3.103   3.967
  353HECX    C1 2148   4.045   3.080   3.889
  353HECX    O1 2149   3.969   3.202   3.866
  353HECX    H1 2150   3.876   3.171   3.819
  354HECX    H6 2151   0.384   5.147   4.270
  354HECX    O2 2152   0.471   5.114   4.320
  354HECX    C2 2153   0.572   5.216   4.307
  354HECX    C1 2154   0.695   5.189   4.396
  354HECX    O1 2155   0.794   5.293   4.385
  354HECX    H1 2156   0.762   5.375   4.439
  355HECX    H6 2157   5.671   6.299   4.937
  355HECX    O2 2158   5.570   6.272   4.911
  355HECX    C2 2159   5.540   6.326   4.781
  355HECX    C1 2160   5.619   6.262   4.666
  355HECX    O1 2161   5.588   6.323   4.538
  355HECX    H1 2162   5.642   6.271   4.464
  356HECX    H6 2163   2.414   1.184   5.474
  356HECX    O2 2164   2.465   1.102   5.516
  356HECX    C2 2165   2.588   1.086   5.440
  356HECX    C1 2166   2.658   0.949   5.449
  356HECX    O1 2167   2.617   0.855   5.348
  356HECX    H1 2168   2.703   0.815   5.304
  357HECX    H6 2169   5.428   3.136   3.216
  357HECX    O2 2170   5.370   3.115   3.301
  357HECX    C2 2171   5.229   3.121   3.269
  357HECX    C1 2172   5.151   3.213   3.364
  357HECX    O1 2173   5.020   3.161   3.397
  357HECX    H1 2174   5.029   3.106   3.487
  358HECX    H6 2175   3.925   2.543   0.413
  358HECX    O2 2176   3.950   2.440   0.386
  358HECX    C2 2177   3.833   2.358   0.406
  358HECX    C1 2178   3.834   2.228   0.325
  358HECX    O1 2179   3.826   2.244   0.181
  358HECX    H1 2180   3.852   2.152   0.138
  359HECX    H6 2181   0.972   6.117   2.696
  359HECX    O2 2182   0.977   6.151   2.797
  359HECX    C2 2183   1.072   6.068   2.868
  359HECX    C1 2184   1.161   6.150   2.962
  359HECX    O1 2185   1.237   6.070   3.056
  359HECX    H1 2186   1.299   6.132   3.104
  360HECX    H6 2187   5.609   6.127   0.670
  360HECX    O2 2188   5.665   6.217   0.660
  360HECX    C2 2189   5.637   6.304   0.772
  360HECX    C1 2190   5.489   6.340   0.787
  360HECX    O1 2191   5.459   6.436   0.891
  360HECX    H1 2192   5.353   6.447   0.894
  361HECX    H6 2193   3.525   0.393   2.682
  361HECX    O2 2194   3.506   0.299   2.726
  361HECX    C2 2195   3.372   0.261   2.693
  361HECX    C1 2196   3.267   0.349   2.762
  361HECX    O1 2197   3.133   0.328   2.711
  361HECX    H1 2198   3.087   0.256   2.768
  362HECX    H6 2199   1.401   0.501   2.318
  362HECX    O2 2200   1.312   0.525   2.371
  362HECX    C2 2201   1.355   0.605   2.484
  362HECX    C1 2202   1.260   0.609   2.604
  362HECX    O1 2203   1.318   0.677   2.718
  362HECX    H1 2204   1.238   0.707   2.779
  363HECX    H6 2205   5.585   2.764   4.954
  363HECX    O2 2206   5.684   2.804   4.963
  363HECX    C2 2207   5.776   2.698   4.930
  363HECX    C1 2208   5.919   2.729   4.979
  363HECX    O1 2209   6.015   2.629   4.941
  363HECX    H1 2210   6.105   2.647   4.996
  364HECX    H6 2211   3.778   4.342   6.498
  364HECX    O2 2212   3.705   4.359   0.076
  364HECX    C2 2213   3.769   4.336   0.203
  364HECX    C1 2214   3.687   4.391   0.321
  364HECX    O1 2215   3.754   4.379   0.448
  364HECX    H1 2216   3.685   4.390   0.518
  365HECX    H6 2217   6.467   6.494   6.156
  365HECX    O2 2218   0.066   6.479   6.192
  365HECX    C2 2219   0.143   6.424   6.082
  365HECX    C1 2220   0.185   6.278   6.102
  365HECX    O1 2221   0.276   6.232   5.999
  365HECX    H1 2222   0.322   6.142   6.034
  366HECX    H6 2223   5.292   5.845   0.002
  366HECX    O2 2224   5.384   5.889   6.471
  366HECX    C2 2225   5.434   5.820   6.354
  366HECX    C1 2226   5.561   5.885   6.297
  366HECX    O1 2227   5.627   5.805   6.197
  366HECX    H1 2228   5.619   5.853   6.103
  367HECX    H6 2229   2.280   4.479   5.099
  367HECX    O2 2230   2.275   4.554   5.175
  367HECX    C2 2231   2.270   4.680   5.106
  367HECX    C1 2232   2.308   4.804   5.189
  367HECX    O1 2233   2.209   4.842   5.288
  367HECX    H1 2234   2.227   4.786   5.376
  368HECX    H6 2235   2.795   3.961   5.514
  368HECX    O2 2236   2.870   4.024   5.479
  368HECX    C2 2237   2.815   4.157   5.487
  368HECX    C1 2238   2.906   4.263   5.549
  368HECX    O1 2239   2.851   4.396   5.539
  368HECX    H1 2240   2.921   4.464   5.586
  369HECX    H6 2241   2.353   4.609   4.526
  369HECX    O2 2242   2.346   4.641   4.625
  369HECX    C2 2243   2.473   4.622   4.690
  369HECX    C1 2244   2.492   4.708   4.816
  369HECX    O1 2245   2.628   4.711   4.865
  369HECX    H1 2246   2.628   4.759   4.957
  370HECX    H6 2247   0.948   5.567   3.207
  370HECX    O2 2248   0.915   5.585   3.306
  370HECX    C2 2249   0.802   5.674   3.297
  370HECX    C1 2250   0.699   5.652   3.408
  370HECX    O1 2251   0.571   5.713   3.379
  370HECX    H1 2252   0.495   5.657   3.429
  371HECX    H6 2253   5.358   3.450   4.735
  371HECX    O2 2254   5.361   3.554   4.726
  371HECX    C2 2255   5.300   3.589   4.600
  371HECX    C1 2256   5.151   3.551   4.592
  371HECX    O1 2257   5.100   3.532   4.458
  371HECX    H1 2258   5.068   3.627   4.416
  372HECX    H6 2259   3.347   6.390   0.269
  372HECX    O2 2260   3.258   6.395   0.315
  372HECX    C2 2261   3.210   6.260   0.329
  372HECX    C1 2262   3.073   6.251   0.398
  372HECX    O1 2263   3.027   6.115   0.403
  372HECX    H1 2264   2.925   6.114   0.438
  373HECX    H6 2265   5.899   2.240   2.892
  373HECX    O2 2266   5.909   2.132   2.880
  373HECX    C2 2267   5.898   2.070   3.010
  373HECX    C1 2268   6.029   2.005   3.056
  373HECX    O1 2269   6.004   1.912   3.162
  373HECX    H1 2270   6.093   1.890   3.211
  374HECX    H6 2271   5.870   6.251   4.991
  374HECX    O2 2272   5.800   6.329   4.977
  374HECX    C2 2273   5.874   6.451   4.956
  374HECX    C1 2274   5.780   0.072   4.956
  374HECX    O1 2275   5.843   0.194   4.911
  374HECX    H1 2276   5.767   0.270   4.912
  375HECX    H6 2277   0.911   4.976   1.002
  375HECX    O2 2278   0.939   5.019   1.099
  375HECX    C2 2279   0.922   4.914   1.197
  375HECX    C1 2280   0.967   4.951   1.340
  375HECX    O1 2281   0.966   4.838   1.430
  375HECX    H1 2282   0.906   4.863   1.516
  376HECX    H6 2283   1.587   0.576   6.310
  376HECX    O2 2284   1.601   0.659   6.242
  376HECX    C2 2285   1.518   0.636   6.127
  376HECX    C1 2286   1.558   0.718   6.003
  376HECX    O1 2287   1.507   0.853   6.002
  376HECX    H1 2288   1.587   0.919   5.983
  377HECX    H6 2289   2.711   3.224   5.172
  377HECX    O2 2290   2.789   3.156   5.142
  377HECX    C2 2291   2.745   3.019   5.144
  377HECX    C1 2292   2.842   2.929   5.068
  377HECX    O1 2293   2.807   2.790   5.080
  377HECX    H1 2294   2.742   2.762   5.003
  378HECX    H6 2295   4.389   1.900   5.807
  378HECX    O2 2296   4.371   2.002   5.795
  378HECX    C2 2297   4.497   2.069   5.772
  378HECX    C1 2298   4.601   1.994   5.687
  378HECX    O1 2299   4.568   1.972   5.548
  378HECX    H1 2300   4.663   1.964   5.499
  379HECX    H6 2301   5.503   5.297   4.710
  379HECX    O2 2302   5.442   5.278   4.793
  379HECX    C2 2303   5.307   5.256   4.743
  379HECX    C1 2304   5.255   5.368   4.652
  379HECX    O1 2305   5.161   5.321   4.553
  379HECX    H1 2306   5.194   5.353   4.460
  380HECX    H6 2307   3.479   3.476   5.947
  380HECX    O2 2308   3.481   3.396   6.016
  380HECX    C2 2309   3.456   3.452   6.147
  380HECX    C1 2310   3.580   3.518   6.210
  380HECX    O1 2311   3.550   3.576   6.338
  380HECX    H1 2312   3.639   3.613   6.382
  381HECX    H6 2313   4.680   0.913   1.111
  381HECX    O2 2314   4.708   0.827   1.056
  381HECX    C2 2315   4.710   0.717   1.149
  381HECX    C1 2316   4.747   0.584   1.083
  381HECX    O1 2317   4.741   0.473   1.175
  381HECX    H1 2318   4.639   0.459   1.201
  382HECX    H6 2319   1.395   5.479   3.466
  382HECX    O2 2320   1.447   5.571   3.450
  382HECX    C2 2321   1.361   5.680   3.491
  382HECX    C1 2322   1.268   5.729   3.379
  382HECX    O1 2323   1.188   5.842   3.420
  382HECX    H1 2324   1.134   5.875   3.334
  383HECX    H6 2325   5.615   5.162   4.181
  383HECX    O2 2326   5.528   5.132   4.130
  383HECX    C2 2327   5.453   5.254   4.110
  383HECX    C1 2328   5.318   5.235   4.041
  383HECX    O1 2329   5.253   5.363   4.021
  383HECX    H1 2330   5.307   5.414   3.941
  384HECX    H6 2331   2.571   0.426   5.647
  384HECX    O2 2332   2.524   0.473   5.563
  384HECX    C2 2333   2.389   0.511   5.596
  384HECX    C1 2334   2.316   0.566   5.473
  384HECX    O1 2335   2.178   0.605   5.497
  384HECX    H1 2336   2.149   0.663   5.414
  385HECX    H6 2337   3.251   5.852   0.739
  385HECX    O2 2338   3.279   5.823   0.642
  385HECX    C2 2339   3.343   5.694   0.643
  385HECX    C1 2340   3.495   5.697   0.665
  385HECX    O1 2341   3.572   5.768   0.564
  385HECX    H1 2342   3.605   5.698   0.491
  386HECX    H6 2343   3.502   6.026   4.708
  386HECX    O2 2344   3.603   6.058   4.695
  386HECX    C2 2345   3.671   6.036   4.820
  386HECX    C1 2346   3.804   6.110   4.833
  386HECX    O1 2347   3.863   6.091   4.964
  386HECX    H1 2348   3.892   5.989   4.970
  387HECX    H6 2349   1.613   3.928   2.249
  387HECX    O2 2350   1.673   4.008   2.287
  387HECX    C2 2351   1.739   3.959   2.405
  387HECX    C1 2352   1.823   4.068   2.474
  387HECX    O1 2353   1.873   4.030   2.603
  387HECX    H1 2354   1.792   4.029   2.671
  388HECX    H6 2355   4.206   1.143   2.899
  388HECX    O2 2356   4.307   1.129   2.872
  388HECX    C2 2357   4.385   1.247   2.901
  388HECX    C1 2358   4.534   1.227   2.869
  388HECX    O1 2359   4.617   1.343   2.891
  388HECX    H1 2360   4.599   1.416   2.814
  389HECX    H6 2361   3.672   5.664   0.079
  389HECX    O2 2362   3.649   5.745   0.147
  389HECX    C2 2363   3.725   5.861   0.104
  389HECX    C1 2364   3.823   5.907   0.212
  389HECX    O1 2365   3.847   6.049   0.207
  389HECX    H1 2366   3.757   6.096   0.227
  390HECX    H6 2367   5.497   5.301   0.884
  390HECX    O2 2368   5.438   5.308   0.970
  390HECX    C2 2369   5.405   5.177   1.019
  390HECX    C1 2370   5.298   5.191   1.128
  390HECX    O1 2371   5.265   5.073   1.204
  390HECX    H1 2372   5.230   5.109   1.297
  391HECX    H6 2373   0.126   5.947   5.091
  391HECX    O2 2374   0.146   5.845   5.069
  391HECX    C2 2375   0.289   5.825   5.065
  391HECX    C1 2376   0.333   5.746   4.941
  391HECX    O1 2377   0.476   5.730   4.930
  391HECX    H1 2378   0.507   5.665   5.006
  392HECX    H6 2379   1.268   5.054   5.875
  392HECX    O2 2380   1.234   5.048   5.775
  392HECX    C2 2381   1.146   4.935   5.761
  392HECX    C1 2382   1.119   4.901   5.613
  392HECX    O1 2383   1.027   4.792   5.595
  392HECX    H1 2384   1.043   4.751   5.500
  393HECX    H6 2385   3.550   6.258   5.102
  393HECX    O2 2386   3.455   6.297   5.086
  393HECX    C2 2387   3.436   6.309   4.943
  393HECX    C1 2388   3.521   6.418   4.873
  393HECX    O1 2389   3.662   6.388   4.869
  393HECX    H1 2390   3.717   6.473   4.838
  394HECX    H6 2391   1.819   0.745   3.898
  394HECX    O2 2392   1.800   0.848   3.916
  394HECX    C2 2393   1.766   0.908   3.790
  394HECX    C1 2394   1.742   1.059   3.796
  394HECX    O1 2395   1.860   1.138   3.817
  394HECX    H1 2396   1.893   1.125   3.915
  395HECX    H6 2397   0.044   2.351   5.869
  395HECX    O2 2398   0.102   2.265   5.871
  395HECX    C2 2399   0.219   2.291   5.950
  395HECX    C1 2400   0.324   2.180   5.934
  395HECX    O1 2401   0.454   2.220   5.983
  395HECX    H1 2402   0.503   2.267   5.904
  396HECX    H6 2403   5.266   6.271   4.058
  396HECX    O2 2404   5.195   6.315   3.992
  396HECX    C2 2405   5.100   6.388   4.074
  396HECX    C1 2406   5.160   0.013   4.140
  396HECX    O1 2407   5.172   0.125   4.051
  396HECX    H1 2408   5.232   0.199   4.098
  397HECX    H6 2409   5.757   0.553   3.485
  397HECX    O2 2410   5.823   0.634   3.470
  397HECX    C2 2411   5.927   0.586   3.382
  397HECX    C1 2412   5.991   0.695   3.295
  397HECX    O1 2413   6.080   0.641   3.196
  397HECX    H1 2414   6.167   0.696   3.198
  398HECX    H6 2415   6.224   0.252   3.256
  398HECX    O2 2416   6.228   0.321   3.340
  398HECX    C2 2417   6.150   0.265   3.447
  398HECX    C1 2418   6.170   0.340   3.579
  398HECX    O1 2419   6.086   0.289   3.685
  398HECX    H1 2420   6.091   0.359   3.764
  399HECX    H6 2421   5.155   1.305   5.727
  399HECX    O2 2422   5.065   1.312   5.668
  399HECX    C2 2423   4.972   1.213   5.717
  399HECX    C1 2424   4.826   1.257   5.697
  399HECX    O1 2425   4.730   1.149   5.701
  399HECX    H1 2426   4.690   1.140   5.604
  400HECX    H6 2427   4.299   3.968   6.034
  400HECX    O2 2428   4.276   3.868   6.068
  400HECX    C2 2429   4.190   3.883   6.184
  400HECX    C1 2430   4.268   3.898   6.315
  400HECX    O1 2431   4.192   3.860   6.432
  400HECX    H1 2432   4.264   3.831   0.006
  401HECX    H6 2433   6.141   0.452   5.121
  401HECX    O2 2434   6.051   0.454   5.175
  401HECX    C2 2435   6.033   0.321   5.231
  401HECX    C1 2436   5.887   0.283   5.257
  401HECX    O1 2437   5.873   0.143   5.289
  401HECX    H1 2438   5.789   0.128   5.347
  402HECX    H6 2439   2.409   3.584   2.012
  402HECX    O2 2440   2.483   3.651   2.023
  402HECX    C2 2441   2.530   3.635   2.158
  402HECX    C1 2442   2.666   3.700   2.185
  402HECX    O1 2443   2.716   3.668   2.317
  402HECX    H1 2444   2.771   3.753   2.353
  403HECX    H6 2445   3.869   0.340   0.966
  403HECX    O2 2446   3.928   0.427   0.945
  403HECX    C2 2447   3.841   0.540   0.970
  403HECX    C1 2448   3.833   0.578   1.118
  403HECX    O1 2449   3.725   0.669   1.146
  403HECX    H1 2450   3.758   0.769   1.135
  404HECX    H6 2451   3.393   1.066   3.986
  404HECX    O2 2452   3.463   1.133   4.030
  404HECX    C2 2453   3.594   1.088   3.990
  404HECX    C1 2454   3.707   1.141   4.079
  404HECX    O1 2455   3.833   1.075   4.052
  404HECX    H1 2456   3.814   0.971   4.057
  405HECX    H6 2457   5.706   4.915   6.106
  405HECX    O2 2458   5.797   4.925   6.052
  405HECX    C2 2459   5.835   5.064   6.057
  405HECX    C1 2460   5.963   5.095   5.979
  405HECX    O1 2461   6.037   5.203   6.040
  405HECX    H1 2462   6.046   5.281   5.973
  406HECX    H6 2463   0.189   6.276   5.397
  406HECX    O2 2464   0.138   6.221   5.474
  406HECX    C2 2465   0.205   6.253   5.598
  406HECX    C1 2466   0.119   6.333   5.696
  406HECX    O1 2467   0.110   6.473   5.662
  406HECX    H1 2468   0.188   0.023   5.715
  407HECX    H6 2469   3.939   2.606   0.155
  407HECX    O2 2470   3.865   2.685   0.169
  407HECX    C2 2471   3.733   2.631   0.142
  407HECX    C1 2472   3.731   2.527   0.030
  407HECX    O1 2473   3.672   2.401   0.069
  407HECX    H1 2474   3.744   2.341   0.120
  408HECX    H6 2475   6.401   3.737   1.859
  408HECX    O2 2476   6.359   3.697   1.771
  408HECX    C2 2477   6.301   3.569   1.803
  408HECX    C1 2478   6.214   3.510   1.691
  408HECX    O1 2479   6.090   3.581   1.667
  408HECX    H1 2480   6.010   3.512   1.687
  409HECX    H6 2481   5.414   1.579   0.482
  409HECX    O2 2482   5.338   1.502   0.486
  409HECX    C2 2483   5.402   1.372   0.490
  409HECX    C1 2484   5.303   1.256   0.476
  409HECX    O1 2485   5.353   1.135   0.537
  409HECX    H1 2486   5.296   1.050   0.502
  410HECX    H6 2487   0.386   3.422   2.782
  410HECX    O2 2488   0.303   3.488   2.784
  410HECX    C2 2489   0.298   3.550   2.654
  410HECX    C1 2490   0.160   3.607   2.618
  410HECX    O1 2491   0.156   3.662   2.485
  410HECX    H1 2492   0.057   3.696   2.465
  411HECX    H6 2493   1.815   6.135   4.674
  411HECX    O2 2494   1.785   6.152   4.574
  411HECX    C2 2495   1.658   6.220   4.573
  411HECX    C1 2496   1.668   6.367   4.616
  411HECX    O1 2497   1.543   6.436   4.602
  411HECX    H1 2498   1.534   0.008   4.682
  412HECX    H6 2499   3.661   2.767   5.568
  412HECX    O2 2500   3.628   2.834   5.503
  412HECX    C2 2501   3.518   2.908   5.559
  412HECX    C1 2502   3.553   2.983   5.688
  412HECX    O1 2503   3.457   3.086   5.721
  412HECX    H1 2504   3.468   3.112   5.826
  413HECX    H6 2505   3.222   6.008   1.754
  413HECX    O2 2506   3.190   5.996   1.652
  413HECX    C2 2507   3.300   6.031   1.565
  413HECX    C1 2508   3.335   6.180   1.570
  413HECX    O1 2509   3.447   6.216   1.486
  413HECX    H1 2510   3.455   6.323   1.491
  414HECX    H6 2511   5.427   1.921   3.351
  414HECX    O2 2512   5.407   1.889   3.449
  414HECX    C2 2513   5.535   1.872   3.515
  414HECX    C1 2514   5.523   1.824   3.661
  414HECX    O1 2515   5.652   1.793   3.719
  414HECX    H1 2516   5.669   1.859   3.798
  415HECX    H6 2517   0.712   1.288   5.340
  415HECX    O2 2518   0.797   1.225   5.324
  415HECX    C2 2519   0.916   1.307   5.323
  415HECX    C1 2520   1.047   1.227   5.317
  415HECX    O1 2521   1.160   1.316   5.301
  415HECX    H1 2522   1.251   1.264   5.305
  416HECX    H6 2523   0.003   4.085   4.772
  416HECX    O2 2524   0.095   4.060   4.729
  416HECX    C2 2525   0.165   3.979   4.825
  416HECX    C1 2526   0.250   3.871   4.758
  416HECX    O1 2527   0.317   3.786   4.853
  416HECX    H1 2528   0.408   3.833   4.880
  417HECX    H6 2529   2.955   1.902   2.235
  417HECX    O2 2530   2.940   1.941   2.332
  417HECX    C2 2531   2.924   2.084   2.321
  417HECX    C1 2532   2.962   2.162   2.448
  417HECX    O1 2533   2.913   2.298   2.444
  417HECX    H1 2534   2.962   2.358   2.519
  418HECX    H6 2535   6.340   0.573   6.345
  418HECX    O2 2536   6.442   0.596   6.320
  418HECX    C2 2537   6.500   0.483   6.253
  418HECX    C1 2538   0.137   0.520   6.194
  418HECX    O1 2539   0.204   0.411   6.128
  418HECX    H1 2540   0.306   0.441   6.116
  419HECX    H6 2541   5.931   6.428   3.719
  419HECX    O2 2542   5.838   6.380   3.743
  419HECX    C2 2543   5.795   6.309   3.624
  419HECX    C1 2544   5.646   6.328   3.592
  419HECX    O1 2545   5.610   6.290   3.458
  419HECX    H1 2546   5.506   6.294   3.450
  420HECX    H6 2547   0.228   5.650   5.477
  420HECX    O2 2548   0.216   5.722   5.553
  420HECX    C2 2549   0.177   5.653   5.674
  420HECX    C1 2550   0.297   5.599   5.752
  420HECX    O1 2551   0.261   5.550   5.883
  420HECX    H1 2552   0.227   5.632   5.944
  421HECX    H6 2553   4.822   5.712   0.442
  421HECX    O2 2554   4.722   5.715   0.471
  421HECX    C2 2555   4.694   5.851   0.510
  421HECX    C1 2556   4.573   5.868   0.603
  421HECX    O1 2557   4.584   5.795   0.727
  421HECX    H1 2558   4.507   5.825   0.792
  422HECX    H6 2559   0.139   4.996   4.790
  422HECX    O2 2560   0.117   4.892   4.799
  422HECX    C2 2561   6.485   4.881   4.856
  422HECX    C1 2562   6.443   4.738   4.895
  422HECX    O1 2563   6.407   4.654   4.783
  422HECX    H1 2564   6.461   4.562   4.792
  423HECX    H6 2565   0.205   4.370   3.369
  423HECX    O2 2566   0.243   4.271   3.351
  423HECX    C2 2567   0.253   4.202   3.477
  423HECX    C1 2568   0.319   4.283   3.589
  423HECX    O1 2569   0.318   4.213   3.715
  423HECX    H1 2570   0.348   4.280   3.791
  424HECX    H6 2571   0.173   0.752   4.166
  424HECX    O2 2572   0.201   0.650   4.159
  424HECX    C2 2573   0.208   0.595   4.292
  424HECX    C1 2574   0.315   0.487   4.304
  424HECX    O1 2575   0.331   0.436   4.439
  424HECX    H1 2576   0.237   0.392   4.472
  425HECX    H6 2577   4.454   1.378   5.766
  425HECX    O2 2578   4.396   1.411   5.682
  425HECX    C2 2579   4.486   1.462   5.580
  425HECX    C1 2580   4.413   1.509   5.453
  425HECX    O1 2581   4.452   1.435   5.335
  425HECX    H1 2582   4.455   1.503   5.253
  426HECX    H6 2583   1.598   0.729   1.758
  426HECX    O2 2584   1.548   0.683   1.836
  426HECX    C2 2585   1.633   0.687   1.953
  426HECX    C1 2586   1.747   0.584   1.951
  426HECX    O1 2587   1.851   0.611   2.048
  426HECX    H1 2588   1.897   0.518   2.075
  427HECX    H6 2589   1.267   5.931   0.862
  427HECX    O2 2590   1.349   5.944   0.918
  427HECX    C2 2591   1.315   5.897   1.050
  427HECX    C1 2592   1.437   5.879   1.141
  427HECX    O1 2593   1.406   5.838   1.276
  427HECX    H1 2594   1.495   5.837   1.327
  428HECX    H6 2595   4.990   6.373   5.776
  428HECX    O2 2596   5.012   6.294   5.847
  428HECX    C2 2597   5.152   6.260   5.839
  428HECX    C1 2598   5.182   6.116   5.884
  428HECX    O1 2599   5.322   6.098   5.916
  428HECX    H1 2600   5.337   6.137   6.014
  429HECX    H6 2601   0.275   0.589   2.433
  429HECX    O2 2602   0.194   0.657   2.439
  429HECX    C2 2603   0.246   0.790   2.414
  429HECX    C1 2604   0.299   0.813   2.271
  429HECX    O1 2605   0.364   0.942   2.263
  429HECX    H1 2606   0.401   0.958   2.168
  430HECX    H6 2607   1.444   3.121   1.178
  430HECX    O2 2608   1.443   3.140   1.075
  430HECX    C2 2609   1.576   3.175   1.033
  430HECX    C1 2610   1.596   3.176   0.881
  430HECX    O1 2611   1.734   3.199   0.847
  430HECX    H1 2612   1.758   3.144   0.762
  431HECX    H6 2613   3.067   4.484   1.189
  431HECX    O2 2614   3.157   4.539   1.199
  431HECX    C2 2615   3.181   4.567   1.338
  431HECX    C1 2616   3.068   4.643   1.408
  431HECX    O1 2617   3.104   4.691   1.539
  431HECX    H1 2618   3.076   4.794   1.544
  432HECX    H6 2619   2.203   4.785   2.251
  432HECX    O2 2620   2.209   4.859   2.328
  432HECX    C2 2621   2.213   4.791   2.455
  432HECX    C1 2622   2.207   4.887   2.575
  432HECX    O1 2623   2.215   4.822   2.703
  432HECX    H1 2624   2.231   4.896   2.775
  433HECX    H6 2625   0.399   4.665   5.749
  433HECX    O2 2626   0.329   4.598   5.791
  433HECX    C2 2627   0.246   4.669   5.885
  433HECX    C1 2628   0.321   4.748   5.994
  433HECX    O1 2629   0.233   4.837   6.064
  433HECX    H1 2630   0.197   4.908   5.996
  434HECX    H6 2631   0.894   5.840   4.918
  434HECX    O2 2632   0.916   5.875   4.822
  434HECX    C2 2633   0.904   6.019   4.825
  434HECX    C1 2634   0.924   6.088   4.689
  434HECX    O1 2635   0.880   6.225   4.695
  434HECX    H1 2636   0.900   6.271   4.606
  435HECX    H6 2637   0.970   4.862   0.848
  435HECX    O2 2638   0.888   4.926   0.877
  435HECX    C2 2639   0.802   4.937   0.761
  435HECX    C1 2640   0.726   4.807   0.725
  435HECX    O1 2641   0.688   4.803   0.585
  435HECX    H1 2642   0.584   4.809   0.573
  436HECX    H6 2643   5.829   2.789   1.140
  436HECX    O2 2644   5.831   2.869   1.206
  436HECX    C2 2645   5.969   2.895   1.240
  436HECX    C1 2646   6.020   2.808   1.355
  436HECX    O1 2647   6.130   2.721   1.317
  436HECX    H1 2648   6.223   2.774   1.332
  437HECX    H6 2649   2.088   3.200   1.009
  437HECX    O2 2650   2.189   3.226   1.023
  437HECX    C2 2651   2.235   3.149   1.135
  437HECX    C1 2652   2.180   3.200   1.269
  437HECX    O1 2653   2.237   3.129   1.381
  437HECX    H1 2654   2.157   3.096   1.442
  438HECX    H6 2655   4.885   0.988   6.190
  438HECX    O2 2656   4.782   1.013   6.196
  438HECX    C2 2657   4.740   1.080   6.076
  438HECX    C1 2658   4.651   0.993   5.986
  438HECX    O1 2659   4.587   1.068   5.880
  438HECX    H1 2660   4.660   1.095   5.805
  439HECX    H6 2661   6.308   2.157   0.333
  439HECX    O2 2662   6.405   2.195   0.347
  439HECX    C2 2663   6.396   2.307   0.437
  439HECX    C1 2664   0.003   2.414   0.414
  439HECX    O1 2665   6.482   2.527   0.502
  439HECX    H1 2666   0.033   2.614   0.463
  440HECX    H6 2667   4.260   1.135   1.687
  440HECX    O2 2668   4.223   1.069   1.611
  440HECX    C2 2669   4.084   1.100   1.588
  440HECX    C1 2670   4.060   1.234   1.518
  440HECX    O1 2671   3.920   1.262   1.499
  440HECX    H1 2672   3.909   1.359   1.462
  441HECX    H6 2673   0.480   1.634   3.689
  441HECX    O2 2674   0.572   1.673   3.727
  441HECX    C2 2675   0.556   1.817   3.732
  441HECX    C1 2676   0.663   1.890   3.814
  441HECX    O1 2677   0.634   2.031   3.826
  441HECX    H1 2678   0.678   2.082   3.745
  442HECX    H6 2679   2.106   3.940   5.467
  442HECX    O2 2680   2.053   3.889   5.388
  442HECX    C2 2681   1.948   3.974   5.338
  442HECX    C1 2682   1.825   3.988   5.430
  442HECX    O1 2683   1.746   3.868   5.447
  442HECX    H1 2684   1.684   3.883   5.531
  443HECX    H6 2685   5.083   0.922   2.295
  443HECX    O2 2686   5.103   0.824   2.270
  443HECX    C2 2687   5.247   0.809   2.279
  443HECX    C1 2688   5.295   0.715   2.391
  443HECX    O1 2689   5.425   0.754   2.441
  443HECX    H1 2690   5.486   0.670   2.456
  444HECX    H6 2691   3.573   2.694   2.624
  444HECX    O2 2692   3.577   2.697   2.731
  444HECX    C2 2693   3.703   2.639   2.770
  444HECX    C1 2694   3.705   2.487   2.750
  444HECX    O1 2695   3.838   2.431   2.756
  444HECX    H1 2696   3.888   2.455   2.665
  445HECX    H6 2697   4.644   0.626   4.682
  445HECX    O2 2698   4.649   0.699   4.757
  445HECX    C2 2699   4.580   0.817   4.711
  445HECX    C1 2700   4.658   0.887   4.599
  445HECX    O1 2701   4.592   1.004   4.545
  445HECX    H1 2702   4.558   1.064   4.627
  446HECX    H6 2703   0.152   3.483   0.214
  446HECX    O2 2704   0.254   3.508   0.228
  446HECX    C2 2705   0.337   3.391   0.210
  446HECX    C1 2706   0.298   3.301   0.092
  446HECX    O1 2707   0.377   3.181   0.085
  446HECX    H1 2708   0.353   3.131   6.495
  447HECX    H6 2709   3.452   0.137   5.157
  447HECX    O2 2710   3.542   0.191   5.155
  447HECX    C2 2711   3.651   0.097   5.161
  447HECX    C1 2712   3.665   0.028   5.298
  447HECX    O1 2713   3.748   6.410   5.297
  447HECX    H1 2714   3.779   6.394   5.394
  448HECX    H6 2715   1.801   2.783   3.163
  448HECX    O2 2716   1.702   2.755   3.143
  448HECX    C2 2717   1.704   2.623   3.083
  448HECX    C1 2718   1.684   2.627   2.931
  448HECX    O1 2719   1.689   2.495   2.870
  448HECX    H1 2720   1.779   2.449   2.905
  449HECX    H6 2721   0.769   4.258   3.886
  449HECX    O2 2722   0.783   4.238   3.782
  449HECX    C2 2723   0.668   4.168   3.730
  449HECX    C1 2724   0.696   4.118   3.588
  449HECX    O1 2725   0.585   4.051   3.524
  449HECX    H1 2726   0.619   4.017   3.438
  450HECX    H6 2727   5.428   0.245   5.946
  450HECX    O2 2728   5.351   0.297   5.896
  450HECX    C2 2729   5.401   0.427   5.860
  450HECX    C1 2730   5.404   0.452   5.708
  450HECX    O1 2731   5.419   0.592   5.681
  450HECX    H1 2732   5.401   0.613   5.578
  451HECX    H6 2733   4.486   0.876   2.826
  451HECX    O2 2734   4.557   0.881   2.750
  451HECX    C2 2735   4.682   0.829   2.800
  451HECX    C1 2736   4.749   0.730   2.703
  451HECX    O1 2737   4.855   0.786   2.622
  451HECX    H1 2738   4.811   0.856   2.552
  452HECX    H6 2739   1.239   3.654   4.438
  452HECX    O2 2740   1.268   3.633   4.539
  452HECX    C2 2741   1.374   3.536   4.529
  452HECX    C1 2742   1.513   3.599   4.544
  452HECX    O1 2743   1.618   3.500   4.544
  452HECX    H1 2744   1.613   3.446   4.635
  453HECX    H6 2745   1.754   0.871   1.722
  453HECX    O2 2746   1.823   0.909   1.788
  453HECX    C2 2747   1.765   1.029   1.844
  453HECX    C1 2748   1.805   1.049   1.991
  453HECX    O1 2749   1.771   1.183   2.033
  453HECX    H1 2750   1.674   1.180   2.069
  454HECX    H6 2751   3.145   4.399   3.139
  454HECX    O2 2752   3.157   4.334   3.227
  454HECX    C2 2753   3.152   4.198   3.179
  454HECX    C1 2754   3.259   4.109   3.243
  454HECX    O1 2755   3.244   3.971   3.205
  454HECX    H1 2756   3.321   3.914   3.252
  455HECX    H6 2757   6.118   4.118   3.284
  455HECX    O2 2758   6.188   4.097   3.362
  455HECX    C2 2759   6.155   3.969   3.419
  455HECX    C1 2760   6.257   3.924   3.524
  455HECX    O1 2761   6.232   3.792   3.578
  455HECX    H1 2762   6.301   3.775   3.657
  456HECX    H6 2763   0.762   0.682   4.374
  456HECX    O2 2764   0.814   0.660   4.467
  456HECX    C2 2765   0.891   0.540   4.449
  456HECX    C1 2766   0.886   0.447   4.571
  456HECX    O1 2767   0.987   0.344   4.569
  456HECX    H1 2768   1.081   0.391   4.594
  457HECX    H6 2769   0.413   5.141   4.635
  457HECX    O2 2770   0.412   5.232   4.694
  457HECX    C2 2771   0.536   5.234   4.769
  457HECX    C1 2772   0.558   5.361   4.854
  457HECX    O1 2773   0.472   5.372   4.969
  457HECX    H1 2774   0.504   5.453   5.024
  458HECX    H6 2775   0.984   4.573   1.039
  458HECX    O2 2776   0.984   4.562   0.932
  458HECX    C2 2777   0.962   4.423   0.902
  458HECX    C1 2778   0.947   4.397   0.751
  458HECX    O1 2779   0.949   4.255   0.724
  458HECX    H1 2780   1.049   4.220   0.732
  459HECX    H6 2781   3.984   2.549   3.962
  459HECX    O2 2782   3.953   2.631   4.021
  459HECX    C2 2783   3.824   2.674   3.973
  459HECX    C1 2784   3.766   2.792   4.053
  459HECX    O1 2785   3.641   2.839   3.998
  459HECX    H1 2786   3.585   2.881   4.074
  460HECX    H6 2787   2.745   1.178   3.576
  460HECX    O2 2788   2.750   1.089   3.521
  460HECX    C2 2789   2.764   0.981   3.617
  460HECX    C1 2790   2.633   0.902   3.632
  460HECX    O1 2791   2.622   0.837   3.761
  460HECX    H1 2792   2.586   0.909   3.829
  461HECX    H6 2793   4.329   1.246   2.560
  461HECX    O2 2794   4.398   1.325   2.541
  461HECX    C2 2795   4.325   1.443   2.499
  461HECX    C1 2796   4.236   1.508   2.607
  461HECX    O1 2797   4.307   1.563   2.720
  461HECX    H1 2798   4.240   1.568   2.803
  462HECX    H6 2799   0.578   0.217   6.115
  462HECX    O2 2800   0.570   0.257   6.019
  462HECX    C2 2801   0.682   0.215   5.939
  462HECX    C1 2802   0.635   0.179   5.797
  462HECX    O1 2803   0.738   0.152   5.700
  462HECX    H1 2804   0.690   0.145   5.608
  463HECX    H6 2805   4.757   1.520   3.570
  463HECX    O2 2806   4.705   1.612   3.573
  463HECX    C2 2807   4.661   1.648   3.440
  463HECX    C1 2808   4.612   1.793   3.435
  463HECX    O1 2809   4.541   1.827   3.314
  463HECX    H1 2810   4.612   1.825   3.233
  464HECX    H6 2811   0.359   0.852   5.216
  464HECX    O2 2812   0.462   0.848   5.246
  464HECX    C2 2813   0.536   0.962   5.196
  464HECX    C1 2814   0.687   0.942   5.213
  464HECX    O1 2815   0.767   1.049   5.158
  464HECX    H1 2816   0.779   1.123   5.236
  465HECX    H6 2817   4.196   2.235   1.493
  465HECX    O2 2818   4.120   2.177   1.535
  465HECX    C2 2819   4.047   2.119   1.426
  465HECX    C1 2820   3.899   2.157   1.430
  465HECX    O1 2821   3.832   2.125   1.307
  465HECX    H1 2822   3.728   2.124   1.322
  466HECX    H6 2823   4.753   5.177   5.780
  466HECX    O2 2824   4.825   5.134   5.717
  466HECX    C2 2825   4.897   5.035   5.793
  466HECX    C1 2826   5.006   4.965   5.712
  466HECX    O1 2827   5.005   4.822   5.735
  466HECX    H1 2828   5.101   4.792   5.773
  467HECX    H6 2829   0.831   2.910   0.322
  467HECX    O2 2830   0.916   2.845   0.330
  467HECX    C2 2831   0.974   2.860   0.462
  467HECX    C1 2832   1.105   2.781   0.473
  467HECX    O1 2833   1.145   2.751   0.608
  467HECX    H1 2834   1.177   2.842   0.656
  468HECX    H6 2835   5.664   5.376   5.537
  468HECX    O2 2836   5.694   5.415   5.441
  468HECX    C2 2837   5.838   5.416   5.436
  468HECX    C1 2838   5.890   5.426   5.291
  468HECX    O1 2839   6.033   5.446   5.283
  468HECX    H1 2840   6.082   5.359   5.325
  469HECX    H6 2841   5.653   6.442   3.139
  469HECX    O2 2842   5.616   0.032   3.093
  469HECX    C2 2843   5.725   0.082   3.011
  469HECX    C1 2844   5.697   0.215   2.939
  469HECX    O1 2845   5.820   0.279   2.897
  469HECX    H1 2846   5.798   0.362   2.835
  470HECX    H6 2847   0.820   4.389   1.325
  470HECX    O2 2848   0.831   4.488   1.360
  470HECX    C2 2849   0.708   4.525   1.427
  470HECX    C1 2850   0.658   4.668   1.399
  470HECX    O1 2851   0.537   4.698   1.471
  470HECX    H1 2852   0.510   4.796   1.451
  471HECX    H6 2853   1.482   3.638   0.866
  471HECX    O2 2854   1.405   3.619   0.938
  471HECX    C2 2855   1.462   3.525   1.032
  471HECX    C1 2856   1.419   3.545   1.178
  471HECX    O1 2857   1.488   3.454   1.265
  471HECX    H1 2858   1.413   3.395   1.315
  472HECX    H6 2859   4.413   1.308   5.303
  472HECX    O2 2860   4.396   1.207   5.268
  472HECX    C2 2861   4.257   1.193   5.228
  472HECX    C1 2862   4.206   1.310   5.142
  472HECX    O1 2863   4.097   1.274   5.054
  472HECX    H1 2864   4.071   1.359   4.997
  473HECX    H6 2865   0.304   5.502   3.773
  473HECX    O2 2866   0.350   5.443   3.699
  473HECX    C2 2867   0.456   5.370   3.763
  473HECX    C1 2868   0.553   5.305   3.663
  473HECX    O1 2869   0.663   5.242   3.731
  473HECX    H1 2870   0.735   5.216   3.658
  474HECX    H6 2871   3.613   0.333   4.491
  474HECX    O2 2872   3.707   0.284   4.509
  474HECX    C2 2873   3.691   0.195   4.622
  474HECX    C1 2874   3.824   0.169   4.694
  474HECX    O1 2875   3.811   0.076   4.803
  474HECX    H1 2876   3.895   0.091   4.866
  475HECX    H6 2877   3.346   5.940   4.819
  475HECX    O2 2878   3.369   5.986   4.724
  475HECX    C2 2879   3.252   6.064   4.686
  475HECX    C1 2880   3.161   5.994   4.584
  475HECX    O1 2881   3.211   5.997   4.449
  475HECX    H1 2882   3.178   5.908   4.399
  476HECX    H6 2883   5.953   2.247   4.155
  476HECX    O2 2884   6.009   2.303   4.221
  476HECX    C2 2885   6.100   2.211   4.284
  476HECX    C1 2886   6.198   2.275   4.383
  476HECX    O1 2887   6.307   2.185   4.418
  476HECX    H1 2888   6.274   2.119   4.496
  477HECX    H6 2889   6.241   0.543   1.876
  477HECX    O2 2890   6.330   0.566   1.826
  477HECX    C2 2891   6.411   0.639   1.920
  477HECX    C1 2892   0.033   0.705   1.856
  477HECX    O1 2893   0.065   0.832   1.918
  477HECX    H1 2894   0.168   0.848   1.904
  478HECX    H6 2895   3.669   3.973   5.086
  478HECX    O2 2896   3.738   4.040   5.051
  478HECX    C2 2897   3.745   4.147   5.147
  478HECX    C1 2898   3.815   4.101   5.275
  478HECX    O1 2899   3.778   4.177   5.392
  478HECX    H1 2900   3.829   4.270   5.390
  479HECX    H6 2901   4.171   0.354   6.428
  479HECX    O2 2902   4.094   0.276   6.424
  479HECX    C2 2903   3.989   0.312   0.017
  479HECX    C1 2904   3.862   0.225   0.001
  479HECX    O1 2905   3.750   0.274   0.078
  479HECX    H1 2906   3.674   0.211   0.067
  480HECX    H6 2907   6.313   0.025   0.908
  480HECX    O2 2908   6.380   0.079   0.849
  480HECX    C2 2909   6.491   6.493   0.817
  480HECX    C1 2910   0.092   0.055   0.719
  480HECX    O1 2911   0.174   6.456   0.653
  480HECX    H1 2912   0.109   6.386   0.610
  481HECX    H6 2913   4.102   1.305   3.573
  481HECX    O2 2914   4.098   1.293   3.676
  481HECX    C2 2915   4.070   1.154   3.700
  481HECX    C1 2916   3.920   1.118   3.701
  481HECX    O1 2917   3.849   1.129   3.575
  481HECX    H1 2918   3.758   1.074   3.591
  482HECX    H6 2919   1.378   0.648   4.328
  482HECX    O2 2920   1.411   0.550   4.338
  482HECX    C2 2921   1.308   0.474   4.405
  482HECX    C1 2922   1.284   0.531   4.546
  482HECX    O1 2923   1.196   0.455   4.630
  482HECX    H1 2924   1.209   0.492   4.727
  483HECX    H6 2925   6.172   1.296   3.475
  483HECX    O2 2926   6.269   1.252   3.482
  483HECX    C2 2927   6.264   1.143   3.577
  483HECX    C1 2928   6.267   1.182   3.725
  483HECX    O1 2929   6.279   1.066   3.810
  483HECX    H1 2930   6.185   1.038   3.847
  484HECX    H6 2931   5.738   4.890   5.596
  484HECX    O2 2932   5.829   4.854   5.553
  484HECX    C2 2933   5.899   4.776   5.653
  484HECX    C1 2934   6.037   4.729   5.607
  484HECX    O1 2935   6.115   4.674   5.714
  484HECX    H1 2936   6.218   4.670   5.684
  485HECX    H6 2937   0.439   1.744   1.124
  485HECX    O2 2938   0.369   1.792   1.187
  485HECX    C2 2939   0.328   1.697   1.287
  485HECX    C1 2940   0.178   1.663   1.280
  485HECX    O1 2941   0.132   1.606   1.404
  485HECX    H1 2942   0.121   1.686   1.471
  486HECX    H6 2943   4.336   6.063   5.117
  486HECX    O2 2944   4.405   6.141   5.105
  486HECX    C2 2945   4.535   6.085   5.078
  486HECX    C1 2946   4.549   6.038   4.933
  486HECX    O1 2947   4.679   5.984   4.903
  486HECX    H1 2948   4.671   5.938   4.811
  487HECX    H6 2949   3.678   2.836   6.117
  487HECX    O2 2950   3.638   2.908   6.186
  487HECX    C2 2951   3.628   3.034   6.116
  487HECX    C1 2952   3.486   3.062   6.066
  487HECX    O1 2953   3.479   3.155   5.955
  487HECX    H1 2954   3.483   3.256   5.990
  488HECX    H6 2955   4.116   6.054   6.194
  488HECX    O2 2956   4.191   6.113   6.142
  488HECX    C2 2957   4.265   6.188   6.242
  488HECX    C1 2958   4.167   6.271   6.325
  488HECX    O1 2959   4.224   6.373   6.410
  488HECX    H1 2960   4.309   6.419   6.366
  489HECX    H6 2961   6.242   2.190   1.132
  489HECX    O2 2962   6.290   2.271   1.087
  489HECX    C2 2963   6.404   2.312   1.165
  489HECX    C1 2964   0.033   2.320   1.083
  489HECX    O1 2965   0.140   2.391   1.149
  489HECX    H1 2966   0.232   2.370   1.098
  490HECX    H6 2967   4.970   3.841   5.364
  490HECX    O2 2968   5.003   3.908   5.442
  490HECX    C2 2969   5.139   3.872   5.476
  490HECX    C1 2970   5.196   3.944   5.599
  490HECX    O1 2971   5.225   4.084   5.580
  490HECX    H1 2972   5.184   4.134   5.662
  491HECX    H6 2973   2.793   6.224   5.559
  491HECX    O2 2974   2.731   6.140   5.567
  491HECX    C2 2975   2.596   6.184   5.537
  491HECX    C1 2976   2.502   6.067   5.508
  491HECX    O1 2977   2.363   6.103   5.492
  491HECX    H1 2978   2.322   6.116   5.590
  492HECX    H6 2979   0.087   0.056   2.233
  492HECX    O2 2980   0.093   6.489   2.317
  492HECX    C2 2981   6.486   0.021   2.408
  492HECX    C1 2982   0.034   0.014   2.553
  492HECX    O1 2983   6.431   0.018   2.653
  492HECX    H1 2984   6.469   6.463   2.733
  493HECX    H6 2985   0.170   2.727   0.348
  493HECX    O2 2986   0.091   2.731   0.420
  493HECX    C2 2987   0.054   2.870   0.435
  493HECX    C1 2988   0.007   2.905   0.577
  493HECX    O1 2989   6.468   3.043   0.588
  493HECX    H1 2990   6.452   3.065   0.689
  494HECX    H6 2991   1.205   0.003   5.902
  494HECX    O2 2992   1.106   0.036   5.918
  494HECX    C2 2993   1.111   0.179   5.928
  494HECX    C1 2994   1.062   0.232   6.063
  494HECX    O1 2995   1.101   0.369   6.085
  494HECX    H1 2996   1.034   0.432   6.034
  495HECX    H6 2997   0.564   1.537   2.303
  495HECX    O2 2998   0.485   1.599   2.342
  495HECX    C2 2999   0.359   1.530   2.324
  495HECX    C1 3000   0.251   1.628   2.276
  495HECX    O1 3001   0.117   1.577   2.279
  495HECX    H1 3002   0.058   1.648   2.233
  496HECX    H6 3003   1.050   1.519   2.702
  496HECX    O2 3004   1.074   1.612   2.745
  496HECX    C2 3005   1.172   1.677   2.661
  496HECX    C1 3006   1.136   1.824   2.635
  496HECX    O1 3007   1.223   1.886   2.539
  496HECX    H1 3008   1.163   1.937   2.471
  497HECX    H6 3009   1.158   4.103   5.513
  497HECX    O2 3010   1.153   4.071   5.612
  497HECX    C2 3011   1.254   4.135   5.690
  497HECX    C1 3012   1.287   4.056   5.818
  497HECX    O1 3013   1.382   4.124   5.902
  497HECX    H1 3014   1.327   4.187   5.968
  498HECX    H6 3015   3.101   2.422   5.193
  498HECX    O2 3016   3.010   2.376   5.211
  498HECX    C2 3017   2.941   2.447   5.315
  498HECX    C1 3018   2.945   2.600   5.301
  498HECX    O1 3019   2.891   2.669   5.416
  498HECX    H1 3020   2.924   2.616   5.504
  499HECX    H6 3021   1.448   5.328   2.815
  499HECX    O2 3022   1.402   5.410   2.860
  499HECX    C2 3023   1.504   5.504   2.901
  499HECX    C1 3024   1.545   5.603   2.792
  499HECX    O1 3025   1.662   5.679   2.830
  499HECX    H1 3026   1.701   5.724   2.741
  500HECX    H6 3027   5.699   2.565   4.010
  500HECX    O2 3028   5.653   2.625   4.082
  500HECX    C2 3029   5.565   2.544   4.162
  500HECX    C1 3030   5.421   2.596   4.155
  500HECX    O1 3031   5.324   2.514   4.224
  500HECX    H1 3032   5.338   2.526   4.328
  501HECX    H6 3033   5.304   3.481   0.674
  501HECX    O2 3034   5.339   3.390   0.631
  501HECX    C2 3035   5.233   3.338   0.548
  501HECX    C1 3036   5.282   3.231   0.449
  501HECX    O1 3037   5.175   3.158   0.384
  501HECX    H1 3038   5.210   3.063   0.365
  502HECX    H6 3039   1.503   2.926   5.377
  502HECX    O2 3040   1.422   2.962   5.438
  502HECX    C2 3041   1.461   3.088   5.497
  502HECX    C1 3042   1.364   3.135   5.606
  502HECX    O1 3043   1.399   3.263   5.663
  502HECX    H1 3044   1.477   3.248   5.732
  503HECX    H6 3045   2.409   4.309   2.100
  503HECX    O2 3046   2.437   4.408   2.073
  503HECX    C2 3047   2.442   4.480   2.198
  503HECX    C1 3048   2.538   4.600   2.204
  503HECX    O1 3049   2.568   4.629   2.341
  503HECX    H1 3050   2.623   4.722   2.348
  504HECX    H6 3051   2.629   6.177   3.431
  504HECX    O2 3052   2.645   6.264   3.489
  504HECX    C2 3053   2.595   6.379   3.419
  504HECX    C1 3054   2.642   0.011   3.482
  504HECX    O1 3055   2.569   0.127   3.437
  504HECX    H1 3056   2.615   0.210   3.481
  505HECX    H6 3057   2.993   5.763   0.492
  505HECX    O2 3058   2.920   5.693   0.522
  505HECX    C2 3059   2.847   5.752   0.632
  505HECX    C1 3060   2.704   5.700   0.651
  505HECX    O1 3061   2.638   5.766   0.761
  505HECX    H1 3062   2.538   5.731   0.768
  506HECX    H6 3063   0.078   0.454   0.240
  506HECX    O2 3064   0.161   0.419   0.185
  506HECX    C2 3065   0.162   0.276   0.203
  506HECX    C1 3066   0.243   0.198   0.097
  506HECX    O1 3067   0.252   0.057   0.125
  506HECX    H1 3068   0.326   0.042   0.197
  507HECX    H6 3069   3.519   2.105   0.696
  507HECX    O2 3070   3.503   2.071   0.596
  507HECX    C2 3071   3.583   1.953   0.574
  507HECX    C1 3072   3.534   1.878   0.450
  507HECX    O1 3073   3.625   1.775   0.405
  507HECX    H1 3074   3.710   1.825   0.360
  508HECX    H6 3075   2.270   0.586   3.210
  508HECX    O2 3076   2.189   0.647   3.244
  508HECX    C2 3077   2.088   0.562   3.303
  508HECX    C1 3078   1.994   0.494   3.203
  508HECX    O1 3079   1.905   0.402   3.269
  508HECX    H1 3080   1.809   0.405   3.221
  509HECX    H6 3081   3.606   3.155   5.102
  509HECX    O2 3082   3.629   3.159   5.000
  509HECX    C2 3083   3.772   3.147   4.989
  509HECX    C1 3084   3.849   3.278   5.006
  509HECX    O1 3085   3.990   3.261   4.977
  509HECX    H1 3086   4.009   3.312   4.888
  510HECX    H6 3087   6.334   3.609   5.980
  510HECX    O2 3088   6.288   3.545   5.909
  510HECX    C2 3089   6.176   3.615   5.851
  510HECX    C1 3090   6.089   3.524   5.763
  510HECX    O1 3091   5.965   3.587   5.724
  510HECX    H1 3092   5.927   3.534   5.642
  511HECX    H6 3093   4.815   0.216   2.494
  511HECX    O2 3094   4.840   0.183   2.590
  511HECX    C2 3095   4.928   0.069   2.579
  511HECX    C1 3096   5.031   0.063   2.693
  511HECX    O1 3097   5.126   6.455   2.681
  511HECX    H1 3098   5.197   6.471   2.749
  512HECX    H6 3099   1.310   3.921   1.813
  512HECX    O2 3100   1.349   3.825   1.835
  512HECX    C2 3101   1.241   3.728   1.840
  512HECX    C1 3102   1.260   3.610   1.744
  512HECX    O1 3103   1.384   3.536   1.762
  512HECX    H1 3104   1.458   3.580   1.699
  513HECX    H6 3105   5.943   5.575   3.322
  513HECX    O2 3106   6.003   5.525   3.253
  513HECX    C2 3107   5.978   5.384   3.267
  513HECX    C1 3108   6.041   5.329   3.395
  513HECX    O1 3109   6.021   5.188   3.419
  513HECX    H1 3110   6.116   5.147   3.437
  514HECX    H6 3111   4.728   0.805   2.155
  514HECX    O2 3112   4.711   0.812   2.260
  514HECX    C2 3113   4.582   0.755   2.288
  514HECX    C1 3114   4.577   0.602   2.300
  514HECX    O1 3115   4.441   0.555   2.307
  514HECX    H1 3116   4.399   0.587   2.399
  515HECX    H6 3117   3.182   6.144   3.368
  515HECX    O2 3118   3.119   6.140   3.284
  515HECX    C2 3119   3.082   6.276   3.254
  515HECX    C1 3120   2.933   6.306   3.272
  515HECX    O1 3121   2.904   6.444   3.239
  515HECX    H1 3122   2.972   0.007   3.297
  516HECX    H6 3123   5.418   0.733   1.521
  516HECX    O2 3124   5.429   0.717   1.623
  516HECX    C2 3125   5.333   0.615   1.661
  516HECX    C1 3126   5.187   0.652   1.630
  516HECX    O1 3127   5.089   0.571   1.697
  516HECX    H1 3128   5.116   0.566   1.799
  517HECX    H6 3129   0.642   3.028   4.848
  517HECX    O2 3130   0.714   2.948   4.856
  517HECX    C2 3131   0.735   2.921   4.997
  517HECX    C1 3132   0.825   2.798   5.020
  517HECX    O1 3133   0.810   2.743   5.153
  517HECX    H1 3134   0.884   2.669   5.171
  518HECX    H6 3135   3.304   2.490   2.651
  518HECX    O2 3136   3.254   2.505   2.558
  518HECX    C2 3137   3.314   2.425   2.455
  518HECX    C1 3138   3.234   2.434   2.324
  518HECX    O1 3139   3.280   2.345   2.221
  518HECX    H1 3140   3.201   2.325   2.155
  519HECX    H6 3141   1.819   3.682   4.416
  519HECX    O2 3142   1.847   3.757   4.486
  519HECX    C2 3143   1.840   3.886   4.421
  519HECX    C1 3144   1.918   3.997   4.493
  519HECX    O1 3145   2.061   3.981   4.484
  519HECX    H1 3146   2.105   4.019   4.570
  520HECX    H6 3147   3.783   1.345   2.856
  520HECX    O2 3148   3.885   1.332   2.877
  520HECX    C2 3149   3.952   1.460   2.867
  520HECX    C1 3150   4.074   1.465   2.959
  520HECX    O1 3151   4.166   1.573   2.931
  520HECX    H1 3152   4.247   1.565   3.005
  521HECX    H6 3153   3.684   2.229   4.013
  521HECX    O2 3154   3.765   2.173   3.975
  521HECX    C2 3155   3.720   2.109   3.853
  521HECX    C1 3156   3.791   2.171   3.732
  521HECX    O1 3157   3.758   2.117   3.603
  521HECX    H1 3158   3.829   2.155   3.534
  522HECX    H6 3159   0.590   3.825   4.509
  522HECX    O2 3160   0.597   3.780   4.410
  522HECX    C2 3161   0.695   3.674   4.420
  522HECX    C1 3162   0.805   3.683   4.313
  522HECX    O1 3163   0.928   3.619   4.352
  522HECX    H1 3164   0.929   3.519   4.312
  523HECX    H6 3165   1.345   2.340   1.733
  523HECX    O2 3166   1.327   2.255   1.671
  523HECX    C2 3167   1.207   2.192   1.722
  523HECX    C1 3168   1.126   2.110   1.621
  523HECX    O1 3169   1.031   2.024   1.687
  523HECX    H1 3170   1.072   1.928   1.689
  524HECX    H6 3171   3.111   0.844   6.331
  524HECX    O2 3172   3.145   0.944   6.347
  524HECX    C2 3173   3.288   0.934   6.368
  524HECX    C1 3174   3.362   1.068   6.351
  524HECX    O1 3175   3.504   1.057   6.366
  524HECX    H1 3176   3.547   1.135   6.313
  525HECX    H6 3177   1.461   0.787   0.009
  525HECX    O2 3178   1.539   0.801   0.076
  525HECX    C2 3179   1.515   0.927   0.143
  525HECX    C1 3180   1.429   0.910   0.268
  525HECX    O1 3181   1.410   1.032   0.344
  525HECX    H1 3182   1.508   1.070   0.371
  526HECX    H6 3183   4.343   4.251   6.311
  526HECX    O2 3184   4.435   4.228   6.261
  526HECX    C2 3185   4.429   4.280   6.126
  526HECX    C1 3186   4.446   4.174   6.015
  526HECX    O1 3187   4.328   4.096   5.983
  526HECX    H1 3188   4.273   4.150   5.917
  527HECX    H6 3189   6.404   2.865   0.034
  527HECX    O2 3190   6.456   2.772   0.041
  527HECX    C2 3191   6.357   2.670   0.068
  527HECX    C1 3192   6.313   2.660   0.215
  527HECX    O1 3193   6.231   2.768   0.264
  527HECX    H1 3194   6.216   2.753   0.366
  528HECX    H6 3195   3.991   3.845   4.426
  528HECX    O2 3196   4.019   3.744   4.407
  528HECX    C2 3197   3.947   3.655   4.496
  528HECX    C1 3198   3.981   3.679   4.645
  528HECX    O1 3199   3.915   3.588   4.736
  528HECX    H1 3200   3.961   3.494   4.729
  529HECX    H6 3201   6.495   5.690   1.724
  529HECX    O2 3202   0.030   5.779   1.701
  529HECX    C2 3203   6.459   5.878   1.778
  529HECX    C1 3204   0.009   5.890   1.923
  529HECX    O1 3205   6.470   6.014   1.985
  529HECX    H1 3206   0.062   6.067   2.008
  530HECX    H6 3207   1.582   1.455   4.502
  530HECX    O2 3208   1.679   1.463   4.463
  530HECX    C2 3209   1.767   1.393   4.554
  530HECX    C1 3210   1.738   1.244   4.565
  530HECX    O1 3211   1.811   1.186   4.675
  530HECX    H1 3212   1.739   1.143   4.739
  531HECX    H6 3213   4.395   6.063   5.412
  531HECX    O2 3214   4.315   5.994   5.398
  531HECX    C2 3215   4.266   5.960   5.530
  531HECX    C1 3216   4.127   5.894   5.533
  531HECX    O1 3217   4.018   5.975   5.483
  531HECX    H1 3218   3.929   5.948   5.535
  532HECX    H6 3219   1.199   1.129   0.819
  532HECX    O2 3220   1.251   1.125   0.913
  532HECX    C2 3221   1.285   0.986   0.935
  532HECX    C1 3222   1.295   0.947   1.082
  532HECX    O1 3223   1.276   0.806   1.108
  532HECX    H1 3224   1.343   0.750   1.050
  533HECX    H6 3225   3.877   2.515   4.986
  533HECX    O2 3226   3.846   2.453   5.062
  533HECX    C2 3227   3.962   2.420   5.141
  533HECX    C1 3228   3.927   2.343   5.269
  533HECX    O1 3229   4.034   2.255   5.310
  533HECX    H1 3230   4.098   2.310   5.375
  534HECX    H6 3231   2.316   0.306   6.351
  534HECX    O2 3232   2.304   0.217   6.289
  534HECX    C2 3233   2.166   0.172   6.296
  534HECX    C1 3234   2.067   0.283   6.256
  534HECX    O1 3235   1.938   0.237   6.211
  534HECX    H1 3236   1.946   0.205   6.109
  535HECX    H6 3237   2.630   2.438   4.976
  535HECX    O2 3238   2.668   2.450   4.876
  535HECX    C2 3239   2.705   2.318   4.828
  535HECX    C1 3240   2.589   2.223   4.792
  535HECX    O1 3241   2.512   2.256   4.674
  535HECX    H1 3242   2.577   2.272   4.592
  536HECX    H6 3243   0.219   0.993   0.552
  536HECX    O2 3244   0.134   0.936   0.575
  536HECX    C2 3245   0.133   0.917   0.719
  536HECX    C1 3246   0.223   0.802   0.764
  536HECX    O1 3247   0.253   0.804   0.905
  536HECX    H1 3248   0.289   0.709   0.932
  537HECX    H6 3249   2.834   0.232   4.423
  537HECX    O2 3250   2.933   0.264   4.435
  537HECX    C2 3251   3.017   0.165   4.371
  537HECX    C1 3252   3.167   0.197   4.379
  537HECX    O1 3253   3.250   0.084   4.342
  537HECX    H1 3254   3.270   0.088   4.237
  538HECX    H6 3255   1.628   6.272   1.521
  538HECX    O2 3256   1.672   6.201   1.455
  538HECX    C2 3257   1.619   6.071   1.485
  538HECX    C1 3258   1.709   5.963   1.424
  538HECX    O1 3259   1.644   5.837   1.396
  538HECX    H1 3260   1.710   5.788   1.326
  539HECX    H6 3261   2.667   1.809   2.019
  539HECX    O2 3262   2.717   1.741   2.085
  539HECX    C2 3263   2.646   1.616   2.088
  539HECX    C1 3264   2.526   1.614   2.185
  539HECX    O1 3265   2.469   1.482   2.199
  539HECX    H1 3266   2.529   1.426   2.265
  540HECX    H6 3267   6.042   0.772   3.640
  540HECX    O2 3268   6.138   0.741   3.669
  540HECX    C2 3269   6.232   0.772   3.564
  540HECX    C1 3270   6.378   0.736   3.594
  540HECX    O1 3271   6.419   0.605   3.552
  540HECX    H1 3272   0.015   0.589   3.589
  541HECX    H6 3273   3.298   5.485   1.544
  541HECX    O2 3274   3.320   5.490   1.650
  541HECX    C2 3275   3.377   5.362   1.688
  541HECX    C1 3276   3.396   5.348   1.840
  541HECX    O1 3277   3.454   5.222   1.879
  541HECX    H1 3278   3.532   5.245   1.946
  542HECX    H6 3279   3.605   0.374   1.380
  542HECX    O2 3280   3.532   0.449   1.393
  542HECX    C2 3281   3.440   0.404   1.495
  542HECX    C1 3282   3.318   0.496   1.511
  542HECX    O1 3283   3.229   0.450   1.614
  542HECX    H1 3284   3.252   0.502   1.703
  543HECX    H6 3285   0.649   3.124   4.126
  543HECX    O2 3286   0.628   3.225   4.106
  543HECX    C2 3287   0.579   3.288   4.227
  543HECX    C1 3288   0.429   3.323   4.223
  543HECX    O1 3289   0.390   3.405   4.335
  543HECX    H1 3290   0.286   3.433   4.327
  544HECX    H6 3291   4.101   3.781   2.830
  544HECX    O2 3292   4.072   3.695   2.773
  544HECX    C2 3293   4.146   3.580   2.820
  544HECX    C1 3294   4.107   3.451   2.749
  544HECX    O1 3295   4.194   3.340   2.782
  544HECX    H1 3296   4.193   3.273   2.699
  545HECX    H6 3297   3.566   1.593   0.986
  545HECX    O2 3298   3.604   1.622   0.892
  545HECX    C2 3299   3.740   1.576   0.884
  545HECX    C1 3300   3.751   1.425   0.910
  545HECX    O1 3301   3.887   1.377   0.912
  545HECX    H1 3302   3.884   1.271   0.899
  546HECX    H6 3303   1.326   2.632   5.057
  546HECX    O2 3304   1.274   2.542   5.035
  546HECX    C2 3305   1.134   2.563   5.063
  546HECX    C1 3306   1.105   2.583   5.213
  546HECX    O1 3307   0.965   2.563   5.241
  546HECX    H1 3308   0.950   2.574   5.346
  547HECX    H6 3309   1.535   1.465   4.006
  547HECX    O2 3310   1.597   1.388   3.966
  547HECX    C2 3311   1.727   1.443   3.936
  547HECX    C1 3312   1.731   1.513   3.800
  547HECX    O1 3313   1.864   1.549   3.756
  547HECX    H1 3314   1.920   1.460   3.746
  548HECX    H6 3315   3.780   5.945   1.824
  548HECX    O2 3316   3.883   5.961   1.840
  548HECX    C2 3317   3.906   6.017   1.971
  548HECX    C1 3318   4.027   6.111   1.975
  548HECX    O1 3319   4.094   6.112   2.103
  548HECX    H1 3320   4.024   6.128   2.182
  549HECX    H6 3321   3.121   6.419   2.193
  549HECX    O2 3322   3.059   6.344   2.159
  549HECX    C2 3323   2.924   6.395   2.153
  549HECX    C1 3324   2.817   6.288   2.129
  549HECX    O1 3325   2.823   6.225   1.999
  549HECX    H1 3326   2.801   6.297   1.926
  550HECX    H6 3327   2.316   1.373   4.771
  550HECX    O2 3328   2.372   1.436   4.707
  550HECX    C2 3329   2.286   1.544   4.666
  550HECX    C1 3330   2.358   1.643   4.573
  550HECX    O1 3331   2.271   1.745   4.522
  550HECX    H1 3332   2.320   1.792   4.443
  551HECX    H6 3333   3.226   6.228   5.537
  551HECX    O2 3334   3.289   6.179   5.468
  551HECX    C2 3335   3.405   6.131   5.540
  551HECX    C1 3336   3.538   6.183   5.486
  551HECX    O1 3337   3.650   6.158   5.574
  551HECX    H1 3338   3.715   6.241   5.563
  552HECX    H6 3339   4.365   4.730   6.406
  552HECX    O2 3340   4.329   4.745   6.308
  552HECX    C2 3341   4.280   4.619   6.257
  552HECX    C1 3342   4.199   4.635   6.127
  552HECX    O1 3343   4.154   4.511   6.070
  552HECX    H1 3344   4.120   4.528   5.973
  553HECX    H6 3345   4.136   5.079   1.807
  553HECX    O2 3346   4.215   5.028   1.756
  553HECX    C2 3347   4.157   4.966   1.639
  553HECX    C1 3348   4.102   4.827   1.671
  553HECX    O1 3349   4.011   4.780   1.570
  553HECX    H1 3350   3.931   4.734   1.620
  554HECX    H6 3351   5.532   0.917   0.265
  554HECX    O2 3352   5.514   1.010   0.219
  554HECX    C2 3353   5.637   1.085   0.228
  554HECX    C1 3354   5.622   1.236   0.203
  554HECX    O1 3355   5.748   1.306   0.202
  554HECX    H1 3356   5.728   1.411   0.205
  555HECX    H6 3357   5.207   3.019   1.690
  555HECX    O2 3358   5.222   3.013   1.797
  555HECX    C2 3359   5.124   2.923   1.852
  555HECX    C1 3360   5.138   2.904   2.004
  555HECX    O1 3361   5.054   2.799   2.054
  555HECX    H1 3362   5.107   2.707   2.041
  556HECX    H6 3363   0.444   3.533   4.032
  556HECX    O2 3364   0.467   3.549   3.937
  556HECX    C2 3365   0.607   3.519   3.920
  556HECX    C1 3366   0.643   3.474   3.777
  556HECX    O1 3367   0.784   3.444   3.767
  556HECX    H1 3368   0.809   3.427   3.665
  557HECX    H6 3369   0.494   1.203   1.490
  557HECX    O2 3370   0.568   1.144   1.533
  557HECX    C2 3371   0.543   1.134   1.674
  557HECX    C1 3372   0.628   1.230   1.757
  557HECX    O1 3373   0.605   1.217   1.900
  557HECX    H1 3374   0.546   1.302   1.931
  558HECX    H6 3375   5.887   0.999   0.527
  558HECX    O2 3376   5.851   1.004   0.628
  558HECX    C2 3377   5.956   1.059   0.710
  558HECX    C1 3378   5.902   1.128   0.836
  558HECX    O1 3379   5.985   1.238   0.876
  558HECX    H1 3380   5.932   1.298   0.944
  559HECX    H6 3381   2.351   4.631   4.274
  559HECX    O2 3382   2.364   4.585   4.372
  559HECX    C2 3383   2.340   4.443   4.356
  559HECX    C1 3384   2.471   4.362   4.357
  559HECX    O1 3385   2.450   4.221   4.339
  559HECX    H1 3386   2.541   4.175   4.323
  560HECX    H6 3387   1.002   1.929   5.880
  560HECX    O2 3388   0.931   2.005   5.898
  560HECX    C2 3389   0.991   2.132   5.867
  560HECX    C1 3390   0.892   2.237   5.814
  560HECX    O1 3391   0.806   2.297   5.913
  560HECX    H1 3392   0.715   2.317   5.865
  561HECX    H6 3393   2.351   1.297   6.112
  561HECX    O2 3394   2.376   1.391   6.158
  561HECX    C2 3395   2.432   1.365   6.288
  561HECX    C1 3396   2.333   1.387   6.404
  561HECX    O1 3397   2.393   1.362   0.033
  561HECX    H1 3398   2.316   1.366   0.106
  562HECX    H6 3399   2.988   4.007   5.393
  562HECX    O2 3400   3.070   3.985   5.328
  562HECX    C2 3401   3.166   4.093   5.335
  562HECX    C1 3402   3.153   4.199   5.224
  562HECX    O1 3403   3.245   4.307   5.247
  562HECX    H1 3404   3.228   4.385   5.182
  563HECX    H6 3405   1.063   0.812   3.175
  563HECX    O2 3406   1.090   0.879   3.097
  563HECX    C2 3407   1.103   1.009   3.157
  563HECX    C1 3408   1.082   1.124   3.058
  563HECX    O1 3409   1.084   1.255   3.118
  563HECX    H1 3410   0.992   1.271   3.161
  564HECX    H6 3411   0.049   1.720   4.298
  564HECX    O2 3412   6.453   1.688   4.334
  564HECX    C2 3413   6.356   1.788   4.295
  564HECX    C1 3414   6.221   1.769   4.366
  564HECX    O1 3415   6.124   1.869   4.330
  564HECX    H1 3416   6.078   1.896   4.413
  565HECX    H6 3417   2.826   5.132   5.591
  565HECX    O2 3418   2.811   5.073   5.677
  565HECX    C2 3419   2.671   5.077   5.710
  565HECX    C1 3420   2.638   5.074   5.861
  565HECX    O1 3421   2.688   4.958   5.930
  565HECX    H1 3422   2.785   4.982   5.966
  566HECX    H6 3423   1.903   3.004   5.611
  566HECX    O2 3424   1.876   3.106   5.619
  566HECX    C2 3425   1.769   3.116   5.716
  566HECX    C1 3426   1.719   3.259   5.734
  566HECX    O1 3427   1.604   3.269   5.823
  566HECX    H1 3428   1.588   3.372   5.849
  567HECX    H6 3429   6.077   1.208   2.783
  567HECX    O2 3430   6.128   1.285   2.836
  567HECX    C2 3431   6.232   1.343   2.754
  567HECX    C1 3432   6.346   1.245   2.726
  567HECX    O1 3433   6.466   1.310   2.678
  567HECX    H1 3434   0.041   1.280   2.739
  568HECX    H6 3435   5.374   5.190   3.645
  568HECX    O2 3436   5.456   5.251   3.609
  568HECX    C2 3437   5.520   5.317   3.721
  568HECX    C1 3438   5.479   5.463   3.749
  568HECX    O1 3439   5.367   5.484   3.838
  568HECX    H1 3440   5.355   5.590   3.848
  569HECX    H6 3441   1.656   3.579   1.626
  569HECX    O2 3442   1.563   3.627   1.614
  569HECX    C2 3443   1.568   3.705   1.493
  569HECX    C1 3444   1.454   3.808   1.482
  569HECX    O1 3445   1.442   3.868   1.351
  569HECX    H1 3446   1.381   3.950   1.359
  570HECX    H6 3447   4.205   2.443   4.792
  570HECX    O2 3448   4.110   2.397   4.795
  570HECX    C2 3449   4.123   2.269   4.729
  570HECX    C1 3450   4.018   2.163   4.769
  570HECX    O1 3451   4.039   2.038   4.699
  570HECX    H1 3452   3.964   1.967   4.731
  571HECX    H6 3453   1.638   0.732   0.156
  571HECX    O2 3454   1.708   0.686   0.223
  571HECX    C2 3455   1.702   0.544   0.202
  571HECX    C1 3456   1.581   0.477   0.269
  571HECX    O1 3457   1.570   0.337   0.236
  571HECX    H1 3458   1.510   0.288   0.306
  572HECX    H6 3459   3.108   5.239   2.441
  572HECX    O2 3460   3.109   5.174   2.357
  572HECX    C2 3461   2.974   5.177   2.305
  572HECX    C1 3462   2.963   5.140   2.156
  572HECX    O1 3463   2.836   5.079   2.125
  572HECX    H1 3464   2.853   4.994   2.063
  573HECX    H6 3465   1.165   1.321   4.321
  573HECX    O2 3466   1.235   1.399   4.327
  573HECX    C2 3467   1.314   1.401   4.206
  573HECX    C1 3468   1.387   1.535   4.187
  573HECX    O1 3469   1.436   1.556   4.053
  573HECX    H1 3470   1.442   1.663   4.037
  574HECX    H6 3471   0.144   3.679   1.210
  574HECX    O2 3472   0.128   3.644   1.312
  574HECX    C2 3473   0.033   3.734   1.374
  574HECX    C1 3474   0.055   3.753   1.525
  574HECX    O1 3475   6.449   3.830   1.586
  574HECX    H1 3476   6.406   3.766   1.663
  575HECX    H6 3477   5.261   1.851   6.104
  575HECX    O2 3478   5.335   1.872   6.033
  575HECX    C2 3479   5.281   1.838   5.903
  575HECX    C1 3480   5.319   1.940   5.794
  575HECX    O1 3481   5.225   1.942   5.685
  575HECX    H1 3482   5.223   1.843   5.639
  576HECX    H6 3483   3.829   1.721   2.440
  576HECX    O2 3484   3.760   1.726   2.359
  576HECX    C2 3485   3.817   1.667   2.242
  576HECX    C1 3486   3.718   1.660   2.125
  576HECX    O1 3487   3.776   1.605   2.005
  576HECX    H1 3488   3.732   1.507   1.989
  577HECX    H6 3489   4.509   6.267   3.487
  577HECX    O2 3490   4.524   6.200   3.406
  577HECX    C2 3491   4.432   6.233   3.300
  577HECX    C1 3492   4.493   6.325   3.194
  577HECX    O1 3493   4.404   6.347   3.083
  577HECX    H1 3494   4.459   6.351   2.996
  578HECX    H6 3495   5.766   1.034   5.064
  578HECX    O2 3496   5.773   0.945   5.009
  578HECX    C2 3497   5.646   0.914   4.949
  578HECX    C1 3498   5.647   0.772   4.890
  578HECX    O1 3499   5.523   0.732   4.827
  578HECX    H1 3500   5.532   0.757   4.722
  579HECX    H6 3501   5.154   1.231   1.470
  579HECX    O2 3502   5.246   1.229   1.423
  579HECX    C2 3503   5.344   1.175   1.515
  579HECX    C1 3504   5.366   1.264   1.638
  579HECX    O1 3505   5.456   1.208   1.735
  579HECX    H1 3506   5.440   1.104   1.744
  580HECX    H6 3507   0.592   6.375   3.055
  580HECX    O2 3508   0.588   6.371   2.950
  580HECX    C2 3509   0.513   6.485   2.903
  580HECX    C1 3510   0.598   0.104   2.857
  580HECX    O1 3511   0.516   0.223   2.846
  580HECX    H1 3512   0.567   0.300   2.793
  581HECX    H6 3513   6.357   6.369   4.598
  581HECX    O2 3514   6.462   6.378   4.597
  581HECX    C2 3515   0.021   6.271   4.521
  581HECX    C1 3516   0.173   6.267   4.539
  581HECX    O1 3517   0.232   6.148   4.483
  581HECX    H1 3518   0.339   6.153   4.495
  582HECX    H6 3519   2.595   4.309   4.699
  582HECX    O2 3520   2.531   4.260   4.762
  582HECX    C2 3521   2.609   4.204   4.870
  582HECX    C1 3522   2.529   4.124   4.974
  582HECX    O1 3523   2.611   4.080   5.085
  582HECX    H1 3524   2.636   4.167   5.141
  583HECX    H6 3525   2.911   6.111   3.788
  583HECX    O2 3526   2.859   6.048   3.852
  583HECX    C2 3527   2.896   5.913   3.820
  583HECX    C1 3528   3.021   5.868   3.895
  583HECX    O1 3529   3.055   5.731   3.864
  583HECX    H1 3530   2.973   5.672   3.898
  584HECX    H6 3531   3.303   5.595   3.761
  584HECX    O2 3532   3.355   5.521   3.818
  584HECX    C2 3533   3.348   5.397   3.746
  584HECX    C1 3534   3.240   5.305   3.805
  584HECX    O1 3535   3.245   5.170   3.753
  584HECX    H1 3536   3.177   5.113   3.812
  585HECX    H6 3537   2.503   6.159   1.945
  585HECX    O2 3538   2.467   6.146   2.042
  585HECX    C2 3539   2.369   6.249   2.067
  585HECX    C1 3540   2.370   6.302   2.211
  585HECX    O1 3541   2.304   6.219   2.309
  585HECX    H1 3542   2.204   6.250   2.317
  586HECX    H6 3543   2.375   2.239   2.010
  586HECX    O2 3544   2.443   2.286   1.952
  586HECX    C2 3545   2.434   2.429   1.973
  586HECX    C1 3546   2.509   2.476   2.098
  586HECX    O1 3547   2.516   2.620   2.109
  586HECX    H1 3548   2.612   2.645   2.137
  587HECX    H6 3549   4.057   2.133   5.385
  587HECX    O2 3550   4.076   2.065   5.465
  587HECX    C2 3551   4.193   1.986   5.432
  587HECX    C1 3552   4.227   1.884   5.540
  587HECX    O1 3553   4.358   1.823   5.531
  587HECX    H1 3554   4.434   1.895   5.536
  588HECX    H6 3555   3.859   3.228   1.907
  588HECX    O2 3556   3.869   3.272   1.813
  588HECX    C2 3557   3.987   3.355   1.810
  588HECX    C1 3558   4.046   3.366   1.669
  588HECX    O1 3559   4.154   3.462   1.659
  588HECX    H1 3560   4.187   3.464   1.562
  589HECX    H6 3561   1.563   0.045   3.244
  589HECX    O2 3562   1.626   0.088   3.166
  589HECX    C2 3563   1.765   0.076   3.205
  589HECX    C1 3564   1.833   6.444   3.166
  589HECX    O1 3565   1.973   6.440   3.201
  589HECX    H1 3566   1.981   6.390   3.292
  590HECX    H6 3567   2.008   1.075   6.038
  590HECX    O2 3568   2.051   1.149   6.098
  590HECX    C2 3569   1.961   1.261   6.103
  590HECX    C1 3570   1.977   1.348   6.229
  590HECX    O1 3571   1.884   1.458   6.231
  590HECX    H1 3572   1.930   1.538   6.179
  591HECX    H6 3573   4.939   3.058   0.967
  591HECX    O2 3574   4.911   3.089   0.869
  591HECX    C2 3575   4.882   2.968   0.794
  591HECX    C1 3576   4.845   2.990   0.647
  591HECX    O1 3577   4.846   2.864   0.578
  591HECX    H1 3578   4.775   2.864   0.503
  592HECX    H6 3579   6.273   0.134   4.092
  592HECX    O2 3580   6.287   0.167   3.992
  592HECX    C2 3581   6.388   0.270   3.996
  592HECX    C1 3582   6.431   0.330   3.862
  592HECX    O1 3583   0.035   0.428   3.879
  592HECX    H1 3584   0.126   0.380   3.893
  593HECX    H6 3585   0.764   5.843   1.385
  593HECX    O2 3586   0.666   5.822   1.413
  593HECX    C2 3587   0.661   5.684   1.457
  593HECX    C1 3588   0.587   5.663   1.590
  593HECX    O1 3589   0.568   5.524   1.619
  593HECX    H1 3590   0.481   5.494   1.570
  594HECX    H6 3591   2.400   2.853   4.996
  594HECX    O2 3592   2.408   2.756   5.042
  594HECX    C2 3593   2.301   2.671   4.994
  594HECX    C1 3594   2.319   2.629   4.848
  594HECX    O1 3595   2.222   2.533   4.802
  594HECX    H1 3596   2.257   2.495   4.710
  595HECX    H6 3597   1.087   0.806   5.430
  595HECX    O2 3598   1.008   0.839   5.367
  595HECX    C2 3599   1.017   0.772   5.240
  595HECX    C1 3600   1.081   0.856   5.129
  595HECX    O1 3601   1.100   0.786   5.004
  595HECX    H1 3602   1.180   0.833   4.956
  596HECX    H6 3603   2.755   5.876   5.956
  596HECX    O2 3604   2.704   5.870   6.050
  596HECX    C2 3605   2.562   5.865   6.023
  596HECX    C1 3606   2.482   5.801   6.137
  596HECX    O1 3607   2.341   5.784   6.107
  596HECX    H1 3608   2.294   5.878   6.113
  597HECX    H6 3609   4.604   4.391   5.342
  597HECX    O2 3610   4.563   4.363   5.435
  597HECX    C2 3611   4.629   4.244   5.482
  597HECX    C1 3612   4.658   4.251   5.633
  597HECX    O1 3613   4.747   4.149   5.682
  597HECX    H1 3614   4.796   4.188   5.768
  598HECX    H6 3615   6.248   4.556   0.781
  598HECX    O2 3616   6.316   4.546   0.861
  598HECX    C2 3617   6.435   4.622   0.832
  598HECX    C1 3618   6.499   4.584   0.697
  598HECX    O1 3619   0.132   4.640   0.682
  598HECX    H1 3620   0.193   4.593   0.759
  599HECX    H6 3621   5.653   2.238   2.023
  599HECX    O2 3622   5.700   2.291   2.103
  599HECX    C2 3623   5.726   2.199   2.210
  599HECX    C1 3624   5.828   2.252   2.311
  599HECX    O1 3625   5.865   2.151   2.408
  599HECX    H1 3626   5.826   2.179   2.504
  600HECX    H6 3627   4.263   1.245   6.143
  600HECX    O2 3628   4.263   1.182   6.230
  600HECX    C2 3629   4.174   1.071   6.206
  600HECX    C1 3630   4.147   0.990   6.334
  600HECX    O1 3631   4.051   0.884   6.312
  600HECX    H1 3632   4.102   0.808   6.260
  601HECX    H6 3633   4.116   2.253   1.832
  601HECX    O2 3634   4.142   2.356   1.838
  601HECX    C2 3635   4.208   2.381   1.963
  601HECX    C1 3636   4.276   2.518   1.961
  601HECX    O1 3637   4.351   2.551   2.080
  601HECX    H1 3638   4.349   2.654   2.088
  602HECX    H6 3639   2.690   2.468   5.912
  602HECX    O2 3640   2.790   2.437   5.902
  602HECX    C2 3641   2.819   2.436   5.761
  602HECX    C1 3642   2.964   2.474   5.731
  602HECX    O1 3643   2.976   2.561   5.617
  602HECX    H1 3644   3.058   2.626   5.631
  603HECX    H6 3645   2.421   4.787   4.132
  603HECX    O2 3646   2.355   4.707   4.158
  603HECX    C2 3647   2.240   4.711   4.071
  603HECX    C1 3648   2.275   4.737   3.923
  603HECX    O1 3649   2.162   4.747   3.834
  603HECX    H1 3650   2.082   4.795   3.883
  604HECX    H6 3651   4.898   4.471   4.624
  604HECX    O2 3652   4.935   4.552   4.684
  604HECX    C2 3653   4.825   4.639   4.716
  604HECX    C1 3654   4.814   4.677   4.864
  604HECX    O1 3655   4.731   4.795   4.877
  604HECX    H1 3656   4.721   4.823   4.982
  605HECX    H6 3657   2.956   2.119   3.063
  605HECX    O2 3658   2.953   2.108   2.959
  605HECX    C2 3659   2.965   1.967   2.930
  605HECX    C1 3660   3.103   1.911   2.968
  605HECX    O1 3661   3.133   1.775   2.928
  605HECX    H1 3662   3.129   1.770   2.823
  606HECX    H6 3663   1.463   5.884   0.004
  606HECX    O2 3664   1.423   5.840   6.419
  606HECX    C2 3665   1.488   5.712   6.405
  606HECX    C1 3666   1.418   5.616   6.309
  606HECX    O1 3667   1.486   5.489   6.301
  606HECX    H1 3668   1.578   5.503   6.248
  607HECX    H6 3669   3.153   6.451   1.186
  607HECX    O2 3670   3.112   6.358   1.159
  607HECX    C2 3671   3.080   6.280   1.276
  607HECX    C1 3672   2.979   6.167   1.246
  607HECX    O1 3673   2.941   6.092   1.363
  607HECX    H1 3674   2.834   6.075   1.361
  608HECX    H6 3675   0.089   2.732   0.018
  608HECX    O2 3676   0.190   2.698   0.006
  608HECX    C2 3677   0.191   2.591   6.409
  608HECX    C1 3678   0.180   2.452   6.475
  608HECX    O1 3679   0.119   2.355   6.387
  608HECX    H1 3680   0.158   2.259   6.409
  609HECX    H6 3681   3.172   4.120   5.966
  609HECX    O2 3682   3.110   4.163   5.893
  609HECX    C2 3683   3.188   4.252   5.811
  609HECX    C1 3684   3.260   4.180   5.696
  609HECX    O1 3685   3.331   4.271   5.610
  609HECX    H1 3686   3.394   4.216   5.549
  610HECX    H6 3687   6.423   1.578   0.401
  610HECX    O2 3688   6.444   1.485   0.433
  610HECX    C2 3689   0.009   1.496   0.562
  610HECX    C1 3690   0.078   1.366   0.605
  610HECX    O1 3691   0.155   1.378   0.726
  610HECX    H1 3692   0.227   1.299   0.729
  611HECX    H6 3693   3.023   4.522   5.129
  611HECX    O2 3694   2.931   4.538   5.088
  611HECX    C2 3695   2.827   4.492   5.176
  611HECX    C1 3696   2.805   4.340   5.162
  611HECX    O1 3697   2.679   4.289   5.211
  611HECX    H1 3698   2.650   4.341   5.298
  612HECX    H6 3699   4.723   3.209   3.962
  612HECX    O2 3700   4.677   3.235   4.053
  612HECX    C2 3701   4.547   3.175   4.058
  612HECX    C1 3702   4.532   3.081   4.179
  612HECX    O1 3703   4.394   3.049   4.208
  612HECX    H1 3704   4.394   2.995   4.301
  613HECX    H6 3705   5.045   5.997   3.442
  613HECX    O2 3706   5.047   5.943   3.348
  613HECX    C2 3707   5.054   6.041   3.242
  613HECX    C1 3708   5.093   5.978   3.107
  613HECX    O1 3709   5.097   6.073   2.999
  613HECX    H1 3710   5.185   6.130   3.005
  614HECX    H6 3711   5.822   4.190   0.552
  614HECX    O2 3712   5.910   4.188   0.495
  614HECX    C2 3713   5.950   4.050   0.480
  614HECX    C1 3714   6.073   4.014   0.566
  614HECX    O1 3715   6.102   3.872   0.569
  614HECX    H1 3716   6.194   3.861   0.623
  615HECX    H6 3717   5.082   3.084   3.929
  615HECX    O2 3718   4.998   3.052   3.985
  615HECX    C2 3719   5.042   3.032   4.122
  615HECX    C1 3720   4.928   3.015   4.224
  615HECX    O1 3721   4.971   2.978   4.357
  615HECX    H1 3722   5.010   2.879   4.352
  616HECX    H6 3723   1.353   2.249   1.264
  616HECX    O2 3724   1.332   2.221   1.166
  616HECX    C2 3725   1.454   2.221   1.090
  616HECX    C1 3726   1.439   2.297   0.957
  616HECX    O1 3727   1.557   2.295   0.872
  616HECX    H1 3728   1.625   2.372   0.902
  617HECX    H6 3729   3.275   5.422   5.059
  617HECX    O2 3730   3.199   5.365   5.015
  617HECX    C2 3731   3.199   5.234   5.074
  617HECX    C1 3732   3.058   5.186   5.112
  617HECX    O1 3733   3.058   5.046   5.147
  617HECX    H1 3734   2.984   5.027   5.221
  618HECX    H6 3735   2.690   4.804   5.250
  618HECX    O2 3736   2.714   4.795   5.350
  618HECX    C2 3737   2.593   4.770   5.424
  618HECX    C1 3738   2.611   4.737   5.573
  618HECX    O1 3739   2.486   4.720   5.643
  618HECX    H1 3740   2.504   4.727   5.746
  619HECX    H6 3741   5.166   3.226   5.590
  619HECX    O2 3742   5.127   3.312   5.542
  619HECX    C2 3743   5.151   3.296   5.401
  619HECX    C1 3744   5.054   3.375   5.312
  619HECX    O1 3745   5.088   3.367   5.171
  619HECX    H1 3746   5.118   3.266   5.149
  620HECX    H6 3747   5.162   6.354   4.657
  620HECX    O2 3748   5.156   6.431   4.582
  620HECX    C2 3749   5.016   6.453   4.554
  620HECX    C1 3750   4.987   0.074   4.465
  620HECX    O1 3751   4.850   0.080   4.421
  620HECX    H1 3752   4.845   0.130   4.325
  621HECX    H6 3753   4.604   5.912   1.769
  621HECX    O2 3754   4.684   5.967   1.808
  621HECX    C2 3755   4.773   6.001   1.700
  621HECX    C1 3756   4.919   5.960   1.727
  621HECX    O1 3757   4.944   5.817   1.714
  621HECX    H1 3758   4.958   5.775   1.813
  622HECX    H6 3759   3.268   1.966   3.801
  622HECX    O2 3760   3.363   2.006   3.812
  622HECX    C2 3761   3.354   2.149   3.813
  622HECX    C1 3762   3.293   2.203   3.942
  622HECX    O1 3763   3.338   2.337   3.968
  622HECX    H1 3764   3.431   2.327   4.012
  623HECX    H6 3765   0.786   1.564   6.202
  623HECX    O2 3766   0.736   1.495   6.261
  623HECX    C2 3767   0.648   1.419   6.175
  623HECX    C1 3768   0.502   1.415   6.222
  623HECX    O1 3769   0.421   1.340   6.129
  623HECX    H1 3770   0.331   1.311   6.174
  624HECX    H6 3771   5.695   4.522   5.526
  624HECX    O2 3772   5.776   4.455   5.540
  624HECX    C2 3773   5.787   4.367   5.426
  624HECX    C1 3774   5.913   4.279   5.434
  624HECX    O1 3775   5.913   4.166   5.344
  624HECX    H1 3776   5.927   4.197   5.245
  625HECX    H6 3777   0.802   4.549   4.788
  625HECX    O2 3778   0.883   4.616   4.796
  625HECX    C2 3779   0.982   4.559   4.883
  625HECX    C1 3780   0.954   4.577   5.034
  625HECX    O1 3781   1.056   4.515   5.117
  625HECX    H1 3782   1.150   4.564   5.097
  626HECX    H6 3783   0.831   6.294   5.976
  626HECX    O2 3784   0.773   6.213   5.933
  626HECX    C2 3785   0.659   6.270   5.866
  626HECX    C1 3786   0.566   6.347   5.961
  626HECX    O1 3787   0.441   6.384   5.900
  626HECX    H1 3788   0.366   6.320   5.943
  627HECX    H6 3789   3.061   4.892   0.040
  627HECX    O2 3790   3.091   4.939   6.451
  627HECX    C2 3791   3.154   4.843   6.364
  627HECX    C1 3792   3.055   4.759   6.281
  627HECX    O1 3793   3.124   4.662   6.200
  627HECX    H1 3794   3.060   4.578   6.188
  628HECX    H6 3795   1.713   5.727   0.410
  628HECX    O2 3796   1.762   5.812   0.366
  628HECX    C2 3797   1.831   5.771   0.247
  628HECX    C1 3798   1.965   5.843   0.224
  628HECX    O1 3799   2.023   5.814   0.095
  628HECX    H1 3800   1.998   5.715   0.064
  629HECX    H6 3801   1.180   5.314   5.542
  629HECX    O2 3802   1.155   5.341   5.441
  629HECX    C2 3803   1.011   5.348   5.427
  629HECX    C1 3804   0.939   5.218   5.464
  629HECX    O1 3805   0.797   5.224   5.437
  629HECX    H1 3806   0.759   5.126   5.441
  630HECX    H6 3807   4.538   3.184   1.050
  630HECX    O2 3808   4.564   3.185   1.152
  630HECX    C2 3809   4.659   3.079   1.175
  630HECX    C1 3810   4.741   3.099   1.303
  630HECX    O1 3811   4.842   2.996   1.315
  630HECX    H1 3812   4.802   2.920   1.377
  631HECX    H6 3813   1.640   5.181   2.730
  631HECX    O2 3814   1.742   5.174   2.705
  631HECX    C2 3815   1.804   5.300   2.741
  631HECX    C1 3816   1.950   5.288   2.787
  631HECX    O1 3817   2.001   5.410   2.846
  631HECX    H1 3818   2.080   5.446   2.787
  632HECX    H6 3819   3.832   2.110   2.968
  632HECX    O2 3820   3.772   2.043   3.022
  632HECX    C2 3821   3.678   2.124   3.096
  632HECX    C1 3822   3.660   2.078   3.241
  632HECX    O1 3823   3.540   2.131   3.300
  632HECX    H1 3824   3.461   2.063   3.280
  633HECX    H6 3825   0.949   6.044   6.278
  633HECX    O2 3826   0.945   6.132   6.339
  633HECX    C2 3827   0.822   6.130   6.413
  633HECX    C1 3828   0.698   6.148   6.323
  633HECX    O1 3829   0.577   6.123   6.397
  633HECX    H1 3830   0.498   6.130   6.335
  634HECX    H6 3831   1.024   0.022   0.214
  634HECX    O2 3832   0.929   0.024   0.172
  634HECX    C2 3833   0.840   6.438   0.246
  634HECX    C1 3834   0.714   6.401   0.166
  634HECX    O1 3835   0.614   6.331   0.243
  634HECX    H1 3836   0.542   6.402   0.269
  635HECX    H6 3837   6.402   0.945   0.305
  635HECX    O2 3838   6.326   0.877   0.282
  635HECX    C2 3839   6.231   0.941   0.194
  635HECX    C1 3840   6.223   0.869   0.059
  635HECX    O1 3841   6.097   0.889   6.491
  635HECX    H1 3842   6.109   0.859   6.391
  636HECX    H6 3843   0.134   4.789   0.737
  636HECX    O2 3844   0.135   4.879   0.789
  636HECX    C2 3845   0.266   4.937   0.778
  636HECX    C1 3846   0.364   4.877   0.879
  636HECX    O1 3847   0.469   4.969   0.914
  636HECX    H1 3848   0.430   5.036   0.981
  637HECX    H6 3849   3.229   3.598   4.460
  637HECX    O2 3850   3.160   3.587   4.380
  637HECX    C2 3851   3.045   3.516   4.431
  637HECX    C1 3852   2.970   3.589   4.543
  637HECX    O1 3853   2.868   3.509   4.606
  637HECX    H1 3854   2.800   3.478   4.532
  638HECX    H6 3855   2.741   0.556   2.671
  638HECX    O2 3856   2.766   0.590   2.771
  638HECX    C2 3857   2.812   0.473   2.844
  638HECX    C1 3858   2.924   0.501   2.944
  638HECX    O1 3859   2.878   0.531   3.078
  638HECX    H1 3860   2.890   0.441   3.133
  639HECX    H6 3861   5.773   1.630   5.339
  639HECX    O2 3862   5.744   1.725   5.306
  639HECX    C2 3863   5.603   1.724   5.277
  639HECX    C1 3864   5.514   1.725   5.402
  639HECX    O1 3865   5.375   1.699   5.372
  639HECX    H1 3866   5.339   1.772   5.304
  640HECX    H6 3867   6.293   0.713   4.544
  640HECX    O2 3868   6.340   0.697   4.449
  640HECX    C2 3869   6.283   0.577   4.392
  640HECX    C1 3870   6.296   0.574   4.239
  640HECX    O1 3871   6.214   0.471   4.181
  640HECX    H1 3872   6.210   0.485   4.083
  641HECX    H6 3873   0.033   1.080   4.881
  641HECX    O2 3874   0.012   0.995   4.942
  641HECX    C2 3875   0.133   0.956   5.008
  641HECX    C1 3876   0.103   0.870   5.132
  641HECX    O1 3877   0.221   0.819   5.197
  641HECX    H1 3878   0.189   0.743   5.256
  642HECX    H6 3879   6.028   3.191   5.177
  642HECX    O2 3880   6.120   3.223   5.138
  642HECX    C2 3881   6.196   3.109   5.094
  642HECX    C1 3882   6.250   3.022   5.208
  642HECX    O1 3883   6.320   2.905   5.161
  642HECX    H1 3884   6.418   2.908   5.202
  643HECX    H6 3885   3.198   5.175   1.332
  643HECX    O2 3886   3.169   5.276   1.316
  643HECX    C2 3887   3.025   5.283   1.309
  643HECX    C1 3888   2.959   5.309   1.445
  643HECX    O1 3889   2.837   5.385   1.434
  643HECX    H1 3890   2.867   5.487   1.421
  644HECX    H6 3891   2.923   6.457   4.676
  644HECX    O2 3892   2.967   0.049   4.698
  644HECX    C2 3893   2.875   0.125   4.779
  644HECX    C1 3894   2.855   0.066   4.919
  644HECX    O1 3895   2.778   0.150   5.006
  644HECX    H1 3896   2.826   0.245   5.013
  645HECX    H6 3897   0.554   4.065   6.076
  645HECX    O2 3898   0.536   4.117   6.164
  645HECX    C2 3899   0.665   4.141   6.225
  645HECX    C1 3900   0.729   4.013   6.283
  645HECX    O1 3901   0.872   4.022   6.305
  645HECX    H1 3902   0.888   4.071   6.398
  646HECX    H6 3903   0.835   1.710   4.552
  646HECX    O2 3904   0.828   1.736   4.654
  646HECX    C2 3905   0.929   1.833   4.690
  646HECX    C1 3906   0.914   1.874   4.837
  646HECX    O1 3907   1.001   1.977   4.889
  646HECX    H1 3908   1.097   1.939   4.912
  647HECX    H6 3909   0.727   4.819   6.204
  647HECX    O2 3910   0.801   4.844   6.135
  647HECX    C2 3911   0.928   4.802   6.189
  647HECX    C1 3912   0.947   4.649   6.186
  647HECX    O1 3913   1.021   4.600   6.300
  647HECX    H1 3914   1.125   4.622   6.287
  648HECX    H6 3915   0.975   4.882   2.716
  648HECX    O2 3916   1.034   4.964   2.747
  648HECX    C2 3917   1.127   5.007   2.645
  648HECX    C1 3918   1.265   4.942   2.660
  648HECX    O1 3919   1.370   5.011   2.587
  648HECX    H1 3920   1.373   4.977   2.488
  649HECX    H6 3921   1.434   1.426   2.045
  649HECX    O2 3922   1.471   1.509   2.093
  649HECX    C2 3923   1.484   1.611   1.992
  649HECX    C1 3924   1.545   1.741   2.046
  649HECX    O1 3925   1.534   1.850   1.951
  649HECX    H1 3926   1.431   1.873   1.939
  650HECX    H6 3927   2.461   3.412   0.828
  650HECX    O2 3928   2.476   3.434   0.726
  650HECX    C2 3929   2.345   3.440   0.667
  650HECX    C1 3930   2.338   3.389   0.523
  650HECX    O1 3931   2.317   3.247   0.511
  650HECX    H1 3932   2.240   3.233   0.441
  651HECX    H6 3933   4.952   2.340   4.043
  651HECX    O2 3934   4.968   2.429   3.990
  651HECX    C2 3935   4.978   2.396   3.850
  651HECX    C1 3936   5.015   2.516   3.761
  651HECX    O1 3937   5.028   2.484   3.621
  651HECX    H1 3938   5.056   2.570   3.570
  652HECX    H6 3939   0.513   6.178   5.327
  652HECX    O2 3940   0.515   6.276   5.366
  652HECX    C2 3941   0.651   6.324   5.360
  652HECX    C1 3942   0.748   6.242   5.445
  652HECX    O1 3943   0.883   6.293   5.437
  652HECX    H1 3944   0.938   6.254   5.517
  653HECX    H6 3945   5.497   1.287   1.838
  653HECX    O2 3946   5.546   1.351   1.912
  653HECX    C2 3947   5.443   1.415   1.990
  653HECX    C1 3948   5.503   1.518   2.086
  653HECX    O1 3949   5.406   1.596   2.158
  653HECX    H1 3950   5.443   1.692   2.170
  654HECX    H6 3951   2.275   3.300   5.401
  654HECX    O2 3952   2.339   3.214   5.411
  654HECX    C2 3953   2.475   3.249   5.377
  654HECX    C1 3954   2.493   3.305   5.235
  654HECX    O1 3955   2.631   3.333   5.204
  654HECX    H1 3956   2.649   3.434   5.218
  655HECX    H6 3957   3.713   0.799   5.706
  655HECX    O2 3958   3.774   0.820   5.782
  655HECX    C2 3959   3.819   0.694   5.837
  655HECX    C1 3960   3.898   0.706   5.969
  655HECX    O1 3961   4.032   0.760   5.959
  655HECX    H1 3962   4.078   0.740   6.050
  656HECX    H6 3963   5.436   5.289   2.130
  656HECX    O2 3964   5.445   5.185   2.115
  656HECX    C2 3965   5.319   5.137   2.065
  656HECX    C1 3966   5.231   5.072   2.172
  656HECX    O1 3967   5.277   4.942   2.214
  656HECX    H1 3968   5.376   4.953   2.257
  657HECX    H6 3969   3.152   1.183   4.328
  657HECX    O2 3970   3.101   1.210   4.416
  657HECX    C2 3971   3.194   1.286   4.495
  657HECX    C1 3972   3.135   1.334   4.629
  657HECX    O1 3973   3.231   1.405   4.709
  657HECX    H1 3974   3.183   1.441   4.798
  658HECX    H6 3975   6.380   1.776   4.724
  658HECX    O2 3976   6.315   1.817   4.799
  658HECX    C2 3977   6.191   1.742   4.802
  658HECX    C1 3978   6.203   1.592   4.834
  658HECX    O1 3979   6.074   1.529   4.850
  658HECX    H1 3980   6.086   1.425   4.870
  659HECX    H6 3981   2.293   4.441   0.849
  659HECX    O2 3982   2.357   4.403   0.929
  659HECX    C2 3983   2.308   4.275   0.976
  659HECX    C1 3984   2.163   4.281   1.025
  659HECX    O1 3985   2.131   4.171   1.113
  659HECX    H1 3986   2.111   4.085   1.056
  660HECX    H6 3987   4.690   4.174   0.301
  660HECX    O2 3988   4.747   4.217   0.376
  660HECX    C2 3989   4.690   4.344   0.413
  660HECX    C1 3990   4.576   4.395   0.322
  660HECX    O1 3991   4.615   4.415   0.184
  660HECX    H1 3992   4.696   4.481   0.180
  661HECX    H6 3993   6.320   2.899   2.817
  661HECX    O2 3994   6.386   2.844   2.755
  661HECX    C2 3995   0.021   2.887   2.785
  661HECX    C1 3996   0.106   2.906   2.658
  661HECX    O1 3997   0.243   2.941   2.686
  661HECX    H1 3998   0.287   2.857   2.736
  662HECX    H6 3999   1.383   0.901   5.023
  662HECX    O2 4000   1.416   0.900   5.120
  662HECX    C2 4001   1.560   0.904   5.122
  662HECX    C1 4002   1.622   0.929   5.261
  662HECX    O1 4003   1.614   1.066   5.308
  662HECX    H1 4004   1.655   1.071   5.404
  663HECX    H6 4005   2.315   6.095   1.159
  663HECX    O2 4006   2.279   6.029   1.232
  663HECX    C2 4007   2.324   5.895   1.202
  663HECX    C1 4008   2.284   5.797   1.314
  663HECX    O1 4009   2.297   5.658   1.280
  663HECX    H1 4010   2.204   5.626   1.243
  664HECX    H6 4011   5.748   3.364   5.089
  664HECX    O2 4012   5.689   3.337   5.174
  664HECX    C2 4013   5.625   3.456   5.227
  664HECX    C1 4014   5.482   3.429   5.277
  664HECX    O1 4015   5.416   3.539   5.343
  664HECX    H1 4016   5.402   3.618   5.274
  665HECX    H6 4017   2.142   1.152   1.151
  665HECX    O2 4018   2.145   1.205   1.062
  665HECX    C2 4019   2.018   1.191   0.995
  665HECX    C1 4020   2.025   1.227   0.846
  665HECX    O1 4021   1.895   1.249   0.788
  665HECX    H1 4022   1.862   1.345   0.817
  666HECX    H6 4023   2.554   0.350   2.183
  666HECX    O2 4024   2.541   0.453   2.180
  666HECX    C2 4025   2.400   0.471   2.150
  666HECX    C1 4026   2.353   0.615   2.126
  666HECX    O1 4027   2.340   0.695   2.246
  666HECX    H1 4028   2.338   0.797   2.213
  667HECX    H6 4029   2.878   0.672   3.111
  667HECX    O2 4030   2.883   0.779   3.114
  667HECX    C2 4031   2.787   0.830   3.209
  667HECX    C1 4032   2.780   0.984   3.207
  667HECX    O1 4033   2.676   1.038   3.293
  667HECX    H1 4034   2.717   1.056   3.391
  668HECX    H6 4035   3.321   5.071   3.681
  668HECX    O2 4036   3.369   4.986   3.636
  668HECX    C2 4037   3.285   4.873   3.667
  668HECX    C1 4038   3.257   4.782   3.547
  668HECX    O1 4039   3.260   4.643   3.588
  668HECX    H1 4040   3.263   4.581   3.499
  669HECX    H6 4041   1.722   4.634   5.374
  669HECX    O2 4042   1.734   4.582   5.462
  669HECX    C2 4043   1.818   4.657   5.552
  669HECX    C1 4044   1.774   4.639   5.698
  669HECX    O1 4045   1.873   4.682   5.794
  669HECX    H1 4046   1.934   4.597   5.817
  670HECX    H6 4047   3.715   1.908   3.000
  670HECX    O2 4048   3.670   1.812   2.993
  670HECX    C2 4049   3.570   1.818   2.889
  670HECX    C1 4050   3.464   1.706   2.891
  670HECX    O1 4051   3.371   1.710   3.003
  670HECX    H1 4052   3.277   1.743   2.968
  671HECX    H6 4053   0.256   5.554   1.446
  671HECX    O2 4054   0.206   5.632   1.398
  671HECX    C2 4055   0.064   5.614   1.407
  671HECX    C1 4056   6.487   5.722   1.330
  671HECX    O1 4057   6.344   5.704   1.327
  671HECX    H1 4058   6.316   5.685   1.226
  672HECX    H6 4059   2.955   4.961   5.898
  672HECX    O2 4060   2.930   5.017   5.986
  672HECX    C2 4061   2.996   5.146   5.977
  672HECX    C1 4062   3.071   5.191   6.103
  672HECX    O1 4063   2.990   5.260   6.201
  672HECX    H1 4064   3.015   5.361   6.200
  673HECX    H6 4065   2.250   3.402   4.198
  673HECX    O2 4066   2.298   3.478   4.140
  673HECX    C2 4067   2.441   3.467   4.159
  673HECX    C1 4068   2.523   3.526   4.044
  673HECX    O1 4069   2.663   3.491   4.051
  673HECX    H1 4070   2.706   3.517   3.959
  674HECX    H6 4071   1.183   3.123   2.763
  674HECX    O2 4072   1.220   3.209   2.818
  674HECX    C2 4073   1.357   3.189   2.858
  674HECX    C1 4074   1.420   3.318   2.911
  674HECX    O1 4075   1.550   3.301   2.973
  674HECX    H1 4076   1.624   3.287   2.898
  675HECX    H6 4077   2.971   0.959   5.969
  675HECX    O2 4078   2.889   0.931   5.906
  675HECX    C2 4079   2.936   0.873   5.782
  675HECX    C1 4080   3.043   0.955   5.708
  675HECX    O1 4081   3.152   0.870   5.664
  675HECX    H1 4082   3.180   0.895   5.565
  676HECX    H6 4083   1.655   2.334   4.490
  676HECX    O2 4084   1.607   2.248   4.471
  676HECX    C2 4085   1.471   2.283   4.436
  676HECX    C1 4086   1.387   2.162   4.395
  676HECX    O1 4087   1.247   2.194   4.387
  676HECX    H1 4088   1.225   2.235   4.290
  677HECX    H6 4089   4.517   5.328   2.897
  677HECX    O2 4090   4.462   5.404   2.849
  677HECX    C2 4091   4.529   5.529   2.875
  677HECX    C1 4092   4.492   5.643   2.780
  677HECX    O1 4093   4.594   5.745   2.777
  677HECX    H1 4094   4.548   5.838   2.750
  678HECX    H6 4095   4.834   3.059   4.692
  678HECX    O2 4096   4.848   3.031   4.792
  678HECX    C2 4097   4.727   2.971   4.845
  678HECX    C1 4098   4.723   2.820   4.821
  678HECX    O1 4099   4.624   2.749   4.899
  678HECX    H1 4100   4.528   2.765   4.855
  679HECX    H6 4101   6.285   4.615   3.321
  679HECX    O2 4102   6.229   4.539   3.350
  679HECX    C2 4103   6.257   4.425   3.267
  679HECX    C1 4104   6.381   4.347   3.314
  679HECX    O1 4105   6.386   4.212   3.265
  679HECX    H1 4106   6.304   4.158   3.308
  680HECX    H6 4107   3.876   1.541   0.056
  680HECX    O2 4108   3.968   1.556   0.002
  680HECX    C2 4109   3.953   1.486   6.376
  680HECX    C1 4110   3.926   1.336   6.394
  680HECX    O1 4111   3.872   1.274   6.276
  680HECX    H1 4112   3.855   1.171   6.298
  681HECX    H6 4113   1.926   4.392   5.832
  681HECX    O2 4114   1.999   4.466   5.840
  681HECX    C2 4115   2.130   4.407   5.820
  681HECX    C1 4116   2.166   4.296   5.921
  681HECX    O1 4117   2.279   4.213   5.887
  681HECX    H1 4118   2.288   4.145   5.965
  682HECX    H6 4119   6.232   6.291   3.962
  682HECX    O2 4120   6.229   6.193   4.005
  682HECX    C2 4121   6.318   6.190   4.119
  682HECX    C1 4122   6.337   6.049   4.175
  682HECX    O1 4123   6.436   6.044   4.280
  682HECX    H1 4124   6.425   5.960   4.331
  683HECX    H6 4125   5.767   2.275   4.754
  683HECX    O2 4126   5.802   2.320   4.839
  683HECX    C2 4127   5.941   2.285   4.856
  683HECX    C1 4128   6.021   2.294   4.726
  683HECX    O1 4129   6.161   2.261   4.739
  683HECX    H1 4130   6.217   2.351   4.739
  684HECX    H6 4131   5.012   5.741   5.634
  684HECX    O2 4132   5.111   5.750   5.678
  684HECX    C2 4133   5.113   5.663   5.792
  684HECX    C1 4134   5.016   5.708   5.902
  684HECX    O1 4135   4.983   5.600   5.992
  684HECX    H1 4136   4.922   5.530   5.936
  685HECX    H6 4137   2.273   2.782   5.812
  685HECX    O2 4138   2.306   2.838   5.736
  685HECX    C2 4139   2.447   2.863   5.758
  685HECX    C1 4140   2.503   2.964   5.657
  685HECX    O1 4141   2.646   2.974   5.661
  685HECX    H1 4142   2.671   3.063   5.709
  686HECX    H6 4143   3.149   5.719   3.762
  686HECX    O2 4144   3.236   5.702   3.699
  686HECX    C2 4145   3.231   5.789   3.584
  686HECX    C1 4146   3.134   5.754   3.470
  686HECX    O1 4147   2.996   5.778   3.502
  686HECX    H1 4148   2.938   5.776   3.415
  687HECX    H6 4149   0.744   2.080   0.681
  687HECX    O2 4150   0.745   2.038   0.590
  687HECX    C2 4151   0.780   1.899   0.606
  687HECX    C1 4152   0.768   1.821   0.475
  687HECX    O1 4153   0.798   1.680   0.483
  687HECX    H1 4154   0.766   1.636   0.391
  688HECX    H6 4155   5.994   4.772   4.005
  688HECX    O2 4156   6.078   4.834   4.024
  688HECX    C2 4157   6.100   4.842   4.167
  688HECX    C1 4158   5.978   4.890   4.247
  688HECX    O1 4159   6.004   4.897   4.389
  688HECX    H1 4160   5.912   4.888   4.441
  689HECX    H6 4161   0.238   3.543   1.310
  689HECX    O2 4162   0.293   3.454   1.313
  689HECX    C2 4163   0.373   3.442   1.194
  689HECX    C1 4164   0.433   3.302   1.180
  689HECX    O1 4165   0.521   3.284   1.068
  689HECX    H1 4166   0.588   3.207   1.092
  690HECX    H6 4167   5.040   0.702   0.187
  690HECX    O2 4168   5.097   0.783   0.148
  690HECX    C2 4169   5.192   0.819   0.252
  690HECX    C1 4170   5.131   0.908   0.360
  690HECX    O1 4171   5.222   0.935   0.469
  690HECX    H1 4172   5.235   0.846   0.525
  691HECX    H6 4173   4.820   0.388   1.483
  691HECX    O2 4174   4.759   0.371   1.567
  691HECX    C2 4175   4.639   0.307   1.519
  691HECX    C1 4176   4.551   0.243   1.627
  691HECX    O1 4177   4.443   0.167   1.567
  691HECX    H1 4178   4.377   0.137   1.644
  692HECX    H6 4179   3.704   1.656   0.407
  692HECX    O2 4180   3.764   1.574   0.379
  692HECX    C2 4181   3.794   1.494   0.494
  692HECX    C1 4182   3.873   1.369   0.452
  692HECX    O1 4183   3.906   1.282   0.562
  692HECX    H1 4184   3.952   1.195   0.520
  693HECX    H6 4185   1.273   2.153   6.335
  693HECX    O2 4186   1.227   2.143   6.240
  693HECX    C2 4187   1.130   2.037   6.246
  693HECX    C1 4188   1.018   2.064   6.347
  693HECX    O1 4189   0.917   1.961   6.350
  693HECX    H1 4190   0.868   1.960   6.257
  694HECX    H6 4191   1.666   2.941   6.412
  694HECX    O2 4192   1.734   2.871   6.369
  694HECX    C2 4193   1.835   2.950   6.302
  694HECX    C1 4194   1.934   2.871   6.215
  694HECX    O1 4195   2.019   2.958   6.138
  694HECX    H1 4196   2.010   2.931   6.037
  695HECX    H6 4197   2.384   2.875   1.846
  695HECX    O2 4198   2.316   2.896   1.767
  695HECX    C2 4199   2.296   3.039   1.760
  695HECX    C1 4200   2.400   3.118   1.679
  695HECX    O1 4201   2.527   3.138   1.744
  695HECX    H1 4202   2.576   3.219   1.692
  696HECX    H6 4203   4.644   0.985   1.485
  696HECX    O2 4204   4.627   1.080   1.438
  696HECX    C2 4205   4.536   1.157   1.519
  696HECX    C1 4206   4.470   1.269   1.435
  696HECX    O1 4207   4.410   1.372   1.516
  696HECX    H1 4208   4.360   1.442   1.452
  697HECX    H6 4209   0.301   3.956   1.775
  697HECX    O2 4210   0.361   3.945   1.689
  697HECX    C2 4211   0.327   4.052   1.600
  697HECX    C1 4212   0.381   4.034   1.457
  697HECX    O1 4213   0.343   4.143   1.371
  697HECX    H1 4214   0.382   4.122   1.272
  698HECX    H6 4215   3.033   3.664   6.332
  698HECX    O2 4216   2.956   3.596   6.363
  698HECX    C2 4217   2.877   3.561   6.247
  698HECX    C1 4218   2.918   3.433   6.171
  698HECX    O1 4219   2.852   3.313   6.218
  698HECX    H1 4220   2.888   3.227   6.165
  699HECX    H6 4221   6.150   2.842   0.188
  699HECX    O2 4222   6.090   2.912   0.129
  699HECX    C2 4223   6.018   2.839   0.028
  699HECX    C1 4224   5.943   2.934   6.435
  699HECX    O1 4225   5.896   2.868   6.316
  699HECX    H1 4226   5.961   2.894   6.237
  700HECX    H6 4227   4.778   4.278   2.979
  700HECX    O2 4228   4.820   4.180   2.981
  700HECX    C2 4229   4.711   4.087   3.007
  700HECX    C1 4230   4.623   4.057   2.885
  700HECX    O1 4231   4.503   3.985   2.923
  700HECX    H1 4232   4.495   3.902   2.853
  701HECX    H6 4233   3.921   3.089   5.863
  701HECX    O2 4234   3.920   3.053   5.763
  701HECX    C2 4235   4.007   2.938   5.757
  701HECX    C1 4236   4.039   2.892   5.614
  701HECX    O1 4237   4.121   2.773   5.612
  701HECX    H1 4238   4.205   2.788   5.673
  702HECX    H6 4239   6.127   6.128   2.408
  702HECX    O2 4240   6.203   6.201   2.432
  702HECX    C2 4241   6.165   6.333   2.386
  702HECX    C1 4242   6.045   6.396   2.460
  702HECX    O1 4243   6.039   0.040   2.442
  702HECX    H1 4244   6.113   0.084   2.504
  703HECX    H6 4245   4.457   5.970   5.885
  703HECX    O2 4246   4.430   5.878   5.842
  703HECX    C2 4247   4.535   5.781   5.863
  703HECX    C1 4248   4.514   5.650   5.786
  703HECX    O1 4249   4.406   5.566   5.834
  703HECX    H1 4250   4.414   5.474   5.782
  704HECX    H6 4251   1.622   0.801   2.906
  704HECX    O2 4252   1.665   0.842   2.993
  704HECX    C2 4253   1.652   0.743   3.098
  704HECX    C1 4254   1.506   0.713   3.133
  704HECX    O1 4255   1.494   0.598   3.220
  704HECX    H1 4256   1.406   0.609   3.275
  705HECX    H6 4257   3.601   0.492   0.388
  705HECX    O2 4258   3.560   0.535   0.301
  705HECX    C2 4259   3.416   0.525   0.310
  705HECX    C1 4260   3.347   0.573   0.181
  705HECX    O1 4261   3.204   0.570   0.191
  705HECX    H1 4262   3.173   0.657   0.240
  706HECX    H6 4263   2.328   5.136   4.050
  706HECX    O2 4264   2.420   5.131   3.997
  706HECX    C2 4265   2.386   5.134   3.857
  706HECX    C1 4266   2.380   5.275   3.798
  706HECX    O1 4267   2.303   5.283   3.676
  706HECX    H1 4268   2.206   5.319   3.705
  707HECX    H6 4269   5.084   0.124   6.354
  707HECX    O2 4270   5.101   0.023   6.325
  707HECX    C2 4271   5.068   0.016   6.184
  707HECX    C1 4272   4.937   6.440   6.159
  707HECX    O1 4273   4.892   6.430   6.022
  707HECX    H1 4274   4.955   6.367   5.966
  708HECX    H6 4275   4.635   4.845   0.894
  708HECX    O2 4276   4.696   4.933   0.893
  708HECX    C2 4277   4.609   5.045   0.868
  708HECX    C1 4278   4.562   5.110   0.999
  708HECX    O1 4279   4.514   5.245   0.982
  708HECX    H1 4280   4.591   5.304   0.942
  709HECX    H6 4281   2.639   0.858   4.190
  709HECX    O2 4282   2.714   0.921   4.231
  709HECX    C2 4283   2.828   0.837   4.263
  709HECX    C1 4284   2.941   0.910   4.339
  709HECX    O1 4285   3.067   0.839   4.342
  709HECX    H1 4286   3.126   0.881   4.420
  710HECX    H6 4287   1.578   4.584   5.198
  710HECX    O2 4288   1.508   4.508   5.173
  710HECX    C2 4289   1.478   4.443   5.299
  710HECX    C1 4290   1.462   4.291   5.295
  710HECX    O1 4291   1.471   4.237   5.429
  710HECX    H1 4292   1.445   4.135   5.424
  711HECX    H6 4293   2.841   1.256   6.151
  711HECX    O2 4294   2.899   1.331   6.106
  711HECX    C2 4295   2.832   1.456   6.134
  711HECX    C1 4296   2.925   1.577   6.149
  711HECX    O1 4297   2.853   1.701   6.165
  711HECX    H1 4298   2.802   1.724   6.072
  712HECX    H6 4299   1.960   2.787   5.160
  712HECX    O2 4300   1.957   2.681   5.160
  712HECX    C2 4301   2.003   2.638   5.290
  712HECX    C1 4302   1.916   2.530   5.355
  712HECX    O1 4303   1.965   2.486   5.484
  712HECX    H1 4304   1.903   2.409   5.522
  713HECX    H6 4305   0.453   1.782   4.801
  713HECX    O2 4306   0.366   1.796   4.860
  713HECX    C2 4307   0.329   1.667   4.916
  713HECX    C1 4308   0.262   1.674   5.055
  713HECX    O1 4309   0.241   1.545   5.116
  713HECX    H1 4310   0.286   1.542   5.209
  714HECX    H6 4311   0.465   5.925   4.257
  714HECX    O2 4312   0.420   5.852   4.322
  714HECX    C2 4313   0.291   5.827   4.264
  714HECX    C1 4314   0.217   5.701   4.311
  714HECX    O1 4315   0.142   5.648   4.200
  714HECX    H1 4316   0.051   5.604   4.232
  715HECX    H6 4317   1.042   3.147   1.655
  715HECX    O2 4318   1.084   3.244   1.653
  715HECX    C2 4319   1.210   3.243   1.581
  715HECX    C1 4320   1.196   3.295   1.438
  715HECX    O1 4321   1.323   3.303   1.369
  715HECX    H1 4322   1.361   3.206   1.354
  716HECX    H6 4323   3.519   4.503   4.051
  716HECX    O2 4324   3.418   4.517   4.028
  716HECX    C2 4325   3.399   4.653   3.981
  716HECX    C1 4326   3.299   4.735   4.066
  716HECX    O1 4327   3.282   4.872   4.025
  716HECX    H1 4328   3.279   4.935   4.111
  717HECX    H6 4329   3.648   3.913   3.874
  717HECX    O2 4330   3.572   3.893   3.813
  717HECX    C2 4331   3.481   3.809   3.886
  717HECX    C1 4332   3.339   3.868   3.898
  717HECX    O1 4333   3.248   3.776   3.961
  717HECX    H1 4334   3.255   3.784   4.066
  718HECX    H6 4335   6.153   2.886   5.530
  718HECX    O2 4336   6.120   2.787   5.528
  718HECX    C2 4337   6.023   2.773   5.422
  718HECX    C1 4338   5.883   2.738   5.475
  718HECX    O1 4339   5.784   2.726   5.370
  718HECX    H1 4340   5.688   2.712   5.415
  719HECX    H6 4341   6.445   0.912   1.914
  719HECX    O2 4342   6.355   0.965   1.887
  719HECX    C2 4343   6.351   1.089   1.961
  719HECX    C1 4344   6.234   1.178   1.915
  719HECX    O1 4345   6.228   1.304   1.985
  719HECX    H1 4346   6.131   1.318   2.022
  720HECX    H6 4347   1.885   3.666   2.798
  720HECX    O2 4348   1.837   3.696   2.887
  720HECX    C2 4349   1.705   3.638   2.896
  720HECX    C1 4350   1.630   3.692   3.019
  720HECX    O1 4351   1.502   3.633   3.047
  720HECX    H1 4352   1.518   3.551   3.111
  721HECX    H6 4353   1.610   0.265   0.129
  721HECX    O2 4354   1.644   0.195   0.054
  721HECX    C2 4355   1.563   0.216   6.436
  721HECX    C1 4356   1.602   0.335   6.348
  721HECX    O1 4357   1.573   0.468   6.397
  721HECX    H1 4358   1.467   0.480   6.414
  722HECX    H6 4359   5.304   0.533   3.148
  722HECX    O2 4360   5.252   0.573   3.075
  722HECX    C2 4361   5.336   0.576   2.959
  722HECX    C1 4362   5.283   0.674   2.854
  722HECX    O1 4363   5.372   0.684   2.741
  722HECX    H1 4364   5.432   0.766   2.757
  723HECX    H6 4365   6.295   2.787   4.574
  723HECX    O2 4366   6.278   2.735   4.664
  723HECX    C2 4367   6.275   2.830   4.773
  723HECX    C1 4368   6.194   2.958   4.748
  723HECX    O1 4369   6.053   2.941   4.726
  723HECX    H1 4370   6.009   3.035   4.731
  724HECX    H6 4371   2.196   2.105   2.421
  724HECX    O2 4372   2.243   2.074   2.330
  724HECX    C2 4373   2.373   2.023   2.370
  724HECX    C1 4374   2.466   2.136   2.414
  724HECX    O1 4375   2.592   2.089   2.466
  724HECX    H1 4376   2.628   2.164   2.528
  725HECX    H6 4377   2.061   5.642   4.247
  725HECX    O2 4378   2.020   5.599   4.159
  725HECX    C2 4379   1.899   5.528   4.192
  725HECX    C1 4380   1.816   5.498   4.066
  725HECX    O1 4381   1.700   5.413   4.084
  725HECX    H1 4382   1.658   5.399   3.988
  726HECX    H6 4383   2.192   2.192   4.345
  726HECX    O2 4384   2.239   2.181   4.251
  726HECX    C2 4385   2.341   2.080   4.264
  726HECX    C1 4386   2.284   1.937   4.261
  726HECX    O1 4387   2.380   1.839   4.305
  726HECX    H1 4388   2.384   1.758   4.234
  727HECX    H6 4389   4.833   4.153   0.469
  727HECX    O2 4390   4.885   4.083   0.531
  727HECX    C2 4391   5.019   4.131   0.558
  727HECX    C1 4392   5.053   4.127   0.708
  727HECX    O1 4393   5.194   4.145   0.734
  727HECX    H1 4394   5.213   4.244   0.747
  728HECX    H6 4395   4.068   2.280   4.118
  728HECX    O2 4396   4.083   2.333   4.209
  728HECX    C2 4397   4.223   2.327   4.245
  728HECX    C1 4398   4.257   2.405   4.373
  728HECX    O1 4399   4.386   2.370   4.428
  728HECX    H1 4400   4.465   2.401   4.361
  729HECX    H6 4401   2.552   6.315   0.832
  729HECX    O2 4402   2.542   6.224   0.886
  729HECX    C2 4403   2.645   6.132   0.844
  729HECX    C1 4404   2.673   6.026   0.952
  729HECX    O1 4405   2.760   5.920   0.908
  729HECX    H1 4406   2.703   5.854   0.844
  730HECX    H6 4407   4.710   1.372   3.907
  730HECX    O2 4408   4.811   1.380   3.934
  730HECX    C2 4409   4.847   1.264   4.010
  730HECX    C1 4410   4.937   1.300   4.130
  730HECX    O1 4411   4.968   1.185   4.212
  730HECX    H1 4412   4.889   1.167   4.279
  731HECX    H6 4413   1.531   3.272   0.564
  731HECX    O2 4414   1.536   3.173   0.536
  731HECX    C2 4415   1.411   3.136   0.473
  731HECX    C1 4416   1.394   3.204   0.337
  731HECX    O1 4417   1.302   3.138   0.247
  731HECX    H1 4418   1.347   3.048   0.218
  732HECX    H6 4419   5.331   0.341   5.150
  732HECX    O2 4420   5.395   0.413   5.107
  732HECX    C2 4421   5.509   0.429   5.195
  732HECX    C1 4422   5.563   0.572   5.197
  732HECX    O1 4423   5.700   0.580   5.241
  732HECX    H1 4424   5.761   0.578   5.157
  733HECX    H6 4425   0.264   0.472   1.875
  733HECX    O2 4426   0.248   0.444   1.977
  733HECX    C2 4427   0.196   0.310   1.980
  733HECX    C1 4428   0.121   0.277   2.111
  733HECX    O1 4429   0.078   0.140   2.122
  733HECX    H1 4430   0.010   0.115   2.041
  734HECX    H6 4431   0.267   4.656   3.157
  734HECX    O2 4432   0.162   4.670   3.159
  734HECX    C2 4433   0.100   4.577   3.067
  734HECX    C1 4434   6.480   4.635   2.992
  734HECX    O1 4435   6.387   4.537   2.941
  734HECX    H1 4436   6.438   4.459   2.889
  735HECX    H6 4437   3.121   4.538   5.638
  735HECX    O2 4438   3.013   4.552   5.643
  735HECX    C2 4439   2.985   4.656   5.740
  735HECX    C1 4440   2.986   4.795   5.676
  735HECX    O1 4441   2.962   4.903   5.769
  735HECX    H1 4442   2.892   4.972   5.724
  736HECX    H6 4443   2.334   1.269   4.372
  736HECX    O2 4444   2.353   1.345   4.301
  736HECX    C2 4445   2.437   1.289   4.197
  736HECX    C1 4446   2.560   1.213   4.248
  736HECX    O1 4447   2.627   1.137   4.144
  736HECX    H1 4448   2.674   1.053   4.191
  737HECX    H6 4449   3.718   0.425   0.029
  737HECX    O2 4450   3.719   0.519   6.487
  737HECX    C2 4451   3.613   0.532   6.390
  737HECX    C1 4452   3.586   0.681   6.362
  737HECX    O1 4453   3.530   0.705   6.232
  737HECX    H1 4454   3.577   0.793   6.193
  738HECX    H6 4455   3.375   4.220   0.395
  738HECX    O2 4456   3.384   4.113   0.381
  738HECX    C2 4457   3.404   4.058   0.513
  738HECX    C1 4458   3.537   3.983   0.534
  738HECX    O1 4459   3.538   3.854   0.471
  738HECX    H1 4460   3.634   3.838   0.429
  739HECX    H6 4461   5.345   3.692   4.083
  739HECX    O2 4462   5.366   3.761   4.160
  739HECX    C2 4463   5.268   3.741   4.264
  739HECX    C1 4464   5.120   3.763   4.226
  739HECX    O1 4465   5.033   3.736   4.338
  739HECX    H1 4466   4.944   3.794   4.326
  740HECX    H6 4467   3.240   4.744   2.683
  740HECX    O2 4468   3.141   4.717   2.658
  740HECX    C2 4469   3.150   4.613   2.558
  740HECX    C1 4470   3.028   4.521   2.551
  740HECX    O1 4471   3.055   4.398   2.481
  740HECX    H1 4472   2.986   4.386   2.405
  741HECX    H6 4473   6.355   2.785   2.434
  741HECX    O2 4474   6.335   2.858   2.360
  741HECX    C2 4475   6.214   2.927   2.395
  741HECX    C1 4476   6.233   3.020   2.516
  741HECX    O1 4477   6.116   3.098   2.547
  741HECX    H1 4478   6.043   3.036   2.592
  742HECX    H6 4479   3.552   3.971   4.604
  742HECX    O2 4480   3.626   4.040   4.631
  742HECX    C2 4481   3.581   4.105   4.752
  742HECX    C1 4482   3.491   4.225   4.725
  742HECX    O1 4483   3.483   4.313   4.839
  742HECX    H1 4484   3.409   4.388   4.822
  743HECX    H6 4485   0.084   0.830   5.851
  743HECX    O2 4486   0.144   0.763   5.800
  743HECX    C2 4487   0.062   0.667   5.731
  743HECX    C1 4488   0.127   0.621   5.599
  743HECX    O1 4489   0.039   0.543   5.515
  743HECX    H1 4490   0.079   0.546   5.419
  744HECX    H6 4491   3.613   2.828   0.846
  744HECX    O2 4492   3.570   2.734   0.825
  744HECX    C2 4493   3.671   2.633   0.842
  744HECX    C1 4494   3.618   2.491   0.813
  744HECX    O1 4495   3.711   2.386   0.847
  744HECX    H1 4496   3.717   2.377   0.954
  745HECX    H6 4497   5.307   4.136   4.610
  745HECX    O2 4498   5.389   4.098   4.564
  745HECX    C2 4499   5.497   4.099   4.661
  745HECX    C1 4500   5.483   3.991   4.769
  745HECX    O1 4501   5.584   4.007   4.871
  745HECX    H1 4502   5.677   3.996   4.829
  746HECX    H6 4503   1.300   2.960   6.170
  746HECX    O2 4504   1.327   3.056   6.133
  746HECX    C2 4505   1.213   3.106   6.059
  746HECX    C1 4506   1.226   3.253   6.017
  746HECX    O1 4507   1.106   3.304   5.956
  746HECX    H1 4508   1.129   3.339   5.859
  747HECX    H6 4509   0.402   0.885   4.567
  747HECX    O2 4510   0.451   0.920   4.482
  747HECX    C2 4511   0.512   0.806   4.419
  747HECX    C1 4512   0.608   0.839   4.303
  747HECX    O1 4513   0.687   0.724   4.267
  747HECX    H1 4514   0.675   0.708   4.163
  748HECX    H6 4515   0.785   4.163   3.155
  748HECX    O2 4516   0.879   4.196   3.194
  748HECX    C2 4517   0.851   4.291   3.298
  748HECX    C1 4518   0.972   4.375   3.341
  748HECX    O1 4519   0.947   4.448   3.463
  748HECX    H1 4520   0.974   4.387   3.544
  749HECX    H6 4521   2.190   3.328   2.547
  749HECX    O2 4522   2.130   3.370   2.470
  749HECX    C2 4523   2.088   3.502   2.511
  749HECX    C1 4524   2.009   3.506   2.643
  749HECX    O1 4525   1.984   3.640   2.690
  749HECX    H1 4526   2.078   3.686   2.719
  750HECX    H6 4527   3.290   6.486   4.423
  750HECX    O2 4528   3.310   6.398   4.485
  750HECX    C2 4529   3.453   6.379   4.494
  750HECX    C1 4530   3.493   6.235   4.457
  750HECX    O1 4531   3.628   6.201   4.495
  750HECX    H1 4532   3.621   6.139   4.583
  751HECX    H6 4533   0.939   5.605   1.864
  751HECX    O2 4534   0.957   5.547   1.951
  751HECX    C2 4535   1.097   5.516   1.952
  751HECX    C1 4536   1.152   5.471   2.087
  751HECX    O1 4537   1.294   5.443   2.076
  751HECX    H1 4538   1.328   5.406   2.170
  752HECX    H6 4539   3.858   5.973   3.479
  752HECX    O2 4540   3.834   6.051   3.546
  752HECX    C2 4541   3.895   6.172   3.495
  752HECX    C1 4542   3.886   6.289   3.593
  752HECX    O1 4543   3.953   6.406   3.542
  752HECX    H1 4544   3.927   6.489   3.601
  753HECX    H6 4545   3.573   0.907   0.594
  753HECX    O2 4546   3.571   0.866   0.692
  753HECX    C2 4547   3.493   0.745   0.687
  753HECX    C1 4548   3.483   0.675   0.824
  753HECX    O1 4549   3.421   0.545   0.816
  753HECX    H1 4550   3.315   0.557   0.818
  754HECX    H6 4551   6.215   6.218   5.729
  754HECX    O2 4552   6.243   6.154   5.650
  754HECX    C2 4553   6.219   6.019   5.695
  754HECX    C1 4554   6.237   5.914   5.585
  754HECX    O1 4555   6.197   5.782   5.626
  754HECX    H1 4556   6.167   5.729   5.541
  755HECX    H6 4557   6.371   2.352   2.572
  755HECX    O2 4558   6.300   2.426   2.543
  755HECX    C2 4559   6.262   2.402   2.405
  755HECX    C1 4560   6.164   2.508   2.353
  755HECX    O1 4561   6.130   2.492   2.214
  755HECX    H1 4562   6.069   2.572   2.185
  756HECX    H6 4563   5.237   2.801   4.382
  756HECX    O2 4564   5.327   2.839   4.354
  756HECX    C2 4565   5.409   2.868   4.469
  756HECX    C1 4566   5.556   2.888   4.431
  756HECX    O1 4567   5.638   2.940   4.539
  756HECX    H1 4568   5.737   2.902   4.529
  757HECX    H6 4569   2.795   1.917   5.674
  757HECX    O2 4570   2.733   1.975   5.614
  757HECX    C2 4571   2.763   1.939   5.477
  757HECX    C1 4572   2.642   1.886   5.400
  757HECX    O1 4573   2.542   1.987   5.370
  757HECX    H1 4574   2.446   1.937   5.365
  758HECX    H6 4575   1.385   2.860   1.878
  758HECX    O2 4576   1.307   2.852   1.807
  758HECX    C2 4577   1.366   2.867   1.676
  758HECX    C1 4578   1.268   2.844   1.561
  758HECX    O1 4579   1.329   2.869   1.433
  758HECX    H1 4580   1.404   2.796   1.417
  759HECX    H6 4581   4.627   6.172   0.435
  759HECX    O2 4582   4.733   6.173   0.414
  759HECX    C2 4583   4.798   6.255   0.512
  759HECX    C1 4584   4.888   6.175   0.607
  759HECX    O1 4585   4.939   6.256   0.715
  759HECX    H1 4586   4.998   6.197   0.780
  760HECX    H6 4587   1.576   5.051   1.717
  760HECX    O2 4588   1.577   5.007   1.620
  760HECX    C2 4589   1.626   4.872   1.637
  760HECX    C1 4590   1.520   4.767   1.605
  760HECX    O1 4591   1.559   4.634   1.647
  760HECX    H1 4592   1.598   4.582   1.561
  761HECX    H6 4593   0.820   1.308   3.040
  761HECX    O2 4594   0.801   1.291   2.941
  761HECX    C2 4595   0.890   1.373   2.864
  761HECX    C1 4596   0.872   1.358   2.712
  761HECX    O1 4597   0.992   1.395   2.640
  761HECX    H1 4598   1.035   1.302   2.606
  762HECX    H6 4599   2.763   4.382   4.068
  762HECX    O2 4600   2.823   4.467   4.086
  762HECX    C2 4601   2.748   4.564   4.161
  762HECX    C1 4602   2.796   4.709   4.142
  762HECX    O1 4603   2.757   4.764   4.014
  762HECX    H1 4604   2.838   4.743   3.946
  763HECX    H6 4605   6.069   1.094   4.623
  763HECX    O2 4606   6.016   1.170   4.680
  763HECX    C2 4607   5.874   1.144   4.670
  763HECX    C1 4608   5.811   1.180   4.535
  763HECX    O1 4609   5.669   1.201   4.552
  763HECX    H1 4610   5.618   1.182   4.462
  764HECX    H6 4611   0.223   5.999   3.847
  764HECX    O2 4612   0.263   6.008   3.945
  764HECX    C2 4613   0.405   5.985   3.937
  764HECX    C1 4614   0.493   6.069   4.031
  764HECX    O1 4615   0.526   6.014   4.161
  764HECX    H1 4616   0.613   6.056   4.189
  765HECX    H6 4617   2.238   2.813   0.425
  765HECX    O2 4618   2.273   2.816   0.522
  765HECX    C2 4619   2.218   2.933   0.586
  765HECX    C1 4620   2.310   2.992   0.695
  765HECX    O1 4621   2.423   3.063   0.641
  765HECX    H1 4622   2.385   3.145   0.585
  766HECX    H6 4623   6.181   4.445   1.373
  766HECX    O2 4624   6.162   4.532   1.432
  766HECX    C2 4625   6.059   4.610   1.368
  766HECX    C1 4626   6.073   4.620   1.215
  766HECX    O1 4627   5.972   4.704   1.156
  766HECX    H1 4628   6.019   4.801   1.137
  767HECX    H6 4629   5.936   4.424   2.988
  767HECX    O2 4630   5.881   4.480   3.048
  767HECX    C2 4631   5.927   4.615   3.032
  767HECX    C1 4632   5.881   4.709   3.145
  767HECX    O1 4633   5.935   4.842   3.132
  767HECX    H1 4634   5.908   4.896   3.219
  768HECX    H6 4635   2.788   0.377   5.410
  768HECX    O2 4636   2.872   0.348   5.465
  768HECX    C2 4637   2.931   0.468   5.520
  768HECX    C1 4638   2.997   0.451   5.657
  768HECX    O1 4639   2.907   0.437   5.769
  768HECX    H1 4640   2.965   0.428   5.856
  769HECX    H6 4641   5.454   0.852   1.066
  769HECX    O2 4642   5.486   0.886   1.154
  769HECX    C2 4643   5.623   0.925   1.134
  769HECX    C1 4644   5.683   0.995   1.257
  769HECX    O1 4645   5.825   1.016   1.246
  769HECX    H1 4646   5.874   0.929   1.278
  770HECX    H6 4647   0.107   5.041   1.956
  770HECX    O2 4648   0.180   5.117   1.960
  770HECX    C2 4649   0.310   5.055   1.975
  770HECX    C1 4650   0.429   5.150   1.955
  770HECX    O1 4651   0.455   5.188   1.818
  770HECX    H1 4652   0.536   5.258   1.819
  771HECX    H6 4653   5.317   1.288   5.891
  771HECX    O2 4654   5.283   1.302   5.794
  771HECX    C2 4655   5.392   1.365   5.723
  771HECX    C1 4656   5.396   1.332   5.573
  771HECX    O1 4657   5.510   1.390   5.506
  771HECX    H1 4658   5.506   1.365   5.408
  772HECX    H6 4659   3.602   2.636   1.729
  772HECX    O2 4660   3.678   2.583   1.776
  772HECX    C2 4661   3.796   2.592   1.693
  772HECX    C1 4662   3.880   2.464   1.700
  772HECX    O1 4663   4.019   2.482   1.667
  772HECX    H1 4664   4.075   2.425   1.740
  773HECX    H6 4665   3.793   3.383   0.900
  773HECX    O2 4666   3.814   3.297   0.942
  773HECX    C2 4667   3.707   3.205   0.912
  773HECX    C1 4668   3.748   3.058   0.928
  773HECX    O1 4669   3.644   2.963   0.894
  773HECX    H1 4670   3.567   2.972   0.967
  774HECX    H6 4671   5.387   2.690   6.233
  774HECX    O2 4672   5.363   2.609   6.297
  774HECX    C2 4673   5.340   2.665   6.428
  774HECX    C1 4674   5.441   2.622   0.037
  774HECX    O1 4675   5.572   2.680   0.025
  774HECX    H1 4676   5.619   2.664   0.114
  775HECX    H6 4677   3.301   1.601   2.036
  775HECX    O2 4678   3.290   1.657   2.123
  775HECX    C2 4679   3.344   1.788   2.100
  775HECX    C1 4680   3.292   1.891   2.202
  775HECX    O1 4681   3.357   2.018   2.189
  775HECX    H1 4682   3.441   2.019   2.249
  776HECX    H6 4683   1.472   6.012   6.128
  776HECX    O2 4684   1.570   6.002   6.088
  776HECX    C2 4685   1.594   6.108   5.992
  776HECX    C1 4686   1.715   6.080   5.901
  776HECX    O1 4687   1.760   6.196   5.827
  776HECX    H1 4688   1.714   6.196   5.730
  777HECX    H6 4689   4.855   1.811   1.129
  777HECX    O2 4690   4.896   1.831   1.224
  777HECX    C2 4691   4.972   1.714   1.261
  777HECX    C1 4692   4.882   1.607   1.323
  777HECX    O1 4693   4.953   1.484   1.343
  777HECX    H1 4694   4.884   1.406   1.363
  778HECX    H6 4695   0.887   2.702   0.306
  778HECX    O2 4696   0.863   2.600   0.293
  778HECX    C2 4697   0.723   2.588   0.326
  778HECX    C1 4698   0.697   2.491   0.443
  778HECX    O1 4699   0.561   2.499   0.490
  778HECX    H1 4700   0.534   2.407   0.539
  779HECX    H6 4701   2.438   3.243   2.997
  779HECX    O2 4702   2.413   3.141   2.978
  779HECX    C2 4703   2.334   3.090   3.088
  779HECX    C1 4704   2.258   2.962   3.051
  779HECX    O1 4705   2.204   2.891   3.164
  779HECX    H1 4706   2.284   2.852   3.219
  780HECX    H6 4707   0.173   1.505   4.027
  780HECX    O2 4708   0.143   1.544   3.935
  780HECX    C2 4709   0.016   1.484   3.899
  780HECX    C1 4710   6.396   1.576   3.926
  780HECX    O1 4711   6.273   1.515   3.885
  780HECX    H1 4712   6.245   1.558   3.792
  781HECX    H6 4713   1.774   2.916   0.651
  781HECX    O2 4714   1.732   2.821   0.661
  781HECX    C2 4715   1.599   2.838   0.714
  781HECX    C1 4716   1.520   2.706   0.718
  781HECX    O1 4717   1.393   2.719   0.785
  781HECX    H1 4718   1.332   2.638   0.754
  782HECX    H6 4719   2.384   1.500   2.669
  782HECX    O2 4720   2.393   1.486   2.773
  782HECX    C2 4721   2.305   1.582   2.835
  782HECX    C1 4722   2.162   1.529   2.853
  782HECX    O1 4723   2.076   1.624   2.920
  782HECX    H1 4724   2.030   1.684   2.846
  783HECX    H6 4725   5.039   0.352   2.137
  783HECX    O2 4726   4.991   0.403   2.214
  783HECX    C2 4727   5.089   0.420   2.319
  783HECX    C1 4728   5.134   0.286   2.376
  783HECX    O1 4729   5.267   0.287   2.430
  783HECX    H1 4730   5.269   0.352   2.514
  784HECX    H6 4731   3.409   4.790   2.820
  784HECX    O2 4732   3.376   4.795   2.717
  784HECX    C2 4733   3.398   4.930   2.670
  784HECX    C1 4734   3.314   4.962   2.545
  784HECX    O1 4735   3.313   5.101   2.508
  784HECX    H1 4736   3.237   5.114   2.439
  785HECX    H6 4737   0.074   0.036   4.187
  785HECX    O2 4738   0.015   0.076   4.266
  785HECX    C2 4739   0.105   0.137   4.360
  785HECX    C1 4740   0.038   0.235   4.458
  785HECX    O1 4741   0.136   0.315   4.527
  785HECX    H1 4742   0.130   0.295   4.631
  786HECX    H6 4743   0.343   0.383   3.939
  786HECX    O2 4744   0.266   0.313   3.916
  786HECX    C2 4745   0.272   0.209   4.015
  786HECX    C1 4746   0.206   0.078   3.969
  786HECX    O1 4747   0.163   6.492   4.078
  786HECX    H1 4748   0.249   6.438   4.115
  787HECX    H6 4749   3.179   3.683   3.889
  787HECX    O2 4750   3.135   3.603   3.831
  787HECX    C2 4751   3.002   3.581   3.883
  787HECX    C1 4752   2.901   3.545   3.773
  787HECX    O1 4753   2.768   3.524   3.824
  787HECX    H1 4754   2.744   3.422   3.806
  788HECX    H6 4755   4.010   4.816   2.279
  788HECX    O2 4756   3.989   4.913   2.313
  788HECX    C2 4757   3.919   4.904   2.439
  788HECX    C1 4758   3.869   5.040   2.491
  788HECX    O1 4759   3.820   5.031   2.626
  788HECX    H1 4760   3.745   5.106   2.642
  789HECX    H6 4761   6.228   1.624   6.241
  789HECX    O2 4762   6.223   1.542   6.176
  789HECX    C2 4763   6.094   1.480   6.192
  789HECX    C1 4764   6.058   1.384   6.077
  789HECX    O1 4765   5.939   1.307   6.103
  789HECX    H1 4766   5.852   1.372   6.109
  790HECX    H6 4767   0.970   5.550   3.430
  790HECX    O2 4768   1.011   5.528   3.526
  790HECX    C2 4769   0.935   5.425   3.592
  790HECX    C1 4770   0.924   5.295   3.510
  790HECX    O1 4771   0.852   5.190   3.578
  790HECX    H1 4772   0.913   5.150   3.658
  791HECX    H6 4773   5.479   1.642   1.675
  791HECX    O2 4774   5.400   1.701   1.712
  791HECX    C2 4775   5.455   1.822   1.770
  791HECX    C1 4776   5.580   1.794   1.853
  791HECX    O1 4777   5.622   1.906   1.935
  791HECX    H1 4778   5.731   1.908   1.936
  792HECX    H6 4779   4.155   5.281   0.986
  792HECX    O2 4780   4.088   5.231   1.049
  792HECX    C2 4781   3.995   5.153   0.971
  792HECX    C1 4782   4.048   5.104   0.835
  792HECX    O1 4783   4.157   5.009   0.842
  792HECX    H1 4784   4.112   4.911   0.846
  793HECX    H6 4785   4.852   3.645   0.940
  793HECX    O2 4786   4.790   3.707   0.999
  793HECX    C2 4787   4.655   3.692   0.950
  793HECX    C1 4788   4.644   3.734   0.803
  793HECX    O1 4789   4.522   3.693   0.740
  793HECX    H1 4790   4.535   3.705   0.636
  794HECX    H6 4791   2.302   5.188   6.332
  794HECX    O2 4792   2.325   5.283   6.288
  794HECX    C2 4793   2.307   5.275   6.145
  794HECX    C1 4794   2.343   5.408   6.077
  794HECX    O1 4795   2.291   5.423   5.943
  794HECX    H1 4796   2.364   5.393   5.874
  795HECX    H6 4797   0.357   1.248   1.271
  795HECX    O2 4798   0.351   1.226   1.169
  795HECX    C2 4799   0.242   1.301   1.112
  795HECX    C1 4800   0.290   1.409   1.013
  795HECX    O1 4801   0.182   1.482   0.953
  795HECX    H1 4802   0.163   1.442   0.857
  796HECX    H6 4803   5.674   1.070   2.364
  796HECX    O2 4804   5.619   1.051   2.275
  796HECX    C2 4805   5.634   0.913   2.239
  796HECX    C1 4806   5.582   0.883   2.097
  796HECX    O1 4807   5.571   0.742   2.068
  796HECX    H1 4808   5.585   0.725   1.964
  797HECX    H6 4809   3.152   0.763   2.500
  797HECX    O2 4810   3.056   0.730   2.466
  797HECX    C2 4811   2.957   0.818   2.526
  797HECX    C1 4812   2.959   0.961   2.470
  797HECX    O1 4813   2.884   1.059   2.546
  797HECX    H1 4814   2.815   1.013   2.610
  798HECX    H6 4815   4.467   2.586   1.683
  798HECX    O2 4816   4.416   2.679   1.681
  798HECX    C2 4817   4.510   2.783   1.717
  798HECX    C1 4818   4.449   2.921   1.747
  798HECX    O1 4819   4.372   2.927   1.869
  798HECX    H1 4820   4.295   2.996   1.856
  799HECX    H6 4821   4.353   0.598   2.198
  799HECX    O2 4822   4.304   0.639   2.112
  799HECX    C2 4823   4.216   0.747   2.154
  799HECX    C1 4824   4.088   0.703   2.228
  799HECX    O1 4825   4.107   0.671   2.368
  799HECX    H1 4826   4.012   0.653   2.411
  800HECX    H6 4827   3.354   4.468   2.094
  800HECX    O2 4828   3.434   4.523   2.138
  800HECX    C2 4829   3.391   4.661   2.143
  800HECX    C1 4830   3.482   4.754   2.224
  800HECX    O1 4831   3.450   4.893   2.201
  800HECX    H1 4832   3.533   4.938   2.159
  801HECX    H6 4833   3.659   0.428   3.226
  801HECX    O2 4834   3.726   0.488   3.169
  801HECX    C2 4835   3.825   0.541   3.259
  801HECX    C1 4836   3.929   0.436   3.301
  801HECX    O1 4837   4.008   0.480   3.414
  801HECX    H1 4838   4.099   0.423   3.415
  802HECX    H6 4839   0.704   2.288   6.297
  802HECX    O2 4840   0.630   2.301   6.370
  802HECX    C2 4841   0.609   2.178   6.442
  802HECX    C1 4842   0.568   2.198   0.090
  802HECX    O1 4843   0.540   2.074   0.158
  802HECX    H1 4844   0.541   2.091   0.264
  803HECX    H6 4845   4.194   5.081   3.644
  803HECX    O2 4846   4.139   5.128   3.722
  803HECX    C2 4847   4.057   5.030   3.789
  803HECX    C1 4848   3.922   5.007   3.719
  803HECX    O1 4849   3.833   4.919   3.793
  803HECX    H1 4850   3.741   4.908   3.736
  804HECX    H6 4851   4.642   2.412   5.980
  804HECX    O2 4852   4.739   2.403   6.020
  804HECX    C2 4853   4.831   2.416   5.911
  804HECX    C1 4854   4.961   2.489   5.948
  804HECX    O1 4855   5.048   2.502   5.833
  804HECX    H1 4856   5.082   2.404   5.809
  805HECX    H6 4857   1.726   2.488   2.012
  805HECX    O2 4858   1.791   2.447   2.086
  805HECX    C2 4859   1.921   2.435   2.023
  805HECX    C1 4860   2.024   2.345   2.093
  805HECX    O1 4861   2.027   2.207   2.048
  805HECX    H1 4862   2.128   2.174   2.057
  806HECX    H6 4863   0.073   0.622   2.500
  806HECX    O2 4864   6.485   0.575   2.539
  806HECX    C2 4865   6.460   0.623   2.673
  806HECX    C1 4866   6.369   0.530   2.755
  806HECX    O1 4867   6.330   0.585   2.882
  806HECX    H1 4868   6.403   0.563   2.955
  807HECX    H6 4869   0.384   1.267   3.380
  807HECX    O2 4870   0.313   1.245   3.447
  807HECX    C2 4871   0.322   1.106   3.480
  807HECX    C1 4872   0.205   1.054   3.567
  807HECX    O1 4873   0.210   1.089   3.707
  807HECX    H1 4874   0.130   1.036   3.757
  808HECX    H6 4875   1.832   4.316   4.921
  808HECX    O2 4876   1.777   4.240   4.867
  808HECX    C2 4877   1.672   4.306   4.793
  808HECX    C1 4878   1.548   4.331   4.881
  808HECX    O1 4879   1.534   4.467   4.928
  808HECX    H1 4880   1.528   4.466   5.033
  809HECX    H6 4881   4.748   1.996   0.263
  809HECX    O2 4882   4.804   2.010   0.352
  809HECX    C2 4883   4.913   1.916   0.350
  809HECX    C1 4884   5.001   1.927   0.475
  809HECX    O1 4885   5.120   1.847   0.462
  809HECX    H1 4886   5.200   1.912   0.439
  810HECX    H6 4887   3.558   0.043   3.676
  810HECX    O2 4888   3.591   6.465   3.615
  810HECX    C2 4889   3.520   6.475   3.490
  810HECX    C1 4890   3.555   6.363   3.391
  810HECX    O1 4891   3.440   6.321   3.314
  810HECX    H1 4892   3.380   6.262   3.378
  811HECX    H6 4893   3.565   5.766   4.494
  811HECX    O2 4894   3.654   5.758   4.434
  811HECX    C2 4895   3.768   5.778   4.522
  811HECX    C1 4896   3.856   5.899   4.492
  811HECX    O1 4897   3.977   5.897   4.571
  811HECX    H1 4898   4.017   5.994   4.575
  812HECX    H6 4899   5.933   2.854   4.003
  812HECX    O2 4900   5.861   2.927   3.973
  812HECX    C2 4901   5.903   3.054   4.029
  812HECX    C1 4902   5.818   3.174   3.984
  812HECX    O1 4903   5.897   3.295   3.985
  812HECX    H1 4904   5.843   3.373   4.027
  813HECX    H6 4905   3.712   0.948   1.030
  813HECX    O2 4906   3.768   0.913   1.114
  813HECX    C2 4907   3.714   0.980   1.230
  813HECX    C1 4908   3.800   0.974   1.357
  813HECX    O1 4909   3.827   0.840   1.405
  813HECX    H1 4910   3.844   0.848   1.511
  814HECX    H6 4911   2.021   0.118   4.565
  814HECX    O2 4912   2.038   0.222   4.575
  814HECX    C2 4913   1.911   0.290   4.575
  814HECX    C1 4914   1.930   0.441   4.560
  814HECX    O1 4915   1.809   0.517   4.537
  814HECX    H1 4916   1.836   0.619   4.548
  815HECX    H6 4917   0.292   2.474   2.211
  815HECX    O2 4918   0.303   2.490   2.316
  815HECX    C2 4919   0.295   2.364   2.385
  815HECX    C1 4920   0.259   2.385   2.532
  815HECX    O1 4921   0.239   2.264   2.608
  815HECX    H1 4922   0.333   2.213   2.618
  816HECX    H6 4923   6.359   3.746   0.638
  816HECX    O2 4924   6.322   3.837   0.685
  816HECX    C2 4925   6.362   3.835   0.824
  816HECX    C1 4926   6.251   3.867   0.925
  816HECX    O1 4927   6.161   3.757   0.949
  816HECX    H1 4928   6.069   3.797   0.984
  817HECX    H6 4929   2.335   3.832   4.845
  817HECX    O2 4930   2.368   3.856   4.745
  817HECX    C2 4931   2.509   3.831   4.733
  817HECX    C1 4932   2.561   3.890   4.601
  817HECX    O1 4933   2.702   3.868   4.578
  817HECX    H1 4934   2.708   3.820   4.483
  818HECX    H6 4935   2.896   2.789   2.136
  818HECX    O2 4936   2.987   2.837   2.116
  818HECX    C2 4937   3.065   2.836   2.237
  818HECX    C1 4938   3.217   2.842   2.211
  818HECX    O1 4939   3.294   2.857   2.332
  818HECX    H1 4940   3.395   2.863   2.306
  819HECX    H6 4941   3.845   5.464   4.303
  819HECX    O2 4942   3.931   5.451   4.241
  819HECX    C2 4943   3.991   5.323   4.272
  819HECX    C1 4944   4.115   5.291   4.186
  819HECX    O1 4945   4.166   5.158   4.213
  819HECX    H1 4946   4.259   5.144   4.159
  820HECX    H6 4947   2.286   0.087   5.864
  820HECX    O2 4948   2.277   0.171   5.803
  820HECX    C2 4949   2.251   0.285   5.888
  820HECX    C1 4950   2.368   0.317   5.983
  820HECX    O1 4951   2.408   0.205   6.066
  820HECX    H1 4952   2.363   0.216   6.163
  821HECX    H6 4953   1.592   0.547   2.275
  821HECX    O2 4954   1.532   0.459   2.256
  821HECX    C2 4955   1.592   0.350   2.331
  821HECX    C1 4956   1.682   0.255   2.251
  821HECX    O1 4957   1.743   0.158   2.337
  821HECX    H1 4958   1.788   0.080   2.280
  822HECX    H6 4959   3.832   4.332   6.285
  822HECX    O2 4960   3.863   4.335   6.387
  822HECX    C2 4961   4.003   4.370   6.396
  822HECX    C1 4962   4.098   4.262   6.343
  822HECX    O1 4963   4.233   4.274   6.393
  822HECX    H1 4964   4.231   4.250   6.495
  823HECX    H6 4965   6.460   2.485   5.970
  823HECX    O2 4966   6.470   2.484   5.862
  823HECX    C2 4967   6.337   2.473   5.805
  823HECX    C1 4968   6.293   2.600   5.731
  823HECX    O1 4969   6.181   2.577   5.643
  823HECX    H1 4970   6.155   2.670   5.596
  824HECX    H6 4971   5.146   5.417   2.071
  824HECX    O2 4972   5.099   5.384   2.160
  824HECX    C2 4973   4.958   5.368   2.131
  824HECX    C1 4974   4.878   5.307   2.247
  824HECX    O1 4975   4.736   5.317   2.224
  824HECX    H1 4976   4.701   5.409   2.265
  825HECX    H6 4977   3.765   4.860   5.814
  825HECX    O2 4978   3.805   4.855   5.913
  825HECX    C2 4979   3.904   4.957   5.933
  825HECX    C1 4980   4.045   4.903   5.906
  825HECX    O1 4981   4.151   4.994   5.943
  825HECX    H1 4982   4.241   4.939   5.933
  826HECX    H6 4983   2.904   0.732   1.654
  826HECX    O2 4984   2.907   0.763   1.757
  826HECX    C2 4985   3.017   0.856   1.768
  826HECX    C1 4986   2.974   1.002   1.750
  826HECX    O1 4987   3.080   1.086   1.700
  826HECX    H1 4988   3.070   1.183   1.739
  827HECX    H6 4989   5.649   4.352   2.855
  827HECX    O2 4990   5.642   4.365   2.752
  827HECX    C2 4991   5.516   4.427   2.723
  827HECX    C1 4992   5.504   4.576   2.756
  827HECX    O1 4993   5.391   4.631   2.687
  827HECX    H1 4994   5.423   4.655   2.589
  828HECX    H6 4995   6.111   5.806   6.140
  828HECX    O2 4996   6.126   5.897   6.189
  828HECX    C2 4997   6.016   5.986   6.161
  828HECX    C1 4998   6.006   6.033   6.015
  828HECX    O1 4999   5.952   5.936   5.923
  828HECX    H1 5000   5.897   5.990   5.849
  829HECX    H6 5001   5.494   3.810   5.299
  829HECX    O2 5002   5.558   3.855   5.368
  829HECX    C2 5003   5.532   3.800   5.499
  829HECX    C1 5004   5.652   3.722   5.553
  829HECX    O1 5005   5.634   3.665   5.684
  829HECX    H1 5006   5.697   3.716   5.749
  830HECX    H6 5007   1.096   4.370   5.123
  830HECX    O2 5008   1.136   4.273   5.130
  830HECX    C2 5009   1.157   4.222   4.996
  830HECX    C1 5010   1.219   4.081   4.995
  830HECX    O1 5011   1.253   4.032   4.863
  830HECX    H1 5012   1.332   3.957   4.879
  831HECX    H6 5013   3.889   5.058   1.815
  831HECX    O2 5014   3.817   4.984   1.810
  831HECX    C2 5015   3.716   5.024   1.715
  831HECX    C1 5016   3.748   4.985   1.571
  831HECX    O1 5017   3.639   5.005   1.479
  831HECX    H1 5018   3.673   5.073   1.406
  832HECX    H6 5019   2.987   5.218   3.128
  832HECX    O2 5020   3.056   5.296   3.110
  832HECX    C2 5021   2.981   5.410   3.064
  832HECX    C1 5022   3.027   5.542   3.127
  832HECX    O1 5023   2.951   5.656   3.084
  832HECX    H1 5024   2.907   5.700   3.168
  833HECX    H6 5025   4.291   0.582   5.823
  833HECX    O2 5026   4.282   0.496   5.767
  833HECX    C2 5027   4.299   0.538   5.630
  833HECX    C1 5028   4.319   0.423   5.530
  833HECX    O1 5029   4.450   0.362   5.531
  833HECX    H1 5030   4.445   0.275   5.587
  834HECX    H6 5031   5.431   4.266   1.923
  834HECX    O2 5032   5.429   4.260   2.030
  834HECX    C2 5033   5.499   4.376   2.079
  834HECX    C1 5034   5.414   4.458   2.177
  834HECX    O1 5035   5.453   4.597   2.188
  834HECX    H1 5036   5.391   4.651   2.121
  835HECX    H6 5037   0.325   1.193   2.369
  835HECX    O2 5038   0.241   1.217   2.318
  835HECX    C2 5039   0.128   1.199   2.406
  835HECX    C1 5040   6.493   1.170   2.339
  835HECX    O1 5041   6.425   1.288   2.291
  835HECX    H1 5042   6.341   1.297   2.341
  836HECX    H6 5043   1.993   1.008   5.327
  836HECX    O2 5044   2.003   0.992   5.223
  836HECX    C2 5045   1.933   1.092   5.148
  836HECX    C1 5046   1.959   1.238   5.190
  836HECX    O1 5047   1.893   1.335   5.106
  836HECX    H1 5048   1.909   1.431   5.148
  837HECX    H6 5049   2.973   3.992   4.738
  837HECX    O2 5050   3.040   4.070   4.706
  837HECX    C2 5051   3.025   4.187   4.790
  837HECX    C1 5052   3.070   4.313   4.715
  837HECX    O1 5053   3.078   4.433   4.794
  837HECX    H1 5054   2.983   4.474   4.805
  838HECX    H6 5055   1.184   5.100   2.046
  838HECX    O2 5056   1.151   5.071   1.952
  838HECX    C2 5057   1.028   5.138   1.920
  838HECX    C1 5058   1.007   5.164   1.770
  838HECX    O1 5059   0.888   5.241   1.741
  838HECX    H1 5060   0.891   5.269   1.640
  839HECX    H6 5061   1.558   5.024   3.424
  839HECX    O2 5062   1.548   5.039   3.326
  839HECX    C2 5063   1.682   5.053   3.273
  839HECX    C1 5064   1.689   5.101   3.127
  839HECX    O1 5065   1.817   5.154   3.088
  839HECX    H1 5066   1.879   5.075   3.058
  840HECX    H6 5067   3.672   5.867   0.598
  840HECX    O2 5068   3.749   5.934   0.626
  840HECX    C2 5069   3.875   5.875   0.586
  840HECX    C1 5070   3.902   5.747   0.665
  840HECX    O1 5071   4.020   5.673   0.626
  840HECX    H1 5072   4.053   5.624   0.714
  841HECX    H6 5073   2.864   3.847   1.056
  841HECX    O2 5074   2.873   3.952   1.047
  841HECX    C2 5075   2.778   4.017   1.133
  841HECX    C1 5076   2.741   4.157   1.080
  841HECX    O1 5077   2.648   4.231   1.163
  841HECX    H1 5078   2.656   4.330   1.135
  842HECX    H6 5079   3.986   0.751   4.332
  842HECX    O2 5080   4.062   0.683   4.311
  842HECX    C2 5081   4.001   0.559   4.269
  842HECX    C1 5082   3.907   0.502   4.376
  842HECX    O1 5083   3.830   0.392   4.325
  842HECX    H1 5084   3.782   0.343   4.406
  843HECX    H6 5085   5.850   5.578   2.540
  843HECX    O2 5086   5.767   5.532   2.494
  843HECX    C2 5087   5.815   5.429   2.405
  843HECX    C1 5088   5.866   5.308   2.483
  843HECX    O1 5089   5.923   5.203   2.402
  843HECX    H1 5090   5.933   5.118   2.465
  844HECX    H6 5091   0.070   1.664   2.970
  844HECX    O2 5092   0.079   1.698   2.872
  844HECX    C2 5093   0.205   1.648   2.823
  844HECX    C1 5094   0.265   1.727   2.705
  844HECX    O1 5095   0.403   1.692   2.681
  844HECX    H1 5096   0.436   1.745   2.595
  845HECX    H6 5097   0.615   1.138   0.206
  845HECX    O2 5098   0.663   1.218   0.254
  845HECX    C2 5099   0.799   1.223   0.206
  845HECX    C1 5100   0.904   1.252   0.314
  845HECX    O1 5101   1.037   1.259   0.257
  845HECX    H1 5102   1.101   1.312   0.323
  846HECX    H6 5103   0.427   2.951   0.839
  846HECX    O2 5104   0.491   3.005   0.772
  846HECX    C2 5105   0.408   3.098   0.699
  846HECX    C1 5106   0.325   3.189   0.792
  846HECX    O1 5107   0.322   3.327   0.749
  846HECX    H1 5108   0.413   3.371   0.782
  847HECX    H6 5109   1.030   6.342   3.816
  847HECX    O2 5110   1.021   6.293   3.723
  847HECX    C2 5111   1.074   6.160   3.742
  847HECX    C1 5112   1.111   6.084   3.614
  847HECX    O1 5113   1.158   5.949   3.637
  847HECX    H1 5114   1.179   5.907   3.538
  848HECX    H6 5115   4.977   5.758   3.575
  848HECX    O2 5116   5.011   5.778   3.673
  848HECX    C2 5117   5.150   5.739   3.689
  848HECX    C1 5118   5.209   5.800   3.817
  848HECX    O1 5119   5.325   5.733   3.870
  848HECX    H1 5120   5.365   5.799   3.938
  849HECX    H6 5121   0.863   1.302   3.507
  849HECX    O2 5122   0.850   1.212   3.558
  849HECX    C2 5123   0.821   1.239   3.696
  849HECX    C1 5124   0.919   1.170   3.792
  849HECX    O1 5125   0.898   1.207   3.931
  849HECX    H1 5126   0.958   1.142   3.993
  850HECX    H6 5127   5.299   2.479   5.292
  850HECX    O2 5128   5.228   2.498   5.215
  850HECX    C2 5129   5.153   2.616   5.251
  850HECX    C1 5130   5.075   2.674   5.133
  850HECX    O1 5131   5.021   2.804   5.164
  850HECX    H1 5132   5.020   2.860   5.076
  851HECX    H6 5133   2.471   0.983   5.032
  851HECX    O2 5134   2.363   0.975   5.039
  851HECX    C2 5135   2.306   1.107   5.025
  851HECX    C1 5136   2.301   1.154   4.878
  851HECX    O1 5137   2.247   1.287   4.862
  851HECX    H1 5138   2.139   1.280   4.856
  852HECX    H6 5139   4.332   2.299   6.432
  852HECX    O2 5140   4.278   2.264   0.017
  852HECX    C2 5141   4.154   2.336   0.029
  852HECX    C1 5142   4.163   2.455   0.126
  852HECX    O1 5143   4.034   2.508   0.163
  852HECX    H1 5144   4.006   2.463   0.255
  853HECX    H6 5145   1.327   0.629   6.424
  853HECX    O2 5146   1.338   0.523   6.426
  853HECX    C2 5147   1.232   0.468   0.005
  853HECX    C1 5148   1.172   0.343   6.440
  853HECX    O1 5149   1.079   0.274   0.026
  853HECX    H1 5150   1.036   0.196   6.468
  854HECX    H6 5151   5.451   5.474   2.244
  854HECX    O2 5152   5.444   5.433   2.149
  854HECX    C2 5153   5.414   5.541   2.058
  854HECX    C1 5154   5.340   5.503   1.928
  854HECX    O1 5155   5.201   5.465   1.946
  854HECX    H1 5156   5.168   5.440   1.856
  855HECX    H6 5157   4.963   4.762   1.303
  855HECX    O2 5158   4.999   4.736   1.399
  855HECX    C2 5159   5.003   4.856   1.480
  855HECX    C1 5160   5.141   4.878   1.544
  855HECX    O1 5161   5.147   5.000   1.622
  855HECX    H1 5162   5.138   4.972   1.724
  856HECX    H6 5163   1.063   2.138   2.441
  856HECX    O2 5164   1.056   2.226   2.496
  856HECX    C2 5165   1.176   2.243   2.574
  856HECX    C1 5166   1.284   2.326   2.502
  856HECX    O1 5167   1.415   2.315   2.561
  856HECX    H1 5168   1.466   2.239   2.508
  857HECX    H6 5169   6.171   2.162   0.634
  857HECX    O2 5170   6.217   2.094   0.696
  857HECX    C2 5171   6.258   1.980   0.618
  857HECX    C1 5172   6.404   1.938   0.641
  857HECX    O1 5173   6.439   1.828   0.556
  857HECX    H1 5174   0.045   1.829   0.540
  858HECX    H6 5175   5.505   2.731   5.353
  858HECX    O2 5176   5.553   2.699   5.445
  858HECX    C2 5177   5.504   2.779   5.554
  858HECX    C1 5178   5.353   2.763   5.579
  858HECX    O1 5179   5.303   2.855   5.678
  858HECX    H1 5180   5.272   2.799   5.761
  859HECX    H6 5181   0.726   1.065   5.786
  859HECX    O2 5182   0.756   1.031   5.883
  859HECX    C2 5183   0.850   1.127   5.934
  859HECX    C1 5184   0.997   1.099   5.894
  859HECX    O1 5185   1.084   1.211   5.921
  859HECX    H1 5186   1.142   1.192   6.007
  860HECX    H6 5187   4.824   4.964   0.939
  860HECX    O2 5188   4.923   4.982   0.979
  860HECX    C2 5189   4.938   5.121   1.014
  860HECX    C1 5190   4.971   5.208   0.891
  860HECX    O1 5191   4.957   5.349   0.917
  860HECX    H1 5192   5.054   5.393   0.919
  861HECX    H6 5193   4.381   2.261   1.476
  861HECX    O2 5194   4.303   2.318   1.425
  861HECX    C2 5195   4.368   2.372   1.308
  861HECX    C1 5196   4.483   2.467   1.344
  861HECX    O1 5197   4.574   2.490   1.235
  861HECX    H1 5198   4.519   2.523   1.148
  862HECX    H6 5199   2.416   0.344   3.783
  862HECX    O2 5200   2.491   0.275   3.755
  862HECX    C2 5201   2.570   0.250   3.872
  862HECX    C1 5202   2.651   0.120   3.861
  862HECX    O1 5203   2.757   0.113   3.958
  862HECX    H1 5204   2.841   0.165   3.915
  863HECX    H6 5205   2.818   1.566   4.084
  863HECX    O2 5206   2.875   1.479   4.068
  863HECX    C2 5207   2.955   1.456   4.186
  863HECX    C1 5208   3.046   1.576   4.216
  863HECX    O1 5209   3.119   1.569   4.340
  863HECX    H1 5210   3.054   1.592   4.419
  864HECX    H6 5211   0.661   3.971   2.051
  864HECX    O2 5212   0.639   4.071   2.069
  864HECX    C2 5213   0.528   4.107   1.984
  864HECX    C1 5214   0.439   4.219   2.042
  864HECX    O1 5215   0.315   4.235   1.969
  864HECX    H1 5216   0.270   4.325   2.005
  865HECX    H6 5217   5.935   3.685   6.301
  865HECX    O2 5218   5.940   3.699   6.199
  865HECX    C2 5219   5.916   3.573   6.133
  865HECX    C1 5220   5.771   3.523   6.139
  865HECX    O1 5221   5.759   3.393   6.079
  865HECX    H1 5222   5.667   3.348   6.111
  866HECX    H6 5223   3.556   1.054   4.753
  866HECX    O2 5224   3.477   0.993   4.783
  866HECX    C2 5225   3.364   1.016   4.696
  866HECX    C1 5226   3.345   0.910   4.586
  866HECX    O1 5227   3.208   0.905   4.539
  866HECX    H1 5228   3.148   0.886   4.626
  867HECX    H6 5229   6.050   1.795   1.443
  867HECX    O2 5230   6.026   1.849   1.528
  867HECX    C2 5231   5.895   1.808   1.572
  867HECX    C1 5232   5.782   1.905   1.536
  867HECX    O1 5233   5.750   1.911   1.396
  867HECX    H1 5234   5.652   1.876   1.383
  868HECX    H6 5235   4.753   0.890   2.365
  868HECX    O2 5236   4.777   0.948   2.454
  868HECX    C2 5237   4.747   1.086   2.423
  868HECX    C1 5238   4.683   1.163   2.539
  868HECX    O1 5239   4.639   1.295   2.503
  868HECX    H1 5240   4.533   1.304   2.523
  869HECX    H6 5241   3.510   3.193   2.178
  869HECX    O2 5242   3.513   3.156   2.276
  869HECX    C2 5243   3.393   3.190   2.347
  869HECX    C1 5244   3.411   3.171   2.498
  869HECX    O1 5245   3.286   3.165   2.570
  869HECX    H1 5246   3.250   3.067   2.565
  870HECX    H6 5247   4.136   1.156   3.272
  870HECX    O2 5248   4.206   1.088   3.250
  870HECX    C2 5249   4.336   1.146   3.267
  870HECX    C1 5250   4.445   1.048   3.222
  870HECX    O1 5251   4.574   1.076   3.279
  870HECX    H1 5252   4.625   0.984   3.287
  871HECX    H6 5253   6.134   5.828   3.324
  871HECX    O2 5254   6.034   5.860   3.303
  871HECX    C2 5255   6.021   5.995   3.351
  871HECX    C1 5256   5.917   6.076   3.274
  871HECX    O1 5257   5.965   6.208   3.243
  871HECX    H1 5258   6.043   6.194   3.173
  872HECX    H6 5259   2.924   6.070   2.667
  872HECX    O2 5260   3.008   6.109   2.618
  872HECX    C2 5261   2.990   6.087   2.477
  872HECX    C1 5262   3.050   5.953   2.433
  872HECX    O1 5263   3.009   5.915   2.300
  872HECX    H1 5264   3.066   5.831   2.266
  873HECX    H6 5265   2.099   5.527   5.472
  873HECX    O2 5266   2.143   5.579   5.391
  873HECX    C2 5267   2.060   5.693   5.360
  873HECX    C1 5268   1.975   5.674   5.233
  873HECX    O1 5269   1.926   5.800   5.181
  873HECX    H1 5270   2.009   5.853   5.142
  874HECX    H6 5271   1.529   1.076   3.448
  874HECX    O2 5272   1.566   1.020   3.366
  874HECX    C2 5273   1.587   1.110   3.255
  874HECX    C1 5274   1.467   1.131   3.163
  874HECX    O1 5275   1.493   1.230   3.062
  874HECX    H1 5276   1.500   1.324   3.111
  875HECX    H6 5277   5.425   5.276   3.463
  875HECX    O2 5278   5.387   5.285   3.366
  875HECX    C2 5279   5.246   5.309   3.374
  875HECX    C1 5280   5.210   5.423   3.470
  875HECX    O1 5281   5.073   5.414   3.516
  875HECX    H1 5282   5.071   5.352   3.601
  876HECX    H6 5283   3.960   2.266   4.257
  876HECX    O2 5284   3.882   2.201   4.288
  876HECX    C2 5285   3.933   2.137   4.406
  876HECX    C1 5286   3.990   1.997   4.379
  876HECX    O1 5287   4.101   1.968   4.466
  876HECX    H1 5288   4.074   1.994   4.564
  877HECX    H6 5289   1.728   5.098   4.676
  877HECX    O2 5290   1.636   5.144   4.675
  877HECX    C2 5291   1.641   5.253   4.770
  877HECX    C1 5292   1.770   5.334   4.758
  877HECX    O1 5293   1.782   5.439   4.856
  877HECX    H1 5294   1.748   5.524   4.812
  878HECX    H6 5295   3.360   5.057   5.767
  878HECX    O2 5296   3.325   5.074   5.866
  878HECX    C2 5297   3.374   4.966   5.949
  878HECX    C1 5298   3.266   4.860   5.977
  878HECX    O1 5299   3.312   4.751   6.059
  878HECX    H1 5300   3.231   4.712   6.114
  879HECX    H6 5301   3.433   0.786   1.374
  879HECX    O2 5302   3.380   0.845   1.441
  879HECX    C2 5303   3.462   0.866   1.557
  879HECX    C1 5304   3.389   0.930   1.676
  879HECX    O1 5305   3.465   0.917   1.798
  879HECX    H1 5306   3.412   0.962   1.877
  880HECX    H6 5307   2.143   3.687   5.702
  880HECX    O2 5308   2.162   3.692   5.806
  880HECX    C2 5309   2.304   3.712   5.819
  880HECX    C1 5310   2.364   3.662   5.952
  880HECX    O1 5311   2.503   3.696   5.965
  880HECX    H1 5312   2.513   3.789   6.018
  881HECX    H6 5313   0.737   0.676   4.595
  881HECX    O2 5314   0.670   0.682   4.676
  881HECX    C2 5315   0.701   0.804   4.747
  881HECX    C1 5316   0.783   0.787   4.876
  881HECX    O1 5317   0.905   0.710   4.861
  881HECX    H1 5318   0.978   0.747   4.928
  882HECX    H6 5319   5.649   6.437   1.574
  882HECX    O2 5320   5.647   6.340   1.533
  882HECX    C2 5321   5.754   6.330   1.437
  882HECX    C1 5322   5.766   6.188   1.381
  882HECX    O1 5323   5.899   6.155   1.332
  882HECX    H1 5324   5.951   6.111   1.414
  883HECX    H6 5325   4.970   2.193   0.853
  883HECX    O2 5326   4.893   2.242   0.802
  883HECX    C2 5327   4.946   2.301   0.682
  883HECX    C1 5328   4.838   2.374   0.601
  883HECX    O1 5329   4.891   2.443   0.486
  883HECX    H1 5330   4.939   2.531   0.521
  884HECX    H6 5331   3.867   5.062   4.514
  884HECX    O2 5332   3.854   5.156   4.561
  884HECX    C2 5333   3.715   5.193   4.553
  884HECX    C1 5334   3.629   5.110   4.648
  884HECX    O1 5335   3.488   5.141   4.641
  884HECX    H1 5336   3.439   5.050   4.609
  885HECX    H6 5337   2.264   1.207   2.497
  885HECX    O2 5338   2.353   1.260   2.477
  885HECX    C2 5339   2.453   1.170   2.425
  885HECX    C1 5340   2.596   1.228   2.429
  885HECX    O1 5341   2.621   1.334   2.334
  885HECX    H1 5342   2.709   1.384   2.365
  886HECX    H6 5343   5.040   5.257   4.509
  886HECX    O2 5344   4.955   5.228   4.454
  886HECX    C2 5345   4.952   5.084   4.447
  886HECX    C1 5346   4.971   5.028   4.305
  886HECX    O1 5347   5.105   5.038   4.253
  886HECX    H1 5348   5.103   4.992   4.164
  887HECX    H6 5349   4.002   4.647   4.313
  887HECX    O2 5350   3.928   4.573   4.329
  887HECX    C2 5351   3.837   4.574   4.217
  887HECX    C1 5352   3.753   4.447   4.205
  887HECX    O1 5353   3.651   4.460   4.104
  887HECX    H1 5354   3.665   4.378   4.037
  888HECX    H6 5355   1.983   4.214   1.806
  888HECX    O2 5356   1.952   4.173   1.902
  888HECX    C2 5357   1.924   4.281   1.993
  888HECX    C1 5358   1.924   4.233   2.139
  888HECX    O1 5359   1.863   4.326   2.231
  888HECX    H1 5360   1.761   4.303   2.234
  889HECX    H6 5361   1.282   3.357   3.625
  889HECX    O2 5362   1.302   3.290   3.545
  889HECX    C2 5363   1.418   3.211   3.580
  889HECX    C1 5364   1.439   3.089   3.489
  889HECX    O1 5365   1.561   3.018   3.519
  889HECX    H1 5366   1.644   3.080   3.488
  890HECX    H6 5367   3.425   2.666   1.811
  890HECX    O2 5368   3.408   2.645   1.913
  890HECX    C2 5369   3.293   2.559   1.919
  890HECX    C1 5370   3.311   2.435   1.830
  890HECX    O1 5371   3.192   2.354   1.820
  890HECX    H1 5372   3.165   2.327   1.917
  891HECX    H6 5373   1.522   4.977   4.251
  891HECX    O2 5374   1.520   4.888   4.197
  891HECX    C2 5375   1.597   4.904   4.077
  891HECX    C1 5376   1.636   4.770   4.013
  891HECX    O1 5377   1.720   4.789   3.897
  891HECX    H1 5378   1.663   4.776   3.810
  892HECX    H6 5379   5.785   3.867   1.927
  892HECX    O2 5380   5.826   3.927   1.848
  892HECX    C2 5381   5.796   4.064   1.878
  892HECX    C1 5382   5.862   4.163   1.781
  892HECX    O1 5383   5.854   4.299   1.828
  892HECX    H1 5384   5.823   4.357   1.750
  893HECX    H6 5385   1.199   4.076   0.798
  893HECX    O2 5386   1.179   4.169   0.753
  893HECX    C2 5387   1.297   4.250   0.773
  893HECX    C1 5388   1.324   4.274   0.922
  893HECX    O1 5389   1.452   4.336   0.945
  893HECX    H1 5390   1.436   4.439   0.972
  894HECX    H6 5391   1.074   6.312   1.535
  894HECX    O2 5392   1.092   6.232   1.606
  894HECX    C2 5393   1.003   6.122   1.574
  894HECX    C1 5394   0.995   6.020   1.688
  894HECX    O1 5395   0.875   5.940   1.683
  894HECX    H1 5396   0.793   6.005   1.699
  895HECX    H6 5397   1.361   2.397   3.585
  895HECX    O2 5398   1.291   2.321   3.607
  895HECX    C2 5399   1.164   2.380   3.639
  895HECX    C1 5400   1.070   2.281   3.710
  895HECX    O1 5401   0.932   2.323   3.713
  895HECX    H1 5402   0.924   2.417   3.759
  896HECX    H6 5403   2.462   6.303   4.775
  896HECX    O2 5404   2.443   6.203   4.744
  896HECX    C2 5405   2.446   6.203   4.599
  896HECX    C1 5406   2.355   6.096   4.535
  896HECX    O1 5407   2.215   6.114   4.565
  896HECX    H1 5408   2.162   6.029   4.536
  897HECX    H6 5409   5.192   3.351   1.932
  897HECX    O2 5410   5.119   3.417   1.967
  897HECX    C2 5411   4.998   3.393   1.891
  897HECX    C1 5412   4.871   3.440   1.964
  897HECX    O1 5413   4.751   3.411   1.890
  897HECX    H1 5414   4.688   3.351   1.947
  898HECX    H6 5415   4.067   5.580   1.767
  898HECX    O2 5416   4.128   5.505   1.801
  898HECX    C2 5417   4.071   5.375   1.772
  898HECX    C1 5418   4.067   5.286   1.897
  898HECX    O1 5419   4.027   5.148   1.874
  898HECX    H1 5420   3.998   5.109   1.972
  899HECX    H6 5421   2.413   5.710   5.159
  899HECX    O2 5422   2.461   5.806   5.146
  899HECX    C2 5423   2.604   5.791   5.145
  899HECX    C1 5424   2.663   5.748   5.279
  899HECX    O1 5425   2.808   5.747   5.276
  899HECX    H1 5426   2.843   5.849   5.278
  900HECX    H6 5427   1.968   0.162   1.473
  900HECX    O2 5428   1.960   0.255   1.424
  900HECX    C2 5429   1.916   0.236   1.288
  900HECX    C1 5430   2.002   0.136   1.208
  900HECX    O1 5431   1.945   0.104   1.080
  900HECX    H1 5432   2.000   0.032   1.034
  901HECX    H6 5433   3.810   1.649   2.609
  901HECX    O2 5434   3.887   1.713   2.571
  901HECX    C2 5435   3.894   1.829   2.658
  901HECX    C1 5436   4.014   1.920   2.632
  901HECX    O1 5437   4.009   2.039   2.714
  901HECX    H1 5438   4.108   2.076   2.729
  902HECX    H6 5439   3.829   4.732   5.329
  902HECX    O2 5440   3.800   4.654   5.394
  902HECX    C2 5441   3.805   4.701   5.530
  902HECX    C1 5442   3.707   4.816   5.557
  902HECX    O1 5443   3.695   4.845   5.697
  902HECX    H1 5444   3.620   4.777   5.737
  903HECX    H6 5445   4.035   1.314   4.239
  903HECX    O2 5446   4.038   1.298   4.344
  903HECX    C2 5447   4.008   1.422   4.413
  903HECX    C1 5448   3.994   1.395   4.564
  903HECX    O1 5449   3.959   1.509   4.644
  903HECX    H1 5450   3.986   1.487   4.741
  904HECX    H6 5451   3.051   4.827   2.694
  904HECX    O2 5452   2.998   4.914   2.724
  904HECX    C2 5453   2.983   4.910   2.867
  904HECX    C1 5454   3.115   4.938   2.940
  904HECX    O1 5455   3.103   4.944   3.084
  904HECX    H1 5456   3.200   4.944   3.122
  905HECX    H6 5457   5.175   5.171   3.694
  905HECX    O2 5458   5.260   5.115   3.665
  905HECX    C2 5459   5.215   4.982   3.632
  905HECX    C1 5460   5.210   4.954   3.480
  905HECX    O1 5461   5.133   4.837   3.445
  905HECX    H1 5462   5.130   4.828   3.342
  906HECX    H6 5463   6.293   0.107   6.154
  906HECX    O2 5464   6.330   0.018   6.107
  906HECX    C2 5465   6.236   6.485   6.002
  906HECX    C1 5466   6.281   6.370   5.910
  906HECX    O1 5467   6.176   6.320   5.824
  906HECX    H1 5468   6.140   6.394   5.758
  907HECX    H6 5469   3.118   6.069   3.161
  907HECX    O2 5470   3.123   6.036   3.059
  907HECX    C2 5471   3.190   5.908   3.055
  907HECX    C1 5472   3.210   5.860   2.910
  907HECX    O1 5473   3.289   5.740   2.902
  907HECX    H1 5474   3.231   5.663   2.924
  908HECX    H6 5475   5.984   4.922   3.032
  908HECX    O2 5476   6.019   4.992   2.958
  908HECX    C2 5477   6.162   4.973   2.941
  908HECX    C1 5478   6.241   4.971   3.073
  908HECX    O1 5479   6.383   4.954   3.053
  908HECX    H1 5480   6.430   4.933   3.144
  909HECX    H6 5481   1.887   0.221   0.627
  909HECX    O2 5482   1.860   0.221   0.730
  909HECX    C2 5483   1.734   0.291   0.748
  909HECX    C1 5484   1.696   0.301   0.896
  909HECX    O1 5485   1.564   0.353   0.922
  909HECX    H1 5486   1.527   0.301   1.007
  910HECX    H6 5487   3.275   1.878   6.100
  910HECX    O2 5488   3.238   1.804   6.166
  910HECX    C2 5489   3.182   1.864   6.284
  910HECX    C1 5490   3.288   1.935   6.369
  910HECX    O1 5491   3.273   1.913   0.012
  910HECX    H1 5492   3.312   1.815   0.032
  911HECX    H6 5493   4.886   3.972   4.275
  911HECX    O2 5494   4.832   3.887   4.307
  911HECX    C2 5495   4.697   3.898   4.257
  911HECX    C1 5496   4.583   3.870   4.357
  911HECX    O1 5497   4.557   3.976   4.453
  911HECX    H1 5498   4.470   3.951   4.509
  912HECX    H6 5499   0.804   0.352   1.195
  912HECX    O2 5500   0.810   0.263   1.143
  912HECX    C2 5501   0.943   0.247   1.091
  912HECX    C1 5502   0.971   0.340   0.972
  912HECX    O1 5503   1.093   0.303   0.904
  912HECX    H1 5504   1.082   0.202   0.877
  913HECX    H6 5505   0.709   1.615   4.075
  913HECX    O2 5506   0.787   1.644   4.138
  913HECX    C2 5507   0.909   1.617   4.067
  913HECX    C1 5508   0.960   1.476   4.098
  913HECX    O1 5509   1.031   1.416   3.987
  913HECX    H1 5510   0.976   1.331   3.961
  914HECX    H6 5511   2.394   0.528   3.765
  914HECX    O2 5512   2.321   0.454   3.796
  914HECX    C2 5513   2.236   0.515   3.897
  914HECX    C1 5514   2.143   0.415   3.969
  914HECX    O1 5515   2.038   0.481   4.044
  914HECX    H1 5516   1.991   0.411   4.106
  915HECX    H6 5517   5.795   4.389   3.377
  915HECX    O2 5518   5.784   4.307   3.429
  915HECX    C2 5519   5.760   4.197   3.340
  915HECX    C1 5520   5.769   4.062   3.412
  915HECX    O1 5521   5.750   3.949   3.323
  915HECX    H1 5522   5.751   3.860   3.382
  916HECX    H6 5523   5.479   3.831   4.205
  916HECX    O2 5524   5.563   3.893   4.232
  916HECX    C2 5525   5.666   3.815   4.297
  916HECX    C1 5526   5.633   3.775   4.442
  916HECX    O1 5527   5.736   3.696   4.504
  916HECX    H1 5528   5.691   3.637   4.571
  917HECX    H6 5529   3.222   5.397   1.368
  917HECX    O2 5530   3.258   5.486   1.414
  917HECX    C2 5531   3.339   5.557   1.318
  917HECX    C1 5532   3.329   5.710   1.326
  917HECX    O1 5533   3.446   5.774   1.270
  917HECX    H1 5534   3.425   5.805   1.173
  918HECX    H6 5535   4.951   2.352   1.909
  918HECX    O2 5536   4.924   2.330   1.811
  918HECX    C2 5537   4.939   2.451   1.733
  918HECX    C1 5538   4.878   2.443   1.593
  918HECX    O1 5539   4.872   2.572   1.527
  918HECX    H1 5540   4.871   2.557   1.426
  919HECX    H6 5541   5.234   0.849   1.400
  919HECX    O2 5542   5.148   0.901   1.425
  919HECX    C2 5543   5.069   0.917   1.305
  919HECX    C1 5544   5.145   0.993   1.195
  919HECX    O1 5545   5.076   1.010   1.068
  919HECX    H1 5546   4.988   1.067   1.085
  920HECX    H6 5547   2.933   1.673   3.295
  920HECX    O2 5548   2.878   1.723   3.368
  920HECX    C2 5549   2.786   1.633   3.433
  920HECX    C1 5550   2.774   1.659   3.585
  920HECX    O1 5551   2.676   1.574   3.650
  920HECX    H1 5552   2.581   1.608   3.618
  921HECX    H6 5553   4.054   4.119   3.998
  921HECX    O2 5554   4.136   4.058   4.027
  921HECX    C2 5555   4.250   4.145   4.047
  921HECX    C1 5556   4.385   4.074   4.035
  921HECX    O1 5557   4.498   4.160   4.062
  921HECX    H1 5558   4.502   4.180   4.167
  922HECX    H6 5559   0.929   3.988   3.982
  922HECX    O2 5560   1.033   4.018   3.978
  922HECX    C2 5561   1.112   3.905   3.934
  922HECX    C1 5562   1.086   3.865   3.788
  922HECX    O1 5563   1.160   3.749   3.745
  922HECX    H1 5564   1.132   3.729   3.644
  923HECX    H6 5565   5.006   4.182   2.352
  923HECX    O2 5566   5.020   4.186   2.248
  923HECX    C2 5567   4.890   4.192   2.186
  923HECX    C1 5568   4.840   4.337   2.180
  923HECX    O1 5569   4.709   4.353   2.122
  923HECX    H1 5570   4.635   4.308   2.188
  924HECX    H6 5571   0.263   1.324   4.211
  924HECX    O2 5572   0.289   1.228   4.248
  924HECX    C2 5573   0.198   1.132   4.188
  924HECX    C1 5574   0.244   0.988   4.209
  924HECX    O1 5575   0.139   0.891   4.190
  924HECX    H1 5576   0.072   0.900   4.273
  925HECX    H6 5577   6.450   5.259   5.451
  925HECX    O2 5578   6.386   5.319   5.508
  925HECX    C2 5579   6.427   5.455   5.487
  925HECX    C1 5580   6.412   5.495   5.340
  925HECX    O1 5581   6.495   5.606   5.301
  925HECX    H1 5582   6.490   5.615   5.194
  926HECX    H6 5583   3.478   2.754   2.808
  926HECX    O2 5584   3.399   2.802   2.864
  926HECX    C2 5585   3.336   2.896   2.774
  926HECX    C1 5586   3.274   2.827   2.652
  926HECX    O1 5587   3.216   2.920   2.557
  926HECX    H1 5588   3.247   2.886   2.459
  927HECX    H6 5589   4.898   4.171   3.108
  927HECX    O2 5590   4.941   4.180   3.204
  927HECX    C2 5591   5.076   4.227   3.186
  927HECX    C1 5592   5.127   4.309   3.305
  927HECX    O1 5593   5.238   4.394   3.269
  927HECX    H1 5594   5.269   4.443   3.357
  928HECX    H6 5595   4.788   4.290   6.194
  928HECX    O2 5596   4.831   4.201   6.150
  928HECX    C2 5597   4.781   4.087   6.223
  928HECX    C1 5598   4.840   3.955   6.171
  928HECX    O1 5599   4.857   3.856   6.275
  928HECX    H1 5600   4.765   3.805   6.290
  929HECX    H6 5601   2.924   3.288   1.415
  929HECX    O2 5602   2.914   3.349   1.332
  929HECX    C2 5603   3.016   3.308   1.237
  929HECX    C1 5604   2.959   3.227   1.121
  929HECX    O1 5605   3.062   3.160   1.045
  929HECX    H1 5606   3.035   3.170   0.940
  930HECX    H6 5607   4.572   0.789   3.887
  930HECX    O2 5608   4.566   0.801   3.992
  930HECX    C2 5609   4.699   0.778   4.043
  930HECX    C1 5610   4.703   0.725   4.187
  930HECX    O1 5611   4.836   0.682   4.222
  930HECX    H1 5612   4.875   0.750   4.292
  931HECX    H6 5613   2.761   2.390   3.352
  931HECX    O2 5614   2.860   2.433   3.356
  931HECX    C2 5615   2.885   2.498   3.229
  931HECX    C1 5616   2.797   2.622   3.210
  931HECX    O1 5617   2.778   2.656   3.071
  931HECX    H1 5618   2.690   2.714   3.064
  932HECX    H6 5619   2.782   0.477   0.781
  932HECX    O2 5620   2.810   0.481   0.885
  932HECX    C2 5621   2.795   0.350   0.942
  932HECX    C1 5622   2.755   0.349   1.090
  932HECX    O1 5623   2.856   0.394   1.183
  932HECX    H1 5624   2.809   0.446   1.261
  933HECX    H6 5625   3.822   3.531   2.248
  933HECX    O2 5626   3.735   3.508   2.190
  933HECX    C2 5627   3.765   3.542   2.053
  933HECX    C1 5628   3.701   3.674   2.009
  933HECX    O1 5629   3.781   3.743   1.910
  933HECX    H1 5630   3.874   3.766   1.958
  934HECX    H6 5631   1.259   2.065   1.990
  934HECX    O2 5632   1.232   2.148   2.044
  934HECX    C2 5633   1.129   2.108   2.136
  934HECX    C1 5634   1.186   2.035   2.258
  934HECX    O1 5635   1.088   2.003   2.360
  934HECX    H1 5636   1.027   1.924   2.322
  935HECX    H6 5637   2.563   4.914   1.308
  935HECX    O2 5638   2.599   4.815   1.325
  935HECX    C2 5639   2.743   4.817   1.321
  935HECX    C1 5640   2.803   4.866   1.189
  935HECX    O1 5641   2.833   5.007   1.186
  935HECX    H1 5642   2.781   5.054   1.108
  936HECX    H6 5643   6.159   0.372   1.855
  936HECX    O2 5644   6.171   0.296   1.786
  936HECX    C2 5645   6.299   0.235   1.808
  936HECX    C1 5646   6.295   0.124   1.914
  936HECX    O1 5647   6.427   0.072   1.940
  936HECX    H1 5648   6.464   0.028   1.848
  937HECX    H6 5649   3.626   4.759   0.582
  937HECX    O2 5650   3.534   4.719   0.608
  937HECX    C2 5651   3.543   4.667   0.742
  937HECX    C1 5652   3.604   4.766   0.843
  937HECX    O1 5653   3.650   4.703   0.964
  937HECX    H1 5654   3.573   4.709   1.038
  938HECX    H6 5655   2.543   3.588   2.677
  938HECX    O2 5656   2.521   3.585   2.780
  938HECX    C2 5657   2.379   3.607   2.793
  938HECX    C1 5658   2.333   3.749   2.757
  938HECX    O1 5659   2.189   3.759   2.754
  938HECX    H1 5660   2.163   3.851   2.802
  939HECX    H6 5661   4.553   5.271   2.465
  939HECX    O2 5662   4.459   5.314   2.438
  939HECX    C2 5663   4.464   5.457   2.457
  939HECX    C1 5664   4.509   5.541   2.336
  939HECX    O1 5665   4.650   5.535   2.303
  939HECX    H1 5666   4.690   5.633   2.320
  940HECX    H6 5667   1.451   6.171   1.743
  940HECX    O2 5668   1.533   6.154   1.809
  940HECX    C2 5669   1.496   6.050   1.902
  940HECX    C1 5670   1.546   6.081   2.044
  940HECX    O1 5671   1.563   5.963   2.125
  940HECX    H1 5672   1.558   5.993   2.228
  941HECX    H6 5673   2.449   0.256   4.775
  941HECX    O2 5674   2.439   0.296   4.678
  941HECX    C2 5675   2.499   0.203   4.585
  941HECX    C1 5676   2.613   0.270   4.507
  941HECX    O1 5677   2.692   0.180   4.426
  941HECX    H1 5678   2.700   0.083   4.474
  942HECX    H6 5679   3.274   6.437   3.785
  942HECX    O2 5680   3.258   0.033   3.828
  942HECX    C2 5681   3.120   0.067   3.806
  942HECX    C1 5682   3.084   0.207   3.858
  942HECX    O1 5683   2.942   0.233   3.848
  942HECX    H1 5684   2.928   0.326   3.798
  943HECX    H6 5685   2.781   1.785   5.873
  943HECX    O2 5686   2.732   1.752   5.960
  943HECX    C2 5687   2.593   1.725   5.930
  943HECX    C1 5688   2.520   1.661   6.049
  943HECX    O1 5689   2.399   1.591   6.015
  943HECX    H1 5690   2.390   1.507   6.081
  944HECX    H6 5691   0.772   1.999   4.258
  944HECX    O2 5692   0.858   2.052   4.252
  944HECX    C2 5693   0.965   1.962   4.214
  944HECX    C1 5694   1.035   1.893   4.332
  944HECX    O1 5695   1.127   1.790   4.290
  944HECX    H1 5696   1.147   1.727   4.370
  945HECX    H6 5697   5.971   2.603   4.551
  945HECX    O2 5698   5.919   2.611   4.457
  945HECX    C2 5699   5.811   2.515   4.457
  945HECX    C1 5700   5.703   2.547   4.562
  945HECX    O1 5701   5.597   2.449   4.563
  945HECX    H1 5702   5.640   2.357   4.588
  946HECX    H6 5703   5.350   4.447   1.086
  946HECX    O2 5704   5.261   4.426   1.034
  946HECX    C2 5705   5.153   4.434   1.130
  946HECX    C1 5706   5.013   4.457   1.071
  946HECX    O1 5707   4.991   4.588   1.014
  946HECX    H1 5708   5.016   4.586   0.914
  947HECX    H6 5709   5.254   5.163   5.403
  947HECX    O2 5710   5.239   5.079   5.464
  947HECX    C2 5711   5.255   4.962   5.383
  947HECX    C1 5712   5.310   4.843   5.463
  947HECX    O1 5713   5.419   4.777   5.395
  947HECX    H1 5714   5.486   4.852   5.357
  948HECX    H6 5715   4.516   1.734   1.215
  948HECX    O2 5716   4.515   1.838   1.227
  948HECX    C2 5717   4.395   1.887   1.164
  948HECX    C1 5718   4.398   2.036   1.128
  948HECX    O1 5719   4.278   2.073   1.057
  948HECX    H1 5720   4.289   2.169   1.009
  949HECX    H6 5721   4.081   5.009   5.002
  949HECX    O2 5722   4.118   4.965   4.916
  949HECX    C2 5723   4.262   4.978   4.917
  949HECX    C1 5724   4.312   5.067   4.802
  949HECX    O1 5725   4.457   5.069   4.793
  949HECX    H1 5726   4.483   5.112   4.697
  950HECX    H6 5727   3.371   5.160   5.601
  950HECX    O2 5728   3.389   5.058   5.625
  950HECX    C2 5729   3.308   4.971   5.544
  950HECX    C1 5730   3.289   5.016   5.398
  950HECX    O1 5731   3.199   4.929   5.326
  950HECX    H1 5732   3.165   4.979   5.241
  951HECX    H6 5733   4.719   0.135   4.161
  951HECX    O2 5734   4.814   0.167   4.193
  951HECX    C2 5735   4.860   0.264   4.097
  951HECX    C1 5736   4.935   0.383   4.157
  951HECX    O1 5737   4.923   0.501   4.075
  951HECX    H1 5738   4.890   0.580   4.140
  952HECX    H6 5739   4.719   5.693   2.699
  952HECX    O2 5740   4.806   5.651   2.659
  952HECX    C2 5741   4.908   5.658   2.761
  952HECX    C1 5742   4.909   5.531   2.846
  952HECX    O1 5743   4.995   5.543   2.961
  952HECX    H1 5744   5.090   5.503   2.935
  953HECX    H6 5745   4.218   3.025   1.287
  953HECX    O2 5746   4.217   2.943   1.356
  953HECX    C2 5747   4.181   2.996   1.485
  953HECX    C1 5748   4.031   2.986   1.518
  953HECX    O1 5749   4.003   3.038   1.649
  953HECX    H1 5750   3.916   2.995   1.685
  954HECX    H6 5751   3.896   3.946   1.235
  954HECX    O2 5752   3.982   3.902   1.211
  954HECX    C2 5753   3.955   3.762   1.191
  954HECX    C1 5754   4.041   3.700   1.080
  954HECX    O1 5755   4.014   3.559   1.059
  954HECX    H1 5756   4.079   3.525   0.985
  955HECX    H6 5757   0.603   3.906   4.335
  955HECX    O2 5758   0.599   4.005   4.299
  955HECX    C2 5759   0.707   4.025   4.206
  955HECX    C1 5760   0.685   3.949   4.074
  955HECX    O1 5761   0.800   3.943   3.988
  955HECX    H1 5762   0.772   3.888   3.900
  956HECX    H6 5763   0.877   3.794   5.837
  956HECX    O2 5764   0.978   3.788   5.863
  956HECX    C2 5765   0.999   3.850   5.991
  956HECX    C1 5766   0.954   3.759   6.106
  956HECX    O1 5767   0.994   3.807   6.237
  956HECX    H1 5768   0.941   3.896   6.260
  957HECX    H6 5769   3.071   2.192   2.020
  957HECX    O2 5770   3.095   2.295   2.049
  957HECX    C2 5771   2.972   2.368   2.072
  957HECX    C1 5772   2.890   2.393   1.945
  957HECX    O1 5773   2.802   2.506   1.956
  957HECX    H1 5774   2.791   2.546   1.860
  958HECX    H6 5775   0.566   1.266   0.339
  958HECX    O2 5776   0.482   1.285   0.404
  958HECX    C2 5777   0.417   1.408   0.362
  958HECX    C1 5778   0.396   1.417   0.210
  958HECX    O1 5779   0.320   1.533   0.169
  958HECX    H1 5780   0.217   1.501   0.156
  959HECX    H6 5781   3.398   5.339   4.151
  959HECX    O2 5782   3.361   5.275   4.227
  959HECX    C2 5783   3.414   5.325   4.352
  959HECX    C1 5784   3.306   5.349   4.459
  959HECX    O1 5785   3.360   5.357   4.592
  959HECX    H1 5786   3.413   5.267   4.612
  960HECX    H6 5787   3.124   1.246   3.581
  960HECX    O2 5788   3.195   1.273   3.507
  960HECX    C2 5789   3.235   1.409   3.537
  960HECX    C1 5790   3.130   1.514   3.498
  960HECX    O1 5791   3.123   1.618   3.597
  960HECX    H1 5792   3.115   1.714   3.549
  961HECX    H6 5793   2.752   4.425   2.799
  961HECX    O2 5794   2.806   4.492   2.858
  961HECX    C2 5795   2.928   4.431   2.906
  961HECX    C1 5796   3.026   4.534   2.965
  961HECX    O1 5797   3.139   4.473   3.031
  961HECX    H1 5798   3.220   4.455   2.962
  962HECX    H6 5799   2.291   3.603   1.347
  962HECX    O2 5800   2.197   3.598   1.299
  962HECX    C2 5801   2.194   3.698   1.195
  962HECX    C1 5802   2.234   3.642   1.057
  962HECX    O1 5803   2.225   3.740   0.951
  962HECX    H1 5804   2.310   3.807   0.960
  963HECX    H6 5805   2.149   6.353   0.431
  963HECX    O2 5806   2.060   6.300   0.418
  963HECX    C2 5807   2.077   6.166   0.467
  963HECX    C1 5808   2.047   6.156   0.617
  963HECX    O1 5809   2.017   6.022   0.661
  963HECX    H1 5810   1.925   6.025   0.709
  964HECX    H6 5811   3.955   3.859   3.779
  964HECX    O2 5812   3.943   3.849   3.677
  964HECX    C2 5813   3.955   3.979   3.615
  964HECX    C1 5814   4.089   4.049   3.645
  964HECX    O1 5815   4.107   4.169   3.568
  964HECX    H1 5816   4.138   4.141   3.471
  965HECX    H6 5817   0.805   3.195   0.880
  965HECX    O2 5818   0.876   3.197   0.962
  965HECX    C2 5819   1.003   3.161   0.903
  965HECX    C1 5820   1.122   3.161   1.000
  965HECX    O1 5821   1.243   3.120   0.932
  965HECX    H1 5822   1.326   3.131   0.998
  966HECX    H6 5823   2.283   5.226   2.428
  966HECX    O2 5824   2.211   5.238   2.504
  966HECX    C2 5825   2.087   5.285   2.447
  966HECX    C1 5826   1.996   5.170   2.402
  966HECX    O1 5827   1.859   5.207   2.379
  966HECX    H1 5828   1.802   5.127   2.416
  967HECX    H6 5829   5.762   2.376   2.906
  967HECX    O2 5830   5.866   2.371   2.894
  967HECX    C2 5831   5.908   2.489   2.821
  967HECX    C1 5832   6.057   2.493   2.779
  967HECX    O1 5833   6.092   2.396   2.679
  967HECX    H1 5834   6.180   2.423   2.629
  968HECX    H6 5835   2.316   6.133   0.022
  968HECX    O2 5836   2.274   6.203   0.083
  968HECX    C2 5837   2.184   6.282   0.003
  968HECX    C1 5838   2.085   6.368   0.085
  968HECX    O1 5839   1.989   6.439   0.003
  968HECX    H1 5840   1.940   0.007   0.063
  969HECX    H6 5841   0.421   6.093   0.824
  969HECX    O2 5842   0.317   6.107   0.820
  969HECX    C2 5843   0.268   6.039   0.702
  969HECX    C1 5844   0.316   6.104   0.572
  969HECX    O1 5845   0.290   6.026   0.454
  969HECX    H1 5846   0.340   6.071   0.374
  970HECX    H6 5847   4.943   5.557   0.162
  970HECX    O2 5848   5.045   5.590   0.170
  970HECX    C2 5849   5.125   5.473   0.200
  970HECX    C1 5850   5.270   5.486   0.153
  970HECX    O1 5851   5.359   5.411   0.238
  970HECX    H1 5852   5.430   5.356   0.176
  971HECX    H6 5853   0.764   3.246   4.617
  971HECX    O2 5854   0.801   3.327   4.677
  971HECX    C2 5855   0.894   3.402   4.596
  971HECX    C1 5856   1.034   3.417   4.657
  971HECX    O1 5857   1.108   3.293   4.669
  971HECX    H1 5858   1.066   3.237   4.752
  972HECX    H6 5859   2.577   5.142   5.237
  972HECX    O2 5860   2.633   5.138   5.144
  972HECX    C2 5861   2.544   5.179   5.038
  972HECX    C1 5862   2.599   5.145   4.900
  972HECX    O1 5863   2.498   5.153   4.797
  972HECX    H1 5864   2.540   5.110   4.707
  973HECX    H6 5865   3.591   2.879   4.508
  973HECX    O2 5866   3.616   2.965   4.566
  973HECX    C2 5867   3.760   2.969   4.576
  973HECX    C1 5868   3.809   3.101   4.637
  973HECX    O1 5869   3.944   3.094   4.689
  973HECX    H1 5870   3.950   3.014   4.759
  974HECX    H6 5871   3.900   2.180   4.003
  974HECX    O2 5872   4.007   2.195   4.014
  974HECX    C2 5873   4.069   2.064   4.003
  974HECX    C1 5874   4.127   2.039   3.864
  974HECX    O1 5875   4.150   1.899   3.836
  974HECX    H1 5876   4.201   1.897   3.744
  975HECX    H6 5877   2.354   2.543   5.282
  975HECX    O2 5878   2.337   2.455   5.229
  975HECX    C2 5879   2.275   2.358   5.315
  975HECX    C1 5880   2.290   2.216   5.259
  975HECX    O1 5881   2.215   2.116   5.332
  975HECX    H1 5882   2.115   2.113   5.289
  976HECX    H6 5883   3.712   6.420   2.533
  976HECX    O2 5884   3.675   6.437   2.434
  976HECX    C2 5885   3.704   0.076   2.406
  976HECX    C1 5886   3.716   0.115   2.258
  976HECX    O1 5887   3.738   0.257   2.245
  976HECX    H1 5888   3.844   0.274   2.250
  977HECX    H6 5889   3.625   4.690   4.594
  977HECX    O2 5890   3.538   4.741   4.628
  977HECX    C2 5891   3.489   4.664   4.740
  977HECX    C1 5892   3.346   4.612   4.717
  977HECX    O1 5893   3.320   4.491   4.792
  977HECX    H1 5894   3.214   4.475   4.796
  978HECX    H6 5895   5.015   1.064   4.177
  978HECX    O2 5896   5.036   0.959   4.164
  978HECX    C2 5897   5.150   0.945   4.078
  978HECX    C1 5898   5.174   0.799   4.039
  978HECX    O1 5899   5.293   0.783   3.960
  978HECX    H1 5900   5.272   0.707   3.889
  979HECX    H6 5901   1.742   6.435   1.319
  979HECX    O2 5902   1.659   6.492   1.341
  979HECX    C2 5903   1.606   0.046   1.218
  979HECX    C1 5904   1.516   0.167   1.244
  979HECX    O1 5905   1.472   0.236   1.125
  979HECX    H1 5906   1.390   0.298   1.154
  980HECX    H6 5907   0.311   6.447   0.604
  980HECX    O2 5908   0.404   6.433   0.555
  980HECX    C2 5909   0.506   6.419   0.656
  980HECX    C1 5910   0.638   6.355   0.608
  980HECX    O1 5911   0.638   6.210   0.604
  980HECX    H1 5912   0.681   6.179   0.513
  981HECX    H6 5913   4.010   1.000   5.657
  981HECX    O2 5914   3.981   1.032   5.560
  981HECX    C2 5915   4.007   0.927   5.465
  981HECX    C1 5916   3.881   0.849   5.428
  981HECX    O1 5917   3.905   0.754   5.322
  981HECX    H1 5918   3.902   0.807   5.231
  982HECX    H6 5919   4.098   6.369   5.538
  982HECX    O2 5920   4.067   6.371   5.639
  982HECX    C2 5921   4.153   6.278   5.708
  982HECX    C1 5922   4.110   6.237   5.850
  982HECX    O1 5923   4.202   6.140   5.905
  982HECX    H1 5924   4.188   6.132   6.015
  983HECX    H6 5925   1.313   4.058   4.726
  983HECX    O2 5926   1.362   4.074   4.635
  983HECX    C2 5927   1.295   3.999   4.531
  983HECX    C1 5928   1.373   3.993   4.399
  983HECX    O1 5929   1.296   3.935   4.291
  983HECX    H1 5930   1.365   3.894   4.221
  984HECX    H6 5931   1.853   6.318   2.547
  984HECX    O2 5932   1.849   6.232   2.483
  984HECX    C2 5933   1.711   6.207   2.451
  984HECX    C1 5934   1.689   6.060   2.412
  984HECX    O1 5935   1.556   6.033   2.362
  984HECX    H1 5936   1.487   6.042   2.443
  985HECX    H6 5937   0.057   2.546   5.756
  985HECX    O2 5938   0.111   2.587   5.676
  985HECX    C2 5939   0.208   2.491   5.630
  985HECX    C1 5940   0.150   2.389   5.530
  985HECX    O1 5941   0.255   2.325   5.454
  985HECX    H1 5942   0.229   2.331   5.352
  986HECX    H6 5943   4.154   1.475   4.838
  986HECX    O2 5944   4.060   1.471   4.888
  986HECX    C2 5945   4.030   1.603   4.941
  986HECX    C1 5946   3.883   1.617   4.985
  986HECX    O1 5947   3.848   1.753   5.020
  986HECX    H1 5948   3.819   1.752   5.123
  987HECX    H6 5949   3.631   1.402   3.674
  987HECX    O2 5950   3.619   1.461   3.759
  987HECX    C2 5951   3.498   1.417   3.825
  987HECX    C1 5952   3.465   1.489   3.957
  987HECX    O1 5953   3.445   1.632   3.948
  987HECX    H1 5954   3.404   1.656   3.852
  988HECX    H6 5955   2.250   3.878   1.896
  988HECX    O2 5956   2.219   3.886   1.996
  988HECX    C2 5957   2.235   4.023   2.040
  988HECX    C1 5958   2.378   4.054   2.084
  988HECX    O1 5959   2.389   4.176   2.161
  988HECX    H1 5960   2.348   4.155   2.257
  989HECX    H6 5961   0.890   6.397   2.685
  989HECX    O2 5962   0.812   6.375   2.619
  989HECX    C2 5963   0.797   6.488   2.530
  989HECX    C1 5964   0.852   6.464   2.389
  989HECX    O1 5965   0.802   0.066   2.300
  989HECX    H1 5966   0.698   0.046   2.289
  990HECX    H6 5967   6.431   4.702   5.595
  990HECX    O2 5968   6.356   4.661   5.655
  990HECX    C2 5969   6.419   4.573   5.751
  990HECX    C1 5970   6.415   4.424   5.713
  990HECX    O1 5971   0.010   4.348   5.789
  990HECX    H1 5972   0.106   4.361   5.747
  991HECX    H6 5973   5.600   0.778   2.881
  991HECX    O2 5974   5.544   0.864   2.846
  991HECX    C2 5975   5.635   0.951   2.776
  991HECX    C1 5976   5.629   1.096   2.826
  991HECX    O1 5977   5.726   1.183   2.764
  991HECX    H1 5978   5.732   1.264   2.823
  992HECX    H6 5979   1.227   5.942   4.268
  992HECX    O2 5980   1.185   5.870   4.198
  992HECX    C2 5981   1.266   5.872   4.078
  992HECX    C1 5982   1.188   5.840   3.949
  992HECX    O1 5983   1.273   5.837   3.832
  992HECX    H1 5984   1.221   5.885   3.752
  993HECX    H6 5985   0.074   6.007   2.753
  993HECX    O2 5986   6.474   5.978   2.742
  993HECX    C2 5987   6.415   5.967   2.873
  993HECX    C1 5988   6.285   5.887   2.880
  993HECX    O1 5989   6.218   5.902   3.008
  993HECX    H1 5990   6.147   5.828   3.018
  994HECX    H6 5991   2.571   2.040   0.754
  994HECX    O2 5992   2.660   2.087   0.728
  994HECX    C2 5993   2.643   2.227   0.759
  994HECX    C1 5994   2.764   2.313   0.721
  994HECX    O1 5995   2.753   2.447   0.774
  994HECX    H1 5996   2.839   2.500   0.746
  995HECX    H6 5997   0.784   0.979   0.695
  995HECX    O2 5998   0.711   0.980   0.617
  995HECX    C2 5999   0.604   0.892   0.658
  995HECX    C1 6000   0.646   0.745   0.655
  995HECX    O1 6001   0.538   0.653   0.685
  995HECX    H1 6002   0.472   0.652   0.604
  996HECX    H6 6003   1.229   1.504   3.710
  996HECX    O2 6004   1.210   1.523   3.607
  996HECX    C2 6005   1.068   1.508   3.589
  996HECX    C1 6006   1.026   1.474   3.445
  996HECX    O1 6007   0.888   1.431   3.437
  996HECX    H1 6008   0.823   1.512   3.467
  997HECX    H6 6009   3.996   5.773   4.178
  997HECX    O2 6010   3.956   5.818   4.089
  997HECX    C2 6011   3.944   5.960   4.110
  997HECX    C1 6012   3.974   6.043   3.984
  997HECX    O1 6013   3.943   6.183   4.003
  997HECX    H1 6014   3.837   6.190   3.990
  998HECX    H6 6015   6.312   3.187   3.639
  998HECX    O2 6016   6.269   3.089   3.638
  998HECX    C2 6017   6.243   3.056   3.499
  998HECX    C1 6018   6.183   2.915   3.484
  998HECX    O1 6019   6.193   2.862   3.350
  998HECX    H1 6020   6.293   2.865   3.323
  999HECX    H6 6021   6.024   1.444   2.147
  999HECX    O2 6022   5.999   1.366   2.079
  999HECX    C2 6023   5.884   1.413   2.004
  999HECX    C1 6024   5.868   1.346   1.868
  999HECX    O1 6025   5.753   1.392   1.793
  999HECX    H1 6026   5.663   1.373   1.852
 1000HECX    H6 6027   4.082   3.433   4.026
 1000HECX    O2 6028   4.183   3.439   4.003
 1000HECX    C2 6029   4.240   3.559   4.059
 1000HECX    C1 6030   4.393   3.550   4.068
 1000HECX    O1 6031   4.461   3.673   4.039
 1000HECX    H1 6032   4.553   3.665   4.075
 1001HECX    H6 6033   5.192   2.703   3.433
 1001HECX    O2 6034   5.094   2.683   3.467
 1001HECX    C2 6035   5.028   2.811   3.484
 1001HECX    C1 6036   5.079   2.886   3.608
 1001HECX    O1 6037   5.053   3.028   3.609
 1001HECX    H1 6038   5.099   3.067   3.694
 1002HECX    H6 6039   2.706   5.352   1.450
 1002HECX    O2 6040   2.600   5.336   1.467
 1002HECX    C2 6041   2.567   5.198   1.440
 1002HECX    C1 6042   2.556   5.164   1.291
 1002HECX    O1 6043   2.497   5.034   1.266
 1002HECX    H1 6044   2.391   5.047   1.276
 1003HECX    H6 6045   1.310   2.016   5.399
 1003HECX    O2 6046   1.283   1.938   5.333
 1003HECX    C2 6047   1.286   1.983   5.196
 1003HECX    C1 6048   1.257   1.868   5.098
 1003HECX    O1 6049   1.233   1.906   4.961
 1003HECX    H1 6050   1.258   1.820   4.899
 1004HECX    H6 6051   0.447   4.371   0.172
 1004HECX    O2 6052   0.403   4.344   0.268
 1004HECX    C2 6053   0.302   4.443   0.296
 1004HECX    C1 6054   0.311   4.501   0.439
 1004HECX    O1 6055   0.241   4.627   0.453
 1004HECX    H1 6056   0.192   4.629   0.547
 1005HECX    H6 6057   3.780   0.914   2.332
 1005HECX    O2 6058   3.826   1.004   2.360
 1005HECX    C2 6059   3.933   0.972   2.452
 1005HECX    C1 6060   3.914   1.031   2.593
 1005HECX    O1 6061   4.029   1.002   2.675
 1005HECX    H1 6062   4.020   1.051   2.767
 1006HECX    H6 6063   0.624   2.487   3.278
 1006HECX    O2 6064   0.574   2.555   3.341
 1006HECX    C2 6065   0.601   2.513   3.477
 1006HECX    C1 6066   0.492   2.420   3.533
 1006HECX    O1 6067   0.530   2.351   3.655
 1006HECX    H1 6068   0.494   2.404   3.736
 1007HECX    H6 6069   5.929   6.043   4.173
 1007HECX    O2 6070   5.891   6.033   4.269
 1007HECX    C2 6071   5.965   5.930   4.337
 1007HECX    C1 6072   5.881   5.809   4.381
 1007HECX    O1 6073   5.962   5.698   4.429
 1007HECX    H1 6074   6.019   5.732   4.512
 1008HECX    H6 6075   2.533   0.765   1.763
 1008HECX    O2 6076   2.440   0.712   1.740
 1008HECX    C2 6077   2.428   0.708   1.596
 1008HECX    C1 6078   2.357   0.827   1.532
 1008HECX    O1 6079   2.346   0.810   1.389
 1008HECX    H1 6080   2.295   0.721   1.371
 1009HECX    H6 6081   4.703   4.813   3.998
 1009HECX    O2 6082   4.647   4.853   4.078
 1009HECX    C2 6083   4.553   4.951   4.029
 1009HECX    C1 6084   4.489   5.030   4.145
 1009HECX    O1 6085   4.381   5.118   4.105
 1009HECX    H1 6086   4.423   5.205   4.057
 1010HECX    H6 6087   1.770   0.149   0.103
 1010HECX    O2 6088   1.863   0.123   0.151
 1010HECX    C2 6089   1.846   0.159   0.290
 1010HECX    C1 6090   1.971   0.134   0.376
 1010HECX    O1 6091   1.971   0.200   0.505
 1010HECX    H1 6092   2.063   0.252   0.512
 1011HECX    H6 6093   5.466   0.118   0.413
 1011HECX    O2 6094   5.371   0.146   0.455
 1011HECX    C2 6095   5.388   0.151   0.598
 1011HECX    C1 6096   5.312   0.265   0.668
 1011HECX    O1 6097   5.397   0.336   0.761
 1011HECX    H1 6098   5.337   0.398   0.824
 1012HECX    H6 6099   3.105   5.103   1.807
 1012HECX    O2 6100   3.035   5.165   1.753
 1012HECX    C2 6101   2.902   5.111   1.768
 1012HECX    C1 6102   2.792   5.216   1.785
 1012HECX    O1 6103   2.661   5.156   1.785
 1012HECX    H1 6104   2.594   5.232   1.762
 1013HECX    H6 6105   2.289   1.630   0.822
 1013HECX    O2 6106   2.204   1.566   0.813
 1013HECX    C2 6107   2.088   1.632   0.867
 1013HECX    C1 6108   2.108   1.669   1.015
 1013HECX    O1 6109   1.990   1.722   1.080
 1013HECX    H1 6110   2.005   1.702   1.185
 1014HECX    H6 6111   5.686   2.272   6.254
 1014HECX    O2 6112   5.776   2.298   6.206
 1014HECX    C2 6113   5.816   2.430   6.250
 1014HECX    C1 6114   5.848   2.530   6.137
 1014HECX    O1 6115   5.965   2.498   6.057
 1014HECX    H1 6116   5.943   2.412   6.001
 1015HECX    H6 6117   0.660   2.432   4.944
 1015HECX    O2 6118   0.608   2.372   5.016
 1015HECX    C2 6119   0.645   2.235   4.987
 1015HECX    C1 6120   0.525   2.140   4.971
 1015HECX    O1 6121   0.561   2.018   4.904
 1015HECX    H1 6122   0.511   1.943   4.947
 1016HECX    H6 6123   4.725   6.134   0.279
 1016HECX    O2 6124   4.701   6.103   0.180
 1016HECX    C2 6125   4.750   6.205   0.089
 1016HECX    C1 6126   4.675   6.204   6.455
 1016HECX    O1 6127   4.744   6.282   6.355
 1016HECX    H1 6128   4.824   6.225   6.323
 1017HECX    H6 6129   4.007   0.842   5.061
 1017HECX    O2 6130   3.910   0.869   5.095
 1017HECX    C2 6131   3.813   0.793   5.019
 1017HECX    C1 6132   3.779   0.850   4.881
 1017HECX    O1 6133   3.744   0.746   4.787
 1017HECX    H1 6134   3.823   0.739   4.721
 1018HECX    H6 6135   3.433   6.061   0.569
 1018HECX    O2 6136   3.433   6.110   0.662
 1018HECX    C2 6137   3.471   6.247   0.639
 1018HECX    C1 6138   3.402   6.348   0.731
 1018HECX    O1 6139   3.267   6.381   0.691
 1018HECX    H1 6140   3.273   6.461   0.625
 1019HECX    H6 6141   6.317   1.031   1.174
 1019HECX    O2 6142   6.287   1.038   1.073
 1019HECX    C2 6143   6.261   1.176   1.042
 1019HECX    C1 6144   6.372   1.242   0.959
 1019HECX    O1 6145   6.331   1.368   0.901
 1019HECX    H1 6146   6.270   1.346   0.815
 1020HECX    H6 6147   4.384   0.660   1.987
 1020HECX    O2 6148   4.433   0.666   1.894
 1020HECX    C2 6149   4.539   0.763   1.903
 1020HECX    C1 6150   4.676   0.700   1.930
 1020HECX    O1 6151   4.761   0.784   2.012
 1020HECX    H1 6152   4.846   0.727   2.041
 1021HECX    H6 6153   6.160   1.648   5.470
 1021HECX    O2 6154   6.111   1.590   5.403
 1021HECX    C2 6155   6.209   1.505   5.338
 1021HECX    C1 6156   6.163   1.464   5.198
 1021HECX    O1 6157   6.251   1.370   5.134
 1021HECX    H1 6158   6.207   1.336   5.049
 1022HECX    H6 6159   3.099   0.594   0.876
 1022HECX    O2 6160   3.174   0.554   0.813
 1022HECX    C2 6161   3.108   0.475   0.711
 1022HECX    C1 6162   3.194   0.358   0.660
 1022HECX    O1 6163   3.127   0.271   0.567
 1022HECX    H1 6164   3.193   0.195   0.543
 1023HECX    H6 6165   4.915   2.220   2.950
 1023HECX    O2 6166   4.890   2.162   2.865
 1023HECX    C2 6167   4.959   2.035   2.881
 1023HECX    C1 6168   4.974   1.949   2.755
 1023HECX    O1 6169   4.857   1.872   2.720
 1023HECX    H1 6170   4.889   1.783   2.671
 1024HECX    H6 6171   4.622   5.147   2.866
 1024HECX    O2 6172   4.596   5.213   2.947
 1024HECX    C2 6173   4.718   5.229   3.023
 1024HECX    C1 6174   4.715   5.325   3.143
 1024HECX    O1 6175   4.847   5.335   3.199
 1024HECX    H1 6176   4.846   5.402   3.279
 1025HECX    H6 6177   4.722   3.656   2.485
 1025HECX    O2 6178   4.798   3.611   2.538
 1025HECX    C2 6179   4.904   3.708   2.554
 1025HECX    C1 6180   4.880   3.797   2.676
 1025HECX    O1 6181   4.992   3.882   2.709
 1025HECX    H1 6182   5.070   3.819   2.742
 1026HECX    H6 6183   3.598   5.839   5.341
 1026HECX    O2 6184   3.623   5.778   5.425
 1026HECX    C2 6185   3.502   5.751   5.500
 1026HECX    C1 6186   3.516   5.636   5.599
 1026HECX    O1 6187   3.413   5.636   5.700
 1026HECX    H1 6188   3.416   5.545   5.751
 1027HECX    H6 6189   1.272   5.079   0.511
 1027HECX    O2 6190   1.300   5.029   0.600
 1027HECX    C2 6191   1.213   5.075   0.707
 1027HECX    C1 6192   1.258   5.206   0.771
 1027HECX    O1 6193   1.171   5.248   0.878
 1027HECX    H1 6194   1.190   5.190   0.963
 1028HECX    H6 6195   0.925   1.912   3.182
 1028HECX    O2 6196   0.914   1.940   3.282
 1028HECX    C2 6197   1.041   1.919   3.347
 1028HECX    C1 6198   1.039   1.945   3.498
 1028HECX    O1 6199   1.172   1.945   3.555
 1028HECX    H1 6200   1.230   2.017   3.503
 1029HECX    H6 6201   1.474   6.433   4.483
 1029HECX    O2 6202   1.423   6.420   4.390
 1029HECX    C2 6203   1.392   0.048   4.332
 1029HECX    C1 6204   1.242   0.060   4.301
 1029HECX    O1 6205   1.216   0.141   4.185
 1029HECX    H1 6206   1.257   0.091   4.101
 1030HECX    H6 6207   1.043   0.294   1.647
 1030HECX    O2 6208   0.959   0.233   1.632
 1030HECX    C2 6209   1.001   0.096   1.616
 1030HECX    C1 6210   1.017   0.055   1.469
 1030HECX    O1 6211   1.058   6.418   1.451
 1030HECX    H1 6212   1.071   6.402   1.345
 1031HECX    H6 6213   5.884   6.038   1.243
 1031HECX    O2 6214   5.862   5.960   1.175
 1031HECX    C2 6215   5.948   5.846   1.200
 1031HECX    C1 6216   5.867   5.717   1.220
 1031HECX    O1 6217   5.944   5.596   1.199
 1031HECX    H1 6218   5.962   5.590   1.096
 1032HECX    H6 6219   5.764   1.698   1.041
 1032HECX    O2 6220   5.805   1.641   1.119
 1032HECX    C2 6221   5.917   1.715   1.172
 1032HECX    C1 6222   6.006   1.624   1.257
 1032HECX    O1 6223   6.106   1.694   1.335
 1032HECX    H1 6224   6.133   1.623   1.414
 1033HECX    H6 6225   2.166   2.565   1.383
 1033HECX    O2 6226   2.173   2.656   1.438
 1033HECX    C2 6227   2.313   2.683   1.459
 1033HECX    C1 6228   2.376   2.752   1.338
 1033HECX    O1 6229   2.518   2.732   1.328
 1033HECX    H1 6230   2.569   2.818   1.357
 1034HECX    H6 6231   0.889   5.151   1.119
 1034HECX    O2 6232   0.850   5.248   1.142
 1034HECX    C2 6233   0.873   5.337   1.031
 1034HECX    C1 6234   0.806   5.290   0.901
 1034HECX    O1 6235   0.805   5.389   0.797
 1034HECX    H1 6236   0.757   5.346   0.711
 1035HECX    H6 6237   4.657   1.509   0.545
 1035HECX    O2 6238   4.701   1.470   0.457
 1035HECX    C2 6239   4.594   1.422   0.373
 1035HECX    C1 6240   4.577   1.270   0.377
 1035HECX    O1 6241   4.452   1.223   0.321
 1035HECX    H1 6242   4.433   1.276   0.229
 1036HECX    H6 6243   2.454   4.677   0.412
 1036HECX    O2 6244   2.476   4.580   0.396
 1036HECX    C2 6245   2.565   4.539   0.502
 1036HECX    C1 6246   2.582   4.386   0.510
 1036HECX    O1 6247   2.679   4.343   0.608
 1036HECX    H1 6248   2.642   4.367   0.706
 1037HECX    H6 6249   1.176   2.869   6.294
 1037HECX    O2 6250   1.263   2.836   6.236
 1037HECX    C2 6251   1.362   2.787   6.328
 1037HECX    C1 6252   1.474   2.710   6.257
 1037HECX    O1 6253   1.584   2.675   6.344
 1037HECX    H1 6254   1.651   2.758   6.350
 1038HECX    H6 6255   2.803   5.779   6.390
 1038HECX    O2 6256   2.759   5.784   6.484
 1038HECX    C2 6257   2.684   5.908   6.491
 1038HECX    C1 6258   2.533   5.885   0.005
 1038HECX    O1 6259   2.456   6.005   0.024
 1038HECX    H1 6260   2.452   6.026   0.126
 1039HECX    H6 6261   0.428   3.279   1.518
 1039HECX    O2 6262   0.534   3.285   1.538
 1039HECX    C2 6263   0.568   3.425   1.544
 1039HECX    C1 6264   0.629   3.469   1.677
 1039HECX    O1 6265   0.685   3.602   1.668
 1039HECX    H1 6266   0.768   3.596   1.603
 1040HECX    H6 6267   4.130   1.493   2.176
 1040HECX    O2 6268   4.116   1.389   2.159
 1040HECX    C2 6269   4.037   1.334   2.266
 1040HECX    C1 6270   3.896   1.292   2.221
 1040HECX    O1 6271   3.814   1.249   2.330
 1040HECX    H1 6272   3.819   1.142   2.338
 1041HECX    H6 6273   5.924   4.102   5.072
 1041HECX    O2 6274   5.936   4.205   5.098
 1041HECX    C2 6275   6.053   4.253   5.029
 1041HECX    C1 6276   6.110   4.382   5.090
 1041HECX    O1 6277   6.238   4.415   5.034
 1041HECX    H1 6278   6.308   4.347   5.069
 1042HECX    H6 6279   4.047   3.757   0.513
 1042HECX    O2 6280   4.004   3.728   0.421
 1042HECX    C2 6281   4.082   3.620   0.365
 1042HECX    C1 6282   4.051   3.602   0.216
 1042HECX    O1 6283   4.113   3.486   0.155
 1042HECX    H1 6284   4.057   3.401   0.183
 1043HECX    H6 6285   1.907   4.668   0.468
 1043HECX    O2 6286   1.915   4.709   0.562
 1043HECX    C2 6287   1.883   4.849   0.561
 1043HECX    C1 6288   1.934   4.917   0.689
 1043HECX    O1 6289   1.893   5.055   0.703
 1043HECX    H1 6290   1.804   5.055   0.760
 1044HECX    H6 6291   6.123   0.744   4.666
 1044HECX    O2 6292   6.227   0.749   4.660
 1044HECX    C2 6293   6.278   0.703   4.788
 1044HECX    C1 6294   6.426   0.663   4.786
 1044HECX    O1 6295   6.466   0.593   4.905
 1044HECX    H1 6296   0.065   0.583   4.902
 1045HECX    H6 6297   4.950   5.839   3.390
 1045HECX    O2 6298   4.898   5.768   3.450
 1045HECX    C2 6299   4.756   5.798   3.447
 1045HECX    C1 6300   4.720   5.947   3.441
 1045HECX    O1 6301   4.577   5.965   3.433
 1045HECX    H1 6302   4.558   6.072   3.420
 1046HECX    H6 6303   2.699   3.543   0.444
 1046HECX    O2 6304   2.766   3.482   0.391
 1046HECX    C2 6305   2.849   3.567   0.309
 1046HECX    C1 6306   2.801   3.577   0.163
 1046HECX    O1 6307   2.870   3.680   0.089
 1046HECX    H1 6308   2.898   3.640   6.496
 1047HECX    H6 6309   1.189   0.825   5.611
 1047HECX    O2 6310   1.178   0.758   5.538
 1047HECX    C2 6311   1.299   0.680   5.537
 1047HECX    C1 6312   1.322   0.604   5.405
 1047HECX    O1 6313   1.452   0.541   5.400
 1047HECX    H1 6314   1.450   0.470   5.331
 1048HECX    H6 6315   2.084   1.226   1.369
 1048HECX    O2 6316   2.049   1.311   1.422
 1048HECX    C2 6317   2.048   1.421   1.328
 1048HECX    C1 6318   2.057   1.557   1.399
 1048HECX    O1 6319   2.014   1.670   1.320
 1048HECX    H1 6320   1.993   1.747   1.389
 1049HECX    H6 6321   1.875   1.275   2.002
 1049HECX    O2 6322   1.954   1.347   1.988
 1049HECX    C2 6323   2.055   1.298   1.898
 1049HECX    C1 6324   2.017   1.305   1.749
 1049HECX    O1 6325   2.133   1.322   1.664
 1049HECX    H1 6326   2.100   1.315   1.563
 1050HECX    H6 6327   5.952   4.792   0.193
 1050HECX    O2 6328   5.850   4.822   0.188
 1050HECX    C2 6329   5.836   4.951   0.250
 1050HECX    C1 6330   5.704   5.021   0.215
 1050HECX    O1 6331   5.695   5.159   0.257
 1050HECX    H1 6332   5.775   5.217   0.212
 1051HECX    H6 6333   4.241   2.069   3.292
 1051HECX    O2 6334   4.149   2.096   3.249
 1051HECX    C2 6335   4.075   1.976   3.215
 1051HECX    C1 6336   4.131   1.891   3.100
 1051HECX    O1 6337   4.061   1.765   3.086
 1051HECX    H1 6338   4.108   1.710   3.014
 1052HECX    H6 6339   5.742   3.863   5.942
 1052HECX    O2 6340   5.687   3.926   6.004
 1052HECX    C2 6341   5.763   4.048   6.019
 1052HECX    C1 6342   5.885   4.033   6.110
 1052HECX    O1 6343   5.965   4.153   6.114
 1052HECX    H1 6344   6.056   4.134   6.162
 1053HECX    H6 6345   4.890   1.916   1.333
 1053HECX    O2 6346   4.877   1.974   1.423
 1053HECX    C2 6347   4.971   2.084   1.418
 1053HECX    C1 6348   5.075   2.080   1.530
 1053HECX    O1 6349   5.165   2.191   1.526
 1053HECX    H1 6350   5.219   2.193   1.616
 1054HECX    H6 6351   5.704   4.772   0.719
 1054HECX    O2 6352   5.640   4.720   0.651
 1054HECX    C2 6353   5.607   4.808   0.541
 1054HECX    C1 6354   5.515   4.927   0.577
 1054HECX    O1 6355   5.380   4.892   0.614
 1054HECX    H1 6356   5.334   4.983   0.648
 1055HECX    H6 6357   4.224   1.473   0.709
 1055HECX    O2 6358   4.309   1.525   0.673
 1055HECX    C2 6359   4.286   1.545   0.532
 1055HECX    C1 6360   4.228   1.683   0.498
 1055HECX    O1 6361   4.324   1.775   0.443
 1055HECX    H1 6362   4.351   1.847   0.516
 1056HECX    H6 6363   1.070   0.363   3.049
 1056HECX    O2 6364   1.077   0.373   3.153
 1056HECX    C2 6365   0.942   0.366   3.202
 1056HECX    C1 6366   0.930   0.306   3.343
 1056HECX    O1 6367   0.794   0.269   3.373
 1056HECX    H1 6368   0.785   0.259   3.477
 1057HECX    H6 6369   3.160   6.297   0.735
 1057HECX    O2 6370   3.073   6.248   0.773
 1057HECX    C2 6371   3.087   6.105   0.765
 1057HECX    C1 6372   3.179   6.048   0.874
 1057HECX    O1 6373   3.194   5.904   0.869
 1057HECX    H1 6374   3.104   5.860   0.912
 1058HECX    H6 6375   5.476   1.571   2.700
 1058HECX    O2 6376   5.540   1.630   2.637
 1058HECX    C2 6377   5.638   1.542   2.576
 1058HECX    C1 6378   5.582   1.470   2.452
 1058HECX    O1 6379   5.674   1.376   2.393
 1058HECX    H1 6380   5.637   1.349   2.305
 1059HECX    H6 6381   4.247   3.686   6.045
 1059HECX    O2 6382   4.235   3.587   6.023
 1059HECX    C2 6383   4.096   3.552   6.041
 1059HECX    C1 6384   4.040   3.471   5.924
 1059HECX    O1 6385   3.912   3.411   5.953
 1059HECX    H1 6386   3.842   3.446   5.883
 1060HECX    H6 6387   2.815   5.104   4.107
 1060HECX    O2 6388   2.882   5.123   4.028
 1060HECX    C2 6389   2.859   5.257   3.980
 1060HECX    C1 6390   2.766   5.264   3.858
 1060HECX    O1 6391   2.722   5.399   3.829
 1060HECX    H1 6392   2.683   5.403   3.732
 1061HECX    H6 6393   4.952   0.073   1.324
 1061HECX    O2 6394   4.972   0.043   1.226
 1061HECX    C2 6395   4.869   6.450   1.185
 1061HECX    C1 6396   4.735   0.016   1.148
 1061HECX    O1 6397   4.640   6.423   1.091
 1061HECX    H1 6398   4.687   6.376   1.007
 1062HECX    H6 6399   3.295   2.145   4.424
 1062HECX    O2 6400   3.261   2.044   4.420
 1062HECX    C2 6401   3.214   2.011   4.552
 1062HECX    C1 6402   3.208   1.862   4.590
 1062HECX    O1 6403   3.149   1.845   4.721
 1062HECX    H1 6404   3.210   1.892   4.792
 1063HECX    H6 6405   6.090   3.996   4.449
 1063HECX    O2 6406   6.064   4.004   4.348
 1063HECX    C2 6407   6.001   4.133   4.329
 1063HECX    C1 6408   6.048   4.204   4.201
 1063HECX    O1 6409   6.031   4.347   4.205
 1063HECX    H1 6410   5.942   4.374   4.154
 1064HECX    H6 6411   5.663   5.753   5.695
 1064HECX    O2 6412   5.616   5.803   5.614
 1064HECX    C2 6413   5.483   5.749   5.597
 1064HECX    C1 6414   5.385   5.859   5.554
 1064HECX    O1 6415   5.261   5.811   5.497
 1064HECX    H1 6416   5.198   5.778   5.579
 1065HECX    H6 6417   0.717   2.890   2.400
 1065HECX    O2 6418   0.728   2.925   2.302
 1065HECX    C2 6419   0.662   2.829   2.217
 1065HECX    C1 6420   0.588   2.891   2.098
 1065HECX    O1 6421   0.494   2.796   2.044
 1065HECX    H1 6422   0.456   2.834   1.952
 1066HECX    H6 6423   2.212   5.056   6.492
 1066HECX    O2 6424   2.265   5.070   6.400
 1066HECX    C2 6425   2.305   4.942   6.348
 1066HECX    C1 6426   2.186   4.852   6.311
 1066HECX    O1 6427   2.223   4.736   6.233
 1066HECX    H1 6428   2.231   4.768   6.131
 1067HECX    H6 6429   0.138   1.812   5.976
 1067HECX    O2 6430   0.056   1.862   5.932
 1067HECX    C2 6431   0.070   1.861   5.788
 1067HECX    C1 6432   6.480   1.967   5.723
 1067HECX    O1 6433   6.458   1.946   5.582
 1067HECX    H1 6434   6.375   1.883   5.571
 1068HECX    H6 6435   5.934   1.471   0.558
 1068HECX    O2 6436   6.035   1.464   0.533
 1068HECX    C2 6437   6.080   1.586   0.470
 1068HECX    C1 6438   6.064   1.586   0.317
 1068HECX    O1 6439   6.106   1.711   0.256
 1068HECX    H1 6440   6.209   1.725   0.280
 1069HECX    H6 6441   6.439   1.773   2.282
 1069HECX    O2 6442   6.479   1.775   2.181
 1069HECX    C2 6443   6.440   1.901   2.121
 1069HECX    C1 6444   6.349   1.881   1.999
 1069HECX    O1 6445   6.304   2.002   1.934
 1069HECX    H1 6446   6.242   1.971   1.854
 1070HECX    H6 6447   1.516   0.206   4.741
 1070HECX    O2 6448   1.503   0.107   4.780
 1070HECX    C2 6449   1.369   0.092   4.831
 1070HECX    C1 6450   1.344   0.145   4.973
 1070HECX    O1 6451   1.230   0.080   5.032
 1070HECX    H1 6452   1.188   0.138   5.110
 1071HECX    H6 6453   2.692   1.669   0.522
 1071HECX    O2 6454   2.712   1.574   0.568
 1071HECX    C2 6455   2.812   1.598   0.669
 1071HECX    C1 6456   2.758   1.654   0.801
 1071HECX    O1 6457   2.859   1.726   0.876
 1071HECX    H1 6458   2.950   1.676   0.868
 1072HECX    H6 6459   6.487   3.608   0.517
 1072HECX    O2 6460   6.401   3.632   0.573
 1072HECX    C2 6461   6.355   3.510   0.636
 1072HECX    C1 6462   6.458   3.456   0.736
 1072HECX    O1 6463   6.402   3.372   0.839
 1072HECX    H1 6464   6.349   3.433   0.906
 1073HECX    H6 6465   3.108   3.427   2.053
 1073HECX    O2 6466   3.141   3.483   1.968
 1073HECX    C2 6467   3.043   3.464   1.864
 1073HECX    C1 6468   3.109   3.451   1.725
 1073HECX    O1 6469   3.013   3.452   1.617
 1073HECX    H1 6470   2.988   3.352   1.596
 1074HECX    H6 6471   5.291   1.776   4.889
 1074HECX    O2 6472   5.210   1.806   4.955
 1074HECX    C2 6473   5.129   1.905   4.889
 1074HECX    C1 6474   5.052   1.854   4.766
 1074HECX    O1 6475   4.963   1.954   4.712
 1074HECX    H1 6476   4.920   1.916   4.621
 1075HECX    H6 6477   5.322   2.957   0.196
 1075HECX    O2 6478   5.337   2.980   0.095
 1075HECX    C2 6479   5.416   3.100   0.084
 1075HECX    C1 6480   5.511   3.097   6.464
 1075HECX    O1 6481   5.557   3.228   6.423
 1075HECX    H1 6482   5.579   3.288   0.008
 1076HECX    H6 6483   1.556   2.412   3.499
 1076HECX    O2 6484   1.474   2.475   3.529
 1076HECX    C2 6485   1.527   2.587   3.602
 1076HECX    C1 6486   1.595   2.691   3.512
 1076HECX    O1 6487   1.652   2.801   3.586
 1076HECX    H1 6488   1.603   2.893   3.553
 1077HECX    H6 6489   0.488   4.794   5.590
 1077HECX    O2 6490   0.502   4.747   5.684
 1077HECX    C2 6491   0.623   4.668   5.683
 1077HECX    C1 6492   0.679   4.649   5.825
 1077HECX    O1 6493   0.769   4.537   5.836
 1077HECX    H1 6494   0.868   4.571   5.825
 1078HECX    H6 6495   6.159   0.175   3.070
 1078HECX    O2 6496   6.229   0.168   3.152
 1078HECX    C2 6497   6.316   0.054   3.131
 1078HECX    C1 6498   6.402   0.026   3.255
 1078HECX    O1 6499   6.497   6.418   3.239
 1078HECX    H1 6500   6.443   6.326   3.249
 1079HECX    H6 6501   1.432   4.647   0.925
 1079HECX    O2 6502   1.410   4.573   0.999
 1079HECX    C2 6503   1.320   4.639   1.091
 1079HECX    C1 6504   1.319   4.587   1.235
 1079HECX    O1 6505   1.233   4.673   1.314
 1079HECX    H1 6506   1.195   4.621   1.395
 1080HECX    H6 6507   2.734   0.818   4.666
 1080HECX    O2 6508   2.736   0.914   4.624
 1080HECX    C2 6509   2.601   0.963   4.627
 1080HECX    C1 6510   2.508   0.889   4.529
 1080HECX    O1 6511   2.370   0.915   4.558
 1080HECX    H1 6512   2.346   1.009   4.522
 1081HECX    H6 6513   1.834   3.446   6.414
 1081HECX    O2 6514   1.826   3.452   6.311
 1081HECX    C2 6515   1.777   3.326   6.262
 1081HECX    C1 6516   1.765   3.321   6.110
 1081HECX    O1 6517   1.693   3.207   6.059
 1081HECX    H1 6518   1.658   3.230   5.964
 1082HECX    H6 6519   2.529   0.853   1.107
 1082HECX    O2 6520   2.495   0.892   1.016
 1082HECX    C2 6521   2.604   0.969   0.961
 1082HECX    C1 6522   2.560   1.077   0.862
 1082HECX    O1 6523   2.665   1.173   0.833
 1082HECX    H1 6524   2.624   1.247   0.764
 1083HECX    H6 6525   2.597   6.336   0.322
 1083HECX    O2 6526   2.645   6.245   0.288
 1083HECX    C2 6527   2.733   6.280   0.179
 1083HECX    C1 6528   2.660   6.293   0.045
 1083HECX    O1 6529   2.748   6.324   6.436
 1083HECX    H1 6530   2.731   6.254   6.360
 1084HECX    H6 6531   4.062   4.713   4.735
 1084HECX    O2 6532   4.143   4.651   4.700
 1084HECX    C2 6533   4.082   4.532   4.645
 1084HECX    C1 6534   4.009   4.448   4.751
 1084HECX    O1 6535   3.881   4.398   4.706
 1084HECX    H1 6536   3.892   4.293   4.689
 1085HECX    H6 6537   4.754   5.118   2.721
 1085HECX    O2 6538   4.674   5.065   2.762
 1085HECX    C2 6539   4.593   5.016   2.653
 1085HECX    C1 6540   4.645   5.057   2.514
 1085HECX    O1 6541   4.667   5.199   2.506
 1085HECX    H1 6542   4.755   5.219   2.556
 1086HECX    H6 6543   6.466   0.523   3.162
 1086HECX    O2 6544   0.001   0.548   3.066
 1086HECX    C2 6545   0.118   0.631   3.080
 1086HECX    C1 6546   0.241   0.561   3.141
 1086HECX    O1 6547   0.347   0.653   3.176
 1086HECX    H1 6548   0.440   0.604   3.158
 1087HECX    H6 6549   1.593   2.036   4.146
 1087HECX    O2 6550   1.607   1.990   4.058
 1087HECX    C2 6551   1.751   1.982   4.041
 1087HECX    C1 6552   1.792   1.911   3.911
 1087HECX    O1 6553   1.934   1.912   3.892
 1087HECX    H1 6554   1.957   1.855   3.809
 1088HECX    H6 6555   2.149   5.979   2.558
 1088HECX    O2 6556   2.114   5.887   2.571
 1088HECX    C2 6557   1.972   5.898   2.593
 1088HECX    C1 6558   1.905   5.762   2.617
 1088HECX    O1 6559   1.761   5.767   2.623
 1088HECX    H1 6560   1.722   5.736   2.529
 1089HECX    H6 6561   0.199   3.645   1.004
 1089HECX    O2 6562   0.178   3.713   1.085
 1089HECX    C2 6563   0.253   3.836   1.066
 1089HECX    C1 6564   0.227   3.904   0.930
 1089HECX    O1 6565   0.276   4.039   0.923
 1089HECX    H1 6566   0.261   4.074   0.825
 1090HECX    H6 6567   4.062   5.306   2.919
 1090HECX    O2 6568   4.013   5.393   2.944
 1090HECX    C2 6569   4.007   5.474   2.825
 1090HECX    C1 6570   4.127   5.570   2.818
 1090HECX    O1 6571   4.126   5.654   2.702
 1090HECX    H1 6572   4.182   5.734   2.721
 1091HECX    H6 6573   0.207   2.060   0.018
 1091HECX    O2 6574   0.164   2.102   6.430
 1091HECX    C2 6575   0.037   2.035   6.408
 1091HECX    C1 6576   6.432   2.118   6.333
 1091HECX    O1 6577   6.395   2.238   6.404
 1091HECX    H1 6578   6.481   2.299   6.400
 1092HECX    H6 6579   0.144   3.270   3.748
 1092HECX    O2 6580   0.112   3.372   3.759
 1092HECX    C2 6581   0.145   3.412   3.894
 1092HECX    C1 6582   0.021   3.446   3.979
 1092HECX    O1 6583   0.055   3.506   4.106
 1092HECX    H1 6584   6.491   3.591   4.118
 1093HECX    H6 6585   4.261   1.365   2.111
 1093HECX    O2 6586   4.353   1.388   2.068
 1093HECX    C2 6587   4.456   1.303   2.123
 1093HECX    C1 6588   4.586   1.310   2.041
 1093HECX    O1 6589   4.702   1.271   2.117
 1093HECX    H1 6590   4.714   1.340   2.196
 1094HECX    H6 6591   4.922   3.505   6.223
 1094HECX    O2 6592   4.875   3.412   6.249
 1094HECX    C2 6593   4.974   3.332   6.315
 1094HECX    C1 6594   5.061   3.252   6.216
 1094HECX    O1 6595   5.176   3.189   6.276
 1094HECX    H1 6596   5.144   3.132   6.360
 1095HECX    H6 6597   1.509   0.040   3.434
 1095HECX    O2 6598   1.473   0.008   3.339
 1095HECX    C2 6599   1.330   6.488   3.349
 1095HECX    C1 6600   1.267   6.453   3.214
 1095HECX    O1 6601   1.122   6.450   3.213
 1095HECX    H1 6602   1.089   6.356   3.251
 1096HECX    H6 6603   5.610   0.518   3.625
 1096HECX    O2 6604   5.603   0.568   3.716
 1096HECX    C2 6605   5.478   0.639   3.728
 1096HECX    C1 6606   5.356   0.546   3.731
 1096HECX    O1 6607   5.237   0.607   3.786
 1096HECX    H1 6608   5.173   0.531   3.803
 1097HECX    H6 6609   2.008   5.013   3.913
 1097HECX    O2 6610   2.037   5.114   3.907
 1097HECX    C2 6611   1.962   5.172   3.798
 1097HECX    C1 6612   1.966   5.325   3.793
 1097HECX    O1 6613   2.090   5.384   3.746
 1097HECX    H1 6614   2.114   5.470   3.806
 1098HECX    H6 6615   4.067   4.551   0.542
 1098HECX    O2 6616   4.108   4.646   0.564
 1098HECX    C2 6617   4.014   4.747   0.524
 1098HECX    C1 6618   3.872   4.714   0.570
 1098HECX    O1 6619   3.769   4.804   0.525
 1098HECX    H1 6620   3.765   4.799   0.425
 1099HECX    H6 6621   3.534   0.611   5.467
 1099HECX    O2 6622   3.572   0.515   5.449
 1099HECX    C2 6623   3.465   0.429   5.405
 1099HECX    C1 6624   3.382   0.492   5.292
 1099HECX    O1 6625   3.279   0.407   5.239
 1099HECX    H1 6626   3.326   0.342   5.178
 1100HECX    H6 6627   2.574   0.731   6.044
 1100HECX    O2 6628   2.631   0.677   6.119
 1100HECX    C2 6629   2.679   0.556   6.055
 1100HECX    C1 6630   2.738   0.450   6.149
 1100HECX    O1 6631   2.770   0.329   6.078
 1100HECX    H1 6632   2.830   0.270   6.135
 1101HECX    H6 6633   1.457   0.707   2.755
 1101HECX    O2 6634   1.555   0.728   2.790
 1101HECX    C2 6635   1.648   0.636   2.727
 1101HECX    C1 6636   1.630   0.492   2.778
 1101HECX    O1 6637   1.723   0.397   2.721
 1101HECX    H1 6638   1.822   0.425   2.755
 1102SOL     OW 6639   0.167   0.714   0.149
 1102SOL    HW1 6640   0.141   0.718   0.246
 1102SOL    HW2 6641   0.171   0.618   0.120
 1103SOL     OW 6642   0.191   0.325   0.973
 1103SOL    HW1 6643   0.242   0.270   1.040
 1103SOL    HW2 6644   0.096   0.332   1.002
 1104SOL     OW 6645   6.472   0.503   0.660
 1104SOL    HW1 6646   6.394   0.566   0.657
 1104SOL    HW2 6647   6.452   0.423   0.604
 1105SOL     OW 6648   0.608   1.288   1.128
 1105SOL    HW1 6649   0.514   1.254   1.133
 1105SOL    HW2 6650   0.621   1.359   1.198
 1106SOL     OW 6651   1.537   1.444   0.725
 1106SOL    HW1 6652   1.472   1.412   0.795
 1106SOL    HW2 6653   1.487   1.472   0.644
 1107SOL     OW 6654   1.112   0.733   0.691
 1107SOL    HW1 6655   1.181   0.795   0.652
 1107SOL    HW2 6656   1.032   0.731   0.630
 1108SOL     OW 6657   0.786   1.106   1.034
 1108SOL    HW1 6658   0.718   1.172   1.066
 1108SOL    HW2 6659   0.878   1.144   1.047
 1109SOL     OW 6660   0.849   0.765   1.876
 1109SOL    HW1 6661   0.882   0.803   1.962
 1109SOL    HW2 6662   0.864   0.832   1.803
 1110SOL     OW 6663   1.449   1.553   1.345
 1110SOL    HW1 6664   1.521   1.622   1.353
 1110SOL    HW2 6665   1.376   1.573   1.410
 1111SOL     OW 6666   0.380   0.373   1.531
 1111SOL    HW1 6667   0.466   0.323   1.520
 1111SOL    HW2 6668   0.306   0.321   1.489
 1112SOL     OW 6669   0.189   1.827   0.497
 1112SOL    HW1 6670   0.246   1.892   0.547
 1112SOL    HW2 6671   0.236   1.798   0.414
 1113SOL     OW 6672   1.151   1.391   1.690
 1113SOL    HW1 6673   1.213   1.406   1.767
 1113SOL    HW2 6674   1.094   1.310   1.709
 1114SOL     OW 6675   0.389   1.032   0.964
 1114SOL    HW1 6676   0.335   0.948   0.957
 1114SOL    HW2 6677   0.364   1.080   1.048
 1115SOL     OW 6678   0.611   1.694   1.483
 1115SOL    HW1 6679   0.526   1.705   1.534
 1115SOL    HW2 6680   0.644   1.783   1.451
 1116SOL     OW 6681   0.546   1.011   0.153
 1116SOL    HW1 6682   0.563   0.986   0.057
 1116SOL    HW2 6683   0.601   0.954   0.213
 1117SOL     OW 6684   0.119   0.714   0.418
 1117SOL    HW1 6685   0.045   0.648   0.422
 1117SOL    HW2 6686   0.101   0.789   0.481
 1118SOL     OW 6687   1.784   1.762   0.336
 1118SOL    HW1 6688   1.843   1.838   0.363
 1118SOL    HW2 6689   1.805   1.735   0.242
 1119SOL     OW 6690   0.079   1.458   0.138
 1119SOL    HW1 6691   0.030   1.388   0.190
 1119SOL    HW2 6692   0.016   1.502   0.074
 1120SOL     OW 6693   1.693   0.941   0.680
 1120SOL    HW1 6694   1.744   0.906   0.601
 1120SOL    HW2 6695   1.682   1.040   0.670
 1121SOL     OW 6696   1.636   1.129   0.402
 1121SOL    HW1 6697   1.725   1.117   0.357
 1121SOL    HW2 6698   1.649   1.169   0.492
 1122SOL     OW 6699   0.224   0.731   1.568
 1122SOL    HW1 6700   0.318   0.755   1.591
 1122SOL    HW2 6701   0.185   0.802   1.510
 1123SOL     OW 6702   0.674   1.260   0.598
 1123SOL    HW1 6703   0.688   1.162   0.608
 1123SOL    HW2 6704   0.595   1.277   0.539
 1124SOL     OW 6705   1.310   1.260   1.430
 1124SOL    HW1 6706   1.401   1.257   1.388
 1124SOL    HW2 6707   1.319   1.257   1.530
 1125SOL     OW 6708   0.960   0.077   0.576
 1125SOL    HW1 6709   1.003   0.146   0.518
 1125SOL    HW2 6710   0.868   0.107   0.600
 1126SOL     OW 6711   0.105   0.887   1.347
 1126SOL    HW1 6712   0.195   0.871   1.308
 1126SOL    HW2 6713   0.047   0.807   1.331
 1127SOL     OW 6714   1.150   1.789   1.710
 1127SOL    HW1 6715   1.190   1.736   1.635
 1127SOL    HW2 6716   1.105   1.726   1.774
 1128SOL     OW 6717   1.401   1.340   0.949
 1128SOL    HW1 6718   1.350   1.399   1.011
 1128SOL    HW2 6719   1.346   1.260   0.926
 1129SOL     OW 6720   1.663   1.766   0.593
 1129SOL    HW1 6721   1.715   1.749   0.509
 1129SOL    HW2 6722   1.594   1.694   0.604
 1130SOL     OW 6723   0.566   0.670   0.289
 1130SOL    HW1 6724   0.619   0.754   0.303
 1130SOL    HW2 6725   0.494   0.664   0.359
 1131SOL     OW 6726   1.580   1.589   0.282
 1131SOL    HW1 6727   1.651   1.654   0.308
 1131SOL    HW2 6728   1.538   1.617   0.196
 1132SOL     OW 6729   0.791   0.684   1.448
 1132SOL    HW1 6730   0.746   0.654   1.532
 1132SOL    HW2 6731   0.780   0.614   1.378
 1133SOL     OW 6732   1.414   0.496   1.701
 1133SOL    HW1 6733   1.455   0.570   1.755
 1133SOL    HW2 6734   1.438   0.408   1.741
 1134SOL     OW 6735   0.923   0.938   1.666
 1134SOL    HW1 6736   0.979   0.860   1.638
 1134SOL    HW2 6737   0.887   0.984   1.585
 1135SOL     OW 6738   1.008   0.649   0.429
 1135SOL    HW1 6739   1.049   0.589   0.498
 1135SOL    HW2 6740   0.925   0.607   0.392
 1136SOL     OW 6741   0.104   1.807   1.569
 1136SOL    HW1 6742   0.117   1.838   1.663
 1136SOL    HW2 6743   0.051   1.875   1.518
 1137SOL     OW 6744   0.867   0.287   0.197
 1137SOL    HW1 6745   0.930   0.320   0.126
 1137SOL    HW2 6746   0.869   0.187   0.198
 1138SOL     OW 6747   1.808   0.579   1.614
 1138SOL    HW1 6748   1.732   0.626   1.569
 1138SOL    HW2 6749   1.785   0.482   1.624
 1139SOL     OW 6750   0.600   0.239   0.974
 1139SOL    HW1 6751   0.674   0.228   1.041
 1139SOL    HW2 6752   0.593   0.336   0.948
 1140SOL     OW 6753   1.057   1.614   0.502
 1140SOL    HW1 6754   0.960   1.637   0.494
 1140SOL    HW2 6755   1.084   1.619   0.598
 1141SOL     OW 6756   0.454   1.870   0.839
 1141SOL    HW1 6757   0.480   1.791   0.894
 1141SOL    HW2 6758   0.499   1.952   0.875
 1142SOL     OW 6759   1.746   0.949   0.955
 1142SOL    HW1 6760   1.737   0.938   0.856
 1142SOL    HW2 6761   1.696   1.031   0.984
 1143SOL     OW 6762   1.240   1.593   1.521
 1143SOL    HW1 6763   1.213   1.511   1.571
 1143SOL    HW2 6764   1.165   1.622   1.460
 1144SOL     OW 6765   0.282   0.956   0.238
 1144SOL    HW1 6766   0.371   0.981   0.198
 1144SOL    HW2 6767   0.250   0.871   0.198
 1145SOL     OW 6768   1.470   0.788   0.723
 1145SOL    HW1 6769   1.466   0.742   0.812
 1145SOL    HW2 6770   1.552   0.845   0.719
 1146SOL     OW 6771   0.165   0.268   1.401
 1146SOL    HW1 6772   0.137   0.364   1.412
 1146SOL    HW2 6773   0.086   0.214   1.371
 1147SOL     OW 6774   1.664   1.357   0.153
 1147SOL    HW1 6775   1.650   1.438   0.211
 1147SOL    HW2 6776   1.581   1.302   0.154
 1148SOL     OW 6777   0.354   1.771   0.278
 1148SOL    HW1 6778   0.452   1.789   0.266
 1148SOL    HW2 6779   0.333   1.680   0.242
 1149SOL     OW 6780   1.430   0.178   0.388
 1149SOL    HW1 6781   1.354   0.126   0.349
 1149SOL    HW2 6782   1.493   0.116   0.433
 1150SOL     OW 6783   0.914   1.708   0.852
 1150SOL    HW1 6784   1.007   1.704   0.814
 1150SOL    HW2 6785   0.860   1.632   0.817
 1151SOL     OW 6786   0.375   0.639   0.480
 1151SOL    HW1 6787   0.374   0.540   0.474
 1151SOL    HW2 6788   0.284   0.675   0.459
 1152SOL     OW 6789   0.741   0.337   1.725
 1152SOL    HW1 6790   0.824   0.299   1.683
 1152SOL    HW2 6791   0.752   0.338   1.825
 1153SOL     OW 6792   0.902   1.532   1.165
 1153SOL    HW1 6793   0.850   1.534   1.080
 1153SOL    HW2 6794   0.965   1.454   1.165
 1154SOL     OW 6795   1.368   0.536   1.424
 1154SOL    HW1 6796   1.388   0.520   1.520
 1154SOL    HW2 6797   1.321   0.623   1.413
 1155SOL     OW 6798   0.718   1.481   0.960
 1155SOL    HW1 6799   0.731   1.474   0.861
 1155SOL    HW2 6800   0.680   1.395   0.995
 1156SOL     OW 6801   0.439   0.015   0.308
 1156SOL    HW1 6802   0.422   6.488   0.403
 1156SOL    HW2 6803   0.489   0.102   0.307
 1157SOL     OW 6804   1.406   1.258   0.192
 1157SOL    HW1 6805   1.398   1.176   0.249
 1157SOL    HW2 6806   1.325   1.315   0.204
 1158SOL     OW 6807   1.041   0.291   0.428
 1158SOL    HW1 6808   1.000   0.296   0.337
 1158SOL    HW2 6809   1.134   0.329   0.425
 1159SOL     OW 6810   1.046   0.727   1.540
 1159SOL    HW1 6811   0.958   0.707   1.497
 1159SOL    HW2 6812   1.115   0.742   1.470
 1160SOL     OW 6813   1.167   1.695   0.750
 1160SOL    HW1 6814   1.225   1.733   0.678
 1160SOL    HW2 6815   1.215   1.702   0.838
 1161SOL     OW 6816   0.330   1.190   0.741
 1161SOL    HW1 6817   0.362   1.138   0.820
 1161SOL    HW2 6818   0.355   1.142   0.657
 1162SOL     OW 6819   1.300   1.781   0.528
 1162SOL    HW1 6820   1.352   1.862   0.500
 1162SOL    HW2 6821   1.216   1.775   0.474
 1163SOL     OW 6822   0.104   0.529   1.426
 1163SOL    HW1 6823   0.159   0.588   1.485
 1163SOL    HW2 6824   0.015   0.572   1.408
 1164SOL     OW 6825   0.539   0.337   1.260
 1164SOL    HW1 6826   0.574   0.284   1.337
 1164SOL    HW2 6827   0.472   0.282   1.209
 1165SOL     OW 6828   0.877   0.437   0.597
 1165SOL    HW1 6829   0.822   0.472   0.521
 1165SOL    HW2 6830   0.948   0.377   0.561
 1166SOL     OW 6831   1.046   0.056   0.835
 1166SOL    HW1 6832   1.018   0.062   0.739
 1166SOL    HW2 6833   1.011   6.471   0.874
 1167SOL     OW 6834   1.443   0.647   0.976
 1167SOL    HW1 6835   1.450   0.560   0.928
 1167SOL    HW2 6836   1.494   0.643   1.061
 1168SOL     OW 6837   1.814   0.809   0.430
 1168SOL    HW1 6838   1.906   0.773   0.446
 1168SOL    HW2 6839   1.775   0.767   0.349
 1169SOL     OW 6840   1.677   1.214   0.654
 1169SOL    HW1 6841   1.766   1.221   0.699
 1169SOL    HW2 6842   1.622   1.295   0.676
 1170SOL     OW 6843   0.579   0.249   0.266
 1170SOL    HW1 6844   0.676   0.262   0.248
 1170SOL    HW2 6845   0.527   0.323   0.223
 1171SOL     OW 6846   1.778   1.300   1.484
 1171SOL    HW1 6847   1.875   1.294   1.461
 1171SOL    HW2 6848   1.760   1.386   1.533
 1172SOL     OW 6849   1.093   1.341   1.289
 1172SOL    HW1 6850   1.009   1.333   1.342
 1172SOL    HW2 6851   1.170   1.307   1.344
 1173SOL     OW 6852   1.494   1.476   1.643
 1173SOL    HW1 6853   1.428   1.545   1.616
 1173SOL    HW2 6854   1.587   1.512   1.630
 1174SOL     OW 6855   1.036   1.203   1.061
 1174SOL    HW1 6856   1.066   1.246   1.147
 1174SOL    HW2 6857   1.116   1.178   1.007
 1175SOL     OW 6858   1.591   1.153   1.050
 1175SOL    HW1 6859   1.583   1.169   1.149
 1175SOL    HW2 6860   1.528   1.212   1.001
 1176SOL     OW 6861   0.997   1.183   1.784
 1176SOL    HW1 6862   0.938   1.212   1.859
 1176SOL    HW2 6863   0.961   1.099   1.743
 1177SOL     OW 6864   0.710   0.899   0.340
 1177SOL    HW1 6865   0.709   0.938   0.432
 1177SOL    HW2 6866   0.805   0.890   0.308
 1178SOL     OW 6867   0.367   0.832   1.288
 1178SOL    HW1 6868   0.449   0.868   1.332
 1178SOL    HW2 6869   0.373   0.732   1.283
 1179SOL     OW 6870   1.286   0.393   1.202
 1179SOL    HW1 6871   1.306   0.449   1.282
 1179SOL    HW2 6872   1.213   0.435   1.148
 1180SOL     OW 6873   0.337   1.073   0.480
 1180SOL    HW1 6874   0.388   1.157   0.460
 1180SOL    HW2 6875   0.320   1.023   0.395
 1181SOL     OW 6876   0.592   0.508   0.902
 1181SOL    HW1 6877   0.573   0.550   0.814
 1181SOL    HW2 6878   0.666   0.556   0.947
 1182SOL     OW 6879   1.198   1.414   0.381
 1182SOL    HW1 6880   1.290   1.424   0.419
 1182SOL    HW2 6881   1.139   1.486   0.417
 1183SOL     OW 6882   1.283   1.492   1.141
 1183SOL    HW1 6883   1.350   1.517   1.211
 1183SOL    HW2 6884   1.204   1.448   1.184
 1184SOL     OW 6885   1.680   0.633   0.604
 1184SOL    HW1 6886   1.589   0.660   0.633
 1184SOL    HW2 6887   1.711   0.693   0.531
 1185SOL     OW 6888   0.475   0.783   1.656
 1185SOL    HW1 6889   0.512   0.831   1.577
 1185SOL    HW2 6890   0.538   0.711   1.684
 1186SOL     OW 6891   1.631   0.828   1.627
 1186SOL    HW1 6892   1.543   0.874   1.639
 1186SOL    HW2 6893   1.681   0.871   1.552
 1187SOL     OW 6894   0.524   0.009   1.646
 1187SOL    HW1 6895   0.495   6.435   1.585
 1187SOL    HW2 6896   0.465   0.011   1.726
 1188SOL     OW 6897   0.641   0.878   1.088
 1188SOL    HW1 6898   0.691   0.962   1.068
 1188SOL    HW2 6899   0.543   0.897   1.091
 1189SOL     OW 6900   1.254   0.622   0.304
 1189SOL    HW1 6901   1.286   0.542   0.355
 1189SOL    HW2 6902   1.164   0.650   0.339
 1190SOL     OW 6903   0.310   0.193   1.183
 1190SOL    HW1 6904   0.259   0.226   1.262
 1190SOL    HW2 6905   0.343   0.100   1.201
 1191SOL     OW 6906   0.011   1.390   1.496
 1191SOL    HW1 6907   0.061   1.305   1.481
 1191SOL    HW2 6908   0.057   1.465   1.449
 1192SOL     OW 6909   0.782   0.657   1.032
 1192SOL    HW1 6910   0.872   0.688   1.000
 1192SOL    HW2 6911   0.726   0.737   1.055
 1193SOL     OW 6912   1.024   0.762   0.947
 1193SOL    HW1 6913   1.097   0.770   1.015
 1193SOL    HW2 6914   1.063   0.739   0.858
 1194SOL     OW 6915   0.923   1.529   1.606
 1194SOL    HW1 6916   0.948   1.587   1.529
 1194SOL    HW2 6917   1.006   1.488   1.646
 1195SOL     OW 6918   1.744   1.577   1.580
 1195SOL    HW1 6919   1.721   1.632   1.500
 1195SOL    HW2 6920   1.793   1.634   1.647
 1196SOL     OW 6921   0.313   0.896   1.859
 1196SOL    HW1 6922   0.373   0.937   1.928
 1196SOL    HW2 6923   0.369   0.851   1.790
 1197SOL     OW 6924   1.321   0.780   6.414
 1197SOL    HW1 6925   1.240   0.816   6.460
 1197SOL    HW2 6926   1.331   0.823   6.324
 1198SOL     OW 6927   0.333   0.565   0.973
 1198SOL    HW1 6928   0.285   0.478   0.970
 1198SOL    HW2 6929   0.430   0.550   0.956
 1199SOL     OW 6930   1.148   0.405   1.688
 1199SOL    HW1 6931   1.078   0.448   1.745
 1199SOL    HW2 6932   1.232   0.460   1.691
 1200SOL     OW 6933   1.326   0.225   1.579
 1200SOL    HW1 6934   1.259   0.288   1.619
 1200SOL    HW2 6935   1.345   0.253   1.485
 1201SOL     OW 6936   6.402   1.279   0.270
 1201SOL    HW1 6937   6.407   1.349   0.341
 1201SOL    HW2 6938   6.439   1.193   0.304
 1202SOL     OW 6939   0.176   1.848   0.870
 1202SOL    HW1 6940   0.132   1.759   0.866
 1202SOL    HW2 6941   0.274   1.837   0.853
 1203SOL     OW 6942   0.551   1.691   1.033
 1203SOL    HW1 6943   0.625   1.758   1.043
 1203SOL    HW2 6944   0.589   1.602   1.008
 1204SOL     OW 6945   0.117   0.577   1.149
 1204SOL    HW1 6946   0.207   0.594   1.109
 1204SOL    HW2 6947   0.126   0.557   1.246
 1205SOL     OW 6948   0.286   0.516   1.737
 1205SOL    HW1 6949   0.329   0.457   1.669
 1205SOL    HW2 6950   0.253   0.600   1.693
 1206SOL     OW 6951   0.789   0.515   0.343
 1206SOL    HW1 6952   0.805   0.436   0.285
 1206SOL    HW2 6953   0.704   0.561   0.316
 1207SOL     OW 6954   1.556   0.635   1.223
 1207SOL    HW1 6955   1.511   0.580   1.294
 1207SOL    HW2 6956   1.646   0.595   1.204
 1208SOL     OW 6957   0.279   1.546   1.799
 1208SOL    HW1 6958   0.209   1.582   1.860
 1208SOL    HW2 6959   0.260   1.449   1.780
 1209SOL     OW 6960   0.758   0.496   1.249
 1209SOL    HW1 6961   0.669   0.452   1.252
 1209SOL    HW2 6962   0.763   0.557   1.170
 1210SOL     OW 6963   1.013   1.667   1.382
 1210SOL    HW1 6964   0.974   1.618   1.304
 1210SOL    HW2 6965   1.001   1.766   1.369
 1211SOL     OW 6966   0.445   0.465   0.144
 1211SOL    HW1 6967   0.483   0.546   0.189
 1211SOL    HW2 6968   0.348   0.456   0.167
 1212SOL     OW 6969   0.144   1.140   1.468
 1212SOL    HW1 6970   0.128   1.110   1.562
 1212SOL    HW2 6971   0.135   1.062   1.406
 1213SOL     OW 6972   1.728   1.698   1.102
 1213SOL    HW1 6973   1.827   1.700   1.090
 1213SOL    HW2 6974   1.696   1.604   1.097
 1214SOL     OW 6975   1.298   1.728   0.987
 1214SOL    HW1 6976   1.392   1.758   0.969
 1214SOL    HW2 6977   1.300   1.645   1.044
 1215SOL     OW 6978   0.776   1.668   1.792
 1215SOL    HW1 6979   0.702   1.726   1.757
 1215SOL    HW2 6980   0.812   1.612   1.718
 1216SOL     OW 6981   1.604   0.004   0.506
 1216SOL    HW1 6982   1.675   6.453   0.457
 1216SOL    HW2 6983   1.596   6.470   0.599
 1217SOL     OW 6984   1.426   1.541   0.499
 1217SOL    HW1 6985   1.482   1.547   0.417
 1217SOL    HW2 6986   1.374   1.626   0.511
 1218SOL     OW 6987   0.155   1.852   1.830
 1218SOL    HW1 6988   0.123   1.768   1.873
 1218SOL    HW2 6989   0.209   1.904   1.895
 1219SOL     OW 6990   1.282   0.925   0.573
 1219SOL    HW1 6991   1.355   0.877   0.621
 1219SOL    HW2 6992   1.318   0.964   0.488
 1220SOL     OW 6993   0.853   1.330   1.429
 1220SOL    HW1 6994   0.871   1.385   1.510
 1220SOL    HW2 6995   0.772   1.366   1.382
 1221SOL     OW 6996   0.723   1.589   0.254
 1221SOL    HW1 6997   0.672   1.665   0.212
 1221SOL    HW2 6998   0.761   1.531   0.182
 1222SOL     OW 6999   1.652   1.734   1.370
 1222SOL    HW1 7000   1.683   1.740   1.275
 1222SOL    HW2 7001   1.620   1.824   1.400
 1223SOL     OW 7002   0.227   0.376   0.707
 1223SOL    HW1 7003   0.149   0.431   0.678
 1223SOL    HW2 7004   0.214   0.349   0.803
 1224SOL     OW 7005   1.199   1.661   6.489
 1224SOL    HW1 7006   1.169   1.571   0.022
 1224SOL    HW2 7007   1.160   1.678   6.398
 1225SOL     OW 7008   0.859   1.054   1.428
 1225SOL    HW1 7009   0.843   1.025   1.334
 1225SOL    HW2 7010   0.849   1.154   1.434
 1226SOL     OW 7011   0.967   0.862   0.259
 1226SOL    HW1 7012   1.051   0.911   0.234
 1226SOL    HW2 7013   0.990   0.789   0.322
 1227SOL     OW 7014   1.476   1.663   0.040
 1227SOL    HW1 7015   1.382   1.651   0.009
 1227SOL    HW2 7016   1.539   1.624   6.473
 1228SOL     OW 7017   0.369   1.285   1.426
 1228SOL    HW1 7018   0.363   1.376   1.466
 1228SOL    HW2 7019   0.287   1.232   1.451
 1229SOL     OW 7020   1.565   1.308   1.314
 1229SOL    HW1 7021   1.642   1.297   1.377
 1229SOL    HW2 7022   1.521   1.396   1.329
 1230SOL     OW 7023   1.117   1.115   0.698
 1230SOL    HW1 7024   1.024   1.083   0.711
 1230SOL    HW2 7025   1.165   1.054   0.634
 1231SOL     OW 7026   0.113   1.042   1.718
 1231SOL    HW1 7027   0.023   1.010   1.749
 1231SOL    HW2 7028   0.185   0.989   1.763
 1232SOL     OW 7029   0.611   0.224   1.507
 1232SOL    HW1 7030   0.664   0.275   1.575
 1232SOL    HW2 7031   0.576   0.140   1.549
 1233SOL     OW 7032   1.084   1.415   0.051
 1233SOL    HW1 7033   0.995   1.453   0.028
 1233SOL    HW2 7034   1.077   1.359   0.133
 1234SOL     OW 7035   0.592   0.893   1.436
 1234SOL    HW1 7036   0.609   0.988   1.463
 1234SOL    HW2 7037   0.679   0.845   1.426
 1235SOL     OW 7038   1.561   1.802   0.910
 1235SOL    HW1 7039   1.604   1.774   0.824
 1235SOL    HW2 7040   1.619   1.777   0.987
 1236SOL     OW 7041   0.690   0.610   1.697
 1236SOL    HW1 7042   0.752   0.657   1.760
 1236SOL    HW2 7043   0.701   0.512   1.705
 1237SOL     OW 7044   1.417   1.225   1.709
 1237SOL    HW1 7045   1.395   1.233   1.806
 1237SOL    HW2 7046   1.458   1.310   1.677
 1238SOL     OW 7047   0.377   1.729   1.627
 1238SOL    HW1 7048   0.294   1.774   1.593
 1238SOL    HW2 7049   0.353   1.658   1.693
 1239SOL     OW 7050   1.658   0.892   1.216
 1239SOL    HW1 7051   1.619   0.800   1.222
 1239SOL    HW2 7052   1.696   0.907   1.125
 1240SOL     OW 7053   1.288   0.402   0.464
 1240SOL    HW1 7054   1.350   0.324   0.454
 1240SOL    HW2 7055   1.273   0.420   0.561
 1241SOL     OW 7056   1.799   0.303   1.641
 1241SOL    HW1 7057   1.843   0.294   1.552
 1241SOL    HW2 7058   1.767   0.213   1.672
 1242SOL     OW 7059   1.743   1.003   1.448
 1242SOL    HW1 7060   1.739   1.102   1.454
 1242SOL    HW2 7061   1.710   0.973   1.358
 1243SOL     OW 7062   0.838   1.519   0.002
 1243SOL    HW1 7063   0.850   1.618   0.009
 1243SOL    HW2 7064   0.795   1.497   6.415
 1244SOL     OW 7065   0.757   1.860   1.014
 1244SOL    HW1 7066   0.727   1.948   0.975
 1244SOL    HW2 7067   0.812   1.811   0.946
 1245SOL     OW 7068   0.885   0.975   0.812
 1245SOL    HW1 7069   0.933   0.899   0.854
 1245SOL    HW2 7070   0.843   1.032   0.883
 1246SOL     OW 7071   1.779   1.467   0.854
 1246SOL    HW1 7072   1.703   1.475   0.789
 1246SOL    HW2 7073   1.743   1.462   0.947
 1247SOL     OW 7074   0.231   1.279   1.789
 1247SOL    HW1 7075   0.182   1.199   1.755
 1247SOL    HW2 7076   0.240   1.273   1.888
 1248SOL     OW 7077   0.375   0.373   0.468
 1248SOL    HW1 7078   0.451   0.309   0.464
 1248SOL    HW2 7079   0.321   0.356   0.550
 1249SOL     OW 7080   1.628   1.449   1.081
 1249SOL    HW1 7081   1.552   1.423   1.022
 1249SOL    HW2 7082   1.627   1.394   1.164
 1250SOL     OW 7083   0.390   0.562   1.312
 1250SOL    HW1 7084   0.370   0.528   1.404
 1250SOL    HW2 7085   0.446   0.495   1.263
 1251SOL     OW 7086   0.771   1.504   0.691
 1251SOL    HW1 7087   0.774   1.569   0.615
 1251SOL    HW2 7088   0.743   1.414   0.658
 1252SOL     OW 7089   1.087   6.374   1.203
 1252SOL    HW1 7090   1.007   6.346   1.150
 1252SOL    HW2 7091   1.166   6.380   1.142
 1253SOL     OW 7092   0.666   1.492   1.306
 1253SOL    HW1 7093   0.638   1.561   1.373
 1253SOL    HW2 7094   0.744   1.526   1.253
 1254SOL     OW 7095   1.189   0.082   0.198
 1254SOL    HW1 7096   1.259   0.027   0.153
 1254SOL    HW2 7097   1.167   0.161   0.141
 1255SOL     OW 7098   1.207   0.459   0.716
 1255SOL    HW1 7099   1.177   0.554   0.727
 1255SOL    HW2 7100   1.168   0.402   0.788
 1256SOL     OW 7101   0.027   1.033   0.347
 1256SOL    HW1 7102   0.109   1.021   0.291
 1256SOL    HW2 7103   0.046   1.006   0.441
 1257SOL     OW 7104   0.261   0.278   2.820
 1257SOL    HW1 7105   0.214   0.258   2.906
 1257SOL    HW2 7106   0.357   0.251   2.829
 1258SOL     OW 7107   0.059   0.346   2.439
 1258SOL    HW1 7108   0.037   0.428   2.493
 1258SOL    HW2 7109   6.500   0.342   2.359
 1259SOL     OW 7110   0.573   1.347   3.147
 1259SOL    HW1 7111   0.516   1.309   3.074
 1259SOL    HW2 7112   0.571   1.447   3.142
 1260SOL     OW 7113   1.513   1.653   2.625
 1260SOL    HW1 7114   1.484   1.590   2.697
 1260SOL    HW2 7115   1.471   1.627   2.539
 1261SOL     OW 7116   0.617   1.123   2.869
 1261SOL    HW1 7117   0.531   1.174   2.874
 1261SOL    HW2 7118   0.692   1.184   2.895
 1262SOL     OW 7119   0.644   0.886   2.483
 1262SOL    HW1 7120   0.705   0.906   2.560
 1262SOL    HW2 7121   0.577   0.960   2.474
 1263SOL     OW 7122   0.393   1.290   2.933
 1263SOL    HW1 7123   0.303   1.251   2.915
 1263SOL    HW2 7124   0.420   1.348   2.856
 1264SOL     OW 7125   1.497   1.462   3.180
 1264SOL    HW1 7126   1.575   1.524   3.173
 1264SOL    HW2 7127   1.440   1.488   3.258
 1265SOL     OW 7128   0.322   0.394   3.458
 1265SOL    HW1 7129   0.409   0.388   3.409
 1265SOL    HW2 7130   0.249   0.357   3.401
 1266SOL     OW 7131   0.267   1.033   2.670
 1266SOL    HW1 7132   0.279   0.947   2.720
 1266SOL    HW2 7133   0.242   1.106   2.734
 1267SOL     OW 7134   0.601   1.784   3.337
 1267SOL    HW1 7135   0.505   1.774   3.361
 1267SOL    HW2 7136   0.629   1.880   3.346
 1268SOL     OW 7137   0.500   1.003   2.042
 1268SOL    HW1 7138   0.530   1.084   1.993
 1268SOL    HW2 7139   0.575   0.968   2.098
 1269SOL     OW 7140   1.587   0.101   3.551
 1269SOL    HW1 7141   1.660   0.158   3.514
 1269SOL    HW2 7142   1.541   0.148   3.626
 1270SOL     OW 7143   2.045   1.750   2.167
 1270SOL    HW1 7144   2.100   1.714   2.242
 1270SOL    HW2 7145   2.012   1.841   2.190
 1271SOL     OW 7146   0.079   1.628   1.972
 1271SOL    HW1 7147   0.042   1.537   1.988
 1271SOL    HW2 7148   0.045   1.691   2.043
 1272SOL     OW 7149   1.568   0.884   2.469
 1272SOL    HW1 7150   1.635   0.878   2.543
 1272SOL    HW2 7151   1.593   0.960   2.408
 1273SOL     OW 7152   1.683   1.105   2.351
 1273SOL    HW1 7153   1.781   1.086   2.351
 1273SOL    HW2 7154   1.656   1.144   2.439
 1274SOL     OW 7155   0.161   0.781   3.397
 1274SOL    HW1 7156   0.261   0.774   3.393
 1274SOL    HW2 7157   0.129   0.845   3.327
 1275SOL     OW 7158   0.590   1.315   2.511
 1275SOL    HW1 7159   0.548   1.228   2.488
 1275SOL    HW2 7160   0.639   1.351   2.431
 1276SOL     OW 7161   0.337   0.915   3.147
 1276SOL    HW1 7162   0.338   0.815   3.158
 1276SOL    HW2 7163   0.245   0.949   3.167
 1277SOL     OW 7164   1.523   1.144   2.143
 1277SOL    HW1 7165   1.475   1.057   2.133
 1277SOL    HW2 7166   1.583   1.140   2.223
 1278SOL     OW 7167   0.276   0.221   3.665
 1278SOL    HW1 7168   0.277   0.261   3.756
 1278SOL    HW2 7169   0.302   0.290   3.598
 1279SOL     OW 7170   1.459   1.475   2.834
 1279SOL    HW1 7171   1.380   1.490   2.893
 1279SOL    HW2 7172   1.469   1.377   2.814
 1280SOL     OW 7173   1.764   1.733   2.550
 1280SOL    HW1 7174   1.801   1.643   2.532
 1280SOL    HW2 7175   1.668   1.726   2.576
 1281SOL     OW 7176   0.651   0.665   2.068
 1281SOL    HW1 7177   0.695   0.684   1.980
 1281SOL    HW2 7178   0.652   0.748   2.124
 1282SOL     OW 7179   0.768   0.614   3.342
 1282SOL    HW1 7180   0.724   0.579   3.425
 1282SOL    HW2 7181   0.710   0.597   3.263
 1283SOL     OW 7182   1.391   0.446   3.640
 1283SOL    HW1 7183   1.342   0.533   3.646
 1283SOL    HW2 7184   1.487   0.465   3.618
 1284SOL     OW 7185   0.977   0.929   3.462
 1284SOL    HW1 7186   0.997   0.859   3.393
 1284SOL    HW2 7187   0.905   0.990   3.427
 1285SOL     OW 7188   1.114   0.682   2.230
 1285SOL    HW1 7189   1.177   0.650   2.301
 1285SOL    HW2 7190   1.025   0.639   2.243
 1286SOL     OW 7191   6.494   0.956   2.625
 1286SOL    HW1 7192   0.090   0.978   2.609
 1286SOL    HW2 7193   6.475   0.958   2.723
 1287SOL     OW 7194   0.076   1.755   3.348
 1287SOL    HW1 7195   0.019   1.711   3.416
 1287SOL    HW2 7196   0.054   1.852   3.343
 1288SOL     OW 7197   0.823   0.319   1.989
 1288SOL    HW1 7198   0.884   0.388   1.950
 1288SOL    HW2 7199   0.846   0.304   2.085
 1289SOL     OW 7200   1.650   0.483   3.591
 1289SOL    HW1 7201   1.648   0.578   3.561
 1289SOL    HW2 7202   1.696   0.427   3.521
 1290SOL     OW 7203   1.301   1.203   2.332
 1290SOL    HW1 7204   1.383   1.200   2.275
 1290SOL    HW2 7205   1.257   1.292   2.321
 1291SOL     OW 7206   0.974   1.546   2.417
 1291SOL    HW1 7207   0.899   1.511   2.362
 1291SOL    HW2 7208   0.978   1.496   2.504
 1292SOL     OW 7209   1.341   1.565   3.372
 1292SOL    HW1 7210   1.290   1.537   3.454
 1292SOL    HW2 7211   1.344   1.664   3.367
 1293SOL     OW 7212   1.152   1.754   2.082
 1293SOL    HW1 7213   1.093   1.760   2.162
 1293SOL    HW2 7214   1.111   1.694   2.014
 1294SOL     OW 7215   0.097   0.293   3.336
 1294SOL    HW1 7216   0.025   0.362   3.326
 1294SOL    HW2 7217   0.071   0.228   3.408
 1295SOL     OW 7218   1.336   0.077   2.277
 1295SOL    HW1 7219   1.315   0.021   2.196
 1295SOL    HW2 7220   1.429   0.059   2.307
 1296SOL     OW 7221   0.844   1.732   2.809
 1296SOL    HW1 7222   0.934   1.688   2.805
 1296SOL    HW2 7223   0.801   1.727   2.719
 1297SOL     OW 7224   0.661   0.101   1.930
 1297SOL    HW1 7225   0.731   0.167   1.958
 1297SOL    HW2 7226   0.623   0.129   1.842
 1298SOL     OW 7227   0.773   0.244   3.627
 1298SOL    HW1 7228   0.856   0.190   3.638
 1298SOL    HW2 7229   0.706   0.218   3.696
 1299SOL     OW 7230   1.279   0.609   3.371
 1299SOL    HW1 7231   1.282   0.509   3.368
 1299SOL    HW2 7232   1.285   0.640   3.466
 1300SOL     OW 7233   0.921   0.573   2.804
 1300SOL    HW1 7234   0.906   0.554   2.707
 1300SOL    HW2 7235   0.954   0.490   2.849
 1301SOL     OW 7236   0.546   0.020   2.291
 1301SOL    HW1 7237   0.483   0.005   2.367
 1301SOL    HW2 7238   0.519   0.103   2.241
 1302SOL     OW 7239   1.363   1.294   1.974
 1302SOL    HW1 7240   1.408   1.230   2.036
 1302SOL    HW2 7241   1.267   1.303   2.000
 1303SOL     OW 7242   0.911   0.300   2.252
 1303SOL    HW1 7243   0.872   0.211   2.274
 1303SOL    HW2 7244   1.011   0.293   2.250
 1304SOL     OW 7245   1.026   0.718   3.287
 1304SOL    HW1 7246   0.941   0.669   3.306
 1304SOL    HW2 7247   1.104   0.660   3.313
 1305SOL     OW 7248   0.443   1.086   2.462
 1305SOL    HW1 7249   0.384   1.067   2.541
 1305SOL    HW2 7250   0.414   1.029   2.385
 1306SOL     OW 7251   1.446   1.873   2.396
 1306SOL    HW1 7252   1.487   1.964   2.398
 1306SOL    HW2 7253   1.368   1.870   2.459
 1307SOL     OW 7254   0.979   0.516   1.877
 1307SOL    HW1 7255   0.941   0.609   1.873
 1307SOL    HW2 7256   1.060   0.515   1.935
 1308SOL     OW 7257   0.460   0.306   3.095
 1308SOL    HW1 7258   0.498   0.272   3.009
 1308SOL    HW2 7259   0.367   0.271   3.107
 1309SOL     OW 7260   0.876   0.482   2.526
 1309SOL    HW1 7261   0.791   0.535   2.526
 1309SOL    HW2 7262   0.895   0.449   2.433
 1310SOL     OW 7263   1.921   0.767   2.252
 1310SOL    HW1 7264   1.990   0.715   2.303
 1310SOL    HW2 7265   1.898   0.718   2.168
 1311SOL     OW 7266   0.455   1.409   1.971
 1311SOL    HW1 7267   0.381   1.368   2.025
 1311SOL    HW2 7268   0.418   1.483   1.915
 1312SOL     OW 7269   0.506   0.235   2.142
 1312SOL    HW1 7270   0.546   0.211   2.054
 1312SOL    HW2 7271   0.485   0.333   2.144
 1313SOL     OW 7272   1.720   1.312   3.488
 1313SOL    HW1 7273   1.788   1.286   3.420
 1313SOL    HW2 7274   1.701   1.410   3.482
 1314SOL     OW 7275   1.677   1.578   3.464
 1314SOL    HW1 7276   1.661   1.632   3.382
 1314SOL    HW2 7277   1.733   1.631   3.528
 1315SOL     OW 7278   0.751   0.079   3.186
 1315SOL    HW1 7279   0.831   0.081   3.125
 1315SOL    HW2 7280   0.759   0.152   3.254
 1316SOL     OW 7281   0.695   0.895   2.206
 1316SOL    HW1 7282   0.686   0.894   2.305
 1316SOL    HW2 7283   0.792   0.903   2.182
 1317SOL     OW 7284   0.064   1.607   3.121
 1317SOL    HW1 7285   0.059   1.669   3.199
 1317SOL    HW2 7286   0.154   1.564   3.117
 1318SOL     OW 7287   0.600   0.442   2.736
 1318SOL    HW1 7288   0.616   0.483   2.646
 1318SOL    HW2 7289   0.625   0.507   2.808
 1319SOL     OW 7290   1.195   1.453   2.288
 1319SOL    HW1 7291   1.274   1.510   2.310
 1319SOL    HW2 7292   1.114   1.488   2.336
 1320SOL     OW 7293   1.254   1.455   3.032
 1320SOL    HW1 7294   1.330   1.457   3.097
 1320SOL    HW2 7295   1.190   1.384   3.058
 1321SOL     OW 7296   1.659   0.673   2.315
 1321SOL    HW1 7297   1.612   0.744   2.368
 1321SOL    HW2 7298   1.752   0.703   2.295
 1322SOL     OW 7299   0.306   1.497   3.109
 1322SOL    HW1 7300   0.332   1.417   3.055
 1322SOL    HW2 7301   0.388   1.552   3.127
 1323SOL     OW 7302   0.436   0.709   3.438
 1323SOL    HW1 7303   0.427   0.688   3.340
 1323SOL    HW2 7304   0.490   0.637   3.482
 1324SOL     OW 7305   1.621   0.738   3.508
 1324SOL    HW1 7306   1.536   0.784   3.482
 1324SOL    HW2 7307   1.699   0.788   3.471
 1325SOL     OW 7308   0.989   0.073   3.648
 1325SOL    HW1 7309   1.068   0.126   3.618
 1325SOL    HW2 7310   1.012   6.475   3.649
 1326SOL     OW 7311   0.436   6.497   3.672
 1326SOL    HW1 7312   0.438   6.447   3.586
 1326SOL    HW2 7313   0.372   0.074   3.665
 1327SOL     OW 7314   0.517   0.881   2.944
 1327SOL    HW1 7315   0.563   0.964   2.912
 1327SOL    HW2 7316   0.464   0.901   3.026
 1328SOL     OW 7317   1.192   0.499   2.042
 1328SOL    HW1 7318   1.186   0.420   2.103
 1328SOL    HW2 7319   1.178   0.583   2.095
 1329SOL     OW 7320   0.205   0.204   3.091
 1329SOL    HW1 7321   0.157   0.231   3.175
 1329SOL    HW2 7322   0.198   0.105   3.079
 1330SOL     OW 7323   0.021   1.333   3.067
 1330SOL    HW1 7324   6.481   1.284   3.144
 1330SOL    HW2 7325   0.025   1.431   3.088
 1331SOL     OW 7326   0.666   0.643   2.909
 1331SOL    HW1 7327   0.760   0.650   2.878
 1331SOL    HW2 7328   0.624   0.734   2.911
 1332SOL     OW 7329   0.375   6.483   2.499
 1332SOL    HW1 7330   0.345   0.077   2.515
 1332SOL    HW2 7331   0.298   6.428   2.467
 1333SOL     OW 7332   1.113   0.766   2.859
 1333SOL    HW1 7333   1.106   0.805   2.951
 1333SOL    HW2 7334   1.038   0.703   2.843
 1334SOL     OW 7335   0.535   0.842   3.679
 1334SOL    HW1 7336   0.485   0.913   3.729
 1334SOL    HW2 7337   0.485   0.818   3.596
 1335SOL     OW 7338   1.445   0.393   1.999
 1335SOL    HW1 7339   1.354   0.434   1.995
 1335SOL    HW2 7340   1.486   0.411   2.088
 1336SOL     OW 7341   1.335   0.850   1.875
 1336SOL    HW1 7342   1.397   0.773   1.884
 1336SOL    HW2 7343   1.355   0.899   1.790
 1337SOL     OW 7344   0.279   0.805   2.823
 1337SOL    HW1 7345   0.365   0.829   2.867
 1337SOL    HW2 7346   0.282   0.710   2.792
 1338SOL     OW 7347   0.323   0.542   2.762
 1338SOL    HW1 7348   0.276   0.456   2.782
 1338SOL    HW2 7349   0.417   0.524   2.736
 1339SOL     OW 7350   1.182   0.269   3.585
 1339SOL    HW1 7351   1.114   0.316   3.642
 1339SOL    HW2 7352   1.271   0.313   3.596
 1340SOL     OW 7353   1.272   0.341   3.327
 1340SOL    HW1 7354   1.236   0.291   3.405
 1340SOL    HW2 7355   1.202   0.348   3.256
 1341SOL     OW 7356   6.477   1.388   2.053
 1341SOL    HW1 7357   6.392   1.359   2.010
 1341SOL    HW2 7358   6.473   1.369   2.151
 1342SOL     OW 7359   0.463   1.433   2.720
 1342SOL    HW1 7360   0.443   1.529   2.699
 1342SOL    HW2 7361   0.514   1.392   2.644
 1343SOL     OW 7362   0.179   0.591   3.594
 1343SOL    HW1 7363   0.238   0.518   3.557
 1343SOL    HW2 7364   0.174   0.666   3.529
 1344SOL     OW 7365   0.867   0.566   2.223
 1344SOL    HW1 7366   0.871   0.466   2.227
 1344SOL    HW2 7367   0.785   0.595   2.174
 1345SOL     OW 7368   0.340   1.589   3.645
 1345SOL    HW1 7369   0.290   1.655   3.700
 1345SOL    HW2 7370   0.281   1.511   3.624
 1346SOL     OW 7371   0.576   0.544   3.145
 1346SOL    HW1 7372   0.550   0.448   3.135
 1346SOL    HW2 7373   0.617   0.577   3.060
 1347SOL     OW 7374   0.442   0.501   2.148
 1347SOL    HW1 7375   0.511   0.562   2.110
 1347SOL    HW2 7376   0.366   0.491   2.083
 1348SOL     OW 7377   1.393   0.913   2.145
 1348SOL    HW1 7378   1.337   0.899   2.227
 1348SOL    HW2 7379   1.343   0.879   2.065
 1349SOL     OW 7380   1.684   1.777   2.978
 1349SOL    HW1 7381   1.735   1.850   2.932
 1349SOL    HW2 7382   1.714   1.688   2.942
 1350SOL     OW 7383   1.196   1.732   3.038
 1350SOL    HW1 7384   1.278   1.773   2.999
 1350SOL    HW2 7385   1.202   1.633   3.031
 1351SOL     OW 7386   0.137   1.190   2.873
 1351SOL    HW1 7387   0.098   1.252   2.941
 1351SOL    HW2 7388   0.103   1.097   2.889
 1352SOL     OW 7389   0.729   1.613   3.510
 1352SOL    HW1 7390   0.680   1.628   3.596
 1352SOL    HW2 7391   0.692   1.672   3.439
 1353SOL     OW 7392   1.424   1.601   2.349
 1353SOL    HW1 7393   1.454   1.567   2.260
 1353SOL    HW2 7394   1.436   1.700   2.353
 1354SOL     OW 7395   0.213   1.762   3.809
 1354SOL    HW1 7396   0.180   1.681   3.858
 1354SOL    HW2 7397   0.248   1.828   3.875
 1355SOL     OW 7398   1.299   0.940   2.406
 1355SOL    HW1 7399   1.386   0.916   2.448
 1355SOL    HW2 7400   1.297   1.038   2.386
 1356SOL     OW 7401   0.831   1.308   3.207
 1356SOL    HW1 7402   0.858   1.355   3.291
 1356SOL    HW2 7403   0.733   1.320   3.192
 1357SOL     OW 7404   0.780   1.710   2.067
 1357SOL    HW1 7405   0.776   1.684   1.970
 1357SOL    HW2 7406   0.753   1.632   2.123
 1358SOL     OW 7407   1.638   1.735   3.245
 1358SOL    HW1 7408   1.653   1.748   3.147
 1358SOL    HW2 7409   1.656   1.821   3.294
 1359SOL     OW 7410   1.896   0.109   2.875
 1359SOL    HW1 7411   1.900   0.014   2.907
 1359SOL    HW2 7412   1.803   0.130   2.846
 1360SOL     OW 7413   0.289   0.249   2.542
 1360SOL    HW1 7414   0.204   0.275   2.496
 1360SOL    HW2 7415   0.277   0.257   2.641
 1361SOL     OW 7416   1.038   1.606   1.886
 1361SOL    HW1 7417   1.053   1.518   1.930
 1361SOL    HW2 7418   0.941   1.617   1.864
 1362SOL     OW 7419   0.785   1.038   3.287
 1362SOL    HW1 7420   0.713   0.999   3.230
 1362SOL    HW2 7421   0.795   1.135   3.267
 1363SOL     OW 7422   0.955   0.875   2.108
 1363SOL    HW1 7423   1.014   0.943   2.064
 1363SOL    HW2 7424   1.012   0.813   2.163
 1364SOL     OW 7425   1.093   1.172   2.563
 1364SOL    HW1 7426   1.132   1.153   2.473
 1364SOL    HW2 7427   1.123   1.101   2.627
 1365SOL     OW 7428   1.033   0.321   2.899
 1365SOL    HW1 7429   1.056   0.317   2.801
 1365SOL    HW2 7430   1.010   0.229   2.931
 1366SOL     OW 7431   1.668   0.399   3.178
 1366SOL    HW1 7432   1.598   0.468   3.196
 1366SOL    HW2 7433   1.626   0.308   3.179
 1367SOL     OW 7434   0.229   1.287   2.065
 1367SOL    HW1 7435   0.139   1.330   2.056
 1367SOL    HW2 7436   0.240   1.254   2.159
 1368SOL     OW 7437   1.103   1.379   2.035
 1368SOL    HW1 7438   1.016   1.331   2.037
 1368SOL    HW2 7439   1.129   1.405   2.128
 1369SOL     OW 7440   1.422   1.843   2.916
 1369SOL    HW1 7441   1.421   1.836   2.817
 1369SOL    HW2 7442   1.512   1.819   2.951
 1370SOL     OW 7443   0.618   0.511   3.558
 1370SOL    HW1 7444   0.644   0.564   3.639
 1370SOL    HW2 7445   0.645   0.416   3.570
 1371SOL     OW 7446   1.505   1.164   3.571
 1371SOL    HW1 7447   1.466   1.187   3.660
 1371SOL    HW2 7448   1.583   1.224   3.553
 1372SOL     OW 7449   0.347   1.737   3.409
 1372SOL    HW1 7450   0.254   1.746   3.374
 1372SOL    HW2 7451   0.347   1.677   3.489
 1373SOL     OW 7452   1.190   0.316   2.247
 1373SOL    HW1 7453   1.244   0.232   2.251
 1373SOL    HW2 7454   1.231   0.386   2.306
 1374SOL     OW 7455   0.628   0.605   2.513
 1374SOL    HW1 7456   0.634   0.704   2.499
 1374SOL    HW2 7457   0.544   0.571   2.470
 1375SOL     OW 7458   1.791   0.269   3.469
 1375SOL    HW1 7459   1.845   0.313   3.397
 1375SOL    HW2 7460   1.841   0.274   3.556
 1376SOL     OW 7461   1.808   0.912   3.398
 1376SOL    HW1 7462   1.718   0.956   3.397
 1376SOL    HW2 7463   1.850   0.920   3.307
 1377SOL     OW 7464   0.841   1.280   2.013
 1377SOL    HW1 7465   0.817   1.331   2.096
 1377SOL    HW2 7466   0.758   1.247   1.969
 1378SOL     OW 7467   0.574   1.764   2.881
 1378SOL    HW1 7468   0.520   1.726   2.806
 1378SOL    HW2 7469   0.671   1.753   2.860
 1379SOL     OW 7470   0.784   0.969   2.702
 1379SOL    HW1 7471   0.878   1.002   2.707
 1379SOL    HW2 7472   0.725   1.026   2.759
 1380SOL     OW 7473   1.134   1.018   1.963
 1380SOL    HW1 7474   1.103   1.082   1.892
 1380SOL    HW2 7475   1.203   0.957   1.924
 1381SOL     OW 7476   0.152   1.393   3.592
 1381SOL    HW1 7477   0.208   1.341   3.527
 1381SOL    HW2 7478   0.130   1.335   3.670
 1382SOL     OW 7479   0.391   0.487   2.417
 1382SOL    HW1 7480   0.409   0.480   2.319
 1382SOL    HW2 7481   0.368   0.397   2.453
 1383SOL     OW 7482   1.729   1.521   2.879
 1383SOL    HW1 7483   1.631   1.510   2.864
 1383SOL    HW2 7484   1.759   1.457   2.949
 1384SOL     OW 7485   0.730   1.698   2.566
 1384SOL    HW1 7486   0.751   1.624   2.502
 1384SOL    HW2 7487   0.647   1.746   2.536
 1385SOL     OW 7488   1.440   0.158   2.994
 1385SOL    HW1 7489   1.512   0.124   3.055
 1385SOL    HW2 7490   1.385   0.226   3.042
 1386SOL     OW 7491   0.976   0.068   3.019
 1386SOL    HW1 7492   0.979   0.008   2.940
 1386SOL    HW2 7493   1.035   0.032   3.092
 1387SOL     OW 7494   0.554   1.621   3.120
 1387SOL    HW1 7495   0.579   1.679   3.197
 1387SOL    HW2 7496   0.564   1.672   3.035
 1388SOL     OW 7497   1.635   0.154   2.797
 1388SOL    HW1 7498   1.559   0.155   2.861
 1388SOL    HW2 7499   1.654   0.247   2.766
 1389SOL     OW 7500   0.958   1.791   2.278
 1389SOL    HW1 7501   0.887   1.776   2.209
 1389SOL    HW2 7502   0.961   1.713   2.340
 1390SOL     OW 7503   0.257   0.663   3.854
 1390SOL    HW1 7504   0.175   0.676   3.910
 1390SOL    HW2 7505   0.230   0.638   3.761
 1391SOL     OW 7506   0.152   0.274   4.785
 1391SOL    HW1 7507   0.214   0.273   4.863
 1391SOL    HW2 7508   0.103   0.187   4.780
 1392SOL     OW 7509   0.471   1.340   4.923
 1392SOL    HW1 7510   0.411   1.362   4.847
 1392SOL    HW2 7511   0.508   1.424   4.962
 1393SOL     OW 7512   1.591   0.562   3.947
 1393SOL    HW1 7513   1.685   0.574   3.916
 1393SOL    HW2 7514   1.582   0.475   3.995
 1394SOL     OW 7515   0.670   1.196   4.794
 1394SOL    HW1 7516   0.590   1.229   4.844
 1394SOL    HW2 7517   0.702   1.267   4.731
 1395SOL     OW 7518   0.821   0.900   5.548
 1395SOL    HW1 7519   0.812   0.808   5.588
 1395SOL    HW2 7520   0.887   0.896   5.473
 1396SOL     OW 7521   0.799   1.134   4.415
 1396SOL    HW1 7522   0.829   1.044   4.446
 1396SOL    HW2 7523   0.699   1.140   4.417
 1397SOL     OW 7524   0.672   1.107   5.650
 1397SOL    HW1 7525   0.728   1.042   5.599
 1397SOL    HW2 7526   0.587   1.123   5.600
 1398SOL     OW 7527   0.326   1.396   4.694
 1398SOL    HW1 7528   0.259   1.345   4.640
 1398SOL    HW2 7529   0.365   1.470   4.639
 1399SOL     OW 7530   1.442   1.497   5.086
 1399SOL    HW1 7531   1.507   1.563   5.124
 1399SOL    HW2 7532   1.353   1.508   5.131
 1400SOL     OW 7533   0.464   0.420   5.205
 1400SOL    HW1 7534   0.539   0.355   5.216
 1400SOL    HW2 7535   0.379   0.378   5.238
 1401SOL     OW 7536   1.653   0.446   4.340
 1401SOL    HW1 7537   1.559   0.478   4.347
 1401SOL    HW2 7538   1.705   0.476   4.420
 1402SOL     OW 7539   0.191   1.748   4.255
 1402SOL    HW1 7540   0.232   1.814   4.317
 1402SOL    HW2 7541   0.251   1.734   4.176
 1403SOL     OW 7542   0.213   1.464   4.178
 1403SOL    HW1 7543   0.252   1.543   4.224
 1403SOL    HW2 7544   0.117   1.455   4.204
 1404SOL     OW 7545   0.131   1.007   4.615
 1404SOL    HW1 7546   0.201   0.943   4.647
 1404SOL    HW2 7547   0.105   1.069   4.689
 1405SOL     OW 7548   0.542   1.822   5.182
 1405SOL    HW1 7549   0.459   1.804   5.235
 1405SOL    HW2 7550   0.578   1.912   5.207
 1406SOL     OW 7551   1.603   0.098   5.241
 1406SOL    HW1 7552   1.672   0.129   5.176
 1406SOL    HW2 7553   1.582   0.171   5.305
 1407SOL     OW 7554   0.621   1.424   4.404
 1407SOL    HW1 7555   0.581   1.334   4.420
 1407SOL    HW2 7556   0.643   1.434   4.307
 1408SOL     OW 7557   0.869   0.091   4.267
 1408SOL    HW1 7558   0.927   0.171   4.251
 1408SOL    HW2 7559   0.797   0.115   4.333
 1409SOL     OW 7560   1.196   1.709   5.425
 1409SOL    HW1 7561   1.230   1.799   5.398
 1409SOL    HW2 7562   1.212   1.644   5.350
 1410SOL     OW 7563   0.360   0.282   5.593
 1410SOL    HW1 7564   0.388   0.375   5.616
 1410SOL    HW2 7565   0.342   0.230   5.676
 1411SOL     OW 7566   1.441   1.425   4.580
 1411SOL    HW1 7567   1.407   1.437   4.673
 1411SOL    HW2 7568   1.405   1.341   4.541
 1412SOL     OW 7569   0.654   0.684   4.011
 1412SOL    HW1 7570   0.696   0.673   3.921
 1412SOL    HW2 7571   0.576   0.746   4.005
 1413SOL     OW 7572   0.710   0.553   5.157
 1413SOL    HW1 7573   0.613   0.535   5.171
 1413SOL    HW2 7574   0.737   0.519   5.067
 1414SOL     OW 7575   1.057   0.330   4.896
 1414SOL    HW1 7576   0.965   0.366   4.910
 1414SOL    HW2 7577   1.051   0.239   4.855
 1415SOL     OW 7578   1.099   0.830   4.201
 1415SOL    HW1 7579   1.177   0.816   4.262
 1415SOL    HW2 7580   1.060   0.741   4.178
 1416SOL     OW 7581   6.491   0.903   4.397
 1416SOL    HW1 7582   6.436   0.823   4.419
 1416SOL    HW2 7583   0.032   0.940   4.481
 1417SOL     OW 7584   0.056   1.915   5.337
 1417SOL    HW1 7585   0.035   1.932   5.433
 1417SOL    HW2 7586   6.476   1.875   5.292
 1418SOL     OW 7587   0.877   0.300   3.949
 1418SOL    HW1 7588   0.925   0.337   3.869
 1418SOL    HW2 7589   0.850   0.206   3.930
 1419SOL     OW 7590   1.374   1.060   4.245
 1419SOL    HW1 7591   1.473   1.073   4.243
 1419SOL    HW2 7592   1.338   1.064   4.152
 1420SOL     OW 7593   0.646   0.269   4.723
 1420SOL    HW1 7594   0.623   0.259   4.820
 1420SOL    HW2 7595   0.591   0.343   4.683
 1421SOL     OW 7596   0.249   1.782   4.607
 1421SOL    HW1 7597   0.302   1.703   4.578
 1421SOL    HW2 7598   0.274   1.807   4.700
 1422SOL     OW 7599   1.198   1.548   5.202
 1422SOL    HW1 7600   1.185   1.457   5.241
 1422SOL    HW2 7601   1.111   1.582   5.167
 1423SOL     OW 7602   0.437   0.834   3.976
 1423SOL    HW1 7603   0.426   0.925   3.937
 1423SOL    HW2 7604   0.364   0.774   3.943
 1424SOL     OW 7605   1.519   0.767   4.562
 1424SOL    HW1 7606   1.528   0.700   4.636
 1424SOL    HW2 7607   1.590   0.751   4.493
 1425SOL     OW 7608   0.443   1.167   5.489
 1425SOL    HW1 7609   0.506   1.233   5.448
 1425SOL    HW2 7610   0.353   1.176   5.447
 1426SOL     OW 7611   0.217   0.305   5.248
 1426SOL    HW1 7612   0.160   0.387   5.252
 1426SOL    HW2 7613   0.187   0.240   5.318
 1427SOL     OW 7614   0.433   1.724   4.112
 1427SOL    HW1 7615   0.496   1.784   4.162
 1427SOL    HW2 7616   0.486   1.654   4.063
 1428SOL     OW 7617   1.574   0.265   5.458
 1428SOL    HW1 7618   1.628   0.189   5.497
 1428SOL    HW2 7619   1.519   0.306   5.531
 1429SOL     OW 7620   0.619   0.136   3.818
 1429SOL    HW1 7621   0.669   0.085   3.889
 1429SOL    HW2 7622   0.551   0.077   3.775
 1430SOL     OW 7623   0.839   1.477   4.926
 1430SOL    HW1 7624   0.813   1.480   4.829
 1430SOL    HW2 7625   0.853   1.382   4.954
 1431SOL     OW 7626   0.774   1.404   4.649
 1431SOL    HW1 7627   0.870   1.404   4.623
 1431SOL    HW2 7628   0.717   1.411   4.567
 1432SOL     OW 7629   0.527   0.109   4.220
 1432SOL    HW1 7630   0.483   0.145   4.302
 1432SOL    HW2 7631   0.568   0.184   4.168
 1433SOL     OW 7632   1.417   1.246   3.838
 1433SOL    HW1 7633   1.498   1.284   3.882
 1433SOL    HW2 7634   1.351   1.319   3.822
 1434SOL     OW 7635   1.018   0.315   4.181
 1434SOL    HW1 7636   0.973   0.307   4.092
 1434SOL    HW2 7637   1.100   0.258   4.182
 1435SOL     OW 7638   1.196   1.611   4.476
 1435SOL    HW1 7639   1.217   1.532   4.418
 1435SOL    HW2 7640   1.272   1.625   4.540
 1436SOL     OW 7641   0.508   1.169   4.399
 1436SOL    HW1 7642   0.490   1.081   4.443
 1436SOL    HW2 7643   0.433   1.193   4.338
 1437SOL     OW 7644   1.020   0.417   3.745
 1437SOL    HW1 7645   0.959   0.481   3.698
 1437SOL    HW2 7646   1.083   0.468   3.804
 1438SOL     OW 7647   0.108   0.566   5.261
 1438SOL    HW1 7648   0.160   0.563   5.176
 1438SOL    HW2 7649   0.013   0.591   5.242
 1439SOL     OW 7650   0.569   0.253   4.972
 1439SOL    HW1 7651   0.612   0.243   5.061
 1439SOL    HW2 7652   0.470   0.247   4.982
 1440SOL     OW 7653   0.998   0.585   4.131
 1440SOL    HW1 7654   0.902   0.597   4.105
 1440SOL    HW2 7655   1.012   0.491   4.162
 1441SOL     OW 7656   0.902   6.413   4.494
 1441SOL    HW1 7657   0.901   6.455   4.403
 1441SOL    HW2 7658   0.824   6.446   4.547
 1442SOL     OW 7659   1.351   1.168   4.518
 1442SOL    HW1 7660   1.285   1.117   4.574
 1442SOL    HW2 7661   1.348   1.135   4.424
 1443SOL     OW 7662   1.506   0.588   4.782
 1443SOL    HW1 7663   1.426   0.569   4.840
 1443SOL    HW2 7664   1.586   0.603   4.839
 1444SOL     OW 7665   2.019   0.840   4.058
 1444SOL    HW1 7666   2.006   0.786   4.141
 1444SOL    HW2 7667   1.933   0.847   4.008
 1445SOL     OW 7668   0.630   0.319   4.083
 1445SOL    HW1 7669   0.719   0.321   4.036
 1445SOL    HW2 7670   0.563   0.369   4.029
 1446SOL     OW 7671   1.619   1.655   5.470
 1446SOL    HW1 7672   1.611   1.652   5.371
 1446SOL    HW2 7673   1.707   1.615   5.498
 1447SOL     OW 7674   1.115   1.280   4.824
 1447SOL    HW1 7675   1.040   1.259   4.887
 1447SOL    HW2 7676   1.079   1.332   4.746
 1448SOL     OW 7677   1.625   1.100   4.837
 1448SOL    HW1 7678   1.631   1.174   4.905
 1448SOL    HW2 7679   1.530   1.091   4.806
 1449SOL     OW 7680   0.876   0.081   5.093
 1449SOL    HW1 7681   0.904   0.027   5.014
 1449SOL    HW2 7682   0.957   0.115   5.141
 1450SOL     OW 7683   0.417   0.766   4.954
 1450SOL    HW1 7684   0.477   0.798   5.027
 1450SOL    HW2 7685   0.350   0.702   4.991
 1451SOL     OW 7686   1.221   0.544   4.879
 1451SOL    HW1 7687   1.179   0.620   4.928
 1451SOL    HW2 7688   1.169   0.460   4.898
 1452SOL     OW 7689   0.498   0.486   4.645
 1452SOL    HW1 7690   0.452   0.489   4.556
 1452SOL    HW2 7691   0.556   0.566   4.655
 1453SOL     OW 7692   1.339   1.444   4.837
 1453SOL    HW1 7693   1.379   1.456   4.928
 1453SOL    HW2 7694   1.261   1.381   4.843
 1454SOL     OW 7695   0.573   0.138   5.481
 1454SOL    HW1 7696   0.537   0.048   5.456
 1454SOL    HW2 7697   0.498   0.197   5.510
 1455SOL     OW 7698   1.305   0.885   4.867
 1455SOL    HW1 7699   1.258   0.951   4.810
 1455SOL    HW2 7700   1.359   0.823   4.810
 1456SOL     OW 7701   1.173   0.559   3.913
 1456SOL    HW1 7702   1.257   0.614   3.906
 1456SOL    HW2 7703   1.127   0.580   3.998
 1457SOL     OW 7704   0.303   0.209   5.008
 1457SOL    HW1 7705   0.263   0.243   5.093
 1457SOL    HW2 7706   0.320   0.111   5.016
 1458SOL     OW 7707   0.123   1.327   5.033
 1458SOL    HW1 7708   0.060   1.304   5.107
 1458SOL    HW2 7709   0.172   1.411   5.055
 1459SOL     OW 7710   1.699   1.079   5.556
 1459SOL    HW1 7711   1.757   1.005   5.587
 1459SOL    HW2 7712   1.616   1.083   5.612
 1460SOL     OW 7713   1.600   0.332   4.097
 1460SOL    HW1 7714   1.652   0.247   4.092
 1460SOL    HW2 7715   1.608   0.371   4.189
 1461SOL     OW 7716   0.927   1.656   5.411
 1461SOL    HW1 7717   1.023   1.680   5.427
 1461SOL    HW2 7718   0.914   1.634   5.314
 1462SOL     OW 7719   1.920   1.572   5.213
 1462SOL    HW1 7720   1.913   1.671   5.223
 1462SOL    HW2 7721   1.942   1.531   5.302
 1463SOL     OW 7722   0.391   0.899   5.502
 1463SOL    HW1 7723   0.414   0.996   5.507
 1463SOL    HW2 7724   0.423   0.861   5.415
 1464SOL     OW 7725   1.281   0.697   3.638
 1464SOL    HW1 7726   1.337   0.709   3.721
 1464SOL    HW2 7727   1.196   0.747   3.648
 1465SOL     OW 7728   1.039   1.395   4.578
 1465SOL    HW1 7729   1.051   1.332   4.501
 1465SOL    HW2 7730   1.078   1.484   4.555
 1466SOL     OW 7731   0.321   0.813   4.695
 1466SOL    HW1 7732   0.369   0.821   4.782
 1466SOL    HW2 7733   0.276   0.724   4.689
 1467SOL     OW 7734   0.256   0.528   4.769
 1467SOL    HW1 7735   0.204   0.443   4.759
 1467SOL    HW2 7736   0.348   0.515   4.730
 1468SOL     OW 7737   6.475   1.738   4.614
 1468SOL    HW1 7738   6.457   1.705   4.521
 1468SOL    HW2 7739   0.072   1.760   4.623
 1469SOL     OW 7740   0.442   1.593   4.542
 1469SOL    HW1 7741   0.497   1.661   4.590
 1469SOL    HW2 7742   0.502   1.537   4.485
 1470SOL     OW 7743   1.305   0.968   5.356
 1470SOL    HW1 7744   1.328   1.066   5.360
 1470SOL    HW2 7745   1.342   0.929   5.272
 1471SOL     OW 7746   1.732   0.634   4.926
 1471SOL    HW1 7747   1.721   0.577   5.007
 1471SOL    HW2 7748   1.825   0.626   4.891
 1472SOL     OW 7749   0.815   0.463   4.916
 1472SOL    HW1 7750   0.746   0.429   4.852
 1472SOL    HW2 7751   0.846   0.554   4.886
 1473SOL     OW 7752   0.946   1.626   5.135
 1473SOL    HW1 7753   0.908   1.582   5.054
 1473SOL    HW2 7754   0.927   1.725   5.131
 1474SOL     OW 7755   0.445   0.497   3.959
 1474SOL    HW1 7756   0.524   0.550   3.988
 1474SOL    HW2 7757   0.374   0.558   3.924
 1475SOL     OW 7758   0.206   1.154   5.318
 1475SOL    HW1 7759   0.174   1.075   5.370
 1475SOL    HW2 7760   0.127   1.202   5.279
 1476SOL     OW 7761   1.817   1.726   4.977
 1476SOL    HW1 7762   1.906   1.693   5.010
 1476SOL    HW2 7763   1.775   1.657   4.918
 1477SOL     OW 7764   1.297   1.715   4.809
 1477SOL    HW1 7765   1.387   1.743   4.775
 1477SOL    HW2 7766   1.294   1.616   4.819
 1478SOL     OW 7767   0.061   1.200   4.802
 1478SOL    HW1 7768   0.098   1.255   4.878
 1478SOL    HW2 7769   0.004   1.258   4.744
 1479SOL     OW 7770   0.786   1.869   5.501
 1479SOL    HW1 7771   0.688   1.852   5.498
 1479SOL    HW2 7772   0.835   1.788   5.469
 1480SOL     OW 7773   1.772   0.116   4.118
 1480SOL    HW1 7774   1.824   0.117   4.032
 1480SOL    HW2 7775   1.756   0.022   4.146
 1481SOL     OW 7776   1.340   0.810   4.354
 1481SOL    HW1 7777   1.397   0.805   4.437
 1481SOL    HW2 7778   1.350   0.901   4.313
 1482SOL     OW 7779   0.602   1.556   3.975
 1482SOL    HW1 7780   0.594   1.589   3.880
 1482SOL    HW2 7781   0.616   1.457   3.975
 1483SOL     OW 7782   1.617   1.679   5.187
 1483SOL    HW1 7783   1.701   1.667   5.134
 1483SOL    HW2 7784   1.600   1.776   5.201
 1484SOL     OW 7785   0.880   1.198   4.962
 1484SOL    HW1 7786   0.808   1.189   4.894
 1484SOL    HW2 7787   0.858   1.143   5.042
 1485SOL     OW 7788   1.056   1.074   4.085
 1485SOL    HW1 7789   1.146   1.081   4.041
 1485SOL    HW2 7790   1.049   0.986   4.132
 1486SOL     OW 7791   1.461   1.624   3.646
 1486SOL    HW1 7792   1.368   1.594   3.625
 1486SOL    HW2 7793   1.523   1.595   3.573
 1487SOL     OW 7794   0.419   1.276   5.186
 1487SOL    HW1 7795   0.423   1.289   5.087
 1487SOL    HW2 7796   0.333   1.232   5.210
 1488SOL     OW 7797   1.645   1.320   4.998
 1488SOL    HW1 7798   1.730   1.322   5.051
 1488SOL    HW2 7799   1.572   1.364   5.050
 1489SOL     OW 7800   1.042   1.222   4.327
 1489SOL    HW1 7801   0.952   1.199   4.365
 1489SOL    HW2 7802   1.056   1.170   4.242
 1490SOL     OW 7803   1.018   0.108   4.675
 1490SOL    HW1 7804   1.009   0.042   4.601
 1490SOL    HW2 7805   1.006   0.201   4.638
 1491SOL     OW 7806   1.766   0.452   5.126
 1491SOL    HW1 7807   1.861   0.481   5.136
 1491SOL    HW2 7808   1.764   0.357   5.094
 1492SOL     OW 7809   0.114   0.958   5.481
 1492SOL    HW1 7810   0.048   0.951   5.556
 1492SOL    HW2 7811   0.202   0.922   5.511
 1493SOL     OW 7812   0.663   0.218   5.225
 1493SOL    HW1 7813   0.744   0.172   5.189
 1493SOL    HW2 7814   0.649   0.191   5.321
 1494SOL     OW 7815   1.253   1.472   3.857
 1494SOL    HW1 7816   1.170   1.454   3.910
 1494SOL    HW2 7817   1.322   1.513   3.917
 1495SOL     OW 7818   1.550   1.783   4.743
 1495SOL    HW1 7819   1.556   1.863   4.683
 1495SOL    HW2 7820   1.614   1.793   4.819
 1496SOL     OW 7821   1.399   1.223   5.326
 1496SOL    HW1 7822   1.404   1.255   5.421
 1496SOL    HW2 7823   1.483   1.174   5.303
 1497SOL     OW 7824   0.311   1.801   5.353
 1497SOL    HW1 7825   0.221   1.845   5.344
 1497SOL    HW2 7826   0.298   1.702   5.365
 1498SOL     OW 7827   1.785   0.875   4.797
 1498SOL    HW1 7828   1.756   0.794   4.847
 1498SOL    HW2 7829   1.721   0.950   4.816
 1499SOL     OW 7830   1.818   0.371   5.387
 1499SOL    HW1 7831   1.802   0.411   5.297
 1499SOL    HW2 7832   1.732   0.338   5.426
 1500SOL     OW 7833   0.568   1.785   4.691
 1500SOL    HW1 7834   0.563   1.880   4.659
 1500SOL    HW2 7835   0.664   1.756   4.691
 1501SOL     OW 7836   1.839   1.730   4.612
 1501SOL    HW1 7837   1.836   1.706   4.515
 1501SOL    HW2 7838   1.771   1.677   4.662
 1502SOL     OW 7839   0.137   1.399   5.528
 1502SOL    HW1 7840   0.061   1.338   5.506
 1502SOL    HW2 7841   0.160   1.389   5.625
 1503SOL     OW 7842   0.167   1.261   4.499
 1503SOL    HW1 7843   0.154   1.169   4.536
 1503SOL    HW2 7844   0.213   1.256   4.410
 1504SOL     OW 7845   1.802   0.188   5.068
 1504SOL    HW1 7846   1.774   0.111   5.010
 1504SOL    HW2 7847   1.896   0.176   5.097
 1505SOL     OW 7848   1.680   1.544   4.834
 1505SOL    HW1 7849   1.595   1.574   4.790
 1505SOL    HW2 7850   1.664   1.457   4.881
 1506SOL     OW 7851   0.269   0.545   5.041
 1506SOL    HW1 7852   0.346   0.502   5.086
 1506SOL    HW2 7853   0.275   0.530   4.942
 1507SOL     OW 7854   0.801   1.648   4.410
 1507SOL    HW1 7855   0.808   1.666   4.312
 1507SOL    HW2 7856   0.738   1.571   4.425
 1508SOL     OW 7857   0.938   6.436   4.870
 1508SOL    HW1 7858   0.918   6.350   4.824
 1508SOL    HW2 7859   0.976   0.001   4.805
 1509SOL     OW 7860   0.602   1.561   5.046
 1509SOL    HW1 7861   0.600   1.651   5.090
 1509SOL    HW2 7862   0.694   1.543   5.011
 1510SOL     OW 7863   1.550   0.333   4.671
 1510SOL    HW1 7864   1.537   0.424   4.709
 1510SOL    HW2 7865   1.599   0.340   4.584
 1511SOL     OW 7866   0.025   0.962   3.828
 1511SOL    HW1 7867   0.024   0.872   3.870
 1511SOL    HW2 7868   6.434   1.002   3.829
 1512SOL     OW 7869   0.398   0.775   5.740
 1512SOL    HW1 7870   0.303   0.770   5.771
 1512SOL    HW2 7871   0.402   0.821   5.651
 1513SOL     OW 7872   1.927   0.501   5.815
 1513SOL    HW1 7873   1.960   0.456   5.732
 1513SOL    HW2 7874   1.848   0.451   5.851
 1514SOL     OW 7875   0.241   1.747   6.072
 1514SOL    HW1 7876   0.246   1.804   6.155
 1514SOL    HW2 7877   0.334   1.724   6.043
 1515SOL     OW 7878   0.103   1.509   6.011
 1515SOL    HW1 7879   0.151   1.593   6.035
 1515SOL    HW2 7880   0.053   1.475   6.090
 1516SOL     OW 7881   1.828   1.755   5.917
 1516SOL    HW1 7882   1.888   1.718   5.988
 1516SOL    HW2 7883   1.850   1.852   5.903
 1517SOL     OW 7884   1.686   1.027   5.950
 1517SOL    HW1 7885   1.781   1.002   5.929
 1517SOL    HW2 7886   1.685   1.096   6.022
 1518SOL     OW 7887   0.905   6.400   6.040
 1518SOL    HW1 7888   0.985   6.447   6.004
 1518SOL    HW2 7889   0.863   6.454   6.113
 1519SOL     OW 7890   1.488   1.055   5.734
 1519SOL    HW1 7891   1.414   0.991   5.751
 1519SOL    HW2 7892   1.553   1.052   5.810
 1520SOL     OW 7893   0.796   0.763   5.941
 1520SOL    HW1 7894   0.795   0.858   5.911
 1520SOL    HW2 7895   0.713   0.743   5.992
 1521SOL     OW 7896   1.558   1.769   5.932
 1521SOL    HW1 7897   1.657   1.763   5.931
 1521SOL    HW2 7898   1.523   1.759   5.838
 1522SOL     OW 7899   1.159   0.700   5.978
 1522SOL    HW1 7900   1.164   0.743   6.068
 1522SOL    HW2 7901   1.077   0.644   5.972
 1523SOL     OW 7902   0.042   0.819   6.410
 1523SOL    HW1 7903   0.075   0.799   0.003
 1523SOL    HW2 7904   0.001   0.736   6.371
 1524SOL     OW 7905   0.908   0.374   5.729
 1524SOL    HW1 7906   0.883   0.436   5.655
 1524SOL    HW2 7907   0.861   0.286   5.716
 1525SOL     OW 7908   1.242   1.197   6.131
 1525SOL    HW1 7909   1.320   1.258   6.116
 1525SOL    HW2 7910   1.205   1.212   6.223
 1526SOL     OW 7911   0.405   1.726   6.475
 1526SOL    HW1 7912   0.365   1.650   0.026
 1526SOL    HW2 7913   0.489   1.756   0.021
 1527SOL     OW 7914   1.785   1.153   6.471
 1527SOL    HW1 7915   1.731   1.189   6.395
 1527SOL    HW2 7916   1.761   1.201   0.055
 1528SOL     OW 7917   0.485   0.960   5.927
 1528SOL    HW1 7918   0.578   0.994   5.915
 1528SOL    HW2 7919   0.462   0.899   5.850
 1529SOL     OW 7920   1.080   1.796   5.860
 1529SOL    HW1 7921   1.032   1.739   5.927
 1529SOL    HW2 7922   1.121   1.737   5.790
 1530SOL     OW 7923   0.503   1.738   6.010
 1530SOL    HW1 7924   0.535   1.823   6.053
 1530SOL    HW2 7925   0.581   1.688   5.972
 1531SOL     OW 7926   1.417   0.067   6.134
 1531SOL    HW1 7927   1.393   0.018   6.050
 1531SOL    HW2 7928   1.516   0.072   6.142
 1532SOL     OW 7929   0.557   0.728   6.072
 1532SOL    HW1 7930   0.504   0.643   6.064
 1532SOL    HW2 7931   0.508   0.802   6.026
 1533SOL     OW 7932   1.369   1.264   5.594
 1533SOL    HW1 7933   1.392   1.178   5.638
 1533SOL    HW2 7934   1.279   1.294   5.624
 1534SOL     OW 7935   0.295   0.094   5.794
 1534SOL    HW1 7936   0.253   0.158   5.858
 1534SOL    HW2 7937   0.358   0.034   5.844
 1535SOL     OW 7938   0.986   0.063   6.414
 1535SOL    HW1 7939   1.068   0.017   6.379
 1535SOL    HW2 7940   0.961   0.023   0.002
 1536SOL     OW 7941   1.971   0.704   6.024
 1536SOL    HW1 7942   1.922   0.708   6.111
 1536SOL    HW2 7943   1.944   0.621   5.974
 1537SOL     OW 7944   0.672   1.390   5.730
 1537SOL    HW1 7945   0.585   1.399   5.779
 1537SOL    HW2 7946   0.682   1.296   5.696
 1538SOL     OW 7947   1.653   1.290   6.270
 1538SOL    HW1 7948   1.725   1.355   6.247
 1538SOL    HW2 7949   1.569   1.314   6.222
 1539SOL     OW 7950   1.486   0.372   5.699
 1539SOL    HW1 7951   1.411   0.413   5.750
 1539SOL    HW2 7952   1.545   0.443   5.663
 1540SOL     OW 7953   0.242   1.116   5.955
 1540SOL    HW1 7954   0.241   1.164   6.043
 1540SOL    HW2 7955   0.330   1.069   5.944
 1541SOL     OW 7956   0.541   0.457   6.381
 1541SOL    HW1 7957   0.587   0.546   6.371
 1541SOL    HW2 7958   0.502   0.451   6.473
 1542SOL     OW 7959   1.319   0.500   5.866
 1542SOL    HW1 7960   1.337   0.441   5.945
 1542SOL    HW2 7961   1.259   0.575   5.894
 1543SOL     OW 7962   0.270   0.176   6.250
 1543SOL    HW1 7963   0.239   0.263   6.211
 1543SOL    HW2 7964   0.199   0.107   6.238
 1544SOL     OW 7965   1.712   0.353   5.925
 1544SOL    HW1 7966   1.745   0.394   6.010
 1544SOL    HW2 7967   1.614   0.370   5.915
 1545SOL     OW 7968   1.560   0.127   5.801
 1545SOL    HW1 7969   1.527   0.211   5.757
 1545SOL    HW2 7970   1.625   0.151   5.874
 1546SOL     OW 7971   0.179   1.350   5.801
 1546SOL    HW1 7972   0.143   1.411   5.872
 1546SOL    HW2 7973   0.193   1.259   5.840
 1547SOL     OW 7974   0.946   0.531   5.948
 1547SOL    HW1 7975   0.934   0.476   5.865
 1547SOL    HW2 7976   0.885   0.610   5.944
 1548SOL     OW 7977   1.307   0.872   5.826
 1548SOL    HW1 7978   1.231   0.816   5.858
 1548SOL    HW2 7979   1.385   0.863   5.888
 1549SOL     OW 7980   1.690   0.093   6.139
 1549SOL    HW1 7981   1.727   0.014   6.091
 1549SOL    HW2 7982   1.764   0.144   6.183
 1550SOL     OW 7983   1.309   0.918   6.172
 1550SOL    HW1 7984   1.384   0.892   6.112
 1550SOL    HW2 7985   1.284   1.013   6.155
 1551SOL     OW 7986   0.727   1.629   5.883
 1551SOL    HW1 7987   0.729   1.710   5.824
 1551SOL    HW2 7988   0.712   1.548   5.827
 1552SOL     OW 7989   1.208   1.629   5.683
 1552SOL    HW1 7990   1.186   1.532   5.695
 1552SOL    HW2 7991   1.199   1.655   5.587
 1553SOL     OW 7992   1.461   1.737   5.678
 1553SOL    HW1 7993   1.379   1.681   5.675
 1553SOL    HW2 7994   1.521   1.713   5.602
 1554SOL     OW 7995   0.443   1.405   5.870
 1554SOL    HW1 7996   0.352   1.396   5.830
 1554SOL    HW2 7997   0.439   1.384   5.968
 1555SOL     OW 7998   1.138   1.363   5.711
 1555SOL    HW1 7999   1.052   1.398   5.675
 1555SOL    HW2 8000   1.120   1.305   5.791
 1556SOL     OW 8001   1.370   0.339   6.081
 1556SOL    HW1 8002   1.393   0.244   6.104
 1556SOL    HW2 8003   1.273   0.355   6.100
 1557SOL     OW 8004   0.632   0.713   6.334
 1557SOL    HW1 8005   0.616   0.805   6.371
 1557SOL    HW2 8006   0.617   0.713   6.235
 1558SOL     OW 8007   0.911   1.484   5.629
 1558SOL    HW1 8008   0.820   1.453   5.657
 1558SOL    HW2 8009   0.903   1.543   5.549
 1559SOL     OW 8010   0.622   1.821   0.130
 1559SOL    HW1 8011   0.594   1.916   0.137
 1559SOL    HW2 8012   0.715   1.815   0.094
 1560SOL     OW 8013   1.735   1.536   6.445
 1560SOL    HW1 8014   1.788   1.507   6.365
 1560SOL    HW2 8015   1.707   1.456   6.498
 1561SOL     OW 8016   0.198   1.240   6.215
 1561SOL    HW1 8017   0.113   1.290   6.230
 1561SOL    HW2 8018   0.195   1.152   6.263
 1562SOL     OW 8019   0.451   0.470   6.116
 1562SOL    HW1 8020   0.497   0.398   6.063
 1562SOL    HW2 8021   0.485   0.468   6.210
 1563SOL     OW 8022   1.355   6.459   5.879
 1563SOL    HW1 8023   1.428   0.017   5.842
 1563SOL    HW2 8024   1.362   6.367   5.840
 1564SOL     OW 8025   0.014   0.963   5.918
 1564SOL    HW1 8026   0.094   1.022   5.929
 1564SOL    HW2 8027   6.462   0.960   6.003
 1565SOL     OW 8028   0.863   1.676   6.112
 1565SOL    HW1 8029   0.820   1.646   6.027
 1565SOL    HW2 8030   0.839   1.771   6.130
 1566SOL     OW 8031   0.249   2.089   0.975
 1566SOL    HW1 8032   0.262   2.074   1.073
 1566SOL    HW2 8033   0.212   2.006   0.934
 1567SOL     OW 8034   1.522   3.440   0.580
 1567SOL    HW1 8035   1.431   3.460   0.617
 1567SOL    HW2 8036   1.525   3.464   0.483
 1568SOL     OW 8037   1.766   2.407   0.147
 1568SOL    HW1 8038   1.705   2.423   0.069
 1568SOL    HW2 8039   1.726   2.337   0.207
 1569SOL     OW 8040   0.699   3.106   1.144
 1569SOL    HW1 8041   0.724   3.136   1.237
 1569SOL    HW2 8042   0.773   3.130   1.081
 1570SOL     OW 8043   0.909   2.575   1.757
 1570SOL    HW1 8044   0.905   2.613   1.849
 1570SOL    HW2 8045   0.898   2.648   1.690
 1571SOL     OW 8046   0.733   3.111   1.776
 1571SOL    HW1 8047   0.760   3.173   1.849
 1571SOL    HW2 8048   0.633   3.109   1.770
 1572SOL     OW 8049   0.473   2.404   1.639
 1572SOL    HW1 8050   0.563   2.386   1.677
 1572SOL    HW2 8051   0.454   2.338   1.566
 1573SOL     OW 8052   0.128   3.585   0.455
 1573SOL    HW1 8053   0.175   3.651   0.515
 1573SOL    HW2 8054   0.181   3.574   0.371
 1574SOL     OW 8055   0.211   3.316   0.504
 1574SOL    HW1 8056   0.168   3.404   0.483
 1574SOL    HW2 8057   0.250   3.318   0.596
 1575SOL     OW 8058   1.561   1.979   1.462
 1575SOL    HW1 8059   1.489   2.009   1.399
 1575SOL    HW2 8060   1.550   2.026   1.550
 1576SOL     OW 8061   0.082   2.463   0.737
 1576SOL    HW1 8062   0.044   2.476   0.646
 1576SOL    HW2 8063   0.143   2.539   0.760
 1577SOL     OW 8064   1.815   3.579   0.318
 1577SOL    HW1 8065   1.893   3.563   0.377
 1577SOL    HW2 8066   1.807   3.676   0.299
 1578SOL     OW 8067   0.006   3.466   0.191
 1578SOL    HW1 8068   6.487   3.368   0.196
 1578SOL    HW2 8069   6.423   3.517   0.214
 1579SOL     OW 8070   1.649   2.943   0.346
 1579SOL    HW1 8071   1.738   2.898   0.352
 1579SOL    HW2 8072   1.640   3.009   0.421
 1580SOL     OW 8073   0.152   2.666   1.616
 1580SOL    HW1 8074   0.252   2.674   1.607
 1580SOL    HW2 8075   0.113   2.645   1.526
 1581SOL     OW 8076   0.708   3.189   0.772
 1581SOL    HW1 8077   0.632   3.125   0.778
 1581SOL    HW2 8078   0.699   3.244   0.689
 1582SOL     OW 8079   1.441   3.078   1.328
 1582SOL    HW1 8080   1.389   2.998   1.354
 1582SOL    HW2 8081   1.514   3.094   1.395
 1583SOL     OW 8082   0.116   2.760   1.334
 1583SOL    HW1 8083   0.213   2.737   1.346
 1583SOL    HW2 8084   0.084   2.726   1.245
 1584SOL     OW 8085   1.432   2.921   0.181
 1584SOL    HW1 8086   1.388   2.832   0.188
 1584SOL    HW2 8087   1.514   2.922   0.238
 1585SOL     OW 8088   0.362   2.148   1.779
 1585SOL    HW1 8089   0.421   2.217   1.822
 1585SOL    HW2 8090   0.266   2.169   1.797
 1586SOL     OW 8091   1.543   3.504   0.308
 1586SOL    HW1 8092   1.639   3.532   0.312
 1586SOL    HW2 8093   1.525   3.461   0.219
 1587SOL     OW 8094   0.780   2.464   1.462
 1587SOL    HW1 8095   0.765   2.416   1.549
 1587SOL    HW2 8096   0.755   2.403   1.387
 1588SOL     OW 8097   0.920   2.774   1.563
 1588SOL    HW1 8098   0.976   2.709   1.512
 1588SOL    HW2 8099   0.854   2.817   1.500
 1589SOL     OW 8100   0.955   2.198   1.291
 1589SOL    HW1 8101   0.869   2.247   1.278
 1589SOL    HW2 8102   1.008   2.201   1.206
 1590SOL     OW 8103   0.187   2.702   0.804
 1590SOL    HW1 8104   0.258   2.758   0.847
 1590SOL    HW2 8105   0.097   2.730   0.838
 1591SOL     OW 8106   1.640   2.542   1.897
 1591SOL    HW1 8107   1.670   2.634   1.872
 1591SOL    HW2 8108   1.670   2.477   1.826
 1592SOL     OW 8109   0.600   2.082   0.940
 1592SOL    HW1 8110   0.591   2.078   1.039
 1592SOL    HW2 8111   0.605   2.178   0.911
 1593SOL     OW 8112   0.445   3.687   0.785
 1593SOL    HW1 8113   0.485   3.597   0.795
 1593SOL    HW2 8114   0.509   3.756   0.820
 1594SOL     OW 8115   0.282   2.720   0.250
 1594SOL    HW1 8116   0.360   2.782   0.264
 1594SOL    HW2 8117   0.258   2.719   0.153
 1595SOL     OW 8118   0.460   3.126   1.736
 1595SOL    HW1 8119   0.493   3.183   1.661
 1595SOL    HW2 8120   0.377   3.166   1.774
 1596SOL     OW 8121   0.317   2.147   1.494
 1596SOL    HW1 8122   0.263   2.227   1.472
 1596SOL    HW2 8123   0.328   2.140   1.593
 1597SOL     OW 8124   1.699   3.219   0.114
 1597SOL    HW1 8125   1.628   3.290   0.111
 1597SOL    HW2 8126   1.667   3.138   0.065
 1598SOL     OW 8127   0.572   3.564   0.430
 1598SOL    HW1 8128   0.565   3.655   0.469
 1598SOL    HW2 8129   0.510   3.555   0.353
 1599SOL     OW 8130   1.451   1.982   0.423
 1599SOL    HW1 8131   1.445   1.948   0.328
 1599SOL    HW2 8132   1.547   1.996   0.447
 1600SOL     OW 8133   1.048   3.496   0.816
 1600SOL    HW1 8134   1.136   3.483   0.771
 1600SOL    HW2 8135   0.974   3.483   0.750
 1601SOL     OW 8136   1.562   2.129   1.685
 1601SOL    HW1 8137   1.593   2.101   1.775
 1601SOL    HW2 8138   1.473   2.175   1.692
 1602SOL     OW 8139   0.837   2.133   1.840
 1602SOL    HW1 8140   0.908   2.092   1.782
 1602SOL    HW2 8141   0.781   2.060   1.879
 1603SOL     OW 8142   0.822   3.442   1.063
 1603SOL    HW1 8143   0.804   3.501   0.985
 1603SOL    HW2 8144   0.851   3.352   1.031
 1604SOL     OW 8145   1.376   2.310   1.411
 1604SOL    HW1 8146   1.359   2.281   1.505
 1604SOL    HW2 8147   1.337   2.401   1.396
 1605SOL     OW 8148   0.874   2.261   0.903
 1605SOL    HW1 8149   0.909   2.274   0.810
 1605SOL    HW2 8150   0.947   2.228   0.962
 1606SOL     OW 8151   0.539   2.075   0.418
 1606SOL    HW1 8152   0.463   2.035   0.470
 1606SOL    HW2 8153   0.624   2.065   0.471
 1607SOL     OW 8154   1.561   3.034   6.466
 1607SOL    HW1 8155   1.500   2.996   0.035
 1607SOL    HW2 8156   1.512   3.101   6.410
 1608SOL     OW 8157   0.280   1.998   0.135
 1608SOL    HW1 8158   0.369   2.044   0.140
 1608SOL    HW2 8159   0.287   1.908   0.179
 1609SOL     OW 8160   1.026   2.569   1.413
 1609SOL    HW1 8161   0.942   2.518   1.428
 1609SOL    HW2 8162   1.093   2.545   1.483
 1610SOL     OW 8163   1.300   3.530   0.710
 1610SOL    HW1 8164   1.272   3.618   0.674
 1610SOL    HW2 8165   1.335   3.542   0.803
 1611SOL     OW 8166   1.234   3.788   0.659
 1611SOL    HW1 8167   1.222   3.844   0.576
 1611SOL    HW2 8168   1.252   3.848   0.737
 1612SOL     OW 8169   0.173   2.366   1.415
 1612SOL    HW1 8170   0.168   2.375   1.316
 1612SOL    HW2 8171   0.082   2.382   1.454
 1613SOL     OW 8172   0.571   2.090   1.211
 1613SOL    HW1 8173   0.618   2.029   1.275
 1613SOL    HW2 8174   0.472   2.081   1.223
 1614SOL     OW 8175   1.248   2.942   0.737
 1614SOL    HW1 8176   1.314   2.874   0.768
 1614SOL    HW2 8177   1.240   3.015   0.805
 1615SOL     OW 8178   1.805   2.580   0.356
 1615SOL    HW1 8179   1.856   2.526   0.423
 1615SOL    HW2 8180   1.792   2.526   0.273
 1616SOL     OW 8181   1.320   2.477   0.031
 1616SOL    HW1 8182   1.294   2.405   0.095
 1616SOL    HW2 8183   1.413   2.462   6.500
 1617SOL     OW 8184   1.835   3.256   1.545
 1617SOL    HW1 8185   1.922   3.216   1.575
 1617SOL    HW2 8186   1.821   3.343   1.592
 1618SOL     OW 8187   1.589   2.859   1.152
 1618SOL    HW1 8188   1.594   2.957   1.170
 1618SOL    HW2 8189   1.503   2.838   1.106
 1619SOL     OW 8190   0.973   1.927   1.304
 1619SOL    HW1 8191   1.003   1.905   1.211
 1619SOL    HW2 8192   0.972   2.026   1.316
 1620SOL     OW 8193   0.962   3.021   1.674
 1620SOL    HW1 8194   0.874   3.048   1.713
 1620SOL    HW2 8195   0.956   2.928   1.639
 1621SOL     OW 8196   0.707   2.987   0.297
 1621SOL    HW1 8197   0.630   2.951   0.351
 1621SOL    HW2 8198   0.675   3.007   0.204
 1622SOL     OW 8199   0.372   2.667   1.312
 1622SOL    HW1 8200   0.459   2.659   1.360
 1622SOL    HW2 8201   0.353   2.581   1.265
 1623SOL     OW 8202   0.012   3.401   1.365
 1623SOL    HW1 8203   0.054   3.492   1.357
 1623SOL    HW2 8204   0.063   3.336   1.308
 1624SOL     OW 8205   0.475   2.882   0.401
 1624SOL    HW1 8206   0.413   2.961   0.392
 1624SOL    HW2 8207   0.455   2.834   0.486
 1625SOL     OW 8208   0.622   2.367   0.920
 1625SOL    HW1 8209   0.607   2.434   0.848
 1625SOL    HW2 8210   0.716   2.335   0.917
 1626SOL     OW 8211   1.531   2.496   0.394
 1626SOL    HW1 8212   1.508   2.467   0.486
 1626SOL    HW2 8213   1.617   2.548   0.396
 1627SOL     OW 8214   0.287   3.259   1.489
 1627SOL    HW1 8215   0.237   3.178   1.460
 1627SOL    HW2 8216   0.275   3.332   1.422
 1628SOL     OW 8217   0.430   2.675   1.627
 1628SOL    HW1 8218   0.496   2.700   1.556
 1628SOL    HW2 8219   0.442   2.579   1.651
 1629SOL     OW 8220   0.529   1.920   1.749
 1629SOL    HW1 8221   0.474   1.848   1.706
 1629SOL    HW2 8222   0.476   2.005   1.750
 1630SOL     OW 8223   0.531   2.831   1.137
 1630SOL    HW1 8224   0.583   2.914   1.160
 1630SOL    HW2 8225   0.480   2.801   1.218
 1631SOL     OW 8226   1.353   2.802   1.033
 1631SOL    HW1 8227   1.255   2.817   1.046
 1631SOL    HW2 8228   1.369   2.764   0.942
 1632SOL     OW 8229   1.228   2.282   0.196
 1632SOL    HW1 8230   1.259   2.262   0.289
 1632SOL    HW2 8231   1.140   2.329   0.200
 1633SOL     OW 8232   0.297   2.040   1.240
 1633SOL    HW1 8233   0.304   2.065   1.337
 1633SOL    HW2 8234   0.320   1.943   1.230
 1634SOL     OW 8235   0.108   3.184   1.216
 1634SOL    HW1 8236   0.129   3.121   1.291
 1634SOL    HW2 8237   0.009   3.187   1.203
 1635SOL     OW 8238   0.663   2.574   1.110
 1635SOL    HW1 8239   0.640   2.520   1.029
 1635SOL    HW2 8240   0.612   2.661   1.107
 1636SOL     OW 8241   1.713   2.801   1.830
 1636SOL    HW1 8242   1.698   2.815   1.732
 1636SOL    HW2 8243   1.632   2.831   1.881
 1637SOL     OW 8244   0.358   2.005   0.618
 1637SOL    HW1 8245   0.308   2.083   0.654
 1637SOL    HW2 8246   0.394   1.950   0.694
 1638SOL     OW 8247   1.631   2.243   0.321
 1638SOL    HW1 8248   1.657   2.189   0.401
 1638SOL    HW2 8249   1.580   2.324   0.349
 1639SOL     OW 8250   1.793   3.511   1.664
 1639SOL    HW1 8251   1.877   3.550   1.627
 1639SOL    HW2 8252   1.801   3.503   1.763
 1640SOL     OW 8253   0.410   2.872   1.815
 1640SOL    HW1 8254   0.443   2.959   1.780
 1640SOL    HW2 8255   0.426   2.800   1.747
 1641SOL     OW 8256   1.572   2.098   0.098
 1641SOL    HW1 8257   1.513   2.022   0.125
 1641SOL    HW2 8258   1.589   2.157   0.177
 1642SOL     OW 8259   0.347   2.880   0.939
 1642SOL    HW1 8260   0.405   2.855   1.016
 1642SOL    HW2 8261   0.263   2.923   0.973
 1643SOL     OW 8262   0.363   2.334   1.034
 1643SOL    HW1 8263   0.336   2.242   1.005
 1643SOL    HW2 8264   0.453   2.356   0.996
 1644SOL     OW 8265   6.417   3.212   0.191
 1644SOL    HW1 8266   6.372   3.238   0.105
 1644SOL    HW2 8267   6.432   3.113   0.192
 1645SOL     OW 8268   0.234   3.553   0.895
 1645SOL    HW1 8269   0.229   3.461   0.858
 1645SOL    HW2 8270   0.304   3.605   0.846
 1646SOL     OW 8271   0.533   3.435   0.855
 1646SOL    HW1 8272   0.621   3.483   0.852
 1646SOL    HW2 8273   0.529   3.378   0.937
 1647SOL     OW 8274   0.903   2.692   1.191
 1647SOL    HW1 8275   0.958   2.647   1.261
 1647SOL    HW2 8276   0.822   2.637   1.172
 1648SOL     OW 8277   0.246   2.468   1.787
 1648SOL    HW1 8278   0.331   2.439   1.742
 1648SOL    HW2 8279   0.202   2.537   1.731
 1649SOL     OW 8280   1.622   2.473   1.365
 1649SOL    HW1 8281   1.571   2.390   1.389
 1649SOL    HW2 8282   1.718   2.451   1.352
 1650SOL     OW 8283   0.323   3.417   1.818
 1650SOL    HW1 8284   0.270   3.499   1.841
 1650SOL    HW2 8285   0.260   3.343   1.792
 1651SOL     OW 8286   0.714   2.323   1.244
 1651SOL    HW1 8287   0.656   2.245   1.222
 1651SOL    HW2 8288   0.688   2.401   1.186
 1652SOL     OW 8289   0.884   3.595   1.506
 1652SOL    HW1 8290   0.967   3.538   1.508
 1652SOL    HW2 8291   0.909   3.689   1.483
 1653SOL     OW 8292   0.381   2.465   0.291
 1653SOL    HW1 8293   0.445   2.476   0.367
 1653SOL    HW2 8294   0.335   2.552   0.273
 1654SOL     OW 8295   0.158   3.017   1.432
 1654SOL    HW1 8296   0.160   3.003   1.531
 1654SOL    HW2 8297   0.146   2.930   1.386
 1655SOL     OW 8298   1.313   2.678   0.214
 1655SOL    HW1 8299   1.358   2.637   0.294
 1655SOL    HW2 8300   1.311   2.612   0.139
 1656SOL     OW 8301   1.144   3.649   1.020
 1656SOL    HW1 8302   1.242   3.654   0.998
 1656SOL    HW2 8303   1.099   3.584   0.959
 1657SOL     OW 8304   0.114   3.017   0.994
 1657SOL    HW1 8305   0.122   3.084   1.067
 1657SOL    HW2 8306   0.037   3.041   0.935
 1658SOL     OW 8307   0.886   1.787   0.039
 1658SOL    HW1 8308   0.893   1.853   6.465
 1658SOL    HW2 8309   0.976   1.772   0.080
 1659SOL     OW 8310   1.718   2.037   0.506
 1659SOL    HW1 8311   1.799   2.022   0.450
 1659SOL    HW2 8312   1.702   1.957   0.564
 1660SOL     OW 8313   0.172   3.616   1.932
 1660SOL    HW1 8314   0.125   3.544   1.984
 1660SOL    HW2 8315   0.227   3.672   1.994
 1661SOL     OW 8316   0.741   3.154   1.419
 1661SOL    HW1 8317   0.813   3.159   1.488
 1661SOL    HW2 8318   0.659   3.199   1.454
 1662SOL     OW 8319   0.646   3.408   0.063
 1662SOL    HW1 8320   0.640   3.505   0.086
 1662SOL    HW2 8321   0.590   3.389   6.482
 1663SOL     OW 8322   1.907   1.975   0.992
 1663SOL    HW1 8323   1.929   1.878   1.006
 1663SOL    HW2 8324   1.833   1.982   0.925
 1664SOL     OW 8325   0.248   2.233   0.737
 1664SOL    HW1 8326   0.185   2.310   0.735
 1664SOL    HW2 8327   0.239   2.186   0.825
 1665SOL     OW 8328   1.275   3.536   6.465
 1665SOL    HW1 8329   1.226   3.450   6.478
 1665SOL    HW2 8330   1.256   3.571   6.373
 1666SOL     OW 8331   0.771   2.885   1.364
 1666SOL    HW1 8332   0.823   2.862   1.282
 1666SOL    HW2 8333   0.760   2.984   1.369
 1667SOL     OW 8334   1.490   3.389   0.052
 1667SOL    HW1 8335   1.423   3.463   0.038
 1667SOL    HW2 8336   1.480   3.321   6.479
 1668SOL     OW 8337   1.093   2.158   1.055
 1668SOL    HW1 8338   1.183   2.184   1.090
 1668SOL    HW2 8339   1.089   2.058   1.046
 1669SOL     OW 8340   0.675   3.331   0.535
 1669SOL    HW1 8341   0.730   3.293   0.460
 1669SOL    HW2 8342   0.621   3.407   0.501
 1670SOL     OW 8343   0.313   3.094   0.359
 1670SOL    HW1 8344   0.331   3.124   0.266
 1670SOL    HW2 8345   0.269   3.167   0.410
 1671SOL     OW 8346   0.168   2.929   1.699
 1671SOL    HW1 8347   0.131   2.840   1.671
 1671SOL    HW2 8348   0.248   2.915   1.757
 1672SOL     OW 8349   0.713   1.942   1.405
 1672SOL    HW1 8350   0.802   1.927   1.361
 1672SOL    HW2 8351   0.727   1.996   1.488
 1673SOL     OW 8352   0.010   1.976   0.239
 1673SOL    HW1 8353   6.476   2.058   0.283
 1673SOL    HW2 8354   0.106   1.989   0.212
 1674SOL     OW 8355   1.176   3.278   0.052
 1674SOL    HW1 8356   1.084   3.296   0.085
 1674SOL    HW2 8357   1.227   3.226   0.121
 1675SOL     OW 8358   0.615   2.678   1.429
 1675SOL    HW1 8359   0.670   2.757   1.404
 1675SOL    HW2 8360   0.674   2.599   1.444
 1676SOL     OW 8361   0.739   2.358   1.709
 1676SOL    HW1 8362   0.795   2.435   1.740
 1676SOL    HW2 8363   0.767   2.275   1.758
 1677SOL     OW 8364   1.607   3.114   1.542
 1677SOL    HW1 8365   1.557   3.146   1.623
 1677SOL    HW2 8366   1.691   3.167   1.533
 1678SOL     OW 8367   1.532   2.723   1.381
 1678SOL    HW1 8368   1.563   2.627   1.380
 1678SOL    HW2 8369   1.556   2.766   1.294
 1679SOL     OW 8370   1.322   2.222   0.444
 1679SOL    HW1 8371   1.364   2.131   0.443
 1679SOL    HW2 8372   1.368   2.279   0.513
 1680SOL     OW 8373   0.592   2.576   0.752
 1680SOL    HW1 8374   0.621   2.671   0.762
 1680SOL    HW2 8375   0.569   2.558   0.656
 1681SOL     OW 8376   1.724   2.357   1.726
 1681SOL    HW1 8377   1.821   2.356   1.705
 1681SOL    HW2 8378   1.682   2.270   1.697
 1682SOL     OW 8379   1.694   2.848   1.567
 1682SOL    HW1 8380   1.675   2.945   1.551
 1682SOL    HW2 8381   1.645   2.793   1.499
 1683SOL     OW 8382   0.903   3.329   0.077
 1683SOL    HW1 8383   0.811   3.368   0.079
 1683SOL    HW2 8384   0.931   3.315   6.482
 1684SOL     OW 8385   0.748   3.603   0.850
 1684SOL    HW1 8386   0.719   3.698   0.863
 1684SOL    HW2 8387   0.788   3.591   0.759
 1685SOL     OW 8388   1.079   2.824   0.117
 1685SOL    HW1 8389   1.018   2.841   0.194
 1685SOL    HW2 8390   1.160   2.775   0.149
 1686SOL     OW 8391   0.173   3.187   1.791
 1686SOL    HW1 8392   0.166   3.096   1.751
 1686SOL    HW2 8393   0.122   3.190   1.877
 1687SOL     OW 8394   1.702   1.996   1.180
 1687SOL    HW1 8395   1.750   2.014   1.266
 1687SOL    HW2 8396   1.769   1.992   1.105
 1688SOL     OW 8397   0.483   2.288   0.599
 1688SOL    HW1 8398   0.488   2.212   0.533
 1688SOL    HW2 8399   0.402   2.278   0.655
 1689SOL     OW 8400   0.863   3.508   0.618
 1689SOL    HW1 8401   0.932   3.493   0.547
 1689SOL    HW2 8402   0.785   3.448   0.601
 1690SOL     OW 8403   1.074   1.878   1.049
 1690SOL    HW1 8404   1.000   1.829   1.003
 1690SOL    HW2 8405   1.160   1.831   1.032
 1691SOL     OW 8406   0.849   3.239   0.330
 1691SOL    HW1 8407   0.805   3.149   0.328
 1691SOL    HW2 8408   0.867   3.270   0.237
 1692SOL     OW 8409   0.745   3.615   1.255
 1692SOL    HW1 8410   0.772   3.585   1.347
 1692SOL    HW2 8411   0.761   3.541   1.190
 1693SOL     OW 8412   1.406   1.895   0.166
 1693SOL    HW1 8413   1.439   1.810   0.124
 1693SOL    HW2 8414   1.314   1.914   0.132
 1694SOL     OW 8415   1.448   2.383   0.632
 1694SOL    HW1 8416   1.370   2.439   0.660
 1694SOL    HW2 8417   1.492   2.345   0.714
 1695SOL     OW 8418   1.680   2.054   0.850
 1695SOL    HW1 8419   1.618   1.980   0.873
 1695SOL    HW2 8420   1.632   2.141   0.855
 1696SOL     OW 8421   0.822   3.673   0.301
 1696SOL    HW1 8422   0.763   3.675   0.220
 1696SOL    HW2 8423   0.776   3.623   0.374
 1697SOL     OW 8424   0.251   2.460   2.068
 1697SOL    HW1 8425   0.151   2.466   2.070
 1697SOL    HW2 8426   0.283   2.467   1.973
 1698SOL     OW 8427   6.467   2.252   2.634
 1698SOL    HW1 8428   6.427   2.161   2.647
 1698SOL    HW2 8429   0.066   2.243   2.620
 1699SOL     OW 8430   0.581   3.168   2.987
 1699SOL    HW1 8431   0.532   3.214   2.913
 1699SOL    HW2 8432   0.604   3.235   3.058
 1700SOL     OW 8433   1.570   3.294   2.540
 1700SOL    HW1 8434   1.532   3.220   2.596
 1700SOL    HW2 8435   1.496   3.355   2.511
 1701SOL     OW 8436   1.038   2.642   2.430
 1701SOL    HW1 8437   1.097   2.720   2.454
 1701SOL    HW2 8438   0.976   2.623   2.506
 1702SOL     OW 8439   0.749   2.763   3.672
 1702SOL    HW1 8440   0.756   2.860   3.694
 1702SOL    HW2 8441   0.803   2.744   3.590
 1703SOL     OW 8442   0.666   2.829   2.541
 1703SOL    HW1 8443   0.708   2.852   2.629
 1703SOL    HW2 8444   0.577   2.873   2.533
 1704SOL     OW 8445   0.780   3.038   3.713
 1704SOL    HW1 8446   0.802   3.093   3.793
 1704SOL    HW2 8447   0.725   3.091   3.649
 1705SOL     OW 8448   1.520   3.427   3.204
 1705SOL    HW1 8449   1.430   3.402   3.239
 1705SOL    HW2 8450   1.544   3.366   3.127
 1706SOL     OW 8451   0.486   2.201   3.257
 1706SOL    HW1 8452   0.553   2.138   3.296
 1706SOL    HW2 8453   0.398   2.190   3.304
 1707SOL     OW 8454   1.676   2.341   2.654
 1707SOL    HW1 8455   1.590   2.359   2.607
 1707SOL    HW2 8456   1.688   2.406   2.729
 1708SOL     OW 8457   0.248   3.520   2.280
 1708SOL    HW1 8458   0.210   3.574   2.355
 1708SOL    HW2 8459   0.331   3.564   2.246
 1709SOL     OW 8460   1.060   3.199   3.519
 1709SOL    HW1 8461   1.153   3.230   3.536
 1709SOL    HW2 8462   1.049   3.105   3.552
 1710SOL     OW 8463   0.329   3.273   2.351
 1710SOL    HW1 8464   0.296   3.366   2.332
 1710SOL    HW2 8465   0.297   3.244   2.441
 1711SOL     OW 8466   0.616   3.610   3.251
 1711SOL    HW1 8467   0.579   3.622   3.344
 1711SOL    HW2 8468   0.684   3.682   3.233
 1712SOL     OW 8469   1.714   1.964   3.379
 1712SOL    HW1 8470   1.745   2.045   3.331
 1712SOL    HW2 8471   1.651   1.990   3.452
 1713SOL     OW 8472   0.042   2.585   2.313
 1713SOL    HW1 8473   0.004   2.632   2.393
 1713SOL    HW2 8474   0.141   2.573   2.326
 1714SOL     OW 8475   1.856   3.600   2.176
 1714SOL    HW1 8476   1.826   3.559   2.262
 1714SOL    HW2 8477   1.936   3.658   2.192
 1715SOL     OW 8478   0.061   3.431   2.088
 1715SOL    HW1 8479   0.042   3.333   2.078
 1715SOL    HW2 8480   0.120   3.445   2.167
 1716SOL     OW 8481   1.679   2.792   2.445
 1716SOL    HW1 8482   1.732   2.734   2.384
 1716SOL    HW2 8483   1.685   2.887   2.415
 1717SOL     OW 8484   1.654   3.011   2.148
 1717SOL    HW1 8485   1.739   2.961   2.130
 1717SOL    HW2 8486   1.651   3.039   2.243
 1718SOL     OW 8487   0.217   2.639   3.431
 1718SOL    HW1 8488   0.299   2.657   3.377
 1718SOL    HW2 8489   0.174   2.725   3.457
 1719SOL     OW 8490   0.584   3.196   2.561
 1719SOL    HW1 8491   0.533   3.112   2.548
 1719SOL    HW2 8492   0.583   3.250   2.476
 1720SOL     OW 8493   0.228   2.846   3.122
 1720SOL    HW1 8494   0.308   2.818   3.176
 1720SOL    HW2 8495   0.191   2.766   3.074
 1721SOL     OW 8496   1.493   2.859   1.986
 1721SOL    HW1 8497   1.439   2.793   2.038
 1721SOL    HW2 8498   1.540   2.921   2.049
 1722SOL     OW 8499   1.097   3.702   3.499
 1722SOL    HW1 8500   1.162   3.760   3.448
 1722SOL    HW2 8501   1.056   3.636   3.436
 1723SOL     OW 8502   0.250   2.204   3.662
 1723SOL    HW1 8503   0.339   2.208   3.708
 1723SOL    HW2 8504   0.193   2.134   3.706
 1724SOL     OW 8505   1.728   3.478   2.388
 1724SOL    HW1 8506   1.655   3.510   2.328
 1724SOL    HW2 8507   1.690   3.416   2.456
 1725SOL     OW 8508   0.628   2.577   1.961
 1725SOL    HW1 8509   0.722   2.612   1.968
 1725SOL    HW2 8510   0.565   2.647   1.993
 1726SOL     OW 8511   1.524   3.560   2.228
 1726SOL    HW1 8512   1.529   3.659   2.222
 1726SOL    HW2 8513   1.498   3.522   2.139
 1727SOL     OW 8514   0.919   2.733   3.453
 1727SOL    HW1 8515   0.968   2.649   3.428
 1727SOL    HW2 8516   0.901   2.787   3.371
 1728SOL     OW 8517   0.962   2.342   3.147
 1728SOL    HW1 8518   0.865   2.340   3.172
 1728SOL    HW2 8519   0.980   2.268   3.082
 1729SOL     OW 8520   0.462   2.148   2.656
 1729SOL    HW1 8521   0.452   2.088   2.735
 1729SOL    HW2 8522   0.558   2.171   2.643
 1730SOL     OW 8523   1.002   3.267   2.394
 1730SOL    HW1 8524   0.991   3.350   2.339
 1730SOL    HW2 8525   0.971   3.285   2.487
 1731SOL     OW 8526   1.824   2.829   2.681
 1731SOL    HW1 8527   1.763   2.813   2.603
 1731SOL    HW2 8528   1.773   2.874   2.754
 1732SOL     OW 8529   1.266   3.372   3.289
 1732SOL    HW1 8530   1.282   3.350   3.385
 1732SOL    HW2 8531   1.192   3.314   3.254
 1733SOL     OW 8532   1.443   2.760   2.580
 1733SOL    HW1 8533   1.435   2.677   2.636
 1733SOL    HW2 8534   1.526   2.755   2.524
 1734SOL     OW 8535   1.152   3.483   2.089
 1734SOL    HW1 8536   1.079   3.503   2.154
 1734SOL    HW2 8537   1.119   3.416   2.022
 1735SOL     OW 8538   0.238   2.201   3.389
 1735SOL    HW1 8539   0.181   2.281   3.369
 1735SOL    HW2 8540   0.250   2.193   3.489
 1736SOL     OW 8541   1.649   3.264   2.023
 1736SOL    HW1 8542   1.566   3.319   2.018
 1736SOL    HW2 8543   1.626   3.172   2.055
 1737SOL     OW 8544   0.493   3.646   2.213
 1737SOL    HW1 8545   0.533   3.697   2.288
 1737SOL    HW2 8546   0.563   3.589   2.170
 1738SOL     OW 8547   1.556   2.146   2.420
 1738SOL    HW1 8548   1.574   2.203   2.340
 1738SOL    HW2 8549   1.637   2.089   2.439
 1739SOL     OW 8550   0.936   3.540   2.784
 1739SOL    HW1 8551   1.031   3.510   2.770
 1739SOL    HW2 8552   0.874   3.479   2.735
 1740SOL     OW 8553   1.554   2.078   3.563
 1740SOL    HW1 8554   1.544   2.085   3.662
 1740SOL    HW2 8555   1.463   2.081   3.521
 1741SOL     OW 8556   0.682   1.950   1.970
 1741SOL    HW1 8557   0.718   1.865   2.007
 1741SOL    HW2 8558   0.623   1.930   1.891
 1742SOL     OW 8559   0.726   2.177   3.633
 1742SOL    HW1 8560   0.811   2.224   3.658
 1742SOL    HW2 8561   0.650   2.242   3.635
 1743SOL     OW 8562   0.944   3.395   3.083
 1743SOL    HW1 8563   0.917   3.361   2.993
 1743SOL    HW2 8564   0.989   3.322   3.134
 1744SOL     OW 8565   1.332   2.508   3.302
 1744SOL    HW1 8566   1.381   2.495   3.388
 1744SOL    HW2 8567   1.362   2.594   3.260
 1745SOL     OW 8568   0.827   3.268   2.871
 1745SOL    HW1 8569   0.824   3.287   2.773
 1745SOL    HW2 8570   0.745   3.217   2.898
 1746SOL     OW 8571   0.840   2.271   2.845
 1746SOL    HW1 8572   0.834   2.276   2.745
 1746SOL    HW2 8573   0.917   2.212   2.871
 1747SOL     OW 8574   0.315   1.990   2.007
 1747SOL    HW1 8575   0.346   2.048   1.931
 1747SOL    HW2 8576   0.382   1.995   2.082
 1748SOL     OW 8577   1.058   2.517   3.350
 1748SOL    HW1 8578   1.019   2.448   3.288
 1748SOL    HW2 8579   1.157   2.521   3.337
 1749SOL     OW 8580   1.170   3.439   2.699
 1749SOL    HW1 8581   1.228   3.446   2.618
 1749SOL    HW2 8582   1.187   3.353   2.746
 1750SOL     OW 8583   0.430   2.962   2.498
 1750SOL    HW1 8584   0.362   2.957   2.570
 1750SOL    HW2 8585   0.386   2.946   2.409
 1751SOL     OW 8586   1.160   3.633   2.440
 1751SOL    HW1 8587   1.122   3.685   2.363
 1751SOL    HW2 8588   1.126   3.672   2.526
 1752SOL     OW 8589   1.162   2.527   1.647
 1752SOL    HW1 8590   1.076   2.534   1.698
 1752SOL    HW2 8591   1.239   2.522   1.711
 1753SOL     OW 8592   0.069   2.414   3.353
 1753SOL    HW1 8593   0.115   2.500   3.373
 1753SOL    HW2 8594   6.477   2.416   3.394
 1754SOL     OW 8595   0.812   2.315   2.578
 1754SOL    HW1 8596   0.771   2.391   2.528
 1754SOL    HW2 8597   0.898   2.289   2.534
 1755SOL     OW 8598   1.536   3.017   2.638
 1755SOL    HW1 8599   1.482   2.933   2.634
 1755SOL    HW2 8600   1.592   3.025   2.556
 1756SOL     OW 8601   1.436   2.521   2.737
 1756SOL    HW1 8602   1.420   2.442   2.678
 1756SOL    HW2 8603   1.518   2.506   2.792
 1757SOL     OW 8604   1.840   2.649   2.272
 1757SOL    HW1 8605   1.905   2.602   2.331
 1757SOL    HW2 8606   1.807   2.585   2.202
 1758SOL     OW 8607   0.475   3.342   2.031
 1758SOL    HW1 8608   0.428   3.259   2.062
 1758SOL    HW2 8609   0.430   3.378   1.949
 1759SOL     OW 8610   1.692   3.074   2.413
 1759SOL    HW1 8611   1.789   3.062   2.434
 1759SOL    HW2 8612   1.663   3.166   2.437
 1760SOL     OW 8613   1.375   2.456   1.829
 1760SOL    HW1 8614   1.321   2.451   1.913
 1760SOL    HW2 8615   1.464   2.496   1.848
 1761SOL     OW 8616   1.763   3.154   3.449
 1761SOL    HW1 8617   1.842   3.106   3.410
 1761SOL    HW2 8618   1.785   3.251   3.458
 1762SOL     OW 8619   1.027   3.195   3.251
 1762SOL    HW1 8620   0.933   3.162   3.241
 1762SOL    HW2 8621   1.053   3.195   3.348
 1763SOL     OW 8622   1.605   3.493   3.463
 1763SOL    HW1 8623   1.574   3.475   3.370
 1763SOL    HW2 8624   1.702   3.470   3.472
 1764SOL     OW 8625   1.121   3.045   3.034
 1764SOL    HW1 8626   1.090   3.089   3.119
 1764SOL    HW2 8627   1.135   3.115   2.964
 1765SOL     OW 8628   1.678   2.965   2.874
 1765SOL    HW1 8629   1.626   2.940   2.956
 1765SOL    HW2 8630   1.615   2.999   2.804
 1766SOL     OW 8631   1.012   2.944   3.602
 1766SOL    HW1 8632   0.927   2.978   3.644
 1766SOL    HW2 8633   0.991   2.870   3.540
 1767SOL     OW 8634   1.272   2.257   3.197
 1767SOL    HW1 8635   1.305   2.347   3.225
 1767SOL    HW2 8636   1.175   2.264   3.173
 1768SOL     OW 8637   0.296   2.904   2.250
 1768SOL    HW1 8638   0.304   2.989   2.198
 1768SOL    HW2 8639   0.341   2.830   2.200
 1769SOL     OW 8640   0.535   2.545   2.736
 1769SOL    HW1 8641   0.581   2.541   2.647
 1769SOL    HW2 8642   0.602   2.533   2.809
 1770SOL     OW 8643   1.230   2.427   2.060
 1770SOL    HW1 8644   1.233   2.327   2.060
 1770SOL    HW2 8645   1.149   2.458   2.109
 1771SOL     OW 8646   6.365   3.092   3.123
 1771SOL    HW1 8647   6.460   3.092   3.091
 1771SOL    HW2 8648   6.327   3.184   3.117
 1772SOL     OW 8649   0.715   2.491   2.930
 1772SOL    HW1 8650   0.754   2.407   2.893
 1772SOL    HW2 8651   0.788   2.549   2.966
 1773SOL     OW 8652   0.860   3.388   3.527
 1773SOL    HW1 8653   0.878   3.452   3.452
 1773SOL    HW2 8654   0.933   3.319   3.530
 1774SOL     OW 8655   1.866   3.409   3.448
 1774SOL    HW1 8656   1.892   3.435   3.354
 1774SOL    HW2 8657   1.948   3.409   3.506
 1775SOL     OW 8658   0.343   2.733   2.798
 1775SOL    HW1 8659   0.418   2.672   2.770
 1775SOL    HW2 8660   0.288   2.688   2.868
 1776SOL     OW 8661   0.353   2.372   2.845
 1776SOL    HW1 8662   0.297   2.329   2.774
 1776SOL    HW2 8663   0.422   2.431   2.802
 1777SOL     OW 8664   1.312   2.126   3.439
 1777SOL    HW1 8665   1.303   2.200   3.505
 1777SOL    HW2 8666   1.306   2.162   3.346
 1778SOL     OW 8667   0.016   3.163   2.019
 1778SOL    HW1 8668   6.445   3.155   1.948
 1778SOL    HW2 8669   0.008   3.086   2.082
 1779SOL     OW 8670   0.511   3.339   2.783
 1779SOL    HW1 8671   0.573   3.416   2.793
 1779SOL    HW2 8672   0.534   3.287   2.701
 1780SOL     OW 8673   0.096   2.309   3.101
 1780SOL    HW1 8674   0.191   2.341   3.097
 1780SOL    HW2 8675   0.055   2.338   3.188
 1781SOL     OW 8676   0.156   2.469   3.654
 1781SOL    HW1 8677   0.198   2.378   3.645
 1781SOL    HW2 8678   0.184   2.526   3.577
 1782SOL     OW 8679   0.682   2.381   3.180
 1782SOL    HW1 8680   0.617   2.306   3.193
 1782SOL    HW2 8681   0.676   2.415   3.086
 1783SOL     OW 8682   0.940   3.551   3.318
 1783SOL    HW1 8683   0.956   3.498   3.235
 1783SOL    HW2 8684   0.887   3.633   3.295
 1784SOL     OW 8685   0.498   2.328   1.938
 1784SOL    HW1 8686   0.552   2.412   1.933
 1784SOL    HW2 8687   0.478   2.307   2.033
 1785SOL     OW 8688   1.338   2.880   2.997
 1785SOL    HW1 8689   1.311   2.799   2.945
 1785SOL    HW2 8690   1.257   2.938   3.012
 1786SOL     OW 8691   1.316   2.692   2.104
 1786SOL    HW1 8692   1.227   2.736   2.111
 1786SOL    HW2 8693   1.304   2.593   2.096
 1787SOL     OW 8694   1.244   3.607   3.122
 1787SOL    HW1 8695   1.334   3.626   3.085
 1787SOL    HW2 8696   1.249   3.529   3.185
 1788SOL     OW 8697   1.787   1.990   2.430
 1788SOL    HW1 8698   1.854   1.986   2.356
 1788SOL    HW2 8699   1.774   1.899   2.469
 1789SOL     OW 8700   1.375   3.466   2.440
 1789SOL    HW1 8701   1.432   3.494   2.363
 1789SOL    HW2 8702   1.292   3.522   2.442
 1790SOL     OW 8703   0.133   3.633   3.644
 1790SOL    HW1 8704   0.130   3.537   3.670
 1790SOL    HW2 8705   0.194   3.683   3.706
 1791SOL     OW 8706   1.195   2.856   2.510
 1791SOL    HW1 8707   1.289   2.824   2.524
 1791SOL    HW2 8708   1.194   2.928   2.441
 1792SOL     OW 8709   0.760   3.132   3.277
 1792SOL    HW1 8710   0.725   3.131   3.371
 1792SOL    HW2 8711   0.721   3.211   3.229
 1793SOL     OW 8712   0.686   3.512   2.056
 1793SOL    HW1 8713   0.758   3.475   1.997
 1793SOL    HW2 8714   0.607   3.450   2.054
 1794SOL     OW 8715   1.826   1.988   2.855
 1794SOL    HW1 8716   1.859   1.926   2.784
 1794SOL    HW2 8717   1.743   2.034   2.824
 1795SOL     OW 8718   1.092   3.280   1.914
 1795SOL    HW1 8719   1.170   3.229   1.949
 1795SOL    HW2 8720   1.091   3.275   1.814
 1796SOL     OW 8721   0.879   2.888   3.236
 1796SOL    HW1 8722   0.878   2.859   3.140
 1796SOL    HW2 8723   0.829   2.974   3.245
 1797SOL     OW 8724   0.897   2.689   2.002
 1797SOL    HW1 8725   0.954   2.767   1.977
 1797SOL    HW2 8726   0.937   2.642   2.081
 1798SOL     OW 8727   1.408   3.433   2.003
 1798SOL    HW1 8728   1.323   3.464   2.046
 1798SOL    HW2 8729   1.414   3.470   1.910
 1799SOL     OW 8730   0.425   3.271   3.394
 1799SOL    HW1 8731   0.390   3.344   3.336
 1799SOL    HW2 8732   0.368   3.190   3.383
 1800SOL     OW 8733   1.050   2.134   2.975
 1800SOL    HW1 8734   1.147   2.128   2.951
 1800SOL    HW2 8735   1.015   2.042   2.993
 1801SOL     OW 8736   0.609   3.340   2.333
 1801SOL    HW1 8737   0.668   3.284   2.276
 1801SOL    HW2 8738   0.514   3.327   2.304
 1802SOL     OW 8739   1.825   2.190   3.266
 1802SOL    HW1 8740   1.877   2.275   3.256
 1802SOL    HW2 8741   1.862   2.122   3.202
 1803SOL     OW 8742   0.294   3.145   2.118
 1803SOL    HW1 8743   0.199   3.153   2.086
 1803SOL    HW2 8744   0.304   3.191   2.207
 1804SOL     OW 8745   0.688   2.047   3.379
 1804SOL    HW1 8746   0.775   2.015   3.341
 1804SOL    HW2 8747   0.706   2.092   3.467
 1805SOL     OW 8748   0.112   2.244   1.851
 1805SOL    HW1 8749   0.080   2.244   1.946
 1805SOL    HW2 8750   0.154   2.333   1.830
 1806SOL     OW 8751   1.435   2.745   3.211
 1806SOL    HW1 8752   1.390   2.801   3.141
 1806SOL    HW2 8753   1.534   2.753   3.202
 1807SOL     OW 8754   0.655   2.555   2.485
 1807SOL    HW1 8755   0.667   2.653   2.500
 1807SOL    HW2 8756   0.586   2.541   2.414
 1808SOL     OW 8757   1.653   2.309   3.458
 1808SOL    HW1 8758   1.714   2.283   3.383
 1808SOL    HW2 8759   1.622   2.226   3.505
 1809SOL     OW 8760   0.828   3.273   1.974
 1809SOL    HW1 8761   0.812   3.232   2.064
 1809SOL    HW2 8762   0.926   3.274   1.955
 1810SOL     OW 8763   0.655   3.568   2.815
 1810SOL    HW1 8764   0.609   3.654   2.838
 1810SOL    HW2 8765   0.754   3.578   2.830
 1811SOL     OW 8766   1.067   2.879   1.907
 1811SOL    HW1 8767   1.022   2.946   1.848
 1811SOL    HW2 8768   1.160   2.862   1.874
 1812SOL     OW 8769   1.733   3.272   2.796
 1812SOL    HW1 8770   1.724   3.291   2.698
 1812SOL    HW2 8771   1.814   3.214   2.811
 1813SOL     OW 8772   0.224   3.206   2.594
 1813SOL    HW1 8773   0.135   3.244   2.621
 1813SOL    HW2 8774   0.236   3.117   2.637
 1814SOL     OW 8775   0.656   3.201   3.525
 1814SOL    HW1 8776   0.568   3.229   3.486
 1814SOL    HW2 8777   0.719   3.278   3.524
 1815SOL     OW 8778   1.907   1.970   3.114
 1815SOL    HW1 8779   1.871   1.882   3.148
 1815SOL    HW2 8780   1.876   1.985   3.020
 1816SOL     OW 8781   0.350   2.400   3.108
 1816SOL    HW1 8782   0.405   2.337   3.163
 1816SOL    HW2 8783   0.368   2.383   3.011
 1817SOL     OW 8784   0.804   3.360   2.601
 1817SOL    HW1 8785   0.788   3.437   2.539
 1817SOL    HW2 8786   0.733   3.291   2.586
 1818SOL     OW 8787   1.332   2.109   2.951
 1818SOL    HW1 8788   1.362   2.013   2.956
 1818SOL    HW2 8789   1.338   2.150   3.042
 1819SOL     OW 8790   0.963   1.871   3.029
 1819SOL    HW1 8791   0.904   1.832   2.958
 1819SOL    HW2 8792   1.047   1.818   3.035
 1820SOL     OW 8793   0.799   3.167   2.227
 1820SOL    HW1 8794   0.771   3.074   2.249
 1820SOL    HW2 8795   0.874   3.195   2.287
 1821SOL     OW 8796   0.677   3.362   3.154
 1821SOL    HW1 8797   0.633   3.444   3.191
 1821SOL    HW2 8798   0.768   3.386   3.120
 1822SOL     OW 8799   1.288   1.914   1.919
 1822SOL    HW1 8800   1.250   1.892   1.829
 1822SOL    HW2 8801   1.242   1.859   1.989
 1823SOL     OW 8802   1.593   2.110   2.790
 1823SOL    HW1 8803   1.502   2.123   2.829
 1823SOL    HW2 8804   1.620   2.192   2.739
 1824SOL     OW 8805   0.019   2.964   2.202
 1824SOL    HW1 8806   0.108   2.928   2.230
 1824SOL    HW2 8807   6.447   2.922   2.256
 1825SOL     OW 8808   0.914   3.488   2.248
 1825SOL    HW1 8809   0.833   3.479   2.190
 1825SOL    HW2 8810   0.899   3.560   2.315
 1826SOL     OW 8811   0.181   2.563   3.912
 1826SOL    HW1 8812   0.104   2.519   3.959
 1826SOL    HW2 8813   0.173   2.549   3.814
 1827SOL     OW 8814   0.209   2.192   4.678
 1827SOL    HW1 8815   0.204   2.123   4.750
 1827SOL    HW2 8816   0.117   2.228   4.662
 1828SOL     OW 8817   0.531   3.126   4.832
 1828SOL    HW1 8818   0.456   3.125   4.765
 1828SOL    HW2 8819   0.522   3.207   4.890
 1829SOL     OW 8820   1.793   2.382   3.901
 1829SOL    HW1 8821   1.701   2.356   3.873
 1829SOL    HW2 8822   1.787   2.445   3.980
 1830SOL     OW 8823   0.910   2.578   5.494
 1830SOL    HW1 8824   0.811   2.580   5.510
 1830SOL    HW2 8825   0.952   2.659   5.534
 1831SOL     OW 8826   0.684   2.820   4.373
 1831SOL    HW1 8827   0.762   2.813   4.436
 1831SOL    HW2 8828   0.613   2.877   4.414
 1832SOL     OW 8829   0.672   3.000   5.512
 1832SOL    HW1 8830   0.744   3.066   5.535
 1832SOL    HW2 8831   0.590   3.050   5.483
 1833SOL     OW 8832   1.387   3.431   5.049
 1833SOL    HW1 8833   1.470   3.480   5.077
 1833SOL    HW2 8834   1.313   3.454   5.112
 1834SOL     OW 8835   1.102   3.264   5.298
 1834SOL    HW1 8836   1.149   3.176   5.305
 1834SOL    HW2 8837   1.013   3.251   5.256
 1835SOL     OW 8838   0.582   3.562   5.190
 1835SOL    HW1 8839   0.502   3.557   5.249
 1835SOL    HW2 8840   0.594   3.656   5.157
 1836SOL     OW 8841   1.638   1.949   5.204
 1836SOL    HW1 8842   1.672   1.974   5.113
 1836SOL    HW2 8843   1.609   2.031   5.252
 1837SOL     OW 8844   0.087   2.646   4.275
 1837SOL    HW1 8845   6.491   2.620   4.261
 1837SOL    HW2 8846   0.098   2.686   4.367
 1838SOL     OW 8847   1.862   3.712   4.045
 1838SOL    HW1 8848   1.948   3.690   4.092
 1838SOL    HW2 8849   1.870   3.802   4.003
 1839SOL     OW 8850   1.771   2.782   4.318
 1839SOL    HW1 8851   1.804   2.732   4.238
 1839SOL    HW2 8852   1.720   2.863   4.287
 1840SOL     OW 8853   1.646   3.007   4.206
 1840SOL    HW1 8854   1.724   3.017   4.145
 1840SOL    HW2 8855   1.666   3.050   4.293
 1841SOL     OW 8856   0.239   2.622   5.296
 1841SOL    HW1 8857   0.331   2.614   5.334
 1841SOL    HW2 8858   0.183   2.681   5.355
 1842SOL     OW 8859   0.722   3.138   4.526
 1842SOL    HW1 8860   0.638   3.085   4.512
 1842SOL    HW2 8861   0.783   3.126   4.447
 1843SOL     OW 8862   1.217   3.018   5.282
 1843SOL    HW1 8863   1.248   3.002   5.188
 1843SOL    HW2 8864   1.287   2.988   5.346
 1844SOL     OW 8865   0.199   2.834   5.025
 1844SOL    HW1 8866   0.290   2.792   5.036
 1844SOL    HW2 8867   0.149   2.787   4.952
 1845SOL     OW 8868   1.454   2.926   4.020
 1845SOL    HW1 8869   1.375   2.892   4.073
 1845SOL    HW2 8870   1.530   2.944   4.082
 1846SOL     OW 8871   1.294   3.733   5.320
 1846SOL    HW1 8872   1.393   3.729   5.305
 1846SOL    HW2 8873   1.253   3.646   5.292
 1847SOL     OW 8874   1.365   3.270   4.731
 1847SOL    HW1 8875   1.268   3.286   4.715
 1847SOL    HW2 8876   1.400   3.205   4.663
 1848SOL     OW 8877   1.769   3.564   4.341
 1848SOL    HW1 8878   1.720   3.556   4.254
 1848SOL    HW2 8879   1.714   3.525   4.414
 1849SOL     OW 8880   1.149   2.283   4.614
 1849SOL    HW1 8881   1.177   2.245   4.526
 1849SOL    HW2 8882   1.184   2.226   4.688
 1850SOL     OW 8883   1.626   3.591   4.104
 1850SOL    HW1 8884   1.708   3.644   4.083
 1850SOL    HW2 8885   1.617   3.515   4.041
 1851SOL     OW 8886   0.989   2.239   4.925
 1851SOL    HW1 8887   0.961   2.258   5.018
 1851SOL    HW2 8888   0.987   2.140   4.909
 1852SOL     OW 8889   0.979   2.689   4.197
 1852SOL    HW1 8890   0.980   2.694   4.297
 1852SOL    HW2 8891   0.920   2.614   4.168
 1853SOL     OW 8892   0.110   2.763   4.515
 1853SOL    HW1 8893   0.194   2.736   4.562
 1853SOL    HW2 8894   0.085   2.856   4.541
 1854SOL     OW 8895   0.104   3.595   5.324
 1854SOL    HW1 8896   0.098   3.619   5.421
 1854SOL    HW2 8897   0.043   3.519   5.305
 1855SOL     OW 8898   1.386   3.075   4.278
 1855SOL    HW1 8899   1.477   3.066   4.237
 1855SOL    HW2 8900   1.333   3.141   4.225
 1856SOL     OW 8901   0.575   2.053   4.638
 1856SOL    HW1 8902   0.573   2.053   4.738
 1856SOL    HW2 8903   0.587   2.147   4.605
 1857SOL     OW 8904   0.946   3.380   4.262
 1857SOL    HW1 8905   0.905   3.291   4.284
 1857SOL    HW2 8906   1.036   3.365   4.221
 1858SOL     OW 8907   1.562   2.623   4.414
 1858SOL    HW1 8908   1.545   2.606   4.511
 1858SOL    HW2 8909   1.641   2.684   4.404
 1859SOL     OW 8910   0.441   3.143   5.462
 1859SOL    HW1 8911   0.378   3.133   5.385
 1859SOL    HW2 8912   0.391   3.136   5.548
 1860SOL     OW 8913   0.129   2.091   5.132
 1860SOL    HW1 8914   0.146   2.186   5.160
 1860SOL    HW2 8915   0.114   2.035   5.213
 1861SOL     OW 8916   1.605   3.394   3.916
 1861SOL    HW1 8917   1.572   3.447   3.838
 1861SOL    HW2 8918   1.548   3.313   3.929
 1862SOL     OW 8919   0.149   3.586   4.883
 1862SOL    HW1 8920   0.197   3.501   4.905
 1862SOL    HW2 8921   0.215   3.660   4.874
 1863SOL     OW 8922   0.355   2.571   4.241
 1863SOL    HW1 8923   0.367   2.472   4.236
 1863SOL    HW2 8924   0.257   2.592   4.248
 1864SOL     OW 8925   0.822   3.355   4.931
 1864SOL    HW1 8926   0.807   3.341   4.833
 1864SOL    HW2 8927   0.855   3.449   4.946
 1865SOL     OW 8928   0.884   2.347   4.694
 1865SOL    HW1 8929   0.957   2.331   4.628
 1865SOL    HW2 8930   0.909   2.309   4.783
 1866SOL     OW 8931   0.566   1.949   4.218
 1866SOL    HW1 8932   0.499   1.947   4.293
 1866SOL    HW2 8933   0.551   2.031   4.162
 1867SOL     OW 8934   1.418   3.189   3.933
 1867SOL    HW1 8935   1.431   3.092   3.951
 1867SOL    HW2 8936   1.320   3.208   3.924
 1868SOL     OW 8937   0.310   1.936   3.999
 1868SOL    HW1 8938   0.365   2.019   3.998
 1868SOL    HW2 8939   0.361   1.862   4.042
 1869SOL     OW 8940   0.494   2.990   4.470
 1869SOL    HW1 8941   0.436   3.040   4.535
 1869SOL    HW2 8942   0.437   2.950   4.399
 1870SOL     OW 8943   1.184   3.694   4.306
 1870SOL    HW1 8944   1.205   3.791   4.290
 1870SOL    HW2 8945   1.085   3.680   4.302
 1871SOL     OW 8946   0.897   2.561   3.816
 1871SOL    HW1 8947   0.819   2.604   3.771
 1871SOL    HW2 8948   0.973   2.626   3.821
 1872SOL     OW 8949   0.212   2.368   5.199
 1872SOL    HW1 8950   0.252   2.366   5.107
 1872SOL    HW2 8951   0.202   2.463   5.229
 1873SOL     OW 8952   0.943   2.308   4.218
 1873SOL    HW1 8953   0.875   2.368   4.175
 1873SOL    HW2 8954   0.901   2.219   4.236
 1874SOL     OW 8955   1.455   3.093   4.547
 1874SOL    HW1 8956   1.447   3.004   4.593
 1874SOL    HW2 8957   1.409   3.088   4.458
 1875SOL     OW 8958   1.510   2.577   4.681
 1875SOL    HW1 8959   1.414   2.549   4.680
 1875SOL    HW2 8960   1.553   2.549   4.767
 1876SOL     OW 8961   1.856   2.609   4.102
 1876SOL    HW1 8962   1.916   2.567   4.170
 1876SOL    HW2 8963   1.910   2.640   4.024
 1877SOL     OW 8964   0.480   2.155   4.001
 1877SOL    HW1 8965   0.546   2.109   3.941
 1877SOL    HW2 8966   0.459   2.246   3.965
 1878SOL     OW 8967   1.691   3.428   5.332
 1878SOL    HW1 8968   1.651   3.468   5.250
 1878SOL    HW2 8969   1.763   3.488   5.366
 1879SOL     OW 8970   1.596   2.964   4.872
 1879SOL    HW1 8971   1.560   3.046   4.917
 1879SOL    HW2 8972   1.532   2.935   4.800
 1880SOL     OW 8973   0.911   1.894   5.150
 1880SOL    HW1 8974   0.928   1.942   5.064
 1880SOL    HW2 8975   0.883   1.961   5.220
 1881SOL     OW 8976   0.869   2.861   5.384
 1881SOL    HW1 8977   0.795   2.916   5.423
 1881SOL    HW2 8978   0.844   2.832   5.291
 1882SOL     OW 8979   0.716   2.987   4.152
 1882SOL    HW1 8980   0.690   2.916   4.218
 1882SOL    HW2 8981   0.775   2.946   4.082
 1883SOL     OW 8982   0.431   2.682   5.011
 1883SOL    HW1 8983   0.490   2.669   5.090
 1883SOL    HW2 8984   0.383   2.596   4.991
 1884SOL     OW 8985   1.257   2.308   4.902
 1884SOL    HW1 8986   1.275   2.397   4.943
 1884SOL    HW2 8987   1.159   2.287   4.908
 1885SOL     OW 8988   6.495   3.314   5.016
 1885SOL    HW1 8989   6.435   3.369   4.958
 1885SOL    HW2 8990   0.089   3.348   5.008
 1886SOL     OW 8991   0.356   2.859   4.274
 1886SOL    HW1 8992   0.292   2.877   4.200
 1886SOL    HW2 8993   0.369   2.760   4.284
 1887SOL     OW 8994   0.627   2.333   4.581
 1887SOL    HW1 8995   0.618   2.406   4.514
 1887SOL    HW2 8996   0.722   2.328   4.613
 1888SOL     OW 8997   1.205   3.290   4.198
 1888SOL    HW1 8998   1.271   3.366   4.199
 1888SOL    HW2 8999   1.190   3.258   4.292
 1889SOL     OW 9000   1.593   2.552   4.151
 1889SOL    HW1 9001   1.571   2.571   4.247
 1889SOL    HW2 9002   1.688   2.577   4.133
 1890SOL     OW 9003   0.276   3.358   4.949
 1890SOL    HW1 9004   0.256   3.260   4.953
 1890SOL    HW2 9005   0.375   3.372   4.962
 1891SOL     OW 9006   0.478   2.596   5.436
 1891SOL    HW1 9007   0.531   2.598   5.351
 1891SOL    HW2 9008   0.486   2.506   5.478
 1892SOL     OW 9009   1.527   2.589   5.370
 1892SOL    HW1 9010   1.457   2.518   5.383
 1892SOL    HW2 9011   1.494   2.657   5.305
 1893SOL     OW 9012   0.522   1.831   5.524
 1893SOL    HW1 9013   0.447   1.828   5.459
 1893SOL    HW2 9014   0.486   1.853   5.615
 1894SOL     OW 9015   0.564   2.742   4.777
 1894SOL    HW1 9016   0.614   2.826   4.797
 1894SOL    HW2 9017   0.507   2.718   4.856
 1895SOL     OW 9018   1.440   2.847   4.669
 1895SOL    HW1 9019   1.393   2.837   4.581
 1895SOL    HW2 9020   1.475   2.758   4.698
 1896SOL     OW 9021   0.203   2.009   4.881
 1896SOL    HW1 9022   0.185   2.039   4.975
 1896SOL    HW2 9023   0.265   1.930   4.883
 1897SOL     OW 9024   0.190   3.105   4.991
 1897SOL    HW1 9025   0.195   3.005   4.997
 1897SOL    HW2 9026   0.095   3.134   5.002
 1898SOL     OW 9027   0.720   2.518   4.843
 1898SOL    HW1 9028   0.778   2.472   4.776
 1898SOL    HW2 9029   0.668   2.590   4.798
 1899SOL     OW 9030   1.706   2.739   5.528
 1899SOL    HW1 9031   1.654   2.664   5.488
 1899SOL    HW2 9032   1.655   2.778   5.605
 1900SOL     OW 9033   0.346   1.928   4.393
 1900SOL    HW1 9034   0.315   2.023   4.396
 1900SOL    HW2 9035   0.324   1.883   4.480
 1901SOL     OW 9036   0.985   3.394   5.509
 1901SOL    HW1 9037   0.911   3.451   5.474
 1901SOL    HW2 9038   1.031   3.349   5.433
 1902SOL     OW 9039   0.405   2.792   5.620
 1902SOL    HW1 9040   0.492   2.823   5.657
 1902SOL    HW2 9041   0.422   2.723   5.550
 1903SOL     OW 9042   1.505   2.099   3.828
 1903SOL    HW1 9043   1.419   2.052   3.810
 1903SOL    HW2 9044   1.545   2.066   3.913
 1904SOL     OW 9045   1.333   2.720   3.870
 1904SOL    HW1 9046   1.371   2.631   3.894
 1904SOL    HW2 9047   1.398   2.792   3.893
 1905SOL     OW 9048   0.325   2.665   4.657
 1905SOL    HW1 9049   0.413   2.709   4.677
 1905SOL    HW2 9050   0.337   2.566   4.655
 1906SOL     OW 9051   0.382   2.398   4.691
 1906SOL    HW1 9052   0.318   2.322   4.681
 1906SOL    HW2 9053   0.470   2.372   4.651
 1907SOL     OW 9054   1.340   2.392   5.428
 1907SOL    HW1 9055   1.248   2.388   5.468
 1907SOL    HW2 9056   1.354   2.311   5.371
 1908SOL     OW 9057   6.318   3.153   3.976
 1908SOL    HW1 9058   6.255   3.212   3.926
 1908SOL    HW2 9059   6.321   3.063   3.932
 1909SOL     OW 9060   0.441   3.374   4.589
 1909SOL    HW1 9061   0.510   3.435   4.626
 1909SOL    HW2 9062   0.427   3.394   4.492
 1910SOL     OW 9063   6.482   2.466   4.935
 1910SOL    HW1 9064   0.049   2.540   4.926
 1910SOL    HW2 9065   6.457   2.456   5.032
 1911SOL     OW 9066   0.805   2.504   4.077
 1911SOL    HW1 9067   0.839   2.513   3.984
 1911SOL    HW2 9068   0.708   2.529   4.081
 1912SOL     OW 9069   1.634   2.512   4.924
 1912SOL    HW1 9070   1.574   2.452   4.976
 1912SOL    HW2 9071   1.729   2.488   4.943
 1913SOL     OW 9072   0.291   3.405   5.590
 1913SOL    HW1 9073   0.212   3.437   5.642
 1913SOL    HW2 9074   0.305   3.308   5.608
 1914SOL     OW 9075   0.422   2.409   3.900
 1914SOL    HW1 9076   0.488   2.470   3.944
 1914SOL    HW2 9077   0.331   2.450   3.903
 1915SOL     OW 9078   0.059   2.903   5.255
 1915SOL    HW1 9079   0.082   2.861   5.342
 1915SOL    HW2 9080   0.117   2.864   5.183
 1916SOL     OW 9081   1.230   2.794   4.122
 1916SOL    HW1 9082   1.144   2.760   4.160
 1916SOL    HW2 9083   1.244   2.756   4.030
 1917SOL     OW 9084   1.765   3.585   4.872
 1917SOL    HW1 9085   1.835   3.621   4.810
 1917SOL    HW2 9086   1.695   3.537   4.819
 1918SOL     OW 9087   1.360   3.628   4.853
 1918SOL    HW1 9088   1.324   3.599   4.764
 1918SOL    HW2 9089   1.371   3.549   4.912
 1919SOL     OW 9090   0.761   3.533   5.404
 1919SOL    HW1 9091   0.726   3.607   5.461
 1919SOL    HW2 9092   0.715   3.535   5.315
 1920SOL     OW 9093   1.364   3.508   4.191
 1920SOL    HW1 9094   1.454   3.538   4.158
 1920SOL    HW2 9095   1.309   3.587   4.215
 1921SOL     OW 9096   0.074   3.671   5.588
 1921SOL    HW1 9097   0.024   3.595   5.629
 1921SOL    HW2 9098   0.141   3.705   5.653
 1922SOL     OW 9099   1.353   2.825   4.416
 1922SOL    HW1 9100   1.402   2.744   4.382
 1922SOL    HW2 9101   1.340   2.890   4.342
 1923SOL     OW 9102   0.862   3.245   5.180
 1923SOL    HW1 9103   0.784   3.243   5.243
 1923SOL    HW2 9104   0.832   3.281   5.091
 1924SOL     OW 9105   1.611   3.570   5.109
 1924SOL    HW1 9106   1.676   3.582   5.034
 1924SOL    HW2 9107   1.602   3.656   5.159
 1925SOL     OW 9108   1.844   2.038   4.704
 1925SOL    HW1 9109   1.904   1.967   4.665
 1925SOL    HW2 9110   1.752   2.027   4.668
 1926SOL     OW 9111   0.240   2.173   4.407
 1926SOL    HW1 9112   0.150   2.176   4.363
 1926SOL    HW2 9113   0.230   2.184   4.505
 1927SOL     OW 9114   1.234   3.451   3.737
 1927SOL    HW1 9115   1.200   3.391   3.809
 1927SOL    HW2 9116   1.191   3.541   3.745
 1928SOL     OW 9117   0.898   2.858   4.001
 1928SOL    HW1 9118   0.955   2.842   3.920
 1928SOL    HW2 9119   0.928   2.799   4.075
 1929SOL     OW 9120   1.497   3.538   3.712
 1929SOL    HW1 9121   1.404   3.503   3.710
 1929SOL    HW2 9122   1.539   3.528   3.622
 1930SOL     OW 9123   0.259   3.106   5.265
 1930SOL    HW1 9124   0.265   3.127   5.167
 1930SOL    HW2 9125   0.178   3.050   5.282
 1931SOL     OW 9126   1.500   3.175   5.035
 1931SOL    HW1 9127   1.580   3.179   5.095
 1931SOL    HW2 9128   1.459   3.266   5.030
 1932SOL     OW 9129   1.774   2.232   5.109
 1932SOL    HW1 9130   1.817   2.315   5.071
 1932SOL    HW2 9131   1.772   2.161   5.039
 1933SOL     OW 9132   0.097   3.062   3.980
 1933SOL    HW1 9133   0.005   3.093   4.007
 1933SOL    HW2 9134   0.113   2.971   4.018
 1934SOL     OW 9135   0.139   2.788   5.493
 1934SOL    HW1 9136   0.109   2.721   5.561
 1934SOL    HW2 9137   0.223   2.833   5.526
 1935SOL     OW 9138   6.412   2.375   3.744
 1935SOL    HW1 9139   6.393   2.286   3.703
 1935SOL    HW2 9140   6.494   2.414   3.702
 1936SOL     OW 9141   1.396   2.757   5.092
 1936SOL    HW1 9142   1.359   2.847   5.070
 1936SOL    HW2 9143   1.495   2.758   5.081
 1937SOL     OW 9144   0.046   1.996   4.046
 1937SOL    HW1 9145   0.027   2.049   4.128
 1937SOL    HW2 9146   0.142   1.969   4.044
 1938SOL     OW 9147   1.137   3.273   3.930
 1938SOL    HW1 9148   1.042   3.244   3.919
 1938SOL    HW2 9149   1.159   3.278   4.028
 1939SOL     OW 9150   0.608   2.576   5.199
 1939SOL    HW1 9151   0.685   2.638   5.181
 1939SOL    HW2 9152   0.618   2.494   5.142
 1940SOL     OW 9153   0.371   3.546   5.369
 1940SOL    HW1 9154   0.283   3.571   5.328
 1940SOL    HW2 9155   0.356   3.483   5.444
 1941SOL     OW 9156   1.661   2.765   5.045
 1941SOL    HW1 9157   1.669   2.678   4.997
 1941SOL    HW2 9158   1.657   2.839   4.977
 1942SOL     OW 9159   0.587   2.558   4.422
 1942SOL    HW1 9160   0.631   2.643   4.393
 1942SOL    HW2 9161   0.502   2.546   4.371
 1943SOL     OW 9162   1.611   2.862   5.301
 1943SOL    HW1 9163   1.664   2.818   5.373
 1943SOL    HW2 9164   1.644   2.831   5.212
 1944SOL     OW 9165   0.839   3.230   3.917
 1944SOL    HW1 9166   0.769   3.228   3.989
 1944SOL    HW2 9167   0.827   3.313   3.862
 1945SOL     OW 9168   0.808   2.796   4.634
 1945SOL    HW1 9169   0.722   2.748   4.648
 1945SOL    HW2 9170   0.813   2.874   4.697
 1946SOL     OW 9171   1.076   2.769   3.805
 1946SOL    HW1 9172   1.066   2.834   3.729
 1946SOL    HW2 9173   1.173   2.750   3.820
 1947SOL     OW 9174   0.289   3.133   5.691
 1947SOL    HW1 9175   0.278   3.037   5.718
 1947SOL    HW2 9176   0.239   3.191   5.754
 1948SOL     OW 9177   0.654   3.274   5.347
 1948SOL    HW1 9178   0.571   3.235   5.387
 1948SOL    HW2 9179   0.678   3.359   5.394
 1949SOL     OW 9180   1.770   1.997   4.962
 1949SOL    HW1 9181   1.795   1.900   4.974
 1949SOL    HW2 9182   1.797   2.027   4.871
 1950SOL     OW 9183   0.394   2.308   4.227
 1950SOL    HW1 9184   0.427   2.246   4.156
 1950SOL    HW2 9185   0.345   2.256   4.297
 1951SOL     OW 9186   1.608   3.377   4.771
 1951SOL    HW1 9187   1.517   3.336   4.773
 1951SOL    HW2 9188   1.671   3.321   4.824
 1952SOL     OW 9189   0.352   2.426   4.964
 1952SOL    HW1 9190   0.444   2.399   4.992
 1952SOL    HW2 9191   0.342   2.415   4.865
 1953SOL     OW 9192   1.388   2.086   4.824
 1953SOL    HW1 9193   1.338   2.015   4.875
 1953SOL    HW2 9194   1.354   2.176   4.852
 1954SOL     OW 9195   0.551   3.367   4.990
 1954SOL    HW1 9196   0.550   3.426   5.071
 1954SOL    HW2 9197   0.645   3.353   4.960
 1955SOL     OW 9198   1.580   2.035   4.638
 1955SOL    HW1 9199   1.511   2.057   4.707
 1955SOL    HW2 9200   1.588   2.111   4.574
 1956SOL     OW 9201   0.160   2.804   4.065
 1956SOL    HW1 9202   0.176   2.737   3.993
 1956SOL    HW2 9203   0.121   2.757   4.145
 1957SOL     OW 9204   6.458   2.471   6.114
 1957SOL    HW1 9205   6.367   2.503   6.141
 1957SOL    HW2 9206   0.004   2.433   6.194
 1958SOL     OW 9207   1.444   3.232   6.310
 1958SOL    HW1 9208   1.400   3.169   6.246
 1958SOL    HW2 9209   1.456   3.321   6.266
 1959SOL     OW 9210   1.114   2.620   6.150
 1959SOL    HW1 9211   1.168   2.702   6.167
 1959SOL    HW2 9212   1.111   2.564   6.232
 1960SOL     OW 9213   1.583   2.434   6.440
 1960SOL    HW1 9214   1.574   2.370   6.363
 1960SOL    HW2 9215   1.589   2.527   6.404
 1961SOL     OW 9216   0.275   3.509   6.110
 1961SOL    HW1 9217   0.269   3.596   6.158
 1961SOL    HW2 9218   0.309   3.524   6.017
 1962SOL     OW 9219   0.111   3.294   6.141
 1962SOL    HW1 9220   0.183   3.362   6.132
 1962SOL    HW2 9221   0.030   3.335   6.184
 1963SOL     OW 9222   0.657   2.842   5.729
 1963SOL    HW1 9223   0.665   2.902   5.650
 1963SOL    HW2 9224   0.747   2.830   5.771
 1964SOL     OW 9225   1.817   3.608   5.889
 1964SOL    HW1 9226   1.886   3.579   5.955
 1964SOL    HW2 9227   1.833   3.702   5.862
 1965SOL     OW 9228   6.453   3.464   5.711
 1965SOL    HW1 9229   6.424   3.371   5.690
 1965SOL    HW2 9230   6.398   3.501   5.785
 1966SOL     OW 9231   1.584   2.969   6.054
 1966SOL    HW1 9232   1.485   2.986   6.062
 1966SOL    HW2 9233   1.633   3.055   6.067
 1967SOL     OW 9234   0.497   3.392   6.330
 1967SOL    HW1 9235   0.428   3.347   6.274
 1967SOL    HW2 9236   0.565   3.435   6.271
 1968SOL     OW 9237   0.799   1.944   6.122
 1968SOL    HW1 9238   0.842   1.980   6.040
 1968SOL    HW2 9239   0.703   1.970   6.124
 1969SOL     OW 9240   1.574   2.844   5.741
 1969SOL    HW1 9241   1.484   2.840   5.783
 1969SOL    HW2 9242   1.644   2.827   5.811
 1970SOL     OW 9243   1.694   3.664   6.206
 1970SOL    HW1 9244   1.602   3.624   6.206
 1970SOL    HW2 9245   1.759   3.598   6.243
 1971SOL     OW 9246   0.578   2.610   5.855
 1971SOL    HW1 9247   0.601   2.691   5.802
 1971SOL    HW2 9248   0.561   2.635   5.950
 1972SOL     OW 9249   1.335   2.164   6.473
 1972SOL    HW1 9250   1.288   2.203   0.052
 1972SOL    HW2 9251   1.431   2.147   6.496
 1973SOL     OW 9252   1.565   3.509   5.897
 1973SOL    HW1 9253   1.656   3.547   5.908
 1973SOL    HW2 9254   1.510   3.570   5.840
 1974SOL     OW 9255   0.971   2.551   5.934
 1974SOL    HW1 9256   1.017   2.574   6.020
 1974SOL    HW2 9257   0.907   2.475   5.950
 1975SOL     OW 9258   0.915   3.402   6.112
 1975SOL    HW1 9259   0.983   3.376   6.044
 1975SOL    HW2 9260   0.938   3.360   6.200
 1976SOL     OW 9261   0.373   3.610   6.446
 1976SOL    HW1 9262   0.418   3.528   6.410
 1976SOL    HW2 9263   0.427   3.648   0.021
 1977SOL     OW 9264   1.196   3.657   5.789
 1977SOL    HW1 9265   1.114   3.708   5.812
 1977SOL    HW2 9266   1.172   3.562   5.770
 1978SOL     OW 9267   0.406   3.614   5.889
 1978SOL    HW1 9268   0.455   3.663   5.961
 1978SOL    HW2 9269   0.471   3.572   5.826
 1979SOL     OW 9270   1.495   2.073   5.902
 1979SOL    HW1 9271   1.423   2.038   5.842
 1979SOL    HW2 9272   1.538   1.996   5.950
 1980SOL     OW 9273   0.487   2.418   6.174
 1980SOL    HW1 9274   0.468   2.343   6.110
 1980SOL    HW2 9275   0.528   2.381   6.257
 1981SOL     OW 9276   0.737   1.883   5.769
 1981SOL    HW1 9277   0.804   1.938   5.818
 1981SOL    HW2 9278   0.759   1.882   5.672
 1982SOL     OW 9279   0.534   1.996   6.120
 1982SOL    HW1 9280   0.462   1.971   6.183
 1982SOL    HW2 9281   0.507   2.078   6.068
 1983SOL     OW 9282   0.462   1.892   5.780
 1983SOL    HW1 9283   0.561   1.906   5.781
 1983SOL    HW2 9284   0.436   1.835   5.859
 1984SOL     OW 9285   0.367   3.028   6.375
 1984SOL    HW1 9286   0.425   2.969   6.432
 1984SOL    HW2 9287   0.367   2.994   6.281
 1985SOL     OW 9288   1.253   3.677   6.228
 1985SOL    HW1 9289   1.311   3.726   6.162
 1985SOL    HW2 9290   1.163   3.720   6.233
 1986SOL     OW 9291   1.107   2.397   5.567
 1986SOL    HW1 9292   1.033   2.461   5.548
 1986SOL    HW2 9293   1.138   2.408   5.662
 1987SOL     OW 9294   0.812   2.294   6.185
 1987SOL    HW1 9295   0.907   2.318   6.205
 1987SOL    HW2 9296   0.799   2.287   6.086
 1988SOL     OW 9297   1.397   2.539   5.661
 1988SOL    HW1 9298   1.336   2.499   5.730
 1988SOL    HW2 9299   1.396   2.482   5.579
 1989SOL     OW 9300   0.788   2.992   6.013
 1989SOL    HW1 9301   0.699   3.000   5.968
 1989SOL    HW2 9302   0.847   2.931   5.960
 1990SOL     OW 9303   1.199   2.433   5.825
 1990SOL    HW1 9304   1.238   2.370   5.892
 1990SOL    HW2 9305   1.124   2.484   5.866
 1991SOL     OW 9306   0.330   1.915   6.288
 1991SOL    HW1 9307   0.273   1.985   6.332
 1991SOL    HW2 9308   0.355   1.845   6.355
 1992SOL     OW 9309   1.712   2.223   5.805
 1992SOL    HW1 9310   1.628   2.179   5.837
 1992SOL    HW2 9311   1.732   2.303   5.862
 1993SOL     OW 9312   1.328   2.109   5.524
 1993SOL    HW1 9313   1.312   2.051   5.604
 1993SOL    HW2 9314   1.372   2.194   5.553
 1994SOL     OW 9315   1.294   2.780   5.587
 1994SOL    HW1 9316   1.346   2.697   5.604
 1994SOL    HW2 9317   1.349   2.843   5.532
 1995SOL     OW 9318   0.990   3.250   6.329
 1995SOL    HW1 9319   0.943   3.166   6.301
 1995SOL    HW2 9320   1.078   3.227   6.370
 1996SOL     OW 9321   6.369   3.203   5.777
 1996SOL    HW1 9322   6.275   3.210   5.811
 1996SOL    HW2 9323   6.408   3.115   5.804
 1997SOL     OW 9324   0.106   3.656   0.001
 1997SOL    HW1 9325   0.075   3.582   0.060
 1997SOL    HW2 9326   0.202   3.642   6.478
 1998SOL     OW 9327   0.576   2.350   5.789
 1998SOL    HW1 9328   0.573   2.448   5.810
 1998SOL    HW2 9329   0.547   2.335   5.694
 1999SOL     OW 9330   1.325   2.816   5.860
 1999SOL    HW1 9331   1.277   2.749   5.917
 1999SOL    HW2 9332   1.295   2.806   5.765
 2000SOL     OW 9333   1.843   2.086   6.151
 2000SOL    HW1 9334   1.856   2.064   6.054
 2000SOL    HW2 9335   1.877   2.009   6.206
 2001SOL     OW 9336   1.456   3.483   6.170
 2001SOL    HW1 9337   1.483   3.490   6.074
 2001SOL    HW2 9338   1.380   3.545   6.188
 2002SOL     OW 9339   1.824   1.997   0.090
 2002SOL    HW1 9340   1.822   1.899   0.073
 2002SOL    HW2 9341   1.733   2.036   0.077
 2003SOL     OW 9342   1.162   3.389   5.720
 2003SOL    HW1 9343   1.246   3.346   5.689
 2003SOL    HW2 9344   1.097   3.394   5.644
 2004SOL     OW 9345   0.904   2.804   5.844
 2004SOL    HW1 9346   0.954   2.818   5.759
 2004SOL    HW2 9347   0.926   2.713   5.880
 2005SOL     OW 9348   1.504   3.484   5.544
 2005SOL    HW1 9349   1.460   3.400   5.577
 2005SOL    HW2 9350   1.570   3.461   5.472
 2006SOL     OW 9351   0.678   3.520   6.179
 2006SOL    HW1 9352   0.761   3.482   6.137
 2006SOL    HW2 9353   0.646   3.597   6.124
 2007SOL     OW 9354   0.134   3.265   5.866
 2007SOL    HW1 9355   0.042   3.270   5.829
 2007SOL    HW2 9356   0.131   3.276   5.965
 2008SOL     OW 9357   1.297   2.249   6.003
 2008SOL    HW1 9358   1.377   2.197   5.974
 2008SOL    HW2 9359   1.268   2.217   6.094
 2009SOL     OW 9360   0.544   2.679   6.126
 2009SOL    HW1 9361   0.635   2.689   6.166
 2009SOL    HW2 9362   0.509   2.587   6.145
 2010SOL     OW 9363   0.869   3.159   5.601
 2010SOL    HW1 9364   0.831   3.176   5.692
 2010SOL    HW2 9365   0.918   3.240   5.570
 2011SOL     OW 9366   0.636   3.679   0.093
 2011SOL    HW1 9367   0.582   3.763   0.094
 2011SOL    HW2 9368   0.699   3.680   0.016
 2012SOL     OW 9369   1.060   2.913   6.360
 2012SOL    HW1 9370   1.057   2.886   6.456
 2012SOL    HW2 9371   0.972   2.951   6.332
 2013SOL     OW 9372   1.025   2.802   5.599
 2013SOL    HW1 9373   0.984   2.849   5.521
 2013SOL    HW2 9374   1.125   2.802   5.590
 2014SOL     OW 9375   0.016   3.024   6.140
 2014SOL    HW1 9376   0.057   2.977   6.218
 2014SOL    HW2 9377   0.048   3.119   6.138
 2015SOL     OW 9378   0.801   3.659   6.384
 2015SOL    HW1 9379   0.884   3.701   6.346
 2015SOL    HW2 9380   0.758   3.601   6.315
 2016SOL     OW 9381   1.303   1.948   5.748
 2016SOL    HW1 9382   1.364   1.876   5.715
 2016SOL    HW2 9383   1.224   1.907   5.793
 2017SOL     OW 9384   6.472   2.964   5.871
 2017SOL    HW1 9385   0.057   2.930   5.830
 2017SOL    HW2 9386   6.486   2.981   5.968
 2018SOL     OW 9387   6.472   4.053   0.605
 2018SOL    HW1 9388   6.417   3.974   0.631
 2018SOL    HW2 9389   6.496   4.047   0.508
 2019SOL     OW 9390   1.766   4.362   0.197
 2019SOL    HW1 9391   1.699   4.352   0.124
 2019SOL    HW2 9392   1.724   4.338   0.285
 2020SOL     OW 9393   0.910   4.494   1.744
 2020SOL    HW1 9394   0.956   4.512   1.831
 2020SOL    HW2 9395   0.968   4.523   1.668
 2021SOL     OW 9396   0.592   4.825   1.848
 2021SOL    HW1 9397   0.601   4.901   1.784
 2021SOL    HW2 9398   0.503   4.781   1.835
 2022SOL     OW 9399   0.331   5.155   1.059
 2022SOL    HW1 9400   0.235   5.140   1.037
 2022SOL    HW2 9401   0.372   5.216   0.990
 2023SOL     OW 9402   1.485   5.291   1.326
 2023SOL    HW1 9403   1.517   5.355   1.396
 2023SOL    HW2 9404   1.415   5.231   1.365
 2024SOL     OW 9405   1.632   4.199   0.805
 2024SOL    HW1 9406   1.665   4.271   0.745
 2024SOL    HW2 9407   1.565   4.237   0.870
 2025SOL     OW 9408   0.688   4.613   0.219
 2025SOL    HW1 9409   0.733   4.624   0.130
 2025SOL    HW2 9410   0.710   4.691   0.277
 2026SOL     OW 9411   0.214   4.149   0.694
 2026SOL    HW1 9412   0.127   4.114   0.660
 2026SOL    HW2 9413   0.207   4.248   0.706
 2027SOL     OW 9414   0.057   5.304   0.136
 2027SOL    HW1 9415   0.045   5.206   0.150
 2027SOL    HW2 9416   6.480   5.353   0.176
 2028SOL     OW 9417   1.605   4.847   0.340
 2028SOL    HW1 9418   1.688   4.861   0.285
 2028SOL    HW2 9419   1.596   4.922   0.406
 2029SOL     OW 9420   0.178   4.472   1.623
 2029SOL    HW1 9421   0.276   4.486   1.636
 2029SOL    HW2 9422   0.151   4.505   1.532
 2030SOL     OW 9423   1.350   5.106   1.481
 2030SOL    HW1 9424   1.331   5.036   1.413
 2030SOL    HW2 9425   1.419   5.072   1.546
 2031SOL     OW 9426   0.147   4.585   1.365
 2031SOL    HW1 9427   0.146   4.558   1.269
 2031SOL    HW2 9428   0.054   4.601   1.396
 2032SOL     OW 9429   1.412   4.752   0.179
 2032SOL    HW1 9430   1.359   4.678   0.220
 2032SOL    HW2 9431   1.483   4.782   0.243
 2033SOL     OW 9432   1.046   5.566   1.528
 2033SOL    HW1 9433   1.083   5.636   1.466
 2033SOL    HW2 9434   1.105   5.486   1.527
 2034SOL     OW 9435   0.224   3.990   1.908
 2034SOL    HW1 9436   0.258   4.080   1.935
 2034SOL    HW2 9437   0.125   3.986   1.917
 2035SOL     OW 9438   1.634   5.613   0.459
 2035SOL    HW1 9439   1.616   5.556   0.378
 2035SOL    HW2 9440   1.582   5.577   0.536
 2036SOL     OW 9441   0.655   4.381   0.355
 2036SOL    HW1 9442   0.672   4.471   0.317
 2036SOL    HW2 9443   0.559   4.355   0.340
 2037SOL     OW 9444   1.228   3.948   0.883
 2037SOL    HW1 9445   1.141   3.921   0.923
 2037SOL    HW2 9446   1.301   3.936   0.952
 2038SOL     OW 9447   1.605   5.459   0.235
 2038SOL    HW1 9448   1.699   5.440   0.206
 2038SOL    HW2 9449   1.541   5.435   0.162
 2039SOL     OW 9450   1.485   4.169   1.631
 2039SOL    HW1 9451   1.522   4.244   1.687
 2039SOL    HW2 9452   1.560   4.110   1.601
 2040SOL     OW 9453   1.043   4.592   1.493
 2040SOL    HW1 9454   0.968   4.538   1.455
 2040SOL    HW2 9455   1.024   4.689   1.479
 2041SOL     OW 9456   1.055   4.137   1.181
 2041SOL    HW1 9457   0.976   4.191   1.211
 2041SOL    HW2 9458   1.028   4.077   1.106
 2042SOL     OW 9459   1.153   4.302   0.387
 2042SOL    HW1 9460   1.151   4.245   0.470
 2042SOL    HW2 9461   1.061   4.311   0.350
 2043SOL     OW 9462   0.949   4.144   0.018
 2043SOL    HW1 9463   0.980   4.234   6.488
 2043SOL    HW2 9464   1.028   4.088   0.043
 2044SOL     OW 9465   1.647   4.326   1.791
 2044SOL    HW1 9466   1.678   4.418   1.816
 2044SOL    HW2 9467   1.724   4.274   1.756
 2045SOL     OW 9468   0.633   3.853   0.902
 2045SOL    HW1 9469   0.630   3.857   1.002
 2045SOL    HW2 9470   0.666   3.941   0.867
 2046SOL     OW 9471   1.020   5.273   0.491
 2046SOL    HW1 9472   0.976   5.332   0.424
 2046SOL    HW2 9473   1.017   5.318   0.581
 2047SOL     OW 9474   0.217   5.459   0.850
 2047SOL    HW1 9475   0.229   5.381   0.788
 2047SOL    HW2 9476   0.219   5.544   0.797
 2048SOL     OW 9477   1.192   5.339   1.485
 2048SOL    HW1 9478   1.244   5.256   1.506
 2048SOL    HW2 9479   1.198   5.357   1.387
 2049SOL     OW 9480   1.097   5.532   0.155
 2049SOL    HW1 9481   1.027   5.488   0.212
 2049SOL    HW2 9482   1.134   5.465   0.091
 2050SOL     OW 9483   1.649   5.171   0.118
 2050SOL    HW1 9484   1.578   5.234   0.085
 2050SOL    HW2 9485   1.613   5.078   0.118
 2051SOL     OW 9486   0.575   5.396   0.348
 2051SOL    HW1 9487   0.574   5.495   0.359
 2051SOL    HW2 9488   0.613   5.372   0.258
 2052SOL     OW 9489   0.359   5.467   1.084
 2052SOL    HW1 9490   0.449   5.425   1.074
 2052SOL    HW2 9491   0.309   5.461   0.998
 2053SOL     OW 9492   0.708   4.086   1.672
 2053SOL    HW1 9493   0.800   4.072   1.708
 2053SOL    HW2 9494   0.649   4.010   1.701
 2054SOL     OW 9495   0.778   4.088   0.828
 2054SOL    HW1 9496   0.833   4.160   0.786
 2054SOL    HW2 9497   0.831   4.044   0.901
 2055SOL     OW 9498   0.545   3.825   0.505
 2055SOL    HW1 9499   0.459   3.873   0.488
 2055SOL    HW2 9500   0.615   3.890   0.535
 2056SOL     OW 9501   1.434   4.984   0.031
 2056SOL    HW1 9502   1.433   4.892   0.070
 2056SOL    HW2 9503   1.351   5.032   0.058
 2057SOL     OW 9504   1.245   5.577   0.638
 2057SOL    HW1 9505   1.239   5.607   0.542
 2057SOL    HW2 9506   1.154   5.577   0.678
 2058SOL     OW 9507   1.057   4.377   6.445
 2058SOL    HW1 9508   1.040   4.456   6.387
 2058SOL    HW2 9509   1.151   4.382   6.480
 2059SOL     OW 9510   0.119   4.252   1.287
 2059SOL    HW1 9511   0.199   4.205   1.325
 2059SOL    HW2 9512   0.053   4.268   1.360
 2060SOL     OW 9513   0.647   3.861   1.175
 2060SOL    HW1 9514   0.670   3.770   1.208
 2060SOL    HW2 9515   0.659   3.928   1.248
 2061SOL     OW 9516   0.988   3.777   0.786
 2061SOL    HW1 9517   1.065   3.784   0.722
 2061SOL    HW2 9518   0.977   3.682   0.814
 2062SOL     OW 9519   1.928   4.545   0.355
 2062SOL    HW1 9520   1.932   4.472   0.423
 2062SOL    HW2 9521   1.877   4.514   0.275
 2063SOL     OW 9522   1.563   5.042   0.530
 2063SOL    HW1 9523   1.618   5.086   0.601
 2063SOL    HW2 9524   1.467   5.039   0.558
 2064SOL     OW 9525   1.539   4.309   0.033
 2064SOL    HW1 9526   1.451   4.294   0.077
 2064SOL    HW2 9527   1.559   4.234   6.470
 2065SOL     OW 9528   0.478   4.091   0.282
 2065SOL    HW1 9529   0.577   4.098   0.295
 2065SOL    HW2 9530   0.440   4.182   0.267
 2066SOL     OW 9531   1.606   4.909   1.207
 2066SOL    HW1 9532   1.628   4.973   1.281
 2066SOL    HW2 9533   1.675   4.918   1.134
 2067SOL     OW 9534   0.948   3.849   1.439
 2067SOL    HW1 9535   0.965   3.828   1.343
 2067SOL    HW2 9536   1.024   3.902   1.476
 2068SOL     OW 9537   0.822   4.876   1.637
 2068SOL    HW1 9538   0.749   4.945   1.639
 2068SOL    HW2 9539   0.802   4.804   1.704
 2069SOL     OW 9540   0.837   4.818   0.372
 2069SOL    HW1 9541   0.784   4.809   0.457
 2069SOL    HW2 9542   0.902   4.742   0.365
 2070SOL     OW 9543   0.408   4.400   1.317
 2070SOL    HW1 9544   0.352   4.473   1.356
 2070SOL    HW2 9545   0.381   4.312   1.358
 2071SOL     OW 9546   1.281   4.087   1.332
 2071SOL    HW1 9547   1.325   4.172   1.362
 2071SOL    HW2 9548   1.200   4.108   1.278
 2072SOL     OW 9549   0.138   5.276   1.325
 2072SOL    HW1 9550   0.129   5.347   1.255
 2072SOL    HW2 9551   0.234   5.249   1.333
 2073SOL     OW 9552   0.440   4.814   0.499
 2073SOL    HW1 9553   0.438   4.881   0.425
 2073SOL    HW2 9554   0.370   4.745   0.484
 2074SOL     OW 9555   1.241   5.161   0.388
 2074SOL    HW1 9556   1.312   5.232   0.385
 2074SOL    HW2 9557   1.155   5.201   0.418
 2075SOL     OW 9558   1.192   5.112   1.101
 2075SOL    HW1 9559   1.251   5.053   1.157
 2075SOL    HW2 9560   1.100   5.075   1.099
 2076SOL     OW 9561   1.598   4.336   0.428
 2076SOL    HW1 9562   1.639   4.354   0.517
 2076SOL    HW2 9563   1.543   4.414   0.399
 2077SOL     OW 9564   0.407   5.211   1.318
 2077SOL    HW1 9565   0.385   5.190   1.223
 2077SOL    HW2 9566   0.503   5.238   1.325
 2078SOL     OW 9567   0.443   4.525   1.653
 2078SOL    HW1 9568   0.478   4.589   1.585
 2078SOL    HW2 9569   0.515   4.462   1.681
 2079SOL     OW 9570   0.942   3.946   1.739
 2079SOL    HW1 9571   1.014   3.968   1.674
 2079SOL    HW2 9572   0.887   3.870   1.704
 2080SOL     OW 9573   0.597   3.839   1.745
 2080SOL    HW1 9574   0.619   3.747   1.712
 2080SOL    HW2 9575   0.504   3.863   1.718
 2081SOL     OW 9576   1.278   4.269   0.129
 2081SOL    HW1 9577   1.256   4.182   0.085
 2081SOL    HW2 9578   1.241   4.270   0.222
 2082SOL     OW 9579   0.045   5.021   1.275
 2082SOL    HW1 9580   0.091   4.955   1.334
 2082SOL    HW2 9581   0.075   5.113   1.298
 2083SOL     OW 9582   1.723   4.587   1.859
 2083SOL    HW1 9583   1.664   4.612   1.782
 2083SOL    HW2 9584   1.679   4.617   1.944
 2084SOL     OW 9585   0.249   3.764   0.611
 2084SOL    HW1 9586   0.270   3.850   0.563
 2084SOL    HW2 9587   0.327   3.738   0.668
 2085SOL     OW 9588   0.344   4.710   1.827
 2085SOL    HW1 9589   0.309   4.676   1.915
 2085SOL    HW2 9590   0.374   4.632   1.771
 2086SOL     OW 9591   1.551   3.950   0.115
 2086SOL    HW1 9592   1.472   3.891   0.102
 2086SOL    HW2 9593   1.535   4.010   0.194
 2087SOL     OW 9594   0.269   4.530   0.859
 2087SOL    HW1 9595   0.363   4.499   0.842
 2087SOL    HW2 9596   0.243   4.507   0.953
 2088SOL     OW 9597   0.424   4.121   1.134
 2088SOL    HW1 9598   0.384   4.089   1.049
 2088SOL    HW2 9599   0.492   4.191   1.114
 2089SOL     OW 9600   1.283   4.065   1.776
 2089SOL    HW1 9601   1.252   4.132   1.844
 2089SOL    HW2 9602   1.359   4.104   1.724
 2090SOL     OW 9603   1.145   3.993   1.554
 2090SOL    HW1 9604   1.195   4.021   1.637
 2090SOL    HW2 9605   1.194   4.026   1.474
 2091SOL     OW 9606   0.036   5.027   0.154
 2091SOL    HW1 9607   6.478   5.029   0.073
 2091SOL    HW2 9608   0.009   4.950   0.213
 2092SOL     OW 9609   6.485   5.484   0.985
 2092SOL    HW1 9610   6.435   5.398   0.978
 2092SOL    HW2 9611   0.075   5.474   0.942
 2093SOL     OW 9612   0.467   5.290   0.866
 2093SOL    HW1 9613   0.495   5.384   0.848
 2093SOL    HW2 9614   0.506   5.230   0.796
 2094SOL     OW 9615   0.991   4.592   1.182
 2094SOL    HW1 9616   1.066   4.638   1.231
 2094SOL    HW2 9617   0.924   4.558   1.248
 2095SOL     OW 9618   0.062   4.170   1.030
 2095SOL    HW1 9619   0.145   4.123   1.001
 2095SOL    HW2 9620   0.070   4.195   1.126
 2096SOL     OW 9621   0.119   4.257   1.783
 2096SOL    HW1 9622   0.202   4.252   1.839
 2096SOL    HW2 9623   0.130   4.326   1.712
 2097SOL     OW 9624   0.910   4.328   0.270
 2097SOL    HW1 9625   0.906   4.277   0.184
 2097SOL    HW2 9626   0.819   4.337   0.309
 2098SOL     OW 9627   0.243   5.327   1.726
 2098SOL    HW1 9628   0.199   5.358   1.810
 2098SOL    HW2 9629   0.316   5.263   1.749
 2099SOL     OW 9630   0.799   4.252   1.256
 2099SOL    HW1 9631   0.776   4.169   1.306
 2099SOL    HW2 9632   0.721   4.280   1.200
 2100SOL     OW 9633   0.888   5.336   1.498
 2100SOL    HW1 9634   0.945   5.292   1.429
 2100SOL    HW2 9635   0.920   5.429   1.513
 2101SOL     OW 9636   0.184   4.851   1.445
 2101SOL    HW1 9637   0.158   4.856   1.541
 2101SOL    HW2 9638   0.179   4.756   1.414
 2102SOL     OW 9639   1.332   4.929   1.271
 2102SOL    HW1 9640   1.425   4.915   1.239
 2102SOL    HW2 9641   1.289   4.841   1.290
 2103SOL     OW 9642   1.275   4.526   0.280
 2103SOL    HW1 9643   1.237   4.455   0.340
 2103SOL    HW2 9644   1.299   4.485   0.192
 2104SOL     OW 9645   1.205   5.373   1.216
 2104SOL    HW1 9646   1.294   5.412   1.191
 2104SOL    HW2 9647   1.191   5.289   1.165
 2105SOL     OW 9648   0.063   5.070   0.999
 2105SOL    HW1 9649   0.048   5.032   1.090
 2105SOL    HW2 9650   0.075   4.996   0.933
 2106SOL     OW 9651   0.652   5.349   1.800
 2106SOL    HW1 9652   0.630   5.419   1.732
 2106SOL    HW2 9653   0.741   5.309   1.778
 2107SOL     OW 9654   1.415   5.368   0.414
 2107SOL    HW1 9655   1.493   5.381   0.352
 2107SOL    HW2 9656   1.442   5.396   0.507
 2108SOL     OW 9657   1.295   4.762   0.622
 2108SOL    HW1 9658   1.287   4.714   0.534
 2108SOL    HW2 9659   1.293   4.861   0.605
 2109SOL     OW 9660   0.695   5.343   0.108
 2109SOL    HW1 9661   0.710   5.427   0.055
 2109SOL    HW2 9662   0.653   5.274   0.049
 2110SOL     OW 9663   1.188   5.331   6.489
 2110SOL    HW1 9664   1.182   5.241   0.033
 2110SOL    HW2 9665   1.164   5.323   6.393
 2111SOL     OW 9666   0.999   4.600   0.330
 2111SOL    HW1 9667   1.095   4.601   0.301
 2111SOL    HW2 9668   0.957   4.513   0.306
 2112SOL     OW 9669   1.460   5.358   0.028
 2112SOL    HW1 9670   1.361   5.343   0.032
 2112SOL    HW2 9671   1.483   5.404   6.443
 2113SOL     OW 9672   0.440   4.945   1.435
 2113SOL    HW1 9673   0.440   5.034   1.388
 2113SOL    HW2 9674   0.347   4.911   1.441
 2114SOL     OW 9675   1.669   5.098   1.391
 2114SOL    HW1 9676   1.649   5.063   1.483
 2114SOL    HW2 9677   1.607   5.172   1.368
 2115SOL     OW 9678   1.081   4.773   0.817
 2115SOL    HW1 9679   1.050   4.687   0.858
 2115SOL    HW2 9680   1.157   4.754   0.754
 2116SOL     OW 9681   0.956   3.949   0.989
 2116SOL    HW1 9682   0.956   3.891   0.908
 2116SOL    HW2 9683   0.947   3.892   1.071
 2117SOL     OW 9684   0.692   5.294   0.588
 2117SOL    HW1 9685   0.728   5.212   0.544
 2117SOL    HW2 9686   0.643   5.349   0.520
 2118SOL     OW 9687   1.879   4.000   1.367
 2118SOL    HW1 9688   1.885   4.100   1.358
 2118SOL    HW2 9689   1.864   3.960   1.277
 2119SOL     OW 9690   0.310   4.992   0.209
 2119SOL    HW1 9691   0.218   5.018   0.180
 2119SOL    HW2 9692   0.351   5.069   0.260
 2120SOL     OW 9693   0.136   4.846   1.713
 2120SOL    HW1 9694   0.086   4.889   1.788
 2120SOL    HW2 9695   0.215   4.797   1.749
 2121SOL     OW 9696   0.738   4.026   1.399
 2121SOL    HW1 9697   0.810   3.958   1.411
 2121SOL    HW2 9698   0.709   4.060   1.489
 2122SOL     OW 9699   0.099   4.057   6.420
 2122SOL    HW1 9700   0.064   4.005   6.497
 2122SOL    HW2 9701   0.037   4.047   6.342
 2123SOL     OW 9702   0.065   4.012   0.356
 2123SOL    HW1 9703   0.043   3.970   0.268
 2123SOL    HW2 9704   0.160   3.991   0.380
 2124SOL     OW 9705   1.185   5.089   0.121
 2124SOL    HW1 9706   1.086   5.096   0.113
 2124SOL    HW2 9707   1.212   5.097   0.217
 2125SOL     OW 9708   0.657   4.363   1.715
 2125SOL    HW1 9709   0.744   4.407   1.733
 2125SOL    HW2 9710   0.671   4.265   1.702
 2126SOL     OW 9711   0.350   5.434   1.503
 2126SOL    HW1 9712   0.308   5.396   1.585
 2126SOL    HW2 9713   0.374   5.360   1.440
 2127SOL     OW 9714   1.671   4.642   1.221
 2127SOL    HW1 9715   1.707   4.617   1.131
 2127SOL    HW2 9716   1.640   4.737   1.219
 2128SOL     OW 9717   1.719   4.035   1.590
 2128SOL    HW1 9718   1.773   4.014   1.509
 2128SOL    HW2 9719   1.768   4.003   1.672
 2129SOL     OW 9720   0.922   5.153   0.071
 2129SOL    HW1 9721   0.855   5.207   0.122
 2129SOL    HW2 9722   0.916   5.176   6.474
 2130SOL     OW 9723   0.575   5.540   0.835
 2130SOL    HW1 9724   0.575   5.639   0.851
 2130SOL    HW2 9725   0.668   5.508   0.822
 2131SOL     OW 9726   0.588   5.021   1.657
 2131SOL    HW1 9727   0.535   4.995   1.576
 2131SOL    HW2 9728   0.536   5.086   1.711
 2132SOL     OW 9729   1.847   3.883   1.115
 2132SOL    HW1 9730   1.860   3.788   1.086
 2132SOL    HW2 9731   1.769   3.923   1.067
 2133SOL     OW 9732   0.321   3.994   0.479
 2133SOL    HW1 9733   0.376   4.033   0.406
 2133SOL    HW2 9734   0.304   4.063   0.549
 2134SOL     OW 9735   1.653   5.284   1.101
 2134SOL    HW1 9736   1.582   5.289   1.171
 2134SOL    HW2 9737   1.734   5.238   1.139
 2135SOL     OW 9738   1.402   3.952   1.097
 2135SOL    HW1 9739   1.432   3.887   1.166
 2135SOL    HW2 9740   1.361   4.032   1.142
 2136SOL     OW 9741   0.968   3.763   1.186
 2136SOL    HW1 9742   0.886   3.706   1.195
 2136SOL    HW2 9743   1.036   3.716   1.131
 2137SOL     OW 9744   0.809   5.094   0.444
 2137SOL    HW1 9745   0.820   4.999   0.414
 2137SOL    HW2 9746   0.900   5.136   0.454
 2138SOL     OW 9747   0.667   5.280   1.331
 2138SOL    HW1 9748   0.721   5.304   1.411
 2138SOL    HW2 9749   0.727   5.267   1.252
 2139SOL     OW 9750   1.321   3.783   0.090
 2139SOL    HW1 9751   1.309   3.713   0.020
 2139SOL    HW2 9752   1.311   3.742   0.181
 2140SOL     OW 9753   1.645   3.980   0.969
 2140SOL    HW1 9754   1.554   3.969   1.010
 2140SOL    HW2 9755   1.644   4.057   0.906
 2141SOL     OW 9756   0.185   4.744   0.207
 2141SOL    HW1 9757   0.241   4.827   0.206
 2141SOL    HW2 9758   0.194   4.699   0.296
 2142SOL     OW 9759   0.896   5.427   0.307
 2142SOL    HW1 9760   0.814   5.397   0.258
 2142SOL    HW2 9761   0.872   5.503   0.368
 2143SOL     OW 9762   0.186   4.445   2.040
 2143SOL    HW1 9763   0.142   4.428   2.129
 2143SOL    HW2 9764   0.117   4.476   1.974
 2144SOL     OW 9765   0.229   3.987   2.842
 2144SOL    HW1 9766   0.269   3.982   2.933
 2144SOL    HW2 9767   0.161   3.914   2.831
 2145SOL     OW 9768   6.422   4.164   2.590
 2145SOL    HW1 9769   6.365   4.241   2.561
 2145SOL    HW2 9770   6.379   4.078   2.560
 2146SOL     OW 9771   1.084   4.369   2.497
 2146SOL    HW1 9772   1.057   4.354   2.402
 2146SOL    HW2 9773   1.141   4.451   2.503
 2147SOL     OW 9774   0.676   4.872   2.909
 2147SOL    HW1 9775   0.582   4.903   2.900
 2147SOL    HW2 9776   0.739   4.950   2.899
 2148SOL     OW 9777   0.651   4.721   2.544
 2148SOL    HW1 9778   0.730   4.739   2.602
 2148SOL    HW2 9779   0.578   4.785   2.566
 2149SOL     OW 9780   1.405   5.250   3.233
 2149SOL    HW1 9781   1.474   5.323   3.233
 2149SOL    HW2 9782   1.447   5.164   3.260
 2150SOL     OW 9783   1.531   4.201   2.583
 2150SOL    HW1 9784   1.434   4.182   2.565
 2150SOL    HW2 9785   1.554   4.291   2.547
 2151SOL     OW 9786   0.326   5.377   2.316
 2151SOL    HW1 9787   0.260   5.429   2.370
 2151SOL    HW2 9788   0.381   5.439   2.260
 2152SOL     OW 9789   0.198   5.131   2.325
 2152SOL    HW1 9790   0.253   5.213   2.308
 2152SOL    HW2 9791   0.117   5.157   2.379
 2153SOL     OW 9792   0.205   4.793   2.712
 2153SOL    HW1 9793   0.212   4.697   2.741
 2153SOL    HW2 9794   0.129   4.836   2.761
 2154SOL     OW 9795   0.545   4.720   2.097
 2154SOL    HW1 9796   0.577   4.756   2.009
 2154SOL    HW2 9797   0.596   4.764   2.171
 2155SOL     OW 9798   1.800   3.829   3.346
 2155SOL    HW1 9799   1.800   3.922   3.310
 2155SOL    HW2 9800   1.725   3.818   3.412
 2156SOL     OW 9801   0.095   4.406   2.293
 2156SOL    HW1 9802   0.021   4.348   2.260
 2156SOL    HW2 9803   0.073   4.441   2.384
 2157SOL     OW 9804   1.647   4.895   2.253
 2157SOL    HW1 9805   1.724   4.908   2.190
 2157SOL    HW2 9806   1.670   4.935   2.342
 2158SOL     OW 9807   0.166   4.511   3.387
 2158SOL    HW1 9808   0.164   4.558   3.476
 2158SOL    HW2 9809   0.155   4.578   3.314
 2159SOL     OW 9810   0.612   5.107   2.624
 2159SOL    HW1 9811   0.555   5.026   2.635
 2159SOL    HW2 9812   0.580   5.160   2.546
 2160SOL     OW 9813   1.285   4.952   3.283
 2160SOL    HW1 9814   1.276   4.860   3.245
 2160SOL    HW2 9815   1.382   4.973   3.296
 2161SOL     OW 9816   0.840   3.697   2.415
 2161SOL    HW1 9817   0.899   3.756   2.359
 2161SOL    HW2 9818   0.746   3.731   2.412
 2162SOL     OW 9819   1.606   4.651   2.104
 2162SOL    HW1 9820   1.514   4.612   2.112
 2162SOL    HW2 9821   1.611   4.737   2.155
 2163SOL     OW 9822   0.493   3.851   3.672
 2163SOL    HW1 9823   0.502   3.939   3.626
 2163SOL    HW2 9824   0.407   3.850   3.723
 2164SOL     OW 9825   1.489   5.179   2.763
 2164SOL    HW1 9826   1.452   5.145   2.849
 2164SOL    HW2 9827   1.447   5.129   2.687
 2165SOL     OW 9828   1.660   5.394   2.329
 2165SOL    HW1 9829   1.683   5.439   2.243
 2165SOL    HW2 9830   1.732   5.328   2.353
 2166SOL     OW 9831   0.599   4.471   2.207
 2166SOL    HW1 9832   0.587   4.558   2.159
 2166SOL    HW2 9833   0.518   4.452   2.263
 2167SOL     OW 9834   1.283   4.083   2.806
 2167SOL    HW1 9835   1.203   4.026   2.827
 2167SOL    HW2 9836   1.362   4.049   2.858
 2168SOL     OW 9837   1.385   4.258   3.575
 2168SOL    HW1 9838   1.351   4.310   3.654
 2168SOL    HW2 9839   1.485   4.262   3.573
 2169SOL     OW 9840   0.933   4.713   3.485
 2169SOL    HW1 9841   0.946   4.614   3.482
 2169SOL    HW2 9842   0.885   4.742   3.403
 2170SOL     OW 9843   1.094   4.130   3.061
 2170SOL    HW1 9844   1.014   4.146   3.119
 2170SOL    HW2 9845   1.076   4.052   3.001
 2171SOL     OW 9846   0.054   4.519   2.535
 2171SOL    HW1 9847   0.110   4.510   2.618
 2171SOL    HW2 9848   0.056   4.614   2.503
 2172SOL     OW 9849   0.113   5.564   3.431
 2172SOL    HW1 9850   0.059   5.534   3.509
 2172SOL    HW2 9851   0.053   5.578   3.352
 2173SOL     OW 9852   0.954   3.893   2.015
 2173SOL    HW1 9853   0.969   3.928   1.922
 2173SOL    HW2 9854   0.858   3.865   2.024
 2174SOL     OW 9855   1.656   4.305   3.644
 2174SOL    HW1 9856   1.717   4.385   3.646
 2174SOL    HW2 9857   1.693   4.235   3.584
 2175SOL     OW 9858   1.384   4.930   2.338
 2175SOL    HW1 9859   1.476   4.917   2.301
 2175SOL    HW2 9860   1.333   4.991   2.278
 2176SOL     OW 9861   0.473   4.030   2.708
 2176SOL    HW1 9862   0.387   4.003   2.753
 2176SOL    HW2 9863   0.484   4.129   2.715
 2177SOL     OW 9864   0.986   5.125   2.293
 2177SOL    HW1 9865   0.946   5.208   2.254
 2177SOL    HW2 9866   0.960   5.117   2.389
 2178SOL     OW 9867   0.393   5.512   2.851
 2178SOL    HW1 9868   0.403   5.412   2.858
 2178SOL    HW2 9869   0.475   5.550   2.808
 2179SOL     OW 9870   1.756   4.818   2.891
 2179SOL    HW1 9871   1.701   4.855   2.816
 2179SOL    HW2 9872   1.696   4.791   2.966
 2180SOL     OW 9873   0.276   4.695   2.117
 2180SOL    HW1 9874   0.376   4.703   2.115
 2180SOL    HW2 9875   0.251   4.598   2.105
 2181SOL     OW 9876   1.347   4.491   2.575
 2181SOL    HW1 9877   1.344   4.431   2.654
 2181SOL    HW2 9878   1.428   4.471   2.520
 2182SOL     OW 9879   0.147   3.938   3.271
 2182SOL    HW1 9880   0.122   4.017   3.326
 2182SOL    HW2 9881   0.129   3.854   3.322
 2183SOL     OW 9882   1.563   5.105   1.858
 2183SOL    HW1 9883   1.524   5.197   1.866
 2183SOL    HW2 9884   1.497   5.038   1.891
 2184SOL     OW 9885   0.503   5.552   2.198
 2184SOL    HW1 9886   0.541   5.595   2.280
 2184SOL    HW2 9887   0.577   5.521   2.138
 2185SOL     OW 9888   0.923   5.388   2.711
 2185SOL    HW1 9889   1.022   5.378   2.727
 2185SOL    HW2 9890   0.892   5.321   2.645
 2186SOL     OW 9891   0.368   4.416   2.348
 2186SOL    HW1 9892   0.388   4.322   2.374
 2186SOL    HW2 9893   0.272   4.425   2.325
 2187SOL     OW 9894   0.688   3.814   2.003
 2187SOL    HW1 9895   0.682   3.719   2.033
 2187SOL    HW2 9896   0.656   3.822   1.909
 2188SOL     OW 9897   0.876   5.253   3.040
 2188SOL    HW1 9898   0.861   5.200   2.956
 2188SOL    HW2 9899   0.937   5.203   3.101
 2189SOL     OW 9900   0.817   5.093   2.825
 2189SOL    HW1 9901   0.903   5.060   2.788
 2189SOL    HW2 9902   0.750   5.102   2.750
 2190SOL     OW 9903   0.963   4.316   2.890
 2190SOL    HW1 9904   0.958   4.273   2.800
 2190SOL    HW2 9905   1.017   4.258   2.952
 2191SOL     OW 9906   0.581   3.803   2.420
 2191SOL    HW1 9907   0.484   3.824   2.424
 2191SOL    HW2 9908   0.630   3.859   2.487
 2192SOL     OW 9909   1.369   4.928   1.911
 2192SOL    HW1 9910   1.349   4.833   1.886
 2192SOL    HW2 9911   1.283   4.979   1.918
 2193SOL     OW 9912   0.291   3.794   2.101
 2193SOL    HW1 9913   0.313   3.863   2.032
 2193SOL    HW2 9914   0.376   3.755   2.138
 2194SOL     OW 9915   1.029   3.828   2.271
 2194SOL    HW1 9916   1.009   3.853   2.177
 2194SOL    HW2 9917   1.096   3.892   2.309
 2195SOL     OW 9918   1.198   5.384   2.690
 2195SOL    HW1 9919   1.226   5.429   2.605
 2195SOL    HW2 9920   1.267   5.399   2.760
 2196SOL     OW 9921   0.438   4.888   2.585
 2196SOL    HW1 9922   0.365   4.863   2.648
 2196SOL    HW2 9923   0.401   4.890   2.491
 2197SOL     OW 9924   1.263   5.544   2.458
 2197SOL    HW1 9925   1.313   5.615   2.409
 2197SOL    HW2 9926   1.181   5.583   2.499
 2198SOL     OW 9927   1.003   3.761   2.640
 2198SOL    HW1 9928   0.939   3.761   2.563
 2198SOL    HW2 9929   0.981   3.686   2.702
 2199SOL     OW 9930   1.381   4.342   2.815
 2199SOL    HW1 9931   1.337   4.252   2.814
 2199SOL    HW2 9932   1.470   4.335   2.858
 2200SOL     OW 9933   1.911   4.632   2.175
 2200SOL    HW1 9934   1.944   4.578   2.252
 2200SOL    HW2 9935   1.821   4.600   2.148
 2201SOL     OW 9936   1.730   5.008   2.496
 2201SOL    HW1 9937   1.738   4.912   2.524
 2201SOL    HW2 9938   1.732   5.066   2.577
 2202SOL     OW 9939   1.016   5.067   3.214
 2202SOL    HW1 9940   0.939   5.049   3.274
 2202SOL    HW2 9941   1.101   5.038   3.259
 2203SOL     OW 9942   1.633   5.279   3.597
 2203SOL    HW1 9943   1.582   5.336   3.532
 2203SOL    HW2 9944   1.724   5.260   3.561
 2204SOL     OW 9945   1.140   4.955   2.994
 2204SOL    HW1 9946   1.082   4.997   3.064
 2204SOL    HW2 9947   1.095   4.961   2.905
 2205SOL     OW 9948   1.582   4.741   3.099
 2205SOL    HW1 9949   1.573   4.714   3.195
 2205SOL    HW2 9950   1.491   4.755   3.060
 2206SOL     OW 9951   0.827   3.783   3.218
 2206SOL    HW1 9952   0.890   3.771   3.141
 2206SOL    HW2 9953   0.863   3.852   3.280
 2207SOL     OW 9954   1.014   4.819   3.727
 2207SOL    HW1 9955   0.998   4.918   3.726
 2207SOL    HW2 9956   0.987   4.779   3.639
 2208SOL     OW 9957   0.693   4.831   2.292
 2208SOL    HW1 9958   0.684   4.780   2.378
 2208SOL    HW2 9959   0.790   4.834   2.265
 2209SOL     OW 9960   0.415   4.618   3.183
 2209SOL    HW1 9961   0.472   4.631   3.264
 2209SOL    HW2 9962   0.403   4.521   3.165
 2210SOL     OW 9963   0.309   4.885   2.336
 2210SOL    HW1 9964   0.272   4.977   2.324
 2210SOL    HW2 9965   0.306   4.836   2.249
 2211SOL     OW 9966   0.516   4.296   2.753
 2211SOL    HW1 9967   0.509   4.368   2.684
 2211SOL    HW2 9968   0.588   4.319   2.818
 2212SOL     OW 9969   1.240   5.129   2.197
 2212SOL    HW1 9970   1.298   5.203   2.230
 2212SOL    HW2 9971   1.151   5.132   2.243
 2213SOL     OW 9972   1.373   5.101   2.993
 2213SOL    HW1 9973   1.374   5.158   3.075
 2213SOL    HW2 9974   1.289   5.046   2.992
 2214SOL     OW 9975   0.942   3.931   3.418
 2214SOL    HW1 9976   1.004   4.009   3.420
 2214SOL    HW2 9977   0.986   3.852   3.462
 2215SOL     OW 9978   0.518   3.642   3.503
 2215SOL    HW1 9979   0.455   3.569   3.532
 2215SOL    HW2 9980   0.509   3.720   3.565
 2216SOL     OW 9981   0.633   4.617   3.006
 2216SOL    HW1 9982   0.649   4.706   2.963
 2216SOL    HW2 9983   0.548   4.622   3.060
 2217SOL     OW 9984   1.292   4.595   2.833
 2217SOL    HW1 9985   1.306   4.618   2.736
 2217SOL    HW2 9986   1.323   4.502   2.850
 2218SOL     OW 9987   0.698   4.355   2.952
 2218SOL    HW1 9988   0.795   4.348   2.931
 2218SOL    HW2 9989   0.676   4.450   2.974
 2219SOL     OW 9990   0.317   3.867   2.441
 2219SOL    HW1 9991   0.268   3.945   2.480
 2219SOL    HW2 9992   0.262   3.784   2.450
 2220SOL     OW 9993   1.610   4.264   2.254
 2220SOL    HW1 9994   1.628   4.168   2.273
 2220SOL    HW2 9995   1.539   4.272   2.184
 2221SOL     OW 9996   1.016   4.573   2.814
 2221SOL    HW1 9997   1.115   4.584   2.829
 2221SOL    HW2 9998   0.988   4.481   2.842
 2222SOL     OW 9999   1.872   5.223   3.484
 2222SOL    HW110000   1.892   5.289   3.411
 2222SOL    HW210001   1.951   5.164   3.499
 2223SOL     OW10002   0.191   4.640   3.629
 2223SOL    HW110003   0.188   4.624   3.728
 2223SOL    HW210004   0.282   4.672   3.602
 2224SOL     OW10005   1.329   4.662   1.850
 2224SOL    HW110006   1.354   4.611   1.932
 2224SOL    HW210007   1.390   4.636   1.775
 2225SOL     OW10008   0.243   4.518   2.745
 2225SOL    HW110009   0.328   4.517   2.693
 2225SOL    HW210010   0.237   4.434   2.800
 2226SOL     OW10011   0.287   4.263   2.891
 2226SOL    HW110012   0.250   4.173   2.868
 2226SOL    HW210013   0.373   4.277   2.842
 2227SOL     OW10014   1.161   4.116   3.509
 2227SOL    HW110015   1.091   4.165   3.560
 2227SOL    HW210016   1.249   4.161   3.521
 2228SOL     OW10017   6.500   4.932   1.946
 2228SOL    HW110018   6.414   4.917   1.896
 2228SOL    HW210019   6.498   4.880   2.031
 2229SOL     OW10020   0.530   5.261   2.850
 2229SOL    HW110021   0.586   5.318   2.910
 2229SOL    HW210022   0.577   5.247   2.763
 2230SOL     OW10023   0.031   4.166   3.051
 2230SOL    HW110024   0.128   4.149   3.070
 2230SOL    HW210025   6.484   4.188   3.136
 2231SOL     OW10026   0.781   4.269   2.181
 2231SOL    HW110027   0.731   4.191   2.141
 2231SOL    HW210028   0.718   4.346   2.192
 2232SOL     OW10029   1.617   4.309   2.949
 2232SOL    HW110030   1.612   4.217   2.989
 2232SOL    HW210031   1.712   4.342   2.953
 2233SOL     OW10032   0.183   5.254   3.595
 2233SOL    HW110033   0.235   5.336   3.621
 2233SOL    HW210034   0.233   5.173   3.624
 2234SOL     OW10035   0.018   4.871   3.265
 2234SOL    HW110036   6.493   4.831   3.353
 2234SOL    HW210037   0.079   4.809   3.216
 2235SOL     OW10038   1.293   4.739   3.059
 2235SOL    HW110039   1.294   4.685   2.975
 2235SOL    HW210040   1.237   4.821   3.045
 2236SOL     OW10041   1.323   4.544   2.102
 2236SOL    HW110042   1.327   4.575   2.197
 2236SOL    HW210043   1.230   4.555   2.067
 2237SOL     OW10044   1.829   5.423   3.063
 2237SOL    HW110045   1.882   5.438   2.980
 2237SOL    HW210046   1.808   5.326   3.073
 2238SOL     OW10047   1.229   5.398   3.066
 2238SOL    HW110048   1.287   5.409   2.985
 2238SOL    HW210049   1.277   5.344   3.135
 2239SOL     OW10050   6.493   4.927   2.814
 2239SOL    HW110051   6.455   4.931   2.907
 2239SOL    HW210052   6.469   5.010   2.764
 2240SOL     OW10053   1.384   5.352   2.300
 2240SOL    HW110054   1.483   5.356   2.313
 2240SOL    HW210055   1.339   5.410   2.368
 2241SOL     OW10056   0.021   5.519   3.707
 2241SOL    HW110057   6.488   5.438   3.754
 2241SOL    HW210058   0.108   5.549   3.747
 2242SOL     OW10059   1.323   4.655   2.348
 2242SOL    HW110060   1.323   4.612   2.438
 2242SOL    HW210061   1.338   4.753   2.358
 2243SOL     OW10062   0.763   5.040   3.370
 2243SOL    HW110063   0.797   5.086   3.452
 2243SOL    HW210064   0.670   5.072   3.349
 2244SOL     OW10065   0.721   5.474   2.037
 2244SOL    HW110066   0.817   5.495   2.016
 2244SOL    HW210067   0.681   5.425   1.959
 2245SOL     OW10068   1.594   5.436   3.275
 2245SOL    HW110069   1.672   5.475   3.226
 2245SOL    HW210070   1.554   5.505   3.335
 2246SOL     OW10071   0.183   4.072   2.575
 2246SOL    HW110072   0.093   4.116   2.565
 2246SOL    HW210073   0.198   4.049   2.671
 2247SOL     OW10074   0.775   4.789   3.266
 2247SOL    HW110075   0.770   4.786   3.166
 2247SOL    HW210076   0.769   4.884   3.297
 2248SOL     OW10077   1.437   5.342   1.871
 2248SOL    HW110078   1.383   5.377   1.948
 2248SOL    HW210079   1.418   5.397   1.790
 2249SOL     OW10080   0.255   5.094   3.275
 2249SOL    HW110081   0.217   5.126   3.188
 2249SOL    HW210082   0.187   5.037   3.322
 2250SOL     OW10083   1.071   3.920   2.868
 2250SOL    HW110084   1.050   3.888   2.775
 2250SOL    HW210085   1.052   3.847   2.933
 2251SOL     OW10086   0.551   5.238   2.400
 2251SOL    HW110087   0.588   5.189   2.321
 2251SOL    HW210088   0.468   5.287   2.373
 2252SOL     OW10089   1.839   4.085   3.230
 2252SOL    HW110090   1.893   4.168   3.212
 2252SOL    HW210091   1.848   4.023   3.152
 2253SOL     OW10092   6.460   4.734   3.499
 2253SOL    HW110093   6.389   4.783   3.550
 2253SOL    HW210094   0.037   4.714   3.559
 2254SOL     OW10095   6.456   4.111   1.942
 2254SOL    HW110096   6.390   4.063   1.885
 2254SOL    HW210097   0.015   4.168   1.885
 2255SOL     OW10098   0.064   3.900   2.213
 2255SOL    HW110099   0.069   3.999   2.225
 2255SOL    HW210100   0.155   3.865   2.190
 2256SOL     OW10101   0.596   4.637   3.399
 2256SOL    HW110102   0.661   4.693   3.349
 2256SOL    HW210103   0.641   4.553   3.430
 2257SOL     OW10104   0.376   5.588   3.481
 2257SOL    HW110105   0.284   5.582   3.442
 2257SOL    HW210106   0.382   5.527   3.560
 2258SOL     OW10107   1.822   4.598   3.148
 2258SOL    HW110108   1.834   4.521   3.086
 2258SOL    HW210109   1.734   4.643   3.129
 2259SOL     OW10110   0.472   4.508   2.585
 2259SOL    HW110111   0.541   4.579   2.571
 2259SOL    HW210112   0.434   4.481   2.497
 2260SOL     OW10113   1.736   4.104   3.484
 2260SOL    HW110114   1.764   4.113   3.389
 2260SOL    HW210115   1.677   4.024   3.494
 2261SOL     OW10116   1.905   4.596   3.417
 2261SOL    HW110117   1.945   4.688   3.421
 2261SOL    HW210118   1.860   4.583   3.329
 2262SOL     OW10119   0.685   5.544   2.750
 2262SOL    HW110120   0.717   5.638   2.766
 2262SOL    HW210121   0.764   5.483   2.742
 2263SOL     OW10122   0.862   4.773   2.722
 2263SOL    HW110123   0.913   4.691   2.750
 2263SOL    HW210124   0.791   4.792   2.790
 2264SOL     OW10125   0.088   4.782   2.457
 2264SOL    HW110126   0.100   4.800   2.555
 2264SOL    HW210127   0.168   4.814   2.407
 2265SOL     OW10128   1.896   3.878   3.066
 2265SOL    HW110129   1.894   3.826   3.151
 2265SOL    HW210130   1.877   3.818   2.989
 2266SOL     OW10131   0.399   4.163   2.426
 2266SOL    HW110132   0.458   4.084   2.413
 2266SOL    HW210133   0.320   4.137   2.482
 2267SOL     OW10134   0.366   4.362   3.137
 2267SOL    HW110135   0.324   4.314   3.213
 2267SOL    HW210136   0.334   4.323   3.050
 2268SOL     OW10137   0.843   5.220   2.513
 2268SOL    HW110138   0.826   5.276   2.432
 2268SOL    HW210139   0.758   5.174   2.540
 2269SOL     OW10140   1.489   4.011   2.981
 2269SOL    HW110141   1.479   3.917   3.012
 2269SOL    HW210142   1.439   4.072   3.043
 2270SOL     OW10143   1.010   3.703   3.022
 2270SOL    HW110144   0.975   3.631   2.961
 2270SOL    HW210145   1.095   3.672   3.064
 2271SOL     OW10146   0.661   5.086   2.200
 2271SOL    HW110147   0.660   4.996   2.243
 2271SOL    HW210148   0.710   5.082   2.114
 2272SOL     OW10149   1.258   4.162   2.548
 2272SOL    HW110150   1.193   4.237   2.534
 2272SOL    HW210151   1.255   4.132   2.644
 2273SOL     OW10152   1.667   4.044   2.761
 2273SOL    HW110153   1.613   4.023   2.842
 2273SOL    HW210154   1.615   4.104   2.701
 2274SOL     OW10155   0.005   4.764   2.168
 2274SOL    HW110156   0.098   4.735   2.146
 2274SOL    HW210157   6.496   4.774   2.267
 2275SOL     OW10158   0.853   5.374   2.270
 2275SOL    HW110159   0.788   5.382   2.195
 2275SOL    HW210160   0.874   5.465   2.306
 2276SOL     OW10161   6.438   4.124   4.352
 2276SOL    HW110162   6.433   4.179   4.269
 2276SOL    HW210163   6.365   4.055   4.352
 2277SOL     OW10164   1.524   5.115   4.330
 2277SOL    HW110165   1.475   5.106   4.416
 2277SOL    HW210166   1.483   5.187   4.275
 2278SOL     OW10167   1.195   4.449   4.604
 2278SOL    HW110168   1.191   4.511   4.525
 2278SOL    HW210169   1.123   4.380   4.595
 2279SOL     OW10170   1.562   4.214   3.881
 2279SOL    HW110171   1.605   4.249   3.798
 2279SOL    HW210172   1.604   4.257   3.961
 2280SOL     OW10173   0.749   4.852   4.796
 2280SOL    HW110174   0.786   4.923   4.856
 2280SOL    HW210175   0.811   4.773   4.796
 2281SOL     OW10176   0.982   4.473   5.550
 2281SOL    HW110177   0.990   4.506   5.644
 2281SOL    HW210178   1.021   4.541   5.487
 2282SOL     OW10179   0.763   4.814   4.503
 2282SOL    HW110180   0.858   4.785   4.517
 2282SOL    HW210181   0.729   4.861   4.584
 2283SOL     OW10182   0.711   4.979   5.441
 2283SOL    HW110183   0.764   4.914   5.496
 2283SOL    HW210184   0.614   4.963   5.456
 2284SOL     OW10185   0.173   5.139   4.769
 2284SOL    HW110186   0.099   5.157   4.705
 2284SOL    HW210187   0.257   5.182   4.736
 2285SOL     OW10188   0.510   4.095   5.203
 2285SOL    HW110189   0.576   4.027   5.235
 2285SOL    HW210190   0.419   4.071   5.237
 2286SOL     OW10191   1.593   4.249   4.332
 2286SOL    HW110192   1.536   4.294   4.263
 2286SOL    HW210193   1.554   4.262   4.423
 2287SOL     OW10194   0.304   5.445   4.116
 2287SOL    HW110195   0.243   5.521   4.137
 2287SOL    HW210196   0.388   5.481   4.075
 2288SOL     OW10197   0.254   5.201   4.210
 2288SOL    HW110198   0.270   5.293   4.175
 2288SOL    HW210199   0.166   5.198   4.257
 2289SOL     OW10200   0.222   4.808   4.564
 2289SOL    HW110201   0.266   4.722   4.589
 2289SOL    HW210202   0.168   4.842   4.642
 2290SOL     OW10203   0.563   5.579   5.122
 2290SOL    HW110204   0.599   5.507   5.180
 2290SOL    HW210205   0.593   5.668   5.156
 2291SOL     OW10206   0.554   4.694   3.825
 2291SOL    HW110207   0.517   4.698   3.733
 2291SOL    HW210208   0.641   4.744   3.829
 2292SOL     OW10209   1.566   3.794   5.259
 2292SOL    HW110210   1.518   3.881   5.248
 2292SOL    HW210211   1.641   3.806   5.325
 2293SOL     OW10212   0.114   4.393   4.266
 2293SOL    HW110213   0.025   4.379   4.221
 2293SOL    HW210214   0.102   4.458   4.342
 2294SOL     OW10215   6.455   5.325   3.902
 2294SOL    HW110216   6.487   5.230   3.910
 2294SOL    HW210217   6.355   5.325   3.903
 2295SOL     OW10218   1.758   4.583   4.436
 2295SOL    HW110219   1.831   4.552   4.496
 2295SOL    HW210220   1.783   4.564   4.341
 2296SOL     OW10221   0.299   4.776   4.961
 2296SOL    HW110222   0.380   4.747   4.910
 2296SOL    HW210223   0.233   4.818   4.898
 2297SOL     OW10224   1.229   5.595   5.452
 2297SOL    HW110225   1.305   5.604   5.387
 2297SOL    HW210226   1.192   5.502   5.446
 2298SOL     OW10227   0.436   3.941   5.588
 2298SOL    HW110228   0.460   4.018   5.646
 2298SOL    HW210229   0.403   3.974   5.499
 2299SOL     OW10230   1.404   5.078   4.571
 2299SOL    HW110231   1.489   5.107   4.616
 2299SOL    HW210232   1.384   4.983   4.596
 2300SOL     OW10233   1.634   5.445   4.376
 2300SOL    HW110234   1.617   5.484   4.285
 2300SOL    HW210235   1.686   5.360   4.367
 2301SOL     OW10236   0.585   4.511   4.025
 2301SOL    HW110237   0.582   4.575   3.949
 2301SOL    HW210238   0.577   4.561   4.112
 2302SOL     OW10239   1.081   4.661   5.373
 2302SOL    HW110240   1.176   4.690   5.366
 2302SOL    HW210241   1.052   4.622   5.286
 2303SOL     OW10242   0.836   4.004   4.933
 2303SOL    HW110243   0.766   4.075   4.936
 2303SOL    HW210244   0.891   4.014   4.850
 2304SOL     OW10245   0.079   4.540   4.500
 2304SOL    HW110246   0.165   4.549   4.549
 2304SOL    HW210247   0.023   4.622   4.514
 2305SOL     OW10248   0.251   5.552   5.362
 2305SOL    HW110249   0.269   5.455   5.343
 2305SOL    HW210250   0.161   5.577   5.327
 2306SOL     OW10251   1.712   4.328   5.527
 2306SOL    HW110252   1.710   4.427   5.511
 2306SOL    HW210253   1.622   4.289   5.508
 2307SOL     OW10254   1.181   4.814   4.195
 2307SOL    HW110255   1.164   4.774   4.105
 2307SOL    HW210256   1.215   4.908   4.184
 2308SOL     OW10257   0.573   3.904   4.628
 2308SOL    HW110258   0.568   3.900   4.727
 2308SOL    HW210259   0.530   3.988   4.595
 2309SOL     OW10260   0.985   5.219   4.206
 2309SOL    HW110261   0.993   5.305   4.156
 2309SOL    HW210262   0.925   5.231   4.285
 2310SOL     OW10263   0.299   5.471   4.649
 2310SOL    HW110264   0.340   5.380   4.659
 2310SOL    HW210265   0.371   5.540   4.647
 2311SOL     OW10266   1.760   4.798   4.617
 2311SOL    HW110267   1.746   4.726   4.548
 2311SOL    HW210268   1.679   4.806   4.674
 2312SOL     OW10269   1.372   5.323   5.273
 2312SOL    HW110270   1.287   5.316   5.326
 2312SOL    HW210271   1.398   5.419   5.265
 2313SOL     OW10272   0.278   4.631   3.899
 2313SOL    HW110273   0.369   4.673   3.891
 2313SOL    HW210274   0.288   4.533   3.914
 2314SOL     OW10275   1.482   4.543   4.410
 2314SOL    HW110276   1.473   4.459   4.463
 2314SOL    HW210277   1.576   4.576   4.414
 2315SOL     OW10278   0.444   4.902   5.484
 2315SOL    HW110279   0.422   4.933   5.391
 2315SOL    HW210280   0.368   4.926   5.545
 2316SOL     OW10281   1.224   5.416   4.004
 2316SOL    HW110282   1.134   5.444   4.035
 2316SOL    HW210283   1.216   5.346   3.933
 2317SOL     OW10284   1.532   5.031   3.674
 2317SOL    HW110285   1.573   5.121   3.657
 2317SOL    HW210286   1.467   5.038   3.750
 2318SOL     OW10287   0.550   5.550   4.039
 2318SOL    HW110288   0.563   5.584   4.132
 2318SOL    HW210289   0.624   5.487   4.016
 2319SOL     OW10290   1.446   3.812   4.123
 2319SOL    HW110291   1.422   3.806   4.027
 2319SOL    HW210292   1.522   3.750   4.143
 2320SOL     OW10293   0.087   5.473   4.850
 2320SOL    HW110294   0.181   5.470   4.816
 2320SOL    HW210295   0.024   5.470   4.772
 2321SOL     OW10296   1.420   3.985   5.431
 2321SOL    HW110297   1.475   3.956   5.509
 2321SOL    HW210298   1.349   3.916   5.413
 2322SOL     OW10299   0.740   3.809   3.780
 2322SOL    HW110300   0.781   3.728   3.739
 2322SOL    HW210301   0.650   3.825   3.739
 2323SOL     OW10302   0.827   3.867   5.531
 2323SOL    HW110303   0.909   3.845   5.477
 2323SOL    HW210304   0.845   3.948   5.586
 2324SOL     OW10305   1.006   4.251   4.574
 2324SOL    HW110306   0.956   4.243   4.488
 2324SOL    HW210307   1.001   4.164   4.623
 2325SOL     OW10308   0.303   3.732   3.842
 2325SOL    HW110309   0.290   3.792   3.920
 2325SOL    HW210310   0.367   3.659   3.866
 2326SOL     OW10311   1.099   4.111   4.216
 2326SOL    HW110312   1.074   4.077   4.126
 2326SOL    HW210313   1.176   4.058   4.252
 2327SOL     OW10314   1.151   5.178   4.534
 2327SOL    HW110315   1.143   5.251   4.465
 2327SOL    HW210316   1.248   5.154   4.545
 2328SOL     OW10317   0.400   5.023   4.554
 2328SOL    HW110318   0.339   4.944   4.552
 2328SOL    HW210319   0.430   5.045   4.462
 2329SOL     OW10320   1.004   4.290   3.662
 2329SOL    HW110321   0.913   4.270   3.699
 2329SOL    HW210322   1.070   4.298   3.737
 2330SOL     OW10323   0.152   4.210   5.205
 2330SOL    HW110324   0.203   4.277   5.152
 2330SOL    HW210325   0.056   4.211   5.177
 2331SOL     OW10326   0.543   3.903   4.907
 2331SOL    HW110327   0.607   3.849   4.963
 2331SOL    HW210328   0.559   4.000   4.923
 2332SOL     OW10329   1.032   3.752   4.590
 2332SOL    HW110330   0.980   3.719   4.511
 2332SOL    HW210331   1.124   3.714   4.588
 2333SOL     OW10332   1.356   4.808   4.633
 2333SOL    HW110333   1.341   4.736   4.700
 2333SOL    HW210334   1.322   4.779   4.544
 2334SOL     OW10335   1.427   4.315   4.554
 2334SOL    HW110336   1.417   4.220   4.584
 2334SOL    HW210337   1.343   4.365   4.574
 2335SOL     OW10338   0.617   5.093   3.955
 2335SOL    HW110339   0.524   5.059   3.970
 2335SOL    HW210340   0.623   5.134   3.864
 2336SOL     OW10341   1.349   4.377   3.824
 2336SOL    HW110342   1.262   4.342   3.859
 2336SOL    HW210343   1.423   4.316   3.851
 2337SOL     OW10344   1.765   4.943   5.303
 2337SOL    HW110345   1.844   4.906   5.254
 2337SOL    HW210346   1.775   5.042   5.311
 2338SOL     OW10347   1.589   5.261   5.430
 2338SOL    HW110348   1.516   5.276   5.363
 2338SOL    HW210349   1.676   5.247   5.382
 2339SOL     OW10350   1.560   4.863   4.806
 2339SOL    HW110351   1.535   4.933   4.872
 2339SOL    HW210352   1.486   4.853   4.739
 2340SOL     OW10353   0.747   3.784   5.060
 2340SOL    HW110354   0.804   3.705   5.038
 2340SOL    HW210355   0.789   3.867   5.023
 2341SOL     OW10356   0.779   4.814   4.215
 2341SOL    HW110357   0.793   4.837   4.312
 2341SOL    HW210358   0.838   4.873   4.159
 2342SOL     OW10359   0.068   5.309   5.077
 2342SOL    HW110360   0.065   5.374   5.002
 2342SOL    HW210361   0.150   5.252   5.069
 2343SOL     OW10362   1.237   5.093   4.123
 2343SOL    HW110363   1.308   5.160   4.140
 2343SOL    HW210364   1.149   5.127   4.157
 2344SOL     OW10365   1.436   4.400   4.168
 2344SOL    HW110366   1.445   4.474   4.235
 2344SOL    HW210367   1.353   4.413   4.115
 2345SOL     OW10368   0.299   5.176   5.026
 2345SOL    HW110369   0.262   5.144   4.940
 2345SOL    HW210370   0.368   5.246   5.009
 2346SOL     OW10371   0.424   4.529   5.236
 2346SOL    HW110372   0.488   4.589   5.189
 2346SOL    HW210373   0.473   4.451   5.275
 2347SOL     OW10374   1.051   3.864   5.368
 2347SOL    HW110375   1.071   3.962   5.362
 2347SOL    HW210376   1.136   3.812   5.357
 2348SOL     OW10377   0.541   3.680   5.537
 2348SOL    HW110378   0.477   3.639   5.472
 2348SOL    HW210379   0.516   3.776   5.552
 2349SOL     OW10380   0.527   4.685   4.821
 2349SOL    HW110381   0.588   4.762   4.802
 2349SOL    HW210382   0.577   4.600   4.808
 2350SOL     OW10383   1.332   4.590   4.800
 2350SOL    HW110384   1.282   4.532   4.735
 2350SOL    HW210385   1.414   4.542   4.831
 2351SOL     OW10386   1.119   4.272   3.913
 2351SOL    HW110387   1.081   4.184   3.939
 2351SOL    HW210388   1.094   4.341   3.980
 2352SOL     OW10389   0.333   3.826   4.317
 2352SOL    HW110390   0.277   3.872   4.386
 2352SOL    HW210391   0.417   3.791   4.358
 2353SOL     OW10392   1.829   5.209   5.307
 2353SOL    HW110393   1.851   5.248   5.217
 2353SOL    HW210394   1.910   5.215   5.366
 2354SOL     OW10395   1.566   3.961   3.761
 2354SOL    HW110396   1.513   3.893   3.811
 2354SOL    HW210397   1.565   4.047   3.811
 2355SOL     OW10398   1.377   4.651   3.813
 2355SOL    HW110399   1.375   4.551   3.811
 2355SOL    HW210400   1.457   4.684   3.763
 2356SOL     OW10401   1.058   4.973   4.682
 2356SOL    HW110402   1.038   4.894   4.624
 2356SOL    HW210403   1.082   5.051   4.624
 2357SOL     OW10404   0.326   4.569   4.639
 2357SOL    HW110405   0.397   4.604   4.700
 2357SOL    HW210406   0.328   4.469   4.641
 2358SOL     OW10407   0.318   4.294   4.640
 2358SOL    HW110408   0.236   4.242   4.666
 2358SOL    HW210409   0.377   4.237   4.583
 2359SOL     OW10410   1.107   4.142   5.363
 2359SOL    HW110411   1.022   4.182   5.398
 2359SOL    HW210412   1.130   4.185   5.275
 2360SOL     OW10413   6.474   5.037   3.946
 2360SOL    HW110414   6.387   5.014   3.902
 2360SOL    HW210415   0.013   4.954   3.986
 2361SOL     OW10416   0.028   5.480   4.570
 2361SOL    HW110417   0.012   5.407   4.503
 2361SOL    HW210418   0.126   5.487   4.589
 2362SOL     OW10419   1.342   4.748   5.367
 2362SOL    HW110420   1.414   4.802   5.411
 2362SOL    HW210421   1.347   4.761   5.268
 2363SOL     OW10422   0.760   4.302   4.027
 2363SOL    HW110423   0.815   4.296   4.110
 2363SOL    HW210424   0.696   4.378   4.034
 2364SOL     OW10425   0.243   5.188   5.512
 2364SOL    HW110426   0.182   5.189   5.433
 2364SOL    HW210427   0.230   5.103   5.563
 2365SOL     OW10428   0.380   4.366   3.914
 2365SOL    HW110429   0.464   4.408   3.948
 2365SOL    HW210430   0.333   4.320   3.989
 2366SOL     OW10431   0.181   4.783   5.212
 2366SOL    HW110432   0.197   4.701   5.267
 2366SOL    HW210433   0.224   4.772   5.122
 2367SOL     OW10434   0.688   5.433   5.316
 2367SOL    HW110435   0.640   5.497   5.376
 2367SOL    HW210436   0.721   5.355   5.370
 2368SOL     OW10437   1.434   5.301   4.150
 2368SOL    HW110438   1.524   5.342   4.133
 2368SOL    HW210439   1.363   5.358   4.108
 2369SOL     OW10440   1.237   4.663   4.417
 2369SOL    HW110441   1.329   4.625   4.405
 2369SOL    HW210442   1.213   4.717   4.337
 2370SOL     OW10443   0.767   4.871   5.174
 2370SOL    HW110444   0.749   4.923   5.258
 2370SOL    HW210445   0.808   4.932   5.106
 2371SOL     OW10446   0.735   5.352   3.968
 2371SOL    HW110447   0.723   5.335   3.870
 2371SOL    HW210448   0.704   5.273   4.020
 2372SOL     OW10449   2.007   3.877   4.863
 2372SOL    HW110450   1.985   3.796   4.809
 2372SOL    HW210451   1.923   3.923   4.890
 2373SOL     OW10452   0.171   4.022   4.470
 2373SOL    HW110453   0.097   4.055   4.412
 2373SOL    HW210454   0.144   4.030   4.566
 2374SOL     OW10455   1.594   5.392   3.852
 2374SOL    HW110456   1.530   5.469   3.849
 2374SOL    HW210457   1.610   5.358   3.760
 2375SOL     OW10458   0.347   5.000   5.246
 2375SOL    HW110459   0.340   5.065   5.170
 2375SOL    HW210460   0.281   4.926   5.233
 2376SOL     OW10461   1.010   4.729   4.564
 2376SOL    HW110462   0.992   4.668   4.641
 2376SOL    HW210463   1.091   4.698   4.515
 2377SOL     OW10464   1.013   4.004   4.718
 2377SOL    HW110465   1.011   3.917   4.668
 2377SOL    HW210466   1.097   4.010   4.772
 2378SOL     OW10467   0.247   5.104   3.950
 2378SOL    HW110468   0.151   5.077   3.941
 2378SOL    HW210469   0.265   5.136   4.043
 2379SOL     OW10470   0.052   4.758   5.503
 2379SOL    HW110471   0.028   4.814   5.423
 2379SOL    HW210472   0.120   4.689   5.475
 2380SOL     OW10473   0.679   3.912   5.299
 2380SOL    HW110474   0.721   3.857   5.226
 2380SOL    HW210475   0.726   3.893   5.386
 2381SOL     OW10476   0.147   4.013   3.741
 2381SOL    HW110477   0.062   4.063   3.759
 2381SOL    HW210478   0.222   4.079   3.730
 2382SOL     OW10479   1.285   4.612   5.073
 2382SOL    HW110480   1.300   4.623   4.975
 2382SOL    HW210481   1.367   4.573   5.115
 2383SOL     OW10482   0.049   3.866   3.950
 2383SOL    HW110483   0.075   3.914   3.866
 2383SOL    HW210484   0.127   3.862   4.012
 2384SOL     OW10485   1.323   5.007   3.870
 2384SOL    HW110486   1.305   4.911   3.849
 2384SOL    HW210487   1.302   5.024   3.966
 2385SOL     OW10488   0.605   4.667   5.096
 2385SOL    HW110489   0.666   4.740   5.129
 2385SOL    HW210490   0.574   4.689   5.004
 2386SOL     OW10491   1.551   4.886   5.470
 2386SOL    HW110492   1.565   4.921   5.562
 2386SOL    HW210493   1.626   4.917   5.411
 2387SOL     OW10494   1.696   4.678   4.947
 2387SOL    HW110495   1.648   4.594   4.926
 2387SOL    HW210496   1.654   4.754   4.897
 2388SOL     OW10497   0.657   4.554   4.522
 2388SOL    HW110498   0.691   4.648   4.511
 2388SOL    HW210499   0.611   4.526   4.438
 2389SOL     OW10500   1.681   4.695   5.220
 2389SOL    HW110501   1.694   4.788   5.254
 2389SOL    HW210502   1.705   4.691   5.123
 2390SOL     OW10503   0.982   5.099   3.777
 2390SOL    HW110504   0.946   5.068   3.865
 2390SOL    HW210505   1.067   5.150   3.792
 2391SOL     OW10506   0.716   5.514   4.520
 2391SOL    HW110507   0.656   5.560   4.585
 2391SOL    HW210508   0.808   5.553   4.525
 2392SOL     OW10509   1.146   4.703   3.935
 2392SOL    HW110510   1.085   4.742   3.866
 2392SOL    HW210511   1.234   4.682   3.894
 2393SOL     OW10512   0.218   4.944   5.638
 2393SOL    HW110513   0.152   4.878   5.605
 2393SOL    HW210514   0.198   4.967   5.734
 2394SOL     OW10515   0.439   4.100   4.488
 2394SOL    HW110516   0.498   4.084   4.409
 2394SOL    HW210517   0.345   4.075   4.464
 2395SOL     OW10518   0.877   5.033   4.027
 2395SOL    HW110519   0.779   5.048   4.013
 2395SOL    HW210520   0.911   5.097   4.096
 2396SOL     OW10521   1.407   3.756   3.856
 2396SOL    HW110522   1.458   3.680   3.815
 2396SOL    HW210523   1.314   3.757   3.817
 2397SOL     OW10524   0.106   4.817   4.047
 2397SOL    HW110525   0.155   4.750   3.991
 2397SOL    HW210526   0.136   4.809   4.142
 2398SOL     OW10527   0.964   5.458   4.073
 2398SOL    HW110528   0.886   5.423   4.022
 2398SOL    HW210529   0.935   5.532   4.133
 2399SOL     OW10530   6.427   4.017   6.210
 2399SOL    HW110531   6.340   4.066   6.210
 2399SOL    HW210532   6.458   4.005   6.116
 2400SOL     OW10533   1.590   5.078   6.318
 2400SOL    HW110534   1.532   5.045   6.392
 2400SOL    HW210535   1.538   5.142   6.261
 2401SOL     OW10536   1.797   4.296   5.796
 2401SOL    HW110537   1.764   4.308   5.702
 2401SOL    HW210538   1.736   4.236   5.846
 2402SOL     OW10539   0.873   4.885   0.107
 2402SOL    HW110540   0.862   4.871   0.205
 2402SOL    HW210541   0.887   4.983   0.088
 2403SOL     OW10542   0.624   4.778   6.319
 2403SOL    HW110543   0.682   4.729   6.385
 2403SOL    HW210544   0.560   4.837   6.368
 2404SOL     OW10545   1.484   4.257   6.212
 2404SOL    HW110546   1.400   4.253   6.158
 2404SOL    HW210547   1.494   4.349   6.250
 2405SOL     OW10548   0.334   5.452   6.115
 2405SOL    HW110549   0.295   5.516   6.182
 2405SOL    HW210550   0.306   5.479   6.023
 2406SOL     OW10551   0.278   5.182   6.085
 2406SOL    HW110552   0.294   5.279   6.100
 2406SOL    HW210553   0.253   5.138   6.171
 2407SOL     OW10554   1.799   5.501   5.908
 2407SOL    HW110555   1.885   5.471   5.949
 2407SOL    HW210556   1.811   5.592   5.867
 2408SOL     OW10557   1.747   4.601   6.247
 2408SOL    HW110558   1.845   4.583   6.259
 2408SOL    HW210559   1.733   4.650   6.162
 2409SOL     OW10560   1.714   4.748   6.014
 2409SOL    HW110561   1.777   4.725   5.940
 2409SOL    HW210562   1.738   4.837   6.052
 2410SOL     OW10563   0.598   5.163   6.416
 2410SOL    HW110564   0.551   5.080   6.447
 2410SOL    HW210565   0.575   5.181   6.321
 2411SOL     OW10566   1.477   4.797   5.873
 2411SOL    HW110567   1.403   4.729   5.879
 2411SOL    HW210568   1.552   4.769   5.933
 2412SOL     OW10569   1.709   5.494   6.181
 2412SOL    HW110570   1.736   5.486   6.085
 2412SOL    HW210571   1.754   5.422   6.235
 2413SOL     OW10572   0.620   4.329   5.911
 2413SOL    HW110573   0.674   4.409   5.886
 2413SOL    HW210574   0.551   4.356   5.979
 2414SOL     OW10575   1.206   4.025   0.014
 2414SOL    HW110576   1.215   4.024   6.414
 2414SOL    HW210577   1.239   3.939   0.052
 2415SOL     OW10578   1.581   5.338   5.918
 2415SOL    HW110579   1.653   5.406   5.903
 2415SOL    HW210580   1.550   5.302   5.830
 2416SOL     OW10581   0.898   4.093   5.668
 2416SOL    HW110582   0.878   4.160   5.596
 2416SOL    HW210583   0.995   4.070   5.666
 2417SOL     OW10584   1.361   4.885   6.190
 2417SOL    HW110585   1.460   4.884   6.205
 2417SOL    HW210586   1.340   4.945   6.112
 2418SOL     OW10587   0.476   3.895   0.077
 2418SOL    HW110588   0.466   3.961   0.151
 2418SOL    HW210589   0.432   3.931   6.494
 2419SOL     OW10590   1.090   5.216   6.117
 2419SOL    HW110591   1.003   5.240   6.073
 2419SOL    HW210592   1.072   5.160   6.197
 2420SOL     OW10593   0.427   5.559   6.461
 2420SOL    HW110594   0.389   5.484   0.016
 2420SOL    HW210595   0.507   5.596   0.008
 2421SOL     OW10596   1.507   4.505   6.335
 2421SOL    HW110597   1.523   4.453   6.420
 2421SOL    HW210598   1.593   4.545   6.304
 2422SOL     OW10599   1.124   5.445   5.880
 2422SOL    HW110600   1.041   5.399   5.914
 2422SOL    HW210601   1.181   5.471   5.958
 2423SOL     OW10602   1.610   4.987   5.725
 2423SOL    HW110603   1.566   5.076   5.718
 2423SOL    HW210604   1.555   4.926   5.781
 2424SOL     OW10605   1.428   3.779   6.041
 2424SOL    HW110606   1.405   3.770   5.944
 2424SOL    HW210607   1.517   3.824   6.051
 2425SOL     OW10608   0.409   4.362   6.107
 2425SOL    HW110609   0.435   4.270   6.136
 2425SOL    HW210610   0.315   4.380   6.135
 2426SOL     OW10611   0.731   3.789   5.781
 2426SOL    HW110612   0.754   3.812   5.687
 2426SOL    HW210613   0.688   3.698   5.784
 2427SOL     OW10614   0.552   3.745   6.076
 2427SOL    HW110615   0.476   3.753   6.140
 2427SOL    HW210616   0.566   3.833   6.031
 2428SOL     OW10617   0.252   3.794   5.751
 2428SOL    HW110618   0.317   3.850   5.700
 2428SOL    HW210619   0.301   3.728   5.807
 2429SOL     OW10620   0.444   4.937   6.468
 2429SOL    HW110621   0.412   4.949   0.062
 2429SOL    HW210622   0.366   4.923   6.407
 2430SOL     OW10623   1.035   4.168   6.130
 2430SOL    HW110624   0.974   4.178   6.052
 2430SOL    HW210625   0.987   4.122   6.205
 2431SOL     OW10626   0.557   4.984   5.807
 2431SOL    HW110627   0.527   4.896   5.771
 2431SOL    HW210628   0.516   5.058   5.754
 2432SOL     OW10629   1.769   4.986   6.129
 2432SOL    HW110630   1.837   5.059   6.116
 2432SOL    HW210631   1.704   5.013   6.200
 2433SOL     OW10632   0.581   3.980   5.934
 2433SOL    HW110633   0.646   3.925   5.882
 2433SOL    HW210634   0.532   4.042   5.873
 2434SOL     OW10635   0.530   4.416   0.062
 2434SOL    HW110636   0.515   4.440   6.466
 2434SOL    HW210637   0.601   4.474   0.101
 2435SOL     OW10638   1.306   5.094   6.017
 2435SOL    HW110639   1.384   5.147   6.052
 2435SOL    HW210640   1.221   5.136   6.050
 2436SOL     OW10641   0.332   3.762   6.232
 2436SOL    HW110642   0.324   3.858   6.261
 2436SOL    HW210643   0.342   3.704   6.312
 2437SOL     OW10644   1.635   4.072   5.863
 2437SOL    HW110645   1.670   4.013   5.937
 2437SOL    HW210646   1.540   4.097   5.882
 2438SOL     OW10647   1.585   3.909   5.643
 2438SOL    HW110648   1.538   3.828   5.678
 2438SOL    HW210649   1.608   3.970   5.719
 2439SOL     OW10650   1.327   4.571   5.599
 2439SOL    HW110651   1.335   4.481   5.555
 2439SOL    HW210652   1.339   4.643   5.530
 2440SOL     OW10653   1.165   5.037   6.332
 2440SOL    HW110654   1.234   4.980   6.287
 2440SOL    HW210655   1.170   5.023   6.431
 2441SOL     OW10656   6.376   5.022   5.788
 2441SOL    HW110657   6.349   5.011   5.692
 2441SOL    HW210658   6.338   4.947   5.842
 2442SOL     OW10659   0.070   5.576   0.045
 2442SOL    HW110660   0.047   5.480   0.033
 2442SOL    HW210661   0.119   5.589   0.131
 2443SOL     OW10662   0.858   4.184   5.925
 2443SOL    HW110663   0.872   4.145   5.834
 2443SOL    HW210664   0.772   4.234   5.927
 2444SOL     OW10665   0.468   4.165   5.755
 2444SOL    HW110666   0.533   4.225   5.801
 2444SOL    HW210667   0.380   4.212   5.745
 2445SOL     OW10668   1.734   3.889   6.051
 2445SOL    HW110669   1.816   3.878   5.995
 2445SOL    HW210670   1.726   3.811   6.113
 2446SOL     OW10671   1.477   5.263   6.153
 2446SOL    HW110672   1.519   5.291   6.066
 2446SOL    HW210673   1.457   5.345   6.207
 2447SOL     OW10674   1.271   4.642   6.278
 2447SOL    HW110675   1.352   4.588   6.302
 2447SOL    HW210676   1.299   4.732   6.246
 2448SOL     OW10677   1.802   3.930   0.011
 2448SOL    HW110678   1.814   3.849   6.455
 2448SOL    HW210679   1.704   3.943   0.031
 2449SOL     OW10680   0.358   4.007   6.353
 2449SOL    HW110681   0.405   4.070   6.290
 2449SOL    HW210682   0.267   4.043   6.374
 2450SOL     OW10683   1.219   5.285   5.679
 2450SOL    HW110684   1.223   5.191   5.712
 2450SOL    HW210685   1.188   5.345   5.753
 2451SOL     OW10686   1.013   4.614   5.789
 2451SOL    HW110687   1.013   4.690   5.723
 2451SOL    HW210688   1.104   4.606   5.830
 2452SOL     OW10689   1.498   5.239   5.680
 2452SOL    HW110690   1.401   5.259   5.676
 2452SOL    HW210691   1.539   5.249   5.589
 2453SOL     OW10692   0.561   5.179   6.149
 2453SOL    HW110693   0.628   5.134   6.090
 2453SOL    HW210694   0.470   5.172   6.108
 2454SOL     OW10695   0.144   5.019   5.897
 2454SOL    HW110696   0.051   5.045   5.870
 2454SOL    HW210697   0.186   5.094   5.948
 2455SOL     OW10698   0.006   3.846   5.892
 2455SOL    HW110699   6.438   3.870   5.823
 2455SOL    HW210700   0.096   3.838   5.848
 2456SOL     OW10701   0.511   4.515   6.311
 2456SOL    HW110702   0.539   4.609   6.288
 2456SOL    HW210703   0.475   4.470   6.230
 2457SOL     OW10704   0.668   5.682   0.099
 2457SOL    HW110705   0.617   5.755   0.053
 2457SOL    HW210706   0.766   5.695   0.083
 2458SOL     OW10707   0.813   4.656   6.484
 2458SOL    HW110708   0.885   4.618   6.426
 2458SOL    HW210709   0.844   4.742   0.024
 2459SOL     OW10710   1.791   5.280   6.348
 2459SOL    HW110711   1.722   5.208   6.352
 2459SOL    HW210712   1.813   5.311   6.441
 2460SOL     OW10713   0.219   4.891   6.323
 2460SOL    HW110714   0.163   4.823   6.370
 2460SOL    HW210715   0.224   4.869   6.226
 2461SOL     OW10716   0.848   5.237   6.319
 2461SOL    HW110717   0.838   5.282   6.231
 2461SOL    HW210718   0.759   5.199   6.348
 2462SOL     OW10719   0.748   5.056   5.986
 2462SOL    HW110720   0.682   5.026   5.916
 2462SOL    HW210721   0.777   4.977   6.040
 2463SOL     OW10722   1.451   3.686   5.719
 2463SOL    HW110723   1.472   3.621   5.647
 2463SOL    HW210724   1.352   3.683   5.738
 2464SOL     OW10725   0.873   5.300   5.961
 2464SOL    HW110726   0.834   5.208   5.965
 2464SOL    HW210727   0.811   5.361   5.913
 2465SOL     OW10728   0.152   6.257   0.186
 2465SOL    HW110729   0.143   6.331   0.253
 2465SOL    HW210730   0.144   6.294   0.094
 2466SOL     OW10731   0.125   5.741   0.980
 2466SOL    HW110732   0.201   5.744   1.045
 2466SOL    HW210733   0.068   5.662   1.000
 2467SOL     OW10734   6.378   5.981   0.582
 2467SOL    HW110735   6.331   6.036   0.514
 2467SOL    HW210736   6.449   5.926   0.538
 2468SOL     OW10737   1.122   6.358   0.593
 2468SOL    HW110738   1.202   6.391   0.643
 2468SOL    HW210739   1.057   6.434   0.582
 2469SOL     OW10740   1.695   6.214   0.166
 2469SOL    HW110741   1.708   6.208   0.067
 2469SOL    HW210742   1.614   6.163   0.192
 2470SOL     OW10743   0.737   6.382   1.771
 2470SOL    HW110744   0.731   6.440   1.853
 2470SOL    HW210745   0.669   6.412   1.704
 2471SOL     OW10746   0.731   0.205   0.634
 2471SOL    HW110747   0.775   0.294   0.641
 2471SOL    HW210748   0.635   0.213   0.662
 2472SOL     OW10749   0.449   5.997   1.424
 2472SOL    HW110750   0.526   5.934   1.432
 2472SOL    HW210751   0.372   5.963   1.478
 2473SOL     OW10752   1.778   6.054   0.778
 2473SOL    HW110753   1.732   6.100   0.702
 2473SOL    HW210754   1.776   6.112   0.859
 2474SOL     OW10755   0.001   6.285   0.560
 2474SOL    HW110756   6.451   6.238   0.488
 2474SOL    HW210757   6.494   6.232   0.645
 2475SOL     OW10758   0.847   5.637   0.473
 2475SOL    HW110759   0.907   5.716   0.461
 2475SOL    HW210760   0.755   5.660   0.441
 2476SOL     OW10761   0.698   6.205   1.443
 2476SOL    HW110762   0.694   6.144   1.522
 2476SOL    HW210763   0.708   6.151   1.360
 2477SOL     OW10764   0.894   5.880   1.298
 2477SOL    HW110765   0.851   5.959   1.255
 2477SOL    HW210766   0.918   5.813   1.227
 2478SOL     OW10767   1.027   6.191   0.403
 2478SOL    HW110768   1.067   6.246   0.477
 2478SOL    HW210769   0.930   6.176   0.423
 2479SOL     OW10770   0.906   5.967   0.214
 2479SOL    HW110771   0.990   6.018   0.194
 2479SOL    HW210772   0.903   5.885   0.156
 2480SOL     OW10773   1.795   6.189   1.804
 2480SOL    HW110774   1.696   6.190   1.797
 2480SOL    HW210775   1.828   6.095   1.800
 2481SOL     OW10776   0.591   5.811   0.893
 2481SOL    HW110777   0.586   5.817   0.993
 2481SOL    HW210778   0.589   5.903   0.854
 2482SOL     OW10779   1.577   6.372   0.759
 2482SOL    HW110780   1.540   6.310   0.829
 2482SOL    HW210781   1.666   6.406   0.788
 2483SOL     OW10782   0.204   5.935   1.546
 2483SOL    HW110783   0.160   5.950   1.458
 2483SOL    HW210784   0.153   5.867   1.598
 2484SOL     OW10785   1.271   5.603   0.360
 2484SOL    HW110786   1.207   5.592   0.283
 2484SOL    HW210787   1.323   5.519   0.372
 2485SOL     OW10788   1.350   6.215   1.642
 2485SOL    HW110789   1.251   6.212   1.629
 2485SOL    HW210790   1.384   6.306   1.617
 2486SOL     OW10791   0.943   6.047   0.837
 2486SOL    HW110792   0.887   6.044   0.754
 2486SOL    HW210793   0.974   5.955   0.860
 2487SOL     OW10794   0.231   5.597   0.263
 2487SOL    HW110795   0.264   5.626   0.353
 2487SOL    HW210796   0.284   5.519   0.231
 2488SOL     OW10797   1.018   5.843   0.434
 2488SOL    HW110798   0.974   5.900   0.365
 2488SOL    HW210799   1.116   5.861   0.435
 2489SOL     OW10800   0.479   0.248   0.724
 2489SOL    HW110801   0.510   0.234   0.818
 2489SOL    HW210802   0.390   0.294   0.725
 2490SOL     OW10803   0.088   6.035   1.308
 2490SOL    HW110804   0.158   6.106   1.299
 2490SOL    HW210805   0.004   6.076   1.343
 2491SOL     OW10806   0.558   5.846   1.166
 2491SOL    HW110807   0.595   5.831   1.258
 2491SOL    HW210808   0.465   5.812   1.162
 2492SOL     OW10809   0.975   5.576   0.711
 2492SOL    HW110810   0.929   5.604   0.627
 2492SOL    HW210811   0.921   5.505   0.757
 2493SOL     OW10812   1.466   6.193   0.938
 2493SOL    HW110813   1.425   6.103   0.923
 2493SOL    HW210814   1.511   6.194   1.027
 2494SOL     OW10815   1.793   6.329   0.393
 2494SOL    HW110816   1.892   6.325   0.400
 2494SOL    HW210817   1.764   6.294   0.304
 2495SOL     OW10818   1.390   6.165   0.062
 2495SOL    HW110819   1.296   6.148   0.092
 2495SOL    HW210820   1.446   6.083   0.079
 2496SOL     OW10821   0.410   6.451   1.252
 2496SOL    HW110822   0.500   6.459   1.295
 2496SOL    HW210823   0.366   6.367   1.283
 2497SOL     OW10824   0.577   6.086   0.826
 2497SOL    HW110825   0.600   6.126   0.737
 2497SOL    HW210826   0.624   6.137   0.898
 2498SOL     OW10827   1.650   6.181   0.572
 2498SOL    HW110828   1.604   6.248   0.631
 2498SOL    HW210829   1.706   6.230   0.505
 2499SOL     OW10830   0.448   6.291   1.514
 2499SOL    HW110831   0.536   6.256   1.481
 2499SOL    HW210832   0.377   6.222   1.499
 2500SOL     OW10833   1.582   6.409   1.581
 2500SOL    HW110834   1.511   6.458   1.633
 2500SOL    HW210835   1.596   6.456   1.494
 2501SOL     OW10836   0.918   5.690   1.741
 2501SOL    HW110837   0.899   5.784   1.715
 2501SOL    HW210838   0.955   5.641   1.661
 2502SOL     OW10839   0.519   6.467   1.004
 2502SOL    HW110840   0.545   0.061   0.982
 2502SOL    HW210841   0.483   6.463   1.097
 2503SOL     OW10842   1.246   6.357   0.971
 2503SOL    HW110843   1.252   6.423   0.896
 2503SOL    HW210844   1.325   6.295   0.967
 2504SOL     OW10845   1.172   6.069   0.214
 2504SOL    HW110846   1.223   5.997   0.261
 2504SOL    HW210847   1.126   6.128   0.281
 2505SOL     OW10848   0.318   5.715   1.176
 2505SOL    HW110849   0.277   5.705   1.266
 2505SOL    HW210850   0.343   5.626   1.140
 2506SOL     OW10851   0.704   6.259   1.003
 2506SOL    HW110852   0.796   6.288   0.979
 2506SOL    HW210853   0.642   6.338   1.002
 2507SOL     OW10854   1.773   0.039   1.737
 2507SOL    HW110855   1.708   6.480   1.690
 2507SOL    HW210856   1.774   0.016   1.835
 2508SOL     OW10857   1.563   5.980   0.397
 2508SOL    HW110858   1.642   5.919   0.395
 2508SOL    HW210859   1.579   6.053   0.464
 2509SOL     OW10860   0.980   6.295   0.943
 2509SOL    HW110861   1.078   6.310   0.953
 2509SOL    HW210862   0.963   6.206   0.903
 2510SOL     OW10863   1.546   5.951   0.124
 2510SOL    HW110864   1.642   5.945   0.096
 2510SOL    HW210865   1.540   5.949   0.224
 2511SOL     OW10866   0.262   6.285   1.008
 2511SOL    HW110867   0.331   6.355   0.990
 2511SOL    HW210868   0.267   6.215   0.937
 2512SOL     OW10869   1.157   5.754   1.356
 2512SOL    HW110870   1.093   5.831   1.352
 2512SOL    HW210871   1.248   5.785   1.331
 2513SOL     OW10872   0.020   5.988   1.036
 2513SOL    HW110873   0.055   5.901   1.001
 2513SOL    HW210874   0.057   6.004   1.128
 2514SOL     OW10875   0.187   6.135   1.741
 2514SOL    HW110876   0.213   6.063   1.677
 2514SOL    HW210877   0.099   6.174   1.714
 2515SOL     OW10878   0.744   6.133   0.378
 2515SOL    HW110879   0.788   6.065   0.320
 2515SOL    HW210880   0.693   6.198   0.321
 2516SOL     OW10881   1.598   6.194   1.172
 2516SOL    HW110882   1.605   6.205   1.271
 2516SOL    HW210883   1.689   6.195   1.132
 2517SOL     OW10884   0.720   6.069   1.200
 2517SOL    HW110885   0.653   5.999   1.178
 2517SOL    HW210886   0.719   6.141   1.130
 2518SOL     OW10887   0.400   6.147   0.250
 2518SOL    HW110888   0.481   6.202   0.234
 2518SOL    HW210889   0.319   6.195   0.217
 2519SOL     OW10890   0.937   5.737   0.056
 2519SOL    HW110891   0.973   5.770   6.469
 2519SOL    HW210892   1.000   5.670   0.095
 2520SOL     OW10893   1.329   6.485   0.731
 2520SOL    HW110894   1.421   6.448   0.734
 2520SOL    HW210895   1.333   0.085   0.737
 2521SOL     OW10896   1.794   5.737   0.959
 2521SOL    HW110897   1.822   5.646   0.929
 2521SOL    HW210898   1.717   5.768   0.903
 2522SOL     OW10899   0.162   5.693   0.711
 2522SOL    HW110900   0.069   5.693   0.673
 2522SOL    HW210901   0.159   5.732   0.803
 2523SOL     OW10902   1.028   5.790   0.887
 2523SOL    HW110903   1.013   5.719   0.818
 2523SOL    HW210904   1.013   5.752   0.978
 2524SOL     OW10905   0.066   5.840   0.442
 2524SOL    HW110906   0.059   5.912   0.373
 2524SOL    HW210907   0.163   5.819   0.458
 2525SOL     OW10908   0.660   6.466   1.349
 2525SOL    HW110909   0.706   0.043   1.392
 2525SOL    HW210910   0.695   6.381   1.387
 2526SOL     OW10911   0.682   6.111   1.720
 2526SOL    HW110912   0.708   6.207   1.735
 2526SOL    HW210913   0.604   6.089   1.779
 2527SOL     OW10914   1.299   5.879   0.370
 2527SOL    HW110915   1.301   5.779   0.366
 2527SOL    HW210916   1.390   5.913   0.395
 2528SOL     OW10917   1.851   5.915   1.827
 2528SOL    HW110918   1.893   5.880   1.744
 2528SOL    HW210919   1.788   5.847   1.864
 2529SOL     OW10920   1.804   5.731   1.228
 2529SOL    HW110921   1.893   5.687   1.243
 2529SOL    HW210922   1.787   5.739   1.130
 2530SOL     OW10923   0.310   6.187   1.272
 2530SOL    HW110924   0.374   6.117   1.301
 2530SOL    HW210925   0.314   6.196   1.172
 2531SOL     OW10926   0.990   5.671   1.139
 2531SOL    HW110927   0.949   5.580   1.130
 2531SOL    HW210928   1.066   5.667   1.204
 2532SOL     OW10929   1.591   5.846   0.819
 2532SOL    HW110930   1.501   5.882   0.844
 2532SOL    HW210931   1.651   5.920   0.791
 2533SOL     OW10932   0.182   6.145   2.022
 2533SOL    HW110933   0.254   6.175   2.084
 2533SOL    HW210934   0.216   6.148   1.928
 2534SOL     OW10935   6.462   6.144   2.522
 2534SOL    HW110936   6.458   6.076   2.596
 2534SOL    HW210937   6.370   6.162   2.489
 2535SOL     OW10938   1.196   6.252   2.558
 2535SOL    HW110939   1.198   6.350   2.537
 2535SOL    HW210940   1.103   6.218   2.542
 2536SOL     OW10941   1.857   6.237   2.064
 2536SOL    HW110942   1.823   6.223   1.972
 2536SOL    HW210943   1.890   6.150   2.102
 2537SOL     OW10944   0.770   6.305   3.616
 2537SOL    HW110945   0.862   6.293   3.653
 2537SOL    HW210946   0.749   6.402   3.610
 2538SOL     OW10947   0.445   6.044   3.314
 2538SOL    HW110948   0.518   6.046   3.382
 2538SOL    HW210949   0.453   5.961   3.259
 2539SOL     OW10950   0.189   6.255   2.394
 2539SOL    HW110951   0.117   6.204   2.441
 2539SOL    HW210952   0.149   6.336   2.351
 2540SOL     OW10953   0.168   6.338   3.438
 2540SOL    HW110954   0.265   6.361   3.427
 2540SOL    HW210955   0.115   6.385   3.367
 2541SOL     OW10956   0.867   5.641   2.354
 2541SOL    HW110957   0.911   5.730   2.342
 2541SOL    HW210958   0.769   5.654   2.372
 2542SOL     OW10959   0.341   5.789   3.671
 2542SOL    HW110960   0.345   5.744   3.582
 2542SOL    HW210961   0.274   5.863   3.668
 2543SOL     OW10962   0.517   6.385   2.046
 2543SOL    HW110963   0.581   6.454   2.011
 2543SOL    HW210964   0.511   6.393   2.145
 2544SOL     OW10965   1.290   5.855   2.710
 2544SOL    HW110966   1.209   5.805   2.740
 2544SOL    HW210967   1.352   5.867   2.788
 2545SOL     OW10968   0.763   6.147   3.276
 2545SOL    HW110969   0.726   6.115   3.363
 2545SOL    HW210970   0.773   6.069   3.213
 2546SOL     OW10971   1.434   6.164   3.502
 2546SOL    HW110972   1.435   6.191   3.598
 2546SOL    HW210973   1.508   6.098   3.486
 2547SOL     OW10974   1.061   5.942   3.217
 2547SOL    HW110975   0.972   5.932   3.174
 2547SOL    HW210976   1.127   5.974   3.149
 2548SOL     OW10977   1.774   6.121   3.664
 2548SOL    HW110978   1.745   6.217   3.658
 2548SOL    HW210979   1.726   6.068   3.594
 2549SOL     OW10980   0.509   5.826   2.765
 2549SOL    HW110981   0.560   5.791   2.843
 2549SOL    HW210982   0.512   5.926   2.764
 2550SOL     OW10983   1.493   6.431   2.691
 2550SOL    HW110984   1.519   6.342   2.728
 2550SOL    HW210985   1.562   6.499   2.716
 2551SOL     OW10986   0.078   5.889   3.317
 2551SOL    HW110987   0.084   5.951   3.238
 2551SOL    HW210988   0.117   5.934   3.397
 2552SOL     OW10989   1.409   5.722   2.290
 2552SOL    HW110990   1.423   5.718   2.191
 2552SOL    HW210991   1.498   5.725   2.335
 2553SOL     OW10992   0.442   6.167   2.350
 2553SOL    HW110993   0.494   6.203   2.427
 2553SOL    HW210994   0.346   6.194   2.359
 2554SOL     OW10995   0.727   5.756   1.981
 2554SOL    HW110996   0.722   5.661   2.012
 2554SOL    HW210997   0.772   5.759   1.892
 2555SOL     OW10998   0.731   5.889   3.692
 2555SOL    HW110999   0.817   5.844   3.669
 2555SOL    HW211000   0.668   5.822   3.732
 2556SOL     OW11001   0.604   5.670   2.426
 2556SOL    HW111002   0.597   5.641   2.521
 2556SOL    HW211003   0.559   5.758   2.414
 2557SOL     OW11004   0.470   5.846   2.040
 2557SOL    HW111005   0.561   5.815   2.013
 2557SOL    HW211006   0.430   5.779   2.103
 2558SOL     OW11007   0.994   5.892   2.361
 2558SOL    HW111008   0.935   5.910   2.282
 2558SOL    HW211009   1.089   5.912   2.337
 2559SOL     OW11010   1.029   6.222   3.287
 2559SOL    HW111011   0.929   6.219   3.289
 2559SOL    HW211012   1.065   6.129   3.285
 2560SOL     OW11013   0.993   6.320   1.846
 2560SOL    HW111014   0.903   6.349   1.813
 2560SOL    HW211015   1.049   6.292   1.768
 2561SOL     OW11016   0.106   6.080   3.131
 2561SOL    HW111017   0.187   6.137   3.115
 2561SOL    HW211018   0.033   6.137   3.169
 2562SOL     OW11019   0.644   5.733   2.991
 2562SOL    HW111020   0.653   5.634   2.996
 2562SOL    HW211021   0.578   5.764   3.060
 2563SOL     OW11022   0.950   6.097   2.548
 2563SOL    HW111023   0.869   6.144   2.516
 2563SOL    HW211024   0.967   6.017   2.491
 2564SOL     OW11025   1.017   5.607   2.578
 2564SOL    HW111026   0.964   5.628   2.496
 2564SOL    HW211027   0.980   5.525   2.621
 2565SOL     OW11028   1.538   6.184   2.799
 2565SOL    HW111029   1.496   6.114   2.742
 2565SOL    HW211030   1.569   6.143   2.885
 2566SOL     OW11031   1.862   6.462   2.223
 2566SOL    HW111032   1.941   6.434   2.278
 2566SOL    HW211033   1.833   6.386   2.165
 2567SOL     OW11034   0.501   6.100   2.778
 2567SOL    HW111035   0.508   6.161   2.699
 2567SOL    HW211036   0.581   6.112   2.837
 2568SOL     OW11037   0.446   6.349   3.434
 2568SOL    HW111038   0.494   6.368   3.348
 2568SOL    HW211039   0.481   6.264   3.474
 2569SOL     OW11040   0.963   5.763   3.647
 2569SOL    HW111041   1.039   5.828   3.640
 2569SOL    HW211042   0.991   5.676   3.606
 2570SOL     OW11043   1.272   6.472   2.854
 2570SOL    HW111044   1.334   6.442   2.782
 2570SOL    HW211045   1.319   0.036   2.914
 2571SOL     OW11046   1.200   6.192   2.150
 2571SOL    HW111047   1.226   6.110   2.201
 2571SOL    HW211048   1.103   6.187   2.125
 2572SOL     OW11049   0.735   6.154   2.912
 2572SOL    HW111050   0.823   6.162   2.865
 2572SOL    HW211051   0.694   6.245   2.921
 2573SOL     OW11052   1.665   6.374   3.689
 2573SOL    HW111053   1.636   6.453   3.636
 2573SOL    HW211054   1.585   6.326   3.725
 2574SOL     OW11055   1.008   6.411   2.791
 2574SOL    HW111056   1.104   6.439   2.800
 2574SOL    HW211057   1.002   6.311   2.799
 2575SOL     OW11058   1.672   5.756   1.994
 2575SOL    HW111059   1.583   5.711   1.984
 2575SOL    HW211060   1.661   5.838   2.050
 2576SOL     OW11061   0.224   6.044   2.745
 2576SOL    HW111062   0.241   5.967   2.683
 2576SOL    HW211063   0.310   6.082   2.776
 2577SOL     OW11064   0.222   6.074   3.471
 2577SOL    HW111065   0.302   6.058   3.414
 2577SOL    HW211066   0.191   6.168   3.460
 2578SOL     OW11067   1.630   6.055   3.039
 2578SOL    HW111068   1.643   6.002   3.122
 2578SOL    HW211069   1.717   6.098   3.013
 2579SOL     OW11070   0.803   5.951   3.083
 2579SOL    HW111071   0.762   5.867   3.050
 2579SOL    HW211072   0.782   6.026   3.020
 2580SOL     OW11073   0.497   6.096   1.923
 2580SOL    HW111074   0.494   6.173   1.987
 2580SOL    HW211075   0.472   6.012   1.971
 2581SOL     OW11076   1.670   5.673   2.398
 2581SOL    HW111077   1.736   5.711   2.334
 2581SOL    HW211078   1.662   5.574   2.383
 2582SOL     OW11079   1.080   5.713   2.823
 2582SOL    HW111080   1.056   5.675   2.734
 2582SOL    HW211081   1.049   5.652   2.896
 2583SOL     OW11082   1.765   5.906   3.242
 2583SOL    HW111083   1.848   5.962   3.248
 2583SOL    HW211084   1.779   5.833   3.175
 2584SOL     OW11085   0.045   0.128   3.552
 2584SOL    HW111086   0.011   0.043   3.591
 2584SOL    HW211087   0.127   0.158   3.601
 2585SOL     OW11088   0.608   6.360   3.207
 2585SOL    HW111089   0.660   6.445   3.210
 2585SOL    HW211090   0.668   6.283   3.232
 2586SOL     OW11091   0.643   6.086   3.515
 2586SOL    HW111092   0.684   6.168   3.555
 2586SOL    HW211093   0.663   6.007   3.573
 2587SOL     OW11094   1.255   5.958   2.305
 2587SOL    HW111095   1.307   5.875   2.286
 2587SOL    HW211096   1.293   6.003   2.386
 2588SOL     OW11097   0.552   6.282   2.580
 2588SOL    HW111098   0.645   6.314   2.599
 2588SOL    HW211099   0.493   6.360   2.563
 2589SOL     OW11100   1.639   5.970   3.479
 2589SOL    HW111101   1.680   5.946   3.391
 2589SOL    HW211102   1.602   5.888   3.522
 2590SOL     OW11103   1.809   5.710   3.046
 2590SOL    HW111104   1.825   5.614   3.071
 2590SOL    HW211105   1.748   5.714   2.967
 2591SOL     OW11106   0.462   5.897   2.406
 2591SOL    HW111107   0.459   5.991   2.371
 2591SOL    HW211108   0.392   5.885   2.476
 2592SOL     OW11109   0.350   6.214   3.107
 2592SOL    HW111110   0.386   6.163   3.185
 2592SOL    HW211111   0.421   6.224   3.038
 2593SOL     OW11112   1.421   5.911   2.939
 2593SOL    HW111113   1.507   5.951   2.970
 2593SOL    HW211114   1.345   5.958   2.984
 2594SOL     OW11115   0.989   5.519   3.064
 2594SOL    HW111116   0.930   5.445   3.030
 2594SOL    HW211117   1.084   5.487   3.067
 2595SOL     OW11118   1.417   5.668   2.008
 2595SOL    HW111119   1.374   5.581   2.036
 2595SOL    HW211120   1.362   5.710   1.935
 2596SOL     OW11121   1.374   6.051   2.542
 2596SOL    HW111122   1.316   6.131   2.555
 2596SOL    HW211123   1.342   5.976   2.601
 2597SOL     OW11124   0.111   6.257   3.920
 2597SOL    HW111125   0.117   6.338   3.978
 2597SOL    HW211126   0.170   6.185   3.958
 2598SOL     OW11127   1.121   6.256   4.431
 2598SOL    HW111128   1.185   6.247   4.508
 2598SOL    HW211129   1.046   6.317   4.457
 2599SOL     OW11130   1.818   6.120   3.930
 2599SOL    HW111131   1.804   6.123   3.831
 2599SOL    HW211132   1.734   6.087   3.974
 2600SOL     OW11133   0.702   0.136   4.481
 2600SOL    HW111134   0.739   0.187   4.559
 2600SOL    HW211135   0.606   0.162   4.467
 2601SOL     OW11136   0.492   6.033   5.278
 2601SOL    HW111137   0.557   5.970   5.237
 2601SOL    HW211138   0.450   5.990   5.358
 2602SOL     OW11139   0.179   6.145   4.226
 2602SOL    HW111140   0.085   6.110   4.221
 2602SOL    HW211141   0.210   6.144   4.322
 2603SOL     OW11142   0.271   6.351   5.296
 2603SOL    HW111143   0.365   6.327   5.321
 2603SOL    HW211144   0.273   6.408   5.214
 2604SOL     OW11145   0.845   5.649   4.225
 2604SOL    HW111146   0.871   5.743   4.200
 2604SOL    HW211147   0.747   5.646   4.243
 2605SOL     OW11148   0.399   5.909   5.506
 2605SOL    HW111149   0.413   5.960   5.591
 2605SOL    HW211150   0.330   5.839   5.520
 2606SOL     OW11151   0.621   6.377   4.107
 2606SOL    HW111152   0.688   6.409   4.041
 2606SOL    HW211153   0.582   6.455   4.155
 2607SOL     OW11154   1.291   5.941   4.745
 2607SOL    HW111155   1.223   5.876   4.713
 2607SOL    HW211156   1.377   5.894   4.763
 2608SOL     OW11157   0.765   6.157   5.090
 2608SOL    HW111158   0.847   6.116   5.129
 2608SOL    HW211159   0.706   6.085   5.053
 2609SOL     OW11160   1.391   6.074   5.430
 2609SOL    HW111161   1.387   6.067   5.530
 2609SOL    HW211162   1.484   6.057   5.399
 2610SOL     OW11163   1.064   6.237   4.163
 2610SOL    HW111164   1.093   6.247   4.258
 2610SOL    HW211165   0.968   6.208   4.160
 2611SOL     OW11166   0.813   6.010   3.927
 2611SOL    HW111167   0.783   5.977   3.838
 2611SOL    HW211168   0.848   5.934   3.981
 2612SOL     OW11169   1.671   6.206   5.586
 2612SOL    HW111170   1.630   6.284   5.539
 2612SOL    HW211171   1.675   6.128   5.524
 2613SOL     OW11172   0.520   5.657   4.671
 2613SOL    HW111173   0.522   5.672   4.770
 2613SOL    HW211174   0.475   5.735   4.626
 2614SOL     OW11175   1.525   5.645   4.156
 2614SOL    HW111176   1.500   5.631   4.060
 2614SOL    HW211177   1.599   5.712   4.162
 2615SOL     OW11178   0.347   6.348   4.165
 2615SOL    HW111179   0.442   6.327   4.140
 2615SOL    HW211180   0.298   6.263   4.186
 2616SOL     OW11181   0.568   5.707   3.807
 2616SOL    HW111182   0.551   5.654   3.890
 2616SOL    HW211183   0.482   5.732   3.764
 2617SOL     OW11184   0.758   5.803   5.477
 2617SOL    HW111185   0.858   5.798   5.473
 2617SOL    HW211186   0.726   5.767   5.564
 2618SOL     OW11187   1.306   6.320   5.356
 2618SOL    HW111188   1.332   6.226   5.379
 2618SOL    HW211189   1.308   6.331   5.256
 2619SOL     OW11190   0.584   5.637   4.296
 2619SOL    HW111191   0.608   5.591   4.382
 2619SOL    HW211192   0.524   5.714   4.316
 2620SOL     OW11193   0.234   5.619   3.845
 2620SOL    HW111194   0.276   5.687   3.785
 2620SOL    HW211195   0.178   5.666   3.914
 2621SOL     OW11196   1.071   6.456   5.346
 2621SOL    HW111197   0.993   6.400   5.374
 2621SOL    HW211198   1.156   6.405   5.361
 2622SOL     OW11199   0.436   0.193   4.467
 2622SOL    HW111200   0.389   0.149   4.544
 2622SOL    HW211201   0.403   0.287   4.458
 2623SOL     OW11202   0.096   6.095   5.101
 2623SOL    HW111203   0.178   6.150   5.112
 2623SOL    HW211204   0.016   6.148   5.129
 2624SOL     OW11205   0.921   5.901   4.171
 2624SOL    HW111206   0.891   5.993   4.196
 2624SOL    HW211207   1.020   5.894   4.185
 2625SOL     OW11208   0.973   5.619   4.465
 2625SOL    HW111209   0.918   5.623   4.381
 2625SOL    HW211210   1.069   5.633   4.443
 2626SOL     OW11211   1.289   6.196   4.637
 2626SOL    HW111212   1.289   6.106   4.681
 2626SOL    HW211213   1.360   6.253   4.678
 2627SOL     OW11214   1.753   6.341   4.129
 2627SOL    HW111215   1.821   6.278   4.165
 2627SOL    HW211216   1.758   6.344   4.029
 2628SOL     OW11217   1.460   6.214   3.785
 2628SOL    HW111218   1.402   6.230   3.865
 2628SOL    HW211219   1.487   6.118   3.782
 2629SOL     OW11220   0.890   5.781   5.065
 2629SOL    HW111221   0.947   5.699   5.071
 2629SOL    HW211222   0.934   5.856   5.114
 2630SOL     OW11223   0.816   0.031   3.996
 2630SOL    HW111224   0.825   0.055   4.093
 2630SOL    HW211225   0.900   6.488   3.964
 2631SOL     OW11226   0.394   6.440   5.029
 2631SOL    HW111227   0.493   6.449   5.033
 2631SOL    HW211228   0.368   6.344   5.037
 2632SOL     OW11229   0.486   6.162   4.504
 2632SOL    HW111230   0.512   6.248   4.459
 2632SOL    HW211231   0.541   6.149   4.586
 2633SOL     OW11232   1.516   6.243   4.219
 2633SOL    HW111233   1.474   6.299   4.290
 2633SOL    HW211234   1.603   6.283   4.192
 2634SOL     OW11235   1.557   6.401   5.423
 2634SOL    HW111236   1.461   6.374   5.415
 2634SOL    HW211237   1.581   6.460   5.345
 2635SOL     OW11238   1.027   5.783   5.470
 2635SOL    HW111239   1.063   5.875   5.455
 2635SOL    HW211240   1.101   5.716   5.463
 2636SOL     OW11241   0.514   5.618   5.441
 2636SOL    HW111242   0.423   5.596   5.407
 2636SOL    HW211243   0.537   5.713   5.419
 2637SOL     OW11244   0.642   6.488   4.754
 2637SOL    HW111245   0.655   0.086   4.736
 2637SOL    HW211246   0.670   6.467   4.847
 2638SOL     OW11247   1.316   6.254   4.036
 2638SOL    HW111248   1.389   6.239   4.104
 2638SOL    HW211249   1.228   6.226   4.075
 2639SOL     OW11250   0.612   6.208   4.749
 2639SOL    HW111251   0.711   6.194   4.741
 2639SOL    HW211252   0.592   6.306   4.754
 2640SOL     OW11253   1.718   0.061   5.567
 2640SOL    HW111254   1.663   6.492   5.520
 2640SOL    HW211255   1.690   0.066   5.663
 2641SOL     OW11256   1.591   6.030   4.059
 2641SOL    HW111257   1.632   5.953   4.108
 2641SOL    HW211258   1.556   6.097   4.125
 2642SOL     OW11259   1.514   5.949   3.809
 2642SOL    HW111260   1.427   5.899   3.813
 2642SOL    HW211261   1.545   5.967   3.903
 2643SOL     OW11262   0.366   6.482   4.754
 2643SOL    HW111263   0.461   6.487   4.726
 2643SOL    HW211264   0.361   6.470   4.853
 2644SOL     OW11265   0.373   6.073   4.785
 2644SOL    HW111266   0.377   5.999   4.718
 2644SOL    HW211267   0.446   6.138   4.768
 2645SOL     OW11268   1.118   6.039   5.425
 2645SOL    HW111269   1.084   6.104   5.492
 2645SOL    HW211270   1.218   6.046   5.419
 2646SOL     OW11271   1.000   6.001   5.173
 2646SOL    HW111272   1.035   6.019   5.265
 2646SOL    HW211273   1.076   6.005   5.108
 2647SOL     OW11274   0.096   6.071   4.826
 2647SOL    HW111275   0.193   6.082   4.804
 2647SOL    HW211276   0.084   6.071   4.925
 2648SOL     OW11277   0.796   6.162   4.150
 2648SOL    HW111278   0.797   6.119   4.060
 2648SOL    HW211279   0.734   6.241   4.149
 2649SOL     OW11280   1.647   6.209   4.946
 2649SOL    HW111281   1.632   6.158   5.031
 2649SOL    HW211282   1.716   6.162   4.891
 2650SOL     OW11283   0.599   5.978   4.963
 2650SOL    HW111284   0.561   5.887   4.947
 2650SOL    HW211285   0.586   6.035   4.882
 2651SOL     OW11286   1.730   5.832   4.176
 2651SOL    HW111287   1.805   5.823   4.110
 2651SOL    HW211288   1.764   5.874   4.260
 2652SOL     OW11289   1.707   5.655   4.693
 2652SOL    HW111290   1.788   5.628   4.642
 2652SOL    HW211291   1.625   5.620   4.647
 2653SOL     OW11292   0.374   5.873   4.587
 2653SOL    HW111293   0.405   5.883   4.493
 2653SOL    HW211294   0.275   5.876   4.591
 2654SOL     OW11295   1.053   6.411   3.951
 2654SOL    HW111296   1.135   6.469   3.952
 2654SOL    HW211297   1.054   6.350   4.030
 2655SOL     OW11298   1.097   5.755   4.684
 2655SOL    HW111299   1.055   5.705   4.608
 2655SOL    HW211300   1.026   5.800   4.738
 2656SOL     OW11301   1.770   6.010   5.140
 2656SOL    HW111302   1.836   6.077   5.106
 2656SOL    HW211303   1.816   5.921   5.152
 2657SOL     OW11304   0.138   0.166   5.467
 2657SOL    HW111305   0.121   0.082   5.518
 2657SOL    HW211306   0.213   0.217   5.510
 2658SOL     OW11307   0.663   5.811   5.224
 2658SOL    HW111308   0.738   5.812   5.158
 2658SOL    HW211309   0.701   5.815   5.317
 2659SOL     OW11310   0.151   5.987   3.715
 2659SOL    HW111311   0.057   6.010   3.739
 2659SOL    HW211312   0.172   6.026   3.625
 2660SOL     OW11313   0.088   5.803   3.992
 2660SOL    HW111314   0.145   5.885   3.991
 2660SOL    HW211315   0.102   5.753   4.077
 2661SOL     OW11316   0.669   6.410   5.023
 2661SOL    HW111317   0.736   6.476   5.057
 2661SOL    HW211318   0.700   6.317   5.045
 2662SOL     OW11319   1.698   6.483   4.928
 2662SOL    HW111320   1.677   6.387   4.944
 2662SOL    HW211321   1.621   0.027   4.882
 2663SOL     OW11322   0.556   6.402   4.415
 2663SOL    HW111323   0.618   6.473   4.450
 2663SOL    HW211324   0.504   6.438   4.338
 2664SOL     OW11325   1.654   6.014   5.388
 2664SOL    HW111326   1.696   6.015   5.297
 2664SOL    HW211327   1.654   5.921   5.424
 2665SOL     OW11328   0.362   6.169   5.053
 2665SOL    HW111329   0.418   6.122   5.122
 2665SOL    HW211330   0.372   6.124   4.965
 2666SOL     OW11331   1.041   5.543   5.028
 2666SOL    HW111332   0.977   5.477   5.067
 2666SOL    HW211333   1.035   5.541   4.928
 2667SOL     OW11334   1.408   5.593   3.897
 2667SOL    HW111335   1.365   5.676   3.861
 2667SOL    HW211336   1.338   5.535   3.939
 2668SOL     OW11337   1.270   6.033   4.369
 2668SOL    HW111338   1.214   6.114   4.386
 2668SOL    HW211339   1.337   6.023   4.442
 2669SOL     OW11340   0.059   6.004   6.282
 2669SOL    HW111341   6.464   6.023   6.255
 2669SOL    HW211342   0.060   5.928   6.347
 2670SOL     OW11343   1.192   6.209   6.293
 2670SOL    HW111344   1.203   6.308   6.301
 2670SOL    HW211345   1.097   6.184   6.313
 2671SOL     OW11346   0.781   0.049   6.231
 2671SOL    HW111347   0.850   0.060   6.302
 2671SOL    HW211348   0.697   0.095   6.259
 2672SOL     OW11349   1.619   6.096   6.351
 2672SOL    HW111350   1.600   6.058   6.260
 2672SOL    HW211351   1.534   6.135   6.388
 2673SOL     OW11352   0.146   6.387   6.448
 2673SOL    HW111353   0.187   6.461   6.500
 2673SOL    HW211354   0.113   6.421   6.360
 2674SOL     OW11355   0.530   5.871   6.472
 2674SOL    HW111356   0.557   5.966   6.458
 2674SOL    HW211357   0.444   5.853   6.424
 2675SOL     OW11358   1.390   6.440   0.065
 2675SOL    HW111359   1.390   6.340   0.065
 2675SOL    HW211360   1.483   6.473   0.079
 2676SOL     OW11361   1.356   5.615   5.980
 2676SOL    HW111362   1.343   5.605   5.882
 2676SOL    HW211363   1.450   5.646   5.998
 2677SOL     OW11364   0.634   5.661   5.686
 2677SOL    HW111365   0.658   5.578   5.735
 2677SOL    HW211366   0.586   5.638   5.601
 2678SOL     OW11367   0.589   5.602   6.032
 2678SOL    HW111368   0.525   5.554   6.092
 2678SOL    HW211369   0.545   5.683   5.994
 2679SOL     OW11370   0.546   0.198   6.274
 2679SOL    HW111371   0.558   0.284   6.323
 2679SOL    HW211372   0.450   0.172   6.273
 2680SOL     OW11373   1.029   6.215   5.635
 2680SOL    HW111374   1.000   6.303   5.673
 2680SOL    HW211375   1.077   6.162   5.705
 2681SOL     OW11376   0.954   5.931   6.184
 2681SOL    HW111377   0.961   5.981   6.098
 2681SOL    HW211378   0.916   5.840   6.167
 2682SOL     OW11379   1.803   6.383   6.022
 2682SOL    HW111380   1.875   6.356   6.086
 2682SOL    HW211381   1.798   6.317   5.947
 2683SOL     OW11382   1.381   6.039   5.695
 2683SOL    HW111383   1.295   6.051   5.745
 2683SOL    HW211384   1.424   5.953   5.722
 2684SOL     OW11385   0.514   5.822   5.878
 2684SOL    HW111386   0.560   5.765   5.810
 2684SOL    HW211387   0.479   5.905   5.835
 2685SOL     OW11388   1.147   6.062   5.839
 2685SOL    HW111389   1.203   5.998   5.892
 2685SOL    HW211390   1.051   6.054   5.869
 2686SOL     OW11391   0.264   5.694   6.287
 2686SOL    HW111392   0.200   5.743   6.347
 2686SOL    HW211393   0.329   5.641   6.343
 2687SOL     OW11394   1.599   5.752   5.999
 2687SOL    HW111395   1.680   5.710   6.040
 2687SOL    HW211396   1.589   5.846   6.033
 2688SOL     OW11397   1.506   5.784   5.733
 2688SOL    HW111398   1.423   5.729   5.728
 2688SOL    HW211399   1.546   5.776   5.824
 2689SOL     OW11400   0.422   6.048   5.751
 2689SOL    HW111401   0.482   6.125   5.730
 2689SOL    HW211402   0.352   6.076   5.817
 2690SOL     OW11403   1.944   5.849   6.095
 2690SOL    HW111404   1.925   5.820   6.001
 2690SOL    HW211405   1.996   5.777   6.142
 2691SOL     OW11406   1.241   6.482   6.336
 2691SOL    HW111407   1.298   6.468   6.417
 2691SOL    HW211408   1.298   0.015   6.261
 2692SOL     OW11409   0.322   6.058   6.331
 2692SOL    HW111410   0.226   6.044   6.305
 2692SOL    HW211411   0.326   6.091   6.425
 2693SOL     OW11412   0.936   6.456   5.725
 2693SOL    HW111413   0.865   0.025   5.710
 2693SOL    HW211414   1.000   6.488   5.795
 2694SOL     OW11415   0.074   5.959   5.595
 2694SOL    HW111416   0.117   5.874   5.563
 2694SOL    HW211417   0.097   6.033   5.532
 2695SOL     OW11418   1.280   5.882   5.986
 2695SOL    HW111419   1.293   5.783   5.991
 2695SOL    HW211420   1.292   5.921   6.077
 2696SOL     OW11421   0.403   6.021   6.068
 2696SOL    HW111422   0.451   5.941   6.034
 2696SOL    HW211423   0.384   6.010   6.166
 2697SOL     OW11424   1.282   5.618   5.718
 2697SOL    HW111425   1.267   5.617   5.619
 2697SOL    HW211426   1.208   5.569   5.763
 2698SOL     OW11427   1.352   6.004   6.221
 2698SOL    HW111428   1.290   6.078   6.247
 2698SOL    HW211429   1.364   5.942   6.298
 2699SOL     OW11430   2.100   0.615   0.106
 2699SOL    HW111431   2.023   0.675   0.128
 2699SOL    HW211432   2.068   0.521   0.095
 2700SOL     OW11433   2.530   1.528   1.022
 2700SOL    HW111434   2.457   1.465   0.995
 2700SOL    HW211435   2.506   1.571   1.109
 2701SOL     OW11436   3.447   1.395   0.698
 2701SOL    HW111437   3.409   1.401   0.790
 2701SOL    HW211438   3.399   1.458   0.637
 2702SOL     OW11439   2.698   1.315   1.059
 2702SOL    HW111440   2.649   1.401   1.044
 2702SOL    HW211441   2.694   1.259   0.976
 2703SOL     OW11442   2.650   0.838   1.792
 2703SOL    HW111443   2.644   0.938   1.791
 2703SOL    HW211444   2.746   0.810   1.786
 2704SOL     OW11445   2.613   1.111   1.783
 2704SOL    HW111446   2.683   1.181   1.783
 2704SOL    HW211447   2.523   1.153   1.780
 2705SOL     OW11448   2.325   1.368   0.950
 2705SOL    HW111449   2.262   1.303   0.993
 2705SOL    HW211450   2.274   1.430   0.890
 2706SOL     OW11451   3.292   1.501   1.397
 2706SOL    HW111452   3.346   1.581   1.421
 2706SOL    HW211453   3.215   1.491   1.460
 2707SOL     OW11454   2.188   0.356   1.501
 2707SOL    HW111455   2.225   0.285   1.560
 2707SOL    HW211456   2.096   0.330   1.471
 2708SOL     OW11457   3.556   0.337   0.733
 2708SOL    HW111458   3.528   0.258   0.787
 2708SOL    HW211459   3.509   0.419   0.766
 2709SOL     OW11460   3.053   1.327   1.792
 2709SOL    HW111461   3.116   1.375   1.853
 2709SOL    HW211462   2.961   1.331   1.829
 2710SOL     OW11463   2.390   1.871   1.388
 2710SOL    HW111464   2.334   1.840   1.465
 2710SOL    HW211465   2.447   1.948   1.416
 2711SOL     OW11466   2.412   0.976   0.215
 2711SOL    HW111467   2.458   1.015   0.135
 2711SOL    HW211468   2.439   1.026   0.297
 2712SOL     OW11469   3.465   6.469   1.485
 2712SOL    HW111470   3.527   0.011   1.418
 2712SOL    HW211471   3.419   0.041   1.537
 2713SOL     OW11472   1.931   0.615   0.716
 2713SOL    HW111473   1.835   0.617   0.686
 2713SOL    HW211474   1.945   0.682   0.789
 2714SOL     OW11475   3.585   0.985   0.456
 2714SOL    HW111476   3.654   0.981   0.384
 2714SOL    HW211477   3.598   1.068   0.510
 2715SOL     OW11478   1.999   0.908   1.444
 2715SOL    HW111479   2.037   0.916   1.536
 2715SOL    HW211480   1.904   0.938   1.445
 2716SOL     OW11481   2.586   1.347   0.669
 2716SOL    HW111482   2.494   1.323   0.636
 2716SOL    HW211483   2.617   1.430   0.624
 2717SOL     OW11484   3.003   1.125   1.444
 2717SOL    HW111485   3.055   1.085   1.368
 2717SOL    HW211486   3.047   1.102   1.530
 2718SOL     OW11487   2.719   0.079   0.506
 2718SOL    HW111488   2.772   0.160   0.479
 2718SOL    HW211489   2.750   0.048   0.596
 2719SOL     OW11490   2.141   1.096   1.305
 2719SOL    HW111491   2.224   1.111   1.358
 2719SOL    HW211492   2.091   1.017   1.340
 2720SOL     OW11493   3.314   1.002   0.365
 2720SOL    HW111494   3.266   0.917   0.345
 2720SOL    HW211495   3.410   0.983   0.386
 2721SOL     OW11496   3.115   1.930   1.727
 2721SOL    HW111497   3.079   1.953   1.636
 2721SOL    HW211498   3.096   1.833   1.746
 2722SOL     OW11499   2.267   0.279   1.884
 2722SOL    HW111500   2.335   0.350   1.864
 2722SOL    HW211501   2.175   0.316   1.868
 2723SOL     OW11502   3.304   1.398   0.946
 2723SOL    HW111503   3.237   1.429   1.014
 2723SOL    HW211504   3.279   1.307   0.915
 2724SOL     OW11505   3.375   1.703   0.803
 2724SOL    HW111506   3.353   1.674   0.710
 2724SOL    HW211507   3.469   1.676   0.825
 2725SOL     OW11508   2.473   0.723   0.339
 2725SOL    HW111509   2.449   0.812   0.301
 2725SOL    HW211510   2.433   0.714   0.430
 2726SOL     OW11511   3.420   1.598   0.318
 2726SOL    HW111512   3.500   1.650   0.349
 2726SOL    HW211513   3.391   1.631   0.229
 2727SOL     OW11514   2.734   0.511   1.379
 2727SOL    HW111515   2.731   0.450   1.458
 2727SOL    HW211516   2.642   0.524   1.343
 2728SOL     OW11517   2.925   0.825   0.482
 2728SOL    HW111518   2.946   0.837   0.579
 2728SOL    HW211519   2.854   0.755   0.472
 2729SOL     OW11520   1.977   0.785   0.923
 2729SOL    HW111521   2.064   0.813   0.962
 2729SOL    HW211522   1.906   0.850   0.950
 2730SOL     OW11523   1.954   1.849   1.493
 2730SOL    HW111524   1.928   1.822   1.585
 2730SOL    HW211525   1.891   1.919   1.459
 2731SOL     OW11526   2.828   0.455   0.224
 2731SOL    HW111527   2.832   0.527   0.155
 2731SOL    HW211528   2.838   0.366   0.180
 2732SOL     OW11529   3.564   0.675   1.835
 2732SOL    HW111530   3.530   0.769   1.825
 2732SOL    HW211531   3.624   0.654   1.758
 2733SOL     OW11532   3.225   1.114   0.602
 2733SOL    HW111533   3.265   1.074   0.519
 2733SOL    HW211534   3.195   1.208   0.582
 2734SOL     OW11535   2.374   0.244   0.996
 2734SOL    HW111536   2.358   0.253   1.094
 2734SOL    HW211537   2.353   0.331   0.951
 2735SOL     OW11538   2.812   1.455   0.350
 2735SOL    HW111539   2.825   1.526   0.281
 2735SOL    HW211540   2.778   1.497   0.435
 2736SOL     OW11541   3.633   1.000   0.913
 2736SOL    HW111542   3.597   0.960   0.829
 2736SOL    HW211543   3.561   1.053   0.958
 2737SOL     OW11544   3.064   1.464   1.546
 2737SOL    HW111545   3.067   1.415   1.633
 2737SOL    HW211546   2.981   1.437   1.496
 2738SOL     OW11547   2.125   0.981   0.198
 2738SOL    HW111548   2.223   0.962   0.190
 2738SOL    HW211549   2.084   0.977   0.107
 2739SOL     OW11550   2.374   1.272   1.784
 2739SOL    HW111551   2.286   1.295   1.743
 2739SOL    HW211552   2.365   1.275   1.884
 2740SOL     OW11553   3.458   1.342   0.180
 2740SOL    HW111554   3.440   1.417   0.243
 2740SOL    HW211555   3.375   1.287   0.169
 2741SOL     OW11556   3.293   0.073   0.510
 2741SOL    HW111557   3.261   0.016   0.434
 2741SOL    HW211558   3.390   0.093   0.497
 2742SOL     OW11559   2.123   0.586   0.526
 2742SOL    HW111560   2.140   0.488   0.516
 2742SOL    HW211561   2.050   0.600   0.593
 2743SOL     OW11562   3.335   0.128   1.665
 2743SOL    HW111563   3.350   0.181   1.748
 2743SOL    HW211564   3.245   0.148   1.628
 2744SOL     OW11565   2.405   0.078   0.154
 2744SOL    HW111566   2.461   0.027   0.219
 2744SOL    HW211567   2.433   0.055   0.061
 2745SOL     OW11568   2.751   1.581   1.315
 2745SOL    HW111569   2.797   1.600   1.228
 2745SOL    HW211570   2.787   1.496   1.354
 2746SOL     OW11571   2.260   6.466   0.460
 2746SOL    HW111572   2.225   6.494   0.550
 2746SOL    HW211573   2.261   0.046   0.399
 2747SOL     OW11574   3.222   1.183   0.174
 2747SOL    HW111575   3.253   1.114   0.239
 2747SOL    HW211576   3.162   1.248   0.220
 2748SOL     OW11577   2.881   0.300   0.465
 2748SOL    HW111578   2.876   0.352   0.380
 2748SOL    HW211579   2.977   0.290   0.492
 2749SOL     OW11580   2.904   0.697   1.512
 2749SOL    HW111581   2.850   0.637   1.452
 2749SOL    HW211582   2.979   0.737   1.459
 2750SOL     OW11583   3.099   1.631   0.813
 2750SOL    HW111584   3.101   1.696   0.737
 2750SOL    HW211585   3.188   1.629   0.857
 2751SOL     OW11586   2.353   1.209   0.612
 2751SOL    HW111587   2.304   1.200   0.698
 2751SOL    HW211588   2.291   1.192   0.535
 2752SOL     OW11589   3.096   1.816   0.603
 2752SOL    HW111590   3.136   1.872   0.531
 2752SOL    HW211591   3.022   1.867   0.648
 2753SOL     OW11592   2.849   0.653   0.028
 2753SOL    HW111593   2.793   0.695   6.456
 2753SOL    HW211594   2.919   0.718   0.058
 2754SOL     OW11595   1.994   0.663   1.320
 2754SOL    HW111596   2.088   0.628   1.317
 2754SOL    HW211597   1.993   0.752   1.364
 2755SOL     OW11598   2.336   0.253   1.273
 2755SOL    HW111599   2.339   0.156   1.298
 2755SOL    HW211600   2.279   0.303   1.338
 2756SOL     OW11601   2.757   0.474   0.636
 2756SOL    HW111602   2.731   0.547   0.573
 2756SOL    HW211603   2.795   0.397   0.583
 2757SOL     OW11604   2.823   0.041   0.765
 2757SOL    HW111605   2.891   0.109   0.739
 2757SOL    HW211606   2.860   6.481   0.835
 2758SOL     OW11607   3.264   1.133   0.878
 2758SOL    HW111608   3.217   1.051   0.911
 2758SOL    HW211609   3.266   1.132   0.778
 2759SOL     OW11610   3.763   0.704   0.252
 2759SOL    HW111611   3.794   0.697   0.347
 2759SOL    HW211612   3.684   0.644   0.238
 2760SOL     OW11613   3.630   1.197   0.617
 2760SOL    HW111614   3.724   1.231   0.621
 2760SOL    HW211615   3.567   1.268   0.648
 2761SOL     OW11616   2.275   0.290   0.254
 2761SOL    HW111617   2.326   0.215   0.212
 2761SOL    HW211618   2.315   0.377   0.226
 2762SOL     OW11619   3.653   1.259   1.500
 2762SOL    HW111620   3.751   1.240   1.496
 2762SOL    HW211621   3.634   1.327   1.570
 2763SOL     OW11622   2.844   1.341   1.411
 2763SOL    HW111623   2.759   1.302   1.377
 2763SOL    HW211624   2.911   1.268   1.424
 2764SOL     OW11625   3.468   1.583   1.700
 2764SOL    HW111626   3.451   1.640   1.620
 2764SOL    HW211627   3.561   1.546   1.697
 2765SOL     OW11628   2.972   1.266   1.112
 2765SOL    HW111629   2.873   1.277   1.124
 2765SOL    HW211630   2.998   1.296   1.020
 2766SOL     OW11631   3.456   1.134   1.082
 2766SOL    HW111632   3.460   1.205   1.152
 2766SOL    HW211633   3.382   1.155   1.018
 2767SOL     OW11634   2.739   0.030   1.437
 2767SOL    HW111635   2.791   0.045   1.352
 2767SOL    HW211636   2.788   0.072   1.513
 2768SOL     OW11637   2.531   1.124   0.413
 2768SOL    HW111638   2.481   1.142   0.498
 2768SOL    HW211639   2.626   1.102   0.434
 2769SOL     OW11640   3.078   0.307   1.285
 2769SOL    HW111641   3.124   0.391   1.314
 2769SOL    HW211642   2.992   0.330   1.241
 2770SOL     OW11643   2.202   1.162   0.395
 2770SOL    HW111644   2.216   1.239   0.332
 2770SOL    HW211645   2.170   1.083   0.344
 2771SOL     OW11646   3.127   1.365   0.547
 2771SOL    HW111647   3.172   1.452   0.568
 2771SOL    HW211648   3.033   1.366   0.582
 2772SOL     OW11649   3.150   1.474   1.163
 2772SOL    HW111650   3.201   1.478   1.250
 2772SOL    HW211651   3.084   1.399   1.167
 2773SOL     OW11652   2.862   0.147   1.666
 2773SOL    HW111653   2.953   0.166   1.629
 2773SOL    HW211654   2.859   0.175   1.762
 2774SOL     OW11655   2.250   0.124   1.663
 2774SOL    HW111656   2.313   0.046   1.660
 2774SOL    HW211657   2.263   0.174   1.749
 2775SOL     OW11658   3.144   0.882   0.958
 2775SOL    HW111659   3.088   0.799   0.961
 2775SOL    HW211660   3.231   0.865   1.004
 2776SOL     OW11661   2.125   0.037   0.692
 2776SOL    HW111662   2.044   0.079   0.651
 2776SOL    HW211663   2.099   6.489   0.776
 2777SOL     OW11664   2.988   0.653   0.970
 2777SOL    HW111665   2.952   0.697   1.053
 2777SOL    HW211666   2.921   0.587   0.936
 2778SOL     OW11667   2.839   1.767   1.753
 2778SOL    HW111668   2.816   1.760   1.656
 2778SOL    HW211669   2.756   1.755   1.808
 2779SOL     OW11670   3.723   1.490   1.650
 2779SOL    HW111671   3.760   1.495   1.558
 2779SOL    HW211672   3.795   1.510   1.717
 2780SOL     OW11673   2.275   0.872   1.887
 2780SOL    HW111674   2.200   0.812   1.913
 2780SOL    HW211675   2.343   0.821   1.834
 2781SOL     OW11676   3.015   1.364   0.868
 2781SOL    HW111677   2.977   1.309   0.794
 2781SOL    HW211678   3.048   1.451   0.832
 2782SOL     OW11679   2.223   0.864   1.044
 2782SOL    HW111680   2.317   0.874   1.013
 2782SOL    HW211681   2.218   0.881   1.142
 2783SOL     OW11682   3.099   0.229   1.556
 2783SOL    HW111683   3.137   0.314   1.590
 2783SOL    HW211684   3.078   0.238   1.458
 2784SOL     OW11685   1.937   1.328   0.240
 2784SOL    HW111686   1.845   1.351   0.208
 2784SOL    HW211687   1.935   1.237   0.282
 2785SOL     OW11688   2.856   0.774   1.176
 2785SOL    HW111689   2.859   0.856   1.232
 2785SOL    HW211690   2.766   0.731   1.183
 2786SOL     OW11691   1.806   0.564   1.154
 2786SOL    HW111692   1.845   0.566   1.062
 2786SOL    HW211693   1.874   0.597   1.220
 2787SOL     OW11694   2.071   0.570   1.677
 2787SOL    HW111695   2.124   0.524   1.606
 2787SOL    HW211696   1.979   0.589   1.643
 2788SOL     OW11697   2.728   0.637   0.415
 2788SOL    HW111698   2.762   0.572   0.347
 2788SOL    HW211699   2.639   0.671   0.385
 2789SOL     OW11700   3.500   0.686   1.272
 2789SOL    HW111701   3.487   0.594   1.311
 2789SOL    HW211702   3.584   0.687   1.219
 2790SOL     OW11703   2.157   1.597   1.725
 2790SOL    HW111704   2.101   1.608   1.807
 2790SOL    HW211705   2.162   1.500   1.702
 2791SOL     OW11706   2.486   0.488   1.244
 2791SOL    HW111707   2.456   0.392   1.245
 2791SOL    HW211708   2.500   0.518   1.150
 2792SOL     OW11709   2.719   1.774   1.504
 2792SOL    HW111710   2.732   1.697   1.440
 2792SOL    HW211711   2.732   1.860   1.455
 2793SOL     OW11712   2.353   0.538   0.169
 2793SOL    HW111713   2.407   0.599   0.227
 2793SOL    HW211714   2.264   0.580   0.151
 2794SOL     OW11715   3.076   1.024   1.193
 2794SOL    HW111716   3.095   0.971   1.110
 2794SOL    HW211717   3.039   1.113   1.167
 2795SOL     OW11718   3.128   0.796   0.301
 2795SOL    HW111719   3.061   0.801   0.375
 2795SOL    HW211720   3.088   0.833   0.217
 2796SOL     OW11721   3.112   1.747   1.144
 2796SOL    HW111722   3.201   1.785   1.120
 2796SOL    HW211723   3.119   1.648   1.153
 2797SOL     OW11724   2.546   1.696   1.705
 2797SOL    HW111725   2.481   1.766   1.736
 2797SOL    HW211726   2.595   1.730   1.624
 2798SOL     OW11727   2.892   0.220   0.096
 2798SOL    HW111728   2.838   0.178   0.024
 2798SOL    HW211729   2.958   0.153   0.132
 2799SOL     OW11730   3.563   0.077   0.452
 2799SOL    HW111731   3.626   0.150   0.425
 2799SOL    HW211732   3.609   6.489   0.447
 2800SOL     OW11733   3.278   1.602   0.555
 2800SOL    HW111734   3.324   1.599   0.467
 2800SOL    HW211735   3.214   1.679   0.557
 2801SOL     OW11736   1.889   1.791   1.750
 2801SOL    HW111737   1.916   1.725   1.820
 2801SOL    HW211738   1.900   1.884   1.786
 2802SOL     OW11739   3.034   0.951   0.712
 2802SOL    HW111740   3.067   0.918   0.801
 2802SOL    HW211741   3.108   0.998   0.665
 2803SOL     OW11742   2.630   1.536   0.040
 2803SOL    HW111743   2.596   1.628   0.018
 2803SOL    HW211744   2.554   1.476   0.062
 2804SOL     OW11745   3.460   1.721   1.458
 2804SOL    HW111746   3.558   1.719   1.438
 2804SOL    HW211747   3.427   1.815   1.454
 2805SOL     OW11748   3.781   0.222   0.988
 2805SOL    HW111749   3.794   0.133   0.943
 2805SOL    HW211750   3.688   0.230   1.021
 2806SOL     OW11751   2.064   0.397   0.811
 2806SOL    HW111752   2.016   0.479   0.780
 2806SOL    HW211753   2.003   0.318   0.805
 2807SOL     OW11754   3.185   1.461   0.026
 2807SOL    HW111755   3.151   1.455   0.120
 2807SOL    HW211756   3.135   1.397   6.468
 2808SOL     OW11757   2.768   0.988   1.346
 2808SOL    HW111758   2.850   1.012   1.399
 2808SOL    HW211759   2.719   1.072   1.323
 2809SOL     OW11760   2.801   1.071   0.451
 2809SOL    HW111761   2.834   1.129   0.525
 2809SOL    HW211762   2.845   0.981   0.457
 2810SOL     OW11763   3.355   1.676   0.060
 2810SOL    HW111764   3.294   1.600   0.041
 2810SOL    HW211765   3.443   1.660   0.015
 2811SOL     OW11766   3.482   1.329   1.292
 2811SOL    HW111767   3.543   1.293   1.362
 2811SOL    HW211768   3.407   1.378   1.335
 2812SOL     OW11769   2.893   1.186   0.695
 2812SOL    HW111770   2.808   1.181   0.746
 2812SOL    HW211771   2.943   1.100   0.704
 2813SOL     OW11772   2.364   1.599   0.317
 2813SOL    HW111773   2.432   1.526   0.322
 2813SOL    HW211774   2.401   1.681   0.361
 2814SOL     OW11775   2.210   1.375   0.217
 2814SOL    HW111776   2.111   1.367   0.223
 2814SOL    HW211777   2.241   1.451   0.275
 2815SOL     OW11778   2.074   0.947   1.702
 2815SOL    HW111779   1.986   0.927   1.744
 2815SOL    HW211780   2.147   0.931   1.769
 2816SOL     OW11781   3.118   0.828   1.389
 2816SOL    HW111782   3.102   0.889   1.312
 2816SOL    HW211783   3.214   0.833   1.417
 2817SOL     OW11784   3.074   1.385   0.279
 2817SOL    HW111785   2.976   1.401   0.281
 2817SOL    HW211786   3.108   1.377   0.373
 2818SOL     OW11787   2.572   0.814   1.251
 2818SOL    HW111788   2.642   0.869   1.297
 2818SOL    HW211789   2.488   0.813   1.305
 2819SOL     OW11790   3.370   1.811   1.058
 2819SOL    HW111791   3.368   1.792   0.960
 2819SOL    HW211792   3.418   1.737   1.105
 2820SOL     OW11793   2.230   1.821   1.602
 2820SOL    HW111794   2.147   1.868   1.573
 2820SOL    HW211795   2.206   1.732   1.642
 2821SOL     OW11796   3.371   0.864   1.097
 2821SOL    HW111797   3.413   0.798   1.160
 2821SOL    HW211798   3.409   0.955   1.114
 2822SOL     OW11799   2.779   1.298   6.441
 2822SOL    HW111800   2.750   1.387   6.476
 2822SOL    HW211801   2.874   1.281   6.467
 2823SOL     OW11802   2.408   1.711   0.842
 2823SOL    HW111803   2.434   1.808   0.832
 2823SOL    HW211804   2.474   1.665   0.900
 2824SOL     OW11805   3.002   0.892   0.081
 2824SOL    HW111806   2.929   0.954   0.110
 2824SOL    HW211807   3.052   0.932   0.004
 2825SOL     OW11808   2.598   1.437   1.764
 2825SOL    HW111809   2.513   1.385   1.761
 2825SOL    HW211810   2.581   1.532   1.740
 2826SOL     OW11811   3.719   0.272   1.356
 2826SOL    HW111812   3.694   0.179   1.329
 2826SOL    HW211813   3.805   0.297   1.313
 2827SOL     OW11814   2.203   0.313   0.516
 2827SOL    HW111815   2.240   0.311   0.423
 2827SOL    HW211816   2.275   0.289   0.581
 2828SOL     OW11817   3.481   1.540   1.102
 2828SOL    HW111818   3.415   1.494   1.042
 2828SOL    HW211819   3.497   1.483   1.183
 2829SOL     OW11820   2.251   0.572   1.347
 2829SOL    HW111821   2.224   0.497   1.408
 2829SOL    HW211822   2.336   0.549   1.300
 2830SOL     OW11823   2.878   0.047   1.198
 2830SOL    HW111824   2.862   6.491   1.116
 2830SOL    HW211825   2.971   0.084   1.195
 2831SOL     OW11826   2.541   1.389   0.325
 2831SOL    HW111827   2.524   1.293   0.345
 2831SOL    HW211828   2.639   1.406   0.325
 2832SOL     OW11829   2.483   1.644   1.260
 2832SOL    HW111830   2.448   1.726   1.305
 2832SOL    HW211831   2.574   1.623   1.295
 2833SOL     OW11832   3.097   0.052   0.164
 2833SOL    HW111833   3.163   0.084   0.096
 2833SOL    HW211834   3.143   6.491   0.229
 2834SOL     OW11835   1.886   1.054   0.311
 2834SOL    HW111836   1.971   1.033   0.263
 2834SOL    HW211837   1.854   0.973   0.360
 2835SOL     OW11838   2.073   0.700   1.920
 2835SOL    HW111839   1.988   0.677   1.966
 2835SOL    HW211840   2.074   0.659   1.828
 2836SOL     OW11841   2.124   0.247   2.910
 2836SOL    HW111842   2.176   0.206   2.985
 2836SOL    HW211843   2.036   0.201   2.902
 2837SOL     OW11844   1.857   0.215   2.567
 2837SOL    HW111845   1.800   0.280   2.617
 2837SOL    HW211846   1.812   0.192   2.480
 2838SOL     OW11847   2.408   1.322   3.021
 2838SOL    HW111848   2.407   1.375   2.936
 2838SOL    HW211849   2.442   1.380   3.095
 2839SOL     OW11850   3.445   1.530   2.522
 2839SOL    HW111851   3.420   1.463   2.592
 2839SOL    HW211852   3.368   1.542   2.459
 2840SOL     OW11853   3.655   0.610   2.084
 2840SOL    HW111854   3.620   0.641   1.996
 2840SOL    HW211855   3.612   0.523   2.108
 2841SOL     OW11856   2.549   1.113   2.894
 2841SOL    HW111857   2.481   1.141   2.961
 2841SOL    HW211858   2.592   1.194   2.854
 2842SOL     OW11859   2.480   0.878   2.622
 2842SOL    HW111860   2.571   0.910   2.651
 2842SOL    HW211861   2.411   0.940   2.660
 2843SOL     OW11862   2.444   1.188   3.707
 2843SOL    HW111863   2.528   1.232   3.675
 2843SOL    HW211864   2.365   1.238   3.672
 2844SOL     OW11865   3.287   1.494   3.130
 2844SOL    HW111866   3.326   1.576   3.089
 2844SOL    HW211867   3.204   1.519   3.181
 2845SOL     OW11868   3.551   0.521   2.603
 2845SOL    HW111869   3.495   0.549   2.524
 2845SOL    HW211870   3.604   0.598   2.636
 2846SOL     OW11871   2.178   1.670   2.396
 2846SOL    HW111872   2.177   1.735   2.471
 2846SOL    HW211873   2.134   1.584   2.424
 2847SOL     OW11874   2.072   1.433   2.478
 2847SOL    HW111875   1.993   1.455   2.535
 2847SOL    HW211876   2.108   1.343   2.503
 2848SOL     OW11877   1.984   1.072   2.755
 2848SOL    HW111878   2.040   1.007   2.807
 2848SOL    HW211879   1.911   1.107   2.814
 2849SOL     OW11880   2.469   1.813   3.344
 2849SOL    HW111881   2.371   1.827   3.341
 2849SOL    HW211882   2.515   1.901   3.356
 2850SOL     OW11883   2.346   0.936   2.151
 2850SOL    HW111884   2.320   0.934   2.055
 2850SOL    HW211885   2.443   0.959   2.159
 2851SOL     OW11886   3.561   0.344   3.301
 2851SOL    HW111887   3.507   0.300   3.229
 2851SOL    HW211888   3.520   0.324   3.390
 2852SOL     OW11889   1.979   1.616   1.940
 2852SOL    HW111890   1.959   1.521   1.964
 2852SOL    HW211891   2.003   1.667   2.023
 2853SOL     OW11892   3.493   0.915   2.409
 2853SOL    HW111893   3.570   0.859   2.378
 2853SOL    HW211894   3.480   0.992   2.346
 2854SOL     OW11895   3.453   1.147   2.234
 2854SOL    HW111896   3.453   1.205   2.153
 2854SOL    HW211897   3.501   1.193   2.308
 2855SOL     OW11898   2.005   0.785   3.544
 2855SOL    HW111899   2.093   0.828   3.526
 2855SOL    HW211900   1.932   0.835   3.498
 2856SOL     OW11901   2.384   1.515   2.516
 2856SOL    HW111902   2.374   1.419   2.492
 2856SOL    HW211903   2.329   1.571   2.454
 2857SOL     OW11904   3.083   1.245   3.254
 2857SOL    HW111905   3.118   1.169   3.199
 2857SOL    HW211906   3.129   1.245   3.343
 2858SOL     OW11907   2.666   0.028   2.367
 2858SOL    HW111908   2.741   0.086   2.399
 2858SOL    HW211909   2.624   6.483   2.446
 2859SOL     OW11910   1.904   0.973   3.149
 2859SOL    HW111911   1.997   0.942   3.128
 2859SOL    HW211912   1.842   0.945   3.075
 2860SOL     OW11913   3.345   1.011   2.009
 2860SOL    HW111914   3.278   0.939   2.027
 2860SOL    HW211915   3.384   1.042   2.096
 2861SOL     OW11916   3.387   1.343   2.708
 2861SOL    HW111917   3.321   1.370   2.779
 2861SOL    HW211918   3.363   1.253   2.673
 2862SOL     OW11919   3.526   1.790   2.442
 2862SOL    HW111920   3.617   1.763   2.409
 2862SOL    HW211921   3.480   1.710   2.480
 2863SOL     OW11922   3.288   0.529   3.544
 2863SOL    HW111923   3.233   0.564   3.619
 2863SOL    HW211924   3.385   0.546   3.563
 2864SOL     OW11925   3.003   0.654   2.215
 2864SOL    HW111926   3.018   0.681   2.310
 2864SOL    HW211927   2.906   0.638   2.200
 2865SOL     OW11928   1.828   0.927   2.574
 2865SOL    HW111929   1.876   0.948   2.488
 2865SOL    HW211930   1.873   0.974   2.650
 2866SOL     OW11931   1.966   1.931   3.481
 2866SOL    HW111932   1.972   1.869   3.560
 2866SOL    HW211933   1.872   1.934   3.447
 2867SOL     OW11934   2.855   0.260   1.910
 2867SOL    HW111935   2.886   0.354   1.896
 2867SOL    HW211936   2.807   0.254   1.998
 2868SOL     OW11937   3.555   0.547   3.644
 2868SOL    HW111938   3.545   0.637   3.600
 2868SOL    HW211939   3.648   0.514   3.633
 2869SOL     OW11940   3.240   1.157   2.424
 2869SOL    HW111941   3.312   1.146   2.356
 2869SOL    HW211942   3.170   1.219   2.390
 2870SOL     OW11943   2.558   0.250   2.778
 2870SOL    HW111944   2.504   0.306   2.840
 2870SOL    HW211945   2.506   0.236   2.693
 2871SOL     OW11946   2.820   1.484   2.394
 2871SOL    HW111947   2.859   1.555   2.334
 2871SOL    HW211948   2.774   1.528   2.471
 2872SOL     OW11949   3.580   0.949   2.697
 2872SOL    HW111950   3.538   0.976   2.610
 2872SOL    HW211951   3.541   1.003   2.771
 2873SOL     OW11952   3.018   1.617   3.168
 2873SOL    HW111953   2.966   1.533   3.148
 2873SOL    HW211954   3.040   1.664   3.083
 2874SOL     OW11955   3.284   0.804   2.550
 2874SOL    HW111956   3.304   0.817   2.647
 2874SOL    HW211957   3.359   0.840   2.495
 2875SOL     OW11958   2.230   1.335   3.602
 2875SOL    HW111959   2.203   1.356   3.508
 2875SOL    HW211960   2.148   1.325   3.659
 2876SOL     OW11961   2.960   1.831   2.099
 2876SOL    HW111962   2.866   1.797   2.096
 2876SOL    HW211963   3.018   1.773   2.042
 2877SOL     OW11964   3.425   1.290   1.990
 2877SOL    HW111965   3.373   1.369   1.958
 2877SOL    HW211966   3.381   1.206   1.957
 2878SOL     OW11967   3.235   0.034   2.225
 2878SOL    HW111968   3.263   0.021   2.130
 2878SOL    HW211969   3.303   6.493   2.285
 2879SOL     OW11970   2.657   1.723   2.806
 2879SOL    HW111971   2.662   1.664   2.886
 2879SOL    HW211972   2.647   1.667   2.723
 2880SOL     OW11973   2.121   0.614   2.376
 2880SOL    HW111974   2.116   0.515   2.360
 2880SOL    HW211975   2.202   0.651   2.330
 2881SOL     OW11976   3.420   0.284   3.530
 2881SOL    HW111977   3.447   0.253   3.621
 2881SOL    HW211978   3.359   0.363   3.539
 2882SOL     OW11979   2.569   0.067   1.938
 2882SOL    HW111980   2.559   0.112   2.027
 2882SOL    HW211981   2.484   0.077   1.886
 2883SOL     OW11982   2.664   0.340   3.569
 2883SOL    HW111983   2.748   0.369   3.614
 2883SOL    HW211984   2.595   0.318   3.637
 2884SOL     OW11985   2.680   1.523   3.003
 2884SOL    HW111986   2.660   1.456   2.932
 2884SOL    HW211987   2.751   1.487   3.064
 2885SOL     OW11988   3.142   0.599   3.318
 2885SOL    HW111989   3.201   0.575   3.396
 2885SOL    HW211990   3.168   0.689   3.284
 2886SOL     OW11991   2.642   1.350   2.795
 2886SOL    HW111992   2.719   1.343   2.732
 2886SOL    HW211993   2.567   1.399   2.751
 2887SOL     OW11994   2.284   0.120   2.307
 2887SOL    HW111995   2.258   0.050   2.374
 2887SOL    HW211996   2.239   0.101   2.220
 2888SOL     OW11997   2.176   0.091   2.063
 2888SOL    HW111998   2.213   0.158   1.998
 2888SOL    HW211999   2.112   0.032   2.014
 2889SOL     OW12000   2.907   0.589   3.494
 2889SOL    HW112001   2.817   0.602   3.454
 2889SOL    HW212002   2.977   0.602   3.424
 2890SOL     OW12003   3.075   1.494   2.663
 2890SOL    HW112004   3.096   1.592   2.653
 2890SOL    HW212005   3.123   1.458   2.743
 2891SOL     OW12006   3.131   1.774   2.666
 2891SOL    HW112007   3.186   1.849   2.630
 2891SOL    HW212008   3.034   1.794   2.651
 2892SOL     OW12009   2.940   0.516   1.881
 2892SOL    HW112010   2.925   0.606   1.839
 2892SOL    HW212011   3.027   0.516   1.930
 2893SOL     OW12012   3.281   1.087   2.688
 2893SOL    HW112013   3.225   1.012   2.724
 2893SOL    HW212014   3.258   1.101   2.592
 2894SOL     OW12015   3.714   0.773   2.302
 2894SOL    HW112016   3.766   0.715   2.364
 2894SOL    HW212017   3.689   0.722   2.220
 2895SOL     OW12018   2.357   1.290   2.060
 2895SOL    HW112019   2.287   1.245   2.115
 2895SOL    HW212020   2.388   1.373   2.107
 2896SOL     OW12021   3.573   1.289   2.425
 2896SOL    HW112022   3.669   1.285   2.397
 2896SOL    HW212023   3.550   1.383   2.451
 2897SOL     OW12024   3.299   0.568   1.833
 2897SOL    HW112025   3.263   0.527   1.917
 2897SOL    HW212026   3.394   0.596   1.848
 2898SOL     OW12027   3.669   1.331   3.538
 2898SOL    HW112028   3.743   1.265   3.550
 2898SOL    HW212029   3.700   1.405   3.479
 2899SOL     OW12030   2.874   1.382   3.152
 2899SOL    HW112031   2.790   1.356   3.199
 2899SOL    HW212032   2.951   1.333   3.192
 2900SOL     OW12033   3.498   1.657   3.492
 2900SOL    HW112034   3.483   1.695   3.400
 2900SOL    HW212035   3.586   1.610   3.494
 2901SOL     OW12036   2.965   1.242   2.925
 2901SOL    HW112037   2.911   1.290   2.994
 2901SOL    HW212038   2.922   1.255   2.835
 2902SOL     OW12039   3.452   1.085   2.911
 2902SOL    HW112040   3.462   1.167   2.967
 2902SOL    HW212041   3.381   1.101   2.842
 2903SOL     OW12042   2.170   0.887   3.135
 2903SOL    HW112043   2.250   0.937   3.169
 2903SOL    HW212044   2.170   0.795   3.174
 2904SOL     OW12045   3.181   0.394   3.126
 2904SOL    HW112046   3.182   0.474   3.186
 2904SOL    HW212047   3.094   0.346   3.135
 2905SOL     OW12048   1.916   1.605   3.131
 2905SOL    HW112049   1.963   1.613   3.043
 2905SOL    HW212050   1.983   1.613   3.205
 2906SOL     OW12051   2.501   0.635   2.800
 2906SOL    HW112052   2.473   0.666   2.709
 2906SOL    HW212053   2.599   0.618   2.800
 2907SOL     OW12054   3.068   1.359   2.323
 2907SOL    HW112055   3.134   1.431   2.346
 2907SOL    HW212056   2.982   1.377   2.371
 2908SOL     OW12057   3.193   1.393   2.892
 2908SOL    HW112058   3.229   1.422   2.981
 2908SOL    HW212059   3.118   1.328   2.907
 2909SOL     OW12060   3.405   0.569   2.381
 2909SOL    HW112061   3.316   0.535   2.410
 2909SOL    HW212062   3.394   0.635   2.307
 2910SOL     OW12063   2.197   1.611   3.183
 2910SOL    HW112064   2.162   1.622   3.090
 2910SOL    HW212065   2.296   1.600   3.181
 2911SOL     OW12066   2.267   0.839   3.437
 2911SOL    HW112067   2.332   0.887   3.377
 2911SOL    HW212068   2.232   0.759   3.389
 2912SOL     OW12069   3.491   0.776   3.518
 2912SOL    HW112070   3.402   0.821   3.512
 2912SOL    HW212071   3.547   0.804   3.440
 2913SOL     OW12072   2.355   6.413   3.686
 2913SOL    HW112073   2.323   6.365   3.605
 2913SOL    HW212074   2.402   6.497   3.658
 2914SOL     OW12075   2.481   0.849   2.986
 2914SOL    HW112076   2.510   0.933   2.940
 2914SOL    HW212077   2.484   0.773   2.922
 2915SOL     OW12078   3.170   0.866   2.833
 2915SOL    HW112079   3.071   0.848   2.831
 2915SOL    HW212080   3.217   0.789   2.875
 2916SOL     OW12081   3.165   0.497   2.063
 2916SOL    HW112082   3.204   0.422   2.117
 2916SOL    HW212083   3.102   0.550   2.119
 2917SOL     OW12084   2.222   0.043   3.122
 2917SOL    HW112085   2.258   0.076   3.209
 2917SOL    HW212086   2.131   0.004   3.136
 2918SOL     OW12087   1.811   1.359   3.101
 2918SOL    HW112088   1.844   1.298   3.173
 2918SOL    HW212089   1.843   1.452   3.119
 2919SOL     OW12090   3.628   1.012   3.611
 2919SOL    HW112091   3.612   0.914   3.614
 2919SOL    HW212092   3.545   1.058   3.580
 2920SOL     OW12093   2.184   6.475   2.542
 2920SOL    HW112094   2.155   0.067   2.567
 2920SOL    HW212095   2.179   6.415   2.622
 2921SOL     OW12096   3.517   0.369   2.132
 2921SOL    HW112097   3.598   0.323   2.170
 2921SOL    HW212098   3.442   0.363   2.197
 2922SOL     OW12099   2.895   0.813   2.855
 2922SOL    HW112100   2.894   0.813   2.955
 2922SOL    HW212101   2.852   0.730   2.821
 2923SOL     OW12102   3.757   1.565   3.417
 2923SOL    HW112103   3.781   1.605   3.329
 2923SOL    HW212104   3.794   1.621   3.491
 2924SOL     OW12105   2.287   0.957   3.693
 2924SOL    HW112106   2.349   1.035   3.685
 2924SOL    HW212107   2.282   0.908   3.606
 2925SOL     OW12108   3.371   0.246   1.920
 2925SOL    HW112109   3.326   0.164   1.955
 2925SOL    HW212110   3.404   0.301   1.997
 2926SOL     OW12111   2.877   1.299   2.664
 2926SOL    HW112112   2.893   1.218   2.609
 2926SOL    HW212113   2.948   1.367   2.644
 2927SOL     OW12114   2.380   0.422   2.924
 2927SOL    HW112115   2.292   0.394   2.887
 2927SOL    HW212116   2.415   0.501   2.872
 2928SOL     OW12117   1.963   1.770   2.735
 2928SOL    HW112118   1.891   1.751   2.669
 2928SOL    HW212119   2.045   1.802   2.687
 2929SOL     OW12120   1.961   0.450   2.789
 2929SOL    HW112121   2.020   0.393   2.846
 2929SOL    HW212122   2.017   0.510   2.732
 2930SOL     OW12123   1.990   0.535   3.648
 2930SOL    HW112124   2.067   0.482   3.614
 2930SOL    HW212125   1.993   0.627   3.609
 2931SOL     OW12126   3.276   0.940   3.473
 2931SOL    HW112127   3.331   1.023   3.466
 2931SOL    HW212128   3.248   0.910   3.382
 2932SOL     OW12129   3.483   0.635   2.973
 2932SOL    HW112130   3.451   0.555   3.024
 2932SOL    HW212131   3.577   0.620   2.941
 2933SOL     OW12132   1.926   1.198   3.308
 2933SOL    HW112133   1.946   1.162   3.399
 2933SOL    HW212134   1.920   1.122   3.243
 2934SOL     OW12135   3.122   1.049   3.044
 2934SOL    HW112136   3.156   0.990   2.971
 2934SOL    HW212137   3.059   1.116   3.006
 2935SOL     OW12138   3.189   0.796   2.062
 2935SOL    HW112139   3.117   0.763   2.123
 2935SOL    HW212140   3.214   0.724   1.997
 2936SOL     OW12141   1.779   1.159   2.909
 2936SOL    HW112142   1.783   1.228   2.981
 2936SOL    HW212143   1.687   1.119   2.907
 2937SOL     OW12144   2.445   1.655   3.568
 2937SOL    HW112145   2.373   1.690   3.628
 2937SOL    HW212146   2.453   1.713   3.488
 2938SOL     OW12147   3.226   1.581   2.366
 2938SOL    HW112148   3.252   1.607   2.272
 2938SOL    HW212149   3.172   1.655   2.406
 2939SOL     OW12150   2.002   1.761   3.689
 2939SOL    HW112151   1.950   1.679   3.713
 2939SOL    HW212152   2.099   1.746   3.707
 2940SOL     OW12153   2.649   1.307   3.274
 2940SOL    HW112154   2.586   1.341   3.344
 2940SOL    HW212155   2.646   1.207   3.273
 2941SOL     OW12156   3.507   1.749   3.229
 2941SOL    HW112157   3.607   1.748   3.220
 2941SOL    HW212158   3.465   1.728   3.141
 2942SOL     OW12159   2.118   0.225   2.631
 2942SOL    HW112160   2.021   0.223   2.609
 2942SOL    HW212161   2.130   0.235   2.730
 2943SOL     OW12162   3.049   1.657   1.894
 2943SOL    HW112163   3.022   1.585   1.957
 2943SOL    HW212164   2.970   1.684   1.838
 2944SOL     OW12165   3.291   1.523   1.895
 2944SOL    HW112166   3.207   1.575   1.877
 2944SOL    HW212167   3.357   1.542   1.823
 2945SOL     OW12168   2.148   1.385   3.351
 2945SOL    HW112169   2.169   1.458   3.286
 2945SOL    HW212170   2.078   1.325   3.312
 2946SOL     OW12171   3.493   1.313   3.069
 2946SOL    HW112172   3.576   1.325   3.124
 2946SOL    HW212173   3.420   1.370   3.106
 2947SOL     OW12174   2.989   0.143   2.848
 2947SOL    HW112175   2.935   0.112   2.769
 2947SOL    HW212176   2.934   0.137   2.931
 2948SOL     OW12177   2.060   1.269   2.231
 2948SOL    HW112178   2.022   1.309   2.148
 2948SOL    HW212179   2.069   1.341   2.301
 2949SOL     OW12180   2.009   0.354   1.829
 2949SOL    HW112181   1.926   0.320   1.784
 2949SOL    HW212182   2.036   0.440   1.787
 2950SOL     OW12183   3.228   0.853   3.219
 2950SOL    HW112184   3.167   0.913   3.167
 2950SOL    HW212185   3.320   0.856   3.179
 2951SOL     OW12186   1.973   0.398   2.110
 2951SOL    HW112187   1.997   0.352   2.025
 2951SOL    HW212188   2.019   0.353   2.186
 2952SOL     OW12189   2.991   1.454   2.066
 2952SOL    HW112190   2.918   1.398   2.025
 2952SOL    HW212191   3.025   1.409   2.149
 2953SOL     OW12192   2.433   0.938   3.238
 2953SOL    HW112193   2.517   0.984   3.267
 2953SOL    HW212194   2.446   0.896   3.149
 2954SOL     OW12195   2.505   0.604   3.707
 2954SOL    HW112196   2.544   0.688   3.745
 2954SOL    HW212197   2.543   0.588   3.615
 2955SOL     OW12198   3.441   1.165   3.480
 2955SOL    HW112199   3.352   1.211   3.488
 2955SOL    HW212200   3.514   1.233   3.487
 2956SOL     OW12201   2.198   1.821   3.370
 2956SOL    HW112202   2.109   1.858   3.397
 2956SOL    HW212203   2.185   1.745   3.306
 2957SOL     OW12204   3.474   0.878   3.094
 2957SOL    HW112205   3.482   0.791   3.046
 2957SOL    HW212206   3.472   0.952   3.026
 2958SOL     OW12207   3.263   0.316   2.249
 2958SOL    HW112208   3.245   0.218   2.249
 2958SOL    HW212209   3.221   0.357   2.330
 2959SOL     OW12210   2.483   0.649   2.479
 2959SOL    HW112211   2.479   0.740   2.521
 2959SOL    HW212212   2.435   0.650   2.392
 2960SOL     OW12213   3.632   0.908   3.319
 2960SOL    HW112214   3.618   1.004   3.342
 2960SOL    HW212215   3.587   0.887   3.232
 2961SOL     OW12216   2.801   1.327   1.904
 2961SOL    HW112217   2.748   1.279   1.973
 2961SOL    HW212218   2.740   1.380   1.845
 2962SOL     OW12219   2.435   1.873   2.699
 2962SOL    HW112220   2.439   1.971   2.714
 2962SOL    HW212221   2.512   1.829   2.746
 2963SOL     OW12222   2.718   0.972   2.728
 2963SOL    HW112223   2.784   0.918   2.779
 2963SOL    HW212224   2.663   1.027   2.792
 2964SOL     OW12225   3.695   1.561   2.643
 2964SOL    HW112226   3.611   1.562   2.588
 2964SOL    HW212227   3.686   1.495   2.717
 2965SOL     OW12228   2.012   1.338   3.757
 2965SOL    HW112229   1.952   1.258   3.763
 2965SOL    HW212230   2.051   1.355   3.847
 2966SOL     OW12231   2.122   1.156   2.533
 2966SOL    HW112232   2.082   1.133   2.622
 2966SOL    HW212233   2.072   1.110   2.460
 2967SOL     OW12234   2.479   1.394   3.469
 2967SOL    HW112235   2.391   1.349   3.479
 2967SOL    HW212236   2.470   1.490   3.495
 2968SOL     OW12237   3.680   0.131   2.835
 2968SOL    HW112238   3.621   0.075   2.893
 2968SOL    HW212239   3.626   0.201   2.788
 2969SOL     OW12240   2.127   0.340   2.360
 2969SOL    HW112241   2.189   0.268   2.331
 2969SOL    HW212242   2.101   0.325   2.456
 2970SOL     OW12243   3.631   1.367   2.834
 2970SOL    HW112244   3.557   1.348   2.770
 2970SOL    HW212245   3.598   1.353   2.928
 2971SOL     OW12246   2.636   1.615   2.552
 2971SOL    HW112247   2.650   1.703   2.508
 2971SOL    HW212248   2.543   1.583   2.535
 2972SOL     OW12249   3.407   0.236   3.109
 2972SOL    HW112250   3.429   0.186   3.026
 2972SOL    HW212251   3.326   0.293   3.093
 2973SOL     OW12252   2.631   1.226   2.089
 2973SOL    HW112253   2.537   1.239   2.056
 2973SOL    HW212254   2.639   1.263   2.182
 2974SOL     OW12255   2.468   1.596   3.165
 2974SOL    HW112256   2.488   1.673   3.226
 2974SOL    HW212257   2.547   1.577   3.108
 2975SOL     OW12258   3.298   6.472   1.968
 2975SOL    HW112259   3.377   6.442   1.915
 2975SOL    HW212260   3.223   6.409   1.955
 2976SOL     OW12261   3.160   0.470   2.467
 2976SOL    HW112262   3.107   0.555   2.470
 2976SOL    HW212263   3.145   0.419   2.552
 2977SOL     OW12264   1.955   1.032   2.341
 2977SOL    HW112265   1.995   1.102   2.281
 2977SOL    HW212266   1.953   0.944   2.293
 2978SOL     OW12267   1.862   0.602   3.885
 2978SOL    HW112268   1.925   0.563   3.952
 2978SOL    HW212269   1.896   0.585   3.793
 2979SOL     OW12270   1.902   0.336   4.216
 2979SOL    HW112271   1.828   0.386   4.262
 2979SOL    HW212272   1.866   0.250   4.180
 2980SOL     OW12273   3.561   1.453   4.520
 2980SOL    HW112274   3.527   1.460   4.614
 2980SOL    HW212275   3.496   1.495   4.457
 2981SOL     OW12276   3.413   0.571   3.875
 2981SOL    HW112277   3.477   0.553   3.800
 2981SOL    HW212278   3.431   0.506   3.950
 2982SOL     OW12279   2.684   1.228   4.856
 2982SOL    HW112280   2.629   1.153   4.821
 2982SOL    HW212281   2.664   1.311   4.804
 2983SOL     OW12282   3.301   1.621   5.125
 2983SOL    HW112283   3.360   1.700   5.139
 2983SOL    HW212284   3.222   1.627   5.186
 2984SOL     OW12285   2.323   0.330   5.211
 2984SOL    HW112286   2.406   0.275   5.226
 2984SOL    HW212287   2.243   0.276   5.235
 2985SOL     OW12288   3.500   0.416   4.458
 2985SOL    HW112289   3.509   0.479   4.380
 2985SOL    HW212290   3.436   0.455   4.524
 2986SOL     OW12291   3.032   1.428   5.466
 2986SOL    HW112292   3.062   1.394   5.555
 2986SOL    HW212293   3.056   1.363   5.395
 2987SOL     OW12294   2.044   1.097   4.581
 2987SOL    HW112295   2.069   1.031   4.652
 2987SOL    HW212296   1.958   1.141   4.606
 2988SOL     OW12297   2.533   1.015   3.926
 2988SOL    HW112298   2.483   1.077   3.866
 2988SOL    HW212299   2.565   1.065   4.006
 2989SOL     OW12300   2.001   0.702   4.291
 2989SOL    HW112301   1.981   0.605   4.278
 2989SOL    HW212302   1.959   0.733   4.377
 2990SOL     OW12303   3.626   0.855   4.290
 2990SOL    HW112304   3.710   0.843   4.344
 2990SOL    HW212305   3.577   0.935   4.322
 2991SOL     OW12306   2.110   0.750   5.288
 2991SOL    HW112307   2.206   0.764   5.264
 2991SOL    HW212308   2.056   0.829   5.258
 2992SOL     OW12309   3.138   1.250   5.251
 2992SOL    HW112310   3.133   1.184   5.176
 2992SOL    HW212311   3.220   1.232   5.306
 2993SOL     OW12312   2.634   6.313   4.305
 2993SOL    HW112313   2.682   6.343   4.222
 2993SOL    HW212314   2.536   6.307   4.286
 2994SOL     OW12315   2.052   0.937   4.799
 2994SOL    HW112316   2.103   0.881   4.865
 2994SOL    HW212317   1.955   0.915   4.805
 2995SOL     OW12318   3.293   0.969   3.935
 2995SOL    HW112319   3.257   0.957   3.843
 2995SOL    HW212320   3.261   0.894   3.993
 2996SOL     OW12321   3.104   1.890   5.408
 2996SOL    HW112322   3.079   1.966   5.347
 2996SOL    HW212323   3.097   1.804   5.358
 2997SOL     OW12324   2.144   0.158   5.581
 2997SOL    HW112325   2.206   0.161   5.660
 2997SOL    HW212326   2.097   0.246   5.573
 2998SOL     OW12327   2.517   0.797   4.117
 2998SOL    HW112328   2.500   0.857   4.039
 2998SOL    HW212329   2.429   0.772   4.158
 2999SOL     OW12330   3.169   0.322   4.714
 2999SOL    HW112331   3.118   0.267   4.648
 2999SOL    HW212332   3.212   0.262   4.781
 3000SOL     OW12333   2.692   0.538   5.113
 3000SOL    HW112334   2.656   0.491   5.193
 3000SOL    HW212335   2.625   0.533   5.039
 3001SOL     OW12336   2.895   0.375   5.034
 3001SOL    HW112337   2.829   0.439   5.074
 3001SOL    HW212338   2.947   0.420   4.962
 3002SOL     OW12339   1.899   0.761   4.563
 3002SOL    HW112340   1.998   0.761   4.574
 3002SOL    HW212341   1.857   0.814   4.637
 3003SOL     OW12342   1.882   1.839   5.287
 3003SOL    HW112343   1.905   1.837   5.385
 3003SOL    HW212344   1.787   1.869   5.276
 3004SOL     OW12345   3.227   1.147   4.192
 3004SOL    HW112346   3.324   1.159   4.174
 3004SOL    HW212347   3.181   1.113   4.110
 3005SOL     OW12348   3.079   1.640   5.284
 3005SOL    HW112349   3.060   1.571   5.354
 3005SOL    HW212350   2.994   1.663   5.236
 3006SOL     OW12351   2.202   0.998   3.951
 3006SOL    HW112352   2.232   0.982   3.857
 3006SOL    HW212353   2.141   0.924   3.979
 3007SOL     OW12354   2.309   1.293   5.427
 3007SOL    HW112355   2.298   1.378   5.375
 3007SOL    HW212356   2.219   1.262   5.459
 3008SOL     OW12357   2.910   1.822   3.931
 3008SOL    HW112358   2.841   1.797   3.999
 3008SOL    HW212359   2.959   1.740   3.901
 3009SOL     OW12360   2.049   0.217   5.210
 3009SOL    HW112361   2.025   0.312   5.226
 3009SOL    HW212362   2.011   0.160   5.283
 3010SOL     OW12363   3.318   0.077   4.096
 3010SOL    HW112364   3.283   0.053   4.006
 3010SOL    HW212365   3.412   0.111   4.087
 3011SOL     OW12366   2.962   1.632   4.540
 3011SOL    HW112367   3.017   1.662   4.619
 3011SOL    HW212368   2.878   1.685   4.536
 3012SOL     OW12369   2.277   0.720   4.243
 3012SOL    HW112370   2.313   0.630   4.265
 3012SOL    HW212371   2.178   0.721   4.257
 3013SOL     OW12372   2.678   0.146   5.539
 3013SOL    HW112373   2.752   0.152   5.473
 3013SOL    HW212374   2.673   0.231   5.592
 3014SOL     OW12375   2.753   1.549   4.957
 3014SOL    HW112376   2.717   1.521   4.868
 3014SOL    HW212377   2.823   1.484   4.986
 3015SOL     OW12378   3.074   0.622   5.230
 3015SOL    HW112379   3.133   0.541   5.240
 3015SOL    HW212380   3.129   0.700   5.201
 3016SOL     OW12381   2.632   1.455   4.726
 3016SOL    HW112382   2.672   1.454   4.634
 3016SOL    HW212383   2.532   1.457   4.719
 3017SOL     OW12384   2.860   0.464   4.609
 3017SOL    HW112385   2.893   0.398   4.541
 3017SOL    HW212386   2.917   0.459   4.691
 3018SOL     OW12387   2.335   0.061   4.079
 3018SOL    HW112388   2.283   0.019   4.153
 3018SOL    HW212389   2.424   0.089   4.112
 3019SOL     OW12390   2.173   0.029   3.859
 3019SOL    HW112391   2.227   6.476   3.794
 3019SOL    HW212392   2.228   0.047   3.941
 3020SOL     OW12393   2.823   0.740   5.226
 3020SOL    HW112394   2.769   0.666   5.188
 3020SOL    HW212395   2.916   0.709   5.242
 3021SOL     OW12396   2.281   1.138   4.449
 3021SOL    HW112397   2.196   1.140   4.502
 3021SOL    HW212398   2.266   1.087   4.365
 3022SOL     OW12399   2.888   0.457   3.732
 3022SOL    HW112400   2.905   0.512   3.650
 3022SOL    HW212401   2.907   0.511   3.814
 3023SOL     OW12402   2.024   0.507   5.186
 3023SOL    HW112403   2.098   0.498   5.120
 3023SOL    HW212404   2.033   0.593   5.237
 3024SOL     OW12405   2.466   0.218   4.922
 3024SOL    HW112406   2.535   0.212   4.995
 3024SOL    HW212407   2.376   0.196   4.960
 3025SOL     OW12408   2.717   6.446   4.519
 3025SOL    HW112409   2.683   6.395   4.440
 3025SOL    HW212410   2.776   6.387   4.574
 3026SOL     OW12411   3.332   0.531   4.635
 3026SOL    HW112412   3.279   0.452   4.667
 3026SOL    HW212413   3.396   0.559   4.707
 3027SOL     OW12414   2.304   1.483   3.833
 3027SOL    HW112415   2.244   1.444   3.902
 3027SOL    HW212416   2.293   1.435   3.746
 3028SOL     OW12417   3.584   1.180   4.437
 3028SOL    HW112418   3.680   1.161   4.416
 3028SOL    HW212419   3.572   1.278   4.449
 3029SOL     OW12420   3.177   0.633   3.771
 3029SOL    HW112421   3.106   0.606   3.836
 3029SOL    HW212422   3.267   0.617   3.812
 3030SOL     OW12423   3.634   1.124   5.310
 3030SOL    HW112424   3.724   1.143   5.270
 3030SOL    HW212425   3.646   1.094   5.405
 3031SOL     OW12426   2.949   1.366   5.083
 3031SOL    HW112427   2.864   1.322   5.110
 3031SOL    HW212428   3.020   1.347   5.150
 3032SOL     OW12429   3.500   1.712   5.434
 3032SOL    HW112430   3.478   1.743   5.341
 3032SOL    HW212431   3.523   1.614   5.431
 3033SOL     OW12432   2.956   1.168   4.887
 3033SOL    HW112433   2.965   1.249   4.945
 3033SOL    HW212434   2.862   1.162   4.853
 3034SOL     OW12435   2.803   0.072   5.260
 3034SOL    HW112436   2.799   0.099   5.164
 3034SOL    HW212437   2.891   0.097   5.299
 3035SOL     OW12438   2.194   0.778   4.974
 3035SOL    HW112439   2.252   0.852   5.009
 3035SOL    HW212440   2.221   0.691   5.015
 3036SOL     OW12441   2.252   0.991   4.223
 3036SOL    HW112442   2.248   1.007   4.125
 3036SOL    HW212443   2.267   0.893   4.240
 3037SOL     OW12444   2.307   0.493   4.563
 3037SOL    HW112445   2.322   0.491   4.464
 3037SOL    HW212446   2.365   0.425   4.607
 3038SOL     OW12447   3.141   1.494   4.930
 3038SOL    HW112448   3.199   1.551   4.988
 3038SOL    HW212449   3.064   1.460   4.984
 3039SOL     OW12450   3.485   0.611   4.266
 3039SOL    HW112451   3.534   0.698   4.270
 3039SOL    HW212452   3.389   0.626   4.291
 3040SOL     OW12453   2.279   1.482   5.048
 3040SOL    HW112454   2.262   1.411   4.980
 3040SOL    HW212455   2.354   1.541   5.017
 3041SOL     OW12456   2.371   0.826   5.256
 3041SOL    HW112457   2.367   0.885   5.176
 3041SOL    HW212458   2.463   0.825   5.293
 3042SOL     OW12459   3.490   0.763   5.466
 3042SOL    HW112460   3.395   0.780   5.492
 3042SOL    HW212461   3.507   0.797   5.374
 3043SOL     OW12462   2.988   0.104   5.482
 3043SOL    HW112463   2.960   0.201   5.484
 3043SOL    HW212464   3.082   0.096   5.513
 3044SOL     OW12465   2.329   0.058   5.387
 3044SOL    HW112466   2.310   6.461   5.368
 3044SOL    HW212467   2.268   0.089   5.460
 3045SOL     OW12468   2.386   0.722   4.787
 3045SOL    HW112469   2.381   0.777   4.704
 3045SOL    HW212470   2.308   0.745   4.846
 3046SOL     OW12471   2.999   0.575   3.969
 3046SOL    HW112472   3.046   0.508   4.026
 3046SOL    HW212473   3.021   0.667   4.001
 3047SOL     OW12474   2.220   0.125   5.006
 3047SOL    HW112475   2.159   0.162   5.075
 3047SOL    HW212476   2.208   0.026   4.999
 3048SOL     OW12477   2.718   0.667   4.731
 3048SOL    HW112478   2.765   0.600   4.674
 3048SOL    HW212479   2.647   0.622   4.785
 3049SOL     OW12480   3.592   1.001   5.560
 3049SOL    HW112481   3.567   0.913   5.520
 3049SOL    HW212482   3.543   1.014   5.646
 3050SOL     OW12483   2.192   6.492   4.316
 3050SOL    HW112484   2.194   0.092   4.310
 3050SOL    HW212485   2.136   6.465   4.394
 3051SOL     OW12486   3.447   0.402   4.088
 3051SOL    HW112487   3.503   0.319   4.095
 3051SOL    HW212488   3.478   0.469   4.154
 3052SOL     OW12489   2.269   0.927   5.490
 3052SOL    HW112490   2.340   0.992   5.515
 3052SOL    HW212491   2.295   0.878   5.407
 3053SOL     OW12492   3.492   0.145   3.776
 3053SOL    HW112493   3.399   0.111   3.794
 3053SOL    HW212494   3.536   0.167   3.862
 3054SOL     OW12495   3.149   0.895   3.709
 3054SOL    HW112496   3.156   0.797   3.725
 3054SOL    HW212497   3.186   0.917   3.619
 3055SOL     OW12498   2.765   1.437   4.488
 3055SOL    HW112499   2.785   1.339   4.488
 3055SOL    HW212500   2.849   1.488   4.505
 3056SOL     OW12501   2.170   0.735   4.563
 3056SOL    HW112502   2.238   0.808   4.555
 3056SOL    HW212503   2.217   0.647   4.568
 3057SOL     OW12504   2.172   0.410   4.791
 3057SOL    HW112505   2.145   0.317   4.768
 3057SOL    HW212506   2.220   0.451   4.713
 3058SOL     OW12507   3.079   0.228   5.191
 3058SOL    HW112508   3.134   0.295   5.240
 3058SOL    HW212509   3.010   0.275   5.136
 3059SOL     OW12510   2.076   1.842   4.674
 3059SOL    HW112511   1.992   1.792   4.656
 3059SOL    HW212512   2.149   1.808   4.614
 3060SOL     OW12513   2.816   0.831   4.949
 3060SOL    HW112514   2.829   0.793   5.040
 3060SOL    HW212515   2.782   0.759   4.887
 3061SOL     OW12516   1.993   0.611   4.866
 3061SOL    HW112517   2.047   0.533   4.834
 3061SOL    HW212518   2.054   0.681   4.904
 3062SOL     OW12519   3.239   0.919   5.425
 3062SOL    HW112520   3.285   1.007   5.411
 3062SOL    HW212521   3.224   0.875   5.337
 3063SOL     OW12522   2.559   0.515   4.121
 3063SOL    HW112523   2.652   0.481   4.106
 3063SOL    HW212524   2.557   0.614   4.108
 3064SOL     OW12525   3.520   0.595   4.836
 3064SOL    HW112526   3.547   0.523   4.901
 3064SOL    HW212527   3.601   0.646   4.807
 3065SOL     OW12528   1.959   1.477   5.460
 3065SOL    HW112529   1.940   1.530   5.542
 3065SOL    HW212530   2.006   1.392   5.485
 3066SOL     OW12531   2.537   0.522   4.887
 3066SOL    HW112532   2.498   0.432   4.870
 3066SOL    HW212533   2.472   0.592   4.856
 3067SOL     OW12534   2.856   1.715   5.152
 3067SOL    HW112535   2.808   1.659   5.084
 3067SOL    HW212536   2.842   1.812   5.131
 3068SOL     OW12537   3.163   1.076   5.030
 3068SOL    HW112538   3.245   1.075   4.973
 3068SOL    HW212539   3.083   1.096   4.974
 3069SOL     OW12540   3.098   0.815   4.065
 3069SOL    HW112541   3.095   0.824   4.165
 3069SOL    HW212542   3.055   0.895   4.024
 3070SOL     OW12543   3.550   1.750   4.755
 3070SOL    HW112544   3.625   1.725   4.694
 3070SOL    HW212545   3.498   1.668   4.778
 3071SOL     OW12546   1.994   1.289   4.854
 3071SOL    HW112547   1.949   1.311   4.941
 3071SOL    HW212548   1.926   1.254   4.790
 3072SOL     OW12549   3.581   0.152   4.050
 3072SOL    HW112550   3.664   0.200   4.021
 3072SOL    HW212551   3.606   0.061   4.085
 3073SOL     OW12552   3.389   1.578   4.352
 3073SOL    HW112553   3.419   1.644   4.284
 3073SOL    HW212554   3.289   1.569   4.349
 3074SOL     OW12555   1.946   1.833   5.552
 3074SOL    HW112556   1.912   1.751   5.598
 3074SOL    HW212557   2.008   1.882   5.613
 3075SOL     OW12558   2.716   1.236   5.126
 3075SOL    HW112559   2.657   1.296   5.180
 3075SOL    HW212560   2.693   1.246   5.029
 3076SOL     OW12561   2.552   1.578   3.910
 3076SOL    HW112562   2.619   1.578   3.835
 3076SOL    HW212563   2.469   1.532   3.881
 3077SOL     OW12564   3.492   1.823   5.170
 3077SOL    HW112565   3.533   1.816   5.079
 3077SOL    HW212566   3.483   1.919   5.196
 3078SOL     OW12567   2.152   0.267   4.331
 3078SOL    HW112568   2.069   0.291   4.282
 3078SOL    HW212569   2.132   0.261   4.429
 3079SOL     OW12570   3.044   1.602   3.852
 3079SOL    HW112571   3.008   1.517   3.891
 3079SOL    HW212572   3.064   1.588   3.755
 3080SOL     OW12573   2.615   0.994   5.031
 3080SOL    HW112574   2.687   0.935   4.995
 3080SOL    HW212575   2.657   1.069   5.084
 3081SOL     OW12576   3.345   1.689   3.720
 3081SOL    HW112577   3.259   1.658   3.679
 3081SOL    HW212578   3.415   1.696   3.649
 3082SOL     OW12579   3.460   1.402   5.064
 3082SOL    HW112580   3.431   1.328   5.123
 3082SOL    HW212581   3.406   1.484   5.083
 3083SOL     OW12582   2.847   1.179   4.510
 3083SOL    HW112583   2.829   1.088   4.550
 3083SOL    HW212584   2.941   1.182   4.477
 3084SOL     OW12585   2.407   1.640   4.150
 3084SOL    HW112586   2.458   1.612   4.068
 3084SOL    HW212587   2.354   1.563   4.184
 3085SOL     OW12588   3.609   0.418   5.027
 3085SOL    HW112589   3.699   0.445   5.061
 3085SOL    HW212590   3.581   0.332   5.069
 3086SOL     OW12591   2.118   1.378   4.004
 3086SOL    HW112592   2.070   1.293   4.025
 3086SOL    HW212593   2.131   1.431   4.087
 3087SOL     OW12594   2.006   0.991   5.480
 3087SOL    HW112595   1.944   0.938   5.538
 3087SOL    HW212596   2.099   0.959   5.492
 3088SOL     OW12597   2.539   0.166   5.256
 3088SOL    HW112598   2.627   0.119   5.265
 3088SOL    HW212599   2.471   0.119   5.312
 3089SOL     OW12600   1.848   0.321   3.736
 3089SOL    HW112601   1.752   0.350   3.735
 3089SOL    HW212602   1.907   0.398   3.711
 3090SOL     OW12603   3.221   0.837   5.155
 3090SOL    HW112604   3.180   0.922   5.121
 3090SOL    HW212605   3.302   0.816   5.101
 3091SOL     OW12606   1.920   0.114   3.897
 3091SOL    HW112607   1.896   0.187   3.833
 3091SOL    HW212608   2.016   0.090   3.886
 3092SOL     OW12609   3.018   1.222   3.693
 3092SOL    HW112610   2.925   1.257   3.683
 3092SOL    HW212611   3.022   1.162   3.773
 3093SOL     OW12612   2.646   0.401   5.345
 3093SOL    HW112613   2.596   0.438   5.423
 3093SOL    HW212614   2.603   0.315   5.316
 3094SOL     OW12615   3.366   1.165   5.378
 3094SOL    HW112616   3.360   1.187   5.476
 3094SOL    HW212617   3.462   1.158   5.352
 3095SOL     OW12618   3.435   0.819   4.976
 3095SOL    HW112619   3.456   0.729   4.937
 3095SOL    HW212620   3.450   0.889   4.907
 3096SOL     OW12621   3.175   0.453   4.141
 3096SOL    HW112622   3.266   0.423   4.113
 3096SOL    HW212623   3.183   0.506   4.226
 3097SOL     OW12624   3.532   0.878   5.228
 3097SOL    HW112625   3.566   0.972   5.238
 3097SOL    HW212626   3.504   0.863   5.133
 3098SOL     OW12627   2.736   1.304   3.677
 3098SOL    HW112628   2.736   1.294   3.777
 3098SOL    HW212629   2.715   1.399   3.654
 3099SOL     OW12630   2.685   1.848   4.737
 3099SOL    HW112631   2.596   1.860   4.780
 3099SOL    HW212632   2.674   1.796   4.651
 3100SOL     OW12633   2.983   1.006   3.893
 3100SOL    HW112634   2.887   0.978   3.882
 3100SOL    HW212635   3.038   0.963   3.821
 3101SOL     OW12636   3.749   1.655   4.594
 3101SOL    HW112637   3.683   1.595   4.550
 3101SOL    HW212638   3.834   1.604   4.609
 3102SOL     OW12639   2.075   1.244   5.545
 3102SOL    HW112640   2.045   1.149   5.533
 3102SOL    HW212641   2.083   1.264   5.643
 3103SOL     OW12642   2.001   1.074   4.308
 3103SOL    HW112643   2.001   1.078   4.408
 3103SOL    HW212644   2.081   1.024   4.276
 3104SOL     OW12645   2.558   1.392   5.275
 3104SOL    HW112646   2.460   1.400   5.256
 3104SOL    HW212647   2.578   1.434   5.363
 3105SOL     OW12648   2.352   0.463   4.295
 3105SOL    HW112649   2.428   0.459   4.231
 3105SOL    HW212650   2.297   0.380   4.288
 3106SOL     OW12651   3.468   1.480   4.783
 3106SOL    HW112652   3.378   1.453   4.750
 3106SOL    HW212653   3.481   1.447   4.876
 3107SOL     OW12654   2.248   0.516   5.031
 3107SOL    HW112655   2.291   0.453   5.096
 3107SOL    HW212656   2.232   0.469   4.945
 3108SOL     OW12657   2.700   1.716   4.489
 3108SOL    HW112658   2.674   1.772   4.410
 3108SOL    HW212659   2.688   1.619   4.466
 3109SOL     OW12660   3.263   0.144   4.889
 3109SOL    HW112661   3.247   0.059   4.839
 3109SOL    HW212662   3.285   0.123   4.985
 3110SOL     OW12663   2.748   1.280   3.947
 3110SOL    HW112664   2.706   1.224   4.018
 3110SOL    HW212665   2.801   1.354   3.989
 3111SOL     OW12666   2.485   1.636   4.975
 3111SOL    HW112667   2.475   1.730   4.942
 3111SOL    HW212668   2.582   1.612   4.979
 3112SOL     OW12669   3.227   0.618   4.368
 3112SOL    HW112670   3.163   0.694   4.363
 3112SOL    HW212671   3.249   0.600   4.464
 3113SOL     OW12672   1.985   1.143   4.047
 3113SOL    HW112673   2.060   1.089   4.008
 3113SOL    HW212674   1.975   1.123   4.144
 3114SOL     OW12675   2.726   1.693   4.096
 3114SOL    HW112676   2.653   1.663   4.035
 3114SOL    HW212677   2.690   1.761   4.160
 3115SOL     OW12678   2.055   0.726   5.699
 3115SOL    HW112679   2.026   0.654   5.762
 3115SOL    HW212680   2.112   0.686   5.627
 3116SOL     OW12681   2.044   0.347   0.103
 3116SOL    HW112682   2.124   0.319   0.155
 3116SOL    HW212683   1.978   0.272   0.101
 3117SOL     OW12684   1.825   0.469   6.138
 3117SOL    HW112685   1.832   0.547   6.200
 3117SOL    HW212686   1.867   0.388   6.180
 3118SOL     OW12687   3.420   1.436   6.332
 3118SOL    HW112688   3.351   1.417   6.402
 3118SOL    HW212689   3.376   1.477   6.252
 3119SOL     OW12690   3.047   0.717   6.288
 3119SOL    HW112691   3.058   0.709   6.189
 3119SOL    HW212692   2.949   0.715   6.311
 3120SOL     OW12693   2.566   1.159   0.057
 3120SOL    HW112694   2.492   1.226   0.059
 3120SOL    HW212695   2.648   1.202   0.017
 3121SOL     OW12696   2.006   1.652   6.101
 3121SOL    HW112697   2.045   1.728   6.154
 3121SOL    HW212698   2.068   1.627   6.027
 3122SOL     OW12699   2.440   1.037   5.783
 3122SOL    HW112700   2.453   1.063   5.687
 3122SOL    HW212701   2.524   1.059   5.835
 3123SOL     OW12702   3.768   1.726   5.931
 3123SOL    HW112703   3.839   1.683   5.987
 3123SOL    HW212704   3.798   1.818   5.905
 3124SOL     OW12705   1.858   1.605   5.686
 3124SOL    HW112706   1.829   1.510   5.700
 3124SOL    HW212707   1.842   1.658   5.769
 3125SOL     OW12708   3.651   0.910   6.138
 3125SOL    HW112709   3.713   0.958   6.200
 3125SOL    HW212710   3.610   0.975   6.074
 3126SOL     OW12711   3.564   1.133   5.991
 3126SOL    HW112712   3.648   1.128   5.936
 3126SOL    HW212713   3.582   1.187   6.073
 3127SOL     OW12714   3.437   0.996   5.786
 3127SOL    HW112715   3.389   0.914   5.816
 3127SOL    HW212716   3.478   1.041   5.866
 3128SOL     OW12717   3.584   1.802   6.215
 3128SOL    HW112718   3.540   1.754   6.139
 3128SOL    HW212719   3.595   1.739   6.292
 3129SOL     OW12720   2.478   0.800   5.957
 3129SOL    HW112721   2.469   0.876   5.892
 3129SOL    HW212722   2.389   0.755   5.967
 3130SOL     OW12723   3.121   0.369   0.027
 3130SOL    HW112724   3.033   0.331   0.057
 3130SOL    HW212725   3.145   0.445   0.087
 3131SOL     OW12726   3.501   1.666   5.942
 3131SOL    HW112727   3.599   1.686   5.935
 3131SOL    HW212728   3.459   1.673   5.852
 3132SOL     OW12729   3.059   0.693   6.023
 3132SOL    HW112730   3.061   0.595   6.001
 3132SOL    HW212731   2.981   0.735   5.976
 3133SOL     OW12732   2.660   0.348   5.742
 3133SOL    HW112733   2.753   0.385   5.750
 3133SOL    HW212734   2.647   0.276   5.811
 3134SOL     OW12735   3.285   1.149   6.008
 3134SOL    HW112736   3.384   1.154   6.002
 3134SOL    HW212737   3.245   1.240   5.993
 3135SOL     OW12738   2.296   1.759   6.408
 3135SOL    HW112739   2.263   1.743   0.002
 3135SOL    HW212740   2.395   1.770   6.409
 3136SOL     OW12741   2.169   0.974   5.781
 3136SOL    HW112742   2.266   0.996   5.775
 3136SOL    HW212743   2.152   0.885   5.739
 3137SOL     OW12744   2.883   1.808   5.751
 3137SOL    HW112745   2.980   1.833   5.752
 3137SOL    HW212746   2.869   1.728   5.693
 3138SOL     OW12747   3.472   1.430   5.594
 3138SOL    HW112748   3.437   1.515   5.635
 3138SOL    HW212749   3.408   1.356   5.612
 3139SOL     OW12750   2.173   1.604   5.887
 3139SOL    HW112751   2.261   1.600   5.935
 3139SOL    HW212752   2.185   1.652   5.800
 3140SOL     OW12753   2.247   0.670   6.021
 3140SOL    HW112754   2.279   0.655   6.115
 3140SOL    HW212755   2.148   0.685   6.022
 3141SOL     OW12756   2.674   6.468   5.737
 3141SOL    HW112757   2.671   0.024   5.820
 3141SOL    HW212758   2.665   0.027   5.657
 3142SOL     OW12759   2.316   6.470   5.972
 3142SOL    HW112760   2.271   6.403   6.030
 3142SOL    HW212761   2.355   0.043   6.028
 3143SOL     OW12762   3.320   1.206   5.643
 3143SOL    HW112763   3.350   1.129   5.699
 3143SOL    HW212764   3.230   1.237   5.675
 3144SOL     OW12765   2.013   6.493   5.779
 3144SOL    HW112766   2.059   0.042   5.705
 3144SOL    HW212767   2.011   6.395   5.759
 3145SOL     OW12768   2.767   0.084   6.386
 3145SOL    HW112769   2.819   0.097   6.301
 3145SOL    HW212770   2.767   6.487   6.411
 3146SOL     OW12771   2.349   1.441   5.659
 3146SOL    HW112772   2.281   1.418   5.729
 3146SOL    HW212773   2.327   1.392   5.574
 3147SOL     OW12774   3.606   1.260   6.231
 3147SOL    HW112775   3.702   1.284   6.247
 3147SOL    HW212776   3.547   1.331   6.268
 3148SOL     OW12777   3.321   0.547   5.690
 3148SOL    HW112778   3.320   0.621   5.757
 3148SOL    HW212779   3.311   0.459   5.737
 3149SOL     OW12780   2.667   1.071   5.931
 3149SOL    HW112781   2.660   1.102   6.026
 3149SOL    HW212782   2.743   1.006   5.922
 3150SOL     OW12783   2.309   1.176   6.041
 3150SOL    HW112784   2.330   1.130   5.954
 3150SOL    HW212785   2.213   1.161   6.064
 3151SOL     OW12786   2.349   0.431   6.414
 3151SOL    HW112787   2.362   0.510   6.354
 3151SOL    HW212788   2.357   0.459   0.009
 3152SOL     OW12789   3.151   1.384   5.987
 3152SOL    HW112790   3.205   1.454   6.033
 3152SOL    HW212791   3.067   1.368   6.038
 3153SOL     OW12792   3.441   0.579   6.022
 3153SOL    HW112793   3.472   0.624   6.106
 3153SOL    HW212794   3.399   0.647   5.961
 3154SOL     OW12795   3.444   0.310   6.056
 3154SOL    HW112796   3.532   0.268   6.033
 3154SOL    HW212797   3.451   0.409   6.049
 3155SOL     OW12798   3.275   0.318   5.843
 3155SOL    HW112799   3.225   0.231   5.835
 3155SOL    HW212800   3.343   0.311   5.916
 3156SOL     OW12801   3.058   1.217   6.450
 3156SOL    HW112802   3.071   1.143   6.384
 3156SOL    HW212803   3.113   1.198   0.031
 3157SOL     OW12804   1.804   1.334   5.713
 3157SOL    HW112805   1.707   1.354   5.727
 3157SOL    HW212806   1.813   1.261   5.645
 3158SOL     OW12807   3.284   0.764   5.866
 3158SOL    HW112808   3.218   0.749   5.939
 3158SOL    HW212809   3.236   0.800   5.785
 3159SOL     OW12810   3.664   0.170   5.983
 3159SOL    HW112811   3.702   0.200   5.895
 3159SOL    HW212812   3.663   0.070   5.986
 3160SOL     OW12813   3.316   1.563   6.113
 3160SOL    HW112814   3.387   1.581   6.045
 3160SOL    HW212815   3.273   1.649   6.140
 3161SOL     OW12816   3.074   0.998   6.073
 3161SOL    HW112817   3.090   0.975   6.169
 3161SOL    HW212818   3.151   1.052   6.039
 3162SOL     OW12819   3.385   1.687   5.685
 3162SOL    HW112820   3.296   1.732   5.688
 3162SOL    HW212821   3.432   1.711   5.600
 3163SOL     OW12822   2.076   1.365   5.789
 3163SOL    HW112823   1.976   1.359   5.782
 3163SOL    HW212824   2.101   1.449   5.837
 3164SOL     OW12825   2.017   0.403   5.569
 3164SOL    HW112826   1.942   0.391   5.503
 3164SOL    HW212827   2.079   0.475   5.536
 3165SOL     OW12828   1.935   0.177   5.966
 3165SOL    HW112829   1.855   0.224   5.929
 3165SOL    HW212830   1.962   0.103   5.905
 3166SOL     OW12831   3.086   1.325   5.722
 3166SOL    HW112832   2.998   1.287   5.748
 3166SOL    HW212833   3.129   1.368   5.801
 3167SOL     OW12834   3.067   0.429   5.981
 3167SOL    HW112835   3.147   0.389   5.936
 3167SOL    HW212836   3.072   0.414   6.079
 3168SOL     OW12837   2.395   0.655   6.261
 3168SOL    HW112838   2.485   0.658   6.216
 3168SOL    HW212839   2.388   0.731   6.326
 3169SOL     OW12840   2.559   1.797   6.488
 3169SOL    HW112841   2.531   1.885   0.026
 3169SOL    HW212842   2.636   1.810   6.425
 3170SOL     OW12843   2.801   1.055   0.172
 3170SOL    HW112844   2.806   1.067   0.272
 3170SOL    HW212845   2.708   1.076   0.141
 3171SOL     OW12846   3.593   1.620   6.432
 3171SOL    HW112847   3.542   1.542   6.393
 3171SOL    HW212848   3.653   1.587   0.004
 3172SOL     OW12849   2.863   1.245   5.851
 3172SOL    HW112850   2.785   1.182   5.859
 3172SOL    HW212851   2.885   1.281   5.941
 3173SOL     OW12852   3.078   0.438   6.258
 3173SOL    HW112853   3.078   0.536   6.276
 3173SOL    HW212854   3.097   0.389   6.343
 3174SOL     OW12855   1.956   0.964   5.944
 3174SOL    HW112856   2.028   0.978   5.876
 3174SOL    HW212857   1.958   0.869   5.975
 3175SOL     OW12858   2.040   2.399   0.116
 3175SOL    HW112859   1.944   2.409   0.142
 3175SOL    HW212860   2.057   2.305   0.085
 3176SOL     OW12861   2.118   2.143   1.007
 3176SOL    HW112862   2.176   2.110   1.081
 3176SOL    HW212863   2.034   2.089   1.004
 3177SOL     OW12864   1.885   2.187   0.674
 3177SOL    HW112865   1.847   2.183   0.766
 3177SOL    HW212866   1.824   2.139   0.610
 3178SOL     OW12867   2.503   3.163   1.335
 3178SOL    HW112868   2.408   3.145   1.363
 3178SOL    HW212869   2.510   3.257   1.302
 3179SOL     OW12870   3.419   3.329   0.684
 3179SOL    HW112871   3.373   3.304   0.769
 3179SOL    HW212872   3.350   3.343   0.612
 3180SOL     OW12873   2.973   2.581   0.736
 3180SOL    HW112874   3.022   2.657   0.693
 3180SOL    HW212875   2.959   2.602   0.833
 3181SOL     OW12876   2.603   3.021   1.101
 3181SOL    HW112877   2.555   3.072   1.173
 3181SOL    HW212878   2.635   3.085   1.031
 3182SOL     OW12879   2.817   2.627   1.724
 3182SOL    HW112880   2.890   2.671   1.777
 3182SOL    HW212881   2.782   2.691   1.656
 3183SOL     OW12882   2.633   2.899   0.640
 3183SOL    HW112883   2.627   2.849   0.726
 3183SOL    HW212884   2.560   2.967   0.635
 3184SOL     OW12885   3.313   3.343   1.416
 3184SOL    HW112886   3.375   3.421   1.422
 3184SOL    HW212887   3.231   3.360   1.471
 3185SOL     OW12888   2.266   2.214   1.440
 3185SOL    HW112889   2.361   2.187   1.457
 3185SOL    HW212890   2.207   2.171   1.508
 3186SOL     OW12891   2.049   3.573   0.481
 3186SOL    HW112892   2.076   3.636   0.554
 3186SOL    HW212893   2.118   3.576   0.408
 3187SOL     OW12894   2.960   3.199   1.546
 3187SOL    HW112895   2.915   3.150   1.621
 3187SOL    HW212896   3.011   3.134   1.490
 3188SOL     OW12897   1.934   3.326   0.549
 3188SOL    HW112898   1.977   3.415   0.536
 3188SOL    HW212899   1.837   3.338   0.570
 3189SOL     OW12900   1.995   2.920   0.847
 3189SOL    HW112901   2.038   2.834   0.872
 3189SOL    HW212902   1.988   2.980   0.927
 3190SOL     OW12903   2.419   3.600   1.431
 3190SOL    HW112904   2.369   3.602   1.518
 3190SOL    HW212905   2.508   3.644   1.444
 3191SOL     OW12906   2.447   2.879   0.210
 3191SOL    HW112907   2.478   2.974   0.201
 3191SOL    HW212908   2.505   2.831   0.275
 3192SOL     OW12909   3.384   1.992   1.458
 3192SOL    HW112910   3.312   2.041   1.408
 3192SOL    HW212911   3.379   2.015   1.555
 3193SOL     OW12912   1.933   2.434   0.551
 3193SOL    HW112913   1.923   2.340   0.585
 3193SOL    HW212914   1.908   2.499   0.622
 3194SOL     OW12915   3.667   3.555   0.430
 3194SOL    HW112916   3.627   3.560   0.522
 3194SOL    HW212917   3.700   3.645   0.403
 3195SOL     OW12918   1.847   3.447   0.073
 3195SOL    HW112919   1.812   3.354   0.087
 3195SOL    HW212920   1.840   3.498   0.158
 3196SOL     OW12921   3.498   2.977   0.381
 3196SOL    HW112922   3.468   2.884   0.403
 3196SOL    HW212923   3.535   3.021   0.463
 3197SOL     OW12924   1.984   2.653   1.622
 3197SOL    HW112925   2.055   2.662   1.552
 3197SOL    HW212926   1.904   2.705   1.595
 3198SOL     OW12927   2.675   1.799   0.457
 3198SOL    HW112928   2.732   1.878   0.437
 3198SOL    HW212929   2.579   1.821   0.440
 3199SOL     OW12930   1.998   2.839   1.343
 3199SOL    HW112931   2.067   2.770   1.365
 3199SOL    HW212932   1.929   2.800   1.282
 3200SOL     OW12933   3.422   2.906   0.129
 3200SOL    HW112934   3.366   2.825   0.146
 3200SOL    HW212935   3.460   2.938   0.216
 3201SOL     OW12936   3.302   3.239   0.919
 3201SOL    HW112937   3.215   3.229   0.967
 3201SOL    HW212938   3.323   3.154   0.870
 3202SOL     OW12939   3.556   3.564   0.676
 3202SOL    HW112940   3.494   3.641   0.690
 3202SOL    HW212941   3.505   3.479   0.685
 3203SOL     OW12942   2.432   2.547   0.351
 3203SOL    HW112943   2.488   2.627   0.373
 3203SOL    HW212944   2.357   2.540   0.417
 3204SOL     OW12945   3.199   2.245   0.948
 3204SOL    HW112946   3.116   2.190   0.960
 3204SOL    HW212947   3.278   2.192   0.979
 3205SOL     OW12948   3.432   3.444   0.318
 3205SOL    HW112949   3.515   3.485   0.355
 3205SOL    HW212950   3.433   3.449   0.218
 3206SOL     OW12951   2.823   2.823   1.538
 3206SOL    HW112952   2.896   2.771   1.493
 3206SOL    HW212953   2.768   2.869   1.468
 3207SOL     OW12954   2.974   2.226   1.207
 3207SOL    HW112955   2.895   2.285   1.227
 3207SOL    HW212956   2.963   2.188   1.115
 3208SOL     OW12957   2.887   2.532   0.421
 3208SOL    HW112958   2.911   2.532   0.519
 3208SOL    HW212959   2.806   2.474   0.407
 3209SOL     OW12960   1.865   2.609   0.748
 3209SOL    HW112961   1.954   2.635   0.786
 3209SOL    HW212962   1.820   2.690   0.710
 3210SOL     OW12963   1.995   3.780   1.727
 3210SOL    HW112964   2.025   3.719   1.801
 3210SOL    HW212965   1.934   3.850   1.765
 3211SOL     OW12966   2.692   2.180   0.178
 3211SOL    HW112967   2.756   2.252   0.149
 3211SOL    HW212968   2.658   2.132   0.097
 3212SOL     OW12969   3.241   3.013   0.534
 3212SOL    HW112970   3.318   3.008   0.470
 3212SOL    HW212971   3.169   3.069   0.494
 3213SOL     OW12972   2.431   1.988   0.818
 3213SOL    HW112973   2.450   2.025   0.908
 3213SOL    HW212974   2.343   2.021   0.786
 3214SOL     OW12975   2.200   2.789   0.267
 3214SOL    HW112976   2.289   2.828   0.241
 3214SOL    HW212977   2.197   2.692   0.242
 3215SOL     OW12978   3.303   2.706   0.842
 3215SOL    HW112979   3.289   2.633   0.908
 3215SOL    HW212980   3.400   2.722   0.829
 3216SOL     OW12981   2.081   2.092   1.604
 3216SOL    HW112982   2.020   2.051   1.535
 3216SOL    HW212983   2.035   2.093   1.693
 3217SOL     OW12984   3.495   3.223   6.489
 3217SOL    HW112985   3.472   3.319   0.008
 3217SOL    HW212986   3.410   3.170   6.482
 3218SOL     OW12987   2.268   3.624   0.306
 3218SOL    HW112988   2.323   3.681   0.367
 3218SOL    HW212989   2.328   3.576   0.243
 3219SOL     OW12990   3.185   1.981   0.407
 3219SOL    HW112991   3.142   1.964   0.318
 3219SOL    HW212992   3.256   2.050   0.397
 3220SOL     OW12993   2.863   3.538   0.831
 3220SOL    HW112994   2.959   3.511   0.828
 3220SOL    HW212995   2.807   3.467   0.789
 3221SOL     OW12996   2.205   2.467   0.495
 3221SOL    HW112997   2.240   2.374   0.500
 3221SOL    HW212998   2.105   2.466   0.503
 3222SOL     OW12999   3.360   2.060   1.724
 3222SOL    HW113000   3.382   2.097   1.814
 3222SOL    HW213001   3.273   2.011   1.728
 3223SOL     OW13002   2.570   2.196   1.724
 3223SOL    HW113003   2.657   2.154   1.748
 3223SOL    HW213004   2.527   2.233   1.806
 3224SOL     OW13005   2.749   3.531   1.234
 3224SOL    HW113006   2.793   3.588   1.164
 3224SOL    HW213007   2.815   3.464   1.268
 3225SOL     OW13008   3.288   2.365   1.477
 3225SOL    HW113009   3.267   2.357   1.575
 3225SOL    HW213010   3.350   2.442   1.462
 3226SOL     OW13011   2.664   3.222   0.935
 3226SOL    HW113012   2.708   3.248   0.849
 3226SOL    HW213013   2.579   3.273   0.946
 3227SOL     OW13014   2.417   1.863   0.407
 3227SOL    HW113015   2.343   1.865   0.473
 3227SOL    HW213016   2.428   1.954   0.366
 3228SOL     OW13017   3.246   3.082   0.020
 3228SOL    HW113018   3.308   3.022   0.071
 3228SOL    HW213019   3.201   3.145   0.084
 3229SOL     OW13020   2.196   1.992   0.226
 3229SOL    HW113021   2.284   2.035   0.246
 3229SOL    HW213022   2.211   1.896   0.203
 3230SOL     OW13023   2.804   2.033   0.389
 3230SOL    HW113024   2.769   2.082   0.309
 3230SOL    HW213025   2.872   2.089   0.436
 3231SOL     OW13026   3.006   2.646   1.427
 3231SOL    HW113027   2.974   2.555   1.455
 3231SOL    HW213028   3.088   2.635   1.371
 3232SOL     OW13029   3.124   3.484   0.797
 3232SOL    HW113030   3.126   3.535   0.711
 3232SOL    HW213031   3.196   3.519   0.858
 3233SOL     OW13032   3.109   3.632   0.570
 3233SOL    HW113033   3.176   3.683   0.517
 3233SOL    HW213034   3.023   3.682   0.573
 3234SOL     OW13035   2.859   2.356   0.054
 3234SOL    HW113036   2.824   2.378   6.462
 3234SOL    HW213037   2.937   2.295   0.046
 3235SOL     OW13038   2.482   2.094   1.060
 3235SOL    HW113039   2.559   2.129   1.113
 3235SOL    HW213040   2.403   2.081   1.120
 3236SOL     OW13041   2.893   1.955   0.738
 3236SOL    HW113042   2.810   2.006   0.716
 3236SOL    HW213043   2.869   1.874   0.791
 3237SOL     OW13044   3.372   3.021   0.779
 3237SOL    HW113045   3.310   3.012   0.701
 3237SOL    HW213046   3.466   3.015   0.748
 3238SOL     OW13047   3.277   2.504   1.030
 3238SOL    HW113048   3.238   2.416   1.002
 3238SOL    HW213049   3.366   2.489   1.072
 3239SOL     OW13050   2.312   3.238   0.160
 3239SOL    HW113051   2.228   3.247   0.214
 3239SOL    HW213052   2.301   3.286   0.073
 3240SOL     OW13053   3.586   3.110   0.599
 3240SOL    HW113054   3.685   3.122   0.603
 3240SOL    HW213055   3.542   3.196   0.624
 3241SOL     OW13056   3.266   2.434   0.101
 3241SOL    HW113057   3.193   2.423   0.168
 3241SOL    HW213058   3.322   2.351   0.097
 3242SOL     OW13059   2.433   2.124   0.287
 3242SOL    HW113060   2.530   2.127   0.262
 3242SOL    HW213061   2.387   2.206   0.253
 3243SOL     OW13062   3.616   3.021   1.625
 3243SOL    HW113063   3.688   2.978   1.679
 3243SOL    HW213064   3.634   3.119   1.617
 3244SOL     OW13065   3.481   3.450   1.692
 3244SOL    HW113066   3.471   3.503   1.608
 3244SOL    HW213067   3.554   3.382   1.681
 3245SOL     OW13068   3.446   2.964   1.056
 3245SOL    HW113069   3.427   3.038   1.121
 3245SOL    HW213070   3.378   2.965   0.983
 3246SOL     OW13071   2.772   1.997   1.355
 3246SOL    HW113072   2.792   1.961   1.264
 3246SOL    HW213073   2.857   2.024   1.400
 3247SOL     OW13074   2.859   3.016   1.735
 3247SOL    HW113075   2.788   3.022   1.805
 3247SOL    HW213076   2.834   2.947   1.667
 3248SOL     OW13077   2.607   2.762   0.399
 3248SOL    HW113078   2.610   2.810   0.487
 3248SOL    HW213079   2.699   2.760   0.360
 3249SOL     OW13080   3.215   2.165   1.310
 3249SOL    HW113081   3.246   2.241   1.367
 3249SOL    HW213082   3.129   2.190   1.265
 3250SOL     OW13083   2.014   3.528   1.477
 3250SOL    HW113084   1.947   3.465   1.438
 3250SOL    HW213085   2.079   3.556   1.407
 3251SOL     OW13086   2.397   2.475   0.916
 3251SOL    HW113087   2.387   2.530   0.833
 3251SOL    HW213088   2.492   2.474   0.945
 3252SOL     OW13089   3.064   3.193   0.421
 3252SOL    HW113090   3.119   3.270   0.454
 3252SOL    HW213091   2.969   3.205   0.449
 3253SOL     OW13092   3.462   2.700   1.671
 3253SOL    HW113093   3.450   2.650   1.585
 3253SOL    HW213094   3.429   2.794   1.659
 3254SOL     OW13095   2.807   2.057   1.766
 3254SOL    HW113096   2.878   2.122   1.741
 3254SOL    HW213097   2.841   1.964   1.753
 3255SOL     OW13098   2.586   2.746   1.069
 3255SOL    HW113099   2.592   2.845   1.057
 3255SOL    HW213100   2.555   2.726   1.162
 3256SOL     OW13101   3.235   2.675   1.247
 3256SOL    HW113102   3.204   2.765   1.216
 3256SOL    HW213103   3.239   2.612   1.169
 3257SOL     OW13104   3.080   2.375   0.290
 3257SOL    HW113105   3.068   2.297   0.351
 3257SOL    HW213106   3.013   2.445   0.312
 3258SOL     OW13107   2.263   2.051   1.220
 3258SOL    HW113108   2.254   2.119   1.294
 3258SOL    HW213109   2.295   1.964   1.258
 3259SOL     OW13110   1.828   3.175   1.261
 3259SOL    HW113111   1.852   3.152   1.355
 3259SOL    HW213112   1.789   3.267   1.257
 3260SOL     OW13113   2.682   2.501   1.019
 3260SOL    HW113114   2.701   2.479   0.924
 3260SOL    HW213115   2.641   2.592   1.026
 3261SOL     OW13116   3.568   2.855   1.930
 3261SOL    HW113117   3.519   2.769   1.937
 3261SOL    HW213118   3.503   2.930   1.922
 3262SOL     OW13119   2.218   1.865   0.591
 3262SOL    HW113120   2.181   1.938   0.647
 3262SOL    HW213121   2.213   1.779   0.641
 3263SOL     OW13122   3.372   2.182   0.395
 3263SOL    HW113123   3.428   2.138   0.466
 3263SOL    HW213124   3.344   2.273   0.426
 3264SOL     OW13125   3.686   3.281   1.626
 3264SOL    HW113126   3.726   3.308   1.538
 3264SOL    HW213127   3.757   3.281   1.696
 3265SOL     OW13128   2.122   2.739   1.845
 3265SOL    HW113129   2.200   2.787   1.805
 3265SOL    HW213130   2.071   2.691   1.772
 3266SOL     OW13131   3.341   2.162   0.118
 3266SOL    HW113132   3.325   2.067   0.092
 3266SOL    HW213133   3.359   2.167   0.217
 3267SOL     OW13134   3.226   2.706   0.088
 3267SOL    HW113135   3.241   2.608   0.099
 3267SOL    HW213136   3.235   2.730   6.492
 3268SOL     OW13137   3.017   3.188   0.802
 3268SOL    HW113138   2.972   3.123   0.741
 3268SOL    HW213139   3.043   3.270   0.751
 3269SOL     OW13140   2.109   2.657   0.871
 3269SOL    HW113141   2.188   2.653   0.810
 3269SOL    HW213142   2.118   2.588   0.942
 3270SOL     OW13143   2.165   2.418   1.037
 3270SOL    HW113144   2.137   2.324   1.018
 3270SOL    HW213145   2.254   2.436   0.996
 3271SOL     OW13146   3.002   2.243   1.669
 3271SOL    HW113147   2.956   2.317   1.620
 3271SOL    HW213148   3.078   2.281   1.723
 3272SOL     OW13149   3.016   2.045   1.488
 3272SOL    HW113150   3.010   2.121   1.551
 3272SOL    HW213151   3.076   2.069   1.411
 3273SOL     OW13152   1.922   3.085   0.210
 3273SOL    HW113153   1.839   3.132   0.184
 3273SOL    HW213154   1.899   2.996   0.249
 3274SOL     OW13155   2.428   3.364   0.975
 3274SOL    HW113156   2.455   3.392   1.067
 3274SOL    HW213157   2.341   3.314   0.980
 3275SOL     OW13158   1.989   2.382   1.674
 3275SOL    HW113159   2.078   2.345   1.646
 3275SOL    HW213160   1.988   2.481   1.656
 3276SOL     OW13161   2.665   2.390   0.369
 3276SOL    HW113162   2.665   2.314   0.304
 3276SOL    HW213163   2.578   2.440   0.360
 3277SOL     OW13164   3.513   2.488   1.165
 3277SOL    HW113165   3.499   2.493   1.264
 3277SOL    HW213166   3.588   2.425   1.145
 3278SOL     OW13167   2.180   3.409   1.818
 3278SOL    HW113168   2.131   3.486   1.860
 3278SOL    HW213169   2.118   3.331   1.808
 3279SOL     OW13170   2.318   2.358   0.187
 3279SOL    HW113171   2.360   2.430   0.243
 3279SOL    HW213172   2.222   2.381   0.172
 3280SOL     OW13173   2.033   3.037   1.522
 3280SOL    HW113174   2.004   3.003   1.612
 3280SOL    HW213175   2.014   2.967   1.453
 3281SOL     OW13176   3.134   2.791   0.329
 3281SOL    HW113177   3.035   2.797   0.340
 3281SOL    HW213178   3.155   2.764   0.235
 3282SOL     OW13179   3.655   3.535   1.202
 3282SOL    HW113180   3.742   3.530   1.153
 3282SOL    HW213181   3.585   3.487   1.151
 3283SOL     OW13182   3.121   3.630   1.151
 3283SOL    HW113183   3.187   3.623   1.076
 3283SOL    HW213184   3.164   3.601   1.236
 3284SOL     OW13185   1.937   3.150   1.010
 3284SOL    HW113186   1.902   3.149   1.103
 3284SOL    HW213187   1.864   3.175   0.947
 3285SOL     OW13188   2.678   3.592   1.713
 3285SOL    HW113189   2.631   3.666   1.761
 3285SOL    HW213190   2.761   3.626   1.670
 3286SOL     OW13191   3.230   3.396   0.492
 3286SOL    HW113192   3.300   3.412   0.422
 3286SOL    HW213193   3.185   3.482   0.514
 3287SOL     OW13194   2.047   3.610   1.937
 3287SOL    HW113195   1.959   3.562   1.943
 3287SOL    HW213196   2.065   3.656   2.023
 3288SOL     OW13197   3.116   2.804   0.667
 3288SOL    HW113198   3.184   2.774   0.734
 3288SOL    HW213199   3.157   2.872   0.606
 3289SOL     OW13200   2.458   3.523   0.136
 3289SOL    HW113201   2.465   3.603   0.077
 3289SOL    HW213202   2.511   3.448   0.096
 3290SOL     OW13203   3.481   3.555   1.428
 3290SOL    HW113204   3.541   3.547   1.348
 3290SOL    HW213205   3.496   3.644   1.472
 3291SOL     OW13206   2.148   2.091   0.737
 3291SOL    HW113207   2.063   2.125   0.697
 3291SOL    HW213208   2.150   2.114   0.835
 3292SOL     OW13209   3.153   3.460   6.491
 3292SOL    HW113210   3.123   3.387   0.052
 3292SOL    HW213211   3.073   3.499   6.445
 3293SOL     OW13212   2.664   2.945   1.359
 3293SOL    HW113213   2.687   2.949   1.262
 3293SOL    HW213214   2.614   3.027   1.385
 3294SOL     OW13215   3.414   3.484   0.041
 3294SOL    HW113216   3.317   3.474   0.016
 3294SOL    HW213217   3.465   3.521   6.464
 3295SOL     OW13218   3.444   3.168   1.247
 3295SOL    HW113219   3.531   3.135   1.285
 3295SOL    HW213220   3.393   3.217   1.318
 3296SOL     OW13221   2.902   2.991   0.656
 3296SOL    HW113222   2.809   2.959   0.639
 3296SOL    HW213223   2.964   2.912   0.657
 3297SOL     OW13224   2.975   2.083   0.970
 3297SOL    HW113225   2.956   2.057   0.875
 3297SOL    HW213226   2.943   2.012   1.032
 3298SOL     OW13227   3.621   2.338   1.471
 3298SOL    HW113228   3.690   2.395   1.426
 3298SOL    HW213229   3.591   2.267   1.407
 3299SOL     OW13230   2.104   3.220   0.361
 3299SOL    HW113231   2.048   3.166   0.297
 3299SOL    HW213232   2.045   3.260   0.430
 3300SOL     OW13233   1.947   2.943   1.776
 3300SOL    HW113234   1.858   2.904   1.798
 3300SOL    HW213235   2.020   2.882   1.807
 3301SOL     OW13236   2.526   2.098   1.470
 3301SOL    HW113237   2.614   2.076   1.428
 3301SOL    HW213238   2.542   2.133   1.563
 3302SOL     OW13239   3.433   2.602   1.416
 3302SOL    HW113240   3.358   2.632   1.357
 3302SOL    HW213241   3.505   2.672   1.416
 3303SOL     OW13242   1.933   1.994   0.344
 3303SOL    HW113243   1.894   2.010   0.253
 3303SOL    HW213244   2.033   1.999   0.339
 3304SOL     OW13245   3.075   3.250   0.152
 3304SOL    HW113246   2.988   3.235   0.106
 3304SOL    HW213247   3.067   3.227   0.249
 3305SOL     OW13248   3.314   3.612   0.958
 3305SOL    HW113249   3.342   3.707   0.947
 3305SOL    HW213250   3.389   3.560   0.999
 3306SOL     OW13251   2.241   3.609   1.640
 3306SOL    HW113252   2.154   3.614   1.591
 3306SOL    HW213253   2.241   3.530   1.701
 3307SOL     OW13254   3.605   2.758   1.158
 3307SOL    HW113255   3.570   2.666   1.141
 3307SOL    HW213256   3.544   2.826   1.117
 3308SOL     OW13257   3.022   2.187   0.490
 3308SOL    HW113258   3.079   2.105   0.477
 3308SOL    HW213259   3.053   2.236   0.572
 3309SOL     OW13260   2.318   2.619   0.692
 3309SOL    HW113261   2.321   2.704   0.640
 3309SOL    HW213262   2.282   2.546   0.634
 3310SOL     OW13263   3.626   2.146   1.675
 3310SOL    HW113264   3.623   2.223   1.612
 3310SOL    HW213265   3.533   2.115   1.694
 3311SOL     OW13266   3.618   2.803   1.426
 3311SOL    HW113267   3.629   2.893   1.468
 3311SOL    HW213268   3.621   2.811   1.327
 3312SOL     OW13269   2.626   3.312   0.035
 3312SOL    HW113270   2.587   3.240   0.093
 3312SOL    HW213271   2.714   3.282   6.498
 3313SOL     OW13272   1.998   3.206   1.834
 3313SOL    HW113273   1.979   3.113   1.804
 3313SOL    HW213274   1.970   3.216   1.930
 3314SOL     OW13275   1.854   3.056   0.659
 3314SOL    HW113276   1.916   3.009   0.722
 3314SOL    HW213277   1.904   3.126   0.608
 3315SOL     OW13278   2.645   3.333   1.628
 3315SOL    HW113279   2.676   3.334   1.533
 3315SOL    HW213280   2.650   3.425   1.666
 3316SOL     OW13281   3.572   2.121   1.309
 3316SOL    HW113282   3.515   2.066   1.370
 3316SOL    HW213283   3.533   2.120   1.217
 3317SOL     OW13284   2.290   2.216   0.522
 3317SOL    HW113285   2.353   2.165   0.463
 3317SOL    HW213286   2.256   2.157   0.595
 3318SOL     OW13287   3.457   3.391   1.082
 3318SOL    HW113288   3.403   3.356   1.006
 3318SOL    HW213289   3.460   3.323   1.155
 3319SOL     OW13290   2.151   2.436   1.310
 3319SOL    HW113291   2.199   2.359   1.351
 3319SOL    HW213292   2.161   2.433   1.211
 3320SOL     OW13293   2.727   3.340   0.694
 3320SOL    HW113294   2.630   3.361   0.689
 3320SOL    HW213295   2.755   3.292   0.610
 3321SOL     OW13296   3.386   2.087   1.094
 3321SOL    HW113297   3.383   1.989   1.079
 3321SOL    HW213298   3.323   2.112   1.167
 3322SOL     OW13299   2.873   1.869   1.114
 3322SOL    HW113300   2.838   1.820   1.033
 3322SOL    HW213301   2.961   1.829   1.141
 3323SOL     OW13302   2.504   3.421   1.236
 3323SOL    HW113303   2.457   3.475   1.306
 3323SOL    HW213304   2.597   3.456   1.225
 3324SOL     OW13305   3.123   2.343   0.702
 3324SOL    HW113306   3.072   2.427   0.721
 3324SOL    HW213307   3.156   2.305   0.789
 3325SOL     OW13308   3.545   2.159   0.832
 3325SOL    HW113309   3.517   2.134   0.925
 3325SOL    HW213310   3.610   2.235   0.836
 3326SOL     OW13311   1.910   2.832   0.321
 3326SOL    HW113312   2.009   2.821   0.309
 3326SOL    HW213313   1.869   2.742   0.337
 3327SOL     OW13314   2.086   2.111   2.831
 3327SOL    HW113315   2.135   2.075   2.910
 3327SOL    HW213316   1.989   2.086   2.837
 3328SOL     OW13317   1.877   2.244   2.499
 3328SOL    HW113318   1.810   2.287   2.559
 3328SOL    HW213319   1.842   2.155   2.468
 3329SOL     OW13320   3.374   3.540   2.587
 3329SOL    HW113321   3.360   3.468   2.655
 3329SOL    HW213322   3.321   3.519   2.505
 3330SOL     OW13323   3.001   2.472   2.608
 3330SOL    HW113324   3.098   2.490   2.591
 3330SOL    HW213325   2.975   2.511   2.696
 3331SOL     OW13326   3.750   2.445   2.003
 3331SOL    HW113327   3.703   2.496   1.931
 3331SOL    HW213328   3.705   2.462   2.091
 3332SOL     OW13329   2.578   2.975   2.858
 3332SOL    HW113330   2.519   3.039   2.908
 3332SOL    HW213331   2.579   3.000   2.761
 3333SOL     OW13332   2.491   2.738   2.616
 3333SOL    HW113333   2.585   2.764   2.637
 3333SOL    HW213334   2.440   2.818   2.587
 3334SOL     OW13335   2.606   3.057   3.678
 3334SOL    HW113336   2.662   3.129   3.719
 3334SOL    HW213337   2.553   3.095   3.602
 3335SOL     OW13338   2.148   3.358   2.936
 3335SOL    HW113339   2.099   3.291   2.991
 3335SOL    HW213340   2.205   3.311   2.869
 3336SOL     OW13341   2.289   2.156   3.300
 3336SOL    HW113342   2.374   2.123   3.342
 3336SOL    HW213343   2.218   2.165   3.370
 3337SOL     OW13344   2.131   2.939   2.734
 3337SOL    HW113345   2.146   2.849   2.776
 3337SOL    HW213346   2.059   2.988   2.783
 3338SOL     OW13347   2.422   3.551   3.226
 3338SOL    HW113348   2.371   3.560   3.311
 3338SOL    HW213349   2.441   3.642   3.188
 3339SOL     OW13350   2.463   2.834   1.966
 3339SOL    HW113351   2.548   2.887   1.960
 3339SOL    HW213352   2.481   2.749   2.017
 3340SOL     OW13353   2.005   2.480   2.421
 3340SOL    HW113354   1.960   2.393   2.440
 3340SOL    HW213355   2.006   2.535   2.505
 3341SOL     OW13356   1.804   3.478   1.941
 3341SOL    HW113357   1.753   3.393   1.954
 3341SOL    HW213358   1.807   3.528   2.028
 3342SOL     OW13359   3.567   2.689   2.473
 3342SOL    HW113360   3.584   2.613   2.410
 3342SOL    HW213361   3.563   2.774   2.421
 3343SOL     OW13362   3.551   2.897   2.290
 3343SOL    HW113363   3.635   2.875   2.239
 3343SOL    HW213364   3.541   2.996   2.297
 3344SOL     OW13365   1.977   2.634   3.419
 3344SOL    HW113366   2.074   2.641   3.440
 3344SOL    HW213367   1.923   2.654   3.501
 3345SOL     OW13368   2.300   3.268   2.633
 3345SOL    HW113369   2.315   3.174   2.663
 3345SOL    HW213370   2.377   3.297   2.576
 3346SOL     OW13371   2.707   1.854   2.434
 3346SOL    HW113372   2.790   1.879   2.383
 3346SOL    HW213373   2.651   1.935   2.448
 3347SOL     OW13374   1.954   2.809   3.209
 3347SOL    HW113375   2.046   2.832   3.175
 3347SOL    HW213376   1.961   2.740   3.281
 3348SOL     OW13377   3.309   3.343   2.769
 3348SOL    HW113378   3.240   3.344   2.841
 3348SOL    HW213379   3.288   3.269   2.704
 3349SOL     OW13380   3.501   3.719   2.399
 3349SOL    HW113381   3.512   3.648   2.330
 3349SOL    HW213382   3.483   3.677   2.488
 3350SOL     OW13383   3.149   2.259   2.828
 3350SOL    HW113384   3.071   2.210   2.866
 3350SOL    HW213385   3.211   2.193   2.784
 3351SOL     OW13386   3.476   3.506   2.215
 3351SOL    HW113387   3.575   3.495   2.217
 3351SOL    HW213388   3.443   3.492   2.121
 3352SOL     OW13389   3.267   2.360   3.533
 3352SOL    HW113390   3.248   2.408   3.618
 3352SOL    HW213391   3.359   2.320   3.536
 3353SOL     OW13392   2.849   2.547   2.368
 3353SOL    HW113393   2.876   2.589   2.454
 3353SOL    HW213394   2.865   2.448   2.371
 3354SOL     OW13395   2.004   2.632   2.640
 3354SOL    HW113396   2.083   2.645   2.701
 3354SOL    HW213397   1.936   2.703   2.659
 3355SOL     OW13398   2.036   3.753   3.470
 3355SOL    HW113399   2.030   3.718   3.564
 3355SOL    HW213400   1.944   3.763   3.433
 3356SOL     OW13401   3.685   2.477   3.591
 3356SOL    HW113402   3.632   2.562   3.593
 3356SOL    HW213403   3.626   2.402   3.561
 3357SOL     OW13404   2.428   2.139   2.762
 3357SOL    HW113405   2.440   2.112   2.857
 3357SOL    HW213406   2.426   2.239   2.756
 3358SOL     OW13407   2.847   3.430   2.288
 3358SOL    HW113408   2.798   3.518   2.293
 3358SOL    HW213409   2.824   3.376   2.369
 3359SOL     OW13410   2.189   2.849   2.087
 3359SOL    HW113411   2.288   2.860   2.075
 3359SOL    HW213412   2.152   2.799   2.009
 3360SOL     OW13413   3.521   3.224   2.026
 3360SOL    HW113414   3.491   3.315   1.997
 3360SOL    HW213415   3.470   3.155   1.975
 3361SOL     OW13416   2.169   3.574   3.101
 3361SOL    HW113417   2.254   3.556   3.151
 3361SOL    HW213418   2.159   3.507   3.027
 3362SOL     OW13419   2.274   2.495   2.351
 3362SOL    HW113420   2.284   2.574   2.291
 3362SOL    HW213421   2.178   2.486   2.378
 3363SOL     OW13422   2.623   1.908   1.918
 3363SOL    HW113423   2.682   1.975   1.874
 3363SOL    HW213424   2.533   1.910   1.874
 3364SOL     OW13425   2.722   2.135   3.602
 3364SOL    HW113426   2.816   2.163   3.581
 3364SOL    HW213427   2.707   2.142   3.701
 3365SOL     OW13428   3.288   2.476   3.282
 3365SOL    HW113429   3.279   2.432   3.371
 3365SOL    HW213430   3.280   2.575   3.292
 3366SOL     OW13431   2.801   2.305   2.846
 3366SOL    HW113432   2.762   2.283   2.757
 3366SOL    HW213433   2.847   2.224   2.883
 3367SOL     OW13434   3.365   3.041   1.895
 3367SOL    HW113435   3.349   3.008   1.802
 3367SOL    HW213436   3.277   3.065   1.937
 3368SOL     OW13437   2.995   3.429   2.650
 3368SOL    HW113438   3.065   3.451   2.582
 3368SOL    HW213439   2.997   3.497   2.723
 3369SOL     OW13440   2.323   2.968   2.544
 3369SOL    HW113441   2.255   2.955   2.615
 3369SOL    HW213442   2.277   2.981   2.456
 3370SOL     OW13443   1.964   2.424   3.235
 3370SOL    HW113444   2.061   2.413   3.213
 3370SOL    HW213445   1.954   2.497   3.303
 3371SOL     OW13446   2.442   2.065   3.019
 3371SOL    HW113447   2.500   2.053   3.099
 3371SOL    HW213448   2.347   2.041   3.043
 3372SOL     OW13449   2.689   2.301   2.588
 3372SOL    HW113450   2.625   2.373   2.562
 3372SOL    HW213451   2.770   2.306   2.529
 3373SOL     OW13452   2.868   1.817   2.652
 3373SOL    HW113453   2.818   1.838   2.568
 3373SOL    HW213454   2.804   1.793   2.725
 3374SOL     OW13455   3.333   2.460   2.797
 3374SOL    HW113456   3.266   2.387   2.811
 3374SOL    HW213457   3.381   2.479   2.882
 3375SOL     OW13458   2.316   3.385   2.052
 3375SOL    HW113459   2.249   3.348   2.116
 3375SOL    HW213460   2.278   3.388   1.960
 3376SOL     OW13461   3.710   3.077   3.424
 3376SOL    HW113462   3.804   3.058   3.397
 3376SOL    HW213463   3.702   3.173   3.453
 3377SOL     OW13464   2.797   1.952   3.262
 3377SOL    HW113465   2.829   1.868   3.306
 3377SOL    HW213466   2.874   2.013   3.247
 3378SOL     OW13467   3.184   2.296   3.107
 3378SOL    HW113468   3.220   2.367   3.167
 3378SOL    HW213469   3.175   2.331   3.014
 3379SOL     OW13470   1.930   3.468   3.187
 3379SOL    HW113471   1.859   3.502   3.126
 3379SOL    HW213472   2.017   3.514   3.165
 3380SOL     OW13473   2.178   3.011   2.317
 3380SOL    HW113474   2.173   3.105   2.282
 3380SOL    HW213475   2.180   2.948   2.240
 3381SOL     OW13476   2.412   2.419   2.770
 3381SOL    HW113477   2.442   2.441   2.677
 3381SOL    HW213478   2.484   2.442   2.835
 3382SOL     OW13479   3.080   3.353   2.180
 3382SOL    HW113480   3.144   3.387   2.249
 3382SOL    HW213481   2.986   3.369   2.210
 3383SOL     OW13482   3.128   3.362   2.986
 3383SOL    HW113483   3.121   3.344   3.084
 3383SOL    HW213484   3.079   3.292   2.935
 3384SOL     OW13485   2.244   2.662   3.470
 3384SOL    HW113486   2.303   2.706   3.402
 3384SOL    HW213487   2.287   2.578   3.503
 3385SOL     OW13488   3.527   2.702   3.583
 3385SOL    HW113489   3.427   2.713   3.591
 3385SOL    HW213490   3.557   2.745   3.498
 3386SOL     OW13491   2.317   1.998   3.548
 3386SOL    HW113492   2.282   1.920   3.495
 3386SOL    HW213493   2.248   2.070   3.549
 3387SOL     OW13494   2.552   2.763   3.024
 3387SOL    HW113495   2.558   2.845   2.969
 3387SOL    HW213496   2.495   2.695   2.977
 3388SOL     OW13497   2.173   2.036   3.086
 3388SOL    HW113498   2.210   2.079   3.168
 3388SOL    HW213499   2.079   2.004   3.104
 3389SOL     OW13500   1.993   3.205   3.121
 3389SOL    HW113501   1.999   3.145   3.200
 3389SOL    HW213502   1.962   3.296   3.150
 3390SOL     OW13503   2.611   2.474   2.944
 3390SOL    HW113504   2.668   2.398   2.915
 3390SOL    HW213505   2.663   2.536   3.002
 3391SOL     OW13506   3.695   2.863   3.730
 3391SOL    HW113507   3.634   2.803   3.677
 3391SOL    HW213508   3.672   2.856   3.827
 3392SOL     OW13509   2.182   1.854   2.602
 3392SOL    HW113510   2.158   1.949   2.578
 3392SOL    HW213511   2.275   1.852   2.640
 3393SOL     OW13512   3.531   2.280   2.207
 3393SOL    HW113513   3.547   2.190   2.247
 3393SOL    HW213514   3.433   2.301   2.210
 3394SOL     OW13515   2.894   2.568   2.849
 3394SOL    HW113516   2.865   2.607   2.936
 3394SOL    HW213517   2.867   2.471   2.846
 3395SOL     OW13518   3.733   3.344   3.486
 3395SOL    HW113519   3.710   3.440   3.469
 3395SOL    HW213520   3.811   3.340   3.549
 3396SOL     OW13521   2.266   2.801   3.703
 3396SOL    HW113522   2.363   2.820   3.717
 3396SOL    HW213523   2.255   2.742   3.624
 3397SOL     OW13524   3.423   2.149   1.971
 3397SOL    HW113525   3.382   2.096   2.045
 3397SOL    HW213526   3.487   2.216   2.009
 3398SOL     OW13527   3.019   3.197   2.808
 3398SOL    HW113528   2.999   3.109   2.765
 3398SOL    HW213529   3.006   3.270   2.740
 3399SOL     OW13530   2.220   2.668   2.806
 3399SOL    HW113531   2.305   2.657   2.755
 3399SOL    HW213532   2.203   2.586   2.861
 3400SOL     OW13533   2.174   2.366   2.879
 3400SOL    HW113534   2.142   2.274   2.855
 3400SOL    HW213535   2.261   2.384   2.834
 3401SOL     OW13536   3.004   2.249   3.475
 3401SOL    HW113537   2.952   2.326   3.439
 3401SOL    HW213538   3.095   2.279   3.501
 3402SOL     OW13539   2.992   2.145   3.218
 3402SOL    HW113540   2.983   2.168   3.315
 3402SOL    HW213541   3.068   2.198   3.179
 3403SOL     OW13542   1.912   3.182   2.099
 3403SOL    HW113543   1.820   3.219   2.085
 3403SOL    HW213544   1.906   3.085   2.122
 3404SOL     OW13545   1.908   2.392   2.962
 3404SOL    HW113546   1.998   2.390   2.920
 3404SOL    HW213547   1.918   2.400   3.061
 3405SOL     OW13548   3.274   2.827   3.540
 3405SOL    HW113549   3.315   2.917   3.551
 3405SOL    HW213550   3.273   2.802   3.443
 3406SOL     OW13551   3.445   2.486   3.051
 3406SOL    HW113552   3.396   2.474   3.138
 3406SOL    HW213553   3.541   2.464   3.063
 3407SOL     OW13554   2.107   3.397   3.592
 3407SOL    HW113555   2.091   3.480   3.645
 3407SOL    HW213556   2.116   3.319   3.654
 3408SOL     OW13557   2.678   3.570   3.341
 3408SOL    HW113558   2.593   3.551   3.291
 3408SOL    HW213559   2.716   3.657   3.310
 3409SOL     OW13560   1.999   3.040   3.356
 3409SOL    HW113561   2.023   3.009   3.448
 3409SOL    HW213562   1.980   2.961   3.298
 3410SOL     OW13563   3.183   2.730   3.022
 3410SOL    HW113564   3.263   2.750   2.967
 3410SOL    HW213565   3.112   2.688   2.965
 3411SOL     OW13566   3.578   3.693   2.928
 3411SOL    HW113567   3.663   3.715   2.879
 3411SOL    HW213568   3.552   3.599   2.908
 3412SOL     OW13569   3.038   3.596   2.871
 3412SOL    HW113570   3.118   3.651   2.847
 3412SOL    HW213571   3.067   3.516   2.923
 3413SOL     OW13572   1.930   3.079   2.882
 3413SOL    HW113573   1.952   3.119   2.971
 3413SOL    HW213574   1.844   3.029   2.888
 3414SOL     OW13575   2.555   3.458   3.558
 3414SOL    HW113576   2.516   3.535   3.609
 3414SOL    HW213577   2.615   3.493   3.486
 3415SOL     OW13578   3.583   2.029   2.322
 3415SOL    HW113579   3.662   2.021   2.262
 3415SOL    HW213580   3.569   1.942   2.370
 3416SOL     OW13581   3.240   3.506   2.349
 3416SOL    HW113582   3.328   3.496   2.302
 3416SOL    HW213583   3.209   3.601   2.340
 3417SOL     OW13584   2.054   3.633   3.718
 3417SOL    HW113585   1.977   3.590   3.766
 3417SOL    HW213586   2.110   3.684   3.784
 3418SOL     OW13587   2.575   3.009   3.322
 3418SOL    HW113588   2.541   3.079   3.386
 3418SOL    HW213589   2.632   3.052   3.253
 3419SOL     OW13590   2.117   2.125   2.551
 3419SOL    HW113591   2.034   2.176   2.529
 3419SOL    HW213592   2.133   2.129   2.650
 3420SOL     OW13593   2.772   2.680   2.149
 3420SOL    HW113594   2.788   2.617   2.073
 3420SOL    HW213595   2.797   2.636   2.235
 3421SOL     OW13596   3.405   3.466   1.951
 3421SOL    HW113597   3.305   3.465   1.952
 3421SOL    HW213598   3.437   3.466   1.857
 3422SOL     OW13599   2.215   3.218   3.408
 3422SOL    HW113600   2.172   3.283   3.470
 3422SOL    HW213601   2.146   3.152   3.377
 3423SOL     OW13602   2.969   2.969   2.671
 3423SOL    HW113603   2.898   2.898   2.662
 3423SOL    HW213604   3.050   2.941   2.620
 3424SOL     OW13605   2.427   3.373   2.393
 3424SOL    HW113606   2.482   3.343   2.315
 3424SOL    HW213607   2.330   3.373   2.368
 3425SOL     OW13608   2.138   3.272   2.228
 3425SOL    HW113609   2.051   3.251   2.182
 3425SOL    HW213610   2.119   3.312   2.317
 3426SOL     OW13611   2.057   2.957   3.612
 3426SOL    HW113612   1.971   2.924   3.651
 3426SOL    HW213613   2.132   2.897   3.641
 3427SOL     OW13614   2.586   2.074   3.369
 3427SOL    HW113615   2.660   2.030   3.319
 3427SOL    HW213616   2.613   2.086   3.465
 3428SOL     OW13617   1.926   2.064   1.836
 3428SOL    HW113618   1.828   2.061   1.852
 3428SOL    HW213619   1.970   2.121   1.905
 3429SOL     OW13620   3.287   2.755   3.273
 3429SOL    HW113621   3.231   2.750   3.191
 3429SOL    HW213622   3.383   2.767   3.248
 3430SOL     OW13623   1.990   2.013   2.241
 3430SOL    HW113624   1.976   2.083   2.171
 3430SOL    HW213625   2.081   2.023   2.281
 3431SOL     OW13626   3.129   3.116   2.021
 3431SOL    HW113627   3.062   3.044   2.039
 3431SOL    HW213628   3.110   3.195   2.080
 3432SOL     OW13629   2.414   2.791   3.288
 3432SOL    HW113630   2.470   2.867   3.319
 3432SOL    HW213631   2.461   2.745   3.212
 3433SOL     OW13632   3.286   3.691   2.805
 3433SOL    HW113633   3.329   3.649   2.725
 3433SOL    HW213634   3.355   3.740   2.858
 3434SOL     OW13635   2.257   3.589   3.442
 3434SOL    HW113636   2.182   3.656   3.439
 3434SOL    HW213637   2.225   3.505   3.487
 3435SOL     OW13638   3.517   2.767   3.102
 3435SOL    HW113639   3.531   2.668   3.095
 3435SOL    HW213640   3.479   2.802   3.016
 3436SOL     OW13641   2.493   2.484   2.518
 3436SOL    HW113642   2.502   2.580   2.545
 3436SOL    HW213643   2.419   2.475   2.452
 3437SOL     OW13644   3.528   2.255   3.527
 3437SOL    HW113645   3.524   2.223   3.432
 3437SOL    HW213646   3.594   2.200   3.578
 3438SOL     OW13647   3.591   2.838   3.362
 3438SOL    HW113648   3.637   2.925   3.383
 3438SOL    HW213649   3.594   2.822   3.264
 3439SOL     OW13650   2.757   2.782   2.713
 3439SOL    HW113651   2.803   2.706   2.758
 3439SOL    HW213652   2.721   2.845   2.782
 3440SOL     OW13653   2.987   2.791   1.856
 3440SOL    HW113654   2.965   2.878   1.812
 3440SOL    HW213655   2.997   2.805   1.954
 3441SOL     OW13656   3.696   3.521   2.625
 3441SOL    HW113657   3.657   3.490   2.538
 3441SOL    HW213658   3.641   3.484   2.700
 3442SOL     OW13659   1.945   3.016   2.480
 3442SOL    HW113660   1.957   2.963   2.564
 3442SOL    HW213661   2.029   3.013   2.427
 3443SOL     OW13662   2.478   3.206   3.482
 3443SOL    HW113663   2.383   3.211   3.452
 3443SOL    HW213664   2.507   3.297   3.512
 3444SOL     OW13665   3.553   3.428   2.841
 3444SOL    HW113666   3.462   3.391   2.820
 3444SOL    HW213667   3.601   3.366   2.903
 3445SOL     OW13668   2.218   2.384   3.156
 3445SOL    HW113669   2.261   2.306   3.199
 3445SOL    HW213670   2.218   2.372   3.056
 3446SOL     OW13671   2.553   3.588   2.516
 3446SOL    HW113672   2.625   3.619   2.453
 3446SOL    HW213673   2.509   3.507   2.478
 3447SOL     OW13674   3.359   2.098   3.020
 3447SOL    HW113675   3.366   2.037   3.098
 3447SOL    HW213676   3.306   2.179   3.046
 3448SOL     OW13677   2.479   3.387   3.010
 3448SOL    HW113678   2.461   3.439   3.094
 3448SOL    HW213679   2.502   3.450   2.936
 3449SOL     OW13680   3.052   2.060   1.969
 3449SOL    HW113681   3.081   2.027   1.879
 3449SOL    HW213682   3.014   1.983   2.021
 3450SOL     OW13683   3.339   2.077   2.745
 3450SOL    HW113684   3.362   2.080   2.842
 3450SOL    HW213685   3.420   2.095   2.690
 3451SOL     OW13686   1.908   2.895   2.147
 3451SOL    HW113687   2.004   2.889   2.121
 3451SOL    HW213688   1.881   2.811   2.195
 3452SOL     OW13689   1.883   2.298   4.422
 3452SOL    HW113690   1.810   2.230   4.433
 3452SOL    HW213691   1.969   2.260   4.456
 3453SOL     OW13692   2.963   2.547   4.313
 3453SOL    HW113693   3.027   2.619   4.340
 3453SOL    HW213694   2.941   2.490   4.392
 3454SOL     OW13695   2.638   2.739   5.460
 3454SOL    HW113696   2.648   2.817   5.521
 3454SOL    HW213697   2.728   2.710   5.428
 3455SOL     OW13698   2.561   2.799   4.384
 3455SOL    HW113699   2.633   2.791   4.452
 3455SOL    HW213700   2.493   2.866   4.414
 3456SOL     OW13701   2.175   3.364   4.808
 3456SOL    HW113702   2.108   3.371   4.734
 3456SOL    HW213703   2.264   3.395   4.775
 3457SOL     OW13704   3.359   2.281   4.436
 3457SOL    HW113705   3.350   2.379   4.450
 3457SOL    HW213706   3.448   2.250   4.469
 3458SOL     OW13707   2.116   3.668   4.143
 3458SOL    HW113708   2.136   3.716   4.228
 3458SOL    HW213709   2.180   3.593   4.131
 3459SOL     OW13710   3.008   3.193   5.512
 3459SOL    HW113711   2.985   3.217   5.606
 3459SOL    HW213712   2.977   3.100   5.493
 3460SOL     OW13713   2.150   2.991   4.642
 3460SOL    HW113714   2.140   2.923   4.716
 3460SOL    HW213715   2.083   3.064   4.655
 3461SOL     OW13716   2.460   3.623   5.143
 3461SOL    HW113717   2.404   3.625   5.226
 3461SOL    HW213718   2.519   3.704   5.141
 3462SOL     OW13719   2.549   2.862   3.857
 3462SOL    HW113720   2.569   2.938   3.796
 3462SOL    HW213721   2.598   2.876   3.944
 3463SOL     OW13722   3.492   2.089   5.225
 3463SOL    HW113723   3.533   2.162   5.171
 3463SOL    HW213724   3.452   2.127   5.309
 3464SOL     OW13725   2.005   2.515   4.307
 3464SOL    HW113726   1.957   2.438   4.349
 3464SOL    HW213727   2.012   2.590   4.374
 3465SOL     OW13728   3.736   3.576   4.027
 3465SOL    HW113729   3.815   3.517   4.040
 3465SOL    HW213730   3.760   3.670   4.052
 3466SOL     OW13731   1.858   3.511   3.859
 3466SOL    HW113732   1.781   3.449   3.872
 3466SOL    HW213733   1.857   3.581   3.930
 3467SOL     OW13734   3.553   2.773   4.411
 3467SOL    HW113735   3.624   2.707   4.386
 3467SOL    HW213736   3.525   2.824   4.329
 3468SOL     OW13737   3.488   2.941   4.198
 3468SOL    HW113738   3.511   3.031   4.236
 3468SOL    HW213739   3.389   2.935   4.186
 3469SOL     OW13740   2.517   3.243   4.520
 3469SOL    HW113741   2.568   3.222   4.604
 3469SOL    HW213742   2.468   3.162   4.490
 3470SOL     OW13743   3.179   3.142   5.101
 3470SOL    HW113744   3.182   3.061   5.042
 3470SOL    HW213745   3.236   3.127   5.182
 3471SOL     OW13746   2.641   1.892   4.280
 3471SOL    HW113747   2.658   1.987   4.254
 3471SOL    HW213748   2.543   1.878   4.295
 3472SOL     OW13749   2.051   2.850   4.861
 3472SOL    HW113750   2.054   2.921   4.931
 3472SOL    HW213751   2.010   2.767   4.900
 3473SOL     OW13752   3.086   3.569   5.475
 3473SOL    HW113753   3.120   3.644   5.418
 3473SOL    HW213754   3.034   3.505   5.418
 3474SOL     OW13755   2.269   2.123   5.594
 3474SOL    HW113756   2.251   2.129   5.496
 3474SOL    HW213757   2.296   2.213   5.629
 3475SOL     OW13758   3.528   3.584   4.327
 3475SOL    HW113759   3.502   3.541   4.241
 3475SOL    HW213760   3.532   3.515   4.399
 3476SOL     OW13761   2.403   2.532   4.024
 3476SOL    HW113762   2.383   2.630   4.013
 3476SOL    HW213763   2.351   2.496   4.101
 3477SOL     OW13764   3.166   2.241   4.781
 3477SOL    HW113765   3.081   2.226   4.730
 3477SOL    HW213766   3.211   2.153   4.796
 3478SOL     OW13767   3.475   3.492   4.071
 3478SOL    HW113768   3.571   3.518   4.059
 3478SOL    HW213769   3.431   3.488   3.981
 3479SOL     OW13770   2.575   2.437   5.111
 3479SOL    HW113771   2.626   2.441   5.197
 3479SOL    HW213772   2.477   2.437   5.132
 3480SOL     OW13773   3.323   2.446   5.431
 3480SOL    HW113774   3.327   2.488   5.521
 3480SOL    HW213775   3.352   2.350   5.438
 3481SOL     OW13776   2.885   2.470   4.068
 3481SOL    HW113777   2.914   2.497   4.160
 3481SOL    HW213778   2.791   2.436   4.072
 3482SOL     OW13779   1.998   2.734   4.469
 3482SOL    HW113780   2.019   2.784   4.553
 3482SOL    HW213781   1.909   2.764   4.434
 3483SOL     OW13782   1.860   3.647   5.347
 3483SOL    HW113783   1.945   3.680   5.305
 3483SOL    HW213784   1.818   3.721   5.399
 3484SOL     OW13785   2.678   2.137   3.885
 3484SOL    HW113786   2.758   2.087   3.919
 3484SOL    HW213787   2.596   2.083   3.902
 3485SOL     OW13788   3.212   2.933   4.188
 3485SOL    HW113789   3.172   2.862   4.131
 3485SOL    HW213790   3.160   3.018   4.175
 3486SOL     OW13791   2.328   2.069   4.611
 3486SOL    HW113792   2.292   2.026   4.694
 3486SOL    HW213793   2.406   2.128   4.635
 3487SOL     OW13794   2.770   3.294   4.189
 3487SOL    HW113795   2.737   3.368   4.131
 3487SOL    HW213796   2.771   3.323   4.285
 3488SOL     OW13797   2.232   3.664   4.627
 3488SOL    HW113798   2.285   3.579   4.637
 3488SOL    HW213799   2.283   3.740   4.667
 3489SOL     OW13800   2.939   3.392   5.317
 3489SOL    HW113801   2.957   3.318   5.383
 3489SOL    HW213802   2.959   3.360   5.225
 3490SOL     OW13803   2.319   2.799   3.985
 3490SOL    HW113804   2.407   2.825   3.945
 3490SOL    HW213805   2.251   2.792   3.912
 3491SOL     OW13806   3.367   2.570   4.478
 3491SOL    HW113807   3.346   2.543   4.572
 3491SOL    HW213808   3.435   2.644   4.479
 3492SOL     OW13809   2.159   3.026   5.326
 3492SOL    HW113810   2.226   3.096   5.350
 3492SOL    HW213811   2.171   2.947   5.385
 3493SOL     OW13812   1.985   2.088   5.232
 3493SOL    HW113813   1.914   2.144   5.189
 3493SOL    HW213814   1.953   1.994   5.242
 3494SOL     OW13815   3.502   3.252   3.780
 3494SOL    HW113816   3.446   3.333   3.799
 3494SOL    HW213817   3.442   3.174   3.761
 3495SOL     OW13818   2.257   2.441   4.228
 3495SOL    HW113819   2.256   2.342   4.226
 3495SOL    HW213820   2.167   2.476   4.254
 3496SOL     OW13821   2.583   2.215   5.518
 3496SOL    HW113822   2.642   2.175   5.588
 3496SOL    HW213823   2.558   2.145   5.451
 3497SOL     OW13824   2.796   3.390   4.838
 3497SOL    HW113825   2.832   3.438   4.758
 3497SOL    HW213826   2.868   3.383   4.907
 3498SOL     OW13827   3.254   2.475   5.172
 3498SOL    HW113828   3.285   2.466   5.267
 3498SOL    HW213829   3.246   2.572   5.149
 3499SOL     OW13830   2.883   2.390   4.526
 3499SOL    HW113831   2.789   2.373   4.495
 3499SOL    HW213832   2.919   2.307   4.569
 3500SOL     OW13833   3.312   3.051   3.740
 3500SOL    HW113834   3.334   2.963   3.783
 3500SOL    HW213835   3.226   3.085   3.779
 3501SOL     OW13836   2.698   2.162   4.222
 3501SOL    HW113837   2.661   2.232   4.161
 3501SOL    HW213838   2.794   2.147   4.202
 3502SOL     OW13839   2.370   2.997   4.468
 3502SOL    HW113840   2.295   2.992   4.534
 3502SOL    HW213841   2.334   2.992   4.375
 3503SOL     OW13842   3.258   3.787   4.217
 3503SOL    HW113843   3.350   3.809   4.251
 3503SOL    HW213844   3.218   3.716   4.275
 3504SOL     OW13845   1.890   2.461   5.010
 3504SOL    HW113846   1.973   2.419   4.973
 3504SOL    HW213847   1.916   2.542   5.063
 3505SOL     OW13848   2.452   1.895   4.889
 3505SOL    HW113849   2.492   1.944   4.966
 3505SOL    HW213850   2.357   1.926   4.876
 3506SOL     OW13851   2.632   2.312   4.451
 3506SOL    HW113852   2.577   2.389   4.418
 3506SOL    HW213853   2.652   2.251   4.374
 3507SOL     OW13854   2.897   2.000   4.415
 3507SOL    HW113855   2.814   1.949   4.391
 3507SOL    HW213856   2.950   2.018   4.331
 3508SOL     OW13857   3.311   2.476   4.736
 3508SOL    HW113858   3.255   2.394   4.741
 3508SOL    HW213859   3.373   2.479   4.814
 3509SOL     OW13860   3.205   2.474   3.781
 3509SOL    HW113861   3.109   2.449   3.790
 3509SOL    HW213862   3.259   2.431   3.853
 3510SOL     OW13863   3.602   3.154   5.264
 3510SOL    HW113864   3.661   3.096   5.320
 3510SOL    HW213865   3.629   3.250   5.277
 3511SOL     OW13866   2.972   3.309   5.048
 3511SOL    HW113867   2.897   3.249   5.077
 3511SOL    HW213868   3.059   3.260   5.056
 3512SOL     OW13869   3.487   3.574   5.344
 3512SOL    HW113870   3.473   3.609   5.251
 3512SOL    HW213871   3.557   3.502   5.343
 3513SOL     OW13872   3.067   3.154   4.800
 3513SOL    HW113873   2.981   3.192   4.833
 3513SOL    HW213874   3.069   3.154   4.700
 3514SOL     OW13875   3.566   2.918   4.857
 3514SOL    HW113876   3.573   3.004   4.907
 3514SOL    HW213877   3.565   2.936   4.759
 3515SOL     OW13878   2.842   1.982   5.084
 3515SOL    HW113879   2.875   1.975   4.989
 3515SOL    HW213880   2.911   2.029   5.139
 3516SOL     OW13881   2.911   2.941   5.440
 3516SOL    HW113882   2.888   2.980   5.350
 3516SOL    HW213883   2.916   2.841   5.432
 3517SOL     OW13884   2.655   2.860   4.124
 3517SOL    HW113885   2.617   2.828   4.210
 3517SOL    HW213886   2.751   2.833   4.117
 3518SOL     OW13887   3.227   2.214   5.050
 3518SOL    HW113888   3.245   2.293   5.108
 3518SOL    HW213889   3.189   2.245   4.963
 3519SOL     OW13890   1.863   3.326   4.893
 3519SOL    HW113891   1.831   3.421   4.889
 3519SOL    HW213892   1.934   3.318   4.963
 3520SOL     OW13893   2.313   2.984   4.195
 3520SOL    HW113894   2.393   3.042   4.180
 3520SOL    HW213895   2.312   2.909   4.128
 3521SOL     OW13896   2.324   2.422   4.592
 3521SOL    HW113897   2.370   2.471   4.517
 3521SOL    HW213898   2.387   2.357   4.633
 3522SOL     OW13899   3.062   3.183   4.132
 3522SOL    HW113900   3.125   3.259   4.149
 3522SOL    HW213901   2.970   3.209   4.164
 3523SOL     OW13902   3.274   3.346   4.837
 3523SOL    HW113903   3.258   3.409   4.912
 3523SOL    HW213904   3.202   3.276   4.834
 3524SOL     OW13905   3.476   2.525   4.217
 3524SOL    HW113906   3.429   2.530   4.305
 3524SOL    HW213907   3.418   2.566   4.146
 3525SOL     OW13908   2.188   3.117   4.953
 3525SOL    HW113909   2.174   3.172   4.870
 3525SOL    HW213910   2.147   3.163   5.031
 3526SOL     OW13911   3.138   2.698   4.767
 3526SOL    HW113912   3.045   2.667   4.749
 3526SOL    HW213913   3.201   2.620   4.756
 3527SOL     OW13914   2.637   2.711   4.904
 3527SOL    HW113915   2.648   2.613   4.885
 3527SOL    HW213916   2.555   2.725   4.959
 3528SOL     OW13917   3.570   2.301   4.098
 3528SOL    HW113918   3.578   2.228   4.165
 3528SOL    HW213919   3.545   2.386   4.144
 3529SOL     OW13920   2.885   2.589   4.712
 3529SOL    HW113921   2.829   2.557   4.788
 3529SOL    HW213922   2.891   2.518   4.643
 3530SOL     OW13923   3.692   3.411   5.273
 3530SOL    HW113924   3.702   3.471   5.194
 3530SOL    HW213925   3.771   3.421   5.333
 3531SOL     OW13926   2.213   2.809   5.492
 3531SOL    HW113927   2.256   2.830   5.580
 3531SOL    HW213928   2.281   2.771   5.430
 3532SOL     OW13929   3.162   2.742   3.772
 3532SOL    HW113930   3.182   2.644   3.775
 3532SOL    HW213931   3.195   2.780   3.686
 3533SOL     OW13932   3.042   2.106   5.228
 3533SOL    HW113933   3.003   2.197   5.244
 3533SOL    HW213934   3.122   2.114   5.169
 3534SOL     OW13935   1.967   3.662   4.691
 3534SOL    HW113936   1.918   3.705   4.615
 3534SOL    HW213937   2.065   3.665   4.674
 3535SOL     OW13938   2.398   3.449   4.674
 3535SOL    HW113939   2.457   3.472   4.751
 3535SOL    HW213940   2.443   3.380   4.617
 3536SOL     OW13941   3.231   2.848   5.378
 3536SOL    HW113942   3.264   2.941   5.362
 3536SOL    HW213943   3.231   2.798   5.292
 3537SOL     OW13944   2.630   2.364   4.043
 3537SOL    HW113945   2.637   2.298   3.968
 3537SOL    HW213946   2.551   2.423   4.029
 3538SOL     OW13947   3.458   2.460   4.976
 3538SOL    HW113948   3.385   2.460   5.045
 3538SOL    HW213949   3.524   2.388   4.999
 3539SOL     OW13950   2.292   2.403   3.809
 3539SOL    HW113951   2.327   2.446   3.892
 3539SOL    HW213952   2.195   2.382   3.821
 3540SOL     OW13953   3.168   2.923   4.920
 3540SOL    HW113954   3.158   2.842   4.862
 3540SOL    HW213955   3.133   3.003   4.871
 3541SOL     OW13956   3.114   2.725   4.047
 3541SOL    HW113957   3.054   2.647   4.064
 3541SOL    HW213958   3.130   2.734   3.949
 3542SOL     OW13959   3.682   3.556   4.869
 3542SOL    HW113960   3.762   3.577   4.813
 3542SOL    HW213961   3.635   3.476   4.833
 3543SOL     OW13962   3.180   3.673   4.795
 3543SOL    HW113963   3.228   3.637   4.716
 3543SOL    HW213964   3.209   3.623   4.877
 3544SOL     OW13965   2.608   3.637   5.482
 3544SOL    HW113966   2.511   3.637   5.455
 3544SOL    HW213967   2.664   3.613   5.403
 3545SOL     OW13968   3.644   2.095   4.262
 3545SOL    HW113969   3.736   2.133   4.263
 3545SOL    HW213970   3.644   2.007   4.214
 3546SOL     OW13971   3.231   3.399   4.181
 3546SOL    HW113972   3.319   3.424   4.141
 3546SOL    HW213973   3.204   3.467   4.249
 3547SOL     OW13974   2.104   3.682   5.553
 3547SOL    HW113975   2.025   3.623   5.567
 3547SOL    HW213976   2.079   3.757   5.490
 3548SOL     OW13977   3.148   2.738   4.387
 3548SOL    HW113978   3.224   2.684   4.423
 3548SOL    HW213979   3.183   2.805   4.322
 3549SOL     OW13980   3.520   3.641   5.067
 3549SOL    HW113981   3.583   3.613   4.994
 3549SOL    HW213982   3.535   3.737   5.089
 3550SOL     OW13983   2.145   2.227   4.489
 3550SOL    HW113984   2.180   2.315   4.522
 3550SOL    HW213985   2.192   2.152   4.535
 3551SOL     OW13986   3.371   3.488   3.811
 3551SOL    HW113987   3.276   3.518   3.819
 3551SOL    HW213988   3.415   3.539   3.737
 3552SOL     OW13989   2.964   2.924   4.480
 3552SOL    HW113990   2.879   2.887   4.519
 3552SOL    HW213991   3.024   2.849   4.452
 3553SOL     OW13992   2.937   2.149   4.642
 3553SOL    HW113993   2.923   2.100   4.556
 3553SOL    HW213994   2.922   2.087   4.719
 3554SOL     OW13995   3.649   2.270   5.060
 3554SOL    HW113996   3.718   2.342   5.066
 3554SOL    HW213997   3.693   2.182   5.045
 3555SOL     OW13998   1.951   2.858   5.600
 3555SOL    HW113999   1.874   2.801   5.572
 3555SOL    HW214000   2.034   2.828   5.554
 3556SOL     OW14001   2.571   2.019   5.099
 3556SOL    HW114002   2.670   2.011   5.087
 3556SOL    HW214003   2.549   2.018   5.197
 3557SOL     OW14004   3.263   2.745   5.120
 3557SOL    HW114005   3.215   2.804   5.055
 3557SOL    HW214006   3.361   2.749   5.102
 3558SOL     OW14007   3.075   3.109   3.866
 3558SOL    HW114008   3.012   3.033   3.851
 3558SOL    HW214009   3.072   3.137   3.961
 3559SOL     OW14010   2.402   2.702   5.318
 3559SOL    HW114011   2.409   2.725   5.221
 3559SOL    HW214012   2.491   2.713   5.361
 3560SOL     OW14013   3.336   3.619   4.565
 3560SOL    HW114014   3.390   3.703   4.553
 3560SOL    HW214015   3.397   3.540   4.562
 3561SOL     OW14016   2.620   2.453   5.387
 3561SOL    HW114017   2.611   2.534   5.445
 3561SOL    HW214018   2.603   2.371   5.441
 3562SOL     OW14019   3.338   3.100   5.320
 3562SOL    HW114020   3.318   3.157   5.400
 3562SOL    HW214021   3.433   3.115   5.291
 3563SOL     OW14022   3.531   2.724   5.049
 3563SOL    HW114023   3.519   2.633   5.010
 3563SOL    HW214024   3.543   2.790   4.976
 3564SOL     OW14025   2.959   2.132   4.143
 3564SOL    HW114026   3.040   2.073   4.150
 3564SOL    HW214027   2.984   2.218   4.100
 3565SOL     OW14028   2.471   2.527   4.382
 3565SOL    HW114029   2.501   2.622   4.374
 3565SOL    HW214030   2.398   2.509   4.317
 3566SOL     OW14031   3.709   2.752   5.266
 3566SOL    HW114032   3.664   2.793   5.345
 3566SOL    HW214033   3.642   2.737   5.194
 3567SOL     OW14034   2.712   3.270   3.830
 3567SOL    HW114035   2.771   3.225   3.896
 3567SOL    HW214036   2.616   3.256   3.856
 3568SOL     OW14037   2.741   2.795   4.600
 3568SOL    HW114038   2.798   2.719   4.632
 3568SOL    HW214039   2.688   2.832   4.676
 3569SOL     OW14040   2.926   2.883   3.813
 3569SOL    HW114041   2.849   2.833   3.774
 3569SOL    HW214042   3.011   2.832   3.798
 3570SOL     OW14043   3.502   3.393   4.534
 3570SOL    HW114044   3.477   3.305   4.494
 3570SOL    HW214045   3.530   3.380   4.629
 3571SOL     OW14046   2.053   3.296   5.613
 3571SOL    HW114047   1.983   3.226   5.600
 3571SOL    HW214048   2.108   3.274   5.693
 3572SOL     OW14049   2.059   3.070   4.231
 3572SOL    HW114050   2.023   3.027   4.313
 3572SOL    HW214051   2.151   3.036   4.213
 3573SOL     OW14052   3.767   2.014   5.010
 3573SOL    HW114053   3.802   1.921   5.023
 3573SOL    HW214054   3.691   2.012   4.945
 3574SOL     OW14055   3.541   3.328   4.803
 3574SOL    HW114056   3.441   3.335   4.810
 3574SOL    HW214057   3.574   3.263   4.872
 3575SOL     OW14058   2.695   3.435   4.428
 3575SOL    HW114059   2.652   3.516   4.389
 3575SOL    HW214060   2.624   3.369   4.454
 3576SOL     OW14061   3.291   1.992   4.893
 3576SOL    HW114062   3.390   1.986   4.886
 3576SOL    HW214063   3.266   2.049   4.971
 3577SOL     OW14064   2.920   1.947   4.824
 3577SOL    HW114065   2.834   1.904   4.795
 3577SOL    HW214066   2.997   1.894   4.789
 3578SOL     OW14067   2.557   3.115   4.140
 3578SOL    HW114068   2.597   3.023   4.137
 3578SOL    HW214069   2.626   3.181   4.170
 3579SOL     OW14070   2.536   3.508   4.898
 3579SOL    HW114071   2.507   3.545   4.986
 3579SOL    HW214072   2.630   3.477   4.905
 3580SOL     OW14073   3.135   1.888   3.790
 3580SOL    HW114074   3.181   1.802   3.809
 3580SOL    HW214075   3.048   1.891   3.840
 3581SOL     OW14076   2.177   2.554   5.623
 3581SOL    HW114077   2.095   2.518   5.579
 3581SOL    HW214078   2.200   2.643   5.583
 3582SOL     OW14079   2.054   2.137   0.045
 3582SOL    HW114080   2.117   2.090   0.107
 3582SOL    HW214081   1.964   2.093   0.051
 3583SOL     OW14082   1.880   2.354   6.183
 3583SOL    HW114083   1.876   2.389   6.276
 3583SOL    HW214084   1.856   2.257   6.182
 3584SOL     OW14085   3.065   2.509   6.281
 3584SOL    HW114086   3.159   2.532   6.306
 3584SOL    HW214087   3.004   2.526   6.358
 3585SOL     OW14088   3.579   2.402   5.754
 3585SOL    HW114089   3.664   2.453   5.746
 3585SOL    HW214090   3.572   2.362   5.845
 3586SOL     OW14091   2.618   2.822   6.340
 3586SOL    HW114092   2.712   2.830   6.375
 3586SOL    HW214093   2.555   2.863   6.406
 3587SOL     OW14094   3.529   2.239   6.429
 3587SOL    HW114095   3.451   2.208   6.483
 3587SOL    HW214096   3.582   2.305   6.481
 3588SOL     OW14097   2.050   3.576   6.027
 3588SOL    HW114098   2.066   3.645   6.097
 3588SOL    HW214099   2.095   3.602   5.942
 3589SOL     OW14100   2.147   3.316   6.076
 3589SOL    HW114101   2.104   3.406   6.073
 3589SOL    HW214102   2.125   3.271   6.162
 3590SOL     OW14103   2.115   2.987   0.041
 3590SOL    HW114104   2.166   2.921   0.096
 3590SOL    HW214105   2.043   3.028   0.096
 3591SOL     OW14106   2.083   2.559   6.167
 3591SOL    HW114107   2.035   2.480   6.130
 3591SOL    HW214108   2.046   2.580   6.258
 3592SOL     OW14109   1.904   3.526   5.639
 3592SOL    HW114110   1.952   3.439   5.639
 3592SOL    HW214111   1.864   3.543   5.729
 3593SOL     OW14112   2.279   3.343   6.398
 3593SOL    HW114113   2.219   3.267   6.373
 3593SOL    HW214114   2.350   3.353   6.329
 3594SOL     OW14115   2.559   2.550   5.931
 3594SOL    HW114116   2.604   2.639   5.936
 3594SOL    HW214117   2.481   2.549   5.994
 3595SOL     OW14118   3.059   2.165   0.028
 3595SOL    HW114119   3.033   2.081   0.077
 3595SOL    HW214120   3.147   2.197   0.064
 3596SOL     OW14121   3.483   3.589   5.832
 3596SOL    HW114122   3.490   3.688   5.821
 3596SOL    HW214123   3.442   3.549   5.751
 3597SOL     OW14124   2.957   2.591   6.044
 3597SOL    HW114125   2.987   2.558   6.134
 3597SOL    HW214126   2.900   2.521   6.000
 3598SOL     OW14127   1.951   2.565   6.410
 3598SOL    HW114128   1.996   2.516   6.484
 3598SOL    HW214129   1.897   2.640   6.447
 3599SOL     OW14130   2.239   3.620   6.381
 3599SOL    HW114131   2.250   3.520   6.387
 3599SOL    HW214132   2.321   3.664   6.416
 3600SOL     OW14133   3.467   2.797   6.373
 3600SOL    HW114134   3.529   2.840   6.307
 3600SOL    HW214135   3.469   2.849   6.459
 3601SOL     OW14136   3.329   2.561   6.346
 3601SOL    HW114137   3.336   2.509   6.431
 3601SOL    HW214138   3.388   2.642   6.351
 3602SOL     OW14139   2.918   3.689   5.881
 3602SOL    HW114140   2.834   3.637   5.893
 3602SOL    HW214141   2.984   3.635   5.828
 3603SOL     OW14142   3.590   3.305   5.630
 3603SOL    HW114143   3.523   3.375   5.606
 3603SOL    HW214144   3.542   3.223   5.660
 3604SOL     OW14145   3.344   1.972   5.999
 3604SOL    HW114146   3.314   1.978   5.904
 3604SOL    HW214147   3.444   1.981   6.003
 3605SOL     OW14148   2.350   2.531   6.110
 3605SOL    HW114149   2.348   2.431   6.117
 3605SOL    HW214150   2.258   2.567   6.124
 3606SOL     OW14151   2.482   1.979   5.714
 3606SOL    HW114152   2.573   1.973   5.673
 3606SOL    HW214153   2.418   2.016   5.647
 3607SOL     OW14154   2.376   1.958   6.119
 3607SOL    HW114155   2.289   1.913   6.138
 3607SOL    HW214156   2.367   2.015   6.037
 3608SOL     OW14157   3.283   3.231   5.555
 3608SOL    HW114158   3.321   3.169   5.624
 3608SOL    HW214159   3.185   3.213   5.547
 3609SOL     OW14160   2.115   1.959   5.745
 3609SOL    HW114161   2.163   2.021   5.682
 3609SOL    HW214162   2.176   1.935   5.820
 3610SOL     OW14163   2.131   3.131   6.307
 3610SOL    HW114164   2.135   3.081   6.393
 3610SOL    HW214165   2.097   3.071   6.235
 3611SOL     OW14166   3.145   3.761   6.302
 3611SOL    HW114167   3.206   3.757   6.223
 3611SOL    HW214168   3.175   3.833   6.365
 3612SOL     OW14169   2.772   2.417   6.302
 3612SOL    HW114170   2.685   2.466   6.308
 3612SOL    HW214171   2.778   2.370   6.214
 3613SOL     OW14172   2.364   3.295   5.681
 3613SOL    HW114173   2.303   3.253   5.748
 3613SOL    HW214174   2.349   3.253   5.591
 3614SOL     OW14175   3.348   2.543   5.701
 3614SOL    HW114176   3.300   2.554   5.788
 3614SOL    HW214177   3.433   2.492   5.716
 3615SOL     OW14178   2.352   2.126   5.900
 3615SOL    HW114179   2.409   2.067   5.842
 3615SOL    HW214180   2.328   2.208   5.849
 3616SOL     OW14181   2.684   2.958   6.107
 3616SOL    HW114182   2.649   2.914   6.189
 3616SOL    HW214183   2.702   2.890   6.036
 3617SOL     OW14184   2.471   2.317   6.459
 3617SOL    HW114185   2.489   2.401   6.409
 3617SOL    HW214186   2.411   2.336   0.037
 3618SOL     OW14187   3.371   2.463   6.086
 3618SOL    HW114188   3.360   2.491   6.181
 3618SOL    HW214189   3.312   2.519   6.028
 3619SOL     OW14190   2.126   1.864   6.227
 3619SOL    HW114191   2.124   1.962   6.244
 3619SOL    HW214192   2.189   1.821   6.291
 3620SOL     OW14193   3.567   2.292   6.001
 3620SOL    HW114194   3.558   2.194   6.016
 3620SOL    HW214195   3.487   2.339   6.037
 3621SOL     OW14196   3.167   2.734   5.619
 3621SOL    HW114197   3.245   2.675   5.639
 3621SOL    HW214198   3.182   2.782   5.532
 3622SOL     OW14199   2.881   3.206   6.455
 3622SOL    HW114200   2.864   3.261   6.374
 3622SOL    HW214201   2.930   3.123   6.431
 3623SOL     OW14202   1.993   3.672   6.490
 3623SOL    HW114203   1.941   3.588   0.002
 3623SOL    HW214204   2.077   3.652   6.440
 3624SOL     OW14205   2.329   2.359   5.744
 3624SOL    HW114206   2.410   2.405   5.780
 3624SOL    HW214207   2.267   2.427   5.704
 3625SOL     OW14208   3.205   2.629   5.926
 3625SOL    HW114209   3.118   2.609   5.970
 3625SOL    HW214210   3.201   2.719   5.883
 3626SOL     OW14211   3.617   2.010   6.024
 3626SOL    HW114212   3.701   2.009   5.969
 3626SOL    HW214213   3.623   1.941   6.096
 3627SOL     OW14214   2.600   3.429   5.671
 3627SOL    HW114215   2.603   3.504   5.605
 3627SOL    HW214216   2.507   3.392   5.674
 3628SOL     OW14217   3.657   1.995   6.405
 3628SOL    HW114218   3.626   1.933   6.333
 3628SOL    HW214219   3.604   2.080   6.402
 3629SOL     OW14220   2.118   2.131   6.280
 3629SOL    HW114221   2.067   2.202   6.232
 3629SOL    HW214222   2.104   2.140   6.379
 3630SOL     OW14223   3.085   3.520   5.740
 3630SOL    HW114224   3.049   3.428   5.755
 3630SOL    HW214225   3.088   3.539   5.642
 3631SOL     OW14226   2.764   2.763   5.934
 3631SOL    HW114227   2.807   2.803   5.853
 3631SOL    HW214228   2.830   2.703   5.981
 3632SOL     OW14229   3.395   3.494   5.591
 3632SOL    HW114230   3.323   3.425   5.578
 3632SOL    HW214231   3.414   3.538   5.503
 3633SOL     OW14232   2.413   3.355   6.159
 3633SOL    HW114233   2.488   3.314   6.108
 3633SOL    HW214234   2.327   3.341   6.110
 3634SOL     OW14235   2.168   3.183   5.840
 3634SOL    HW114236   2.133   3.090   5.852
 3634SOL    HW214237   2.162   3.233   5.927
 3635SOL     OW14238   1.884   2.020   5.883
 3635SOL    HW114239   1.828   2.093   5.844
 3635SOL    HW214240   1.967   2.010   5.829
 3636SOL     OW14241   2.970   3.257   5.778
 3636SOL    HW114242   2.871   3.244   5.780
 3636SOL    HW214243   3.012   3.207   5.854
 3637SOL     OW14244   3.157   2.175   6.000
 3637SOL    HW114245   3.226   2.109   6.027
 3637SOL    HW214246   3.106   2.206   6.081
 3638SOL     OW14247   2.535   2.554   6.311
 3638SOL    HW114248   2.564   2.650   6.323
 3638SOL    HW214249   2.465   2.549   6.240
 3639SOL     OW14250   2.700   3.203   5.784
 3639SOL    HW114251   2.673   3.211   5.880
 3639SOL    HW214252   2.666   3.282   5.733
 3640SOL     OW14253   2.458   3.756   6.485
 3640SOL    HW114254   2.420   3.840   0.023
 3640SOL    HW214255   2.544   3.776   6.438
 3641SOL     OW14256   2.922   2.866   5.730
 3641SOL    HW114257   2.863   2.908   5.661
 3641SOL    HW214258   3.006   2.834   5.687
 3642SOL     OW14259   2.325   2.266   6.135
 3642SOL    HW114260   2.343   2.214   6.052
 3642SOL    HW214261   2.284   2.207   6.204
 3643SOL     OW14262   2.634   3.225   6.051
 3643SOL    HW114263   2.634   3.128   6.076
 3643SOL    HW214264   2.693   3.276   6.112
 3644SOL     OW14265   3.151   1.847   5.675
 3644SOL    HW114266   3.131   1.856   5.577
 3644SOL    HW214267   3.178   1.936   5.712
 3645SOL     OW14268   3.059   2.233   6.254
 3645SOL    HW114269   3.058   2.333   6.256
 3645SOL    HW214270   3.052   2.198   6.347
 3646SOL     OW14271   1.979   2.894   5.884
 3646SOL    HW114272   1.992   2.883   5.786
 3646SOL    HW214273   1.890   2.856   5.910
 3647SOL     OW14274   2.699   3.539   5.902
 3647SOL    HW114275   2.669   3.490   5.820
 3647SOL    HW214276   2.624   3.595   5.936
 3648SOL     OW14277   2.035   4.289   0.143
 3648SOL    HW114278   1.940   4.316   0.157
 3648SOL    HW214279   2.039   4.197   0.105
 3649SOL     OW14280   2.071   3.956   0.983
 3649SOL    HW114281   2.126   3.873   0.975
 3649SOL    HW214282   1.987   3.936   1.033
 3650SOL     OW14283   1.834   4.097   0.642
 3650SOL    HW114284   1.765   4.123   0.709
 3650SOL    HW214285   1.807   4.013   0.596
 3651SOL     OW14286   2.940   4.541   0.631
 3651SOL    HW114287   3.024   4.595   0.641
 3651SOL    HW214288   2.930   4.482   0.711
 3652SOL     OW14289   2.473   4.860   1.044
 3652SOL    HW114290   2.453   4.768   1.077
 3652SOL    HW214291   2.488   4.921   1.122
 3653SOL     OW14292   2.641   4.401   1.893
 3653SOL    HW114293   2.568   4.400   1.961
 3653SOL    HW214294   2.666   4.495   1.872
 3654SOL     OW14295   2.556   4.740   0.810
 3654SOL    HW114296   2.642   4.692   0.826
 3654SOL    HW214297   2.528   4.787   0.894
 3655SOL     OW14298   2.639   4.890   1.819
 3655SOL    HW114299   2.651   4.988   1.808
 3655SOL    HW214300   2.544   4.866   1.796
 3656SOL     OW14301   2.312   4.087   1.503
 3656SOL    HW114302   2.392   4.031   1.481
 3656SOL    HW214303   2.231   4.029   1.506
 3657SOL     OW14304   3.419   4.132   0.843
 3657SOL    HW114305   3.329   4.166   0.818
 3657SOL    HW214306   3.472   4.205   0.885
 3658SOL     OW14307   2.055   5.438   0.293
 3658SOL    HW114308   2.067   5.508   0.362
 3658SOL    HW214309   2.144   5.407   0.260
 3659SOL     OW14310   2.479   5.582   1.466
 3659SOL    HW114311   2.520   5.492   1.454
 3659SOL    HW214312   2.415   5.599   1.391
 3660SOL     OW14313   3.540   3.794   1.538
 3660SOL    HW114314   3.575   3.821   1.448
 3660SOL    HW214315   3.474   3.862   1.569
 3661SOL     OW14316   1.937   4.336   0.545
 3661SOL    HW114317   1.911   4.241   0.564
 3661SOL    HW214318   2.037   4.342   0.543
 3662SOL     OW14319   3.675   5.618   0.380
 3662SOL    HW114320   3.763   5.571   0.388
 3662SOL    HW214321   3.671   5.666   0.292
 3663SOL     OW14322   1.845   5.362   0.126
 3663SOL    HW114323   1.792   5.279   0.142
 3663SOL    HW214324   1.917   5.370   0.194
 3664SOL     OW14325   2.081   4.511   1.628
 3664SOL    HW114326   2.181   4.514   1.629
 3664SOL    HW214327   2.044   4.590   1.676
 3665SOL     OW14328   2.509   5.068   0.852
 3665SOL    HW114329   2.471   4.997   0.911
 3665SOL    HW214330   2.482   5.050   0.757
 3666SOL     OW14331   3.250   5.032   1.363
 3666SOL    HW114332   3.256   4.961   1.292
 3666SOL    HW214333   3.310   5.008   1.439
 3667SOL     OW14334   2.603   3.621   0.541
 3667SOL    HW114335   2.533   3.688   0.517
 3667SOL    HW214336   2.568   3.562   0.614
 3668SOL     OW14337   3.434   4.699   0.353
 3668SOL    HW114338   3.348   4.650   0.341
 3668SOL    HW214339   3.456   4.704   0.451
 3669SOL     OW14340   3.072   5.590   1.676
 3669SOL    HW114341   3.034   5.605   1.584
 3669SOL    HW214342   3.167   5.559   1.668
 3670SOL     OW14343   3.336   5.123   1.014
 3670SOL    HW114344   3.251   5.122   1.066
 3670SOL    HW214345   3.337   5.045   0.951
 3671SOL     OW14346   3.518   5.293   0.590
 3671SOL    HW114347   3.555   5.346   0.514
 3671SOL    HW214348   3.418   5.303   0.592
 3672SOL     OW14349   2.510   4.450   0.162
 3672SOL    HW114350   2.607   4.429   0.153
 3672SOL    HW214351   2.495   4.503   0.246
 3673SOL     OW14352   3.123   4.028   1.022
 3673SOL    HW114353   3.027   3.998   1.024
 3673SOL    HW214354   3.155   4.042   1.115
 3674SOL     OW14355   3.448   5.462   0.343
 3674SOL    HW114356   3.529   5.520   0.348
 3674SOL    HW214357   3.424   5.447   0.247
 3675SOL     OW14358   2.642   4.358   1.416
 3675SOL    HW114359   2.593   4.329   1.499
 3675SOL    HW214360   2.624   4.293   1.342
 3676SOL     OW14361   3.241   4.305   1.744
 3676SOL    HW114362   3.220   4.351   1.830
 3676SOL    HW214363   3.340   4.291   1.736
 3677SOL     OW14364   2.963   4.431   0.385
 3677SOL    HW114365   2.945   4.473   0.473
 3677SOL    HW214366   2.915   4.344   0.379
 3678SOL     OW14367   2.046   5.589   1.563
 3678SOL    HW114368   2.070   5.564   1.656
 3678SOL    HW214369   2.033   5.688   1.557
 3679SOL     OW14370   3.525   4.312   1.766
 3679SOL    HW114371   3.549   4.407   1.748
 3679SOL    HW214372   3.563   4.253   1.694
 3680SOL     OW14373   3.265   4.907   0.575
 3680SOL    HW114374   3.359   4.937   0.561
 3680SOL    HW214375   3.202   4.967   0.525
 3681SOL     OW14376   2.411   3.909   0.970
 3681SOL    HW114377   2.420   3.957   1.057
 3681SOL    HW214378   2.475   3.946   0.904
 3682SOL     OW14379   2.902   5.247   0.470
 3682SOL    HW114380   2.824   5.290   0.425
 3682SOL    HW214381   2.955   5.316   0.520
 3683SOL     OW14382   2.198   5.429   0.800
 3683SOL    HW114383   2.157   5.346   0.764
 3683SOL    HW214384   2.225   5.489   0.724
 3684SOL     OW14385   2.194   4.656   0.361
 3684SOL    HW114386   2.256   4.578   0.367
 3684SOL    HW214387   2.100   4.623   0.354
 3685SOL     OW14388   3.284   4.394   0.693
 3685SOL    HW114389   3.219   4.319   0.696
 3685SOL    HW214390   3.311   4.420   0.785
 3686SOL     OW14391   2.366   4.901   1.762
 3686SOL    HW114392   2.361   4.948   1.674
 3686SOL    HW214393   2.274   4.890   1.799
 3687SOL     OW14394   3.025   5.489   0.207
 3687SOL    HW114395   3.032   5.429   0.287
 3687SOL    HW214396   3.057   5.440   0.126
 3688SOL     OW14397   2.091   3.936   1.529
 3688SOL    HW114398   2.018   3.955   1.462
 3688SOL    HW214399   2.058   3.872   1.598
 3689SOL     OW14400   2.344   5.327   0.289
 3689SOL    HW114401   2.356   5.420   0.324
 3689SOL    HW214402   2.424   5.301   0.236
 3690SOL     OW14403   3.306   3.740   0.422
 3690SOL    HW114404   3.306   3.726   0.323
 3690SOL    HW214405   3.392   3.781   0.450
 3691SOL     OW14406   2.056   5.586   1.200
 3691SOL    HW114407   2.020   5.519   1.263
 3691SOL    HW214408   2.034   5.559   1.106
 3692SOL     OW14409   2.848   5.395   0.780
 3692SOL    HW114410   2.819   5.414   0.874
 3692SOL    HW214411   2.767   5.374   0.724
 3693SOL     OW14412   2.209   4.363   0.534
 3693SOL    HW114413   2.248   4.283   0.579
 3693SOL    HW214414   2.231   4.360   0.436
 3694SOL     OW14415   3.360   3.978   1.621
 3694SOL    HW114416   3.344   3.973   1.720
 3694SOL    HW214417   3.273   3.974   1.573
 3695SOL     OW14418   2.658   4.041   1.691
 3695SOL    HW114419   2.733   4.088   1.737
 3695SOL    HW214420   2.629   3.962   1.745
 3696SOL     OW14421   2.740   5.143   0.979
 3696SOL    HW114422   2.819   5.130   0.918
 3696SOL    HW214423   2.656   5.118   0.930
 3697SOL     OW14424   2.385   3.791   0.490
 3697SOL    HW114425   2.315   3.783   0.561
 3697SOL    HW214426   2.382   3.883   0.451
 3698SOL     OW14427   2.083   3.797   0.208
 3698SOL    HW114428   2.047   3.753   0.126
 3698SOL    HW214429   2.156   3.741   0.247
 3699SOL     OW14430   2.840   3.970   0.491
 3699SOL    HW114431   2.848   3.940   0.396
 3699SOL    HW214432   2.843   3.890   0.551
 3700SOL     OW14433   2.914   4.290   1.411
 3700SOL    HW114434   2.820   4.320   1.428
 3700SOL    HW214435   2.952   4.251   1.495
 3701SOL     OW14436   3.171   5.267   0.827
 3701SOL    HW114437   3.148   5.344   0.887
 3701SOL    HW214438   3.249   5.218   0.865
 3702SOL     OW14439   2.323   4.854   0.710
 3702SOL    HW114440   2.405   4.804   0.738
 3702SOL    HW214441   2.316   4.854   0.611
 3703SOL     OW14442   3.029   5.461   0.585
 3703SOL    HW114443   2.992   5.550   0.555
 3703SOL    HW214444   2.986   5.435   0.671
 3704SOL     OW14445   2.918   4.292   6.406
 3704SOL    HW114446   2.920   4.364   6.336
 3704SOL    HW214447   2.860   4.321   6.482
 3705SOL     OW14448   2.454   4.043   1.202
 3705SOL    HW114449   2.475   4.004   1.292
 3705SOL    HW214450   2.514   4.121   1.185
 3706SOL     OW14451   2.882   4.188   0.672
 3706SOL    HW114452   2.809   4.250   0.645
 3706SOL    HW214453   2.874   4.102   0.622
 3707SOL     OW14454   2.844   3.730   0.628
 3707SOL    HW114455   2.757   3.699   0.589
 3707SOL    HW214456   2.862   3.680   0.713
 3708SOL     OW14457   3.296   4.917   0.849
 3708SOL    HW114458   3.256   4.834   0.888
 3708SOL    HW214459   3.281   4.917   0.750
 3709SOL     OW14460   3.304   4.416   0.968
 3709SOL    HW114461   3.226   4.366   1.007
 3709SOL    HW214462   3.374   4.428   1.039
 3710SOL     OW14463   3.277   4.278   0.085
 3710SOL    HW114464   3.240   4.203   0.140
 3710SOL    HW214465   3.360   4.249   0.038
 3711SOL     OW14466   2.345   4.049   0.352
 3711SOL    HW114467   2.357   4.004   0.263
 3711SOL    HW214468   2.322   4.145   0.338
 3712SOL     OW14469   3.064   4.944   1.545
 3712SOL    HW114470   3.048   5.015   1.613
 3712SOL    HW214471   3.120   4.980   1.471
 3713SOL     OW14472   3.072   5.046   1.078
 3713SOL    HW114473   2.990   5.036   1.134
 3713SOL    HW214474   3.046   5.055   0.982
 3714SOL     OW14475   2.679   3.712   1.422
 3714SOL    HW114476   2.696   3.652   1.343
 3714SOL    HW214477   2.756   3.707   1.485
 3715SOL     OW14478   2.240   4.533   1.311
 3715SOL    HW114479   2.320   4.554   1.367
 3715SOL    HW214480   2.208   4.441   1.332
 3716SOL     OW14481   2.328   4.883   0.428
 3716SOL    HW114482   2.287   4.966   0.389
 3716SOL    HW214483   2.274   4.803   0.401
 3717SOL     OW14484   2.601   4.393   0.842
 3717SOL    HW114485   2.505   4.393   0.868
 3717SOL    HW214486   2.657   4.427   0.918
 3718SOL     OW14487   3.141   5.105   0.431
 3718SOL    HW114488   3.200   5.181   0.458
 3718SOL    HW214489   3.045   5.134   0.435
 3719SOL     OW14490   3.350   4.361   0.427
 3719SOL    HW114491   3.333   4.381   0.523
 3719SOL    HW214492   3.303   4.429   0.370
 3720SOL     OW14493   2.239   5.308   1.209
 3720SOL    HW114494   2.281   5.372   1.144
 3720SOL    HW214495   2.237   5.350   1.300
 3721SOL     OW14496   2.355   4.510   1.656
 3721SOL    HW114497   2.397   4.567   1.585
 3721SOL    HW214498   2.400   4.421   1.658
 3722SOL     OW14499   3.456   4.520   1.521
 3722SOL    HW114500   3.402   4.558   1.596
 3722SOL    HW214501   3.510   4.592   1.479
 3723SOL     OW14502   2.299   3.861   1.745
 3723SOL    HW114503   2.277   3.769   1.712
 3723SOL    HW214504   2.257   3.929   1.686
 3724SOL     OW14505   2.422   4.590   1.106
 3724SOL    HW114506   2.398   4.526   1.032
 3724SOL    HW214507   2.357   4.577   1.181
 3725SOL     OW14508   3.185   4.674   0.933
 3725SOL    HW114509   3.173   4.665   0.835
 3725SOL    HW214510   3.215   4.586   0.971
 3726SOL     OW14511   1.878   5.164   1.227
 3726SOL    HW114512   1.818   5.134   1.301
 3726SOL    HW214513   1.939   5.235   1.261
 3727SOL     OW14514   2.680   4.493   1.099
 3727SOL    HW114515   2.729   4.560   1.042
 3727SOL    HW214516   2.590   4.530   1.123
 3728SOL     OW14517   3.567   4.596   1.789
 3728SOL    HW114518   3.476   4.638   1.788
 3728SOL    HW214519   3.592   4.573   1.883
 3729SOL     OW14520   2.174   3.746   0.678
 3729SOL    HW114521   2.131   3.837   0.677
 3729SOL    HW214522   2.201   3.724   0.772
 3730SOL     OW14523   2.918   4.394   0.870
 3730SOL    HW114524   2.950   4.371   0.962
 3730SOL    HW214525   2.906   4.310   0.817
 3731SOL     OW14526   3.727   5.324   1.597
 3731SOL    HW114527   3.684   5.347   1.509
 3731SOL    HW214528   3.779   5.403   1.630
 3732SOL     OW14529   2.255   4.548   1.916
 3732SOL    HW114530   2.317   4.493   1.972
 3732SOL    HW214531   2.287   4.548   1.821
 3733SOL     OW14532   3.501   3.956   0.168
 3733SOL    HW114533   3.448   3.871   0.169
 3733SOL    HW214534   3.477   4.011   0.249
 3734SOL     OW14535   3.176   4.519   0.023
 3734SOL    HW114536   3.206   4.427   0.046
 3734SOL    HW214537   3.226   4.551   6.442
 3735SOL     OW14538   2.968   5.086   0.828
 3735SOL    HW114539   2.943   5.047   0.739
 3735SOL    HW214540   3.036   5.159   0.814
 3736SOL     OW14541   3.024   4.169   1.647
 3736SOL    HW114542   2.957   4.176   1.721
 3736SOL    HW214543   3.107   4.218   1.673
 3737SOL     OW14544   1.983   5.513   0.951
 3737SOL    HW114545   1.899   5.462   0.930
 3737SOL    HW214546   2.058   5.477   0.896
 3738SOL     OW14547   2.940   4.405   1.168
 3738SOL    HW114548   2.940   4.350   1.251
 3738SOL    HW214549   2.848   4.442   1.152
 3739SOL     OW14550   2.010   4.254   1.673
 3739SOL    HW114551   2.000   4.202   1.588
 3739SOL    HW214552   2.037   4.348   1.652
 3740SOL     OW14553   3.313   4.713   1.695
 3740SOL    HW114554   3.352   4.799   1.663
 3740SOL    HW214555   3.234   4.690   1.639
 3741SOL     OW14556   2.807   4.204   0.330
 3741SOL    HW114557   2.816   4.143   0.410
 3741SOL    HW214558   2.756   4.157   0.258
 3742SOL     OW14559   3.493   4.428   1.164
 3742SOL    HW114560   3.480   4.385   1.253
 3742SOL    HW214561   3.562   4.377   1.112
 3743SOL     OW14562   2.095   5.171   1.707
 3743SOL    HW114563   2.033   5.236   1.750
 3743SOL    HW214564   2.093   5.085   1.757
 3744SOL     OW14565   2.273   4.321   0.274
 3744SOL    HW114566   2.344   4.361   0.217
 3744SOL    HW214567   2.188   4.314   0.221
 3745SOL     OW14568   3.230   4.841   1.155
 3745SOL    HW114569   3.203   4.759   1.105
 3745SOL    HW214570   3.177   4.920   1.123
 3746SOL     OW14571   3.194   4.554   0.300
 3746SOL    HW114572   3.109   4.513   0.334
 3746SOL    HW214573   3.195   4.549   0.200
 3747SOL     OW14574   3.617   5.460   1.089
 3747SOL    HW114575   3.696   5.489   1.036
 3747SOL    HW214576   3.602   5.362   1.075
 3748SOL     OW14577   3.162   5.440   1.046
 3748SOL    HW114578   3.244   5.490   1.017
 3748SOL    HW214579   3.186   5.375   1.118
 3749SOL     OW14580   1.833   4.960   1.044
 3749SOL    HW114581   1.868   5.031   1.105
 3749SOL    HW214582   1.901   4.888   1.034
 3750SOL     OW14583   2.506   5.357   1.718
 3750SOL    HW114584   2.459   5.445   1.727
 3750SOL    HW214585   2.536   5.344   1.624
 3751SOL     OW14586   3.262   5.340   0.504
 3751SOL    HW114587   3.314   5.398   0.442
 3751SOL    HW214588   3.185   5.391   0.541
 3752SOL     OW14589   2.126   5.527   1.813
 3752SOL    HW114590   2.067   5.450   1.839
 3752SOL    HW214591   2.141   5.586   1.893
 3753SOL     OW14592   3.181   4.662   0.663
 3753SOL    HW114593   3.242   4.586   0.639
 3753SOL    HW214594   3.214   4.746   0.620
 3754SOL     OW14595   2.574   5.263   0.152
 3754SOL    HW114596   2.573   5.326   0.074
 3754SOL    HW214597   2.640   5.191   0.136
 3755SOL     OW14598   3.650   5.436   1.358
 3755SOL    HW114599   3.636   5.455   1.261
 3755SOL    HW214600   3.641   5.521   1.410
 3756SOL     OW14601   3.595   3.976   1.072
 3756SOL    HW114602   3.619   4.070   1.048
 3756SOL    HW214603   3.513   3.949   1.022
 3757SOL     OW14604   2.077   3.999   0.714
 3757SOL    HW114605   1.989   4.035   0.682
 3757SOL    HW214606   2.075   3.993   0.814
 3758SOL     OW14607   3.121   5.374   6.474
 3758SOL    HW114608   3.064   5.291   6.468
 3758SOL    HW214609   3.109   5.428   6.390
 3759SOL     OW14610   2.774   4.399   0.131
 3759SOL    HW114611   2.831   4.481   0.117
 3759SOL    HW214612   2.806   4.350   0.212
 3760SOL     OW14613   3.376   5.433   0.075
 3760SOL    HW114614   3.291   5.396   0.037
 3760SOL    HW214615   3.454   5.400   0.021
 3761SOL     OW14616   2.282   5.048   1.548
 3761SOL    HW114617   2.264   5.058   1.450
 3761SOL    HW214618   2.212   5.096   1.600
 3762SOL     OW14619   1.992   4.678   1.838
 3762SOL    HW114620   1.899   4.643   1.850
 3762SOL    HW214621   2.056   4.615   1.881
 3763SOL     OW14622   2.549   3.953   1.450
 3763SOL    HW114623   2.592   3.864   1.430
 3763SOL    HW214624   2.593   3.993   1.530
 3764SOL     OW14625   1.827   3.851   0.288
 3764SOL    HW114626   1.783   3.894   0.209
 3764SOL    HW214627   1.925   3.843   0.272
 3765SOL     OW14628   2.484   4.595   1.424
 3765SOL    HW114629   2.524   4.681   1.391
 3765SOL    HW214630   2.552   4.522   1.417
 3766SOL     OW14631   3.391   5.571   0.983
 3766SOL    HW114632   3.399   5.671   0.989
 3766SOL    HW214633   3.473   5.529   1.021
 3767SOL     OW14634   2.533   4.295   1.662
 3767SOL    HW114635   2.573   4.333   1.746
 3767SOL    HW214636   2.542   4.195   1.664
 3768SOL     OW14637   3.396   4.971   1.593
 3768SOL    HW114638   3.382   5.034   1.670
 3768SOL    HW214639   3.487   4.985   1.555
 3769SOL     OW14640   2.221   5.378   1.477
 3769SOL    HW114641   2.171   5.461   1.500
 3769SOL    HW214642   2.208   5.311   1.550
 3770SOL     OW14643   3.475   4.704   1.149
 3770SOL    HW114644   3.463   4.605   1.162
 3770SOL    HW214645   3.387   4.750   1.157
 3771SOL     OW14646   3.590   4.135   1.561
 3771SOL    HW114647   3.558   4.191   1.484
 3771SOL    HW214648   3.518   4.070   1.587
 3772SOL     OW14649   3.574   4.739   1.407
 3772SOL    HW114650   3.602   4.833   1.430
 3772SOL    HW214651   3.551   4.735   1.310
 3773SOL     OW14652   2.809   4.643   0.911
 3773SOL    HW114653   2.852   4.557   0.883
 3773SOL    HW214654   2.867   4.719   0.882
 3774SOL     OW14655   2.921   4.615   0.060
 3774SOL    HW114656   2.939   4.702   0.106
 3774SOL    HW214657   3.007   4.570   0.038
 3775SOL     OW14658   3.693   5.303   0.808
 3775SOL    HW114659   3.626   5.302   0.735
 3775SOL    HW214660   3.656   5.254   0.888
 3776SOL     OW14661   2.108   4.930   1.858
 3776SOL    HW114662   2.056   4.845   1.846
 3776SOL    HW214663   2.110   4.954   1.955
 3777SOL     OW14664   3.627   3.812   1.282
 3777SOL    HW114665   3.639   3.721   1.244
 3777SOL    HW214666   3.616   3.878   1.208
 3778SOL     OW14667   2.298   4.124   0.618
 3778SOL    HW114668   2.326   4.084   0.530
 3778SOL    HW214669   2.221   4.072   0.655
 3779SOL     OW14670   3.597   5.194   1.046
 3779SOL    HW114671   3.502   5.162   1.039
 3779SOL    HW214672   3.639   5.154   1.127
 3780SOL     OW14673   2.171   4.267   1.354
 3780SOL    HW114674   2.230   4.212   1.413
 3780SOL    HW214675   2.164   4.225   1.264
 3781SOL     OW14676   2.626   5.336   0.628
 3781SOL    HW114677   2.641   5.365   0.534
 3781SOL    HW214678   2.565   5.257   0.629
 3782SOL     OW14679   2.878   3.694   1.055
 3782SOL    HW114680   2.864   3.642   0.970
 3782SOL    HW214681   2.969   3.674   1.091
 3783SOL     OW14682   3.336   3.728   0.148
 3783SOL    HW114683   3.375   3.640   0.124
 3783SOL    HW214684   3.270   3.756   0.079
 3784SOL     OW14685   3.139   4.172   0.785
 3784SOL    HW114686   3.052   4.171   0.737
 3784SOL    HW214687   3.133   4.116   0.868
 3785SOL     OW14688   3.354   3.887   0.940
 3785SOL    HW114689   3.266   3.912   0.980
 3785SOL    HW214690   3.388   3.961   0.883
 3786SOL     OW14691   2.694   5.391   0.361
 3786SOL    HW114692   2.647   5.336   0.292
 3786SOL    HW214693   2.721   5.479   0.321
 3787SOL     OW14694   2.114   3.971   2.879
 3787SOL    HW114695   2.155   3.943   2.966
 3787SOL    HW214696   2.016   3.986   2.891
 3788SOL     OW14697   2.422   5.000   3.097
 3788SOL    HW114698   2.368   4.980   3.015
 3788SOL    HW214699   2.438   5.099   3.103
 3789SOL     OW14700   3.440   5.323   2.535
 3789SOL    HW114701   3.406   5.229   2.535
 3789SOL    HW214702   3.402   5.372   2.456
 3790SOL     OW14703   3.422   4.179   2.000
 3790SOL    HW114704   3.492   4.215   1.938
 3790SOL    HW214705   3.459   4.172   2.092
 3791SOL     OW14706   2.742   4.435   3.705
 3791SOL    HW114707   2.702   4.507   3.762
 3791SOL    HW214708   2.765   4.474   3.615
 3792SOL     OW14709   2.564   4.873   3.689
 3792SOL    HW114710   2.616   4.953   3.718
 3792SOL    HW214711   2.483   4.902   3.638
 3793SOL     OW14712   2.229   5.014   2.884
 3793SOL    HW114713   2.133   5.018   2.912
 3793SOL    HW214714   2.255   5.100   2.842
 3794SOL     OW14715   3.323   5.239   3.109
 3794SOL    HW114716   3.369   5.322   3.141
 3794SOL    HW214717   3.225   5.254   3.105
 3795SOL     OW14718   2.343   4.108   3.265
 3795SOL    HW114719   2.418   4.044   3.278
 3795SOL    HW214720   2.257   4.066   3.297
 3796SOL     OW14721   2.090   5.592   2.254
 3796SOL    HW114722   2.117   5.615   2.347
 3796SOL    HW214723   2.143   5.514   2.222
 3797SOL     OW14724   2.920   5.001   3.676
 3797SOL    HW114725   2.981   4.998   3.756
 3797SOL    HW214726   2.894   4.908   3.651
 3798SOL     OW14727   2.481   5.503   3.268
 3798SOL    HW114728   2.416   5.482   3.341
 3798SOL    HW214729   2.459   5.592   3.228
 3799SOL     OW14730   3.435   3.843   3.311
 3799SOL    HW114731   3.511   3.859   3.247
 3799SOL    HW214732   3.466   3.863   3.404
 3800SOL     OW14733   2.013   4.471   2.390
 3800SOL    HW114734   1.960   4.405   2.336
 3800SOL    HW214735   1.976   4.474   2.483
 3801SOL     OW14736   3.716   5.457   2.236
 3801SOL    HW114737   3.806   5.434   2.271
 3801SOL    HW214738   3.717   5.550   2.199
 3802SOL     OW14739   3.543   4.614   2.572
 3802SOL    HW114740   3.637   4.614   2.606
 3802SOL    HW214741   3.488   4.678   2.626
 3803SOL     OW14742   2.089   4.385   3.431
 3803SOL    HW114743   2.179   4.423   3.453
 3803SOL    HW214744   2.021   4.459   3.432
 3804SOL     OW14745   2.545   4.994   2.520
 3804SOL    HW114746   2.527   4.912   2.573
 3804SOL    HW214747   2.474   5.006   2.451
 3805SOL     OW14748   2.063   4.731   3.134
 3805SOL    HW114749   2.138   4.669   3.111
 3805SOL    HW214750   1.977   4.681   3.136
 3806SOL     OW14751   2.982   5.384   3.468
 3806SOL    HW114752   3.075   5.358   3.445
 3806SOL    HW214753   2.926   5.302   3.482
 3807SOL     OW14754   2.306   3.947   3.709
 3807SOL    HW114755   2.338   4.020   3.769
 3807SOL    HW214756   2.240   3.890   3.758
 3808SOL     OW14757   3.624   5.523   2.491
 3808SOL    HW114758   3.661   5.491   2.404
 3808SOL    HW214759   3.555   5.457   2.523
 3809SOL     OW14760   2.550   4.279   3.330
 3809SOL    HW114761   2.556   4.294   3.428
 3809SOL    HW214762   2.470   4.224   3.309
 3810SOL     OW14763   3.284   4.148   3.598
 3810SOL    HW114764   3.275   4.197   3.685
 3810SOL    HW214765   3.356   4.191   3.543
 3811SOL     OW14766   2.779   4.547   3.448
 3811SOL    HW114767   2.842   4.474   3.423
 3811SOL    HW214768   2.750   4.596   3.366
 3812SOL     OW14769   2.877   4.002   2.977
 3812SOL    HW114770   2.822   4.058   3.039
 3812SOL    HW214771   2.847   3.907   2.982
 3813SOL     OW14772   2.864   4.375   2.289
 3813SOL    HW114773   2.828   4.467   2.277
 3813SOL    HW214774   2.791   4.308   2.273
 3814SOL     OW14775   1.908   4.649   2.728
 3814SOL    HW114776   2.001   4.624   2.754
 3814SOL    HW214777   1.865   4.699   2.803
 3815SOL     OW14778   2.064   5.585   3.405
 3815SOL    HW114779   2.006   5.600   3.485
 3815SOL    HW214780   2.028   5.509   3.352
 3816SOL     OW14781   2.715   4.009   2.019
 3816SOL    HW114782   2.774   4.063   1.958
 3816SOL    HW214783   2.667   3.939   1.965
 3817SOL     OW14784   3.581   4.354   3.705
 3817SOL    HW114785   3.576   4.451   3.680
 3817SOL    HW214786   3.568   4.298   3.623
 3818SOL     OW14787   3.189   4.924   2.243
 3818SOL    HW114788   3.287   4.917   2.229
 3818SOL    HW214789   3.165   5.017   2.271
 3819SOL     OW14790   2.230   5.495   2.738
 3819SOL    HW114791   2.270   5.403   2.741
 3819SOL    HW214792   2.299   5.562   2.763
 3820SOL     OW14793   2.173   4.701   2.130
 3820SOL    HW114794   2.212   4.659   2.049
 3820SOL    HW214795   2.077   4.673   2.140
 3821SOL     OW14796   2.341   4.969   3.555
 3821SOL    HW114797   2.269   5.036   3.537
 3821SOL    HW214798   2.302   4.877   3.558
 3822SOL     OW14799   2.985   5.550   2.091
 3822SOL    HW114800   2.885   5.545   2.091
 3822SOL    HW214801   3.021   5.492   2.017
 3823SOL     OW14802   2.106   3.982   3.336
 3823SOL    HW114803   2.021   4.034   3.325
 3823SOL    HW214804   2.090   3.904   3.396
 3824SOL     OW14805   2.298   5.420   2.171
 3824SOL    HW114806   2.342   5.497   2.218
 3824SOL    HW214807   2.354   5.393   2.093
 3825SOL     OW14808   3.251   3.784   2.304
 3825SOL    HW114809   3.250   3.779   2.205
 3825SOL    HW214810   3.345   3.779   2.338
 3826SOL     OW14811   2.157   5.460   3.060
 3826SOL    HW114812   2.184   5.372   3.098
 3826SOL    HW214813   2.100   5.445   2.979
 3827SOL     OW14814   2.757   5.434   2.678
 3827SOL    HW114815   2.809   5.355   2.709
 3827SOL    HW214816   2.681   5.403   2.620
 3828SOL     OW14817   2.269   4.393   2.471
 3828SOL    HW114818   2.280   4.297   2.447
 3828SOL    HW214819   2.181   4.427   2.437
 3829SOL     OW14820   3.479   3.942   3.568
 3829SOL    HW114821   3.522   3.916   3.655
 3829SOL    HW214822   3.393   3.989   3.586
 3830SOL     OW14823   2.555   3.831   1.846
 3830SOL    HW114824   2.539   3.764   1.919
 3830SOL    HW214825   2.468   3.850   1.800
 3831SOL     OW14826   2.550   4.038   3.586
 3831SOL    HW114827   2.637   3.990   3.597
 3831SOL    HW214828   2.477   3.984   3.628
 3832SOL     OW14829   2.674   5.207   2.997
 3832SOL    HW114830   2.665   5.177   2.902
 3832SOL    HW214831   2.755   5.165   3.038
 3833SOL     OW14832   2.646   5.138   2.730
 3833SOL    HW114833   2.743   5.152   2.712
 3833SOL    HW214834   2.604   5.089   2.654
 3834SOL     OW14835   2.391   3.856   2.414
 3834SOL    HW114836   2.296   3.826   2.426
 3834SOL    HW214837   2.453   3.785   2.445
 3835SOL     OW14838   3.205   5.022   1.874
 3835SOL    HW114839   3.287   5.054   1.923
 3835SOL    HW214840   3.183   4.929   1.903
 3836SOL     OW14841   2.951   4.343   3.403
 3836SOL    HW114842   2.961   4.259   3.456
 3836SOL    HW214843   3.025   4.350   3.337
 3837SOL     OW14844   3.121   5.326   2.566
 3837SOL    HW114845   3.107   5.419   2.534
 3837SOL    HW214846   3.211   5.318   2.609
 3838SOL     OW14847   3.101   5.574   2.446
 3838SOL    HW114848   3.110   5.632   2.365
 3838SOL    HW214849   3.027   5.609   2.503
 3839SOL     OW14850   2.845   4.203   1.865
 3839SOL    HW114851   2.776   4.275   1.872
 3839SOL    HW214852   2.914   4.215   1.936
 3840SOL     OW14853   2.023   4.280   3.186
 3840SOL    HW114854   2.107   4.269   3.133
 3840SOL    HW214855   2.045   4.316   3.277
 3841SOL     OW14856   2.464   3.794   3.123
 3841SOL    HW114857   2.508   3.856   3.188
 3841SOL    HW214858   2.371   3.826   3.103
 3842SOL     OW14859   2.837   3.868   2.408
 3842SOL    HW114860   2.934   3.890   2.418
 3842SOL    HW214861   2.782   3.948   2.434
 3843SOL     OW14862   2.398   5.050   1.997
 3843SOL    HW114863   2.310   5.028   2.038
 3843SOL    HW214864   2.407   5.003   1.909
 3844SOL     OW14865   3.248   4.383   2.023
 3844SOL    HW114866   3.157   4.353   2.052
 3844SOL    HW214867   3.307   4.303   2.012
 3845SOL     OW14868   3.551   4.917   3.355
 3845SOL    HW114869   3.650   4.916   3.343
 3845SOL    HW214870   3.528   4.963   3.441
 3846SOL     OW14871   2.891   5.095   3.149
 3846SOL    HW114872   2.819   5.055   3.205
 3846SOL    HW214873   2.963   5.028   3.134
 3847SOL     OW14874   3.614   5.462   3.412
 3847SOL    HW114875   3.553   5.445   3.334
 3847SOL    HW214876   3.662   5.377   3.435
 3848SOL     OW14877   3.448   4.783   2.961
 3848SOL    HW114878   3.417   4.842   3.035
 3848SOL    HW214879   3.506   4.711   2.998
 3849SOL     OW14880   2.786   3.803   3.243
 3849SOL    HW114881   2.793   3.779   3.146
 3849SOL    HW214882   2.872   3.843   3.274
 3850SOL     OW14883   2.804   4.762   3.610
 3850SOL    HW114884   2.711   4.795   3.624
 3850SOL    HW214885   2.803   4.687   3.544
 3851SOL     OW14886   2.259   4.541   3.081
 3851SOL    HW114887   2.335   4.560   3.143
 3851SOL    HW214888   2.251   4.443   3.066
 3852SOL     OW14889   1.980   5.364   3.279
 3852SOL    HW114890   1.926   5.392   3.200
 3852SOL    HW214891   2.054   5.304   3.250
 3853SOL     OW14892   3.536   4.425   2.368
 3853SOL    HW114893   3.524   4.484   2.448
 3853SOL    HW214894   3.487   4.464   2.290
 3854SOL     OW14895   2.192   5.202   3.186
 3854SOL    HW114896   2.178   5.115   3.138
 3854SOL    HW214897   2.288   5.228   3.181
 3855SOL     OW14898   2.334   4.487   3.499
 3855SOL    HW114899   2.380   4.515   3.414
 3855SOL    HW214900   2.393   4.426   3.550
 3856SOL     OW14901   3.535   4.612   3.601
 3856SOL    HW114902   3.436   4.615   3.616
 3856SOL    HW214903   3.553   4.608   3.503
 3857SOL     OW14904   2.796   3.923   3.567
 3857SOL    HW114905   2.873   3.988   3.567
 3857SOL    HW214906   2.819   3.843   3.512
 3858SOL     OW14907   2.429   3.714   3.621
 3858SOL    HW114908   2.375   3.666   3.552
 3858SOL    HW214909   2.379   3.794   3.653
 3859SOL     OW14910   3.012   4.251   2.088
 3859SOL    HW114911   3.074   4.186   2.132
 3859SOL    HW214912   2.961   4.301   2.159
 3860SOL     OW14913   2.200   3.851   3.108
 3860SOL    HW114914   2.160   3.894   3.189
 3860SOL    HW214915   2.172   3.756   3.103
 3861SOL     OW14916   3.614   4.874   3.676
 3861SOL    HW114917   3.599   4.778   3.654
 3861SOL    HW214918   3.528   4.924   3.669
 3862SOL     OW14919   2.112   3.835   2.454
 3862SOL    HW114920   2.123   3.922   2.502
 3862SOL    HW214921   2.048   3.777   2.505
 3863SOL     OW14922   3.471   4.169   2.272
 3863SOL    HW114923   3.524   4.096   2.314
 3863SOL    HW214924   3.486   4.255   2.322
 3864SOL     OW14925   2.822   5.176   3.499
 3864SOL    HW114926   2.724   5.160   3.492
 3864SOL    HW214927   2.863   5.110   3.562
 3865SOL     OW14928   3.778   5.243   3.430
 3865SOL    HW114929   3.801   5.249   3.333
 3865SOL    HW214930   3.861   5.254   3.484
 3866SOL     OW14931   2.217   4.724   3.576
 3866SOL    HW114932   2.193   4.729   3.673
 3866SOL    HW214933   2.261   4.637   3.556
 3867SOL     OW14934   3.303   3.959   1.884
 3867SOL    HW114935   3.278   3.888   1.950
 3867SOL    HW214936   3.338   4.039   1.933
 3868SOL     OW14937   3.125   4.756   1.909
 3868SOL    HW114938   3.124   4.686   1.981
 3868SOL    HW214939   3.184   4.725   1.834
 3869SOL     OW14940   2.913   5.174   2.679
 3869SOL    HW114941   2.943   5.080   2.692
 3869SOL    HW214942   2.988   5.228   2.642
 3870SOL     OW14943   2.154   4.595   2.825
 3870SOL    HW114944   2.190   4.675   2.777
 3870SOL    HW214945   2.205   4.581   2.909
 3871SOL     OW14946   3.015   4.103   3.555
 3871SOL    HW114947   2.970   4.142   3.636
 3871SOL    HW214948   3.114   4.113   3.564
 3872SOL     OW14949   3.014   3.908   3.344
 3872SOL    HW114950   3.016   3.978   3.414
 3872SOL    HW214951   3.093   3.919   3.283
 3873SOL     OW14952   1.829   5.103   1.928
 3873SOL    HW114953   1.732   5.101   1.903
 3873SOL    HW214954   1.849   5.026   1.989
 3874SOL     OW14955   2.327   5.233   2.740
 3874SOL    HW114956   2.426   5.221   2.733
 3874SOL    HW214957   2.286   5.230   2.649
 3875SOL     OW14958   1.884   4.392   2.978
 3875SOL    HW114959   1.946   4.413   2.903
 3875SOL    HW214960   1.934   4.345   3.051
 3876SOL     OW14961   2.123   4.202   3.640
 3876SOL    HW114962   2.189   4.131   3.614
 3876SOL    HW214963   2.107   4.262   3.562
 3877SOL     OW14964   2.663   4.185   2.222
 3877SOL    HW114965   2.700   4.118   2.157
 3877SOL    HW214966   2.565   4.198   2.204
 3878SOL     OW14967   3.539   4.305   3.016
 3878SOL    HW114968   3.561   4.274   3.109
 3878SOL    HW214969   3.547   4.228   2.953
 3879SOL     OW14970   2.760   5.517   3.351
 3879SOL    HW114971   2.676   5.473   3.319
 3879SOL    HW214972   2.826   5.447   3.378
 3880SOL     OW14973   2.052   4.833   3.388
 3880SOL    HW114974   2.118   4.792   3.452
 3880SOL    HW214975   2.071   4.800   3.296
 3881SOL     OW14976   3.671   5.443   2.991
 3881SOL    HW114977   3.687   5.488   2.904
 3881SOL    HW214978   3.636   5.350   2.976
 3882SOL     OW14979   1.970   4.957   3.001
 3882SOL    HW114980   2.017   4.886   3.053
 3882SOL    HW214981   1.899   4.915   2.945
 3883SOL     OW14982   2.611   5.438   3.598
 3883SOL    HW114983   2.533   5.498   3.614
 3883SOL    HW214984   2.679   5.487   3.542
 3884SOL     OW14985   3.632   3.967   2.379
 3884SOL    HW114986   3.695   3.967   2.301
 3884SOL    HW214987   3.590   3.877   2.387
 3885SOL     OW14988   3.301   5.424   2.327
 3885SOL    HW114989   3.261   5.374   2.250
 3885SOL    HW214990   3.232   5.484   2.368
 3886SOL     OW14991   1.929   5.626   3.631
 3886SOL    HW114992   1.971   5.563   3.696
 3886SOL    HW214993   1.932   5.719   3.668
 3887SOL     OW14994   2.646   4.982   3.265
 3887SOL    HW114995   2.620   5.038   3.343
 3887SOL    HW214996   2.570   4.979   3.200
 3888SOL     OW14997   2.472   5.318   1.988
 3888SOL    HW114998   2.482   5.339   1.891
 3888SOL    HW214999   2.457   5.220   2.000
 3889SOL     OW15000   3.460   5.470   3.176
 3889SOL    HW115001   3.533   5.474   3.109
 3889SOL    HW215002   3.443   5.561   3.214
 3890SOL     OW15003   2.131   4.069   2.608
 3890SOL    HW115004   2.031   4.063   2.605
 3890SOL    HW215005   2.162   4.062   2.703
 3891SOL     OW15006   3.060   5.405   1.876
 3891SOL    HW115007   3.053   5.315   1.833
 3891SOL    HW215008   3.057   5.476   1.806
 3892SOL     OW15009   2.682   4.706   3.239
 3892SOL    HW115010   2.686   4.691   3.140
 3892SOL    HW215011   2.680   4.804   3.258
 3893SOL     OW15012   2.115   5.093   3.442
 3893SOL    HW115013   2.149   5.137   3.359
 3893SOL    HW215014   2.085   5.000   3.420
 3894SOL     OW15015   3.359   4.970   3.161
 3894SOL    HW115016   3.424   4.951   3.235
 3894SOL    HW215017   3.349   5.068   3.149
 3895SOL     OW15018   2.392   5.217   2.328
 3895SOL    HW115019   2.466   5.165   2.285
 3895SOL    HW215020   2.363   5.289   2.265
 3896SOL     OW15021   3.628   4.151   3.230
 3896SOL    HW115022   3.723   4.180   3.220
 3896SOL    HW215023   3.616   4.061   3.189
 3897SOL     OW15024   2.147   5.021   2.127
 3897SOL    HW115025   2.146   5.118   2.150
 3897SOL    HW215026   2.177   4.968   2.207
 3898SOL     OW15027   2.563   3.953   3.320
 3898SOL    HW115028   2.652   3.913   3.297
 3898SOL    HW215029   2.565   3.987   3.414
 3899SOL     OW15030   3.294   4.497   3.386
 3899SOL    HW115031   3.246   4.433   3.325
 3899SOL    HW215032   3.376   4.531   3.342
 3900SOL     OW15033   2.086   3.751   2.183
 3900SOL    HW115034   2.101   3.787   2.276
 3900SOL    HW215035   2.139   3.806   2.118
 3901SOL     OW15036   2.468   4.535   3.264
 3901SOL    HW115037   2.540   4.605   3.256
 3901SOL    HW215038   2.510   4.445   3.274
 3902SOL     OW15039   2.520   4.308   3.601
 3902SOL    HW115040   2.598   4.350   3.649
 3902SOL    HW215041   2.529   4.208   3.605
 3903SOL     OW15042   2.296   5.437   3.455
 3903SOL    HW115043   2.205   5.475   3.441
 3903SOL    HW215044   2.292   5.367   3.527
 3904SOL     OW15045   3.616   4.581   3.067
 3904SOL    HW115046   3.596   4.488   3.037
 3904SOL    HW215047   3.714   4.591   3.081
 3905SOL     OW15048   3.186   4.112   2.246
 3905SOL    HW115049   3.282   4.134   2.263
 3905SOL    HW215050   3.149   4.063   2.325
 3906SOL     OW15051   2.487   4.525   2.565
 3906SOL    HW115052   2.521   4.565   2.480
 3906SOL    HW215053   2.399   4.481   2.548
 3907SOL     OW15054   3.537   4.196   3.484
 3907SOL    HW115055   3.570   4.199   3.389
 3907SOL    HW215056   3.537   4.101   3.516
 3908SOL     OW15057   3.527   4.641   3.320
 3908SOL    HW115058   3.528   4.741   3.330
 3908SOL    HW215059   3.560   4.617   3.229
 3909SOL     OW15060   2.866   4.871   1.974
 3909SOL    HW115061   2.788   4.862   1.912
 3909SOL    HW215062   2.945   4.825   1.934
 3910SOL     OW15063   3.639   5.200   2.689
 3910SOL    HW115064   3.576   5.256   2.635
 3910SOL    HW215065   3.611   5.200   2.785
 3911SOL     OW15066   2.551   5.141   3.489
 3911SOL    HW115067   2.472   5.084   3.508
 3911SOL    HW215068   2.533   5.235   3.517
 3912SOL     OW15069   3.596   3.914   3.091
 3912SOL    HW115070   3.592   3.823   3.051
 3912SOL    HW215071   3.583   3.983   3.019
 3913SOL     OW15072   2.305   4.117   2.402
 3913SOL    HW115073   2.356   4.031   2.401
 3913SOL    HW215074   2.237   4.115   2.475
 3914SOL     OW15075   3.565   5.190   2.958
 3914SOL    HW115076   3.476   5.194   3.002
 3914SOL    HW215077   3.620   5.118   3.000
 3915SOL     OW15078   2.260   4.266   3.053
 3915SOL    HW115079   2.296   4.208   3.126
 3915SOL    HW215080   2.316   4.256   2.971
 3916SOL     OW15081   2.562   5.369   2.502
 3916SOL    HW115082   2.602   5.433   2.437
 3916SOL    HW215083   2.507   5.302   2.452
 3917SOL     OW15084   3.307   3.976   2.936
 3917SOL    HW115085   3.283   3.964   3.032
 3917SOL    HW215086   3.223   3.978   2.881
 3918SOL     OW15087   2.812   3.730   2.974
 3918SOL    HW115088   2.731   3.700   2.924
 3918SOL    HW215089   2.893   3.686   2.935
 3919SOL     OW15090   2.583   5.081   2.199
 3919SOL    HW115091   2.531   5.053   2.118
 3919SOL    HW215092   2.680   5.082   2.177
 3920SOL     OW15093   2.451   5.272   3.129
 3920SOL    HW115094   2.462   5.358   3.179
 3920SOL    HW215095   2.534   5.254   3.076
 3921SOL     OW15096   3.267   3.720   2.035
 3921SOL    HW115097   3.356   3.690   2.002
 3921SOL    HW215098   3.198   3.651   2.013
 3922SOL     OW15099   1.890   4.902   2.113
 3922SOL    HW115100   1.978   4.945   2.129
 3922SOL    HW215101   1.897   4.803   2.130
 3923SOL     OW15102   2.694   5.492   2.067
 3923SOL    HW115103   2.637   5.413   2.043
 3923SOL    HW215104   2.684   5.511   2.165
 3924SOL     OW15105   2.201   4.328   3.880
 3924SOL    HW115106   2.128   4.381   3.925
 3924SOL    HW215107   2.166   4.289   3.795
 3925SOL     OW15108   2.173   4.035   4.714
 3925SOL    HW115109   2.259   3.983   4.714
 3925SOL    HW215110   2.105   3.986   4.768
 3926SOL     OW15111   2.274   5.024   4.877
 3926SOL    HW115112   2.218   4.997   4.799
 3926SOL    HW215113   2.358   5.068   4.845
 3927SOL     OW15114   2.957   4.357   4.394
 3927SOL    HW115115   3.022   4.429   4.369
 3927SOL    HW215116   2.864   4.389   4.378
 3928SOL     OW15117   3.669   4.263   3.943
 3928SOL    HW115118   3.635   4.289   3.853
 3928SOL    HW215119   3.610   4.192   3.982
 3929SOL     OW15120   2.756   4.839   4.667
 3929SOL    HW115121   2.714   4.801   4.750
 3929SOL    HW215122   2.850   4.865   4.687
 3930SOL     OW15123   2.555   4.770   4.383
 3930SOL    HW115124   2.642   4.730   4.411
 3930SOL    HW215125   2.486   4.699   4.375
 3931SOL     OW15126   2.252   3.917   5.216
 3931SOL    HW115127   2.335   3.927   5.271
 3931SOL    HW215128   2.174   3.902   5.276
 3932SOL     OW15129   3.334   4.087   4.372
 3932SOL    HW115130   3.239   4.093   4.404
 3932SOL    HW215131   3.351   4.159   4.305
 3933SOL     OW15132   2.224   5.434   4.121
 3933SOL    HW115133   2.304   5.486   4.152
 3933SOL    HW215134   2.141   5.489   4.133
 3934SOL     OW15135   2.919   4.958   5.344
 3934SOL    HW115136   3.004   4.912   5.371
 3934SOL    HW215137   2.842   4.896   5.354
 3935SOL     OW15138   2.110   4.713   4.716
 3935SOL    HW115139   2.199   4.675   4.690
 3935SOL    HW215140   2.108   4.811   4.695
 3936SOL     OW15141   2.329   5.594   5.171
 3936SOL    HW115142   2.299   5.542   5.091
 3936SOL    HW215143   2.269   5.573   5.248
 3937SOL     OW15144   2.598   4.638   3.839
 3937SOL    HW115145   2.571   4.712   3.778
 3937SOL    HW215146   2.655   4.674   3.913
 3938SOL     OW15147   3.522   3.902   5.162
 3938SOL    HW115148   3.459   3.972   5.126
 3938SOL    HW215149   3.505   3.890   5.260
 3939SOL     OW15150   1.919   4.445   4.229
 3939SOL    HW115151   1.879   4.354   4.220
 3939SOL    HW215152   1.975   4.449   4.312
 3940SOL     OW15153   3.736   5.487   4.058
 3940SOL    HW115154   3.818   5.478   4.114
 3940SOL    HW215155   3.733   5.578   4.017
 3941SOL     OW15156   3.525   4.651   4.307
 3941SOL    HW115157   3.560   4.593   4.233
 3941SOL    HW215158   3.574   4.738   4.306
 3942SOL     OW15159   3.682   4.876   4.277
 3942SOL    HW115160   3.710   4.922   4.193
 3942SOL    HW215161   3.748   4.894   4.349
 3943SOL     OW15162   2.588   5.044   4.590
 3943SOL    HW115163   2.652   4.968   4.600
 3943SOL    HW215164   2.520   5.023   4.520
 3944SOL     OW15165   2.701   3.762   4.340
 3944SOL    HW115166   2.760   3.799   4.269
 3944SOL    HW215167   2.605   3.771   4.313
 3945SOL     OW15168   1.966   4.659   4.944
 3945SOL    HW115169   2.018   4.679   4.861
 3945SOL    HW215170   1.870   4.678   4.929
 3946SOL     OW15171   2.183   3.988   5.579
 3946SOL    HW115172   2.275   4.006   5.616
 3946SOL    HW215173   2.115   4.021   5.644
 3947SOL     OW15174   3.704   5.507   4.347
 3947SOL    HW115175   3.645   5.497   4.267
 3947SOL    HW215176   3.688   5.596   4.390
 3948SOL     OW15177   2.477   4.401   3.922
 3948SOL    HW115178   2.509   4.490   3.889
 3948SOL    HW215179   2.377   4.395   3.910
 3949SOL     OW15180   3.465   5.433   4.051
 3949SOL    HW115181   3.564   5.452   4.047
 3949SOL    HW215182   3.421   5.468   3.968
 3950SOL     OW15183   1.984   4.506   4.575
 3950SOL    HW115184   2.032   4.426   4.609
 3950SOL    HW215185   2.018   4.588   4.620
 3951SOL     OW15186   2.735   4.018   3.899
 3951SOL    HW115187   2.795   4.071   3.840
 3951SOL    HW215188   2.705   3.935   3.852
 3952SOL     OW15189   3.607   4.379   5.545
 3952SOL    HW115190   3.592   4.448   5.474
 3952SOL    HW215191   3.568   4.292   5.514
 3953SOL     OW15192   2.204   5.541   4.582
 3953SOL    HW115193   2.248   5.463   4.625
 3953SOL    HW215194   2.262   5.622   4.591
 3954SOL     OW15195   3.376   4.460   4.419
 3954SOL    HW115196   3.399   4.437   4.514
 3954SOL    HW215197   3.433   4.536   4.389
 3955SOL     OW15198   2.850   5.596   3.952
 3955SOL    HW115199   2.785   5.602   4.027
 3955SOL    HW215200   2.820   5.527   3.886
 3956SOL     OW15201   2.245   5.451   4.958
 3956SOL    HW115202   2.212   5.363   4.993
 3956SOL    HW215203   2.286   5.438   4.868
 3957SOL     OW15204   2.842   5.375   4.709
 3957SOL    HW115205   2.936   5.387   4.741
 3957SOL    HW215206   2.831   5.284   4.670
 3958SOL     OW15207   3.430   3.867   5.435
 3958SOL    HW115208   3.442   3.856   5.534
 3958SOL    HW215209   3.353   3.812   5.404
 3959SOL     OW15210   2.629   3.769   3.806
 3959SOL    HW115211   2.691   3.691   3.815
 3959SOL    HW215212   2.561   3.750   3.735
 3960SOL     OW15213   2.767   4.141   4.539
 3960SOL    HW115214   2.748   4.145   4.441
 3960SOL    HW215215   2.754   4.047   4.572
 3961SOL     OW15216   2.448   3.805   4.260
 3961SOL    HW115217   2.357   3.802   4.300
 3961SOL    HW215218   2.441   3.835   4.165
 3962SOL     OW15219   2.205   3.774   3.904
 3962SOL    HW115220   2.295   3.805   3.935
 3962SOL    HW215221   2.152   3.742   3.983
 3963SOL     OW15222   2.823   3.917   4.146
 3963SOL    HW115223   2.790   3.945   4.055
 3963SOL    HW215224   2.919   3.942   4.155
 3964SOL     OW15225   3.017   5.154   4.607
 3964SOL    HW115226   3.022   5.182   4.511
 3964SOL    HW215227   3.059   5.224   4.665
 3965SOL     OW15228   2.895   4.209   3.775
 3965SOL    HW115229   2.848   4.295   3.759
 3965SOL    HW215230   2.955   4.218   3.855
 3966SOL     OW15231   2.692   4.127   4.275
 3966SOL    HW115232   2.689   4.185   4.194
 3966SOL    HW215233   2.728   4.037   4.250
 3967SOL     OW15234   3.266   4.287   3.831
 3967SOL    HW115235   3.204   4.246   3.897
 3967SOL    HW215236   3.341   4.332   3.880
 3968SOL     OW15237   2.445   3.877   3.990
 3968SOL    HW115238   2.521   3.840   3.937
 3968SOL    HW215239   2.434   3.974   3.969
 3969SOL     OW15240   3.625   4.999   5.272
 3969SOL    HW115241   3.704   4.941   5.257
 3969SOL    HW215242   3.655   5.093   5.290
 3970SOL     OW15243   3.455   5.367   5.344
 3970SOL    HW115244   3.429   5.421   5.264
 3970SOL    HW215245   3.546   5.328   5.330
 3971SOL     OW15246   2.915   4.910   4.962
 3971SOL    HW115247   2.973   4.964   5.023
 3971SOL    HW215248   2.951   4.914   4.869
 3972SOL     OW15249   2.281   4.375   4.994
 3972SOL    HW115250   2.279   4.377   4.894
 3972SOL    HW215251   2.255   4.285   5.027
 3973SOL     OW15252   1.902   5.294   5.059
 3973SOL    HW115253   1.865   5.356   4.991
 3973SOL    HW215254   2.000   5.284   5.045
 3974SOL     OW15255   3.367   4.309   4.195
 3974SOL    HW115256   3.371   4.354   4.284
 3974SOL    HW215257   3.366   4.377   4.122
 3975SOL     OW15258   2.166   5.208   5.047
 3975SOL    HW115259   2.195   5.137   4.982
 3975SOL    HW215260   2.193   5.180   5.140
 3976SOL     OW15261   2.237   4.446   5.411
 3976SOL    HW115262   2.246   4.490   5.322
 3976SOL    HW215263   2.299   4.368   5.416
 3977SOL     OW15264   3.562   4.551   5.338
 3977SOL    HW115265   3.486   4.615   5.336
 3977SOL    HW215266   3.647   4.601   5.353
 3978SOL     OW15267   2.348   3.660   5.402
 3978SOL    HW115268   2.263   3.643   5.451
 3978SOL    HW215269   2.366   3.759   5.398
 3979SOL     OW15270   3.067   4.203   3.999
 3979SOL    HW115271   3.071   4.129   4.066
 3979SOL    HW215272   3.069   4.291   4.046
 3980SOL     OW15273   2.254   3.815   4.964
 3980SOL    HW115274   2.266   3.837   5.061
 3980SOL    HW215275   2.158   3.825   4.939
 3981SOL     OW15276   1.886   5.029   4.967
 3981SOL    HW115277   1.917   4.964   5.036
 3981SOL    HW215278   1.883   5.121   5.005
 3982SOL     OW15279   2.197   3.782   4.379
 3982SOL    HW115280   2.145   3.863   4.404
 3982SOL    HW215281   2.211   3.725   4.461
 3983SOL     OW15282   3.510   4.098   4.091
 3983SOL    HW115283   3.507   4.019   4.152
 3983SOL    HW215284   3.456   4.172   4.130
 3984SOL     OW15285   2.724   4.394   4.624
 3984SOL    HW115286   2.780   4.422   4.702
 3984SOL    HW215287   2.755   4.304   4.592
 3985SOL     OW15288   2.873   5.199   5.462
 3985SOL    HW115289   2.831   5.266   5.401
 3985SOL    HW215290   2.886   5.113   5.412
 3986SOL     OW15291   3.712   5.262   5.291
 3986SOL    HW115292   3.726   5.290   5.196
 3986SOL    HW215293   3.797   5.276   5.342
 3987SOL     OW15294   2.251   4.715   5.511
 3987SOL    HW115295   2.334   4.722   5.566
 3987SOL    HW215296   2.233   4.618   5.492
 3988SOL     OW15297   3.137   4.527   3.790
 3988SOL    HW115298   3.175   4.435   3.791
 3988SOL    HW215299   3.177   4.578   3.714
 3989SOL     OW15300   3.020   4.900   4.706
 3989SOL    HW115301   3.040   4.836   4.632
 3989SOL    HW215302   3.027   4.994   4.672
 3990SOL     OW15303   2.271   4.298   4.727
 3990SOL    HW115304   2.226   4.210   4.714
 3990SOL    HW215305   2.370   4.285   4.732
 3991SOL     OW15306   1.926   5.559   4.563
 3991SOL    HW115307   1.895   5.488   4.501
 3991SOL    HW215308   2.025   5.550   4.577
 3992SOL     OW15309   2.379   5.381   4.727
 3992SOL    HW115310   2.455   5.444   4.739
 3992SOL    HW215311   2.410   5.288   4.746
 3993SOL     OW15312   2.839   4.533   4.843
 3993SOL    HW115313   2.876   4.536   4.935
 3993SOL    HW215314   2.758   4.592   4.838
 3994SOL     OW15315   2.027   4.288   5.529
 3994SOL    HW115316   2.098   4.346   5.490
 3994SOL    HW215317   1.938   4.332   5.517
 3995SOL     OW15318   3.336   4.698   5.301
 3995SOL    HW115319   3.283   4.782   5.313
 3995SOL    HW215320   3.286   4.636   5.241
 3996SOL     OW15321   2.678   4.260   4.036
 3996SOL    HW115322   2.693   4.175   3.986
 3996SOL    HW215323   2.599   4.308   3.998
 3997SOL     OW15324   2.056   5.210   5.465
 3997SOL    HW115325   2.065   5.294   5.517
 3997SOL    HW215326   2.070   5.131   5.525
 3998SOL     OW15327   2.755   5.360   5.278
 3998SOL    HW115328   2.717   5.294   5.212
 3998SOL    HW215329   2.806   5.430   5.228
 3999SOL     OW15330   2.392   4.130   3.888
 3999SOL    HW115331   2.467   4.195   3.876
 3999SOL    HW215332   2.308   4.180   3.910
 4000SOL     OW15333   1.972   4.842   5.158
 4000SOL    HW115334   2.058   4.844   5.209
 4000SOL    HW215335   1.976   4.770   5.088
 4001SOL     OW15336   3.128   4.731   4.944
 4001SOL    HW115337   3.144   4.769   4.852
 4001SOL    HW215338   3.039   4.763   4.978
 4002SOL     OW15339   3.080   4.473   4.060
 4002SOL    HW115340   2.980   4.477   4.068
 4002SOL    HW215341   3.107   4.506   3.969
 4003SOL     OW15342   3.590   5.501   4.893
 4003SOL    HW115343   3.661   5.502   4.824
 4003SOL    HW215344   3.551   5.409   4.900
 4004SOL     OW15345   3.113   5.357   4.764
 4004SOL    HW115346   3.186   5.401   4.711
 4004SOL    HW215347   3.138   5.358   4.861
 4005SOL     OW15348   1.879   5.021   4.696
 4005SOL    HW115349   1.881   5.020   4.796
 4005SOL    HW215350   1.841   4.935   4.663
 4006SOL     OW15351   2.563   5.384   5.499
 4006SOL    HW115352   2.500   5.460   5.487
 4006SOL    HW215353   2.637   5.391   5.431
 4007SOL     OW15354   3.550   3.839   4.233
 4007SOL    HW115355   3.626   3.837   4.167
 4007SOL    HW215356   3.545   3.752   4.281
 4008SOL     OW15357   2.061   5.457   5.605
 4008SOL    HW115358   1.995   5.397   5.651
 4008SOL    HW215359   2.103   5.518   5.673
 4009SOL     OW15360   3.137   4.547   4.317
 4009SOL    HW115361   3.226   4.515   4.350
 4009SOL    HW215362   3.128   4.526   4.220
 4010SOL     OW15363   3.388   5.521   5.115
 4010SOL    HW115364   3.466   5.530   5.054
 4010SOL    HW215365   3.364   5.611   5.152
 4011SOL     OW15366   2.680   4.863   5.092
 4011SOL    HW115367   2.769   4.866   5.047
 4011SOL    HW215368   2.650   4.956   5.115
 4012SOL     OW15369   2.238   5.110   5.294
 4012SOL    HW115370   2.170   5.153   5.354
 4012SOL    HW215371   2.224   5.011   5.293
 4013SOL     OW15372   3.491   5.001   5.039
 4013SOL    HW115373   3.527   4.999   5.132
 4013SOL    HW215374   3.442   4.916   5.020
 4014SOL     OW15375   3.028   4.723   4.498
 4014SOL    HW115376   2.934   4.692   4.491
 4014SOL    HW215377   3.085   4.672   4.434
 4015SOL     OW15378   2.186   5.164   4.112
 4015SOL    HW115379   2.128   5.152   4.031
 4015SOL    HW215380   2.200   5.262   4.129
 4016SOL     OW15381   2.476   3.907   5.363
 4016SOL    HW115382   2.536   3.885   5.286
 4016SOL    HW215383   2.531   3.925   5.445
 4017SOL     OW15384   1.899   4.058   3.709
 4017SOL    HW115385   1.834   4.066   3.633
 4017SOL    HW215386   1.981   4.112   3.688
 4018SOL     OW15387   3.219   4.527   5.099
 4018SOL    HW115388   3.183   4.596   5.035
 4018SOL    HW215389   3.317   4.515   5.082
 4019SOL     OW15390   3.092   5.021   3.897
 4019SOL    HW115391   3.017   5.051   3.956
 4019SOL    HW215392   3.150   4.957   3.948
 4020SOL     OW15393   3.334   5.572   4.746
 4020SOL    HW115394   3.349   5.496   4.683
 4020SOL    HW215395   3.406   5.573   4.815
 4021SOL     OW15396   2.612   4.411   5.431
 4021SOL    HW115397   2.543   4.451   5.491
 4021SOL    HW215398   2.700   4.410   5.477
 4022SOL     OW15399   3.491   4.521   5.077
 4022SOL    HW115400   3.520   4.519   5.172
 4022SOL    HW215401   3.567   4.496   5.017
 4023SOL     OW15402   3.079   4.001   4.190
 4023SOL    HW115403   3.146   3.927   4.193
 4023SOL    HW215404   3.071   4.042   4.281
 4024SOL     OW15405   3.517   4.131   5.470
 4024SOL    HW115406   3.612   4.139   5.439
 4024SOL    HW215407   3.485   4.037   5.456
 4025SOL     OW15408   2.607   5.523   4.786
 4025SOL    HW115409   2.639   5.579   4.710
 4025SOL    HW215410   2.674   5.452   4.807
 4026SOL     OW15411   2.766   4.632   4.495
 4026SOL    HW115412   2.746   4.544   4.538
 4026SOL    HW215413   2.758   4.705   4.563
 4027SOL     OW15414   2.932   4.703   3.840
 4027SOL    HW115415   2.889   4.722   3.752
 4027SOL    HW215416   3.008   4.639   3.827
 4028SOL     OW15417   2.116   4.974   5.603
 4028SOL    HW115418   2.153   4.885   5.576
 4028SOL    HW215419   2.033   4.961   5.657
 4029SOL     OW15420   2.500   5.153   5.358
 4029SOL    HW115421   2.402   5.139   5.343
 4029SOL    HW215422   2.513   5.229   5.423
 4030SOL     OW15423   3.493   5.247   4.902
 4030SOL    HW115424   3.482   5.213   4.808
 4030SOL    HW215425   3.486   5.170   4.965
 4031SOL     OW15426   2.196   4.124   5.046
 4031SOL    HW115427   2.221   4.051   5.110
 4031SOL    HW215428   2.153   4.084   4.965
 4032SOL     OW15429   3.259   3.927   4.743
 4032SOL    HW115430   3.226   3.837   4.773
 4032SOL    HW215431   3.180   3.988   4.730
 4033SOL     OW15432   2.898   3.866   4.759
 4033SOL    HW115433   2.821   3.857   4.696
 4033SOL    HW215434   2.943   3.777   4.770
 4034SOL     OW15435   2.524   4.895   4.090
 4034SOL    HW115436   2.612   4.862   4.054
 4034SOL    HW215437   2.501   4.982   4.046
 4035SOL     OW15438   3.069   4.112   4.440
 4035SOL    HW115439   3.023   4.199   4.420
 4035SOL    HW215440   3.052   4.086   4.534
 4036SOL     OW15441   3.430   3.894   4.542
 4036SOL    HW115442   3.367   3.903   4.619
 4036SOL    HW215443   3.401   3.955   4.468
 4037SOL     OW15444   1.965   4.870   3.951
 4037SOL    HW115445   1.970   4.892   4.049
 4037SOL    HW215446   1.874   4.835   3.930
 4038SOL     OW15447   2.055   4.022   0.057
 4038SOL    HW115448   2.080   3.952   0.125
 4038SOL    HW215449   1.960   4.007   0.028
 4039SOL     OW15450   1.738   4.154   6.165
 4039SOL    HW115451   1.646   4.188   6.181
 4039SOL    HW215452   1.734   4.057   6.141
 4040SOL     OW15453   3.418   5.166   6.273
 4040SOL    HW115454   3.335   5.122   6.305
 4040SOL    HW215455   3.396   5.234   6.203
 4041SOL     OW15456   3.691   4.210   5.746
 4041SOL    HW115457   3.650   4.279   5.685
 4041SOL    HW215458   3.619   4.164   5.797
 4042SOL     OW15459   2.494   4.663   6.175
 4042SOL    HW115460   2.554   4.653   6.254
 4042SOL    HW215461   2.400   4.678   6.207
 4043SOL     OW15462   3.420   4.212   6.342
 4043SOL    HW115463   3.323   4.221   6.322
 4043SOL    HW215464   3.460   4.302   6.355
 4044SOL     OW15465   2.028   5.443   6.030
 4044SOL    HW115466   2.045   5.521   6.090
 4044SOL    HW215467   2.111   5.421   5.979
 4045SOL     OW15468   1.946   5.201   6.132
 4045SOL    HW115469   1.978   5.287   6.090
 4045SOL    HW215470   1.901   5.222   6.219
 4046SOL     OW15471   1.983   4.269   6.213
 4046SOL    HW115472   1.891   4.235   6.194
 4046SOL    HW215473   1.982   4.369   6.220
 4047SOL     OW15474   3.696   5.452   5.863
 4047SOL    HW115475   3.692   5.440   5.962
 4047SOL    HW215476   3.722   5.547   5.842
 4048SOL     OW15477   1.899   5.284   5.738
 4048SOL    HW115478   1.874   5.188   5.746
 4048SOL    HW215479   1.838   5.340   5.795
 4049SOL     OW15480   3.746   4.607   6.258
 4049SOL    HW115481   3.781   4.520   6.224
 4049SOL    HW215482   3.702   4.657   6.183
 4050SOL     OW15483   3.621   4.735   6.050
 4050SOL    HW115484   3.700   4.776   6.003
 4050SOL    HW215485   3.580   4.803   6.111
 4051SOL     OW15486   3.644   5.398   6.127
 4051SOL    HW115487   3.544   5.394   6.125
 4051SOL    HW215488   3.677   5.376   6.219
 4052SOL     OW15489   3.262   3.959   6.465
 4052SOL    HW115490   3.243   3.990   0.059
 4052SOL    HW215491   3.360   3.966   6.447
 4053SOL     OW15492   3.425   5.412   5.830
 4053SOL    HW115493   3.524   5.410   5.842
 4053SOL    HW215494   3.398   5.348   5.758
 4054SOL     OW15495   2.988   4.443   6.170
 4054SOL    HW115496   3.048   4.364   6.153
 4054SOL    HW215497   2.906   4.434   6.114
 4055SOL     OW15498   2.023   4.546   6.286
 4055SOL    HW115499   2.050   4.507   6.374
 4055SOL    HW215500   2.093   4.611   6.255
 4056SOL     OW15501   2.847   4.162   5.877
 4056SOL    HW115502   2.947   4.172   5.874
 4056SOL    HW215503   2.823   4.068   5.901
 4057SOL     OW15504   2.351   3.997   0.073
 4057SOL    HW115505   2.254   4.009   0.053
 4057SOL    HW215506   2.401   4.079   0.045
 4058SOL     OW15507   2.202   5.492   6.395
 4058SOL    HW115508   2.245   5.410   6.356
 4058SOL    HW215509   2.260   5.529   6.467
 4059SOL     OW15510   3.542   4.457   6.393
 4059SOL    HW115511   3.586   4.416   6.473
 4059SOL    HW215512   3.599   4.531   6.358
 4060SOL     OW15513   2.988   5.467   5.829
 4060SOL    HW115514   2.893   5.445   5.849
 4060SOL    HW215515   3.020   5.412   5.752
 4061SOL     OW15516   3.327   3.795   6.086
 4061SOL    HW115517   3.290   3.768   5.997
 4061SOL    HW215518   3.426   3.785   6.086
 4062SOL     OW15519   3.055   5.512   6.226
 4062SOL    HW115520   3.099   5.546   6.143
 4062SOL    HW215521   2.991   5.581   6.261
 4063SOL     OW15522   2.283   5.140   5.764
 4063SOL    HW115523   2.224   5.126   5.843
 4063SOL    HW215524   2.249   5.087   5.686
 4064SOL     OW15525   3.598   4.953   6.224
 4064SOL    HW115526   3.693   4.979   6.244
 4064SOL    HW215527   3.538   5.031   6.241
 4065SOL     OW15528   2.520   4.755   5.906
 4065SOL    HW115529   2.512   4.708   5.994
 4065SOL    HW215530   2.586   4.830   5.914
 4066SOL     OW15531   2.251   4.820   5.995
 4066SOL    HW115532   2.200   4.900   5.963
 4066SOL    HW215533   2.335   4.810   5.942
 4067SOL     OW15534   2.471   4.230   6.497
 4067SOL    HW115535   2.498   4.254   6.404
 4067SOL    HW215536   2.483   4.309   0.056
 4068SOL     OW15537   3.536   4.446   6.113
 4068SOL    HW115538   3.505   4.446   6.208
 4068SOL    HW215539   3.517   4.535   6.071
 4069SOL     OW15540   2.134   3.787   6.187
 4069SOL    HW115541   2.116   3.877   6.228
 4069SOL    HW215542   2.176   3.727   6.256
 4070SOL     OW15543   3.496   4.055   5.908
 4070SOL    HW115544   3.552   3.992   5.961
 4070SOL    HW215545   3.420   4.088   5.965
 4071SOL     OW15546   3.432   3.857   5.717
 4071SOL    HW115547   3.344   3.826   5.753
 4071SOL    HW215548   3.464   3.935   5.770
 4072SOL     OW15549   2.952   5.156   6.436
 4072SOL    HW115550   3.008   5.074   6.438
 4072SOL    HW215551   2.947   5.191   6.342
 4073SOL     OW15552   1.886   4.950   5.766
 4073SOL    HW115553   1.791   4.975   5.751
 4073SOL    HW215554   1.893   4.852   5.784
 4074SOL     OW15555   1.972   5.578   0.010
 4074SOL    HW115556   1.918   5.503   0.047
 4074SOL    HW215557   2.050   5.542   6.460
 4075SOL     OW15558   2.775   4.387   6.013
 4075SOL    HW115559   2.796   4.306   5.958
 4075SOL    HW215560   2.689   4.427   5.982
 4076SOL     OW15561   3.637   3.858   6.046
 4076SOL    HW115562   3.696   3.879   5.968
 4076SOL    HW215563   3.690   3.811   6.116
 4077SOL     OW15564   3.366   5.379   6.101
 4077SOL    HW115565   3.376   5.374   6.001
 4077SOL    HW215566   3.307   5.456   6.125
 4078SOL     OW15567   2.465   5.346   5.764
 4078SOL    HW115568   2.503   5.366   5.674
 4078SOL    HW215569   2.403   5.268   5.758
 4079SOL     OW15570   3.762   3.894   0.101
 4079SOL    HW115571   3.757   3.814   0.041
 4079SOL    HW215572   3.672   3.935   0.111
 4080SOL     OW15573   2.126   4.054   6.292
 4080SOL    HW115574   2.075   4.133   6.258
 4080SOL    HW215575   2.106   4.041   6.389
 4081SOL     OW15576   3.071   5.281   5.636
 4081SOL    HW115577   3.083   5.201   5.694
 4081SOL    HW215578   3.000   5.263   5.568
 4082SOL     OW15579   3.344   5.305   5.584
 4082SOL    HW115580   3.246   5.325   5.590
 4082SOL    HW215581   3.380   5.339   5.497
 4083SOL     OW15582   2.086   5.045   5.943
 4083SOL    HW115583   2.013   5.012   5.883
 4083SOL    HW215584   2.046   5.095   6.020
 4084SOL     OW15585   1.974   4.097   5.716
 4084SOL    HW115586   1.906   4.142   5.774
 4084SOL    HW215587   2.003   4.160   5.643
 4085SOL     OW15588   1.941   3.855   5.854
 4085SOL    HW115589   1.950   3.939   5.801
 4085SOL    HW215590   2.025   3.801   5.845
 4086SOL     OW15591   3.253   4.060   6.078
 4086SOL    HW115592   3.274   3.963   6.091
 4086SOL    HW215593   3.212   4.097   6.161
 4087SOL     OW15594   2.588   5.492   6.491
 4087SOL    HW115595   2.499   5.532   0.011
 4087SOL    HW215596   2.656   5.527   0.054
 4088SOL     OW15597   2.639   4.622   6.424
 4088SOL    HW115598   2.735   4.624   6.450
 4088SOL    HW215599   2.585   4.580   6.497
 4089SOL     OW15600   3.591   5.320   6.421
 4089SOL    HW115601   3.535   5.256   6.368
 4089SOL    HW215602   3.648   5.268   6.486
 4090SOL     OW15603   2.291   4.027   6.076
 4090SOL    HW115604   2.250   3.943   6.040
 4090SOL    HW215605   2.246   4.053   6.161
 4091SOL     OW15606   3.207   3.754   5.839
 4091SOL    HW115607   3.189   3.662   5.802
 4091SOL    HW215608   3.120   3.801   5.852
 4092SOL     OW15609   3.142   4.160   6.310
 4092SOL    HW115610   3.060   4.204   6.348
 4092SOL    HW215611   3.172   4.088   6.373
 4093SOL     OW15612   2.041   5.853   0.988
 4093SOL    HW115613   2.074   5.807   1.070
 4093SOL    HW215614   1.947   5.825   0.969
 4094SOL     OW15615   3.603   6.148   0.263
 4094SOL    HW115616   3.546   6.149   0.180
 4094SOL    HW215617   3.558   6.092   0.333
 4095SOL     OW15618   2.746   6.396   1.820
 4095SOL    HW115619   2.685   6.464   1.860
 4095SOL    HW215620   2.802   6.440   1.749
 4096SOL     OW15621   2.558   6.455   0.772
 4096SOL    HW115622   2.651   6.491   0.771
 4096SOL    HW215623   2.495   0.026   0.741
 4097SOL     OW15624   3.612   5.683   1.489
 4097SOL    HW115625   3.571   5.731   1.411
 4097SOL    HW215626   3.559   5.703   1.571
 4098SOL     OW15627   2.203   5.864   1.794
 4098SOL    HW115628   2.302   5.877   1.785
 4098SOL    HW215629   2.184   5.809   1.875
 4099SOL     OW15630   1.822   6.467   0.816
 4099SOL    HW115631   1.893   6.441   0.882
 4099SOL    HW215632   1.833   0.063   0.791
 4100SOL     OW15633   2.739   5.844   0.317
 4100SOL    HW115634   2.811   5.889   0.265
 4100SOL    HW215635   2.749   5.745   0.311
 4101SOL     OW15636   2.393   5.695   0.801
 4101SOL    HW115637   2.373   5.640   0.882
 4101SOL    HW215638   2.310   5.742   0.770
 4102SOL     OW15639   2.020   5.863   1.595
 4102SOL    HW115640   2.045   5.931   1.526
 4102SOL    HW215641   2.087   5.865   1.669
 4103SOL     OW15642   3.438   5.723   1.710
 4103SOL    HW115643   3.364   5.784   1.737
 4103SOL    HW215644   3.402   5.630   1.697
 4104SOL     OW15645   2.633   5.900   1.763
 4104SOL    HW115646   2.733   5.890   1.760
 4104SOL    HW215647   2.596   5.836   1.830
 4105SOL     OW15648   2.333   5.593   0.367
 4105SOL    HW115649   2.265   5.594   0.440
 4105SOL    HW215650   2.386   5.678   0.370
 4106SOL     OW15651   2.349   5.614   0.089
 4106SOL    HW115652   2.318   5.706   0.068
 4106SOL    HW215653   2.346   5.600   0.188
 4107SOL     OW15654   2.975   6.178   1.617
 4107SOL    HW115655   2.958   6.154   1.521
 4107SOL    HW215656   3.045   6.117   1.654
 4108SOL     OW15657   2.366   0.163   0.722
 4108SOL    HW115658   2.382   0.200   0.813
 4108SOL    HW215659   2.277   0.118   0.719
 4109SOL     OW15660   1.866   6.326   1.330
 4109SOL    HW115661   1.958   6.324   1.370
 4109SOL    HW215662   1.805   6.267   1.384
 4110SOL     OW15663   3.698   6.344   0.429
 4110SOL    HW115664   3.749   6.297   0.502
 4110SOL    HW215665   3.672   6.277   0.359
 4111SOL     OW15666   3.415   6.107   0.060
 4111SOL    HW115667   3.374   6.091   6.470
 4111SOL    HW215668   3.406   6.024   0.116
 4112SOL     OW15669   2.466   5.830   0.355
 4112SOL    HW115670   2.566   5.832   0.349
 4112SOL    HW215671   2.430   5.922   0.340
 4113SOL     OW15672   2.921   5.627   1.393
 4113SOL    HW115673   2.924   5.625   1.293
 4113SOL    HW215674   2.941   5.720   1.425
 4114SOL     OW15675   2.525   6.450   0.372
 4114SOL    HW115676   2.439   6.446   0.423
 4114SOL    HW215677   2.592   0.003   0.424
 4115SOL     OW15678   2.306   6.487   1.341
 4115SOL    HW115679   2.393   6.450   1.373
 4115SOL    HW215680   2.231   6.437   1.385
 4116SOL     OW15681   2.429   6.410   1.674
 4116SOL    HW115682   2.470   6.405   1.583
 4116SOL    HW215683   2.465   6.337   1.731
 4117SOL     OW15684   3.505   6.413   1.783
 4117SOL    HW115685   3.450   6.458   1.713
 4117SOL    HW215686   3.580   6.363   1.740
 4118SOL     OW15687   2.901   5.827   1.756
 4118SOL    HW115688   2.926   5.856   1.663
 4118SOL    HW215689   2.946   5.741   1.777
 4119SOL     OW15690   2.384   5.597   1.725
 4119SOL    HW115691   2.404   5.604   1.627
 4119SOL    HW215692   2.287   5.577   1.738
 4120SOL     OW15693   2.303   6.480   1.069
 4120SOL    HW115694   2.345   0.061   1.028
 4120SOL    HW215695   2.306   6.486   1.169
 4121SOL     OW15696   2.980   5.936   0.207
 4121SOL    HW115697   3.028   5.867   0.261
 4121SOL    HW215698   2.990   6.025   0.250
 4122SOL     OW15699   2.346   6.206   1.054
 4122SOL    HW115700   2.422   6.196   0.990
 4122SOL    HW215701   2.328   6.303   1.071
 4123SOL     OW15702   3.618   0.143   1.875
 4123SOL    HW115703   3.588   0.051   1.851
 4123SOL    HW215704   3.539   0.201   1.892
 4124SOL     OW15705   2.125   5.590   0.554
 4124SOL    HW115706   2.133   5.674   0.608
 4124SOL    HW215707   2.044   5.539   0.584
 4125SOL     OW15708   3.461   5.977   0.436
 4125SOL    HW115709   3.488   5.901   0.494
 4125SOL    HW215710   3.422   5.942   0.351
 4126SOL     OW15711   2.952   6.390   0.954
 4126SOL    HW115712   3.011   6.378   1.034
 4126SOL    HW215713   2.985   6.334   0.879
 4127SOL     OW15714   3.408   5.864   0.195
 4127SOL    HW115715   3.333   5.800   0.179
 4127SOL    HW215716   3.495   5.819   0.173
 4128SOL     OW15717   2.074   6.412   0.943
 4128SOL    HW115718   2.162   6.438   0.982
 4128SOL    HW215719   2.066   6.312   0.942
 4129SOL     OW15720   2.089   6.132   0.976
 4129SOL    HW115721   2.074   6.033   0.967
 4129SOL    HW215722   2.186   6.148   0.998
 4130SOL     OW15723   3.006   5.873   1.499
 4130SOL    HW115724   3.082   5.904   1.556
 4130SOL    HW215725   2.978   5.947   1.438
 4131SOL     OW15726   1.850   6.210   1.077
 4131SOL    HW115727   1.936   6.174   1.041
 4131SOL    HW215728   1.868   6.261   1.161
 4132SOL     OW15729   2.780   6.087   0.454
 4132SOL    HW115730   2.749   5.994   0.434
 4132SOL    HW215731   2.723   6.152   0.404
 4133SOL     OW15732   3.585   6.257   1.261
 4133SOL    HW115733   3.528   6.234   1.340
 4133SOL    HW215734   3.588   6.179   1.198
 4134SOL     OW15735   2.427   6.091   0.268
 4134SOL    HW115736   2.507   6.148   0.286
 4134SOL    HW215737   2.356   6.146   0.225
 4135SOL     OW15738   2.775   5.598   0.174
 4135SOL    HW115739   2.773   5.674   0.108
 4135SOL    HW215740   2.868   5.565   0.184
 4136SOL     OW15741   3.791   5.755   1.089
 4136SOL    HW115742   3.801   5.669   1.038
 4136SOL    HW215743   3.698   5.789   1.079
 4137SOL     OW15744   2.143   5.802   0.735
 4137SOL    HW115745   2.110   5.883   0.687
 4137SOL    HW215746   2.112   5.804   0.830
 4138SOL     OW15747   2.986   5.804   0.971
 4138SOL    HW115748   2.900   5.852   0.950
 4138SOL    HW215749   2.966   5.723   1.025
 4139SOL     OW15750   3.632   6.012   1.526
 4139SOL    HW115751   3.573   6.091   1.513
 4139SOL    HW215752   3.688   5.997   1.445
 4140SOL     OW15753   1.996   0.060   1.584
 4140SOL    HW115754   1.921   0.052   1.650
 4140SOL    HW215755   2.080   0.087   1.632
 4141SOL     OW15756   2.597   5.840   1.494
 4141SOL    HW115757   2.566   5.746   1.478
 4141SOL    HW215758   2.606   5.856   1.593
 4142SOL     OW15759   2.565   6.175   1.803
 4142SOL    HW115760   2.645   6.235   1.803
 4142SOL    HW215761   2.594   6.082   1.783
 4143SOL     OW15762   3.639   0.027   1.269
 4143SOL    HW115763   3.637   6.427   1.273
 4143SOL    HW215764   3.604   0.057   1.180
 4144SOL     OW15765   3.102   5.863   0.453
 4144SOL    HW115766   3.176   5.849   0.518
 4144SOL    HW215767   3.085   5.961   0.443
 4145SOL     OW15768   3.635   5.910   1.780
 4145SOL    HW115769   3.640   5.956   1.691
 4145SOL    HW215770   3.577   5.829   1.772
 4146SOL     OW15771   2.932   5.572   1.114
 4146SOL    HW115772   2.853   5.518   1.086
 4146SOL    HW215773   3.016   5.525   1.087
 4147SOL     OW15774   3.231   5.661   0.136
 4147SOL    HW115775   3.296   5.591   0.108
 4147SOL    HW215776   3.151   5.618   0.176
 4148SOL     OW15777   3.415   5.846   1.015
 4148SOL    HW115778   3.326   5.866   0.976
 4148SOL    HW215779   3.486   5.895   0.964
 4149SOL     OW15780   2.007   6.421   1.919
 4149SOL    HW115781   1.967   6.369   1.995
 4149SOL    HW215782   1.982   6.376   1.833
 4150SOL     OW15783   2.044   5.848   2.957
 4150SOL    HW115784   2.117   5.800   3.006
 4150SOL    HW215785   1.956   5.807   2.979
 4151SOL     OW15786   3.519   6.035   2.003
 4151SOL    HW115787   3.570   5.995   1.927
 4151SOL    HW215788   3.508   5.967   2.075
 4152SOL     OW15789   2.738   6.311   3.735
 4152SOL    HW115790   2.668   6.290   3.803
 4152SOL    HW215791   2.705   6.286   3.644
 4153SOL     OW15792   2.527   6.447   2.596
 4153SOL    HW115793   2.567   6.445   2.687
 4153SOL    HW215794   2.468   0.027   2.587
 4154SOL     OW15795   2.335   6.033   3.438
 4154SOL    HW115796   2.434   6.020   3.434
 4154SOL    HW215797   2.289   5.953   3.400
 4155SOL     OW15798   3.489   6.008   2.643
 4155SOL    HW115799   3.402   6.056   2.656
 4155SOL    HW215800   3.549   6.062   2.583
 4156SOL     OW15801   3.469   5.698   3.340
 4156SOL    HW115802   3.525   5.776   3.313
 4156SOL    HW215803   3.524   5.634   3.395
 4157SOL     OW15804   2.066   6.313   2.360
 4157SOL    HW115805   1.984   6.268   2.396
 4157SOL    HW215806   2.104   6.374   2.429
 4158SOL     OW15807   2.009   6.305   3.426
 4158SOL    HW115808   2.108   6.312   3.429
 4158SOL    HW215809   1.970   6.347   3.508
 4159SOL     OW15810   2.653   5.561   2.328
 4159SOL    HW115811   2.708   5.644   2.336
 4159SOL    HW215812   2.556   5.586   2.325
 4160SOL     OW15813   2.232   5.818   3.733
 4160SOL    HW115814   2.285   5.899   3.760
 4160SOL    HW215815   2.138   5.845   3.715
 4161SOL     OW15816   3.295   6.171   3.478
 4161SOL    HW115817   3.266   6.214   3.563
 4161SOL    HW215818   3.368   6.105   3.497
 4162SOL     OW15819   1.888   6.436   2.628
 4162SOL    HW115820   1.959   6.423   2.697
 4162SOL    HW215821   1.865   0.033   2.622
 4163SOL     OW15822   2.825   5.960   2.006
 4163SOL    HW115823   2.836   6.059   2.001
 4163SOL    HW215824   2.869   5.917   1.927
 4164SOL     OW15825   3.574   6.222   3.714
 4164SOL    HW115826   3.592   6.313   3.675
 4164SOL    HW215827   3.573   6.154   3.641
 4165SOL     OW15828   3.247   6.417   2.612
 4165SOL    HW115829   3.249   6.317   2.620
 4165SOL    HW215830   3.249   6.457   2.704
 4166SOL     OW15831   2.154   5.837   3.350
 4166SOL    HW115832   2.078   5.901   3.338
 4166SOL    HW215833   2.118   5.749   3.381
 4167SOL     OW15834   2.550   5.687   1.921
 4167SOL    HW115835   2.614   5.620   1.960
 4167SOL    HW215836   2.497   5.643   1.849
 4168SOL     OW15837   2.661   5.750   3.631
 4168SOL    HW115838   2.742   5.691   3.635
 4168SOL    HW215839   2.620   5.756   3.722
 4169SOL     OW15840   2.803   6.008   2.737
 4169SOL    HW115841   2.720   5.993   2.683
 4169SOL    HW215842   2.827   5.924   2.785
 4170SOL     OW15843   2.395   5.631   2.312
 4170SOL    HW115844   2.331   5.645   2.387
 4170SOL    HW215845   2.393   5.709   2.250
 4171SOL     OW15846   2.172   5.712   2.021
 4171SOL    HW115847   2.258   5.752   2.051
 4171SOL    HW215848   2.123   5.674   2.100
 4172SOL     OW15849   2.769   5.804   2.348
 4172SOL    HW115850   2.697   5.864   2.312
 4172SOL    HW215851   2.858   5.843   2.325
 4173SOL     OW15852   2.392   0.199   2.564
 4173SOL    HW115853   2.299   0.220   2.594
 4173SOL    HW215854   2.394   0.194   2.464
 4174SOL     OW15855   1.989   6.073   3.266
 4174SOL    HW115856   2.078   6.081   3.221
 4174SOL    HW215857   1.972   6.152   3.324
 4175SOL     OW15858   2.458   5.796   3.003
 4175SOL    HW115859   2.475   5.745   2.919
 4175SOL    HW215860   2.371   5.767   3.043
 4176SOL     OW15861   2.882   5.658   2.586
 4176SOL    HW115862   2.827   5.710   2.521
 4176SOL    HW215863   2.831   5.577   2.615
 4177SOL     OW15864   3.261   6.229   2.948
 4177SOL    HW115865   3.205   6.156   2.988
 4177SOL    HW215866   3.352   6.227   2.988
 4178SOL     OW15867   3.708   6.234   2.266
 4178SOL    HW115868   3.694   6.313   2.326
 4178SOL    HW215869   3.633   6.228   2.200
 4179SOL     OW15870   3.268   6.025   1.892
 4179SOL    HW115871   3.200   6.044   1.963
 4179SOL    HW215872   3.360   6.040   1.928
 4180SOL     OW15873   2.407   5.812   2.109
 4180SOL    HW115874   2.462   5.766   2.039
 4180SOL    HW215875   2.460   5.889   2.147
 4181SOL     OW15876   2.534   0.181   2.192
 4181SOL    HW115877   2.439   0.165   2.221
 4181SOL    HW215878   2.595   0.125   2.247
 4182SOL     OW15879   2.353   6.153   2.769
 4182SOL    HW115880   2.388   6.161   2.676
 4182SOL    HW215881   2.424   6.182   2.834
 4183SOL     OW15882   3.409   6.427   2.394
 4183SOL    HW115883   3.359   6.421   2.480
 4183SOL    HW215884   3.508   6.426   2.413
 4184SOL     OW15885   2.277   6.301   3.438
 4184SOL    HW115886   2.308   6.349   3.356
 4184SOL    HW215887   2.306   6.206   3.434
 4185SOL     OW15888   2.881   5.584   3.632
 4185SOL    HW115889   2.929   5.665   3.599
 4185SOL    HW215890   2.918   5.502   3.588
 4186SOL     OW15891   2.388   5.605   3.649
 4186SOL    HW115892   2.350   5.552   3.574
 4186SOL    HW215893   2.337   5.690   3.660
 4187SOL     OW15894   3.225   6.490   2.874
 4187SOL    HW115895   3.137   0.037   2.882
 4187SOL    HW215896   3.217   6.397   2.910
 4188SOL     OW15897   3.110   6.085   2.104
 4188SOL    HW115898   3.055   6.027   2.163
 4188SOL    HW215899   3.086   6.181   2.119
 4189SOL     OW15900   2.229   5.715   3.113
 4189SOL    HW115901   2.203   5.749   3.204
 4189SOL    HW215902   2.200   5.620   3.105
 4190SOL     OW15903   2.542   6.243   2.944
 4190SOL    HW115904   2.642   6.235   2.942
 4190SOL    HW215905   2.516   6.334   2.975
 4191SOL     OW15906   2.201   5.648   2.501
 4191SOL    HW115907   2.171   5.738   2.531
 4191SOL    HW215908   2.208   5.587   2.581
 4192SOL     OW15909   2.812   6.193   2.938
 4192SOL    HW115910   2.895   6.170   2.990
 4192SOL    HW215911   2.805   6.132   2.859
 4193SOL     OW15912   2.105   6.372   2.799
 4193SOL    HW115913   2.156   6.416   2.872
 4193SOL    HW215914   2.097   6.274   2.816
 4194SOL     OW15915   2.115   6.098   2.874
 4194SOL    HW115916   2.092   6.002   2.888
 4194SOL    HW215917   2.203   6.105   2.828
 4195SOL     OW15918   1.882   6.145   3.013
 4195SOL    HW115919   1.956   6.134   2.946
 4195SOL    HW215920   1.917   6.125   3.104
 4196SOL     OW15921   2.093   6.073   3.575
 4196SOL    HW115922   2.184   6.058   3.536
 4196SOL    HW215923   2.046   6.145   3.524
 4197SOL     OW15924   2.616   5.978   2.183
 4197SOL    HW115925   2.696   5.963   2.125
 4197SOL    HW215926   2.562   6.053   2.146
 4198SOL     OW15927   3.508   6.240   3.070
 4198SOL    HW115928   3.488   6.265   3.164
 4198SOL    HW215929   3.595   6.190   3.066
 4199SOL     OW15930   2.493   6.040   3.119
 4199SOL    HW115931   2.486   5.951   3.074
 4199SOL    HW215932   2.513   6.110   3.050
 4200SOL     OW15933   3.647   5.777   2.393
 4200SOL    HW115934   3.698   5.755   2.309
 4200SOL    HW215935   3.625   5.693   2.441
 4201SOL     OW15936   3.087   0.082   2.457
 4201SOL    HW115937   3.134   0.023   2.522
 4201SOL    HW215938   3.128   0.071   2.366
 4202SOL     OW15939   3.686   5.581   2.757
 4202SOL    HW115940   3.683   5.557   2.660
 4202SOL    HW215941   3.633   5.664   2.773
 4203SOL     OW15942   2.873   5.773   2.851
 4203SOL    HW115943   2.891   5.716   2.772
 4203SOL    HW215944   2.899   5.724   2.934
 4204SOL     OW15945   3.643   5.906   3.250
 4204SOL    HW115946   3.669   5.993   3.208
 4204SOL    HW215947   3.642   5.835   3.180
 4205SOL     OW15948   1.939   6.412   3.663
 4205SOL    HW115949   1.841   6.411   3.683
 4205SOL    HW215950   1.989   6.452   3.740
 4206SOL     OW15951   1.966   5.973   2.073
 4206SOL    HW115952   1.926   5.953   1.984
 4206SOL    HW215953   2.066   5.969   2.067
 4207SOL     OW15954   3.287   0.041   3.257
 4207SOL    HW115955   3.338   0.113   3.208
 4207SOL    HW215956   3.345   6.461   3.269
 4208SOL     OW15957   1.874   5.772   2.249
 4208SOL    HW115958   1.899   5.851   2.193
 4208SOL    HW215959   1.948   5.705   2.247
 4209SOL     OW15960   3.483   6.495   2.962
 4209SOL    HW115961   3.505   6.404   2.998
 4209SOL    HW215962   3.391   6.495   2.923
 4210SOL     OW15963   2.461   6.181   2.519
 4210SOL    HW115964   2.495   6.273   2.539
 4210SOL    HW215965   2.406   6.183   2.436
 4211SOL     OW15966   3.513   6.017   3.530
 4211SOL    HW115967   3.570   5.974   3.461
 4211SOL    HW215968   3.505   5.956   3.610
 4212SOL     OW15969   3.647   5.722   3.058
 4212SOL    HW115970   3.682   5.630   3.045
 4212SOL    HW215971   3.612   5.757   2.970
 4213SOL     OW15972   2.220   6.116   3.136
 4213SOL    HW115973   2.316   6.087   3.142
 4213SOL    HW215974   2.191   6.116   3.040
 4214SOL     OW15975   3.258   6.152   2.685
 4214SOL    HW115976   3.164   6.130   2.659
 4214SOL    HW215977   3.261   6.176   2.782
 4215SOL     OW15978   3.534   5.799   2.815
 4215SOL    HW115979   3.442   5.775   2.846
 4215SOL    HW215980   3.529   5.876   2.752
 4216SOL     OW15981   2.084   6.157   3.836
 4216SOL    HW115982   1.990   6.157   3.871
 4216SOL    HW215983   2.082   6.141   3.737
 4217SOL     OW15984   1.927   5.826   4.749
 4217SOL    HW115985   1.983   5.752   4.787
 4217SOL    HW215986   1.836   5.791   4.728
 4218SOL     OW15987   1.838   5.995   4.371
 4218SOL    HW115988   1.809   6.052   4.448
 4218SOL    HW215989   1.868   6.053   4.296
 4219SOL     OW15990   3.188   6.224   4.321
 4219SOL    HW115991   3.219   6.294   4.385
 4219SOL    HW215992   3.194   6.134   4.365
 4220SOL     OW15993   3.686   6.185   3.956
 4220SOL    HW115994   3.657   6.208   3.863
 4220SOL    HW215995   3.628   6.112   3.992
 4221SOL     OW15996   2.882   6.369   5.578
 4221SOL    HW115997   2.815   6.396   5.647
 4221SOL    HW215998   2.912   6.450   5.527
 4222SOL     OW15999   2.286   5.961   5.274
 4222SOL    HW116000   2.360   5.909   5.233
 4222SOL    HW216001   2.319   6.009   5.355
 4223SOL     OW16002   3.335   5.783   5.206
 4223SOL    HW116003   3.417   5.840   5.215
 4223SOL    HW216004   3.261   5.822   5.261
 4224SOL     OW16005   2.024   6.304   5.297
 4224SOL    HW116006   2.124   6.307   5.303
 4224SOL    HW216007   1.985   6.389   5.333
 4225SOL     OW16008   2.633   5.558   4.147
 4225SOL    HW116009   2.549   5.611   4.161
 4225SOL    HW216010   2.610   5.462   4.136
 4226SOL     OW16011   2.493   6.282   3.893
 4226SOL    HW116012   2.442   6.330   3.822
 4226SOL    HW216013   2.481   6.330   3.980
 4227SOL     OW16014   3.166   5.942   5.394
 4227SOL    HW116015   3.152   5.906   5.486
 4227SOL    HW216016   3.213   6.030   5.398
 4228SOL     OW16017   2.873   6.049   4.876
 4228SOL    HW116018   2.796   6.103   4.842
 4228SOL    HW216019   2.879   5.964   4.823
 4229SOL     OW16020   2.973   6.207   4.154
 4229SOL    HW116021   3.047   6.220   4.219
 4229SOL    HW216022   2.903   6.148   4.194
 4230SOL     OW16023   2.009   6.467   4.534
 4230SOL    HW116024   2.057   6.418   4.606
 4230SOL    HW216025   1.934   6.411   4.499
 4231SOL     OW16026   2.378   5.746   4.597
 4231SOL    HW116027   2.406   5.755   4.693
 4231SOL    HW216028   2.453   5.775   4.538
 4232SOL     OW16029   3.278   5.718   4.133
 4232SOL    HW116030   3.264   5.680   4.042
 4232SOL    HW216031   3.376   5.732   4.149
 4233SOL     OW16032   2.527   5.660   3.875
 4233SOL    HW116033   2.591   5.588   3.901
 4233SOL    HW216034   2.477   5.633   3.794
 4234SOL     OW16035   2.751   5.873   5.575
 4234SOL    HW116036   2.797   5.830   5.497
 4234SOL    HW216037   2.750   5.972   5.561
 4235SOL     OW16038   3.226   6.239   5.210
 4235SOL    HW116039   3.248   6.222   5.306
 4235SOL    HW216040   3.311   6.253   5.159
 4236SOL     OW16041   2.822   6.061   4.557
 4236SOL    HW116042   2.804   6.050   4.459
 4236SOL    HW216043   2.844   5.972   4.597
 4237SOL     OW16044   2.372   5.662   4.197
 4237SOL    HW116045   2.301   5.681   4.264
 4237SOL    HW216046   2.381   5.739   4.134
 4238SOL     OW16047   2.156   5.592   3.873
 4238SOL    HW116048   2.196   5.672   3.828
 4238SOL    HW216049   2.208   5.571   3.956
 4239SOL     OW16050   2.996   6.227   3.722
 4239SOL    HW116051   2.910   6.278   3.726
 4239SOL    HW216052   3.049   6.246   3.805
 4240SOL     OW16053   1.994   6.173   5.057
 4240SOL    HW116054   2.045   6.088   5.072
 4240SOL    HW216055   1.991   6.226   5.142
 4241SOL     OW16056   2.462   5.745   4.854
 4241SOL    HW116057   2.514   5.660   4.851
 4241SOL    HW216058   2.460   5.781   4.947
 4242SOL     OW16059   2.758   6.072   4.283
 4242SOL    HW116060   2.714   6.158   4.307
 4242SOL    HW216061   2.724   6.041   4.194
 4243SOL     OW16062   2.764   5.613   4.583
 4243SOL    HW116063   2.776   5.615   4.483
 4243SOL    HW216064   2.800   5.527   4.618
 4244SOL     OW16065   3.626   6.390   4.131
 4244SOL    HW116066   3.688   6.369   4.207
 4244SOL    HW216067   3.646   6.328   4.055
 4245SOL     OW16068   3.310   6.295   3.739
 4245SOL    HW116069   3.255   6.249   3.809
 4245SOL    HW216070   3.405   6.263   3.745
 4246SOL     OW16071   2.400   5.861   4.014
 4246SOL    HW116072   2.460   5.794   3.971
 4246SOL    HW216073   2.382   5.936   3.951
 4247SOL     OW16074   2.581   0.128   4.185
 4247SOL    HW116075   2.622   0.150   4.274
 4247SOL    HW216076   2.653   0.113   4.118
 4248SOL     OW16077   2.223   6.348   4.985
 4248SOL    HW116078   2.298   6.301   5.033
 4248SOL    HW216079   2.137   6.300   5.003
 4249SOL     OW16080   3.112   6.055   5.019
 4249SOL    HW116081   3.128   6.127   5.086
 4249SOL    HW216082   3.020   6.062   4.983
 4250SOL     OW16083   3.375   6.235   4.117
 4250SOL    HW116084   3.311   6.236   4.194
 4250SOL    HW216085   3.443   6.306   4.131
 4251SOL     OW16086   2.296   6.290   5.317
 4251SOL    HW116087   2.349   6.267   5.235
 4251SOL    HW216088   2.318   6.226   5.390
 4252SOL     OW16089   2.393   5.591   5.487
 4252SOL    HW116090   2.299   5.593   5.454
 4252SOL    HW216091   2.408   5.667   5.550
 4253SOL     OW16092   2.456   6.438   4.845
 4253SOL    HW116093   2.491   0.031   4.860
 4253SOL    HW216094   2.370   6.427   4.895
 4254SOL     OW16095   3.199   6.434   4.725
 4254SOL    HW116096   3.113   6.483   4.710
 4254SOL    HW216097   3.242   6.416   4.636
 4255SOL     OW16098   3.155   6.223   3.952
 4255SOL    HW116099   3.239   6.228   4.006
 4255SOL    HW216100   3.077   6.210   4.013
 4256SOL     OW16101   2.144   5.694   4.361
 4256SOL    HW116102   2.121   5.781   4.406
 4256SOL    HW216103   2.167   5.626   4.431
 4257SOL     OW16104   3.489   6.002   4.023
 4257SOL    HW116105   3.496   5.929   4.091
 4257SOL    HW216106   3.436   6.078   4.061
 4258SOL     OW16107   2.902   6.297   4.664
 4258SOL    HW116108   2.980   6.274   4.722
 4258SOL    HW216109   2.869   6.214   4.620
 4259SOL     OW16110   3.489   5.880   3.773
 4259SOL    HW116111   3.421   5.807   3.770
 4259SOL    HW216112   3.484   5.927   3.861
 4260SOL     OW16113   2.131   6.315   4.715
 4260SOL    HW116114   2.178   6.323   4.803
 4260SOL    HW216115   2.167   6.238   4.663
 4261SOL     OW16116   2.895   5.985   5.293
 4261SOL    HW116117   2.865   6.076   5.265
 4261SOL    HW216118   2.993   5.986   5.313
 4262SOL     OW16119   1.864   6.092   4.813
 4262SOL    HW116120   1.891   5.997   4.801
 4262SOL    HW216121   1.921   6.134   4.884
 4263SOL     OW16122   2.007   6.084   5.472
 4263SOL    HW116123   2.087   6.032   5.440
 4263SOL    HW216124   1.990   6.160   5.410
 4264SOL     OW16125   2.662   6.069   4.024
 4264SOL    HW116126   2.737   6.056   3.960
 4264SOL    HW216127   2.604   6.145   3.994
 4265SOL     OW16128   2.336   6.057   3.840
 4265SOL    HW116129   2.407   6.127   3.850
 4265SOL    HW216130   2.246   6.099   3.846
 4266SOL     OW16131   3.545   5.778   4.180
 4266SOL    HW116132   3.614   5.761   4.111
 4266SOL    HW216133   3.587   5.779   4.271
 4267SOL     OW16134   2.055   5.911   4.512
 4267SOL    HW116135   1.978   5.940   4.454
 4267SOL    HW216136   2.020   5.878   4.599
 4268SOL     OW16137   2.762   6.377   4.081
 4268SOL    HW116138   2.774   6.458   4.023
 4268SOL    HW216139   2.848   6.326   4.083
 4269SOL     OW16140   2.888   5.823   4.710
 4269SOL    HW116141   2.833   5.756   4.661
 4269SOL    HW216142   2.963   5.777   4.758
 4270SOL     OW16143   3.581   5.921   5.216
 4270SOL    HW116144   3.610   6.015   5.197
 4270SOL    HW216145   3.609   5.862   5.140
 4271SOL     OW16146   1.956   0.048   5.416
 4271SOL    HW116147   1.867   0.053   5.463
 4271SOL    HW216148   2.028   0.081   5.478
 4272SOL     OW16149   1.953   5.887   3.717
 4272SOL    HW116150   1.860   5.918   3.737
 4272SOL    HW216151   1.999   5.954   3.658
 4273SOL     OW16152   3.309   0.074   5.156
 4273SOL    HW116153   3.219   0.112   5.180
 4273SOL    HW216154   3.307   6.475   5.168
 4274SOL     OW16155   1.937   5.812   3.999
 4274SOL    HW116156   1.967   5.832   3.906
 4274SOL    HW216157   1.986   5.732   4.034
 4275SOL     OW16158   2.377   6.293   4.241
 4275SOL    HW116159   2.303   6.353   4.272
 4275SOL    HW216160   2.340   6.204   4.217
 4276SOL     OW16161   3.660   5.747   5.023
 4276SOL    HW116162   3.636   5.665   4.970
 4276SOL    HW216163   3.754   5.774   5.001
 4277SOL     OW16164   3.311   5.889   4.950
 4277SOL    HW116165   3.332   5.832   5.029
 4277SOL    HW216166   3.235   5.949   4.972
 4278SOL     OW16167   3.445   5.768   4.578
 4278SOL    HW116168   3.395   5.697   4.627
 4278SOL    HW216169   3.411   5.858   4.606
 4279SOL     OW16170   2.005   6.218   5.719
 4279SOL    HW116171   1.918   6.208   5.767
 4279SOL    HW216172   1.999   6.171   5.630
 4280SOL     OW16173   1.880   6.060   6.270
 4280SOL    HW116174   1.786   6.070   6.303
 4280SOL    HW216175   1.885   5.985   6.204
 4281SOL     OW16176   3.669   6.163   5.851
 4281SOL    HW116177   3.659   6.161   5.752
 4281SOL    HW216178   3.626   6.082   5.891
 4282SOL     OW16179   2.487   0.046   6.388
 4282SOL    HW116180   2.581   0.079   6.384
 4282SOL    HW216181   2.426   0.116   6.351
 4283SOL     OW16182   3.567   5.938   6.274
 4283SOL    HW116183   3.474   5.963   6.302
 4283SOL    HW216184   3.626   6.019   6.276
 4284SOL     OW16185   1.969   6.321   6.245
 4284SOL    HW116186   1.934   6.228   6.259
 4284SOL    HW216187   1.966   6.371   6.331
 4285SOL     OW16188   2.471   6.306   5.825
 4285SOL    HW116189   2.541   6.363   5.781
 4285SOL    HW216190   2.413   6.364   5.883
 4286SOL     OW16191   3.135   5.869   6.481
 4286SOL    HW116192   3.063   5.906   0.040
 4286SOL    HW216193   3.174   5.787   0.024
 4287SOL     OW16194   2.899   6.247   6.065
 4287SOL    HW116195   2.848   6.231   6.149
 4287SOL    HW216196   2.842   6.225   5.986
 4288SOL     OW16197   3.445   6.345   6.384
 4288SOL    HW116198   3.438   6.271   6.451
 4288SOL    HW216199   3.387   6.421   6.412
 4289SOL     OW16200   3.164   5.600   5.990
 4289SOL    HW116201   3.099   5.553   5.930
 4289SOL    HW216202   3.244   5.628   5.936
 4290SOL     OW16203   2.216   6.272   6.135
 4290SOL    HW116204   2.218   6.173   6.124
 4290SOL    HW216205   2.127   6.300   6.172
 4291SOL     OW16206   2.525   5.753   5.678
 4291SOL    HW116207   2.604   5.797   5.636
 4291SOL    HW216208   2.554   5.668   5.722
 4292SOL     OW16209   2.163   5.619   5.803
 4292SOL    HW116210   2.208   5.708   5.794
 4292SOL    HW216211   2.216   5.559   5.862
 4293SOL     OW16212   2.696   6.165   6.236
 4293SOL    HW116213   2.610   6.215   6.225
 4293SOL    HW216214   2.694   6.084   6.178
 4294SOL     OW16215   2.843   5.742   6.238
 4294SOL    HW116216   2.798   5.799   6.169
 4294SOL    HW216217   2.793   5.655   6.246
 4295SOL     OW16218   3.282   0.150   6.487
 4295SOL    HW116219   3.306   0.141   6.390
 4295SOL    HW216220   3.235   0.236   0.002
 4296SOL     OW16221   3.677   6.393   5.999
 4296SOL    HW116222   3.753   6.388   6.064
 4296SOL    HW216223   3.679   6.314   5.938
 4297SOL     OW16224   2.287   5.857   5.767
 4297SOL    HW116225   2.379   5.832   5.737
 4297SOL    HW216226   2.276   5.956   5.762
 4298SOL     OW16227   2.643   0.147   5.942
 4298SOL    HW116228   2.551   0.152   5.981
 4298SOL    HW216229   2.704   0.210   5.990
 4299SOL     OW16230   3.427   6.382   6.109
 4299SOL    HW116231   3.433   6.352   6.204
 4299SOL    HW216232   3.518   6.388   6.069
 4300SOL     OW16233   3.135   6.106   6.133
 4300SOL    HW116234   3.110   6.009   6.123
 4300SOL    HW216235   3.057   6.163   6.108
 4301SOL     OW16236   2.122   5.652   6.183
 4301SOL    HW116237   2.205   5.696   6.150
 4301SOL    HW216238   2.142   5.601   6.266
 4302SOL     OW16239   3.554   5.947   5.978
 4302SOL    HW116240   3.619   5.875   6.003
 4302SOL    HW216241   3.502   5.974   6.059
 4303SOL     OW16242   3.356   5.867   5.806
 4303SOL    HW116243   3.384   5.780   5.767
 4303SOL    HW216244   3.427   5.901   5.868
 4304SOL     OW16245   2.713   6.172   5.879
 4304SOL    HW116246   2.729   6.125   5.792
 4304SOL    HW216247   2.623   6.216   5.877
 4305SOL     OW16248   2.271   6.138   5.728
 4305SOL    HW116249   2.335   6.199   5.775
 4305SOL    HW216250   2.178   6.170   5.741
 4306SOL     OW16251   3.348   0.121   6.228
 4306SOL    HW116252   3.365   0.037   6.177
 4306SOL    HW216253   3.374   0.200   6.171
 4307SOL     OW16254   2.105   5.965   6.394
 4307SOL    HW116255   2.021   6.006   6.361
 4307SOL    HW216256   2.086   5.910   6.476
 4308SOL     OW16257   1.869   5.878   5.612
 4308SOL    HW116258   1.788   5.842   5.565
 4308SOL    HW216259   1.906   5.955   5.559
 4309SOL     OW16260   1.917   5.743   5.841
 4309SOL    HW116261   1.897   5.799   5.760
 4309SOL    HW216262   2.006   5.698   5.828
 4310SOL     OW16263   3.080   5.838   6.121
 4310SOL    HW116264   3.116   5.759   6.073
 4310SOL    HW216265   3.003   5.810   6.179
 4311SOL     OW16266   2.474   6.318   6.228
 4311SOL    HW116267   2.476   6.395   6.290
 4311SOL    HW216268   2.379   6.302   6.198
 4312SOL     OW16269   2.191   5.992   6.139
 4312SOL    HW116270   2.107   5.964   6.092
 4312SOL    HW216271   2.178   5.986   6.238
 4313SOL     OW16272   3.305   6.020   6.328
 4313SOL    HW116273   3.255   6.065   6.254
 4313SOL    HW216274   3.243   5.958   6.377
 4314SOL     OW16275   4.015   0.664   0.144
 4314SOL    HW116276   3.925   0.669   0.187
 4314SOL    HW216277   4.004   0.646   0.046
 4315SOL     OW16278   3.676   0.428   0.506
 4315SOL    HW116279   3.635   0.393   0.590
 4315SOL    HW216280   3.727   0.354   0.461
 4316SOL     OW16281   5.342   1.567   0.752
 4316SOL    HW116282   5.266   1.531   0.806
 4316SOL    HW216283   5.327   1.547   0.655
 4317SOL     OW16284   4.895   0.795   0.687
 4317SOL    HW116285   4.965   0.856   0.725
 4317SOL    HW216286   4.805   0.823   0.720
 4318SOL     OW16287   5.492   0.528   0.221
 4318SOL    HW116288   5.488   0.508   0.123
 4318SOL    HW216289   5.421   0.478   0.269
 4319SOL     OW16290   4.410   1.109   1.048
 4319SOL    HW116291   4.415   1.209   1.045
 4319SOL    HW216292   4.416   1.072   0.956
 4320SOL     OW16293   4.298   1.231   1.796
 4320SOL    HW116294   4.369   1.301   1.796
 4320SOL    HW216295   4.217   1.265   1.843
 4321SOL     OW16296   4.112   0.406   1.580
 4321SOL    HW116297   4.164   0.382   1.498
 4321SOL    HW216298   4.054   0.328   1.606
 4322SOL     OW16299   4.846   1.292   1.766
 4322SOL    HW116300   4.886   1.318   1.854
 4322SOL    HW216301   4.810   1.199   1.772
 4323SOL     OW16302   3.876   1.127   0.878
 4323SOL    HW116303   3.939   1.051   0.891
 4323SOL    HW216304   3.782   1.092   0.873
 4324SOL     OW16305   4.374   0.949   0.235
 4324SOL    HW116306   4.389   1.045   0.259
 4324SOL    HW216307   4.462   0.907   0.211
 4325SOL     OW16308   5.309   0.189   1.462
 4325SOL    HW116309   5.391   0.247   1.459
 4325SOL    HW216310   5.302   0.145   1.552
 4326SOL     OW16311   3.833   0.659   0.508
 4326SOL    HW116312   3.779   0.575   0.521
 4326SOL    HW216313   3.838   0.709   0.594
 4327SOL     OW16314   3.755   1.508   0.130
 4327SOL    HW116315   3.733   1.410   0.131
 4327SOL    HW216316   3.756   1.542   0.224
 4328SOL     OW16317   5.012   1.208   1.552
 4328SOL    HW116318   5.003   1.111   1.574
 4328SOL    HW216319   4.974   1.263   1.626
 4329SOL     OW16320   5.321   1.106   0.062
 4329SOL    HW116321   5.272   1.029   0.022
 4329SOL    HW216322   5.392   1.071   0.124
 4330SOL     OW16323   4.827   1.892   1.676
 4330SOL    HW116324   4.851   1.923   1.584
 4330SOL    HW216325   4.891   1.822   1.706
 4331SOL     OW16326   4.083   0.244   1.840
 4331SOL    HW116327   4.131   0.328   1.868
 4331SOL    HW216328   3.985   0.253   1.861
 4332SOL     OW16329   5.161   1.426   0.907
 4332SOL    HW116330   5.113   1.411   0.994
 4332SOL    HW216331   5.213   1.345   0.884
 4333SOL     OW16332   4.347   0.714   0.386
 4333SOL    HW116333   4.349   0.802   0.338
 4333SOL    HW216334   4.254   0.696   0.419
 4334SOL     OW16335   4.994   0.412   0.909
 4334SOL    HW116336   4.902   0.429   0.942
 4334SOL    HW216337   5.026   0.324   0.942
 4335SOL     OW16338   4.484   0.650   1.451
 4335SOL    HW116339   4.444   0.610   1.533
 4335SOL    HW216340   4.490   0.580   1.379
 4336SOL     OW16341   4.670   0.839   1.519
 4336SOL    HW116342   4.745   0.789   1.562
 4336SOL    HW216343   4.599   0.775   1.490
 4337SOL     OW16344   4.802   0.757   0.422
 4337SOL    HW116345   4.849   0.782   0.507
 4337SOL    HW216346   4.714   0.715   0.444
 4338SOL     OW16347   3.838   0.794   0.739
 4338SOL    HW116348   3.895   0.832   0.812
 4338SOL    HW216349   3.749   0.838   0.739
 4339SOL     OW16350   3.755   1.899   1.608
 4339SOL    HW116351   3.797   1.866   1.693
 4339SOL    HW216352   3.708   1.985   1.626
 4340SOL     OW16353   4.268   0.254   0.936
 4340SOL    HW116354   4.307   0.238   1.027
 4340SOL    HW216355   4.242   0.350   0.927
 4341SOL     OW16356   4.055   1.686   0.938
 4341SOL    HW116357   4.083   1.611   0.878
 4341SOL    HW216358   4.113   1.766   0.922
 4342SOL     OW16359   5.470   1.166   0.769
 4342SOL    HW116360   5.429   1.145   0.680
 4342SOL    HW216361   5.400   1.159   0.841
 4343SOL     OW16362   4.078   0.921   0.231
 4343SOL    HW116363   4.176   0.940   0.225
 4343SOL    HW216364   4.060   0.827   0.204
 4344SOL     OW16365   5.252   0.720   0.606
 4344SOL    HW116366   5.180   0.656   0.632
 4344SOL    HW216367   5.332   0.706   0.665
 4345SOL     OW16368   4.889   1.767   0.040
 4345SOL    HW116369   4.789   1.768   0.038
 4345SOL    HW216370   4.923   1.675   0.019
 4346SOL     OW16371   3.919   0.197   1.563
 4346SOL    HW116372   3.830   0.227   1.529
 4346SOL    HW216373   3.906   0.137   1.642
 4347SOL     OW16374   5.171   6.470   0.380
 4347SOL    HW116375   5.144   6.479   0.285
 4347SOL    HW216376   5.245   0.033   0.400
 4348SOL     OW16377   4.791   1.755   0.994
 4348SOL    HW116378   4.842   1.686   0.943
 4348SOL    HW216379   4.693   1.744   0.976
 4349SOL     OW16380   4.103   0.634   0.462
 4349SOL    HW116381   4.111   0.535   0.476
 4349SOL    HW216382   4.007   0.661   0.473
 4350SOL     OW16383   5.221   0.304   1.779
 4350SOL    HW116384   5.186   0.309   1.873
 4350SOL    HW216385   5.233   0.208   1.753
 4351SOL     OW16386   4.308   0.150   0.045
 4351SOL    HW116387   4.364   0.101   6.478
 4351SOL    HW216388   4.231   0.193   6.498
 4352SOL     OW16389   4.509   1.577   1.207
 4352SOL    HW116390   4.490   1.516   1.129
 4352SOL    HW216391   4.577   1.533   1.266
 4353SOL     OW16392   4.485   1.390   1.000
 4353SOL    HW116393   4.583   1.374   0.985
 4353SOL    HW216394   4.441   1.409   0.912
 4354SOL     OW16395   4.257   0.088   0.500
 4354SOL    HW116396   4.163   0.062   0.482
 4354SOL    HW216397   4.292   0.145   0.425
 4355SOL     OW16398   4.838   0.633   1.617
 4355SOL    HW116399   4.790   0.545   1.611
 4355SOL    HW216400   4.932   0.617   1.647
 4356SOL     OW16401   4.916   1.556   0.843
 4356SOL    HW116402   4.899   1.561   0.744
 4356SOL    HW216403   5.008   1.520   0.859
 4357SOL     OW16404   4.085   1.406   0.744
 4357SOL    HW116405   4.024   1.404   0.823
 4357SOL    HW216406   4.044   1.355   0.669
 4358SOL     OW16407   4.897   0.448   0.022
 4358SOL    HW116408   4.813   0.480   6.478
 4358SOL    HW216409   4.914   0.503   0.103
 4359SOL     OW16410   3.714   0.614   1.506
 4359SOL    HW116411   3.645   0.564   1.453
 4359SOL    HW216412   3.749   0.690   1.452
 4360SOL     OW16413   4.334   0.216   1.208
 4360SOL    HW116414   4.373   0.135   1.251
 4360SOL    HW216415   4.247   0.239   1.251
 4361SOL     OW16416   5.262   0.479   0.923
 4361SOL    HW116417   5.163   0.465   0.918
 4361SOL    HW216418   5.287   0.510   1.015
 4362SOL     OW16419   5.562   0.775   0.325
 4362SOL    HW116420   5.626   0.756   0.400
 4362SOL    HW216421   5.527   0.689   0.288
 4363SOL     OW16422   4.134   1.429   0.178
 4363SOL    HW116423   4.077   1.364   0.229
 4363SOL    HW216424   4.076   1.481   0.115
 4364SOL     OW16425   4.269   0.273   0.286
 4364SOL    HW116426   4.292   0.216   0.207
 4364SOL    HW216427   4.266   0.369   0.258
 4365SOL     OW16428   4.813   1.276   1.385
 4365SOL    HW116429   4.739   1.209   1.397
 4365SOL    HW216430   4.891   1.249   1.441
 4366SOL     OW16431   4.864   1.154   1.090
 4366SOL    HW116432   4.788   1.107   1.134
 4366SOL    HW216433   4.829   1.229   1.033
 4367SOL     OW16434   5.290   1.181   0.972
 4367SOL    HW116435   5.328   1.215   1.058
 4367SOL    HW216436   5.218   1.115   0.992
 4368SOL     OW16437   4.079   0.820   1.283
 4368SOL    HW116438   4.145   0.823   1.358
 4368SOL    HW216439   3.986   0.816   1.320
 4369SOL     OW16440   4.915   0.401   1.362
 4369SOL    HW116441   4.994   0.462   1.360
 4369SOL    HW216442   4.854   0.424   1.285
 4370SOL     OW16443   3.846   1.491   1.397
 4370SOL    HW116444   3.829   1.457   1.304
 4370SOL    HW216445   3.814   1.586   1.404
 4371SOL     OW16446   4.032   1.088   0.452
 4371SOL    HW116447   4.128   1.108   0.472
 4371SOL    HW216448   4.028   1.015   0.384
 4372SOL     OW16449   4.941   1.401   0.383
 4372SOL    HW116450   5.007   1.475   0.374
 4372SOL    HW216451   4.852   1.437   0.411
 4373SOL     OW16452   5.052   1.355   1.139
 4373SOL    HW116453   5.034   1.410   1.220
 4373SOL    HW216454   4.987   1.278   1.136
 4374SOL     OW16455   4.082   0.677   1.596
 4374SOL    HW116456   4.156   0.733   1.558
 4374SOL    HW216457   4.104   0.580   1.583
 4375SOL     OW16458   4.845   0.041   1.921
 4375SOL    HW116459   4.872   0.099   1.844
 4375SOL    HW216460   4.841   6.446   1.890
 4376SOL     OW16461   4.271   0.078   1.733
 4376SOL    HW116462   4.236   6.493   1.693
 4376SOL    HW216463   4.194   0.133   1.767
 4377SOL     OW16464   4.242   0.866   1.077
 4377SOL    HW116465   4.294   0.951   1.085
 4377SOL    HW216466   4.183   0.856   1.157
 4378SOL     OW16467   4.951   0.598   0.253
 4378SOL    HW116468   4.986   0.525   0.312
 4378SOL    HW216469   4.886   0.654   0.305
 4379SOL     OW16470   4.086   0.213   1.343
 4379SOL    HW116471   4.029   0.206   1.424
 4379SOL    HW216472   4.095   0.122   1.301
 4380SOL     OW16473   4.311   0.596   1.119
 4380SOL    HW116474   4.253   0.557   1.047
 4380SOL    HW216475   4.292   0.693   1.128
 4381SOL     OW16476   5.435   0.951   1.769
 4381SOL    HW116477   5.432   0.869   1.713
 4381SOL    HW216478   5.371   0.941   1.846
 4382SOL     OW16479   3.937   0.005   0.658
 4382SOL    HW116480   3.977   0.089   0.696
 4382SOL    HW216481   3.969   6.426   0.711
 4383SOL     OW16482   5.290   0.368   0.333
 4383SOL    HW116483   5.322   0.287   0.383
 4383SOL    HW216484   5.201   0.396   0.368
 4384SOL     OW16485   4.670   0.909   0.806
 4384SOL    HW116486   4.690   0.873   0.897
 4384SOL    HW216487   4.573   0.934   0.802
 4385SOL     OW16488   4.783   1.566   1.734
 4385SOL    HW116489   4.697   1.594   1.690
 4385SOL    HW216490   4.793   1.467   1.727
 4386SOL     OW16491   5.605   1.557   1.626
 4386SOL    HW116492   5.633   1.551   1.530
 4386SOL    HW216493   5.663   1.498   1.682
 4387SOL     OW16494   3.878   0.839   1.654
 4387SOL    HW116495   3.886   0.873   1.748
 4387SOL    HW216496   3.951   0.773   1.636
 4388SOL     OW16497   5.272   0.222   0.104
 4388SOL    HW116498   5.212   0.144   0.121
 4388SOL    HW216499   5.274   0.281   0.184
 4389SOL     OW16500   4.751   1.355   0.940
 4389SOL    HW116501   4.719   1.305   0.860
 4389SOL    HW216502   4.809   1.432   0.911
 4390SOL     OW16503   3.986   0.887   0.957
 4390SOL    HW116504   4.079   0.877   0.992
 4390SOL    HW216505   3.921   0.894   1.033
 4391SOL     OW16506   4.929   0.233   1.725
 4391SOL    HW116507   4.858   0.293   1.688
 4391SOL    HW216508   5.013   0.285   1.739
 4392SOL     OW16509   4.958   0.143   1.465
 4392SOL    HW116510   4.936   0.157   1.562
 4392SOL    HW216511   4.960   0.232   1.419
 4393SOL     OW16512   3.710   1.238   0.147
 4393SOL    HW116513   3.613   1.259   0.157
 4393SOL    HW216514   3.728   1.145   0.177
 4394SOL     OW16515   3.856   0.508   1.707
 4394SOL    HW116516   3.949   0.494   1.674
 4394SOL    HW216517   3.800   0.549   1.635
 4395SOL     OW16518   5.050   0.960   1.684
 4395SOL    HW116519   5.095   1.039   1.727
 4395SOL    HW216520   5.096   0.940   1.597
 4396SOL     OW16521   5.336   0.524   1.201
 4396SOL    HW116522   5.323   0.429   1.228
 4396SOL    HW216523   5.429   0.538   1.169
 4397SOL     OW16524   3.946   1.546   1.812
 4397SOL    HW116525   3.889   1.577   1.888
 4397SOL    HW216526   3.996   1.464   1.838
 4398SOL     OW16527   4.492   0.444   1.240
 4398SOL    HW116528   4.451   0.352   1.240
 4398SOL    HW216529   4.429   0.508   1.196
 4399SOL     OW16530   4.596   1.775   1.586
 4399SOL    HW116531   4.571   1.833   1.508
 4399SOL    HW216532   4.678   1.811   1.629
 4400SOL     OW16533   4.255   0.535   0.191
 4400SOL    HW116534   4.310   0.592   0.253
 4400SOL    HW216535   4.164   0.575   0.180
 4401SOL     OW16536   5.474   1.769   1.091
 4401SOL    HW116537   5.551   1.772   1.027
 4401SOL    HW216538   5.433   1.678   1.089
 4402SOL     OW16539   4.427   1.729   1.790
 4402SOL    HW116540   4.346   1.788   1.783
 4402SOL    HW216541   4.488   1.748   1.712
 4403SOL     OW16542   5.133   1.604   0.364
 4403SOL    HW116543   5.208   1.557   0.412
 4403SOL    HW216544   5.118   1.693   0.406
 4404SOL     OW16545   3.850   1.837   1.861
 4404SOL    HW116546   3.805   1.761   1.907
 4404SOL    HW216547   3.913   1.881   1.924
 4405SOL     OW16548   5.512   1.815   1.356
 4405SOL    HW116549   5.491   1.809   1.259
 4405SOL    HW216550   5.427   1.823   1.408
 4406SOL     OW16551   5.533   0.190   0.940
 4406SOL    HW116552   5.513   0.095   0.919
 4406SOL    HW216553   5.484   0.250   0.876
 4407SOL     OW16554   4.635   1.037   1.181
 4407SOL    HW116555   4.549   1.064   1.138
 4407SOL    HW216556   4.628   1.050   1.280
 4408SOL     OW16557   4.630   0.847   0.208
 4408SOL    HW116558   4.687   0.831   0.127
 4408SOL    HW216559   4.683   0.826   0.290
 4409SOL     OW16560   5.404   1.281   1.207
 4409SOL    HW116561   5.492   1.286   1.255
 4409SOL    HW216562   5.331   1.264   1.273
 4410SOL     OW16563   4.668   1.209   0.732
 4410SOL    HW116564   4.657   1.110   0.741
 4410SOL    HW216565   4.744   1.228   0.670
 4411SOL     OW16566   5.548   0.349   1.441
 4411SOL    HW116567   5.589   0.439   1.426
 4411SOL    HW216568   5.541   0.300   1.354
 4412SOL     OW16569   3.841   1.151   1.870
 4412SOL    HW116570   3.798   1.143   1.780
 4412SOL    HW216571   3.873   1.061   1.900
 4413SOL     OW16572   3.785   0.226   0.356
 4413SOL    HW116573   3.786   0.257   0.261
 4413SOL    HW216574   3.865   0.167   0.372
 4414SOL     OW16575   4.267   0.838   1.478
 4414SOL    HW116576   4.269   0.924   1.529
 4414SOL    HW216577   4.359   0.798   1.476
 4415SOL     OW16578   5.256   1.925   1.007
 4415SOL    HW116579   5.302   1.977   0.935
 4415SOL    HW216580   5.322   1.863   1.050
 4416SOL     OW16581   4.364   0.545   1.669
 4416SOL    HW116582   4.391   0.590   1.754
 4416SOL    HW216583   4.281   0.492   1.684
 4417SOL     OW16584   5.370   0.760   1.359
 4417SOL    HW116585   5.348   0.673   1.314
 4417SOL    HW216586   5.423   0.818   1.298
 4418SOL     OW16587   5.040   0.415   0.438
 4418SOL    HW116588   4.967   0.346   0.438
 4418SOL    HW216589   5.040   0.464   0.525
 4419SOL     OW16590   5.492   0.283   1.708
 4419SOL    HW116591   5.521   0.317   1.619
 4419SOL    HW216592   5.399   0.315   1.728
 4420SOL     OW16593   4.384   1.349   0.111
 4420SOL    HW116594   4.294   1.384   0.138
 4420SOL    HW216595   4.397   1.361   0.013
 4421SOL     OW16596   4.845   0.814   0.022
 4421SOL    HW116597   4.817   0.905   6.491
 4421SOL    HW216598   4.933   0.821   0.069
 4422SOL     OW16599   5.606   1.536   0.808
 4422SOL    HW116600   5.511   1.555   0.782
 4422SOL    HW216601   5.609   1.457   0.869
 4423SOL     OW16602   4.060   1.317   1.906
 4423SOL    HW116603   3.983   1.254   1.898
 4423SOL    HW216604   4.077   1.337   2.003
 4424SOL     OW16605   4.461   1.453   1.758
 4424SOL    HW116606   4.446   1.425   1.663
 4424SOL    HW216607   4.443   1.551   1.767
 4425SOL     OW16608   5.535   0.201   1.219
 4425SOL    HW116609   5.526   0.102   1.231
 4425SOL    HW216610   5.534   0.224   1.122
 4426SOL     OW16611   4.118   0.368   0.507
 4426SOL    HW116612   4.164   0.319   0.432
 4426SOL    HW216613   4.095   0.303   0.579
 4427SOL     OW16614   5.359   1.528   1.090
 4427SOL    HW116615   5.287   1.511   1.023
 4427SOL    HW216616   5.373   1.445   1.145
 4428SOL     OW16617   4.592   1.577   0.667
 4428SOL    HW116618   4.618   1.671   0.689
 4428SOL    HW216619   4.493   1.566   0.677
 4429SOL     OW16620   5.074   0.181   1.018
 4429SOL    HW116621   5.137   0.115   0.975
 4429SOL    HW216622   5.031   0.138   1.097
 4430SOL     OW16623   5.090   0.010   0.107
 4430SOL    HW116624   5.107   6.498   0.009
 4430SOL    HW216625   4.991   0.020   0.122
 4431SOL     OW16626   5.035   0.557   0.673
 4431SOL    HW116627   4.978   0.639   0.678
 4431SOL    HW216628   5.019   0.502   0.755
 4432SOL     OW16629   3.787   0.976   0.229
 4432SOL    HW116630   3.886   0.987   0.229
 4432SOL    HW216631   3.763   0.879   0.228
 4433SOL     OW16632   3.904   0.633   1.948
 4433SOL    HW116633   3.827   0.615   2.010
 4433SOL    HW216634   3.884   0.593   1.859
 4434SOL     OW16635   3.914   0.270   2.893
 4434SOL    HW116636   3.985   0.215   2.937
 4434SOL    HW216637   3.827   0.220   2.895
 4435SOL     OW16638   3.755   0.394   2.478
 4435SOL    HW116639   3.671   0.429   2.518
 4435SOL    HW216640   3.735   0.350   2.390
 4436SOL     OW16641   5.386   0.548   2.094
 4436SOL    HW116642   5.451   0.623   2.083
 4436SOL    HW216643   5.416   0.490   2.170
 4437SOL     OW16644   4.569   0.785   3.732
 4437SOL    HW116645   4.493   0.850   3.736
 4437SOL    HW216646   4.643   0.824   3.675
 4438SOL     OW16647   4.409   0.913   2.538
 4438SOL    HW116648   4.478   0.900   2.609
 4438SOL    HW216649   4.350   0.989   2.562
 4439SOL     OW16650   4.496   1.198   3.694
 4439SOL    HW116651   4.521   1.259   3.770
 4439SOL    HW216652   4.445   1.250   3.625
 4440SOL     OW16653   5.218   1.471   3.228
 4440SOL    HW116654   5.236   1.533   3.304
 4440SOL    HW216655   5.163   1.394   3.261
 4441SOL     OW16656   4.223   0.349   3.441
 4441SOL    HW116657   4.311   0.311   3.413
 4441SOL    HW216658   4.200   0.317   3.533
 4442SOL     OW16659   5.273   0.457   2.620
 4442SOL    HW116660   5.177   0.483   2.630
 4442SOL    HW216661   5.331   0.532   2.651
 4443SOL     OW16662   4.046   1.128   2.906
 4443SOL    HW116663   4.017   1.067   2.980
 4443SOL    HW216664   3.983   1.204   2.898
 4444SOL     OW16665   4.307   1.681   3.338
 4444SOL    HW116666   4.224   1.734   3.356
 4444SOL    HW216667   4.384   1.743   3.323
 4445SOL     OW16668   5.300   0.077   3.405
 4445SOL    HW116669   5.380   0.116   3.358
 4445SOL    HW216670   5.271   0.139   3.478
 4446SOL     OW16671   3.878   0.632   2.480
 4446SOL    HW116672   3.851   0.536   2.473
 4446SOL    HW216673   3.835   0.673   2.561
 4447SOL     OW16674   5.524   1.837   2.177
 4447SOL    HW116675   5.604   1.802   2.225
 4447SOL    HW216676   5.551   1.873   2.088
 4448SOL     OW16677   5.343   0.952   2.603
 4448SOL    HW116678   5.383   0.878   2.548
 4448SOL    HW216679   5.246   0.934   2.618
 4449SOL     OW16680   5.369   1.134   2.302
 4449SOL    HW116681   5.460   1.100   2.283
 4449SOL    HW216682   5.367   1.178   2.392
 4450SOL     OW16683   3.794   0.773   3.518
 4450SOL    HW116684   3.894   0.777   3.518
 4450SOL    HW216685   3.759   0.823   3.439
 4451SOL     OW16686   5.069   1.252   3.295
 4451SOL    HW116687   5.046   1.183   3.227
 4451SOL    HW216688   5.127   1.211   3.366
 4452SOL     OW16689   3.958   0.958   3.105
 4452SOL    HW116690   4.041   0.903   3.111
 4452SOL    HW216691   3.891   0.912   3.046
 4453SOL     OW16692   5.304   1.080   2.032
 4453SOL    HW116693   5.260   0.990   2.025
 4453SOL    HW216694   5.325   1.099   2.128
 4454SOL     OW16695   4.140   0.266   3.687
 4454SOL    HW116696   4.143   0.338   3.756
 4454SOL    HW216697   4.055   0.216   3.694
 4455SOL     OW16698   5.106   1.482   2.748
 4455SOL    HW116699   5.082   1.497   2.844
 4455SOL    HW216700   5.101   1.385   2.727
 4456SOL     OW16701   5.010   0.383   2.885
 4456SOL    HW116702   4.924   0.335   2.871
 4456SOL    HW216703   5.082   0.318   2.907
 4457SOL     OW16704   4.434   0.684   3.321
 4457SOL    HW116705   4.467   0.635   3.402
 4457SOL    HW216706   4.383   0.620   3.263
 4458SOL     OW16707   4.773   0.879   3.573
 4458SOL    HW116708   4.858   0.828   3.584
 4458SOL    HW216709   4.740   0.869   3.479
 4459SOL     OW16710   3.719   0.720   2.685
 4459SOL    HW116711   3.737   0.685   2.777
 4459SOL    HW216712   3.673   0.808   2.692
 4460SOL     OW16713   3.813   1.868   3.517
 4460SOL    HW116714   3.782   1.960   3.541
 4460SOL    HW216715   3.783   1.803   3.586
 4461SOL     OW16716   4.589   0.289   2.159
 4461SOL    HW116717   4.500   0.323   2.130
 4461SOL    HW216718   4.604   0.198   2.120
 4462SOL     OW16719   5.096   1.090   2.348
 4462SOL    HW116720   5.194   1.103   2.329
 4462SOL    HW216721   5.048   1.177   2.335
 4463SOL     OW16722   4.225   0.253   2.869
 4463SOL    HW116723   4.258   0.262   2.963
 4463SOL    HW216724   4.249   0.335   2.817
 4464SOL     OW16725   4.736   1.437   2.310
 4464SOL    HW116726   4.691   1.526   2.300
 4464SOL    HW216727   4.701   1.391   2.391
 4465SOL     OW16728   3.958   0.902   1.912
 4465SOL    HW116729   4.057   0.912   1.903
 4465SOL    HW216730   3.935   0.808   1.936
 4466SOL     OW16731   4.877   1.727   2.189
 4466SOL    HW116732   4.780   1.713   2.209
 4466SOL    HW216733   4.899   1.684   2.101
 4467SOL     OW16734   4.179   1.639   2.190
 4467SOL    HW116735   4.175   1.713   2.258
 4467SOL    HW216736   4.263   1.646   2.137
 4468SOL     OW16737   5.258   6.495   2.278
 4468SOL    HW116738   5.187   0.008   2.210
 4468SOL    HW216739   5.266   0.077   2.334
 4469SOL     OW16740   4.656   1.765   2.854
 4469SOL    HW116741   4.730   1.814   2.808
 4469SOL    HW216742   4.650   1.672   2.818
 4470SOL     OW16743   5.112   0.141   3.653
 4470SOL    HW116744   5.157   0.205   3.715
 4470SOL    HW216745   5.145   0.048   3.670
 4471SOL     OW16746   4.395   0.131   1.977
 4471SOL    HW116747   4.480   0.084   2.000
 4471SOL    HW216748   4.361   0.097   1.889
 4472SOL     OW16749   4.621   0.304   3.609
 4472SOL    HW116750   4.710   0.260   3.593
 4472SOL    HW216751   4.597   0.296   3.706
 4473SOL     OW16752   4.608   1.494   3.105
 4473SOL    HW116753   4.617   1.436   3.025
 4473SOL    HW216754   4.682   1.475   3.169
 4474SOL     OW16755   5.141   0.606   3.324
 4474SOL    HW116756   5.222   0.631   3.377
 4474SOL    HW216757   5.138   0.662   3.241
 4475SOL     OW16758   4.132   0.011   2.243
 4475SOL    HW116759   4.089   0.014   2.333
 4475SOL    HW216760   4.168   0.101   2.220
 4476SOL     OW16761   5.123   1.166   1.852
 4476SOL    HW116762   5.201   1.145   1.911
 4476SOL    HW216763   5.056   1.218   1.904
 4477SOL     OW16764   4.034   0.003   1.980
 4477SOL    HW116765   4.074   0.091   1.954
 4477SOL    HW216766   4.064   6.479   2.072
 4478SOL     OW16767   4.777   0.287   2.354
 4478SOL    HW116768   4.703   0.282   2.286
 4478SOL    HW216769   4.855   0.335   2.314
 4479SOL     OW16770   4.877   0.670   3.370
 4479SOL    HW116771   4.822   0.589   3.350
 4479SOL    HW216772   4.974   0.647   3.364
 4480SOL     OW16773   4.932   1.650   2.611
 4480SOL    HW116774   4.963   1.644   2.517
 4480SOL    HW216775   4.985   1.588   2.669
 4481SOL     OW16776   4.254   1.124   2.616
 4481SOL    HW116777   4.286   1.127   2.711
 4481SOL    HW216778   4.166   1.077   2.612
 4482SOL     OW16779   4.287   0.226   3.144
 4482SOL    HW116780   4.351   0.224   3.221
 4482SOL    HW216781   4.236   0.140   3.141
 4483SOL     OW16782   4.506   0.300   2.468
 4483SOL    HW116783   4.467   0.360   2.398
 4483SOL    HW216784   4.606   0.296   2.456
 4484SOL     OW16785   5.136   1.214   2.696
 4484SOL    HW116786   5.089   1.129   2.673
 4484SOL    HW216787   5.219   1.222   2.642
 4485SOL     OW16788   5.382   1.211   2.568
 4485SOL    HW116789   5.375   1.113   2.583
 4485SOL    HW216790   5.458   1.248   2.622
 4486SOL     OW16791   5.155   0.583   1.950
 4486SOL    HW116792   5.080   0.601   2.015
 4486SOL    HW216793   5.238   0.561   2.001
 4487SOL     OW16794   4.207   0.260   2.119
 4487SOL    HW116795   4.278   0.208   2.072
 4487SOL    HW216796   4.186   0.342   2.066
 4488SOL     OW16797   4.820   1.383   3.260
 4488SOL    HW116798   4.747   1.360   3.325
 4488SOL    HW216799   4.907   1.350   3.296
 4489SOL     OW16800   5.300   1.631   3.454
 4489SOL    HW116801   5.319   1.729   3.447
 4489SOL    HW216802   5.385   1.580   3.446
 4490SOL     OW16803   4.856   1.307   3.006
 4490SOL    HW116804   4.834   1.332   3.101
 4490SOL    HW216805   4.773   1.312   2.950
 4491SOL     OW16806   5.272   1.156   2.936
 4491SOL    HW116807   5.308   1.242   2.971
 4491SOL    HW216808   5.209   1.175   2.860
 4492SOL     OW16809   4.659   0.120   3.215
 4492SOL    HW116810   4.663   0.088   3.121
 4492SOL    HW216811   4.752   0.135   3.249
 4493SOL     OW16812   4.766   1.148   3.635
 4493SOL    HW116813   4.671   1.173   3.649
 4493SOL    HW216814   4.771   1.054   3.601
 4494SOL     OW16815   4.376   1.023   2.286
 4494SOL    HW116816   4.389   0.976   2.374
 4494SOL    HW216817   4.465   1.040   2.244
 4495SOL     OW16818   4.182   0.771   3.106
 4495SOL    HW116819   4.186   0.798   3.202
 4495SOL    HW216820   4.190   0.672   3.098
 4496SOL     OW16821   5.059   0.373   3.185
 4496SOL    HW116822   5.089   0.447   3.245
 4496SOL    HW216823   5.045   0.407   3.093
 4497SOL     OW16824   3.818   1.663   3.159
 4497SOL    HW116825   3.759   1.706   3.090
 4497SOL    HW216826   3.911   1.697   3.149
 4498SOL     OW16827   4.264   0.493   2.721
 4498SOL    HW116828   4.283   0.548   2.639
 4498SOL    HW216829   4.326   0.521   2.795
 4499SOL     OW16830   5.003   1.362   2.302
 4499SOL    HW116831   5.056   1.441   2.329
 4499SOL    HW216832   4.905   1.382   2.310
 4500SOL     OW16833   5.048   1.506   3.011
 4500SOL    HW116834   5.110   1.495   3.089
 4500SOL    HW216835   4.980   1.433   3.013
 4501SOL     OW16836   4.062   0.714   3.528
 4501SOL    HW116837   4.121   0.766   3.467
 4501SOL    HW216838   4.047   0.623   3.491
 4502SOL     OW16839   5.368   0.736   3.421
 4502SOL    HW116840   5.296   0.799   3.452
 4502SOL    HW216841   5.435   0.786   3.366
 4503SOL     OW16842   4.318   0.061   3.628
 4503SOL    HW116843   4.276   6.489   3.573
 4503SOL    HW216844   4.254   0.138   3.636
 4504SOL     OW16845   4.364   0.872   2.922
 4504SOL    HW116846   4.343   0.969   2.905
 4504SOL    HW216847   4.296   0.833   2.983
 4505SOL     OW16848   5.028   0.911   2.878
 4505SOL    HW116849   5.043   0.928   2.781
 4505SOL    HW216850   5.049   0.815   2.899
 4506SOL     OW16851   4.956   0.658   2.122
 4506SOL    HW116852   4.950   0.568   2.167
 4506SOL    HW216853   5.005   0.722   2.181
 4507SOL     OW16854   3.736   1.361   3.182
 4507SOL    HW116855   3.807   1.299   3.215
 4507SOL    HW216856   3.773   1.454   3.178
 4508SOL     OW16857   4.428   0.584   2.914
 4508SOL    HW116858   4.522   0.550   2.916
 4508SOL    HW216859   4.429   0.684   2.914
 4509SOL     OW16860   4.032   0.017   2.498
 4509SOL    HW116861   3.986   0.097   2.535
 4509SOL    HW216862   4.035   6.445   2.568
 4510SOL     OW16863   5.471   0.390   2.307
 4510SOL    HW116864   5.514   0.324   2.245
 4510SOL    HW216865   5.396   0.347   2.355
 4511SOL     OW16866   5.544   1.523   3.416
 4511SOL    HW116867   5.566   1.545   3.321
 4511SOL    HW216868   5.624   1.539   3.474
 4512SOL     OW16869   4.136   0.832   3.767
 4512SOL    HW116870   4.228   0.870   3.757
 4512SOL    HW216871   4.111   0.783   3.683
 4513SOL     OW16872   5.149   0.262   2.043
 4513SOL    HW116873   5.122   0.166   2.045
 4513SOL    HW216874   5.247   0.269   2.062
 4514SOL     OW16875   5.193   0.856   1.912
 4514SOL    HW116876   5.182   0.758   1.930
 4514SOL    HW216877   5.125   0.886   1.845
 4515SOL     OW16878   3.970   0.803   2.859
 4515SOL    HW116879   3.996   0.848   2.774
 4515SOL    HW216880   3.990   0.705   2.852
 4516SOL     OW16881   4.008   0.522   2.833
 4516SOL    HW116882   3.977   0.431   2.859
 4516SOL    HW216883   4.097   0.516   2.787
 4517SOL     OW16884   4.912   0.166   3.308
 4517SOL    HW116885   4.898   0.180   3.406
 4517SOL    HW216886   4.963   0.244   3.271
 4518SOL     OW16887   3.689   1.370   1.960
 4518SOL    HW116888   3.593   1.343   1.970
 4518SOL    HW216889   3.743   1.291   1.930
 4519SOL     OW16890   4.671   0.836   3.314
 4519SOL    HW116891   4.753   0.778   3.317
 4519SOL    HW216892   4.590   0.778   3.309
 4520SOL     OW16893   3.749   0.579   2.923
 4520SOL    HW116894   3.841   0.560   2.889
 4520SOL    HW216895   3.740   0.543   3.016
 4521SOL     OW16896   3.831   0.523   3.619
 4521SOL    HW116897   3.893   0.479   3.554
 4521SOL    HW216898   3.810   0.616   3.589
 4522SOL     OW16899   5.156   0.907   3.460
 4522SOL    HW116900   5.188   1.002   3.470
 4522SOL    HW216901   5.137   0.889   3.363
 4523SOL     OW16902   4.007   1.542   3.608
 4523SOL    HW116903   3.925   1.580   3.652
 4523SOL    HW216904   4.044   1.468   3.664
 4524SOL     OW16905   4.296   0.513   3.142
 4524SOL    HW116906   4.278   0.415   3.156
 4524SOL    HW216907   4.345   0.526   3.057
 4525SOL     OW16908   4.150   0.482   1.959
 4525SOL    HW116909   4.215   0.541   2.007
 4525SOL    HW216910   4.061   0.527   1.954
 4526SOL     OW16911   3.929   1.167   3.304
 4526SOL    HW116912   3.898   1.135   3.394
 4526SOL    HW216913   3.929   1.090   3.240
 4527SOL     OW16914   4.990   1.081   3.084
 4527SOL    HW116915   5.005   1.021   3.005
 4527SOL    HW216916   4.938   1.162   3.055
 4528SOL     OW16917   5.465   1.721   2.951
 4528SOL    HW116918   5.535   1.769   2.899
 4528SOL    HW216919   5.428   1.646   2.897
 4529SOL     OW16920   4.993   1.770   3.086
 4529SOL    HW116921   5.081   1.815   3.074
 4529SOL    HW216922   5.000   1.674   3.058
 4530SOL     OW16923   4.341   1.635   3.606
 4530SOL    HW116924   4.326   1.730   3.633
 4530SOL    HW216925   4.340   1.628   3.506
 4531SOL     OW16926   5.060   0.956   2.599
 4531SOL    HW116927   4.988   0.887   2.602
 4531SOL    HW216928   5.062   0.999   2.509
 4532SOL     OW16929   4.608   1.305   3.404
 4532SOL    HW116930   4.521   1.333   3.445
 4532SOL    HW216931   4.596   1.216   3.359
 4533SOL     OW16932   4.417   1.639   2.046
 4533SOL    HW116933   4.425   1.673   1.953
 4533SOL    HW216934   4.400   1.540   2.044
 4534SOL     OW16935   3.922   0.236   2.622
 4534SOL    HW116936   3.854   0.294   2.576
 4534SOL    HW216937   3.913   0.247   2.721
 4535SOL     OW16938   4.942   1.597   1.953
 4535SOL    HW116939   4.957   1.502   1.982
 4535SOL    HW216940   4.881   1.598   1.873
 4536SOL     OW16941   5.133   1.770   1.821
 4536SOL    HW116942   5.080   1.699   1.867
 4536SOL    HW216943   5.214   1.729   1.779
 4537SOL     OW16944   4.096   1.351   3.423
 4537SOL    HW116945   4.059   1.440   3.448
 4537SOL    HW216946   4.027   1.299   3.373
 4538SOL     OW16947   5.388   1.383   3.028
 4538SOL    HW116948   5.482   1.362   3.056
 4538SOL    HW216949   5.338   1.419   3.106
 4539SOL     OW16950   4.764   0.262   2.835
 4539SOL    HW116951   4.783   0.239   2.739
 4539SOL    HW216952   4.736   0.179   2.883
 4540SOL     OW16953   4.469   0.238   3.372
 4540SOL    HW116954   4.535   0.191   3.313
 4540SOL    HW216955   4.510   0.251   3.463
 4541SOL     OW16956   3.830   0.315   1.900
 4541SOL    HW116957   3.745   0.264   1.907
 4541SOL    HW216958   3.820   0.386   1.829
 4542SOL     OW16959   5.140   0.873   3.190
 4542SOL    HW116960   5.076   0.942   3.157
 4542SOL    HW216961   5.226   0.880   3.138
 4543SOL     OW16962   4.947   1.320   2.026
 4543SOL    HW116963   4.855   1.287   2.047
 4543SOL    HW216964   4.999   1.329   2.110
 4544SOL     OW16965   4.217   0.848   3.363
 4544SOL    HW116966   4.220   0.942   3.328
 4544SOL    HW216967   4.308   0.808   3.357
 4545SOL     OW16968   5.250   1.880   3.016
 4545SOL    HW116969   5.257   1.955   2.951
 4545SOL    HW216970   5.319   1.811   2.995
 4546SOL     OW16971   4.548   0.561   3.539
 4546SOL    HW116972   4.549   0.628   3.613
 4546SOL    HW216973   4.569   0.471   3.575
 4547SOL     OW16974   5.256   1.163   3.481
 4547SOL    HW116975   5.252   1.171   3.580
 4547SOL    HW216976   5.347   1.188   3.449
 4548SOL     OW16977   4.065   1.769   3.472
 4548SOL    HW116978   3.976   1.815   3.472
 4548SOL    HW216979   4.057   1.681   3.519
 4549SOL     OW16980   5.380   0.938   3.048
 4549SOL    HW116981   5.437   0.902   2.975
 4549SOL    HW216982   5.331   1.019   3.016
 4550SOL     OW16983   4.320   0.656   2.509
 4550SOL    HW116984   4.351   0.749   2.528
 4550SOL    HW216985   4.233   0.659   2.460
 4551SOL     OW16986   4.388   1.801   2.833
 4551SOL    HW116987   4.353   1.724   2.781
 4551SOL    HW216988   4.487   1.790   2.847
 4552SOL     OW16989   4.812   1.018   1.820
 4552SOL    HW116990   4.786   0.952   1.890
 4552SOL    HW216991   4.889   0.982   1.767
 4553SOL     OW16992   4.364   1.370   3.524
 4553SOL    HW116993   4.278   1.363   3.474
 4553SOL    HW216994   4.369   1.458   3.571
 4554SOL     OW16995   3.990   0.307   2.281
 4554SOL    HW116996   4.057   0.288   2.209
 4554SOL    HW216997   4.038   0.326   2.367
 4555SOL     OW16998   5.377   1.508   2.790
 4555SOL    HW116999   5.282   1.508   2.760
 4555SOL    HW217000   5.387   1.455   2.874
 4556SOL     OW17001   4.574   1.529   2.721
 4556SOL    HW117002   4.616   1.529   2.630
 4556SOL    HW217003   4.476   1.543   2.712
 4557SOL     OW17004   5.199   0.205   2.988
 4557SOL    HW117005   5.250   0.119   2.998
 4557SOL    HW217006   5.169   0.237   3.078
 4558SOL     OW17007   4.700   0.020   2.957
 4558SOL    HW117008   4.621   6.480   2.911
 4558SOL    HW217009   4.769   6.450   2.973
 4559SOL     OW17010   4.347   1.556   3.102
 4559SOL    HW117011   4.325   1.595   3.191
 4559SOL    HW217012   4.445   1.537   3.097
 4560SOL     OW17013   5.079   6.499   2.064
 4560SOL    HW117014   5.109   6.405   2.050
 4560SOL    HW217015   4.989   0.012   2.022
 4561SOL     OW17016   5.021   0.543   2.653
 4561SOL    HW117017   4.959   0.621   2.643
 4561SOL    HW217018   5.002   0.498   2.741
 4562SOL     OW17019   5.379   0.250   2.775
 4562SOL    HW117020   5.320   0.235   2.855
 4562SOL    HW217021   5.342   0.323   2.719
 4563SOL     OW17022   4.607   1.675   2.245
 4563SOL    HW117023   4.549   1.656   2.166
 4563SOL    HW217024   4.559   1.739   2.306
 4564SOL     OW17025   4.247   1.193   4.836
 4564SOL    HW117026   4.193   1.198   4.921
 4564SOL    HW217027   4.260   1.284   4.799
 4565SOL     OW17028   5.363   1.384   4.388
 4565SOL    HW117029   5.309   1.352   4.466
 4565SOL    HW217030   5.313   1.457   4.342
 4566SOL     OW17031   4.505   1.156   4.731
 4566SOL    HW117032   4.417   1.153   4.779
 4566SOL    HW217033   4.529   1.251   4.712
 4567SOL     OW17034   4.680   0.709   5.517
 4567SOL    HW117035   4.648   0.755   5.600
 4567SOL    HW217036   4.700   0.777   5.447
 4568SOL     OW17037   4.398   0.974   4.361
 4568SOL    HW117038   4.474   0.980   4.426
 4568SOL    HW217039   4.322   1.030   4.394
 4569SOL     OW17040   5.144   1.553   5.009
 4569SOL    HW117041   5.174   1.647   4.990
 4569SOL    HW217042   5.069   1.556   5.074
 4570SOL     OW17043   4.174   0.432   5.236
 4570SOL    HW117044   4.268   0.399   5.225
 4570SOL    HW217045   4.110   0.360   5.207
 4571SOL     OW17046   5.304   0.371   4.526
 4571SOL    HW117047   5.213   0.391   4.490
 4571SOL    HW217048   5.326   0.437   4.598
 4572SOL     OW17049   4.794   1.327   5.359
 4572SOL    HW117050   4.888   1.293   5.363
 4572SOL    HW217051   4.732   1.257   5.396
 4573SOL     OW17052   3.928   1.081   4.657
 4573SOL    HW117053   3.989   1.032   4.720
 4573SOL    HW217054   3.841   1.100   4.702
 4574SOL     OW17055   4.355   1.831   5.146
 4574SOL    HW117056   4.270   1.795   5.184
 4574SOL    HW217057   4.397   1.893   5.212
 4575SOL     OW17058   4.380   0.974   3.798
 4575SOL    HW117059   4.418   1.055   3.754
 4575SOL    HW217060   4.369   0.991   3.896
 4576SOL     OW17061   5.245   0.236   5.214
 4576SOL    HW117062   5.201   0.149   5.190
 4576SOL    HW217063   5.242   0.247   5.313
 4577SOL     OW17064   5.540   1.900   4.132
 4577SOL    HW117065   5.548   1.800   4.139
 4577SOL    HW217066   5.591   1.932   4.053
 4578SOL     OW17067   3.777   1.664   3.695
 4578SOL    HW117068   3.709   1.600   3.730
 4578SOL    HW217069   3.826   1.706   3.771
 4579SOL     OW17070   5.396   0.923   4.396
 4579SOL    HW117071   5.419   0.876   4.311
 4579SOL    HW217072   5.432   1.016   4.394
 4580SOL     OW17073   5.523   1.167   4.341
 4580SOL    HW117074   5.547   1.145   4.246
 4580SOL    HW217075   5.463   1.246   4.344
 4581SOL     OW17076   4.357   1.362   4.508
 4581SOL    HW117077   4.315   1.272   4.494
 4581SOL    HW217078   4.346   1.417   4.425
 4582SOL     OW17079   4.985   1.275   5.126
 4582SOL    HW117080   5.012   1.202   5.063
 4582SOL    HW217081   5.035   1.264   5.212
 4583SOL     OW17082   4.717   6.377   4.304
 4583SOL    HW117083   4.772   6.451   4.343
 4583SOL    HW217084   4.650   6.346   4.371
 4584SOL     OW17085   5.431   0.999   3.885
 4584SOL    HW117086   5.380   0.917   3.911
 4584SOL    HW217087   5.483   1.032   3.964
 4585SOL     OW17088   4.993   1.835   5.263
 4585SOL    HW117089   4.969   1.898   5.189
 4585SOL    HW217090   4.980   1.741   5.233
 4586SOL     OW17091   4.010   0.248   5.468
 4586SOL    HW117092   3.990   0.346   5.470
 4586SOL    HW217093   3.998   0.210   5.560
 4587SOL     OW17094   5.219   1.314   4.607
 4587SOL    HW117095   5.151   1.358   4.665
 4587SOL    HW217096   5.210   1.215   4.612
 4588SOL     OW17097   5.542   1.617   4.155
 4588SOL    HW117098   5.454   1.599   4.110
 4588SOL    HW217099   5.534   1.597   4.253
 4589SOL     OW17100   4.317   0.683   4.011
 4589SOL    HW117101   4.405   0.731   4.007
 4589SOL    HW217102   4.245   0.749   4.035
 4590SOL     OW17103   4.946   0.408   4.726
 4590SOL    HW117104   4.851   0.392   4.751
 4590SOL    HW217105   5.004   0.339   4.769
 4591SOL     OW17106   5.293   1.578   4.028
 4591SOL    HW117107   5.229   1.645   3.990
 4591SOL    HW217108   5.316   1.510   3.958
 4592SOL     OW17109   4.580   0.596   5.099
 4592SOL    HW117110   4.573   0.547   5.186
 4592SOL    HW217111   4.535   0.543   5.027
 4593SOL     OW17112   5.101   0.461   5.457
 4593SOL    HW117113   5.109   0.530   5.528
 4593SOL    HW217114   5.164   0.386   5.476
 4594SOL     OW17115   4.714   0.915   5.305
 4594SOL    HW117116   4.761   0.840   5.258
 4594SOL    HW217117   4.653   0.961   5.240
 4595SOL     OW17118   4.680   0.343   4.804
 4595SOL    HW117119   4.610   0.404   4.842
 4595SOL    HW217120   4.655   0.248   4.821
 4596SOL     OW17121   3.879   0.848   4.401
 4596SOL    HW117122   3.908   0.821   4.493
 4596SOL    HW217123   3.876   0.948   4.395
 4597SOL     OW17124   3.777   1.766   5.262
 4597SOL    HW117125   3.819   1.741   5.350
 4597SOL    HW217126   3.681   1.788   5.277
 4598SOL     OW17127   4.576   0.301   3.897
 4598SOL    HW117128   4.646   0.371   3.887
 4598SOL    HW217129   4.596   0.244   3.977
 4599SOL     OW17130   5.374   0.698   5.452
 4599SOL    HW117131   5.395   0.785   5.497
 4599SOL    HW217132   5.330   0.716   5.364
 4600SOL     OW17133   4.652   1.457   4.232
 4600SOL    HW117134   4.657   1.513   4.149
 4600SOL    HW217135   4.634   1.515   4.311
 4601SOL     OW17136   4.931   1.570   5.176
 4601SOL    HW117137   4.925   1.470   5.185
 4601SOL    HW217138   4.842   1.610   5.192
 4602SOL     OW17139   4.126   0.881   4.032
 4602SOL    HW117140   4.045   0.929   4.065
 4602SOL    HW217141   4.117   0.866   3.933
 4603SOL     OW17142   5.197   0.728   4.461
 4603SOL    HW117143   5.200   0.682   4.550
 4603SOL    HW217144   5.274   0.792   4.454
 4604SOL     OW17145   4.293   1.178   5.609
 4604SOL    HW117146   4.337   1.264   5.633
 4604SOL    HW217147   4.203   1.196   5.569
 4605SOL     OW17148   4.867   1.633   3.978
 4605SOL    HW117149   4.776   1.668   3.999
 4605SOL    HW217150   4.861   1.536   3.954
 4606SOL     OW17151   3.973   0.245   5.194
 4606SOL    HW117152   3.913   0.322   5.173
 4606SOL    HW217153   3.973   0.228   5.293
 4607SOL     OW17154   5.329   1.417   3.805
 4607SOL    HW117155   5.272   1.480   3.753
 4607SOL    HW217156   5.297   1.323   3.791
 4608SOL     OW17157   4.269   1.736   4.143
 4608SOL    HW117158   4.279   1.823   4.190
 4608SOL    HW217159   4.284   1.749   4.045
 4609SOL     OW17160   4.641   1.705   4.641
 4609SOL    HW117161   4.664   1.618   4.683
 4609SOL    HW217162   4.598   1.690   4.552
 4610SOL     OW17163   5.227   0.217   5.488
 4610SOL    HW117164   5.305   0.159   5.512
 4610SOL    HW217165   5.142   0.166   5.502
 4611SOL     OW17166   4.358   0.136   3.885
 4611SOL    HW117167   4.433   0.202   3.882
 4611SOL    HW217168   4.340   0.102   3.793
 4612SOL     OW17169   4.600   1.487   4.909
 4612SOL    HW117170   4.590   1.457   4.814
 4612SOL    HW217171   4.649   1.417   4.961
 4613SOL     OW17172   5.067   0.591   5.219
 4613SOL    HW117173   5.081   0.542   5.305
 4613SOL    HW217174   5.134   0.665   5.212
 4614SOL     OW17175   4.591   1.406   4.648
 4614SOL    HW117176   4.674   1.379   4.599
 4614SOL    HW217177   4.513   1.402   4.585
 4615SOL     OW17178   4.633   0.508   4.584
 4615SOL    HW117179   4.632   0.478   4.488
 4615SOL    HW217180   4.660   0.431   4.642
 4616SOL     OW17181   5.249   1.161   3.754
 4616SOL    HW117182   5.313   1.101   3.803
 4616SOL    HW217183   5.156   1.126   3.764
 4617SOL     OW17184   3.936   6.444   3.912
 4617SOL    HW117185   3.948   6.350   3.944
 4617SOL    HW217186   3.950   0.007   3.989
 4618SOL     OW17187   4.822   0.712   5.170
 4618SOL    HW117188   4.746   0.652   5.147
 4618SOL    HW217189   4.903   0.657   5.190
 4619SOL     OW17190   4.201   1.132   4.471
 4619SOL    HW117191   4.145   1.085   4.540
 4619SOL    HW217192   4.142   1.190   4.414
 4620SOL     OW17193   4.767   0.490   3.861
 4620SOL    HW117194   4.782   0.566   3.798
 4620SOL    HW217195   4.831   0.496   3.937
 4621SOL     OW17196   3.860   0.485   5.129
 4621SOL    HW117197   3.932   0.510   5.064
 4621SOL    HW217198   3.858   0.551   5.204
 4622SOL     OW17199   4.232   0.302   4.966
 4622SOL    HW117200   4.278   0.265   5.046
 4622SOL    HW217201   4.161   0.238   4.936
 4623SOL     OW17202   4.600   0.412   4.333
 4623SOL    HW117203   4.558   0.448   4.250
 4623SOL    HW217204   4.572   0.317   4.345
 4624SOL     OW17205   4.643   0.066   4.592
 4624SOL    HW117206   4.721   0.095   4.537
 4624SOL    HW217207   4.634   6.467   4.589
 4625SOL     OW17208   5.212   1.043   4.625
 4625SOL    HW117209   5.152   0.977   4.671
 4625SOL    HW217210   5.252   1.001   4.544
 4626SOL     OW17211   5.188   0.598   4.712
 4626SOL    HW117212   5.104   0.545   4.719
 4626SOL    HW217213   5.258   0.560   4.772
 4627SOL     OW17214   5.494   0.805   4.161
 4627SOL    HW117215   5.537   0.726   4.205
 4627SOL    HW217216   5.428   0.774   4.094
 4628SOL     OW17217   4.187   1.408   3.904
 4628SOL    HW117218   4.137   1.368   3.980
 4628SOL    HW217219   4.165   1.360   3.820
 4629SOL     OW17220   4.189   0.269   4.056
 4629SOL    HW117221   4.252   0.211   4.004
 4629SOL    HW217222   4.170   0.353   4.005
 4630SOL     OW17223   4.717   1.294   5.069
 4630SOL    HW117224   4.679   1.322   5.158
 4630SOL    HW217225   4.816   1.283   5.077
 4631SOL     OW17226   4.849   1.233   4.810
 4631SOL    HW117227   4.765   1.238   4.865
 4631SOL    HW217228   4.828   1.255   4.715
 4632SOL     OW17229   5.331   1.080   4.881
 4632SOL    HW117230   5.314   1.168   4.924
 4632SOL    HW217231   5.294   1.080   4.788
 4633SOL     OW17232   4.591   0.085   5.121
 4633SOL    HW117233   4.583   0.091   5.022
 4633SOL    HW217234   4.673   0.134   5.151
 4634SOL     OW17235   4.625   1.127   5.462
 4634SOL    HW117236   4.530   1.149   5.437
 4634SOL    HW217237   4.653   1.044   5.414
 4635SOL     OW17238   4.456   1.022   4.095
 4635SOL    HW117239   4.424   1.001   4.188
 4635SOL    HW217240   4.504   0.943   4.058
 4636SOL     OW17241   4.144   0.791   5.019
 4636SOL    HW117242   4.239   0.804   5.047
 4636SOL    HW217243   4.127   0.694   5.001
 4637SOL     OW17244   4.964   0.410   5.041
 4637SOL    HW117245   5.012   0.471   5.105
 4637SOL    HW217246   4.923   0.464   4.968
 4638SOL     OW17247   4.369   0.583   4.604
 4638SOL    HW117248   4.344   0.630   4.520
 4638SOL    HW217249   4.462   0.547   4.597
 4639SOL     OW17250   5.048   1.423   4.783
 4639SOL    HW117251   5.081   1.473   4.863
 4639SOL    HW217252   4.978   1.358   4.810
 4640SOL     OW17253   5.319   0.556   4.264
 4640SOL    HW117254   5.256   0.601   4.327
 4640SOL    HW217255   5.413   0.575   4.291
 4641SOL     OW17256   4.846   0.019   5.469
 4641SOL    HW117257   4.848   0.117   5.446
 4641SOL    HW217258   4.854   6.466   5.384
 4642SOL     OW17259   4.241   0.108   5.425
 4642SOL    HW117260   4.207   0.016   5.407
 4642SOL    HW217261   4.164   0.171   5.438
 4643SOL     OW17262   4.125   0.947   4.792
 4643SOL    HW117263   4.182   1.028   4.799
 4643SOL    HW217264   4.140   0.888   4.871
 4644SOL     OW17265   5.074   0.852   4.764
 4644SOL    HW117266   4.989   0.825   4.809
 4644SOL    HW217267   5.133   0.771   4.754
 4645SOL     OW17268   4.012   0.106   4.965
 4645SOL    HW117269   3.994   0.154   5.051
 4645SOL    HW217270   4.052   0.016   4.985
 4646SOL     OW17271   3.697   1.284   4.973
 4646SOL    HW117272   3.752   1.238   5.043
 4646SOL    HW217273   3.621   1.332   5.016
 4647SOL     OW17274   5.409   0.934   5.609
 4647SOL    HW117275   5.310   0.939   5.596
 4647SOL    HW217276   5.430   0.930   5.707
 4648SOL     OW17277   5.327   0.307   4.138
 4648SOL    HW117278   5.412   0.262   4.162
 4648SOL    HW217279   5.322   0.396   4.184
 4649SOL     OW17280   4.787   1.579   5.461
 4649SOL    HW117281   4.751   1.643   5.393
 4649SOL    HW217282   4.784   1.486   5.423
 4650SOL     OW17283   5.261   0.262   3.852
 4650SOL    HW117284   5.212   0.198   3.912
 4650SOL    HW217285   5.319   0.322   3.908
 4651SOL     OW17286   5.039   0.787   3.671
 4651SOL    HW117287   5.106   0.725   3.711
 4651SOL    HW217288   5.078   0.829   3.589
 4652SOL     OW17289   4.827   1.317   4.547
 4652SOL    HW117290   4.824   1.238   4.485
 4652SOL    HW217291   4.909   1.371   4.529
 4653SOL     OW17292   3.977   0.757   4.643
 4653SOL    HW117293   4.038   0.824   4.684
 4653SOL    HW217294   4.022   0.667   4.644
 4654SOL     OW17295   4.117   0.524   4.681
 4654SOL    HW117296   4.105   0.432   4.645
 4654SOL    HW217297   4.210   0.556   4.661
 4655SOL     OW17298   4.877   0.296   5.448
 4655SOL    HW117299   4.812   0.341   5.509
 4655SOL    HW217300   4.957   0.354   5.436
 4656SOL     OW17301   4.818   0.222   5.186
 4656SOL    HW117302   4.828   0.256   5.280
 4656SOL    HW217303   4.867   0.282   5.123
 4657SOL     OW17304   3.870   1.858   4.754
 4657SOL    HW117305   3.832   1.793   4.688
 4657SOL    HW217306   3.859   1.822   4.847
 4658SOL     OW17307   4.277   1.458   4.753
 4658SOL    HW117308   4.320   1.547   4.770
 4658SOL    HW217309   4.298   1.427   4.661
 4659SOL     OW17310   4.862   0.760   4.900
 4659SOL    HW117311   4.846   0.757   4.998
 4659SOL    HW217312   4.778   0.735   4.852
 4660SOL     OW17313   3.994   0.526   5.417
 4660SOL    HW117314   4.068   0.500   5.355
 4660SOL    HW217315   3.959   0.616   5.391
 4661SOL     OW17316   4.941   0.998   5.444
 4661SOL    HW117317   4.982   1.082   5.408
 4661SOL    HW217318   4.866   0.970   5.385
 4662SOL     OW17319   4.460   0.470   4.102
 4662SOL    HW117320   4.482   0.419   4.019
 4662SOL    HW217321   4.401   0.547   4.080
 4663SOL     OW17322   5.407   0.496   4.855
 4663SOL    HW117323   5.393   0.472   4.951
 4663SOL    HW217324   5.451   0.585   4.848
 4664SOL     OW17325   4.050   1.522   5.396
 4664SOL    HW117326   3.991   1.584   5.447
 4664SOL    HW217327   4.048   1.432   5.439
 4665SOL     OW17328   4.444   0.470   4.887
 4665SOL    HW117329   4.370   0.407   4.908
 4665SOL    HW217330   4.417   0.530   4.812
 4666SOL     OW17331   4.697   1.704   5.227
 4666SOL    HW117332   4.614   1.656   5.198
 4666SOL    HW217333   4.697   1.796   5.189
 4667SOL     OW17334   4.145   0.476   3.888
 4667SOL    HW117335   4.203   0.554   3.912
 4667SOL    HW217336   4.050   0.506   3.883
 4668SOL     OW17337   3.870   1.139   5.143
 4668SOL    HW117338   3.954   1.189   5.121
 4668SOL    HW217339   3.884   1.041   5.126
 4669SOL     OW17340   5.024   1.074   4.946
 4669SOL    HW117341   5.056   0.991   4.901
 4669SOL    HW217342   4.961   1.123   4.886
 4670SOL     OW17343   5.400   1.712   4.820
 4670SOL    HW117344   5.495   1.736   4.836
 4670SOL    HW217345   5.393   1.617   4.791
 4671SOL     OW17346   3.673   1.160   4.735
 4671SOL    HW117347   3.682   1.212   4.819
 4671SOL    HW217348   3.641   1.220   4.661
 4672SOL     OW17349   5.545   0.133   4.190
 4672SOL    HW117350   5.621   0.170   4.137
 4672SOL    HW217351   5.546   0.033   4.185
 4673SOL     OW17352   3.888   1.718   5.508
 4673SOL    HW117353   3.830   1.665   5.570
 4673SOL    HW217354   3.896   1.811   5.542
 4674SOL     OW17355   4.959   0.847   4.379
 4674SOL    HW117356   5.034   0.803   4.428
 4674SOL    HW217357   4.993   0.889   4.296
 4675SOL     OW17358   4.383   1.598   3.877
 4675SOL    HW117359   4.381   1.615   3.779
 4675SOL    HW217360   4.311   1.534   3.902
 4676SOL     OW17361   5.609   0.092   4.573
 4676SOL    HW117362   5.617   6.495   4.549
 4676SOL    HW217363   5.513   0.114   4.592
 4677SOL     OW17364   4.559   1.055   5.131
 4677SOL    HW117365   4.615   1.117   5.076
 4677SOL    HW217366   4.490   1.108   5.181
 4678SOL     OW17367   5.312   1.334   5.007
 4678SOL    HW117368   5.361   1.323   5.094
 4678SOL    HW217369   5.244   1.406   5.017
 4679SOL     OW17370   4.806   1.089   4.393
 4679SOL    HW117371   4.717   1.068   4.434
 4679SOL    HW217372   4.864   1.007   4.397
 4680SOL     OW17373   4.339   1.508   4.277
 4680SOL    HW117374   4.365   1.435   4.214
 4680SOL    HW217375   4.302   1.585   4.226
 4681SOL     OW17376   3.996   1.304   4.089
 4681SOL    HW117377   3.947   1.219   4.067
 4681SOL    HW217378   3.931   1.380   4.090
 4682SOL     OW17379   4.356   0.212   5.192
 4682SOL    HW117380   4.448   0.177   5.176
 4682SOL    HW217381   4.321   0.176   5.279
 4683SOL     OW17382   3.799   0.282   3.952
 4683SOL    HW117383   3.828   0.376   3.934
 4683SOL    HW217384   3.867   0.236   4.009
 4684SOL     OW17385   4.410   0.821   5.076
 4684SOL    HW117386   4.463   0.905   5.089
 4684SOL    HW217387   4.471   0.742   5.082
 4685SOL     OW17388   4.592   0.501   5.354
 4685SOL    HW117389   4.628   0.577   5.408
 4685SOL    HW217390   4.541   0.438   5.413
 4686SOL     OW17391   5.073   1.240   5.391
 4686SOL    HW117392   5.079   1.272   5.486
 4686SOL    HW217393   5.164   1.212   5.360
 4687SOL     OW17394   4.122   1.728   5.235
 4687SOL    HW117395   4.035   1.774   5.220
 4687SOL    HW217396   4.108   1.647   5.292
 4688SOL     OW17397   5.317   0.820   4.969
 4688SOL    HW117398   5.390   0.777   4.915
 4688SOL    HW217399   5.307   0.916   4.940
 4689SOL     OW17400   4.316   0.706   4.370
 4689SOL    HW117401   4.346   0.800   4.354
 4689SOL    HW217402   4.221   0.696   4.340
 4690SOL     OW17403   4.552   1.375   3.893
 4690SOL    HW117404   4.506   1.343   3.975
 4690SOL    HW217405   4.517   1.465   3.868
 4691SOL     OW17406   4.388   1.701   4.765
 4691SOL    HW117407   4.346   1.791   4.760
 4691SOL    HW217408   4.482   1.706   4.731
 4692SOL     OW17409   5.002   1.052   3.761
 4692SOL    HW117410   4.918   1.096   3.728
 4692SOL    HW217411   5.001   0.955   3.737
 4693SOL     OW17412   5.575   1.543   4.452
 4693SOL    HW117413   5.496   1.488   4.425
 4693SOL    HW217414   5.606   1.514   4.543
 4694SOL     OW17415   4.044   1.283   5.534
 4694SOL    HW117416   4.008   1.190   5.528
 4694SOL    HW217417   4.018   1.322   5.623
 4695SOL     OW17418   3.851   1.118   4.406
 4695SOL    HW117419   3.875   1.106   4.502
 4695SOL    HW217420   3.914   1.183   4.363
 4696SOL     OW17421   5.361   0.138   4.902
 4696SOL    HW117422   5.418   0.212   4.937
 4696SOL    HW217423   5.366   0.136   4.803
 4697SOL     OW17424   4.281   0.348   4.318
 4697SOL    HW117425   4.247   0.319   4.228
 4697SOL    HW217426   4.324   0.438   4.309
 4698SOL     OW17427   5.396   1.443   4.774
 4698SOL    HW117428   5.339   1.403   4.702
 4698SOL    HW217429   5.373   1.401   4.861
 4699SOL     OW17430   4.074   0.533   4.952
 4699SOL    HW117431   4.134   0.459   4.983
 4699SOL    HW217432   4.073   0.535   4.852
 4700SOL     OW17433   4.543   1.662   4.392
 4700SOL    HW117434   4.557   1.740   4.332
 4700SOL    HW217435   4.462   1.612   4.362
 4701SOL     OW17436   5.101   0.240   4.870
 4701SOL    HW117437   5.192   0.203   4.891
 4701SOL    HW217438   5.065   0.287   4.951
 4702SOL     OW17439   4.450   1.296   4.133
 4702SOL    HW117440   4.453   1.197   4.123
 4702SOL    HW217441   4.534   1.327   4.180
 4703SOL     OW17442   4.470   1.585   5.128
 4703SOL    HW117443   4.422   1.672   5.119
 4703SOL    HW217444   4.506   1.557   5.039
 4704SOL     OW17445   5.223   6.403   3.738
 4704SOL    HW117446   5.199   6.318   3.691
 4704SOL    HW217447   5.221   6.388   3.837
 4705SOL     OW17448   5.043   0.440   4.472
 4705SOL    HW117449   4.989   0.505   4.417
 4705SOL    HW217450   4.998   0.427   4.561
 4706SOL     OW17451   5.341   0.122   4.630
 4706SOL    HW117452   5.268   0.057   4.610
 4706SOL    HW217453   5.320   0.210   4.589
 4707SOL     OW17454   4.599   1.666   4.046
 4707SOL    HW117455   4.522   1.651   3.985
 4707SOL    HW217456   4.583   1.747   4.103
 4708SOL     OW17457   4.911   0.704   6.276
 4708SOL    HW117458   4.958   0.783   6.236
 4708SOL    HW217459   4.873   0.729   6.365
 4709SOL     OW17460   5.602   0.757   5.773
 4709SOL    HW117461   5.652   0.792   5.693
 4709SOL    HW217462   5.530   0.695   5.742
 4710SOL     OW17463   5.344   0.527   6.180
 4710SOL    HW117464   5.251   0.503   6.207
 4710SOL    HW217465   5.342   0.603   6.115
 4711SOL     OW17466   3.999   1.654   6.066
 4711SOL    HW117467   3.995   1.736   6.123
 4711SOL    HW217468   4.077   1.660   6.004
 4712SOL     OW17469   3.952   1.382   6.044
 4712SOL    HW117470   3.963   1.480   6.063
 4712SOL    HW217471   3.924   1.335   6.127
 4713SOL     OW17472   4.346   0.987   5.796
 4713SOL    HW117473   4.326   1.049   5.720
 4713SOL    HW217474   4.434   1.012   5.836
 4714SOL     OW17475   3.937   0.630   6.385
 4714SOL    HW117476   3.849   0.600   6.421
 4714SOL    HW217477   3.934   0.728   6.365
 4715SOL     OW17478   5.658   1.720   5.828
 4715SOL    HW117479   5.700   1.704   5.917
 4715SOL    HW217480   5.614   1.810   5.827
 4716SOL     OW17481   3.739   1.596   5.690
 4716SOL    HW117482   3.717   1.499   5.696
 4716SOL    HW217483   3.744   1.635   5.782
 4717SOL     OW17484   5.387   1.262   6.044
 4717SOL    HW117485   5.464   1.198   6.047
 4717SOL    HW217486   5.400   1.334   6.112
 4718SOL     OW17487   4.384   1.389   6.336
 4718SOL    HW117488   4.353   1.296   6.315
 4718SOL    HW217489   4.336   1.454   6.276
 4719SOL     OW17490   5.228   0.949   5.869
 4719SOL    HW117491   5.182   0.945   5.780
 4719SOL    HW217492   5.187   1.023   5.923
 4720SOL     OW17493   4.294   0.732   5.892
 4720SOL    HW117494   4.325   0.820   5.854
 4720SOL    HW217495   4.195   0.736   5.907
 4721SOL     OW17496   5.070   0.263   6.421
 4721SOL    HW117497   4.997   0.316   6.463
 4721SOL    HW217498   5.151   0.265   6.480
 4722SOL     OW17499   4.797   0.615   6.034
 4722SOL    HW117500   4.833   0.643   6.123
 4722SOL    HW217501   4.697   0.610   6.037
 4723SOL     OW17502   3.820   1.027   6.328
 4723SOL    HW117503   3.902   0.969   6.331
 4723SOL    HW217504   3.762   1.004   6.407
 4724SOL     OW17505   4.586   0.399   5.858
 4724SOL    HW117506   4.635   0.405   5.771
 4724SOL    HW217507   4.576   0.302   5.884
 4725SOL     OW17508   5.133   1.149   6.047
 4725SOL    HW117509   5.225   1.186   6.058
 4725SOL    HW217510   5.067   1.224   6.044
 4726SOL     OW17511   4.697   1.465   6.031
 4726SOL    HW117512   4.685   1.556   5.991
 4726SOL    HW217513   4.676   1.469   6.129
 4727SOL     OW17514   4.063   0.973   5.796
 4727SOL    HW117515   4.161   0.987   5.807
 4727SOL    HW217516   4.034   0.896   5.854
 4728SOL     OW17517   4.892   1.750   5.840
 4728SOL    HW117518   4.796   1.732   5.861
 4728SOL    HW217519   4.924   1.687   5.769
 4729SOL     OW17520   4.420   0.118   5.635
 4729SOL    HW117521   4.491   0.048   5.636
 4729SOL    HW217522   4.360   0.104   5.556
 4730SOL     OW17523   4.291   0.112   6.074
 4730SOL    HW117524   4.208   0.099   6.129
 4730SOL    HW217525   4.268   0.163   5.991
 4731SOL     OW17526   4.022   0.125   5.717
 4731SOL    HW117527   4.099   0.167   5.766
 4731SOL    HW217528   4.043   0.030   5.698
 4732SOL     OW17529   4.699   0.228   6.181
 4732SOL    HW117530   4.645   0.204   6.100
 4732SOL    HW217531   4.789   0.262   6.153
 4733SOL     OW17532   5.135   1.856   6.206
 4733SOL    HW117533   5.093   1.939   6.170
 4733SOL    HW217534   5.126   1.855   6.306
 4734SOL     OW17535   4.759   0.459   5.639
 4734SOL    HW117536   4.732   0.544   5.594
 4734SOL    HW217537   4.830   0.479   5.707
 4735SOL     OW17538   4.505   0.430   6.260
 4735SOL    HW117539   4.503   0.492   6.181
 4735SOL    HW217540   4.576   0.361   6.246
 4736SOL     OW17541   4.684   0.044   6.391
 4736SOL    HW117542   4.704   0.106   6.315
 4736SOL    HW217543   4.711   6.451   6.364
 4737SOL     OW17544   5.603   0.819   6.033
 4737SOL    HW117545   5.659   0.750   6.079
 4737SOL    HW217546   5.610   0.807   5.934
 4738SOL     OW17547   4.194   1.520   5.818
 4738SOL    HW117548   4.104   1.482   5.795
 4738SOL    HW217549   4.264   1.479   5.759
 4739SOL     OW17550   5.476   1.431   6.277
 4739SOL    HW117551   5.402   1.382   6.324
 4739SOL    HW217552   5.515   1.499   6.339
 4740SOL     OW17553   5.128   0.637   5.670
 4740SOL    HW117554   5.061   0.597   5.733
 4740SOL    HW217555   5.219   0.632   5.711
 4741SOL     OW17556   4.255   0.234   5.827
 4741SOL    HW117557   4.323   0.190   5.768
 4741SOL    HW217558   4.261   0.333   5.817
 4742SOL     OW17559   4.282   0.440   6.427
 4742SOL    HW117560   4.366   0.441   6.373
 4742SOL    HW217561   4.299   0.485   0.015
 4743SOL     OW17562   4.963   1.368   6.040
 4743SOL    HW117563   5.010   1.456   6.047
 4743SOL    HW217564   4.864   1.384   6.038
 4744SOL     OW17565   5.337   0.737   6.001
 4744SOL    HW117566   5.285   0.808   5.954
 4744SOL    HW217567   5.433   0.766   6.009
 4745SOL     OW17568   4.951   0.504   5.831
 4745SOL    HW117569   5.001   0.422   5.860
 4745SOL    HW217570   4.899   0.541   5.908
 4746SOL     OW17571   4.080   0.068   6.265
 4746SOL    HW117572   4.077   0.153   6.317
 4746SOL    HW217573   4.124   6.497   6.320
 4747SOL     OW17574   5.135   0.903   5.609
 4747SOL    HW117575   5.125   0.805   5.623
 4747SOL    HW217576   5.060   0.936   5.552
 4748SOL     OW17577   3.705   1.321   5.694
 4748SOL    HW117578   3.620   1.345   5.647
 4748SOL    HW217579   3.706   1.223   5.714
 4749SOL     OW17580   4.503   0.590   6.026
 4749SOL    HW117581   4.531   0.517   5.964
 4749SOL    HW217582   4.435   0.649   5.981
 4750SOL     OW17583   5.544   0.165   6.009
 4750SOL    HW117584   5.624   0.198   5.958
 4750SOL    HW217585   5.550   0.066   6.019
 4751SOL     OW17586   5.037   1.634   6.053
 4751SOL    HW117587   4.988   1.679   5.978
 4751SOL    HW217588   5.071   1.703   6.117
 4752SOL     OW17589   5.032   0.953   6.214
 4752SOL    HW117590   5.089   0.938   6.295
 4752SOL    HW217591   5.078   1.017   6.153
 4753SOL     OW17592   4.381   1.733   5.784
 4753SOL    HW117593   4.373   1.750   5.686
 4753SOL    HW217594   4.313   1.664   5.812
 4754SOL     OW17595   5.546   0.184   0.090
 4754SOL    HW117596   5.575   0.119   0.020
 4754SOL    HW217597   5.448   0.200   0.082
 4755SOL     OW17598   4.986   1.572   5.644
 4755SOL    HW117599   5.012   1.477   5.657
 4755SOL    HW217600   4.913   1.578   5.577
 4756SOL     OW17601   5.213   1.716   5.581
 4756SOL    HW117602   5.135   1.655   5.591
 4756SOL    HW217603   5.266   1.690   5.501
 4757SOL     OW17604   4.284   1.351   6.038
 4757SOL    HW117605   4.370   1.340   5.989
 4757SOL    HW217606   4.220   1.404   5.982
 4758SOL     OW17607   3.960   1.373   5.777
 4758SOL    HW117608   3.867   1.360   5.742
 4758SOL    HW217609   3.958   1.366   5.877
 4759SOL     OW17610   3.786   0.447   5.582
 4759SOL    HW117611   3.700   0.468   5.536
 4759SOL    HW217612   3.862   0.487   5.531
 4760SOL     OW17613   3.765   0.220   5.730
 4760SOL    HW117614   3.764   0.308   5.683
 4760SOL    HW217615   3.859   0.186   5.736
 4761SOL     OW17616   4.942   0.310   6.087
 4761SOL    HW117617   4.999   0.286   6.008
 4761SOL    HW217618   4.988   0.382   6.140
 4762SOL     OW17619   4.172   0.700   6.172
 4762SOL    HW117620   4.272   0.696   6.163
 4762SOL    HW217621   4.136   0.608   6.184
 4763SOL     OW17622   4.050   0.464   6.204
 4763SOL    HW117623   4.078   0.375   6.242
 4763SOL    HW217624   4.000   0.515   6.273
 4764SOL     OW17625   4.515   1.323   5.890
 4764SOL    HW117626   4.536   1.226   5.890
 4764SOL    HW217627   4.585   1.373   5.941
 4765SOL     OW17628   5.080   0.485   6.246
 4765SOL    HW117629   5.019   0.563   6.265
 4765SOL    HW217630   5.071   0.418   6.320
 4766SOL     OW17631   3.783   1.078   5.839
 4766SOL    HW117632   3.879   1.104   5.834
 4766SOL    HW217633   3.773   0.981   5.818
 4767SOL     OW17634   4.626   1.711   5.919
 4767SOL    HW117635   4.547   1.699   5.859
 4767SOL    HW217636   4.606   1.783   5.986
 4768SOL     OW17637   3.846   2.091   1.052
 4768SOL    HW117638   3.855   2.103   1.151
 4768SOL    HW217639   3.858   1.995   1.029
 4769SOL     OW17640   4.229   3.138   1.190
 4769SOL    HW117641   4.164   3.167   1.119
 4769SOL    HW217642   4.271   3.218   1.231
 4770SOL     OW17643   5.594   2.366   0.261
 4770SOL    HW117644   5.635   2.290   0.211
 4770SOL    HW217645   5.519   2.332   0.318
 4771SOL     OW17646   4.372   2.978   1.013
 4771SOL    HW117647   4.324   3.030   1.084
 4771SOL    HW217648   4.419   3.041   0.951
 4772SOL     OW17649   4.672   2.558   1.900
 4772SOL    HW117650   4.652   2.518   1.989
 4772SOL    HW217651   4.722   2.643   1.913
 4773SOL     OW17652   4.379   2.851   0.648
 4773SOL    HW117653   4.446   2.838   0.721
 4773SOL    HW217654   4.318   2.926   0.671
 4774SOL     OW17655   4.072   3.242   0.995
 4774SOL    HW117656   3.973   3.252   0.983
 4774SOL    HW217657   4.118   3.320   0.952
 4775SOL     OW17658   5.171   3.256   1.411
 4775SOL    HW117659   5.226   3.335   1.439
 4775SOL    HW217660   5.079   3.265   1.448
 4776SOL     OW17661   5.426   2.361   0.732
 4776SOL    HW117662   5.378   2.404   0.656
 4776SOL    HW217663   5.423   2.421   0.812
 4777SOL     OW17664   4.745   3.163   1.670
 4777SOL    HW117665   4.763   3.120   1.759
 4777SOL    HW217666   4.680   3.238   1.682
 4778SOL     OW17667   3.866   3.364   0.462
 4778SOL    HW117668   3.793   3.433   0.467
 4778SOL    HW217669   3.852   3.296   0.534
 4779SOL     OW17670   4.223   3.610   1.425
 4779SOL    HW117671   4.137   3.644   1.464
 4779SOL    HW217672   4.286   3.687   1.413
 4780SOL     OW17673   4.230   2.946   0.206
 4780SOL    HW117674   4.270   2.987   0.124
 4780SOL    HW217675   4.302   2.914   0.267
 4781SOL     OW17676   5.595   3.596   0.293
 4781SOL    HW117677   5.670   3.567   0.352
 4781SOL    HW217678   5.601   3.695   0.277
 4782SOL     OW17679   3.727   3.469   0.172
 4782SOL    HW117680   3.720   3.370   0.164
 4782SOL    HW217681   3.709   3.496   0.267
 4783SOL     OW17682   5.413   2.779   0.777
 4783SOL    HW117683   5.502   2.740   0.802
 4783SOL    HW217684   5.418   2.816   0.684
 4784SOL     OW17685   5.466   2.915   0.540
 4784SOL    HW117686   5.546   2.904   0.481
 4784SOL    HW217687   5.480   2.994   0.599
 4785SOL     OW17688   3.855   2.875   1.194
 4785SOL    HW117689   3.926   2.814   1.230
 4785SOL    HW217690   3.773   2.822   1.173
 4786SOL     OW17691   5.279   2.916   0.341
 4786SOL    HW117692   5.234   2.827   0.335
 4786SOL    HW217693   5.348   2.913   0.415
 4787SOL     OW17694   4.961   3.714   1.634
 4787SOL    HW117695   4.978   3.796   1.579
 4787SOL    HW217696   4.972   3.633   1.576
 4788SOL     OW17697   4.056   2.122   1.789
 4788SOL    HW117698   4.066   2.135   1.690
 4788SOL    HW217699   3.959   2.125   1.814
 4789SOL     OW17700   5.141   3.415   0.932
 4789SOL    HW117701   5.105   3.388   1.022
 4789SOL    HW217702   5.162   3.333   0.879
 4790SOL     OW17703   5.309   3.583   0.293
 4790SOL    HW117704   5.409   3.581   0.302
 4790SOL    HW217705   5.284   3.567   0.197
 4791SOL     OW17706   4.735   2.800   1.443
 4791SOL    HW117707   4.764   2.731   1.509
 4791SOL    HW217708   4.635   2.799   1.436
 4792SOL     OW17709   4.761   2.306   1.158
 4792SOL    HW117710   4.696   2.357   1.214
 4792SOL    HW217711   4.738   2.317   1.061
 4793SOL     OW17712   3.766   3.692   1.653
 4793SOL    HW117713   3.764   3.706   1.752
 4793SOL    HW217714   3.681   3.725   1.613
 4794SOL     OW17715   5.438   2.431   1.821
 4794SOL    HW117716   5.392   2.508   1.777
 4794SOL    HW217717   5.534   2.430   1.795
 4795SOL     OW17718   4.926   3.299   1.512
 4795SOL    HW117719   4.878   3.232   1.568
 4795SOL    HW217720   4.862   3.370   1.483
 4796SOL     OW17721   5.194   2.612   0.774
 4796SOL    HW117722   5.175   2.575   0.865
 4796SOL    HW217723   5.267   2.679   0.780
 4797SOL     OW17724   4.152   3.066   1.865
 4797SOL    HW117725   4.105   3.083   1.778
 4797SOL    HW217726   4.110   2.988   1.911
 4798SOL     OW17727   4.875   3.763   0.187
 4798SOL    HW117728   4.843   3.781   0.280
 4798SOL    HW217729   4.889   3.665   0.175
 4799SOL     OW17730   4.025   3.400   1.274
 4799SOL    HW117731   4.121   3.375   1.285
 4799SOL    HW217732   4.015   3.456   1.192
 4800SOL     OW17733   4.191   2.401   0.502
 4800SOL    HW117734   4.200   2.302   0.504
 4800SOL    HW217735   4.101   2.426   0.466
 4801SOL     OW17736   5.303   2.188   1.752
 4801SOL    HW117737   5.341   2.270   1.795
 4801SOL    HW217738   5.266   2.127   1.821
 4802SOL     OW17739   4.567   3.428   1.229
 4802SOL    HW117740   4.615   3.484   1.162
 4802SOL    HW217741   4.570   3.332   1.201
 4803SOL     OW17742   4.507   3.201   0.903
 4803SOL    HW117743   4.596   3.241   0.879
 4803SOL    HW217744   4.436   3.239   0.843
 4804SOL     OW17745   4.691   2.377   0.903
 4804SOL    HW117746   4.607   2.362   0.851
 4804SOL    HW217747   4.765   2.324   0.863
 4805SOL     OW17748   5.109   3.054   6.483
 4805SOL    HW117749   5.195   3.014   0.015
 4805SOL    HW217750   5.064   3.102   0.058
 4806SOL     OW17751   4.629   2.044   0.545
 4806SOL    HW117752   4.590   2.134   0.527
 4806SOL    HW217753   4.699   2.023   0.477
 4807SOL     OW17754   4.935   3.563   0.836
 4807SOL    HW117755   4.960   3.607   0.750
 4807SOL    HW217756   5.012   3.509   0.869
 4808SOL     OW17757   4.188   3.065   0.658
 4808SOL    HW117758   4.116   3.010   0.701
 4808SOL    HW217759   4.165   3.081   0.562
 4809SOL     OW17760   4.989   3.714   0.602
 4809SOL    HW117761   5.070   3.757   0.562
 4809SOL    HW217762   4.910   3.774   0.589
 4810SOL     OW17763   3.810   2.489   1.325
 4810SOL    HW117764   3.907   2.481   1.348
 4810SOL    HW217765   3.783   2.585   1.324
 4811SOL     OW17766   4.466   2.346   0.741
 4811SOL    HW117767   4.426   2.436   0.721
 4811SOL    HW217768   4.493   2.302   0.656
 4812SOL     OW17769   4.687   1.832   0.727
 4812SOL    HW117770   4.677   1.909   0.664
 4812SOL    HW217771   4.754   1.854   0.797
 4813SOL     OW17772   5.165   3.166   0.823
 4813SOL    HW117773   5.069   3.137   0.827
 4813SOL    HW217774   5.223   3.093   0.858
 4814SOL     OW17775   5.175   2.523   1.043
 4814SOL    HW117776   5.118   2.445   1.069
 4814SOL    HW217777   5.246   2.537   1.111
 4815SOL     OW17778   5.663   2.627   0.308
 4815SOL    HW117779   5.702   2.624   0.400
 4815SOL    HW217780   5.636   2.534   0.281
 4816SOL     OW17781   5.483   3.122   0.725
 4816SOL    HW117782   5.433   3.078   0.799
 4816SOL    HW217783   5.427   3.195   0.685
 4817SOL     OW17784   5.124   2.301   0.122
 4817SOL    HW117785   5.065   2.284   0.200
 4817SOL    HW217786   5.088   2.254   0.041
 4818SOL     OW17787   4.324   2.117   0.231
 4818SOL    HW117788   4.328   2.019   0.208
 4818SOL    HW217789   4.313   2.170   0.147
 4819SOL     OW17790   5.538   3.168   1.784
 4819SOL    HW117791   5.531   3.071   1.764
 4819SOL    HW217792   5.556   3.219   1.700
 4820SOL     OW17793   4.611   2.001   1.408
 4820SOL    HW117794   4.580   1.946   1.331
 4820SOL    HW217795   4.711   2.002   1.411
 4821SOL     OW17796   4.437   2.893   0.382
 4821SOL    HW117797   4.406   2.879   0.476
 4821SOL    HW217798   4.529   2.854   0.371
 4822SOL     OW17799   4.075   2.731   1.278
 4822SOL    HW117800   4.129   2.802   1.324
 4822SOL    HW217801   4.082   2.646   1.331
 4823SOL     OW17802   5.035   2.309   1.152
 4823SOL    HW117803   5.072   2.302   1.245
 4823SOL    HW217804   4.935   2.309   1.156
 4824SOL     OW17805   3.783   3.341   1.374
 4824SOL    HW117806   3.726   3.412   1.334
 4824SOL    HW217807   3.878   3.354   1.346
 4825SOL     OW17808   4.092   3.095   0.398
 4825SOL    HW117809   4.057   3.170   0.342
 4825SOL    HW217810   4.140   3.029   0.341
 4826SOL     OW17811   5.037   3.288   1.153
 4826SOL    HW117812   5.064   3.299   1.248
 4826SOL    HW217813   5.019   3.192   1.133
 4827SOL     OW17814   5.275   2.490   0.539
 4827SOL    HW117815   5.233   2.533   0.619
 4827SOL    HW217816   5.259   2.547   0.459
 4828SOL     OW17817   4.155   2.709   1.689
 4828SOL    HW117818   4.254   2.699   1.679
 4828SOL    HW217819   4.111   2.622   1.669
 4829SOL     OW17820   5.318   2.644   1.702
 4829SOL    HW117821   5.226   2.642   1.741
 4829SOL    HW217822   5.312   2.660   1.603
 4830SOL     OW17823   4.779   2.110   1.855
 4830SOL    HW117824   4.837   2.187   1.829
 4830SOL    HW217825   4.797   2.033   1.794
 4831SOL     OW17826   4.210   1.896   1.790
 4831SOL    HW117827   4.162   1.824   1.739
 4831SOL    HW217828   4.153   1.978   1.794
 4832SOL     OW17829   4.240   2.739   1.057
 4832SOL    HW117830   4.278   2.830   1.041
 4832SOL    HW217831   4.183   2.740   1.140
 4833SOL     OW17832   5.020   2.752   1.021
 4833SOL    HW117833   4.929   2.718   0.997
 4833SOL    HW217834   5.082   2.674   1.037
 4834SOL     OW17835   4.947   2.250   0.313
 4834SOL    HW117836   4.886   2.173   0.328
 4834SOL    HW217837   4.922   2.325   0.374
 4835SOL     OW17838   3.697   3.082   1.314
 4835SOL    HW117839   3.765   3.023   1.269
 4835SOL    HW217840   3.740   3.169   1.337
 4836SOL     OW17841   4.453   2.576   1.030
 4836SOL    HW117842   4.488   2.578   0.937
 4836SOL    HW217843   4.366   2.627   1.034
 4837SOL     OW17844   5.470   2.899   1.752
 4837SOL    HW117845   5.452   2.803   1.734
 4837SOL    HW217846   5.384   2.945   1.776
 4838SOL     OW17847   3.990   1.988   0.503
 4838SOL    HW117848   4.073   2.042   0.488
 4838SOL    HW217849   3.964   1.992   0.599
 4839SOL     OW17850   5.392   2.269   0.415
 4839SOL    HW117851   5.353   2.179   0.437
 4839SOL    HW217852   5.335   2.340   0.457
 4840SOL     OW17853   4.766   2.636   0.988
 4840SOL    HW117854   4.784   2.626   1.086
 4840SOL    HW217855   4.741   2.547   0.950
 4841SOL     OW17856   4.592   3.418   1.686
 4841SOL    HW117857   4.636   3.442   1.599
 4841SOL    HW217858   4.658   3.428   1.760
 4842SOL     OW17859   4.073   2.808   1.922
 4842SOL    HW117860   4.152   2.806   1.983
 4842SOL    HW217861   4.100   2.778   1.831
 4843SOL     OW17862   5.294   2.083   0.154
 4843SOL    HW117863   5.236   2.020   0.103
 4843SOL    HW217864   5.256   2.176   0.149
 4844SOL     OW17865   5.056   2.566   0.110
 4844SOL    HW117866   5.094   2.474   0.122
 4844SOL    HW217867   5.011   2.572   0.020
 4845SOL     OW17868   4.756   3.309   0.858
 4845SOL    HW117869   4.818   3.231   0.860
 4845SOL    HW217870   4.808   3.393   0.845
 4846SOL     OW17871   3.999   2.834   0.952
 4846SOL    HW117872   4.077   2.778   0.979
 4846SOL    HW217873   3.948   2.861   1.034
 4847SOL     OW17874   3.707   3.192   0.159
 4847SOL    HW117875   3.640   3.196   0.085
 4847SOL    HW217876   3.676   3.129   0.230
 4848SOL     OW17877   4.187   3.471   0.877
 4848SOL    HW117878   4.222   3.563   0.859
 4848SOL    HW217879   4.235   3.405   0.819
 4849SOL     OW17880   4.806   2.605   1.264
 4849SOL    HW117881   4.794   2.692   1.312
 4849SOL    HW217882   4.718   2.558   1.258
 4850SOL     OW17883   3.736   2.339   1.097
 4850SOL    HW117884   3.776   2.249   1.079
 4850SOL    HW217885   3.781   2.380   1.176
 4851SOL     OW17886   4.503   2.276   0.471
 4851SOL    HW117887   4.548   2.265   0.382
 4851SOL    HW217888   4.412   2.314   0.458
 4852SOL     OW17889   5.367   2.534   1.250
 4852SOL    HW117890   5.374   2.458   1.315
 4852SOL    HW217891   5.446   2.531   1.188
 4853SOL     OW17892   4.720   3.475   1.451
 4853SOL    HW117893   4.658   3.443   1.380
 4853SOL    HW217894   4.751   3.568   1.429
 4854SOL     OW17895   4.993   3.010   1.102
 4854SOL    HW117896   5.019   2.917   1.075
 4854SOL    HW217897   4.942   3.007   1.188
 4855SOL     OW17898   5.164   2.668   0.344
 4855SOL    HW117899   5.094   2.665   0.414
 4855SOL    HW217900   5.128   2.629   0.259
 4856SOL     OW17901   5.603   3.526   1.213
 4856SOL    HW117902   5.607   3.539   1.114
 4856SOL    HW217903   5.588   3.429   1.233
 4857SOL     OW17904   4.372   3.544   1.792
 4857SOL    HW117905   4.288   3.510   1.749
 4857SOL    HW217906   4.452   3.503   1.748
 4858SOL     OW17907   4.656   1.995   0.140
 4858SOL    HW117908   4.580   1.932   0.125
 4858SOL    HW217909   4.702   2.014   0.053
 4859SOL     OW17910   5.047   3.553   0.375
 4859SOL    HW117911   5.145   3.559   0.360
 4859SOL    HW217912   5.024   3.595   0.463
 4860SOL     OW17913   5.005   2.658   0.572
 4860SOL    HW117914   5.063   2.653   0.653
 4860SOL    HW217915   4.947   2.740   0.578
 4861SOL     OW17916   4.373   3.502   0.110
 4861SOL    HW117917   4.402   3.443   0.034
 4861SOL    HW217918   4.276   3.487   0.128
 4862SOL     OW17919   5.604   2.033   0.911
 4862SOL    HW117920   5.624   1.937   0.897
 4862SOL    HW217921   5.511   2.053   0.877
 4863SOL     OW17922   4.942   3.499   0.135
 4863SOL    HW117923   4.979   3.503   0.228
 4863SOL    HW217924   4.870   3.430   0.132
 4864SOL     OW17925   4.468   2.820   1.349
 4864SOL    HW117926   4.467   2.784   1.256
 4864SOL    HW217927   4.381   2.866   1.368
 4865SOL     OW17928   4.688   2.783   0.382
 4865SOL    HW117929   4.748   2.781   0.302
 4865SOL    HW217930   4.683   2.692   0.422
 4866SOL     OW17931   5.201   3.563   0.041
 4866SOL    HW117932   5.108   3.526   0.052
 4866SOL    HW217933   5.243   3.522   6.460
 4867SOL     OW17934   5.550   2.286   1.365
 4867SOL    HW117935   5.625   2.351   1.353
 4867SOL    HW217936   5.543   2.228   1.284
 4868SOL     OW17937   3.971   3.281   0.232
 4868SOL    HW117938   3.899   3.237   0.179
 4868SOL    HW217939   3.933   3.319   0.316
 4869SOL     OW17940   3.812   2.913   1.792
 4869SOL    HW117941   3.727   2.887   1.839
 4869SOL    HW217942   3.890   2.880   1.844
 4870SOL     OW17943   3.829   1.885   0.308
 4870SOL    HW117944   3.849   1.928   0.220
 4870SOL    HW217945   3.895   1.917   0.376
 4871SOL     OW17946   4.989   3.173   0.187
 4871SOL    HW117947   4.903   3.224   0.194
 4871SOL    HW217948   5.042   3.185   0.270
 4872SOL     OW17949   5.270   3.598   0.763
 4872SOL    HW117950   5.257   3.697   0.773
 4872SOL    HW217951   5.229   3.551   0.842
 4873SOL     OW17952   4.028   3.692   1.600
 4873SOL    HW117953   3.928   3.695   1.610
 4873SOL    HW217954   4.063   3.609   1.643
 4874SOL     OW17955   4.348   2.571   0.660
 4874SOL    HW117956   4.347   2.670   0.647
 4874SOL    HW217957   4.281   2.528   0.600
 4875SOL     OW17958   5.548   2.176   1.617
 4875SOL    HW117959   5.543   2.216   1.526
 4875SOL    HW217960   5.455   2.169   1.655
 4876SOL     OW17961   4.738   3.312   0.128
 4876SOL    HW117962   4.668   3.261   0.177
 4876SOL    HW217963   4.696   3.363   0.052
 4877SOL     OW17964   4.281   3.727   0.829
 4877SOL    HW117965   4.282   3.813   0.880
 4877SOL    HW217966   4.372   3.708   0.794
 4878SOL     OW17967   4.553   2.809   0.863
 4878SOL    HW117968   4.632   2.762   0.903
 4878SOL    HW217969   4.501   2.853   0.936
 4879SOL     OW17970   4.851   2.745   0.165
 4879SOL    HW117971   4.859   2.823   0.103
 4879SOL    HW217972   4.936   2.692   0.162
 4880SOL     OW17973   5.552   3.388   0.783
 4880SOL    HW117974   5.472   3.405   0.725
 4880SOL    HW217975   5.553   3.292   0.811
 4881SOL     OW17976   3.870   3.118   0.592
 4881SOL    HW117977   3.891   3.042   0.653
 4881SOL    HW217978   3.936   3.120   0.517
 4882SOL     OW17979   4.224   2.130   0.476
 4882SOL    HW117980   4.254   2.133   0.381
 4882SOL    HW217981   4.287   2.074   0.529
 4883SOL     OW17982   4.076   2.489   1.413
 4883SOL    HW117983   4.050   2.487   1.509
 4883SOL    HW217984   4.156   2.431   1.399
 4884SOL     OW17985   5.082   2.133   0.944
 4884SOL    HW117986   5.118   2.046   0.976
 4884SOL    HW217987   5.069   2.195   1.022
 4885SOL     OW17988   4.541   3.122   0.260
 4885SOL    HW117989   4.496   3.042   0.300
 4885SOL    HW217990   4.555   3.191   0.331
 4886SOL     OW17991   4.304   3.384   1.303
 4886SOL    HW117992   4.274   3.469   1.345
 4886SOL    HW217993   4.400   3.392   1.276
 4887SOL     OW17994   5.123   1.897   0.026
 4887SOL    HW117995   5.184   1.834   0.074
 4887SOL    HW217996   5.029   1.862   0.029
 4888SOL     OW17997   5.343   2.114   0.823
 4888SOL    HW117998   5.248   2.131   0.847
 4888SOL    HW217999   5.382   2.196   0.781
 4889SOL     OW18000   4.542   3.515   0.332
 4889SOL    HW118001   4.486   3.524   0.250
 4889SOL    HW218002   4.544   3.603   0.381
 4890SOL     OW18003   3.925   2.646   2.085
 4890SOL    HW118004   3.876   2.566   2.053
 4890SOL    HW218005   3.969   2.691   2.007
 4891SOL     OW18006   3.917   2.212   2.886
 4891SOL    HW118007   3.953   2.147   2.820
 4891SOL    HW218008   3.889   2.296   2.838
 4892SOL     OW18009   3.571   2.124   2.598
 4892SOL    HW118010   3.663   2.149   2.629
 4892SOL    HW218011   3.574   2.097   2.501
 4893SOL     OW18012   4.343   3.217   2.961
 4893SOL    HW118013   4.281   3.264   2.897
 4893SOL    HW218014   4.354   3.272   3.043
 4894SOL     OW18015   5.415   2.467   2.094
 4894SOL    HW118016   5.437   2.448   1.998
 4894SOL    HW218017   5.420   2.383   2.147
 4895SOL     OW18018   4.362   2.945   2.992
 4895SOL    HW118019   4.347   3.042   2.976
 4895SOL    HW218020   4.416   2.932   3.076
 4896SOL     OW18021   4.503   2.607   3.608
 4896SOL    HW118022   4.476   2.647   3.696
 4896SOL    HW218023   4.564   2.670   3.560
 4897SOL     OW18024   4.408   2.878   2.584
 4897SOL    HW118025   4.460   2.936   2.647
 4897SOL    HW218026   4.310   2.890   2.601
 4898SOL     OW18027   4.398   2.978   3.673
 4898SOL    HW118028   4.384   3.069   3.635
 4898SOL    HW218029   4.318   2.921   3.654
 4899SOL     OW18030   5.183   3.488   3.123
 4899SOL    HW118031   5.244   3.494   3.202
 4899SOL    HW218032   5.114   3.560   3.129
 4900SOL     OW18033   5.264   2.296   2.652
 4900SOL    HW118034   5.164   2.291   2.651
 4900SOL    HW218035   5.292   2.389   2.627
 4901SOL     OW18036   3.950   3.568   2.317
 4901SOL    HW118037   3.975   3.617   2.401
 4901SOL    HW218038   4.028   3.571   2.254
 4902SOL     OW18039   4.312   2.814   2.095
 4902SOL    HW118040   4.347   2.855   2.011
 4902SOL    HW218041   4.358   2.856   2.174
 4903SOL     OW18042   5.567   3.668   2.173
 4903SOL    HW118043   5.591   3.589   2.231
 4903SOL    HW218044   5.511   3.731   2.225
 4904SOL     OW18045   5.428   2.779   2.525
 4904SOL    HW118046   5.496   2.719   2.483
 4904SOL    HW218047   5.404   2.852   2.461
 4905SOL     OW18048   5.391   2.990   2.359
 4905SOL    HW118049   5.482   2.985   2.316
 4905SOL    HW218050   5.348   3.077   2.336
 4906SOL     OW18051   3.973   2.663   3.345
 4906SOL    HW118052   4.062   2.639   3.385
 4906SOL    HW218053   3.922   2.719   3.410
 4907SOL     OW18054   4.201   3.177   2.586
 4907SOL    HW118055   4.178   3.081   2.600
 4907SOL    HW218056   4.210   3.196   2.488
 4908SOL     OW18057   3.981   2.858   3.137
 4908SOL    HW118058   4.024   2.841   3.049
 4908SOL    HW218059   3.974   2.772   3.188
 4909SOL     OW18060   4.902   3.720   3.472
 4909SOL    HW118061   4.912   3.808   3.427
 4909SOL    HW218062   4.850   3.658   3.414
 4910SOL     OW18063   5.339   3.609   2.426
 4910SOL    HW118064   5.310   3.579   2.335
 4910SOL    HW218065   5.294   3.553   2.495
 4911SOL     OW18066   4.539   2.422   3.212
 4911SOL    HW118067   4.474   2.406   3.286
 4911SOL    HW218068   4.490   2.440   3.127
 4912SOL     OW18069   5.028   2.262   3.478
 4912SOL    HW118070   5.026   2.337   3.544
 4912SOL    HW218071   5.099   2.196   3.504
 4913SOL     OW18072   4.658   2.785   3.462
 4913SOL    HW118073   4.704   2.712   3.412
 4913SOL    HW218074   4.606   2.842   3.399
 4914SOL     OW18075   4.694   2.209   3.136
 4914SOL    HW118076   4.631   2.282   3.162
 4914SOL    HW218077   4.651   2.150   3.068
 4915SOL     OW18078   4.835   2.518   2.252
 4915SOL    HW118079   4.841   2.464   2.336
 4915SOL    HW218080   4.744   2.506   2.212
 4916SOL     OW18081   3.735   3.625   3.456
 4916SOL    HW118082   3.767   3.674   3.536
 4916SOL    HW218083   3.801   3.636   3.381
 4917SOL     OW18084   4.608   2.170   2.061
 4917SOL    HW118085   4.677   2.154   1.991
 4917SOL    HW218086   4.525   2.118   2.039
 4918SOL     OW18087   5.420   2.407   3.712
 4918SOL    HW118088   5.389   2.500   3.697
 4918SOL    HW218089   5.431   2.361   3.624
 4919SOL     OW18090   4.231   2.142   2.773
 4919SOL    HW118091   4.290   2.101   2.843
 4919SOL    HW218092   4.258   2.237   2.758
 4920SOL     OW18093   4.742   3.275   2.282
 4920SOL    HW118094   4.704   3.366   2.267
 4920SOL    HW218095   4.772   3.267   2.377
 4921SOL     OW18096   5.550   2.906   2.732
 4921SOL    HW118097   5.496   2.862   2.661
 4921SOL    HW218098   5.499   2.906   2.818
 4922SOL     OW18099   4.119   2.702   2.267
 4922SOL    HW118100   4.190   2.749   2.215
 4922SOL    HW218101   4.043   2.678   2.207
 4923SOL     OW18102   5.264   2.571   2.591
 4923SOL    HW118103   5.209   2.585   2.674
 4923SOL    HW218104   5.320   2.652   2.574
 4924SOL     OW18105   3.939   2.204   3.435
 4924SOL    HW118106   3.908   2.278   3.375
 4924SOL    HW218107   4.013   2.154   3.391
 4925SOL     OW18108   5.304   3.244   1.900
 4925SOL    HW118109   5.397   3.239   1.864
 4925SOL    HW218110   5.254   3.161   1.873
 4926SOL     OW18111   4.175   3.631   2.163
 4926SOL    HW118112   4.218   3.680   2.238
 4926SOL    HW218113   4.243   3.573   2.117
 4927SOL     OW18114   3.927   3.649   3.261
 4927SOL    HW118115   3.964   3.579   3.201
 4927SOL    HW218116   3.946   3.740   3.223
 4928SOL     OW18117   4.622   3.552   2.835
 4928SOL    HW118118   4.641   3.505   2.921
 4928SOL    HW218119   4.631   3.487   2.759
 4929SOL     OW18120   5.236   2.093   3.569
 4929SOL    HW118121   5.230   2.100   3.668
 4929SOL    HW218122   5.274   2.004   3.544
 4930SOL     OW18123   4.410   1.990   1.965
 4930SOL    HW118124   4.482   1.922   1.951
 4930SOL    HW218125   4.334   1.973   1.902
 4931SOL     OW18126   4.681   3.402   3.086
 4931SOL    HW118127   4.657   3.338   3.012
 4931SOL    HW218128   4.734   3.354   3.155
 4932SOL     OW18129   4.998   2.472   3.302
 4932SOL    HW118130   5.011   2.392   3.360
 4932SOL    HW218131   5.040   2.552   3.346
 4933SOL     OW18132   4.604   3.231   2.886
 4933SOL    HW118133   4.610   3.265   2.792
 4933SOL    HW218134   4.509   3.212   2.910
 4934SOL     OW18135   4.440   1.854   2.369
 4934SOL    HW118136   4.477   1.927   2.426
 4934SOL    HW218137   4.369   1.891   2.309
 4935SOL     OW18138   4.027   1.889   2.087
 4935SOL    HW118139   4.103   1.940   2.127
 4935SOL    HW218140   4.054   1.794   2.074
 4936SOL     OW18141   4.740   2.124   2.304
 4936SOL    HW118142   4.690   2.145   2.220
 4936SOL    HW218143   4.823   2.072   2.281
 4937SOL     OW18144   4.747   2.583   3.294
 4937SOL    HW118145   4.679   2.515   3.268
 4937SOL    HW218146   4.837   2.540   3.300
 4938SOL     OW18147   4.969   3.400   2.666
 4938SOL    HW118148   4.909   3.472   2.632
 4938SOL    HW218149   4.964   3.395   2.765
 4939SOL     OW18150   4.145   2.910   2.639
 4939SOL    HW118151   4.123   2.871   2.729
 4939SOL    HW218152   4.068   2.894   2.577
 4940SOL     OW18153   3.903   2.412   3.268
 4940SOL    HW118154   3.974   2.384   3.203
 4940SOL    HW218155   3.921   2.505   3.299
 4941SOL     OW18156   4.414   2.045   2.951
 4941SOL    HW118157   4.400   1.951   2.920
 4941SOL    HW218158   4.500   2.080   2.913
 4942SOL     OW18159   4.800   2.343   2.469
 4942SOL    HW118160   4.709   2.375   2.495
 4942SOL    HW218161   4.792   2.262   2.410
 4943SOL     OW18162   5.123   2.543   2.831
 4943SOL    HW118163   5.077   2.464   2.790
 4943SOL    HW218164   5.204   2.512   2.881
 4944SOL     OW18165   5.613   2.694   2.196
 4944SOL    HW118166   5.624   2.655   2.288
 4944SOL    HW218167   5.559   2.632   2.140
 4945SOL     OW18168   4.244   3.262   2.041
 4945SOL    HW118169   4.217   3.245   2.136
 4945SOL    HW218170   4.204   3.192   1.982
 4946SOL     OW18171   5.173   2.578   2.022
 4946SOL    HW118172   5.109   2.501   2.029
 4946SOL    HW218173   5.265   2.546   2.042
 4947SOL     OW18174   4.263   1.987   2.199
 4947SOL    HW118175   4.317   1.993   2.115
 4947SOL    HW218176   4.283   2.066   2.257
 4948SOL     OW18177   4.793   3.218   3.263
 4948SOL    HW118178   4.711   3.199   3.318
 4948SOL    HW218179   4.874   3.202   3.319
 4949SOL     OW18180   5.408   3.410   3.582
 4949SOL    HW118181   5.376   3.448   3.495
 4949SOL    HW218182   5.507   3.400   3.580
 4950SOL     OW18183   4.837   3.142   3.006
 4950SOL    HW118184   4.820   3.156   3.104
 4950SOL    HW218185   4.751   3.151   2.956
 4951SOL     OW18186   5.387   2.920   2.951
 4951SOL    HW118187   5.405   3.000   3.008
 4951SOL    HW218188   5.312   2.940   2.888
 4952SOL     OW18189   4.683   2.959   3.685
 4952SOL    HW118190   4.586   2.980   3.692
 4952SOL    HW218191   4.699   2.899   3.607
 4953SOL     OW18192   4.447   2.906   2.311
 4953SOL    HW118193   4.436   2.892   2.409
 4953SOL    HW218194   4.534   2.867   2.281
 4954SOL     OW18195   4.203   2.569   3.060
 4954SOL    HW118196   4.224   2.609   3.149
 4954SOL    HW218197   4.156   2.481   3.073
 4955SOL     OW18198   4.939   2.305   3.083
 4955SOL    HW118199   4.963   2.382   3.142
 4955SOL    HW218200   4.849   2.269   3.109
 4956SOL     OW18201   3.972   2.897   2.416
 4956SOL    HW118202   3.956   2.976   2.357
 4956SOL    HW218203   4.022   2.827   2.365
 4957SOL     OW18204   4.330   2.393   2.758
 4957SOL    HW118205   4.346   2.468   2.694
 4957SOL    HW218206   4.370   2.416   2.847
 4958SOL     OW18207   4.929   3.146   2.132
 4958SOL    HW118208   5.017   3.191   2.148
 4958SOL    HW218209   4.859   3.189   2.190
 4959SOL     OW18210   4.979   3.370   2.944
 4959SOL    HW118211   5.052   3.380   3.011
 4959SOL    HW218212   4.929   3.285   2.962
 4960SOL     OW18213   5.223   2.452   2.345
 4960SOL    HW118214   5.227   2.496   2.435
 4960SOL    HW218215   5.269   2.509   2.277
 4961SOL     OW18216   4.076   3.445   3.139
 4961SOL    HW118217   4.081   3.346   3.134
 4961SOL    HW218218   4.160   3.481   3.180
 4962SOL     OW18219   4.217   2.610   3.448
 4962SOL    HW118220   4.279   2.652   3.382
 4962SOL    HW218221   4.252   2.519   3.472
 4963SOL     OW18222   4.259   1.900   3.601
 4963SOL    HW118223   4.183   1.857   3.552
 4963SOL    HW218224   4.311   1.958   3.538
 4964SOL     OW18225   4.144   2.800   2.906
 4964SOL    HW118226   4.222   2.857   2.933
 4964SOL    HW218227   4.157   2.707   2.941
 4965SOL     OW18228   4.937   2.721   2.939
 4965SOL    HW118229   4.856   2.701   2.884
 4965SOL    HW218230   5.012   2.661   2.911
 4966SOL     OW18231   4.987   2.379   2.064
 4966SOL    HW118232   5.036   2.310   2.117
 4966SOL    HW218233   4.931   2.435   2.125
 4967SOL     OW18234   5.341   2.657   3.673
 4967SOL    HW118235   5.332   2.714   3.591
 4967SOL    HW218236   5.299   2.703   3.751
 4968SOL     OW18237   5.371   2.239   2.252
 4968SOL    HW118238   5.384   2.154   2.303
 4968SOL    HW218239   5.308   2.299   2.302
 4969SOL     OW18240   5.630   3.491   3.356
 4969SOL    HW118241   5.658   3.441   3.274
 4969SOL    HW218242   5.670   3.448   3.437
 4970SOL     OW18243   4.187   2.786   3.660
 4970SOL    HW118244   4.228   2.746   3.741
 4970SOL    HW218245   4.195   2.721   3.583
 4971SOL     OW18246   4.821   3.207   2.540
 4971SOL    HW118247   4.860   3.117   2.522
 4971SOL    HW218248   4.891   3.266   2.580
 4972SOL     OW18249   4.764   2.183   3.406
 4972SOL    HW118250   4.860   2.202   3.430
 4972SOL    HW218251   4.755   2.174   3.307
 4973SOL     OW18252   3.796   3.145   2.040
 4973SOL    HW118253   3.704   3.183   2.039
 4973SOL    HW218254   3.791   3.047   2.059
 4974SOL     OW18255   3.806   3.711   2.783
 4974SOL    HW118256   3.770   3.648   2.714
 4974SOL    HW218257   3.906   3.709   2.781
 4975SOL     OW18258   4.759   2.808   3.140
 4975SOL    HW118259   4.758   2.727   3.198
 4975SOL    HW218260   4.824   2.795   3.065
 4976SOL     OW18261   3.711   2.459   3.081
 4976SOL    HW118262   3.768   2.451   3.000
 4976SOL    HW218263   3.766   2.441   3.163
 4977SOL     OW18264   3.953   2.429   3.619
 4977SOL    HW118265   3.972   2.360   3.549
 4977SOL    HW218266   3.859   2.461   3.608
 4978SOL     OW18267   4.592   2.440   2.134
 4978SOL    HW118268   4.592   2.342   2.113
 4978SOL    HW218269   4.500   2.477   2.125
 4979SOL     OW18270   5.354   2.460   2.970
 4979SOL    HW118271   5.306   2.383   3.012
 4979SOL    HW218272   5.447   2.432   2.946
 4980SOL     OW18273   3.951   3.404   3.663
 4980SOL    HW118274   3.866   3.433   3.707
 4980SOL    HW218275   3.998   3.337   3.720
 4981SOL     OW18276   4.733   3.592   3.297
 4981SOL    HW118277   4.721   3.540   3.213
 4981SOL    HW218278   4.682   3.679   3.289
 4982SOL     OW18279   3.968   3.018   3.357
 4982SOL    HW118280   3.962   2.952   3.433
 4982SOL    HW218281   3.976   2.968   3.271
 4983SOL     OW18282   5.042   2.967   2.985
 4983SOL    HW118283   5.009   2.873   2.983
 4983SOL    HW218284   4.966   3.030   3.001
 4984SOL     OW18285   4.935   2.784   2.301
 4984SOL    HW118286   4.912   2.687   2.297
 4984SOL    HW218287   4.987   2.809   2.219
 4985SOL     OW18288   4.983   3.645   2.978
 4985SOL    HW118289   5.054   3.685   2.920
 4985SOL    HW218290   4.972   3.548   2.955
 4986SOL     OW18291   5.425   1.993   2.383
 4986SOL    HW118292   5.461   1.956   2.298
 4986SOL    HW218293   5.394   1.917   2.442
 4987SOL     OW18294   5.243   3.548   2.171
 4987SOL    HW118295   5.191   3.500   2.100
 4987SOL    HW218296   5.208   3.641   2.181
 4988SOL     OW18297   4.522   3.174   3.343
 4988SOL    HW118298   4.475   3.180   3.431
 4988SOL    HW218299   4.481   3.238   3.278
 4989SOL     OW18300   4.386   3.490   2.060
 4989SOL    HW118301   4.395   3.519   1.965
 4989SOL    HW218302   4.339   3.402   2.064
 4990SOL     OW18303   5.359   3.534   3.331
 4990SOL    HW118304   5.458   3.520   3.330
 4990SOL    HW218305   5.339   3.629   3.352
 4991SOL     OW18306   5.557   2.060   2.933
 4991SOL    HW118307   5.601   1.990   2.877
 4991SOL    HW218308   5.465   2.077   2.898
 4992SOL     OW18309   4.527   2.921   3.230
 4992SOL    HW118310   4.616   2.900   3.189
 4992SOL    HW218311   4.528   3.013   3.267
 4993SOL     OW18312   4.676   2.817   2.208
 4993SOL    HW118313   4.696   2.805   2.110
 4993SOL    HW218314   4.761   2.817   2.260
 4994SOL     OW18315   4.142   3.230   3.369
 4994SOL    HW118316   4.093   3.316   3.387
 4994SOL    HW218317   4.076   3.155   3.363
 4995SOL     OW18318   4.263   3.266   2.325
 4995SOL    HW118319   4.348   3.230   2.288
 4995SOL    HW218320   4.280   3.356   2.366
 4996SOL     OW18321   5.444   2.239   3.234
 4996SOL    HW118322   5.532   2.285   3.221
 4996SOL    HW218323   5.454   2.142   3.217
 4997SOL     OW18324   3.924   2.839   3.562
 4997SOL    HW118325   3.846   2.847   3.624
 4997SOL    HW218326   4.007   2.824   3.615
 4998SOL     OW18327   4.379   2.034   3.381
 4998SOL    HW118328   4.438   1.964   3.341
 4998SOL    HW218329   4.434   2.099   3.434
 4999SOL     OW18330   3.797   2.182   1.896
 4999SOL    HW118331   3.730   2.166   1.823
 4999SOL    HW218332   3.782   2.274   1.934
 5000SOL     OW18333   3.786   2.027   2.135
 5000SOL    HW118334   3.779   2.081   2.051
 5000SOL    HW218335   3.871   1.975   2.134
 5001SOL     OW18336   4.767   3.065   1.929
 5001SOL    HW118337   4.685   3.119   1.946
 5001SOL    HW218338   4.836   3.087   1.998
 5002SOL     OW18339   4.390   2.684   3.254
 5002SOL    HW118340   4.425   2.777   3.245
 5002SOL    HW218341   4.466   2.619   3.249
 5003SOL     OW18342   5.183   3.734   2.803
 5003SOL    HW118343   5.254   3.805   2.800
 5003SOL    HW218344   5.225   3.645   2.814
 5004SOL     OW18345   4.409   2.404   3.455
 5004SOL    HW118346   4.444   2.478   3.512
 5004SOL    HW218347   4.449   2.317   3.485
 5005SOL     OW18348   4.084   3.514   3.449
 5005SOL    HW118349   4.014   3.562   3.397
 5005SOL    HW218350   4.043   3.475   3.532
 5006SOL     OW18351   5.361   2.698   3.124
 5006SOL    HW118352   5.356   2.613   3.073
 5006SOL    HW218353   5.371   2.775   3.061
 5007SOL     OW18354   4.384   2.601   2.588
 5007SOL    HW118355   4.394   2.701   2.585
 5007SOL    HW218356   4.309   2.573   2.528
 5008SOL     OW18357   5.459   2.233   3.504
 5008SOL    HW118358   5.455   2.248   3.405
 5008SOL    HW218359   5.376   2.185   3.533
 5009SOL     OW18360   5.337   2.747   3.391
 5009SOL    HW118361   5.385   2.832   3.415
 5009SOL    HW218362   5.345   2.730   3.293
 5010SOL     OW18363   4.563   3.243   1.977
 5010SOL    HW118364   4.533   3.219   2.068
 5010SOL    HW218365   4.484   3.266   1.920
 5011SOL     OW18366   4.477   3.786   2.771
 5011SOL    HW118367   4.421   3.791   2.689
 5011SOL    HW218368   4.520   3.696   2.778
 5012SOL     OW18369   4.801   2.794   1.959
 5012SOL    HW118370   4.781   2.888   1.932
 5012SOL    HW218371   4.895   2.789   1.994
 5013SOL     OW18372   5.600   3.575   2.643
 5013SOL    HW118373   5.516   3.605   2.598
 5013SOL    HW218374   5.621   3.481   2.616
 5014SOL     OW18375   4.341   3.216   3.555
 5014SOL    HW118376   4.272   3.217   3.482
 5014SOL    HW218377   4.316   3.283   3.625
 5015SOL     OW18378   5.446   1.965   3.195
 5015SOL    HW118379   5.361   1.934   3.154
 5015SOL    HW218380   5.518   1.970   3.125
 5016SOL     OW18381   4.088   2.314   3.093
 5016SOL    HW118382   4.125   2.237   3.145
 5016SOL    HW218383   4.041   2.280   3.012
 5017SOL     OW18384   5.213   2.249   3.073
 5017SOL    HW118385   5.266   2.245   3.158
 5017SOL    HW218386   5.116   2.260   3.094
 5018SOL     OW18387   4.714   1.823   3.121
 5018SOL    HW118388   4.681   1.800   3.029
 5018SOL    HW218389   4.813   1.810   3.124
 5019SOL     OW18390   4.497   3.163   2.230
 5019SOL    HW118391   4.483   3.068   2.258
 5019SOL    HW218392   4.590   3.192   2.255
 5020SOL     OW18393   4.422   3.372   3.175
 5020SOL    HW118394   4.372   3.444   3.222
 5020SOL    HW218395   4.513   3.404   3.151
 5021SOL     OW18396   4.991   2.330   2.682
 5021SOL    HW118397   4.933   2.344   2.602
 5021SOL    HW218398   4.947   2.265   2.744
 5022SOL     OW18399   5.298   2.109   2.860
 5022SOL    HW118400   5.263   2.163   2.937
 5022SOL    HW218401   5.293   2.164   2.777
 5023SOL     OW18402   3.765   2.873   2.110
 5023SOL    HW118403   3.820   2.790   2.117
 5023SOL    HW218404   3.690   2.858   2.045
 5024SOL     OW18405   4.613   3.511   2.231
 5024SOL    HW118406   4.533   3.506   2.171
 5024SOL    HW218407   4.617   3.601   2.274
 5025SOL     OW18408   4.026   2.428   3.878
 5025SOL    HW118409   4.006   2.338   3.916
 5025SOL    HW218410   4.000   2.430   3.782
 5026SOL     OW18411   4.213   3.127   4.888
 5026SOL    HW118412   4.119   3.151   4.913
 5026SOL    HW218413   4.277   3.182   4.941
 5027SOL     OW18414   5.533   2.300   3.922
 5027SOL    HW118415   5.487   2.347   3.847
 5027SOL    HW218416   5.467   2.279   3.994
 5028SOL     OW18417   4.398   3.044   4.699
 5028SOL    HW118418   4.323   3.077   4.755
 5028SOL    HW218419   4.467   3.116   4.689
 5029SOL     OW18420   4.605   2.687   5.599
 5029SOL    HW118421   4.666   2.750   5.647
 5029SOL    HW218422   4.628   2.685   5.502
 5030SOL     OW18423   4.385   2.932   4.436
 5030SOL    HW118424   4.349   2.839   4.446
 5030SOL    HW218425   4.390   2.975   4.526
 5031SOL     OW18426   4.455   2.989   5.588
 5031SOL    HW118427   4.523   3.047   5.633
 5031SOL    HW218428   4.408   3.042   5.517
 5032SOL     OW18429   4.023   3.351   4.735
 5032SOL    HW118430   3.993   3.261   4.705
 5032SOL    HW218431   4.107   3.376   4.686
 5033SOL     OW18432   5.293   2.260   4.395
 5033SOL    HW118433   5.194   2.250   4.392
 5033SOL    HW218434   5.316   2.352   4.426
 5034SOL     OW18435   4.829   3.138   5.371
 5034SOL    HW118436   4.904   3.122   5.434
 5034SOL    HW218437   4.763   3.063   5.377
 5035SOL     OW18438   4.439   2.758   3.833
 5035SOL    HW118439   4.431   2.848   3.791
 5035SOL    HW218440   4.523   2.754   3.887
 5036SOL     OW18441   5.264   1.867   5.213
 5036SOL    HW118442   5.257   1.853   5.114
 5036SOL    HW218443   5.173   1.869   5.253
 5037SOL     OW18444   3.729   2.585   4.328
 5037SOL    HW118445   3.653   2.544   4.276
 5037SOL    HW218446   3.816   2.551   4.292
 5038SOL     OW18447   5.599   3.618   3.938
 5038SOL    HW118448   5.671   3.577   3.993
 5038SOL    HW218449   5.602   3.718   3.948
 5039SOL     OW18450   3.712   3.455   3.781
 5039SOL    HW118451   3.642   3.383   3.779
 5039SOL    HW218452   3.709   3.502   3.869
 5040SOL     OW18453   3.841   2.624   5.493
 5040SOL    HW118454   3.937   2.618   5.467
 5040SOL    HW218455   3.788   2.656   5.414
 5041SOL     OW18456   4.334   3.255   4.397
 5041SOL    HW118457   4.271   3.202   4.453
 5041SOL    HW218458   4.357   3.204   4.314
 5042SOL     OW18459   5.158   3.127   5.114
 5042SOL    HW118460   5.105   3.066   5.056
 5042SOL    HW218461   5.205   3.074   5.185
 5043SOL     OW18462   4.561   1.879   4.219
 5043SOL    HW118463   4.608   1.957   4.178
 5043SOL    HW218464   4.470   1.907   4.250
 5044SOL     OW18465   3.975   2.892   4.853
 5044SOL    HW118466   4.064   2.894   4.898
 5044SOL    HW218467   3.947   2.797   4.839
 5045SOL     OW18468   5.232   2.775   3.898
 5045SOL    HW118469   5.179   2.731   3.970
 5045SOL    HW218470   5.291   2.846   3.937
 5046SOL     OW18471   4.918   3.759   5.262
 5046SOL    HW118472   4.982   3.703   5.208
 5046SOL    HW218473   4.836   3.776   5.208
 5047SOL     OW18474   5.096   3.211   4.752
 5047SOL    HW118475   5.024   3.240   4.815
 5047SOL    HW218476   5.070   3.124   4.709
 5048SOL     OW18477   4.352   2.597   4.032
 5048SOL    HW118478   4.380   2.662   3.961
 5048SOL    HW218479   4.285   2.641   4.092
 5049SOL     OW18480   5.022   2.221   4.692
 5049SOL    HW118481   5.017   2.121   4.686
 5049SOL    HW218482   4.971   2.253   4.772
 5050SOL     OW18483   5.332   3.593   3.963
 5050SOL    HW118484   5.430   3.590   3.945
 5050SOL    HW218485   5.287   3.515   3.921
 5051SOL     OW18486   4.453   2.386   5.216
 5051SOL    HW118487   4.417   2.319   5.281
 5051SOL    HW218488   4.445   2.350   5.123
 5052SOL     OW18489   4.662   2.675   5.333
 5052SOL    HW118490   4.698   2.586   5.303
 5052SOL    HW218491   4.608   2.716   5.259
 5053SOL     OW18492   4.627   2.191   4.809
 5053SOL    HW118493   4.556   2.213   4.876
 5053SOL    HW218494   4.639   2.091   4.806
 5054SOL     OW18495   3.757   3.734   5.379
 5054SOL    HW118496   3.803   3.720   5.467
 5054SOL    HW218497   3.658   3.732   5.394
 5055SOL     OW18498   5.404   2.450   5.394
 5055SOL    HW118499   5.479   2.507   5.427
 5055SOL    HW218500   5.430   2.354   5.401
 5056SOL     OW18501   4.292   1.952   4.754
 5056SOL    HW118502   4.300   1.991   4.846
 5056SOL    HW218503   4.203   1.977   4.716
 5057SOL     OW18504   4.714   3.415   4.247
 5057SOL    HW118505   4.705   3.351   4.170
 5057SOL    HW218506   4.803   3.403   4.291
 5058SOL     OW18507   4.151   2.754   4.141
 5058SOL    HW118508   4.174   2.837   4.091
 5058SOL    HW218509   4.074   2.708   4.096
 5059SOL     OW18510   5.353   2.510   4.486
 5059SOL    HW118511   5.291   2.510   4.564
 5059SOL    HW218512   5.447   2.495   4.517
 5060SOL     OW18513   4.100   3.194   5.474
 5060SOL    HW118514   4.088   3.176   5.376
 5060SOL    HW218515   4.011   3.198   5.518
 5061SOL     OW18516   5.188   3.131   3.827
 5061SOL    HW118517   5.197   3.230   3.817
 5061SOL    HW218518   5.278   3.091   3.842
 5062SOL     OW18519   5.086   1.995   4.038
 5062SOL    HW118520   5.083   1.905   3.996
 5062SOL    HW218521   5.165   2.001   4.100
 5063SOL     OW18522   3.980   3.729   4.972
 5063SOL    HW118523   3.973   3.680   5.059
 5063SOL    HW218524   3.953   3.669   4.897
 5064SOL     OW18525   4.628   3.618   4.636
 5064SOL    HW118526   4.705   3.581   4.689
 5064SOL    HW218527   4.600   3.552   4.567
 5065SOL     OW18528   5.157   2.151   5.521
 5065SOL    HW118529   5.147   2.216   5.597
 5065SOL    HW218530   5.179   2.061   5.558
 5066SOL     OW18531   4.614   3.370   4.932
 5066SOL    HW118532   4.618   3.332   4.839
 5066SOL    HW218533   4.667   3.311   4.993
 5067SOL     OW18534   4.600   3.245   4.672
 5067SOL    HW118535   4.677   3.194   4.635
 5067SOL    HW218536   4.573   3.317   4.607
 5068SOL     OW18537   4.544   2.400   4.646
 5068SOL    HW118538   4.487   2.380   4.566
 5068SOL    HW218539   4.574   2.314   4.688
 5069SOL     OW18540   4.316   1.968   4.305
 5069SOL    HW118541   4.239   1.950   4.366
 5069SOL    HW218542   4.358   2.056   4.329
 5070SOL     OW18543   4.661   2.106   4.106
 5070SOL    HW118544   4.609   2.147   4.031
 5070SOL    HW218545   4.751   2.150   4.110
 5071SOL     OW18546   4.879   3.381   4.515
 5071SOL    HW118547   4.962   3.424   4.479
 5071SOL    HW218548   4.853   3.425   4.601
 5072SOL     OW18549   4.142   3.102   4.517
 5072SOL    HW118550   4.081   3.100   4.596
 5072SOL    HW218551   4.142   3.013   4.472
 5073SOL     OW18552   4.276   2.053   5.006
 5073SOL    HW118553   4.319   1.973   5.048
 5073SOL    HW218554   4.181   2.061   5.038
 5074SOL     OW18555   4.834   1.865   4.511
 5074SOL    HW118556   4.818   1.883   4.414
 5074SOL    HW218557   4.762   1.807   4.546
 5075SOL     OW18558   5.098   2.954   4.617
 5075SOL    HW118559   5.070   2.861   4.640
 5075SOL    HW218560   5.065   2.977   4.525
 5076SOL     OW18561   5.188   2.465   4.710
 5076SOL    HW118562   5.139   2.379   4.700
 5076SOL    HW218563   5.231   2.469   4.800
 5077SOL     OW18564   5.553   3.110   5.188
 5077SOL    HW118565   5.621   3.036   5.194
 5077SOL    HW218566   5.600   3.198   5.185
 5078SOL     OW18567   4.729   3.192   5.114
 5078SOL    HW118568   4.645   3.139   5.124
 5078SOL    HW218569   4.784   3.182   5.198
 5079SOL     OW18570   5.292   2.914   4.818
 5079SOL    HW118571   5.337   2.995   4.854
 5079SOL    HW218572   5.244   2.937   4.733
 5080SOL     OW18573   4.687   1.946   5.094
 5080SOL    HW118574   4.669   1.928   4.997
 5080SOL    HW218575   4.775   1.991   5.105
 5081SOL     OW18576   4.665   2.936   5.416
 5081SOL    HW118577   4.585   2.939   5.476
 5081SOL    HW218578   4.677   2.842   5.383
 5082SOL     OW18579   4.172   2.720   4.973
 5082SOL    HW118580   4.210   2.694   5.062
 5082SOL    HW218581   4.093   2.663   4.952
 5083SOL     OW18582   4.867   2.272   4.916
 5083SOL    HW118583   4.851   2.365   4.947
 5083SOL    HW218584   4.783   2.237   4.873
 5084SOL     OW18585   4.065   2.895   4.359
 5084SOL    HW118586   4.008   2.966   4.320
 5084SOL    HW218587   4.097   2.834   4.287
 5085SOL     OW18588   4.927   3.319   4.953
 5085SOL    HW118589   4.986   3.352   5.026
 5085SOL    HW218590   4.859   3.256   4.991
 5086SOL     OW18591   4.100   2.622   5.397
 5086SOL    HW118592   4.171   2.635   5.329
 5086SOL    HW218593   4.117   2.682   5.476
 5087SOL     OW18594   4.792   1.970   5.420
 5087SOL    HW118595   4.842   2.056   5.407
 5087SOL    HW218596   4.848   1.894   5.389
 5088SOL     OW18597   4.385   2.790   4.815
 5088SOL    HW118598   4.383   2.879   4.769
 5088SOL    HW218599   4.305   2.782   4.875
 5089SOL     OW18600   5.031   2.695   4.683
 5089SOL    HW118601   4.940   2.654   4.689
 5089SOL    HW218602   5.100   2.623   4.693
 5090SOL     OW18603   4.025   2.072   5.106
 5090SOL    HW118604   4.023   2.142   5.177
 5090SOL    HW218605   3.932   2.056   5.072
 5091SOL     OW18606   4.343   2.504   4.798
 5091SOL    HW118607   4.419   2.472   4.741
 5091SOL    HW218608   4.352   2.603   4.812
 5092SOL     OW18609   5.319   2.271   4.085
 5092SOL    HW118610   5.306   2.189   4.140
 5092SOL    HW218611   5.309   2.352   4.143
 5093SOL     OW18612   4.794   2.517   4.692
 5093SOL    HW118613   4.806   2.515   4.791
 5093SOL    HW218614   4.703   2.484   4.668
 5094SOL     OW18615   4.714   3.365   5.476
 5094SOL    HW118616   4.679   3.434   5.413
 5094SOL    HW218617   4.748   3.287   5.424
 5095SOL     OW18618   5.226   2.129   3.839
 5095SOL    HW118619   5.165   2.077   3.899
 5095SOL    HW218620   5.269   2.202   3.892
 5096SOL     OW18621   4.828   3.117   4.549
 5096SOL    HW118622   4.867   3.061   4.476
 5096SOL    HW218623   4.850   3.213   4.532
 5097SOL     OW18624   3.936   2.587   4.848
 5097SOL    HW118625   3.861   2.587   4.782
 5097SOL    HW218626   4.001   2.515   4.824
 5098SOL     OW18627   4.930   2.062   5.104
 5098SOL    HW118628   4.953   2.106   5.192
 5098SOL    HW218629   4.928   2.131   5.032
 5099SOL     OW18630   3.749   3.131   3.765
 5099SOL    HW118631   3.661   3.179   3.767
 5099SOL    HW218632   3.734   3.036   3.735
 5100SOL     OW18633   4.232   3.431   4.591
 5100SOL    HW118634   4.274   3.521   4.601
 5100SOL    HW218635   4.273   3.383   4.513
 5101SOL     OW18636   4.767   2.525   4.977
 5101SOL    HW118637   4.752   2.499   5.072
 5101SOL    HW218638   4.716   2.608   4.955
 5102SOL     OW18639   4.583   2.446   4.036
 5102SOL    HW118640   4.570   2.365   3.979
 5102SOL    HW218641   4.502   2.505   4.029
 5103SOL     OW18642   5.310   2.472   4.961
 5103SOL    HW118643   5.274   2.477   5.054
 5103SOL    HW218644   5.362   2.387   4.951
 5104SOL     OW18645   3.906   3.443   5.432
 5104SOL    HW118646   3.911   3.520   5.496
 5104SOL    HW218647   3.901   3.357   5.484
 5105SOL     OW18648   4.419   2.282   4.969
 5105SOL    HW118649   4.361   2.202   4.979
 5105SOL    HW218650   4.373   2.351   4.913
 5106SOL     OW18651   4.607   3.560   5.306
 5106SOL    HW118652   4.603   3.594   5.212
 5106SOL    HW218653   4.606   3.638   5.369
 5107SOL     OW18654   4.296   2.367   3.907
 5107SOL    HW118655   4.320   2.449   3.958
 5107SOL    HW218656   4.202   2.374   3.874
 5108SOL     OW18657   3.918   2.898   5.156
 5108SOL    HW118658   3.852   2.840   5.204
 5108SOL    HW218659   3.910   2.883   5.058
 5109SOL     OW18660   5.044   2.946   4.948
 5109SOL    HW118661   5.122   2.917   4.892
 5109SOL    HW218662   4.970   2.978   4.888
 5110SOL     OW18663   5.103   2.624   4.109
 5110SOL    HW118664   5.044   2.559   4.061
 5110SOL    HW218665   5.184   2.577   4.144
 5111SOL     OW18666   5.474   3.640   4.949
 5111SOL    HW118667   5.424   3.614   4.867
 5111SOL    HW218668   5.572   3.641   4.930
 5112SOL     OW18669   4.850   3.517   4.758
 5112SOL    HW118670   4.904   3.600   4.771
 5112SOL    HW218671   4.872   3.452   4.831
 5113SOL     OW18672   4.374   3.418   5.286
 5113SOL    HW118673   4.302   3.483   5.312
 5113SOL    HW218674   4.463   3.462   5.294
 5114SOL     OW18675   5.304   2.021   4.200
 5114SOL    HW118676   5.389   1.976   4.172
 5114SOL    HW218677   5.283   1.996   4.295
 5115SOL     OW18678   3.884   3.646   5.615
 5115SOL    HW118679   3.829   3.594   5.680
 5115SOL    HW218680   3.951   3.702   5.664
 5116SOL     OW18681   5.069   2.739   4.356
 5116SOL    HW118682   5.020   2.670   4.410
 5116SOL    HW218683   5.082   2.704   4.263
 5117SOL     OW18684   4.484   3.067   5.163
 5117SOL    HW118685   4.453   3.078   5.258
 5117SOL    HW218686   4.434   3.130   5.104
 5118SOL     OW18687   4.263   3.399   3.748
 5118SOL    HW118688   4.343   3.457   3.731
 5118SOL    HW218689   4.237   3.406   3.844
 5119SOL     OW18690   5.401   3.749   5.188
 5119SOL    HW118691   5.421   3.713   5.097
 5119SOL    HW218692   5.346   3.832   5.180
 5120SOL     OW18693   5.014   3.579   3.687
 5120SOL    HW118694   4.940   3.520   3.718
 5120SOL    HW218695   4.986   3.627   3.604
 5121SOL     OW18696   4.518   2.796   5.137
 5121SOL    HW118697   4.563   2.779   5.050
 5121SOL    HW218698   4.505   2.895   5.150
 5122SOL     OW18699   4.657   2.715   3.984
 5122SOL    HW118700   4.742   2.756   3.951
 5122SOL    HW218701   4.673   2.619   4.006
 5123SOL     OW18702   5.220   3.406   3.779
 5123SOL    HW118703   5.142   3.461   3.747
 5123SOL    HW218704   5.291   3.405   3.709
 5124SOL     OW18705   4.059   3.129   5.216
 5124SOL    HW118706   4.047   3.185   5.134
 5124SOL    HW218707   4.016   3.040   5.201
 5125SOL     OW18708   5.392   3.131   4.963
 5125SOL    HW118709   5.464   3.120   5.031
 5125SOL    HW218710   5.304   3.145   5.009
 5126SOL     OW18711   4.496   2.025   5.284
 5126SOL    HW118712   4.570   2.004   5.220
 5126SOL    HW218713   4.530   2.015   5.378
 5127SOL     OW18714   4.804   3.167   3.836
 5127SOL    HW118715   4.770   3.100   3.770
 5127SOL    HW218716   4.880   3.127   3.887
 5128SOL     OW18717   4.307   2.630   5.201
 5128SOL    HW118718   4.377   2.701   5.186
 5128SOL    HW218719   4.352   2.541   5.212
 5129SOL     OW18720   5.326   3.016   5.302
 5129SOL    HW118721   5.321   3.024   5.402
 5129SOL    HW218722   5.410   3.058   5.269
 5130SOL     OW18723   3.953   3.616   5.225
 5130SOL    HW118724   3.886   3.680   5.262
 5130SOL    HW218725   3.954   3.533   5.281
 5131SOL     OW18726   5.438   2.721   4.953
 5131SOL    HW118727   5.398   2.629   4.949
 5131SOL    HW218728   5.383   2.784   4.899
 5132SOL     OW18729   4.937   2.212   4.138
 5132SOL    HW118730   4.985   2.132   4.101
 5132SOL    HW218731   4.967   2.227   4.232
 5133SOL     OW18732   5.406   2.165   5.397
 5133SOL    HW118733   5.404   2.116   5.310
 5133SOL    HW218734   5.315   2.163   5.438
 5134SOL     OW18735   5.451   2.780   5.228
 5134SOL    HW118736   5.391   2.859   5.239
 5134SOL    HW218737   5.449   2.750   5.132
 5135SOL     OW18738   4.356   3.670   4.616
 5135SOL    HW118739   4.338   3.766   4.594
 5135SOL    HW218740   4.454   3.658   4.632
 5136SOL     OW18741   4.861   2.847   3.873
 5136SOL    HW118742   4.806   2.890   3.801
 5136SOL    HW218743   4.920   2.916   3.916
 5137SOL     OW18744   3.845   3.220   5.579
 5137SOL    HW118745   3.750   3.247   5.590
 5137SOL    HW218746   3.870   3.154   5.650
 5138SOL     OW18747   4.361   3.163   5.396
 5138SOL    HW118748   4.265   3.158   5.423
 5138SOL    HW218749   4.380   3.255   5.360
 5139SOL     OW18750   5.348   3.294   4.747
 5139SOL    HW118751   5.251   3.270   4.745
 5139SOL    HW218752   5.394   3.245   4.820
 5140SOL     OW18753   4.547   3.418   4.463
 5140SOL    HW118754   4.611   3.425   4.385
 5140SOL    HW218755   4.466   3.367   4.435
 5141SOL     OW18756   4.706   1.926   4.813
 5141SOL    HW118757   4.671   1.850   4.758
 5141SOL    HW218758   4.801   1.944   4.787
 5142SOL     OW18759   4.375   3.285   5.040
 5142SOL    HW118760   4.356   3.334   5.126
 5142SOL    HW218761   4.452   3.328   4.993
 5143SOL     OW18762   5.105   1.741   3.913
 5143SOL    HW118763   5.125   1.711   3.820
 5143SOL    HW218764   5.015   1.706   3.941
 5144SOL     OW18765   5.018   2.287   4.416
 5144SOL    HW118766   4.984   2.381   4.415
 5144SOL    HW218767   5.017   2.252   4.510
 5145SOL     OW18768   3.875   2.010   0.058
 5145SOL    HW118769   3.938   1.938   0.030
 5145SOL    HW218770   3.789   2.000   0.009
 5146SOL     OW18771   3.715   2.324   6.234
 5146SOL    HW118772   3.643   2.301   6.300
 5146SOL    HW218773   3.677   2.321   6.142
 5147SOL     OW18774   5.312   3.442   6.322
 5147SOL    HW118775   5.290   3.344   6.316
 5147SOL    HW218776   5.333   3.477   6.230
 5148SOL     OW18777   4.891   2.557   6.386
 5148SOL    HW118778   4.872   2.633   6.323
 5148SOL    HW218779   4.810   2.538   6.441
 5149SOL     OW18780   5.450   2.475   5.790
 5149SOL    HW118781   5.435   2.393   5.735
 5149SOL    HW218782   5.398   2.469   5.875
 5150SOL     OW18783   4.608   2.984   0.037
 5150SOL    HW118784   4.584   3.042   0.115
 5150SOL    HW218785   4.706   2.991   0.019
 5151SOL     OW18786   4.379   2.842   6.256
 5151SOL    HW118787   4.455   2.814   6.315
 5151SOL    HW218788   4.315   2.897   6.309
 5152SOL     OW18789   5.323   2.349   6.299
 5152SOL    HW118790   5.224   2.340   6.290
 5152SOL    HW218791   5.346   2.446   6.310
 5153SOL     OW18792   3.937   3.152   5.996
 5153SOL    HW118793   3.921   3.250   5.992
 5153SOL    HW218794   4.017   3.133   6.052
 5154SOL     OW18795   4.004   2.883   0.053
 5154SOL    HW118796   4.079   2.904   0.115
 5154SOL    HW218797   3.944   2.814   0.095
 5155SOL     OW18798   4.327   2.808   5.762
 5155SOL    HW118799   4.385   2.852   5.693
 5155SOL    HW218800   4.347   2.847   5.852
 5156SOL     OW18801   3.850   2.570   6.197
 5156SOL    HW118802   3.804   2.487   6.229
 5156SOL    HW218803   3.848   2.640   6.269
 5157SOL     OW18804   3.733   3.485   5.782
 5157SOL    HW118805   3.700   3.409   5.726
 5157SOL    HW218806   3.655   3.537   5.817
 5158SOL     OW18807   5.429   2.798   6.136
 5158SOL    HW118808   5.512   2.809   6.190
 5158SOL    HW218809   5.388   2.888   6.119
 5159SOL     OW18810   5.327   3.058   6.101
 5159SOL    HW118811   5.406   3.116   6.080
 5159SOL    HW218812   5.271   3.103   6.171
 5160SOL     OW18813   4.424   3.296   6.334
 5160SOL    HW118814   4.389   3.207   6.366
 5160SOL    HW218815   4.391   3.313   6.241
 5161SOL     OW18816   4.515   1.913   6.069
 5161SOL    HW118817   4.535   2.011   6.082
 5161SOL    HW218818   4.418   1.897   6.085
 5162SOL     OW18819   4.241   2.532   5.887
 5162SOL    HW118820   4.267   2.620   5.848
 5162SOL    HW218821   4.195   2.546   5.974
 5163SOL     OW18822   5.006   2.130   6.438
 5163SOL    HW118823   4.911   2.103   6.423
 5163SOL    HW218824   5.059   2.050   6.466
 5164SOL     OW18825   3.836   2.796   6.344
 5164SOL    HW118826   3.893   2.843   6.411
 5164SOL    HW218827   3.770   2.860   6.304
 5165SOL     OW18828   5.099   2.977   5.953
 5165SOL    HW118829   5.182   3.003   6.002
 5165SOL    HW218830   5.043   3.059   5.938
 5166SOL     OW18831   4.396   2.016   6.346
 5166SOL    HW118832   4.342   1.999   6.264
 5166SOL    HW218833   4.388   2.112   6.372
 5167SOL     OW18834   4.734   3.305   6.052
 5167SOL    HW118835   4.685   3.383   6.011
 5167SOL    HW218836   4.786   3.337   6.131
 5168SOL     OW18837   4.025   3.649   6.393
 5168SOL    HW118838   4.065   3.574   6.446
 5168SOL    HW218839   4.082   3.731   6.402
 5169SOL     OW18840   4.855   3.598   5.832
 5169SOL    HW118841   4.773   3.581   5.887
 5169SOL    HW218842   4.872   3.520   5.772
 5170SOL     OW18843   5.050   2.082   6.065
 5170SOL    HW118844   5.024   2.052   5.974
 5170SOL    HW218845   5.129   2.142   6.060
 5171SOL     OW18846   4.109   2.516   6.125
 5171SOL    HW118847   4.116   2.416   6.131
 5171SOL    HW218848   4.017   2.544   6.151
 5172SOL     OW18849   4.242   1.937   6.120
 5172SOL    HW118850   4.157   1.909   6.163
 5172SOL    HW218851   4.222   1.992   6.039
 5173SOL     OW18852   5.197   3.096   5.664
 5173SOL    HW118853   5.249   3.012   5.673
 5173SOL    HW218854   5.099   3.076   5.675
 5174SOL     OW18855   4.540   2.189   6.099
 5174SOL    HW118856   4.521   2.256   6.027
 5174SOL    HW218857   4.637   2.188   6.119
 5175SOL     OW18858   4.196   3.004   6.379
 5175SOL    HW118859   4.116   2.968   6.426
 5175SOL    HW218860   4.167   3.044   6.291
 5176SOL     OW18861   4.987   3.635   6.188
 5176SOL    HW118862   5.069   3.660   6.136
 5176SOL    HW218863   4.944   3.718   6.224
 5177SOL     OW18864   4.740   2.395   5.598
 5177SOL    HW118865   4.643   2.415   5.615
 5177SOL    HW218866   4.792   2.480   5.599
 5178SOL     OW18867   4.419   2.319   6.312
 5178SOL    HW118868   4.405   2.414   6.281
 5178SOL    HW218869   4.462   2.266   6.239
 5179SOL     OW18870   4.753   2.038   6.385
 5179SOL    HW118871   4.761   2.089   6.299
 5179SOL    HW218872   4.695   1.957   6.371
 5180SOL     OW18873   5.559   2.703   5.901
 5180SOL    HW118874   5.500   2.724   5.979
 5180SOL    HW218875   5.525   2.622   5.854
 5181SOL     OW18876   4.253   3.294   5.690
 5181SOL    HW118877   4.233   3.224   5.759
 5181SOL    HW218878   4.205   3.272   5.606
 5182SOL     OW18879   5.568   3.241   6.160
 5182SOL    HW118880   5.605   3.151   6.137
 5182SOL    HW218881   5.554   3.246   6.259
 5183SOL     OW18882   4.146   2.094   5.905
 5183SOL    HW118883   4.228   2.065   5.856
 5183SOL    HW218884   4.111   2.179   5.865
 5184SOL     OW18885   4.406   2.928   6.001
 5184SOL    HW118886   4.390   2.895   6.094
 5184SOL    HW218887   4.493   2.894   5.967
 5185SOL     OW18888   4.189   3.101   6.107
 5185SOL    HW118889   4.234   3.190   6.100
 5185SOL    HW218890   4.246   3.031   6.063
 5186SOL     OW18891   4.939   3.213   5.889
 5186SOL    HW118892   4.941   3.286   5.820
 5186SOL    HW218893   4.867   3.233   5.956
 5187SOL     OW18894   5.316   2.513   6.029
 5187SOL    HW118895   5.330   2.528   6.127
 5187SOL    HW218896   5.279   2.596   5.987
 5188SOL     OW18897   3.994   1.881   6.223
 5188SOL    HW118898   3.952   1.972   6.226
 5188SOL    HW218899   4.003   1.845   6.316
 5189SOL     OW18900   5.281   2.235   5.999
 5189SOL    HW118901   5.361   2.182   6.027
 5189SOL    HW218902   5.290   2.329   6.031
 5190SOL     OW18903   5.122   2.258   5.779
 5190SOL    HW118904   5.058   2.181   5.780
 5190SOL    HW218905   5.190   2.246   5.851
 5191SOL     OW18906   4.934   2.608   5.617
 5191SOL    HW118907   4.982   2.566   5.694
 5191SOL    HW218908   4.995   2.612   5.538
 5192SOL     OW18909   4.870   2.928   6.465
 5192SOL    HW118910   4.860   2.878   6.379
 5192SOL    HW218911   4.958   2.975   6.466
 5193SOL     OW18912   3.760   3.646   6.472
 5193SOL    HW118913   3.749   3.581   0.047
 5193SOL    HW218914   3.855   3.646   6.442
 5194SOL     OW18915   4.500   2.405   5.913
 5194SOL    HW118916   4.506   2.420   5.814
 5194SOL    HW218917   4.413   2.442   5.947
 5195SOL     OW18918   4.055   2.335   5.812
 5195SOL    HW118919   4.127   2.401   5.833
 5195SOL    HW218920   3.972   2.384   5.783
 5196SOL     OW18921   5.196   2.726   5.877
 5196SOL    HW118922   5.147   2.806   5.912
 5196SOL    HW218923   5.131   2.651   5.863
 5197SOL     OW18924   5.503   2.070   6.062
 5197SOL    HW118925   5.566   2.065   5.984
 5197SOL    HW218926   5.443   1.991   6.061
 5198SOL     OW18927   5.565   2.094   0.057
 5198SOL    HW118928   5.563   2.133   6.464
 5198SOL    HW218929   5.472   2.093   0.094
 5199SOL     OW18930   3.917   2.142   6.291
 5199SOL    HW118931   3.846   2.208   6.265
 5199SOL    HW218932   3.908   2.121   6.389
 5200SOL     OW18933   4.909   3.388   5.670
 5200SOL    HW118934   4.994   3.368   5.621
 5200SOL    HW218935   4.833   3.386   5.606
 5201SOL     OW18936   5.249   3.558   5.572
 5201SOL    HW118937   5.207   3.467   5.571
 5201SOL    HW218938   5.318   3.563   5.499
 5202SOL     OW18939   4.339   3.330   6.072
 5202SOL    HW118940   4.405   3.298   6.005
 5202SOL    HW218941   4.311   3.424   6.049
 5203SOL     OW18942   3.872   1.974   5.869
 5203SOL    HW118943   3.873   1.969   5.769
 5203SOL    HW218944   3.958   2.013   5.902
 5204SOL     OW18945   4.897   3.070   5.663
 5204SOL    HW118946   4.804   3.094   5.636
 5204SOL    HW218947   4.918   3.112   5.752
 5205SOL     OW18948   4.807   2.183   6.158
 5205SOL    HW118949   4.897   2.145   6.133
 5205SOL    HW218950   4.799   2.275   6.122
 5206SOL     OW18951   4.357   2.567   6.219
 5206SOL    HW118952   4.370   2.666   6.231
 5206SOL    HW218953   4.264   2.549   6.188
 5207SOL     OW18954   4.636   3.175   5.673
 5207SOL    HW118955   4.592   3.195   5.760
 5207SOL    HW218956   4.639   3.257   5.616
 5208SOL     OW18957   4.368   3.774   0.096
 5208SOL    HW118958   4.365   3.675   0.108
 5208SOL    HW218959   4.462   3.806   0.096
 5209SOL     OW18960   4.588   2.753   6.407
 5209SOL    HW118961   4.602   2.673   6.465
 5209SOL    HW218962   4.588   2.835   6.463
 5210SOL     OW18963   4.807   2.820   5.732
 5210SOL    HW118964   4.847   2.907   5.703
 5210SOL    HW218965   4.858   2.745   5.691
 5211SOL     OW18966   4.121   2.248   6.142
 5211SOL    HW118967   4.135   2.191   6.061
 5211SOL    HW218968   4.053   2.205   6.201
 5212SOL     OW18969   4.646   3.447   6.390
 5212SOL    HW118970   4.729   3.425   6.337
 5212SOL    HW218971   4.572   3.387   6.361
 5213SOL     OW18972   4.521   3.180   5.926
 5213SOL    HW118973   4.488   3.090   5.954
 5213SOL    HW218974   4.602   3.204   5.980
 5214SOL     OW18975   4.995   2.006   5.804
 5214SOL    HW118976   5.078   1.983   5.752
 5214SOL    HW218977   4.940   1.924   5.817
 5215SOL     OW18978   5.051   2.353   6.282
 5215SOL    HW118979   4.991   2.427   6.313
 5215SOL    HW218980   5.026   2.268   6.329
 5216SOL     OW18981   4.602   3.519   5.947
 5216SOL    HW118982   4.541   3.495   5.872
 5216SOL    HW218983   4.567   3.600   5.994
 5217SOL     OW18984   4.291   4.995   1.280
 5217SOL    HW118985   4.199   4.957   1.285
 5217SOL    HW218986   4.288   5.093   1.301
 5218SOL     OW18987   5.254   5.094   0.698
 5218SOL    HW118988   5.203   5.056   0.776
 5218SOL    HW218989   5.204   5.172   0.660
 5219SOL     OW18990   4.816   4.414   0.786
 5219SOL    HW118991   4.892   4.475   0.764
 5219SOL    HW218992   4.745   4.465   0.835
 5220SOL     OW18993   5.458   4.312   0.181
 5220SOL    HW118994   5.414   4.300   0.092
 5220SOL    HW218995   5.431   4.237   0.241
 5221SOL     OW18996   4.318   4.870   1.026
 5221SOL    HW118997   4.326   4.919   1.113
 5221SOL    HW218998   4.268   4.927   0.960
 5222SOL     OW18999   4.501   4.523   1.804
 5222SOL    HW119000   4.523   4.611   1.847
 5222SOL    HW219001   4.474   4.538   1.709
 5223SOL     OW19002   4.368   4.645   0.576
 5223SOL    HW119003   4.408   4.687   0.657
 5223SOL    HW219004   4.269   4.653   0.579
 5224SOL     OW19005   4.411   4.878   1.878
 5224SOL    HW119006   4.478   4.939   1.919
 5224SOL    HW219007   4.339   4.932   1.834
 5225SOL     OW19008   5.188   5.180   1.428
 5225SOL    HW119009   5.238   5.265   1.442
 5225SOL    HW219010   5.194   5.124   1.511
 5226SOL     OW19011   4.093   4.114   1.511
 5226SOL    HW119012   4.170   4.177   1.521
 5226SOL    HW219013   4.118   4.025   1.551
 5227SOL     OW19014   3.931   5.497   0.430
 5227SOL    HW119015   3.953   5.558   0.506
 5227SOL    HW219016   4.014   5.476   0.379
 5228SOL     OW19017   4.801   5.079   1.679
 5228SOL    HW119018   4.857   5.074   1.761
 5228SOL    HW219019   4.739   5.001   1.675
 5229SOL     OW19020   3.852   5.232   0.365
 5229SOL    HW119021   3.875   5.326   0.392
 5229SOL    HW219022   3.842   5.175   0.446
 5230SOL     OW19023   4.051   4.782   0.868
 5230SOL    HW119024   4.060   4.685   0.845
 5230SOL    HW219025   3.987   4.791   0.945
 5231SOL     OW19026   5.298   3.726   1.446
 5231SOL    HW119027   5.384   3.743   1.399
 5231SOL    HW219028   5.278   3.801   1.509
 5232SOL     OW19029   3.724   5.187   0.118
 5232SOL    HW119030   3.649   5.122   0.130
 5232SOL    HW219031   3.764   5.209   0.207
 5233SOL     OW19032   5.404   4.648   0.745
 5233SOL    HW119033   5.497   4.652   0.707
 5233SOL    HW219034   5.355   4.731   0.720
 5234SOL     OW19035   3.862   4.444   1.555
 5234SOL    HW119036   3.850   4.359   1.606
 5234SOL    HW219037   3.830   4.521   1.612
 5235SOL     OW19038   4.334   5.175   0.705
 5235SOL    HW119039   4.277   5.106   0.750
 5235SOL    HW219040   4.320   5.171   0.606
 5236SOL     OW19041   4.551   3.738   0.488
 5236SOL    HW119042   4.626   3.797   0.458
 5236SOL    HW219043   4.464   3.787   0.474
 5237SOL     OW19044   4.009   4.704   1.312
 5237SOL    HW119045   4.003   4.756   1.397
 5237SOL    HW219046   4.027   4.608   1.334
 5238SOL     OW19047   4.856   5.492   1.504
 5238SOL    HW119048   4.881   5.579   1.462
 5238SOL    HW219049   4.906   5.418   1.460
 5239SOL     OW19050   4.076   4.017   1.877
 5239SOL    HW119051   4.128   4.087   1.926
 5239SOL    HW219052   3.979   4.039   1.881
 5240SOL     OW19053   4.124   4.453   0.256
 5240SOL    HW119054   4.093   4.543   0.225
 5240SOL    HW219055   4.085   4.434   0.346
 5241SOL     OW19056   4.876   3.964   0.988
 5241SOL    HW119057   4.845   3.869   0.994
 5241SOL    HW219058   4.963   3.974   1.036
 5242SOL     OW19059   4.519   4.315   1.503
 5242SOL    HW119060   4.506   4.255   1.582
 5242SOL    HW219061   4.468   4.278   1.425
 5243SOL     OW19062   5.112   4.189   1.765
 5243SOL    HW119063   5.126   4.223   1.858
 5243SOL    HW219064   5.178   4.116   1.746
 5244SOL     OW19065   4.706   4.663   1.545
 5244SOL    HW119066   4.739   4.571   1.525
 5244SOL    HW219067   4.692   4.713   1.460
 5245SOL     OW19068   3.770   4.467   0.914
 5245SOL    HW119069   3.869   4.481   0.912
 5245SOL    HW219070   3.725   4.554   0.934
 5246SOL     OW19071   3.837   5.575   1.613
 5246SOL    HW119072   3.818   5.573   1.711
 5246SOL    HW219073   3.766   5.627   1.565
 5247SOL     OW19074   4.610   4.060   0.203
 5247SOL    HW119075   4.596   4.128   0.132
 5247SOL    HW219076   4.616   3.969   0.162
 5248SOL     OW19077   5.413   4.290   1.778
 5248SOL    HW119078   5.367   4.371   1.743
 5248SOL    HW219079   5.437   4.230   1.701
 5249SOL     OW19080   5.112   4.822   0.602
 5249SOL    HW119081   5.209   4.838   0.582
 5249SOL    HW219082   5.057   4.891   0.555
 5250SOL     OW19083   4.287   3.976   0.951
 5250SOL    HW119084   4.270   3.971   1.049
 5250SOL    HW219085   4.327   4.065   0.929
 5251SOL     OW19086   4.727   5.196   0.481
 5251SOL    HW119087   4.722   5.260   0.405
 5251SOL    HW219088   4.676   5.233   0.559
 5252SOL     OW19089   4.087   5.570   0.853
 5252SOL    HW119090   4.150   5.494   0.869
 5252SOL    HW219091   4.108   5.645   0.916
 5253SOL     OW19092   5.498   4.710   1.003
 5253SOL    HW119093   5.471   4.686   0.910
 5253SOL    HW219094   5.423   4.759   1.048
 5254SOL     OW19095   4.919   5.214   1.457
 5254SOL    HW119096   4.892   5.155   1.534
 5254SOL    HW219097   5.016   5.199   1.437
 5255SOL     OW19098   5.272   4.412   0.773
 5255SOL    HW119099   5.262   4.400   0.872
 5255SOL    HW219100   5.324   4.495   0.755
 5256SOL     OW19101   4.803   5.514   0.159
 5256SOL    HW119102   4.747   5.482   0.236
 5256SOL    HW219103   4.791   5.454   0.081
 5257SOL     OW19104   4.194   5.475   0.335
 5257SOL    HW119105   4.234   5.536   0.403
 5257SOL    HW219106   4.267   5.436   0.279
 5258SOL     OW19107   5.191   3.821   0.450
 5258SOL    HW119108   5.189   3.781   0.358
 5258SOL    HW219109   5.286   3.842   0.475
 5259SOL     OW19110   4.192   5.623   1.196
 5259SOL    HW119111   4.128   5.590   1.266
 5259SOL    HW219112   4.254   5.549   1.170
 5260SOL     OW19113   4.699   5.397   0.881
 5260SOL    HW119114   4.797   5.378   0.888
 5260SOL    HW219115   4.666   5.369   0.791
 5261SOL     OW19116   4.015   4.413   0.502
 5261SOL    HW119117   4.066   4.330   0.524
 5261SOL    HW219118   3.919   4.389   0.487
 5262SOL     OW19119   5.250   3.940   1.613
 5262SOL    HW119120   5.255   3.926   1.712
 5262SOL    HW219121   5.155   3.950   1.586
 5263SOL     OW19122   4.564   3.890   1.719
 5263SOL    HW119123   4.652   3.870   1.761
 5263SOL    HW219124   4.491   3.856   1.779
 5264SOL     OW19125   4.488   5.376   1.205
 5264SOL    HW119126   4.479   5.331   1.116
 5264SOL    HW219127   4.557   5.329   1.259
 5265SOL     OW19128   5.026   4.302   1.524
 5265SOL    HW119129   5.061   4.268   1.612
 5265SOL    HW219130   5.073   4.386   1.500
 5266SOL     OW19131   4.751   4.207   0.967
 5266SOL    HW119132   4.782   4.263   0.891
 5266SOL    HW219133   4.792   4.116   0.961
 5267SOL     OW19134   4.322   3.867   0.462
 5267SOL    HW119135   4.236   3.858   0.512
 5267SOL    HW219136   4.322   3.952   0.410
 5268SOL     OW19137   4.750   3.901   0.403
 5268SOL    HW119138   4.703   3.957   0.335
 5268SOL    HW219139   4.806   3.959   0.462
 5269SOL     OW19140   4.776   4.414   1.460
 5269SOL    HW119141   4.694   4.360   1.478
 5269SOL    HW219142   4.857   4.362   1.488
 5270SOL     OW19143   4.959   5.512   0.606
 5270SOL    HW119144   4.968   5.575   0.528
 5270SOL    HW219145   4.905   5.555   0.678
 5271SOL     OW19146   4.570   4.223   6.497
 5271SOL    HW119147   4.528   4.234   6.407
 5271SOL    HW219148   4.576   4.312   0.042
 5272SOL     OW19149   3.775   4.291   1.282
 5272SOL    HW119150   3.873   4.271   1.270
 5272SOL    HW219151   3.763   4.353   1.359
 5273SOL     OW19152   4.234   3.984   1.220
 5273SOL    HW119153   4.277   3.935   1.295
 5273SOL    HW219154   4.137   3.960   1.215
 5274SOL     OW19155   5.145   4.888   0.872
 5274SOL    HW119156   5.060   4.916   0.917
 5274SOL    HW219157   5.125   4.852   0.782
 5275SOL     OW19158   5.586   4.447   0.385
 5275SOL    HW119159   5.677   4.406   0.382
 5275SOL    HW219160   5.531   4.411   0.310
 5276SOL     OW19161   4.279   5.147   0.136
 5276SOL    HW119162   4.182   5.120   0.137
 5276SOL    HW219163   4.334   5.071   0.101
 5277SOL     OW19164   5.043   4.195   0.129
 5277SOL    HW119165   5.032   4.123   0.060
 5277SOL    HW219166   5.027   4.157   0.220
 5278SOL     OW19167   4.357   4.105   0.334
 5278SOL    HW119168   4.448   4.086   0.299
 5278SOL    HW219169   4.300   4.145   0.262
 5279SOL     OW19170   5.590   4.972   1.544
 5279SOL    HW119171   5.684   4.941   1.548
 5279SOL    HW219172   5.585   5.066   1.577
 5280SOL     OW19173   4.679   5.225   1.322
 5280SOL    HW119174   4.629   5.147   1.359
 5280SOL    HW219175   4.771   5.227   1.362
 5281SOL     OW19176   5.283   4.829   1.114
 5281SOL    HW119177   5.281   4.920   1.157
 5281SOL    HW219178   5.227   4.830   1.032
 5282SOL     OW19179   4.776   3.720   1.355
 5282SOL    HW119180   4.796   3.741   1.259
 5282SOL    HW219181   4.713   3.788   1.391
 5283SOL     OW19182   4.654   4.844   1.730
 5283SOL    HW119183   4.559   4.845   1.760
 5283SOL    HW219184   4.666   4.775   1.659
 5284SOL     OW19185   4.328   4.654   0.295
 5284SOL    HW119186   4.356   4.663   0.391
 5284SOL    HW219187   4.286   4.565   0.281
 5285SOL     OW19188   4.996   4.138   1.311
 5285SOL    HW119189   5.015   4.204   1.383
 5285SOL    HW219190   4.903   4.152   1.276
 5286SOL     OW19191   3.736   5.178   1.304
 5286SOL    HW119192   3.700   5.270   1.324
 5286SOL    HW219193   3.836   5.182   1.303
 5287SOL     OW19194   4.336   4.244   0.914
 5287SOL    HW119195   4.352   4.289   0.826
 5287SOL    HW219196   4.355   4.308   0.988
 5288SOL     OW19197   4.979   5.084   0.485
 5288SOL    HW119198   5.041   5.159   0.508
 5288SOL    HW219199   4.885   5.114   0.497
 5289SOL     OW19200   5.436   4.301   0.566
 5289SOL    HW119201   5.378   4.337   0.638
 5289SOL    HW219202   5.478   4.377   0.516
 5290SOL     OW19203   4.021   5.238   1.303
 5290SOL    HW119204   4.035   5.235   1.204
 5290SOL    HW219205   4.109   5.244   1.349
 5291SOL     OW19206   5.280   4.528   1.696
 5291SOL    HW119207   5.224   4.520   1.613
 5291SOL    HW219208   5.350   4.598   1.682
 5292SOL     OW19209   4.815   3.856   1.812
 5292SOL    HW119210   4.833   3.953   1.792
 5292SOL    HW219211   4.863   3.799   1.745
 5293SOL     OW19212   4.185   3.898   1.664
 5293SOL    HW119213   4.126   3.822   1.639
 5293SOL    HW219214   4.145   3.949   1.740
 5294SOL     OW19215   4.195   4.640   1.114
 5294SOL    HW119216   4.239   4.721   1.074
 5294SOL    HW219217   4.128   4.669   1.182
 5295SOL     OW19218   4.366   4.424   1.117
 5295SOL    HW119219   4.457   4.455   1.093
 5295SOL    HW219220   4.303   4.502   1.122
 5296SOL     OW19221   5.525   4.727   1.850
 5296SOL    HW119222   5.496   4.732   1.754
 5296SOL    HW219223   5.445   4.738   1.909
 5297SOL     OW19224   4.107   3.818   0.636
 5297SOL    HW119225   4.079   3.905   0.676
 5297SOL    HW219226   4.165   3.769   0.702
 5298SOL     OW19227   5.388   4.114   0.370
 5298SOL    HW119228   5.408   4.025   0.410
 5298SOL    HW219229   5.392   4.184   0.441
 5299SOL     OW19230   4.615   4.467   0.986
 5299SOL    HW119231   4.649   4.497   1.075
 5299SOL    HW219232   4.635   4.370   0.974
 5300SOL     OW19233   4.684   5.326   1.630
 5300SOL    HW119234   4.750   5.381   1.578
 5300SOL    HW219235   4.720   5.234   1.642
 5301SOL     OW19236   5.625   5.236   1.611
 5301SOL    HW119237   5.621   5.304   1.538
 5301SOL    HW219238   5.702   5.256   1.671
 5302SOL     OW19239   4.214   4.487   1.878
 5302SOL    HW119240   4.223   4.570   1.933
 5302SOL    HW219241   4.303   4.462   1.839
 5303SOL     OW19242   5.337   4.001   0.121
 5303SOL    HW119243   5.267   3.930   0.125
 5303SOL    HW219244   5.348   4.042   0.212
 5304SOL     OW19245   5.042   4.459   0.061
 5304SOL    HW119246   5.044   4.362   0.084
 5304SOL    HW219247   5.074   4.472   6.467
 5305SOL     OW19248   4.044   4.504   0.926
 5305SOL    HW119249   4.099   4.549   0.995
 5305SOL    HW219250   4.051   4.405   0.937
 5306SOL     OW19251   4.069   4.239   0.989
 5306SOL    HW119252   4.055   4.232   1.087
 5306SOL    HW219253   4.166   4.230   0.968
 5307SOL     OW19254   4.849   4.120   1.742
 5307SOL    HW119255   4.783   4.186   1.778
 5307SOL    HW219256   4.942   4.154   1.758
 5308SOL     OW19257   4.989   3.974   1.539
 5308SOL    HW119258   4.932   4.028   1.600
 5308SOL    HW219259   4.993   4.017   1.449
 5309SOL     OW19260   3.821   5.524   0.922
 5309SOL    HW119261   3.782   5.448   0.870
 5309SOL    HW219262   3.918   5.533   0.899
 5310SOL     OW19263   4.257   5.364   0.898
 5310SOL    HW119264   4.329   5.430   0.919
 5310SOL    HW219265   4.292   5.295   0.834
 5311SOL     OW19266   4.672   4.538   1.235
 5311SOL    HW119267   4.716   4.487   1.308
 5311SOL    HW219268   4.664   4.634   1.261
 5312SOL     OW19269   3.662   4.248   1.037
 5312SOL    HW119270   3.707   4.315   0.977
 5312SOL    HW219271   3.705   4.249   1.127
 5313SOL     OW19272   3.846   4.179   1.643
 5313SOL    HW119273   3.925   4.149   1.589
 5313SOL    HW219274   3.762   4.151   1.597
 5314SOL     OW19275   4.355   4.223   1.306
 5314SOL    HW119276   4.310   4.142   1.268
 5314SOL    HW219277   4.357   4.295   1.237
 5315SOL     OW19278   4.197   4.215   0.146
 5315SOL    HW119279   4.163   4.300   0.187
 5315SOL    HW219280   4.120   4.151   0.135
 5316SOL     OW19281   4.911   4.792   1.163
 5316SOL    HW119282   4.935   4.708   1.113
 5316SOL    HW219283   4.921   4.870   1.101
 5317SOL     OW19284   5.142   4.653   0.224
 5317SOL    HW119285   5.177   4.611   0.307
 5317SOL    HW219286   5.110   4.581   0.161
 5318SOL     OW19287   5.487   5.457   1.193
 5318SOL    HW119288   5.500   5.550   1.159
 5318SOL    HW219289   5.476   5.394   1.115
 5319SOL     OW19290   3.881   4.797   1.076
 5319SOL    HW119291   3.904   4.762   1.166
 5319SOL    HW219292   3.792   4.761   1.047
 5320SOL     OW19293   4.637   3.825   0.067
 5320SOL    HW119294   4.632   3.794   6.472
 5320SOL    HW219295   4.727   3.802   0.104
 5321SOL     OW19296   5.463   3.876   0.486
 5321SOL    HW119297   5.536   3.869   0.419
 5321SOL    HW219298   5.493   3.836   0.573
 5322SOL     OW19299   5.132   5.307   0.565
 5322SOL    HW119300   5.210   5.356   0.527
 5322SOL    HW219301   5.060   5.371   0.590
 5323SOL     OW19302   3.766   5.514   1.875
 5323SOL    HW119303   3.726   5.433   1.917
 5323SOL    HW219304   3.836   5.552   1.936
 5324SOL     OW19305   5.044   4.582   0.753
 5324SOL    HW119306   5.123   4.522   0.747
 5324SOL    HW219307   5.056   4.660   0.692
 5325SOL     OW19308   4.534   5.017   1.425
 5325SOL    HW119309   4.514   5.033   1.522
 5325SOL    HW219310   4.449   4.997   1.376
 5326SOL     OW19311   4.393   5.386   0.169
 5326SOL    HW119312   4.387   5.441   0.086
 5326SOL    HW219313   4.356   5.295   0.151
 5327SOL     OW19314   5.309   5.426   1.409
 5327SOL    HW119315   5.372   5.427   1.332
 5327SOL    HW219316   5.283   5.520   1.433
 5328SOL     OW19317   5.501   3.832   0.946
 5328SOL    HW119318   5.544   3.743   0.939
 5328SOL    HW219319   5.422   3.836   0.885
 5329SOL     OW19320   4.097   4.059   0.766
 5329SOL    HW119321   4.041   4.124   0.816
 5329SOL    HW219322   4.167   4.021   0.827
 5330SOL     OW19323   4.739   5.297   6.496
 5330SOL    HW119324   4.774   5.270   0.086
 5330SOL    HW219325   4.723   5.216   6.440
 5331SOL     OW19326   4.673   4.801   1.311
 5331SOL    HW119327   4.753   4.819   1.254
 5331SOL    HW219328   4.634   4.887   1.342
 5332SOL     OW19329   5.063   5.245   6.349
 5332SOL    HW119330   5.033   5.332   6.310
 5332SOL    HW219331   5.094   5.185   6.275
 5333SOL     OW19332   4.318   5.168   0.436
 5333SOL    HW119333   4.396   5.125   0.391
 5333SOL    HW219334   4.257   5.206   0.366
 5334SOL     OW19335   4.006   5.110   0.159
 5334SOL    HW119336   3.937   5.114   0.088
 5334SOL    HW219337   3.970   5.150   0.243
 5335SOL     OW19338   3.810   4.692   1.715
 5335SOL    HW119339   3.718   4.655   1.729
 5335SOL    HW219340   3.822   4.773   1.771
 5336SOL     OW19341   4.345   3.859   1.436
 5336SOL    HW119342   4.444   3.875   1.440
 5336SOL    HW219343   4.304   3.880   1.524
 5337SOL     OW19344   5.151   4.532   1.457
 5337SOL    HW119345   5.078   4.600   1.442
 5337SOL    HW219346   5.234   4.561   1.409
 5338SOL     OW19347   3.763   3.802   0.359
 5338SOL    HW119348   3.764   3.840   0.266
 5338SOL    HW219349   3.857   3.779   0.387
 5339SOL     OW19350   4.875   5.195   0.218
 5339SOL    HW119351   4.918   5.145   0.143
 5339SOL    HW219352   4.909   5.160   0.305
 5340SOL     OW19353   5.197   5.452   0.930
 5340SOL    HW119354   5.214   5.550   0.940
 5340SOL    HW219355   5.283   5.402   0.941
 5341SOL     OW19356   4.487   4.155   1.716
 5341SOL    HW119357   4.544   4.204   1.782
 5341SOL    HW219358   4.508   4.057   1.721
 5342SOL     OW19359   4.011   5.512   1.376
 5342SOL    HW119360   3.964   5.538   1.460
 5342SOL    HW219361   3.993   5.415   1.356
 5343SOL     OW19362   5.360   4.655   1.328
 5343SOL    HW119363   5.418   4.590   1.279
 5343SOL    HW219364   5.324   4.723   1.264
 5344SOL     OW19365   4.358   4.378   0.675
 5344SOL    HW119366   4.368   4.469   0.634
 5344SOL    HW219367   4.295   4.323   0.620
 5345SOL     OW19368   5.460   4.112   1.573
 5345SOL    HW119369   5.538   4.065   1.533
 5345SOL    HW219370   5.383   4.049   1.582
 5346SOL     OW19371   5.451   4.735   1.584
 5346SOL    HW119372   5.494   4.825   1.571
 5346SOL    HW219373   5.426   4.698   1.494
 5347SOL     OW19374   4.510   4.988   0.075
 5347SOL    HW119375   4.532   5.015   0.168
 5347SOL    HW219376   4.587   5.008   0.015
 5348SOL     OW19377   4.437   5.565   0.933
 5348SOL    HW119378   4.428   5.663   0.911
 5348SOL    HW219379   4.534   5.542   0.943
 5349SOL     OW19380   4.538   4.729   0.904
 5349SOL    HW119381   4.558   4.634   0.929
 5349SOL    HW219382   4.456   4.759   0.952
 5350SOL     OW19383   4.815   4.578   0.152
 5350SOL    HW119384   4.846   4.662   0.196
 5350SOL    HW219385   4.894   4.528   0.116
 5351SOL     OW19386   3.811   5.077   0.587
 5351SOL    HW119387   3.763   5.116   0.667
 5351SOL    HW219388   3.791   4.980   0.580
 5352SOL     OW19389   4.448   5.137   1.712
 5352SOL    HW119390   4.357   5.099   1.725
 5352SOL    HW219391   4.442   5.222   1.660
 5353SOL     OW19392   5.535   3.770   1.325
 5353SOL    HW119393   5.557   3.687   1.273
 5353SOL    HW219394   5.518   3.845   1.261
 5354SOL     OW19395   4.187   4.205   0.542
 5354SOL    HW119396   4.248   4.160   0.477
 5354SOL    HW219397   4.161   4.141   0.614
 5355SOL     OW19398   4.043   4.247   1.266
 5355SOL    HW119399   4.063   4.175   1.333
 5355SOL    HW219400   4.069   4.336   1.305
 5356SOL     OW19401   4.564   5.322   0.662
 5356SOL    HW119402   4.539   5.405   0.612
 5356SOL    HW219403   4.481   5.269   0.681
 5357SOL     OW19404   4.548   5.032   0.346
 5357SOL    HW119405   4.541   4.946   0.397
 5357SOL    HW219406   4.619   5.090   0.388
 5358SOL     OW19407   4.295   5.257   1.363
 5358SOL    HW119408   4.334   5.287   1.450
 5358SOL    HW219409   4.344   5.301   1.288
 5359SOL     OW19410   5.137   3.814   0.129
 5359SOL    HW119411   5.172   3.726   0.095
 5359SOL    HW219412   5.042   3.803   0.158
 5360SOL     OW19413   5.253   3.879   0.820
 5360SOL    HW119414   5.188   3.885   0.896
 5360SOL    HW219415   5.251   3.965   0.769
 5361SOL     OW19416   4.618   5.401   0.322
 5361SOL    HW119417   4.543   5.384   0.258
 5361SOL    HW219418   4.585   5.455   0.400
 5362SOL     OW19419   4.383   5.048   2.983
 5362SOL    HW119420   4.298   5.092   2.956
 5362SOL    HW219421   4.458   5.114   2.981
 5363SOL     OW19422   5.157   5.316   2.649
 5363SOL    HW119423   5.193   5.222   2.645
 5363SOL    HW219424   5.174   5.361   2.561
 5364SOL     OW19425   4.840   4.443   2.520
 5364SOL    HW119426   4.917   4.481   2.469
 5364SOL    HW219427   4.830   4.493   2.606
 5365SOL     OW19428   4.394   4.812   2.836
 5365SOL    HW119429   4.397   4.892   2.897
 5365SOL    HW219430   4.345   4.836   2.752
 5366SOL     OW19431   4.524   4.454   3.648
 5366SOL    HW119432   4.543   4.483   3.742
 5366SOL    HW219433   4.580   4.506   3.584
 5367SOL     OW19434   4.376   4.637   2.506
 5367SOL    HW119435   4.456   4.621   2.564
 5367SOL    HW219436   4.330   4.720   2.536
 5368SOL     OW19437   4.490   4.954   3.660
 5368SOL    HW119438   4.539   5.034   3.692
 5368SOL    HW219439   4.415   4.983   3.600
 5369SOL     OW19440   4.146   5.171   2.893
 5369SOL    HW119441   4.075   5.103   2.874
 5369SOL    HW219442   4.196   5.191   2.809
 5370SOL     OW19443   5.078   5.253   3.088
 5370SOL    HW119444   5.124   5.329   3.043
 5370SOL    HW219445   4.995   5.286   3.133
 5371SOL     OW19446   4.173   4.090   3.331
 5371SOL    HW119447   4.266   4.051   3.328
 5371SOL    HW219448   4.108   4.023   3.296
 5372SOL     OW19449   3.961   5.433   2.337
 5372SOL    HW119450   3.963   5.508   2.403
 5372SOL    HW219451   4.039   5.442   2.274
 5373SOL     OW19452   4.027   4.764   2.742
 5373SOL    HW119453   4.060   4.697   2.809
 5373SOL    HW219454   3.991   4.844   2.790
 5374SOL     OW19455   4.283   5.448   3.264
 5374SOL    HW119456   4.208   5.474   3.324
 5374SOL    HW219457   4.307   5.525   3.205
 5375SOL     OW19458   4.259   4.708   2.034
 5375SOL    HW119459   4.307   4.772   1.974
 5375SOL    HW219460   4.319   4.681   2.109
 5376SOL     OW19461   5.329   3.797   3.384
 5376SOL    HW119462   5.384   3.856   3.324
 5376SOL    HW219463   5.303   3.848   3.466
 5377SOL     OW19464   3.809   4.468   2.395
 5377SOL    HW119465   3.715   4.438   2.378
 5377SOL    HW219466   3.813   4.517   2.483
 5378SOL     OW19467   3.646   5.271   2.048
 5378SOL    HW119468   3.663   5.179   2.084
 5378SOL    HW219469   3.664   5.339   2.119
 5379SOL     OW19470   5.469   4.668   2.445
 5379SOL    HW119471   5.560   4.705   2.467
 5379SOL    HW219472   5.469   4.631   2.352
 5380SOL     OW19473   5.504   4.935   2.319
 5380SOL    HW119474   5.578   4.875   2.288
 5380SOL    HW219475   5.502   4.937   2.419
 5381SOL     OW19476   3.919   4.446   3.375
 5381SOL    HW119477   4.013   4.429   3.406
 5381SOL    HW219478   3.876   4.514   3.434
 5382SOL     OW19479   4.596   3.751   2.413
 5382SOL    HW119480   4.625   3.844   2.436
 5382SOL    HW219481   4.498   3.751   2.394
 5383SOL     OW19482   3.881   4.610   3.157
 5383SOL    HW119483   3.978   4.623   3.136
 5383SOL    HW219484   3.872   4.544   3.232
 5384SOL     OW19485   5.300   4.748   2.041
 5384SOL    HW119486   5.217   4.695   2.060
 5384SOL    HW219487   5.300   4.831   2.097
 5385SOL     OW19488   4.867   5.503   3.394
 5385SOL    HW119489   4.863   5.599   3.419
 5385SOL    HW219490   4.947   5.460   3.437
 5386SOL     OW19491   5.221   5.034   2.714
 5386SOL    HW119492   5.155   5.071   2.779
 5386SOL    HW219493   5.186   4.949   2.675
 5387SOL     OW19494   5.438   5.530   2.400
 5387SOL    HW119495   5.342   5.503   2.409
 5387SOL    HW219496   5.467   5.576   2.485
 5388SOL     OW19497   4.317   4.381   2.212
 5388SOL    HW119498   4.358   4.472   2.210
 5388SOL    HW219499   4.224   4.386   2.246
 5389SOL     OW19500   5.004   4.133   2.787
 5389SOL    HW119501   4.934   4.147   2.857
 5389SOL    HW219502   5.005   4.036   2.760
 5390SOL     OW19503   4.505   4.286   3.269
 5390SOL    HW119504   4.472   4.252   3.357
 5390SOL    HW219505   4.454   4.243   3.195
 5391SOL     OW19506   5.070   4.152   3.654
 5391SOL    HW119507   5.088   4.218   3.727
 5391SOL    HW219508   5.150   4.094   3.641
 5392SOL     OW19509   4.709   4.582   3.459
 5392SOL    HW119510   4.739   4.499   3.411
 5392SOL    HW219511   4.661   4.642   3.396
 5393SOL     OW19512   3.822   4.590   2.646
 5393SOL    HW119513   3.856   4.514   2.701
 5393SOL    HW219514   3.880   4.671   2.660
 5394SOL     OW19515   3.826   5.610   3.507
 5394SOL    HW119516   3.841   5.578   3.600
 5394SOL    HW219517   3.746   5.563   3.468
 5395SOL     OW19518   5.383   4.319   3.629
 5395SOL    HW119519   5.352   4.400   3.580
 5395SOL    HW219520   5.406   4.247   3.563
 5396SOL     OW19521   5.214   4.768   2.409
 5396SOL    HW119522   5.307   4.736   2.424
 5396SOL    HW219523   5.214   4.833   2.333
 5397SOL     OW19524   4.251   3.970   2.661
 5397SOL    HW119525   4.220   3.945   2.753
 5397SOL    HW219526   4.291   4.062   2.663
 5398SOL     OW19527   4.039   4.682   2.202
 5398SOL    HW119528   4.113   4.695   2.136
 5398SOL    HW219529   4.043   4.588   2.237
 5399SOL     OW19530   5.212   4.438   2.606
 5399SOL    HW119531   5.181   4.396   2.691
 5399SOL    HW219532   5.276   4.512   2.626
 5400SOL     OW19533   4.731   5.600   2.040
 5400SOL    HW119534   4.700   5.573   2.131
 5400SOL    HW219535   4.705   5.530   1.973
 5401SOL     OW19536   3.934   3.953   3.261
 5401SOL    HW119537   3.919   4.048   3.232
 5401SOL    HW219538   3.855   3.921   3.314
 5402SOL     OW19539   4.165   5.498   2.151
 5402SOL    HW119540   4.188   5.565   2.222
 5402SOL    HW219541   4.249   5.468   2.105
 5403SOL     OW19542   5.150   3.805   2.191
 5403SOL    HW119543   5.095   3.796   2.109
 5403SOL    HW219544   5.205   3.888   2.185
 5404SOL     OW19545   3.975   5.566   3.149
 5404SOL    HW119546   4.007   5.527   3.236
 5404SOL    HW219547   3.987   5.498   3.076
 5405SOL     OW19548   4.056   4.403   2.310
 5405SOL    HW119549   4.069   4.304   2.306
 5405SOL    HW219550   3.962   4.423   2.336
 5406SOL     OW19551   5.279   3.949   3.626
 5406SOL    HW119552   5.329   3.995   3.700
 5406SOL    HW219553   5.227   3.872   3.664
 5407SOL     OW19554   4.349   3.806   1.877
 5407SOL    HW119555   4.359   3.708   1.859
 5407SOL    HW219556   4.288   3.846   1.808
 5408SOL     OW19557   4.472   3.974   3.625
 5408SOL    HW119558   4.564   3.937   3.618
 5408SOL    HW219559   4.420   3.923   3.693
 5409SOL     OW19560   4.311   3.761   2.368
 5409SOL    HW119561   4.232   3.766   2.428
 5409SOL    HW219562   4.310   3.839   2.305
 5410SOL     OW19563   5.114   4.933   1.868
 5410SOL    HW119564   5.158   4.860   1.921
 5410SOL    HW219565   5.025   4.955   1.909
 5411SOL     OW19566   4.003   3.798   2.027
 5411SOL    HW119567   4.051   3.872   1.980
 5411SOL    HW219568   4.069   3.740   2.074
 5412SOL     OW19569   4.760   4.374   3.282
 5412SOL    HW119570   4.669   4.334   3.284
 5412SOL    HW219571   4.828   4.301   3.272
 5413SOL     OW19572   4.882   5.214   2.675
 5413SOL    HW119573   4.941   5.283   2.634
 5413SOL    HW219574   4.931   5.166   2.748
 5414SOL     OW19575   4.245   4.858   2.607
 5414SOL    HW119576   4.161   4.822   2.647
 5414SOL    HW219577   4.224   4.932   2.543
 5415SOL     OW19578   4.980   5.626   2.451
 5415SOL    HW119579   4.987   5.722   2.424
 5415SOL    HW219580   4.910   5.615   2.521
 5416SOL     OW19581   4.664   4.306   1.863
 5416SOL    HW119582   4.612   4.385   1.833
 5416SOL    HW219583   4.686   4.316   1.960
 5417SOL     OW19584   3.885   4.220   3.196
 5417SOL    HW119585   3.922   4.236   3.104
 5417SOL    HW219586   3.907   4.298   3.254
 5418SOL     OW19587   5.165   4.351   2.865
 5418SOL    HW119588   5.118   4.265   2.845
 5418SOL    HW219589   5.246   4.333   2.919
 5419SOL     OW19590   5.159   4.271   2.023
 5419SOL    HW119591   5.115   4.232   2.104
 5419SOL    HW219592   5.258   4.260   2.030
 5420SOL     OW19593   4.284   3.946   2.133
 5420SOL    HW119594   4.318   3.885   2.060
 5420SOL    HW219595   4.263   4.036   2.094
 5421SOL     OW19596   5.577   5.029   3.484
 5421SOL    HW119597   5.608   4.959   3.547
 5421SOL    HW219598   5.552   5.111   3.535
 5422SOL     OW19599   4.831   4.917   2.954
 5422SOL    HW119600   4.813   4.889   3.048
 5422SOL    HW219601   4.745   4.935   2.907
 5423SOL     OW19602   5.368   4.836   2.959
 5423SOL    HW119603   5.321   4.912   3.004
 5423SOL    HW219604   5.325   4.817   2.872
 5424SOL     OW19605   4.648   3.853   3.249
 5424SOL    HW119606   4.677   3.824   3.158
 5424SOL    HW219607   4.723   3.902   3.294
 5425SOL     OW19608   4.672   4.752   3.674
 5425SOL    HW119609   4.601   4.820   3.656
 5425SOL    HW219610   4.684   4.693   3.594
 5426SOL     OW19611   4.425   4.630   2.232
 5426SOL    HW119612   4.420   4.640   2.331
 5426SOL    HW219613   4.520   4.639   2.201
 5427SOL     OW19614   4.159   4.591   3.173
 5427SOL    HW119615   4.221   4.625   3.244
 5427SOL    HW219616   4.156   4.491   3.177
 5428SOL     OW19617   3.847   5.277   3.166
 5428SOL    HW119618   3.810   5.351   3.110
 5428SOL    HW219619   3.947   5.276   3.159
 5429SOL     OW19620   4.331   4.233   2.680
 5429SOL    HW119621   4.277   4.292   2.620
 5429SOL    HW219622   4.380   4.289   2.747
 5430SOL     OW19623   5.017   5.096   2.878
 5430SOL    HW119624   5.039   5.152   2.958
 5430SOL    HW219625   4.957   5.021   2.906
 5431SOL     OW19626   4.127   5.235   3.169
 5431SOL    HW119627   4.143   5.215   3.072
 5431SOL    HW219628   4.190   5.306   3.199
 5432SOL     OW19629   4.174   4.429   3.483
 5432SOL    HW119630   4.262   4.442   3.438
 5432SOL    HW219631   4.173   4.340   3.529
 5433SOL     OW19632   5.293   4.536   3.486
 5433SOL    HW119633   5.204   4.572   3.515
 5433SOL    HW219634   5.349   4.609   3.448
 5434SOL     OW19635   4.721   3.862   3.630
 5434SOL    HW119636   4.765   3.952   3.631
 5434SOL    HW219637   4.781   3.796   3.585
 5435SOL     OW19638   4.142   3.672   3.747
 5435SOL    HW119639   4.155   3.576   3.722
 5435SOL    HW219640   4.070   3.712   3.690
 5436SOL     OW19641   4.228   4.605   2.914
 5436SOL    HW119642   4.290   4.681   2.893
 5436SOL    HW219643   4.206   4.606   3.011
 5437SOL     OW19644   5.135   4.559   3.068
 5437SOL    HW119645   5.138   4.504   2.984
 5437SOL    HW219646   5.174   4.508   3.144
 5438SOL     OW19647   3.769   5.030   3.083
 5438SOL    HW119648   3.782   4.963   3.156
 5438SOL    HW219649   3.795   5.121   3.116
 5439SOL     OW19650   4.435   4.422   2.864
 5439SOL    HW119651   4.489   4.476   2.800
 5439SOL    HW219652   4.353   4.473   2.891
 5440SOL     OW19653   5.417   4.709   3.719
 5440SOL    HW119654   5.384   4.628   3.671
 5440SOL    HW219655   5.351   4.736   3.790
 5441SOL     OW19656   4.074   3.731   2.508
 5441SOL    HW119657   4.038   3.823   2.496
 5441SOL    HW219658   4.074   3.707   2.605
 5442SOL     OW19659   5.347   4.010   2.124
 5442SOL    HW119660   5.394   3.960   2.197
 5442SOL    HW219661   5.395   4.095   2.104
 5443SOL     OW19662   4.683   5.309   3.505
 5443SOL    HW119663   4.738   5.388   3.476
 5443SOL    HW219664   4.736   5.225   3.496
 5444SOL     OW19665   4.164   4.703   3.535
 5444SOL    HW119666   4.217   4.730   3.616
 5444SOL    HW219667   4.177   4.605   3.518
 5445SOL     OW19668   5.234   3.937   1.882
 5445SOL    HW119669   5.162   3.871   1.907
 5445SOL    HW219670   5.284   3.964   1.964
 5446SOL     OW19671   5.070   4.498   1.887
 5446SOL    HW119672   5.092   4.411   1.932
 5446SOL    HW219673   5.138   4.517   1.816
 5447SOL     OW19674   4.044   4.446   2.788
 5447SOL    HW119675   4.082   4.434   2.696
 5447SOL    HW219676   4.108   4.498   2.844
 5448SOL     OW19677   4.856   3.989   3.370
 5448SOL    HW119678   4.836   4.034   3.457
 5448SOL    HW219679   4.898   4.054   3.307
 5449SOL     OW19680   3.669   4.984   2.064
 5449SOL    HW119681   3.671   5.004   1.966
 5449SOL    HW219682   3.713   4.896   2.080
 5450SOL     OW19683   4.314   5.250   2.691
 5450SOL    HW119684   4.365   5.315   2.747
 5450SOL    HW219685   4.338   5.263   2.595
 5451SOL     OW19686   4.720   4.416   3.002
 5451SOL    HW119687   4.734   4.433   3.100
 5451SOL    HW219688   4.625   4.439   2.978
 5452SOL     OW19689   5.034   4.626   3.556
 5452SOL    HW119690   5.066   4.713   3.519
 5452SOL    HW219691   4.942   4.607   3.521
 5453SOL     OW19692   5.385   4.350   3.043
 5453SOL    HW119693   5.348   4.350   3.135
 5453SOL    HW219694   5.482   4.324   3.045
 5454SOL     OW19695   4.006   5.305   3.579
 5454SOL    HW119696   3.959   5.369   3.640
 5454SOL    HW219697   4.057   5.239   3.633
 5455SOL     OW19698   4.379   4.211   3.030
 5455SOL    HW119699   4.410   4.124   2.993
 5455SOL    HW219700   4.403   4.285   2.967
 5456SOL     OW19701   4.199   4.199   2.036
 5456SOL    HW119702   4.264   4.256   2.086
 5456SOL    HW219703   4.117   4.251   2.015
 5457SOL     OW19704   3.828   4.846   3.295
 5457SOL    HW119705   3.844   4.811   3.388
 5457SOL    HW219706   3.840   4.772   3.229
 5458SOL     OW19707   5.089   4.806   3.184
 5458SOL    HW119708   5.104   4.717   3.141
 5458SOL    HW219709   5.149   4.874   3.142
 5459SOL     OW19710   5.081   4.623   2.128
 5459SOL    HW119711   5.055   4.569   2.208
 5459SOL    HW219712   5.055   4.572   2.045
 5460SOL     OW19713   5.491   5.410   2.911
 5460SOL    HW119714   5.548   5.445   2.837
 5460SOL    HW219715   5.462   5.316   2.890
 5461SOL     OW19716   3.935   4.996   2.858
 5461SOL    HW119717   3.870   5.003   2.933
 5461SOL    HW219718   3.887   5.011   2.771
 5462SOL     OW19719   4.405   5.303   3.471
 5462SOL    HW119720   4.372   5.358   3.395
 5462SOL    HW219721   4.505   5.310   3.476
 5463SOL     OW19722   5.439   3.849   2.337
 5463SOL    HW119723   5.482   3.899   2.412
 5463SOL    HW219724   5.389   3.771   2.374
 5464SOL     OW19725   5.178   5.450   2.403
 5464SOL    HW119726   5.157   5.412   2.313
 5464SOL    HW219727   5.105   5.513   2.431
 5465SOL     OW19728   3.881   5.478   3.746
 5465SOL    HW119729   3.847   5.404   3.804
 5465SOL    HW219730   3.931   5.544   3.802
 5466SOL     OW19731   5.067   4.534   2.396
 5466SOL    HW119732   5.120   4.481   2.462
 5466SOL    HW219733   5.108   4.625   2.386
 5467SOL     OW19734   4.376   4.902   3.217
 5467SOL    HW119735   4.288   4.916   3.261
 5467SOL    HW219736   4.381   4.955   3.132
 5468SOL     OW19737   4.415   5.418   2.035
 5468SOL    HW119738   4.492   5.419   1.971
 5468SOL    HW219739   4.424   5.342   2.099
 5469SOL     OW19740   4.010   3.992   2.513
 5469SOL    HW119741   3.921   4.018   2.550
 5469SOL    HW219742   4.079   4.000   2.585
 5470SOL     OW19743   4.652   5.379   1.898
 5470SOL    HW119744   4.667   5.287   1.935
 5470SOL    HW219745   4.663   5.377   1.798
 5471SOL     OW19746   4.586   4.737   3.274
 5471SOL    HW119747   4.671   4.781   3.244
 5471SOL    HW219748   4.509   4.798   3.257
 5472SOL     OW19749   4.682   4.623   2.129
 5472SOL    HW119750   4.737   4.667   2.057
 5472SOL    HW219751   4.690   4.524   2.121
 5473SOL     OW19752   4.122   4.994   3.305
 5473SOL    HW119753   4.112   5.082   3.257
 5473SOL    HW219754   4.034   4.947   3.306
 5474SOL     OW19755   5.264   5.047   3.121
 5474SOL    HW119756   5.331   5.068   3.191
 5474SOL    HW219757   5.194   5.119   3.118
 5475SOL     OW19758   4.696   4.665   2.405
 5475SOL    HW119759   4.728   4.577   2.441
 5475SOL    HW219760   4.701   4.665   2.305
 5476SOL     OW19761   5.498   3.953   3.229
 5476SOL    HW119762   5.592   3.956   3.263
 5476SOL    HW219763   5.498   3.925   3.133
 5477SOL     OW19764   3.945   5.051   2.091
 5477SOL    HW119765   3.847   5.032   2.083
 5477SOL    HW219766   3.979   5.012   2.177
 5478SOL     OW19767   3.894   4.698   3.521
 5478SOL    HW119768   3.871   4.678   3.616
 5478SOL    HW219769   3.993   4.706   3.512
 5479SOL     OW19770   4.424   3.982   3.350
 5479SOL    HW119771   4.501   3.935   3.307
 5479SOL    HW219772   4.437   3.985   3.449
 5480SOL     OW19773   3.801   4.040   1.883
 5480SOL    HW119774   3.762   3.951   1.859
 5480SOL    HW219775   3.804   4.098   1.802
 5481SOL     OW19776   3.797   3.967   2.158
 5481SOL    HW119777   3.786   4.014   2.071
 5481SOL    HW219778   3.875   3.905   2.153
 5482SOL     OW19779   4.854   4.987   1.950
 5482SOL    HW119780   4.764   5.029   1.959
 5482SOL    HW219781   4.845   4.888   1.953
 5483SOL     OW19782   4.397   4.534   3.330
 5483SOL    HW119783   4.463   4.608   3.314
 5483SOL    HW219784   4.438   4.446   3.305
 5484SOL     OW19785   5.213   5.429   2.901
 5484SOL    HW119786   5.199   5.387   2.811
 5484SOL    HW219787   5.311   5.436   2.919
 5485SOL     OW19788   4.421   4.236   3.522
 5485SOL    HW119789   4.451   4.314   3.577
 5485SOL    HW219790   4.432   4.152   3.575
 5486SOL     OW19791   4.065   5.510   3.416
 5486SOL    HW119792   3.984   5.565   3.434
 5486SOL    HW219793   4.058   5.424   3.467
 5487SOL     OW19794   5.456   4.623   3.110
 5487SOL    HW119795   5.425   4.535   3.073
 5487SOL    HW219796   5.426   4.697   3.050
 5488SOL     OW19797   4.190   4.436   2.550
 5488SOL    HW119798   4.259   4.507   2.534
 5488SOL    HW219799   4.138   4.421   2.467
 5489SOL     OW19800   5.404   4.116   3.443
 5489SOL    HW119801   5.434   4.071   3.359
 5489SOL    HW219802   5.357   4.050   3.501
 5490SOL     OW19803   5.450   4.719   3.365
 5490SOL    HW119804   5.512   4.795   3.380
 5490SOL    HW219805   5.461   4.684   3.272
 5491SOL     OW19806   4.591   5.096   1.948
 5491SOL    HW119807   4.543   5.129   2.029
 5491SOL    HW219808   4.541   5.121   1.866
 5492SOL     OW19809   4.556   4.614   2.718
 5492SOL    HW119810   4.656   4.618   2.718
 5492SOL    HW219811   4.520   4.694   2.767
 5493SOL     OW19812   4.830   4.712   1.909
 5493SOL    HW119813   4.778   4.745   1.831
 5493SOL    HW219814   4.896   4.644   1.879
 5494SOL     OW19815   4.279   5.062   3.519
 5494SOL    HW119816   4.226   5.025   3.443
 5494SOL    HW219817   4.324   5.147   3.490
 5495SOL     OW19818   5.554   3.843   2.972
 5495SOL    HW119819   5.559   3.744   2.985
 5495SOL    HW219820   5.641   3.876   2.934
 5496SOL     OW19821   4.121   4.140   2.319
 5496SOL    HW119822   4.164   4.079   2.254
 5496SOL    HW219823   4.073   4.086   2.389
 5497SOL     OW19824   5.384   5.165   2.895
 5497SOL    HW119825   5.342   5.111   2.822
 5497SOL    HW219826   5.360   5.126   2.984
 5498SOL     OW19827   4.178   4.321   3.177
 5498SOL    HW119828   4.159   4.253   3.248
 5498SOL    HW219829   4.246   4.284   3.113
 5499SOL     OW19830   4.730   3.743   3.014
 5499SOL    HW119831   4.682   3.696   2.940
 5499SOL    HW219832   4.827   3.717   3.011
 5500SOL     OW19833   4.501   5.207   2.188
 5500SOL    HW119834   4.453   5.220   2.274
 5500SOL    HW219835   4.596   5.235   2.198
 5501SOL     OW19836   5.035   3.759   1.949
 5501SOL    HW119837   5.054   3.671   1.906
 5501SOL    HW219838   4.946   3.793   1.918
 5502SOL     OW19839   4.966   4.198   2.511
 5502SOL    HW119840   4.914   4.283   2.515
 5502SOL    HW219841   4.993   4.171   2.603
 5503SOL     OW19842   3.791   4.749   2.087
 5503SOL    HW119843   3.880   4.730   2.128
 5503SOL    HW219844   3.747   4.662   2.062
 5504SOL     OW19845   3.937   4.193   3.933
 5504SOL    HW119846   3.840   4.213   3.945
 5504SOL    HW219847   3.973   4.246   3.856
 5505SOL     OW19848   3.891   4.140   4.678
 5505SOL    HW119849   3.930   4.089   4.754
 5505SOL    HW219850   3.801   4.102   4.655
 5506SOL     OW19851   3.698   4.028   4.374
 5506SOL    HW119852   3.671   4.048   4.468
 5506SOL    HW219853   3.632   3.965   4.333
 5507SOL     OW19854   4.852   4.375   4.525
 5507SOL    HW119855   4.854   4.401   4.429
 5507SOL    HW219856   4.762   4.338   4.548
 5508SOL     OW19857   5.357   4.289   3.898
 5508SOL    HW119858   5.375   4.309   3.802
 5508SOL    HW219859   5.341   4.191   3.909
 5509SOL     OW19860   4.508   4.803   4.743
 5509SOL    HW119861   4.597   4.794   4.789
 5509SOL    HW219862   4.479   4.899   4.746
 5510SOL     OW19863   4.474   4.558   5.581
 5510SOL    HW119864   4.480   4.642   5.527
 5510SOL    HW219865   4.502   4.480   5.525
 5511SOL     OW19866   4.391   4.715   4.266
 5511SOL    HW119867   4.399   4.680   4.359
 5511SOL    HW219868   4.468   4.777   4.247
 5512SOL     OW19869   4.497   4.803   5.454
 5512SOL    HW119870   4.565   4.869   5.487
 5512SOL    HW219871   4.476   4.823   5.358
 5513SOL     OW19872   4.015   5.273   4.729
 5513SOL    HW119873   3.957   5.218   4.670
 5513SOL    HW219874   4.095   5.305   4.678
 5514SOL     OW19875   5.118   5.302   5.053
 5514SOL    HW119876   5.199   5.359   5.065
 5514SOL    HW219877   5.061   5.307   5.136
 5515SOL     OW19878   4.235   4.176   5.353
 5515SOL    HW119879   4.310   4.138   5.298
 5515SOL    HW219880   4.213   4.113   5.427
 5516SOL     OW19881   4.306   5.585   5.104
 5516SOL    HW119882   4.238   5.581   5.177
 5516SOL    HW219883   4.394   5.615   5.142
 5517SOL     OW19884   4.308   4.770   3.762
 5517SOL    HW119885   4.381   4.833   3.734
 5517SOL    HW219886   4.337   4.721   3.844
 5518SOL     OW19887   5.289   3.996   5.173
 5518SOL    HW119888   5.357   4.059   5.135
 5518SOL    HW219889   5.206   4.047   5.195
 5519SOL     OW19890   5.630   5.560   4.213
 5519SOL    HW119891   5.716   5.523   4.246
 5519SOL    HW219892   5.643   5.597   4.121
 5520SOL     OW19893   3.802   5.269   3.914
 5520SOL    HW119894   3.782   5.181   3.958
 5520SOL    HW219895   3.766   5.343   3.971
 5521SOL     OW19896   5.407   4.879   4.130
 5521SOL    HW119897   5.486   4.824   4.103
 5521SOL    HW219898   5.438   4.971   4.157
 5522SOL     OW19899   3.912   4.401   5.399
 5522SOL    HW119900   4.007   4.414   5.371
 5522SOL    HW219901   3.865   4.489   5.398
 5523SOL     OW19902   4.291   5.111   4.447
 5523SOL    HW119903   4.262   5.022   4.483
 5523SOL    HW219904   4.244   5.128   4.360
 5524SOL     OW19905   3.845   4.664   5.005
 5524SOL    HW119906   3.935   4.629   5.032
 5524SOL    HW219907   3.786   4.588   4.977
 5525SOL     OW19908   5.244   4.780   3.925
 5525SOL    HW119909   5.202   4.698   3.966
 5525SOL    HW219910   5.307   4.821   3.991
 5526SOL     OW19911   4.852   5.540   5.374
 5526SOL    HW119912   4.826   5.620   5.320
 5526SOL    HW219913   4.878   5.465   5.312
 5527SOL     OW19914   4.155   4.001   5.594
 5527SOL    HW119915   4.178   4.076   5.656
 5527SOL    HW219916   4.057   4.003   5.574
 5528SOL     OW19917   5.455   5.467   4.398
 5528SOL    HW119918   5.516   5.501   4.326
 5528SOL    HW219919   5.362   5.458   4.362
 5529SOL     OW19920   4.950   3.996   4.713
 5529SOL    HW119921   4.858   3.964   4.689
 5529SOL    HW219922   4.943   4.060   4.791
 5530SOL     OW19923   4.698   4.009   4.915
 5530SOL    HW119924   4.614   4.062   4.920
 5530SOL    HW219925   4.699   3.955   4.830
 5531SOL     OW19926   3.752   4.596   4.554
 5531SOL    HW119927   3.787   4.527   4.617
 5531SOL    HW219928   3.805   4.595   4.470
 5532SOL     OW19929   3.848   5.650   5.371
 5532SOL    HW119930   3.867   5.590   5.449
 5532SOL    HW219931   3.757   5.689   5.381
 5533SOL     OW19932   5.400   4.405   5.566
 5533SOL    HW119933   5.462   4.480   5.540
 5533SOL    HW219934   5.417   4.326   5.508
 5534SOL     OW19935   4.349   3.950   4.603
 5534SOL    HW119936   4.325   3.938   4.700
 5534SOL    HW219937   4.304   4.032   4.568
 5535SOL     OW19938   4.917   5.415   4.278
 5535SOL    HW119939   4.887   5.377   4.191
 5535SOL    HW219940   4.916   5.344   4.348
 5536SOL     OW19941   4.029   5.562   4.564
 5536SOL    HW119942   4.085   5.480   4.553
 5536SOL    HW219943   4.085   5.634   4.605
 5537SOL     OW19944   4.900   5.318   5.216
 5537SOL    HW119945   4.846   5.273   5.287
 5537SOL    HW219946   4.864   5.295   5.126
 5538SOL     OW19947   5.293   4.426   4.549
 5538SOL    HW119948   5.260   4.350   4.606
 5538SOL    HW219949   5.228   4.501   4.553
 5539SOL     OW19950   3.982   5.587   4.933
 5539SOL    HW119951   4.040   5.514   4.969
 5539SOL    HW219952   3.929   5.552   4.855
 5540SOL     OW19953   4.145   4.432   4.238
 5540SOL    HW119954   4.145   4.442   4.139
 5540SOL    HW219955   4.057   4.461   4.275
 5541SOL     OW19956   4.381   3.788   3.808
 5541SOL    HW119957   4.408   3.760   3.900
 5541SOL    HW219958   4.292   3.750   3.786
 5542SOL     OW19959   4.413   3.946   5.498
 5542SOL    HW119960   4.465   3.865   5.523
 5542SOL    HW219961   4.326   3.947   5.547
 5543SOL     OW19962   4.591   5.221   4.980
 5543SOL    HW119963   4.548   5.157   4.917
 5543SOL    HW219964   4.689   5.226   4.959
 5544SOL     OW19965   4.925   4.321   5.169
 5544SOL    HW119966   4.932   4.254   5.243
 5544SOL    HW219967   4.960   4.410   5.200
 5545SOL     OW19968   4.600   4.290   4.578
 5545SOL    HW119969   4.577   4.269   4.483
 5545SOL    HW219970   4.581   4.211   4.635
 5546SOL     OW19971   4.219   3.850   4.260
 5546SOL    HW119972   4.153   3.801   4.317
 5546SOL    HW219973   4.172   3.925   4.213
 5547SOL     OW19974   5.010   4.927   3.961
 5547SOL    HW119975   5.097   4.885   3.939
 5547SOL    HW219976   4.938   4.858   3.963
 5548SOL     OW19977   4.013   3.845   3.930
 5548SOL    HW119978   4.068   3.918   3.970
 5548SOL    HW219979   4.073   3.772   3.898
 5549SOL     OW19980   4.675   4.460   5.220
 5549SOL    HW119981   4.732   4.532   5.261
 5549SOL    HW219982   4.734   4.395   5.172
 5550SOL     OW19983   4.204   4.856   4.524
 5550SOL    HW119984   4.199   4.789   4.597
 5550SOL    HW219985   4.176   4.814   4.438
 5551SOL     OW19986   4.234   3.995   4.855
 5551SOL    HW119987   4.273   3.939   4.928
 5551SOL    HW219988   4.135   4.004   4.869
 5552SOL     OW19989   4.510   4.204   4.315
 5552SOL    HW119990   4.438   4.262   4.351
 5552SOL    HW219991   4.514   4.119   4.368
 5553SOL     OW19992   5.132   4.844   4.745
 5553SOL    HW119993   5.122   4.769   4.680
 5553SOL    HW219994   5.219   4.891   4.727
 5554SOL     OW19995   5.210   4.245   4.741
 5554SOL    HW119996   5.125   4.218   4.786
 5554SOL    HW219997   5.271   4.289   4.807
 5555SOL     OW19998   5.465   4.488   4.067
 5555SOL    HW119999   5.522   4.446   4.138
 5555SOL    HW220000   5.430   4.417   4.006
 5556SOL     OW20001   5.342   5.047   4.405
 5556SOL    HW120002   5.324   5.007   4.495
 5556SOL    HW220003   5.257   5.048   4.352
 5557SOL     OW20004   5.084   4.327   3.879
 5557SOL    HW120005   5.029   4.313   3.961
 5557SOL    HW220006   5.181   4.320   3.902
 5558SOL     OW20007   5.584   4.950   5.306
 5558SOL    HW120008   5.678   4.918   5.293
 5558SOL    HW220009   5.584   5.050   5.309
 5559SOL     OW20010   5.310   5.294   5.331
 5559SOL    HW120011   5.297   5.359   5.257
 5559SOL    HW220012   5.404   5.262   5.331
 5560SOL     OW20013   4.900   5.001   4.805
 5560SOL    HW120014   4.830   4.932   4.823
 5560SOL    HW220015   4.985   4.955   4.780
 5561SOL     OW20016   4.696   3.817   5.112
 5561SOL    HW120017   4.642   3.742   5.073
 5561SOL    HW220018   4.703   3.891   5.045
 5562SOL     OW20019   4.375   4.621   3.995
 5562SOL    HW120020   4.382   4.647   4.091
 5562SOL    HW220021   4.459   4.576   3.966
 5563SOL     OW20022   4.093   4.584   5.082
 5563SOL    HW120023   4.180   4.607   5.037
 5563SOL    HW220024   4.112   4.534   5.166
 5564SOL     OW20025   4.925   4.167   4.930
 5564SOL    HW120026   4.934   4.227   5.010
 5564SOL    HW220027   4.840   4.115   4.938
 5565SOL     OW20028   3.787   5.340   5.041
 5565SOL    HW120029   3.743   5.418   4.997
 5565SOL    HW220030   3.886   5.346   5.030
 5566SOL     OW20031   4.114   4.747   4.286
 5566SOL    HW120032   4.079   4.823   4.231
 5566SOL    HW220033   4.208   4.727   4.259
 5567SOL     OW20034   4.258   4.204   4.578
 5567SOL    HW120035   4.277   4.275   4.510
 5567SOL    HW220036   4.279   4.239   4.669
 5568SOL     OW20037   4.882   5.238   4.938
 5568SOL    HW120038   4.975   5.256   4.969
 5568SOL    HW220039   4.881   5.155   4.881
 5569SOL     OW20040   5.277   4.357   4.264
 5569SOL    HW120041   5.290   4.374   4.362
 5569SOL    HW220042   5.321   4.429   4.211
 5570SOL     OW20043   4.060   5.314   4.993
 5570SOL    HW120044   4.043   5.289   4.898
 5570SOL    HW220045   4.159   5.319   5.008
 5571SOL     OW20046   4.193   4.446   5.314
 5571SOL    HW120047   4.274   4.483   5.266
 5571SOL    HW220048   4.206   4.349   5.332
 5572SOL     OW20049   4.774   3.906   5.578
 5572SOL    HW120050   4.762   3.999   5.612
 5572SOL    HW220051   4.862   3.898   5.532
 5573SOL     OW20052   4.206   3.629   5.348
 5573SOL    HW120053   4.119   3.630   5.298
 5573SOL    HW220054   4.227   3.721   5.380
 5574SOL     OW20055   4.343   4.625   4.876
 5574SOL    HW120056   4.410   4.692   4.845
 5574SOL    HW220057   4.261   4.630   4.818
 5575SOL     OW20058   4.900   4.293   4.086
 5575SOL    HW120059   4.926   4.211   4.137
 5575SOL    HW220060   4.821   4.273   4.029
 5576SOL     OW20061   3.955   3.990   4.902
 5576SOL    HW120062   3.876   4.022   4.954
 5576SOL    HW220063   3.972   3.893   4.923
 5577SOL     OW20064   3.769   5.067   5.005
 5577SOL    HW120065   3.678   5.027   4.998
 5577SOL    HW220066   3.762   5.167   5.003
 5578SOL     OW20067   4.396   4.376   4.767
 5578SOL    HW120068   4.466   4.385   4.696
 5578SOL    HW220069   4.380   4.465   4.809
 5579SOL     OW20070   5.574   4.620   5.537
 5579SOL    HW120071   5.516   4.673   5.475
 5579SOL    HW220072   5.588   4.672   5.622
 5580SOL     OW20073   5.258   4.104   4.167
 5580SOL    HW120074   5.338   4.058   4.206
 5580SOL    HW220075   5.257   4.200   4.196
 5581SOL     OW20076   4.727   5.216   5.391
 5581SOL    HW120077   4.654   5.274   5.355
 5581SOL    HW220078   4.687   5.142   5.445
 5582SOL     OW20079   5.573   5.226   5.300
 5582SOL    HW120080   5.597   5.242   5.204
 5582SOL    HW220081   5.619   5.293   5.358
 5583SOL     OW20082   4.139   4.598   5.560
 5583SOL    HW120083   4.200   4.675   5.580
 5583SOL    HW220084   4.170   4.553   5.476
 5584SOL     OW20085   5.270   4.022   3.905
 5584SOL    HW120086   5.227   3.934   3.882
 5584SOL    HW220087   5.257   4.041   4.002
 5585SOL     OW20088   5.005   4.583   3.827
 5585SOL    HW120089   5.033   4.489   3.847
 5585SOL    HW220090   5.023   4.603   3.730
 5586SOL     OW20091   4.951   4.163   5.391
 5586SOL    HW120092   4.936   4.203   5.481
 5586SOL    HW220093   4.978   4.067   5.401
 5587SOL     OW20094   3.745   5.005   4.028
 5587SOL    HW120095   3.645   5.012   4.021
 5587SOL    HW220096   3.781   4.968   3.942
 5588SOL     OW20097   3.823   5.476   4.737
 5588SOL    HW120098   3.866   5.387   4.743
 5588SOL    HW220099   3.863   5.528   4.661
 5589SOL     OW20100   4.218   5.361   4.562
 5589SOL    HW120101   4.287   5.432   4.552
 5589SOL    HW220102   4.252   5.276   4.521
 5590SOL     OW20103   3.702   4.443   4.906
 5590SOL    HW120104   3.773   4.426   4.838
 5590SOL    HW220105   3.622   4.386   4.887
 5591SOL     OW20106   5.398   4.363   4.907
 5591SOL    HW120107   5.412   4.292   4.976
 5591SOL    HW220108   5.481   4.374   4.853
 5592SOL     OW20109   3.969   5.311   5.390
 5592SOL    HW120110   3.944   5.387   5.451
 5592SOL    HW220111   4.011   5.238   5.444
 5593SOL     OW20112   4.467   4.142   4.881
 5593SOL    HW120113   4.386   4.084   4.883
 5593SOL    HW220114   4.441   4.235   4.855
 5594SOL     OW20115   4.564   5.364   5.219
 5594SOL    HW120116   4.575   5.312   5.135
 5594SOL    HW220117   4.574   5.462   5.200
 5595SOL     OW20118   3.852   4.836   5.219
 5595SOL    HW120119   3.927   4.900   5.201
 5595SOL    HW220120   3.838   4.779   5.139
 5596SOL     OW20121   5.148   4.696   4.982
 5596SOL    HW120122   5.150   4.602   4.948
 5596SOL    HW220123   5.148   4.759   4.905
 5597SOL     OW20124   4.892   5.521   4.825
 5597SOL    HW120125   4.958   5.594   4.845
 5597SOL    HW220126   4.919   5.437   4.873
 5598SOL     OW20127   3.961   4.803   4.787
 5598SOL    HW120128   4.015   4.876   4.829
 5598SOL    HW220129   3.896   4.767   4.853
 5599SOL     OW20130   4.427   5.355   5.459
 5599SOL    HW120131   4.363   5.430   5.474
 5599SOL    HW220132   4.467   5.363   5.368
 5600SOL     OW20133   5.196   5.404   4.301
 5600SOL    HW120134   5.229   5.385   4.209
 5600SOL    HW220135   5.096   5.411   4.300
 5601SOL     OW20136   3.908   5.486   5.582
 5601SOL    HW120137   3.863   5.411   5.631
 5601SOL    HW220138   3.960   5.542   5.647
 5602SOL     OW20139   4.346   5.299   3.748
 5602SOL    HW120140   4.363   5.318   3.652
 5602SOL    HW220141   4.265   5.242   3.757
 5603SOL     OW20142   5.323   5.474   5.117
 5603SOL    HW120143   5.379   5.478   5.034
 5603SOL    HW220144   5.326   5.561   5.164
 5604SOL     OW20145   3.957   3.988   4.440
 5604SOL    HW120146   3.865   4.009   4.406
 5604SOL    HW220147   3.983   4.053   4.511
 5605SOL     OW20148   5.053   5.261   3.726
 5605SOL    HW120149   5.047   5.314   3.810
 5605SOL    HW220150   4.983   5.189   3.726
 5606SOL     OW20151   4.610   4.507   3.912
 5606SOL    HW120152   4.691   4.566   3.911
 5606SOL    HW220153   4.639   4.412   3.920
 5607SOL     OW20154   4.008   5.072   5.128
 5607SOL    HW120155   4.035   5.167   5.115
 5607SOL    HW220156   3.918   5.058   5.089
 5608SOL     OW20157   4.702   3.889   4.667
 5608SOL    HW120158   4.662   3.931   4.585
 5608SOL    HW220159   4.683   3.791   4.666
 5609SOL     OW20160   5.488   4.156   5.070
 5609SOL    HW120161   5.563   4.217   5.097
 5609SOL    HW220162   5.521   4.091   5.002
 5610SOL     OW20163   3.989   4.964   4.182
 5610SOL    HW120164   3.914   4.988   4.122
 5610SOL    HW220165   4.054   5.040   4.186
 5611SOL     OW20166   4.482   3.955   5.239
 5611SOL    HW120167   4.575   3.921   5.223
 5611SOL    HW220168   4.464   3.958   5.337
 5612SOL     OW20169   3.785   3.858   4.081
 5612SOL    HW120170   3.801   3.928   4.151
 5612SOL    HW220171   3.867   3.850   4.023
 5613SOL     OW20172   4.868   5.067   3.765
 5613SOL    HW120173   4.778   5.099   3.794
 5613SOL    HW220174   4.913   5.021   3.842
 5614SOL     OW20175   4.403   4.537   5.151
 5614SOL    HW120176   4.498   4.512   5.172
 5614SOL    HW220177   4.397   4.564   5.055
 5615SOL     OW20178   4.095   5.538   5.285
 5615SOL    HW120179   4.012   5.594   5.288
 5615SOL    HW220180   4.071   5.442   5.293
 5616SOL     OW20181   5.443   4.607   5.044
 5616SOL    HW120182   5.420   4.522   4.997
 5616SOL    HW220183   5.359   4.657   5.065
 5617SOL     OW20184   4.991   4.084   4.239
 5617SOL    HW120185   5.082   4.080   4.199
 5617SOL    HW220186   4.997   4.112   4.335
 5618SOL     OW20187   4.343   4.398   4.411
 5618SOL    HW120188   4.366   4.485   4.454
 5618SOL    HW220189   4.271   4.412   4.343
 5619SOL     OW20190   5.443   4.157   5.449
 5619SOL    HW120191   5.457   4.099   5.368
 5619SOL    HW220192   5.359   4.128   5.496
 5620SOL     OW20193   4.615   5.185   3.747
 5620SOL    HW120194   4.537   5.229   3.792
 5620SOL    HW220195   4.640   5.238   3.666
 5621SOL     OW20196   4.384   5.584   4.535
 5621SOL    HW120197   4.326   5.656   4.573
 5621SOL    HW220198   4.472   5.623   4.508
 5622SOL     OW20199   4.450   4.627   4.527
 5622SOL    HW120200   4.539   4.581   4.529
 5622SOL    HW220201   4.449   4.700   4.596
 5623SOL     OW20202   4.801   4.739   3.903
 5623SOL    HW120203   4.752   4.752   3.817
 5623SOL    HW220204   4.881   4.681   3.888
 5624SOL     OW20205   5.587   5.316   4.578
 5624SOL    HW120206   5.535   5.370   4.512
 5624SOL    HW220207   5.607   5.226   4.539
 5625SOL     OW20208   3.896   4.930   4.447
 5625SOL    HW120209   3.940   4.870   4.514
 5625SOL    HW220210   3.949   4.931   4.362
 5626SOL     OW20211   4.470   4.968   5.207
 5626SOL    HW120212   4.373   4.958   5.230
 5626SOL    HW220213   4.494   5.064   5.202
 5627SOL     OW20214   4.326   5.327   5.019
 5627SOL    HW120215   4.329   5.423   5.048
 5627SOL    HW220216   4.420   5.295   5.002
 5628SOL     OW20217   5.176   3.766   3.813
 5628SOL    HW120218   5.236   3.710   3.869
 5628SOL    HW220219   5.106   3.709   3.770
 5629SOL     OW20220   5.013   4.151   4.495
 5629SOL    HW120221   4.966   4.237   4.516
 5629SOL    HW220222   5.003   4.088   4.572
 5630SOL     OW20223   4.458   5.328   3.993
 5630SOL    HW120224   4.412   5.335   3.905
 5630SOL    HW220225   4.449   5.414   4.043
 5631SOL     OW20226   3.934   4.328   5.680
 5631SOL    HW120227   3.851   4.281   5.709
 5631SOL    HW220228   3.922   4.362   5.587
 5632SOL     OW20229   4.013   4.020   0.075
 5632SOL    HW120230   4.074   3.958   0.025
 5632SOL    HW220231   3.928   3.972   0.096
 5633SOL     OW20232   3.602   4.013   6.295
 5633SOL    HW120233   3.536   4.088   6.310
 5633SOL    HW220234   3.587   3.974   6.204
 5634SOL     OW20235   4.751   4.424   6.242
 5634SOL    HW120236   4.814   4.492   6.203
 5634SOL    HW220237   4.693   4.468   6.310
 5635SOL     OW20238   5.491   4.321   5.810
 5635SOL    HW120239   5.447   4.345   5.724
 5635SOL    HW220240   5.430   4.262   5.863
 5636SOL     OW20241   4.425   4.732   0.047
 5636SOL    HW120242   4.397   4.698   0.137
 5636SOL    HW220243   4.456   4.827   0.056
 5637SOL     OW20244   5.334   4.212   6.442
 5637SOL    HW120245   5.249   4.221   6.389
 5637SOL    HW220246   5.327   4.132   0.002
 5638SOL     OW20247   4.296   4.801   5.647
 5638SOL    HW120248   4.369   4.812   5.579
 5638SOL    HW220249   4.333   4.820   5.738
 5639SOL     OW20250   5.543   5.444   5.898
 5639SOL    HW120251   5.638   5.446   5.930
 5639SOL    HW220252   5.502   5.534   5.912
 5640SOL     OW20253   3.787   5.254   5.694
 5640SOL    HW120254   3.711   5.193   5.670
 5640SOL    HW220255   3.758   5.316   5.766
 5641SOL     OW20256   5.454   4.666   6.252
 5641SOL    HW120257   5.502   4.608   6.318
 5641SOL    HW220258   5.507   4.749   6.235
 5642SOL     OW20259   5.564   4.901   6.156
 5642SOL    HW120260   5.506   4.892   6.076
 5642SOL    HW220261   5.538   4.983   6.207
 5643SOL     OW20262   4.366   4.974   6.186
 5643SOL    HW120263   4.367   4.888   6.238
 5643SOL    HW220264   4.277   5.018   6.197
 5644SOL     OW20265   4.526   3.765   6.059
 5644SOL    HW120266   4.578   3.816   5.990
 5644SOL    HW220267   4.433   3.801   6.065
 5645SOL     OW20268   5.218   4.724   5.829
 5645SOL    HW120269   5.228   4.630   5.797
 5645SOL    HW220270   5.247   4.730   5.924
 5646SOL     OW20271   5.420   5.315   6.118
 5646SOL    HW120272   5.469   5.356   6.042
 5646SOL    HW220273   5.322   5.319   6.101
 5647SOL     OW20274   4.342   4.416   5.775
 5647SOL    HW120275   4.391   4.465   5.703
 5647SOL    HW220276   4.267   4.472   5.809
 5648SOL     OW20277   5.034   3.987   6.442
 5648SOL    HW120278   4.967   3.937   6.386
 5648SOL    HW220279   5.080   3.923   0.004
 5649SOL     OW20280   5.298   5.341   5.808
 5649SOL    HW120281   5.386   5.386   5.825
 5649SOL    HW220282   5.263   5.371   5.719
 5650SOL     OW20283   3.975   5.592   6.444
 5650SOL    HW120284   4.027   5.517   6.402
 5650SOL    HW220285   4.015   5.679   6.417
 5651SOL     OW20286   5.505   4.816   0.026
 5651SOL    HW120287   5.410   4.838   0.049
 5651SOL    HW220288   5.543   4.755   0.096
 5652SOL     OW20289   4.081   4.528   5.818
 5652SOL    HW120290   4.103   4.572   5.731
 5652SOL    HW220291   4.011   4.458   5.803
 5653SOL     OW20292   5.138   4.479   6.302
 5653SOL    HW120293   5.122   4.380   6.291
 5653SOL    HW220294   5.232   4.500   6.276
 5654SOL     OW20295   4.850   5.430   5.858
 5654SOL    HW120296   4.774   5.367   5.877
 5654SOL    HW220297   4.883   5.416   5.765
 5655SOL     OW20298   5.404   5.121   5.670
 5655SOL    HW120299   5.358   5.183   5.734
 5655SOL    HW220300   5.341   5.098   5.595
 5656SOL     OW20301   4.171   5.465   5.930
 5656SOL    HW120302   4.260   5.509   5.916
 5656SOL    HW220303   4.173   5.374   5.890
 5657SOL     OW20304   5.216   3.747   6.034
 5657SOL    HW120305   5.178   3.729   5.943
 5657SOL    HW220306   5.259   3.838   6.034
 5658SOL     OW20307   4.058   3.799   5.764
 5658SOL    HW120308   4.096   3.865   5.699
 5658SOL    HW220309   4.117   3.795   5.845
 5659SOL     OW20310   4.654   3.906   5.860
 5659SOL    HW120311   4.630   3.993   5.818
 5659SOL    HW220312   4.725   3.861   5.805
 5660SOL     OW20313   4.965   5.478   6.224
 5660SOL    HW120314   4.976   5.536   6.143
 5660SOL    HW220315   4.879   5.499   6.269
 5661SOL     OW20316   4.642   3.716   6.309
 5661SOL    HW120317   4.593   3.725   6.223
 5661SOL    HW220318   4.639   3.621   6.340
 5662SOL     OW20319   5.561   4.535   5.962
 5662SOL    HW120320   5.612   4.499   6.040
 5662SOL    HW220321   5.540   4.461   5.898
 5663SOL     OW20322   4.178   5.219   5.797
 5663SOL    HW120323   4.172   5.138   5.856
 5663SOL    HW220324   4.135   5.199   5.709
 5664SOL     OW20325   5.127   4.203   5.791
 5664SOL    HW120326   5.035   4.201   5.829
 5664SOL    HW220327   5.194   4.188   5.864
 5665SOL     OW20328   4.383   4.861   5.930
 5665SOL    HW120329   4.398   4.884   6.026
 5665SOL    HW220330   4.452   4.794   5.901
 5666SOL     OW20331   5.309   4.455   6.062
 5666SOL    HW120332   5.250   4.536   6.061
 5666SOL    HW220333   5.404   4.482   6.042
 5667SOL     OW20334   4.870   4.247   5.891
 5667SOL    HW120335   4.851   4.218   5.985
 5667SOL    HW220336   4.893   4.344   5.890
 5668SOL     OW20337   3.852   3.766   6.198
 5668SOL    HW120338   3.863   3.858   6.234
 5668SOL    HW220339   3.909   3.702   6.250
 5669SOL     OW20340   5.318   4.182   5.981
 5669SOL    HW120341   5.361   4.109   6.033
 5669SOL    HW220342   5.316   4.266   6.036
 5670SOL     OW20343   5.191   4.463   5.733
 5670SOL    HW120344   5.165   4.370   5.756
 5670SOL    HW220345   5.261   4.462   5.662
 5671SOL     OW20346   4.735   5.027   6.412
 5671SOL    HW120347   4.737   4.951   6.347
 5671SOL    HW220348   4.826   5.040   6.451
 5672SOL     OW20349   3.712   5.552   0.002
 5672SOL    HW120350   3.671   5.469   6.466
 5672SOL    HW220351   3.809   5.556   6.475
 5673SOL     OW20352   4.167   4.214   5.769
 5673SOL    HW120353   4.242   4.280   5.764
 5673SOL    HW220354   4.085   4.252   5.726
 5674SOL     OW20355   4.958   4.509   5.882
 5674SOL    HW120356   4.895   4.565   5.827
 5674SOL    HW220357   5.046   4.504   5.836
 5675SOL     OW20358   5.446   3.957   6.110
 5675SOL    HW120359   5.533   3.945   6.061
 5675SOL    HW220360   5.434   3.882   6.175
 5676SOL     OW20361   5.154   5.313   6.035
 5676SOL    HW120362   5.191   5.328   5.943
 5676SOL    HW220363   5.085   5.383   6.054
 5677SOL     OW20364   4.937   4.598   6.146
 5677SOL    HW120365   5.015   4.568   6.201
 5677SOL    HW220366   4.951   4.572   6.051
 5678SOL     OW20367   4.419   5.334   5.727
 5678SOL    HW120368   4.431   5.334   5.628
 5678SOL    HW220369   4.337   5.281   5.751
 5679SOL     OW20370   5.599   3.963   0.034
 5679SOL    HW120371   5.618   3.871   0.001
 5679SOL    HW220372   5.500   3.974   0.047
 5680SOL     OW20373   3.872   4.005   6.322
 5680SOL    HW120374   3.772   4.016   6.324
 5680SOL    HW220375   3.910   4.040   6.408
 5681SOL     OW20376   4.921   5.372   5.598
 5681SOL    HW120377   4.885   5.279   5.604
 5681SOL    HW220378   4.879   5.419   5.520
 5682SOL     OW20379   4.566   4.703   5.798
 5682SOL    HW120380   4.665   4.701   5.784
 5682SOL    HW220381   4.522   4.643   5.731
 5683SOL     OW20382   5.198   5.403   5.568
 5683SOL    HW120383   5.099   5.395   5.571
 5683SOL    HW220384   5.232   5.370   5.480
 5684SOL     OW20385   4.771   4.792   6.269
 5684SOL    HW120386   4.716   4.727   6.322
 5684SOL    HW220387   4.836   4.741   6.213
 5685SOL     OW20388   3.886   4.025   5.589
 5685SOL    HW120389   3.830   4.027   5.672
 5685SOL    HW220390   3.842   4.080   5.518
 5686SOL     OW20391   3.822   3.923   5.859
 5686SOL    HW120392   3.868   4.005   5.893
 5686SOL    HW220393   3.889   3.862   5.818
 5687SOL     OW20394   4.653   5.008   5.551
 5687SOL    HW120395   4.575   5.015   5.613
 5687SOL    HW220396   4.736   5.038   5.597
 5688SOL     OW20397   4.358   5.541   6.445
 5688SOL    HW120398   4.410   5.528   6.361
 5688SOL    HW220399   4.352   5.638   6.466
 5689SOL     OW20400   4.645   4.606   6.431
 5689SOL    HW120401   4.709   4.592   0.007
 5689SOL    HW220402   4.558   4.640   6.467
 5690SOL     OW20403   3.866   5.009   6.282
 5690SOL    HW120404   3.873   4.922   6.330
 5690SOL    HW220405   3.958   5.038   6.252
 5691SOL     OW20406   4.477   5.039   5.749
 5691SOL    HW120407   4.443   4.975   5.818
 5691SOL    HW220408   4.525   5.114   5.794
 5692SOL     OW20409   5.121   3.677   5.795
 5692SOL    HW120410   5.161   3.637   5.713
 5692SOL    HW220411   5.024   3.653   5.800
 5693SOL     OW20412   5.087   4.210   6.289
 5693SOL    HW120413   5.012   4.217   6.224
 5693SOL    HW220414   5.075   4.128   6.346
 5694SOL     OW20415   4.639   5.242   5.861
 5694SOL    HW120416   4.566   5.293   5.814
 5694SOL    HW220417   4.605   5.212   5.951
 5695SOL     OW20418   4.061   5.798   1.029
 5695SOL    HW120419   4.114   5.747   1.097
 5695SOL    HW220420   3.964   5.793   1.050
 5696SOL     OW20421   3.581   5.980   0.842
 5696SOL    HW120422   3.514   6.031   0.788
 5696SOL    HW220423   3.661   5.960   0.785
 5697SOL     OW20424   5.557   6.158   0.182
 5697SOL    HW120425   5.465   6.169   0.144
 5697SOL    HW220426   5.579   6.060   0.186
 5698SOL     OW20427   4.420   0.213   0.682
 5698SOL    HW120428   4.384   0.220   0.775
 5698SOL    HW220429   4.356   0.162   0.625
 5699SOL     OW20430   5.272   6.069   0.687
 5699SOL    HW120431   5.250   6.120   0.604
 5699SOL    HW220432   5.204   6.089   0.757
 5700SOL     OW20433   5.277   5.698   1.448
 5700SOL    HW120434   5.369   5.721   1.418
 5700SOL    HW220435   5.264   5.730   1.542
 5701SOL     OW20436   3.812   6.197   0.635
 5701SOL    HW120437   3.784   6.101   0.629
 5701SOL    HW220438   3.831   6.220   0.731
 5702SOL     OW20439   4.513   5.551   0.523
 5702SOL    HW120440   4.590   5.615   0.512
 5702SOL    HW220441   4.427   5.601   0.523
 5703SOL     OW20442   4.027   5.751   1.774
 5703SOL    HW120443   3.975   5.832   1.801
 5703SOL    HW220444   4.063   5.764   1.682
 5704SOL     OW20445   5.013   5.893   0.988
 5704SOL    HW120446   4.919   5.860   0.989
 5704SOL    HW220447   5.061   5.858   1.069
 5705SOL     OW20448   4.479   6.249   1.461
 5705SOL    HW120449   4.410   6.227   1.530
 5705SOL    HW220450   4.472   6.183   1.385
 5706SOL     OW20451   4.749   6.092   1.214
 5706SOL    HW120452   4.653   6.077   1.242
 5706SOL    HW220453   4.755   6.090   1.114
 5707SOL     OW20454   3.725   6.472   0.864
 5707SOL    HW120455   3.796   6.409   0.897
 5707SOL    HW220456   3.743   6.495   0.768
 5708SOL     OW20457   4.519   5.917   0.147
 5708SOL    HW120458   4.582   5.993   0.162
 5708SOL    HW220459   4.569   5.838   0.113
 5709SOL     OW20460   5.395   6.155   1.851
 5709SOL    HW120461   5.303   6.155   1.888
 5709SOL    HW220462   5.401   6.087   1.777
 5710SOL     OW20463   4.408   5.861   0.905
 5710SOL    HW120464   4.405   5.846   1.004
 5710SOL    HW220465   4.368   5.950   0.884
 5711SOL     OW20466   4.986   5.705   0.409
 5711SOL    HW120467   5.004   5.666   0.318
 5711SOL    HW220468   5.069   5.747   0.444
 5712SOL     OW20469   4.087   6.214   0.605
 5712SOL    HW120470   4.126   6.122   0.597
 5712SOL    HW220471   3.987   6.208   0.596
 5713SOL     OW20472   5.222   5.800   1.709
 5713SOL    HW120473   5.240   5.819   1.805
 5713SOL    HW220474   5.123   5.803   1.692
 5714SOL     OW20475   4.505   5.789   1.739
 5714SOL    HW120476   4.583   5.726   1.730
 5714SOL    HW220477   4.440   5.752   1.805
 5715SOL     OW20478   4.663   6.042   0.941
 5715SOL    HW120479   4.568   6.035   0.910
 5715SOL    HW220480   4.699   5.950   0.958
 5716SOL     OW20481   4.264   5.691   0.494
 5716SOL    HW120482   4.173   5.694   0.535
 5716SOL    HW220483   4.273   5.766   0.427
 5717SOL     OW20484   4.086   5.674   0.180
 5717SOL    HW120485   4.036   5.632   0.105
 5717SOL    HW220486   4.128   5.603   0.237
 5718SOL     OW20487   4.756   6.244   1.447
 5718SOL    HW120488   4.659   6.258   1.467
 5718SOL    HW220489   4.765   6.195   1.360
 5719SOL     OW20490   4.048   0.234   0.758
 5719SOL    HW120491   3.988   0.307   0.792
 5719SOL    HW220492   4.130   0.230   0.814
 5720SOL     OW20493   4.402   5.825   1.179
 5720SOL    HW120494   4.484   5.806   1.233
 5720SOL    HW220495   4.330   5.761   1.205
 5721SOL     OW20496   4.785   5.636   0.778
 5721SOL    HW120497   4.712   5.691   0.738
 5721SOL    HW220498   4.746   5.551   0.814
 5722SOL     OW20499   5.085   6.129   0.883
 5722SOL    HW120500   5.049   6.039   0.910
 5722SOL    HW220501   5.141   6.165   0.958
 5723SOL     OW20502   5.508   6.250   0.439
 5723SOL    HW120503   5.582   6.251   0.507
 5723SOL    HW220504   5.545   6.226   0.350
 5724SOL     OW20505   5.303   6.124   0.070
 5724SOL    HW120506   5.256   6.093   0.153
 5724SOL    HW220507   5.335   6.045   0.018
 5725SOL     OW20508   4.317   5.941   0.335
 5725SOL    HW120509   4.387   5.923   0.267
 5725SOL    HW220510   4.239   5.987   0.291
 5726SOL     OW20511   4.642   5.766   1.308
 5726SOL    HW120512   4.660   5.686   1.251
 5726SOL    HW220513   4.718   5.780   1.371
 5727SOL     OW20514   4.149   6.463   1.246
 5727SOL    HW120515   4.240   6.464   1.287
 5727SOL    HW220516   4.091   6.399   1.296
 5728SOL     OW20517   4.984   5.982   1.318
 5728SOL    HW120518   5.052   6.051   1.344
 5728SOL    HW220519   4.903   6.028   1.281
 5729SOL     OW20520   4.343   6.125   0.857
 5729SOL    HW120521   4.343   6.173   0.769
 5729SOL    HW220522   4.370   6.188   0.930
 5730SOL     OW20523   5.243   6.209   0.449
 5730SOL    HW120524   5.199   6.296   0.426
 5730SOL    HW220525   5.343   6.221   0.448
 5731SOL     OW20526   4.210   6.368   1.559
 5731SOL    HW120527   4.270   6.414   1.494
 5731SOL    HW220528   4.130   6.333   1.511
 5732SOL     OW20529   4.731   5.644   1.702
 5732SOL    HW120530   4.802   5.712   1.718
 5732SOL    HW220531   4.762   5.578   1.634
 5733SOL     OW20532   4.182   6.475   0.978
 5733SOL    HW120533   4.214   0.066   0.952
 5733SOL    HW220534   4.161   6.474   1.076
 5734SOL     OW20535   5.207   6.461   0.903
 5734SOL    HW120536   5.162   6.463   0.814
 5734SOL    HW220537   5.165   6.389   0.959
 5735SOL     OW20538   4.406   6.300   1.057
 5735SOL    HW120539   4.491   6.350   1.074
 5735SOL    HW220540   4.334   6.365   1.030
 5736SOL     OW20541   5.217   5.975   0.301
 5736SOL    HW120542   5.241   5.896   0.358
 5736SOL    HW220543   5.217   6.058   0.358
 5737SOL     OW20544   4.747   6.295   0.900
 5737SOL    HW120545   4.815   6.299   0.827
 5737SOL    HW220546   4.716   6.201   0.911
 5738SOL     OW20547   5.164   5.813   0.084
 5738SOL    HW120548   5.122   5.726   0.110
 5738SOL    HW220549   5.175   5.870   0.165
 5739SOL     OW20550   3.968   6.320   0.884
 5739SOL    HW120551   4.042   6.380   0.914
 5739SOL    HW220552   3.993   6.225   0.904
 5740SOL     OW20553   4.079   6.070   0.957
 5740SOL    HW120554   4.074   5.972   0.976
 5740SOL    HW220555   4.167   6.091   0.915
 5741SOL     OW20556   4.891   5.764   1.451
 5741SOL    HW120557   4.913   5.781   1.547
 5741SOL    HW220558   4.927   5.838   1.395
 5742SOL     OW20559   3.958   6.139   1.206
 5742SOL    HW120560   4.001   6.124   1.117
 5742SOL    HW220561   3.916   6.054   1.237
 5743SOL     OW20562   4.483   6.160   0.453
 5743SOL    HW120563   4.421   6.100   0.402
 5743SOL    HW220564   4.430   6.218   0.514
 5744SOL     OW20565   5.232   6.201   1.100
 5744SOL    HW120566   5.196   6.194   1.193
 5744SOL    HW220567   5.330   6.179   1.101
 5745SOL     OW20568   4.466   6.091   1.239
 5745SOL    HW120569   4.431   6.001   1.216
 5745SOL    HW220570   4.437   6.157   1.170
 5746SOL     OW20571   4.112   6.083   0.231
 5746SOL    HW120572   4.129   6.176   0.196
 5746SOL    HW220573   4.015   6.061   0.222
 5747SOL     OW20574   4.668   5.721   0.037
 5747SOL    HW120575   4.674   5.680   6.446
 5747SOL    HW220576   4.712   5.660   0.103
 5748SOL     OW20577   5.285   5.743   0.440
 5748SOL    HW120578   5.377   5.780   0.451
 5748SOL    HW220579   5.287   5.644   0.458
 5749SOL     OW20580   5.100   6.457   0.655
 5749SOL    HW120581   5.029   6.387   0.669
 5749SOL    HW220582   5.115   6.470   0.557
 5750SOL     OW20583   5.523   5.697   1.071
 5750SOL    HW120584   5.586   5.652   1.007
 5750SOL    HW220585   5.436   5.716   1.024
 5751SOL     OW20586   4.760   5.793   0.995
 5751SOL    HW120587   4.776   5.743   0.910
 5751SOL    HW220588   4.728   5.730   1.066
 5752SOL     OW20589   5.420   6.012   1.371
 5752SOL    HW120590   5.457   6.069   1.297
 5752SOL    HW220591   5.453   5.918   1.360
 5753SOL     OW20592   3.851   0.031   1.782
 5753SOL    HW120593   3.777   0.083   1.824
 5753SOL    HW220594   3.920   0.009   1.852
 5754SOL     OW20595   5.244   0.026   1.251
 5754SOL    HW120596   5.145   0.026   1.235
 5754SOL    HW220597   5.267   0.088   1.326
 5755SOL     OW20598   4.389   6.496   1.378
 5755SOL    HW120599   4.415   0.065   1.445
 5755SOL    HW220600   4.444   6.414   1.391
 5756SOL     OW20601   5.479   6.427   1.158
 5756SOL    HW120602   5.389   6.455   1.192
 5756SOL    HW220603   5.480   6.434   1.058
 5757SOL     OW20604   4.333   6.317   0.622
 5757SOL    HW120605   4.338   6.413   0.595
 5757SOL    HW220606   4.239   6.285   0.616
 5758SOL     OW20607   5.437   5.962   1.657
 5758SOL    HW120608   5.443   5.991   1.561
 5758SOL    HW220609   5.361   5.898   1.668
 5759SOL     OW20610   5.523   5.763   1.339
 5759SOL    HW120611   5.611   5.743   1.381
 5759SOL    HW220612   5.528   5.746   1.241
 5760SOL     OW20613   4.215   5.976   0.588
 5760SOL    HW120614   4.251   5.969   0.495
 5760SOL    HW220615   4.242   5.895   0.640
 5761SOL     OW20616   5.150   5.793   1.215
 5761SOL    HW120617   5.194   5.743   1.290
 5761SOL    HW220618   5.090   5.864   1.253
 5762SOL     OW20619   4.685   5.559   1.138
 5762SOL    HW120620   4.607   5.503   1.166
 5762SOL    HW220621   4.757   5.500   1.100
 5763SOL     OW20622   5.263   5.722   0.974
 5763SOL    HW120623   5.227   5.742   1.065
 5763SOL    HW220624   5.219   5.781   0.906
 5764SOL     OW20625   3.867   5.934   2.876
 5764SOL    HW120626   3.922   5.871   2.930
 5764SOL    HW220627   3.830   5.887   2.796
 5765SOL     OW20628   5.579   6.184   2.050
 5765SOL    HW120629   5.537   6.193   1.960
 5765SOL    HW220630   5.519   6.131   2.110
 5766SOL     OW20631   4.498   6.342   3.623
 5766SOL    HW120632   4.576   6.351   3.685
 5766SOL    HW220633   4.444   6.426   3.626
 5767SOL     OW20634   4.330   0.097   2.531
 5767SOL    HW120635   4.405   0.161   2.516
 5767SOL    HW220636   4.243   0.145   2.519
 5768SOL     OW20637   4.100   5.961   3.265
 5768SOL    HW120638   4.189   5.934   3.303
 5768SOL    HW220639   4.027   5.922   3.320
 5769SOL     OW20640   5.353   6.120   2.736
 5769SOL    HW120641   5.284   6.154   2.673
 5769SOL    HW220642   5.444   6.130   2.695
 5770SOL     OW20643   5.271   5.792   3.350
 5770SOL    HW120644   5.258   5.708   3.298
 5770SOL    HW220645   5.187   5.846   3.348
 5771SOL     OW20646   4.037   5.869   3.660
 5771SOL    HW120647   4.053   5.968   3.663
 5771SOL    HW220648   3.948   5.848   3.701
 5772SOL     OW20649   4.916   5.998   2.820
 5772SOL    HW120650   4.847   5.951   2.875
 5772SOL    HW220651   4.986   6.036   2.880
 5773SOL     OW20652   5.032   6.033   3.582
 5773SOL    HW120653   5.047   6.104   3.650
 5773SOL    HW220654   5.018   5.945   3.627
 5774SOL     OW20655   4.694   6.125   3.022
 5774SOL    HW120656   4.715   6.148   3.117
 5774SOL    HW220657   4.704   6.027   3.009
 5775SOL     OW20658   4.785   6.171   2.291
 5775SOL    HW120659   4.775   6.208   2.384
 5775SOL    HW220660   4.696   6.137   2.260
 5776SOL     OW20661   3.766   6.415   2.675
 5776SOL    HW120662   3.861   6.389   2.697
 5776SOL    HW220663   3.737   6.490   2.735
 5777SOL     OW20664   4.715   5.872   2.049
 5777SOL    HW120665   4.703   5.917   1.960
 5777SOL    HW220666   4.716   5.773   2.036
 5778SOL     OW20667   5.368   6.111   3.619
 5778SOL    HW120668   5.351   6.193   3.565
 5778SOL    HW220669   5.411   6.041   3.561
 5779SOL     OW20670   5.156   6.217   2.565
 5779SOL    HW120671   5.068   6.169   2.564
 5779SOL    HW220672   5.144   6.309   2.602
 5780SOL     OW20673   3.874   5.853   3.388
 5780SOL    HW120674   3.796   5.863   3.326
 5780SOL    HW220675   3.867   5.765   3.436
 5781SOL     OW20676   5.190   5.759   2.229
 5781SOL    HW120677   5.152   5.684   2.284
 5781SOL    HW220678   5.287   5.771   2.253
 5782SOL     OW20679   4.335   5.649   1.904
 5782SOL    HW120680   4.371   5.578   1.965
 5782SOL    HW220681   4.253   5.615   1.859
 5783SOL     OW20682   4.444   5.907   3.653
 5783SOL    HW120683   4.504   5.924   3.575
 5783SOL    HW220684   4.500   5.880   3.732
 5784SOL     OW20685   4.513   5.982   2.717
 5784SOL    HW120686   4.547   5.980   2.623
 5784SOL    HW220687   4.567   6.047   2.770
 5785SOL     OW20688   4.192   5.671   2.353
 5785SOL    HW120689   4.105   5.665   2.402
 5785SOL    HW220690   4.237   5.756   2.376
 5786SOL     OW20691   3.967   5.639   2.020
 5786SOL    HW120692   4.003   5.684   1.938
 5786SOL    HW220693   4.039   5.587   2.064
 5787SOL     OW20694   4.744   5.774   2.307
 5787SOL    HW120695   4.724   5.818   2.220
 5787SOL    HW220696   4.829   5.811   2.345
 5788SOL     OW20697   4.148   0.327   2.515
 5788SOL    HW120698   4.206   0.377   2.580
 5788SOL    HW220699   4.067   0.292   2.562
 5789SOL     OW20700   4.821   6.270   1.901
 5789SOL    HW120701   4.743   6.222   1.862
 5789SOL    HW220702   4.868   6.211   1.966
 5790SOL     OW20703   4.301   5.693   3.135
 5790SOL    HW120704   4.325   5.753   3.212
 5790SOL    HW220705   4.222   5.731   3.086
 5791SOL     OW20706   4.603   5.956   2.467
 5791SOL    HW120707   4.570   6.008   2.389
 5791SOL    HW220708   4.655   5.877   2.436
 5792SOL     OW20709   5.162   6.233   2.048
 5792SOL    HW120710   5.081   6.174   2.051
 5792SOL    HW220711   5.212   6.225   2.134
 5793SOL     OW20712   4.305   5.970   2.148
 5793SOL    HW120713   4.295   5.888   2.092
 5793SOL    HW220714   4.229   6.032   2.130
 5794SOL     OW20715   4.170   6.456   3.110
 5794SOL    HW120716   4.259   6.412   3.115
 5794SOL    HW220717   4.099   6.390   3.135
 5795SOL     OW20718   4.257   6.092   2.633
 5795SOL    HW120719   4.268   6.179   2.586
 5795SOL    HW220720   4.345   6.061   2.667
 5796SOL     OW20721   5.269   6.227   2.313
 5796SOL    HW120722   5.232   6.209   2.405
 5796SOL    HW220723   5.280   6.325   2.300
 5797SOL     OW20724   4.206   6.351   3.507
 5797SOL    HW120725   4.108   6.372   3.508
 5797SOL    HW220726   4.222   6.265   3.555
 5798SOL     OW20727   5.350   6.312   3.428
 5798SOL    HW120728   5.288   6.271   3.361
 5798SOL    HW220729   5.337   6.411   3.431
 5799SOL     OW20730   4.222   5.699   3.567
 5799SOL    HW120731   4.178   5.623   3.518
 5799SOL    HW220732   4.152   5.762   3.600
 5800SOL     OW20733   4.254   6.485   2.850
 5800SOL    HW120734   4.248   0.083   2.831
 5800SOL    HW220735   4.218   6.467   2.941
 5801SOL     OW20736   4.930   6.086   2.081
 5801SOL    HW120737   4.895   5.994   2.067
 5801SOL    HW220738   4.889   6.125   2.164
 5802SOL     OW20739   4.045   5.805   3.046
 5802SOL    HW120740   4.061   5.871   3.119
 5802SOL    HW220741   4.008   5.720   3.085
 5803SOL     OW20742   5.432   0.085   3.725
 5803SOL    HW120743   5.375   0.004   3.718
 5803SOL    HW220744   5.381   0.158   3.771
 5804SOL     OW20745   3.963   5.660   2.501
 5804SOL    HW120746   3.904   5.739   2.518
 5804SOL    HW220747   4.023   5.645   2.580
 5805SOL     OW20748   5.391   6.030   2.175
 5805SOL    HW120749   5.410   5.947   2.229
 5805SOL    HW220750   5.347   6.098   2.234
 5806SOL     OW20751   5.252   5.872   1.976
 5806SOL    HW120752   5.201   5.829   2.051
 5806SOL    HW220753   5.312   5.943   2.013
 5807SOL     OW20754   4.036   6.363   2.728
 5807SOL    HW120755   4.115   6.415   2.761
 5807SOL    HW220756   4.036   6.272   2.769
 5808SOL     OW20757   4.068   6.118   2.842
 5808SOL    HW120758   3.994   6.051   2.846
 5808SOL    HW220759   4.132   6.093   2.770
 5809SOL     OW20760   3.755   6.103   3.080
 5809SOL    HW120761   3.773   6.043   3.002
 5809SOL    HW220762   3.838   6.152   3.105
 5810SOL     OW20763   4.560   6.042   2.203
 5810SOL    HW120764   4.613   5.986   2.140
 5810SOL    HW220765   4.463   6.032   2.184
 5811SOL     OW20766   5.325   6.198   2.998
 5811SOL    HW120767   5.398   6.164   3.058
 5811SOL    HW220768   5.345   6.172   2.904
 5812SOL     OW20769   5.465   5.786   2.279
 5812SOL    HW120770   5.547   5.812   2.228
 5812SOL    HW220771   5.482   5.700   2.328
 5813SOL     OW20772   5.602   5.773   2.832
 5813SOL    HW120773   5.623   5.682   2.797
 5813SOL    HW220774   5.512   5.802   2.798
 5814SOL     OW20775   4.732   5.858   2.982
 5814SOL    HW120776   4.675   5.810   2.916
 5814SOL    HW220777   4.770   5.793   3.048
 5815SOL     OW20778   5.524   6.105   3.165
 5815SOL    HW120779   5.596   6.174   3.172
 5815SOL    HW220780   5.561   6.021   3.126
 5816SOL     OW20781   3.908   0.110   3.704
 5816SOL    HW120782   3.827   0.167   3.718
 5816SOL    HW220783   3.920   0.049   3.782
 5817SOL     OW20784   4.340   5.850   3.362
 5817SOL    HW120785   4.429   5.894   3.380
 5817SOL    HW220786   4.311   5.801   3.444
 5818SOL     OW20787   5.078   6.437   3.318
 5818SOL    HW120788   5.004   0.002   3.303
 5818SOL    HW220789   5.161   6.486   3.343
 5819SOL     OW20790   3.744   5.717   2.149
 5819SOL    HW120791   3.679   5.758   2.084
 5819SOL    HW220792   3.831   5.700   2.103
 5820SOL     OW20793   4.305   6.139   3.664
 5820SOL    HW120794   4.376   6.209   3.660
 5820SOL    HW220795   4.347   6.049   3.651
 5821SOL     OW20796   5.352   6.480   3.004
 5821SOL    HW120797   5.335   6.382   3.007
 5821SOL    HW220798   5.448   6.498   3.028
 5822SOL     OW20799   4.975   5.890   2.390
 5822SOL    HW120800   5.053   5.912   2.333
 5822SOL    HW220801   4.953   5.968   2.449
 5823SOL     OW20802   4.283   6.332   2.471
 5823SOL    HW120803   4.292   6.425   2.505
 5823SOL    HW220804   4.208   6.327   2.405
 5824SOL     OW20805   5.475   5.964   3.409
 5824SOL    HW120806   5.491   6.021   3.329
 5824SOL    HW220807   5.404   5.897   3.389
 5825SOL     OW20808   4.285   5.910   2.421
 5825SOL    HW120809   4.294   5.951   2.330
 5825SOL    HW220810   4.265   5.982   2.488
 5826SOL     OW20811   4.025   6.188   3.112
 5826SOL    HW120812   4.062   6.117   3.171
 5826SOL    HW220813   4.051   6.171   3.017
 5827SOL     OW20814   4.849   5.667   3.142
 5827SOL    HW120815   4.849   5.614   3.226
 5827SOL    HW220816   4.908   5.623   3.074
 5828SOL     OW20817   4.973   5.690   1.932
 5828SOL    HW120818   5.053   5.644   1.971
 5828SOL    HW220819   4.890   5.657   1.976
 5829SOL     OW20820   4.910   6.093   2.569
 5829SOL    HW120821   4.826   6.147   2.560
 5829SOL    HW220822   4.914   6.053   2.661
 5830SOL     OW20823   5.348   5.848   2.763
 5830SOL    HW120824   5.256   5.823   2.792
 5830SOL    HW220825   5.354   5.947   2.752
 5831SOL     OW20826   5.502   6.091   3.856
 5831SOL    HW120827   5.445   6.105   3.775
 5831SOL    HW220828   5.450   6.040   3.925
 5832SOL     OW20829   4.636   6.433   5.642
 5832SOL    HW120830   4.660   6.437   5.739
 5832SOL    HW220831   4.708   6.476   5.588
 5833SOL     OW20832   4.484   0.164   4.372
 5833SOL    HW120833   4.509   0.132   4.463
 5833SOL    HW220834   4.398   0.215   4.377
 5834SOL     OW20835   4.229   5.955   5.156
 5834SOL    HW120836   4.266   5.964   5.249
 5834SOL    HW220837   4.135   5.922   5.160
 5835SOL     OW20838   5.222   6.048   4.441
 5835SOL    HW120839   5.122   6.053   4.442
 5835SOL    HW220840   5.260   6.141   4.440
 5836SOL     OW20841   5.356   5.713   5.252
 5836SOL    HW120842   5.386   5.798   5.208
 5836SOL    HW220843   5.308   5.735   5.336
 5837SOL     OW20844   3.798   6.289   4.320
 5837SOL    HW120845   3.728   6.246   4.377
 5837SOL    HW220846   3.874   6.319   4.377
 5838SOL     OW20847   4.359   6.419   4.046
 5838SOL    HW120848   4.345   6.495   3.982
 5838SOL    HW220849   4.271   6.384   4.076
 5839SOL     OW20850   4.934   5.886   4.674
 5839SOL    HW120851   4.836   5.866   4.682
 5839SOL    HW220852   4.984   5.836   4.744
 5840SOL     OW20853   5.112   6.022   5.411
 5840SOL    HW120854   5.155   6.095   5.464
 5840SOL    HW220855   5.159   5.936   5.430
 5841SOL     OW20856   4.712   6.298   4.039
 5841SOL    HW120857   4.724   6.338   4.129
 5841SOL    HW220858   4.627   6.245   4.037
 5842SOL     OW20859   3.951   6.343   4.547
 5842SOL    HW120860   4.006   6.263   4.572
 5842SOL    HW220861   3.879   6.356   4.615
 5843SOL     OW20862   4.631   5.853   3.852
 5843SOL    HW120863   4.663   5.942   3.820
 5843SOL    HW220864   4.705   5.786   3.843
 5844SOL     OW20865   5.484   6.225   5.541
 5844SOL    HW120866   5.430   6.263   5.466
 5844SOL    HW220867   5.556   6.166   5.503
 5845SOL     OW20868   4.195   5.760   4.655
 5845SOL    HW120869   4.219   5.775   4.750
 5845SOL    HW220870   4.117   5.819   4.630
 5846SOL     OW20871   5.336   6.296   4.431
 5846SOL    HW120872   5.271   6.356   4.478
 5846SOL    HW220873   5.428   6.310   4.469
 5847SOL     OW20874   3.975   5.857   5.249
 5847SOL    HW120875   4.004   5.912   5.327
 5847SOL    HW220876   3.923   5.778   5.282
 5848SOL     OW20877   5.030   6.135   5.171
 5848SOL    HW120878   5.055   6.088   5.256
 5848SOL    HW220879   5.114   6.162   5.123
 5849SOL     OW20880   4.675   6.053   4.484
 5849SOL    HW120881   4.612   6.040   4.407
 5849SOL    HW220882   4.655   5.986   4.555
 5850SOL     OW20883   4.021   5.659   3.889
 5850SOL    HW120884   4.110   5.688   3.854
 5850SOL    HW220885   3.995   5.718   3.966
 5851SOL     OW20886   4.617   5.828   4.132
 5851SOL    HW120887   4.608   5.832   4.032
 5851SOL    HW220888   4.709   5.856   4.158
 5852SOL     OW20889   4.879   6.371   5.234
 5852SOL    HW120890   4.804   6.393   5.171
 5852SOL    HW220891   4.914   6.280   5.213
 5853SOL     OW20892   4.148   0.287   4.554
 5853SOL    HW120893   4.103   0.201   4.532
 5853SOL    HW220894   4.198   0.321   4.474
 5854SOL     OW20895   4.733   6.090   3.768
 5854SOL    HW120896   4.725   6.187   3.745
 5854SOL    HW220897   4.794   6.079   3.846
 5855SOL     OW20898   3.694   6.188   5.156
 5855SOL    HW120899   3.757   6.168   5.081
 5855SOL    HW220900   3.720   6.274   5.200
 5856SOL     OW20901   4.260   5.792   4.922
 5856SOL    HW120902   4.272   5.705   4.969
 5856SOL    HW220903   4.253   5.866   4.989
 5857SOL     OW20904   4.493   6.021   4.279
 5857SOL    HW120905   4.489   6.086   4.203
 5857SOL    HW220906   4.524   5.933   4.245
 5858SOL     OW20907   4.662   5.661   4.474
 5858SOL    HW120908   4.734   5.679   4.407
 5858SOL    HW220909   4.686   5.579   4.527
 5859SOL     OW20910   5.602   6.344   4.142
 5859SOL    HW120911   5.637   6.295   4.221
 5859SOL    HW220912   5.668   6.338   4.067
 5860SOL     OW20913   5.064   6.160   3.822
 5860SOL    HW120914   4.995   6.116   3.879
 5860SOL    HW220915   5.122   6.218   3.879
 5861SOL     OW20916   4.305   6.007   3.913
 5861SOL    HW120917   4.295   5.910   3.891
 5861SOL    HW220918   4.291   6.062   3.831
 5862SOL     OW20919   4.581   5.628   5.142
 5862SOL    HW120920   4.596   5.636   5.044
 5862SOL    HW220921   4.645   5.687   5.191
 5863SOL     OW20922   4.571   0.107   4.121
 5863SOL    HW120923   4.536   0.130   4.212
 5863SOL    HW220924   4.517   0.033   4.082
 5864SOL     OW20925   4.131   6.361   5.012
 5864SOL    HW120926   4.200   6.365   5.084
 5864SOL    HW220927   4.066   6.288   5.031
 5865SOL     OW20928   4.895   5.923   5.041
 5865SOL    HW120929   4.937   6.004   5.083
 5865SOL    HW220930   4.814   5.952   4.989
 5866SOL     OW20931   5.365   6.212   4.161
 5866SOL    HW120932   5.347   6.231   4.257
 5866SOL    HW220933   5.452   6.253   4.134
 5867SOL     OW20934   4.145   6.358   5.388
 5867SOL    HW120935   4.220   6.354   5.323
 5867SOL    HW220936   4.071   6.297   5.360
 5868SOL     OW20937   5.337   6.345   5.329
 5868SOL    HW120938   5.259   6.398   5.296
 5868SOL    HW220939   5.378   6.294   5.253
 5869SOL     OW20940   4.886   5.733   5.567
 5869SOL    HW120941   4.851   5.817   5.525
 5869SOL    HW220942   4.868   5.656   5.506
 5870SOL     OW20943   4.243   5.547   5.518
 5870SOL    HW120944   4.187   5.556   5.436
 5870SOL    HW220945   4.194   5.585   5.597
 5871SOL     OW20946   4.874   6.075   4.000
 5871SOL    HW120947   4.877   6.008   4.075
 5871SOL    HW220948   4.823   6.156   4.030
 5872SOL     OW20949   3.922   5.843   4.991
 5872SOL    HW120950   3.943   5.850   5.088
 5872SOL    HW220951   3.959   5.757   4.955
 5873SOL     OW20952   4.385   6.196   4.680
 5873SOL    HW120953   4.361   6.178   4.585
 5873SOL    HW220954   4.327   6.269   4.716
 5874SOL     OW20955   5.416   0.020   5.527
 5874SOL    HW120956   5.389   6.464   5.448
 5874SOL    HW220957   5.448   6.460   5.601
 5875SOL     OW20958   4.040   5.688   4.289
 5875SOL    HW120959   4.055   5.694   4.388
 5875SOL    HW220960   4.011   5.595   4.266
 5876SOL     OW20961   5.389   5.940   4.061
 5876SOL    HW120962   5.437   5.885   4.131
 5876SOL    HW220963   5.366   6.029   4.100
 5877SOL     OW20964   4.614   6.300   4.578
 5877SOL    HW120965   4.533   6.273   4.630
 5877SOL    HW220966   4.661   6.219   4.544
 5878SOL     OW20967   4.107   6.117   4.599
 5878SOL    HW120968   4.147   6.124   4.690
 5878SOL    HW220969   4.179   6.122   4.530
 5879SOL     OW20970   4.837   5.971   5.438
 5879SOL    HW120971   4.791   6.043   5.489
 5879SOL    HW220972   4.934   5.995   5.428
 5880SOL     OW20973   4.786   5.779   5.247
 5880SOL    HW120974   4.789   5.847   5.320
 5880SOL    HW220975   4.829   5.816   5.165
 5881SOL     OW20976   3.960   6.177   5.325
 5881SOL    HW120977   3.986   6.104   5.388
 5881SOL    HW220978   3.875   6.152   5.279
 5882SOL     OW20979   4.472   6.173   4.052
 5882SOL    HW120980   4.417   6.106   4.001
 5882SOL    HW220981   4.428   6.263   4.046
 5883SOL     OW20982   5.411   6.204   5.104
 5883SOL    HW120983   5.418   6.106   5.122
 5883SOL    HW220984   5.478   6.230   5.035
 5884SOL     OW20985   5.489   5.789   4.269
 5884SOL    HW120986   5.541   5.705   4.252
 5884SOL    HW220987   5.405   5.767   4.318
 5885SOL     OW20988   5.545   5.740   4.660
 5885SOL    HW120989   5.609   5.667   4.636
 5885SOL    HW220990   5.477   5.750   4.587
 5886SOL     OW20991   4.664   5.828   4.689
 5886SOL    HW120992   4.658   5.779   4.602
 5886SOL    HW220993   4.643   5.766   4.764
 5887SOL     OW20994   5.496   5.939   5.131
 5887SOL    HW120995   5.579   5.994   5.136
 5887SOL    HW220996   5.504   5.874   5.056
 5888SOL     OW20997   3.798   6.368   5.560
 5888SOL    HW120998   3.736   6.436   5.598
 5888SOL    HW220999   3.888   6.377   5.602
 5889SOL     OW21000   3.759   5.887   3.738
 5889SOL    HW121001   3.660   5.884   3.746
 5889SOL    HW221002   3.784   5.958   3.671
 5890SOL     OW21003   5.132   6.479   5.199
 5890SOL    HW121004   5.036   6.457   5.214
 5890SOL    HW221005   5.159   6.453   5.106
 5891SOL     OW21006   3.731   5.744   3.979
 5891SOL    HW121007   3.731   5.778   3.885
 5891SOL    HW221008   3.814   5.774   4.025
 5892SOL     OW21009   4.344   6.375   5.197
 5892SOL    HW121010   4.416   6.442   5.179
 5892SOL    HW221011   4.374   6.285   5.164
 5893SOL     OW21012   4.501   6.166   5.434
 5893SOL    HW121013   4.496   6.262   5.404
 5893SOL    HW221014   4.582   6.154   5.491
 5894SOL     OW21015   5.256   6.393   4.968
 5894SOL    HW121016   5.323   6.336   5.017
 5894SOL    HW221017   5.297   6.481   4.945
 5895SOL     OW21018   4.865   5.908   4.222
 5895SOL    HW121019   4.881   5.813   4.249
 5895SOL    HW221020   4.897   5.969   4.294
 5896SOL     OW21021   5.652   6.019   5.457
 5896SOL    HW121022   5.627   5.997   5.363
 5896SOL    HW221023   5.635   5.939   5.515
 5897SOL     OW21024   5.513   5.752   4.928
 5897SOL    HW121025   5.572   5.682   4.968
 5897SOL    HW221026   5.522   5.751   4.829
 5898SOL     OW21027   5.045   5.752   4.887
 5898SOL    HW121028   5.134   5.796   4.876
 5898SOL    HW221029   4.991   5.803   4.953
 5899SOL     OW21030   4.637   5.621   4.871
 5899SOL    HW121031   4.574   5.560   4.822
 5899SOL    HW221032   4.731   5.587   4.861
 5900SOL     OW21033   4.948   6.044   4.455
 5900SOL    HW121034   4.855   6.080   4.452
 5900SOL    HW221035   4.959   5.986   4.536
 5901SOL     OW21036   5.549   6.137   5.795
 5901SOL    HW121037   5.530   6.175   5.704
 5901SOL    HW221038   5.463   6.117   5.841
 5902SOL     OW21039   4.415   0.013   6.314
 5902SOL    HW121040   4.510   0.025   6.340
 5902SOL    HW221041   4.397   0.060   6.228
 5903SOL     OW21042   3.763   6.129   6.211
 5903SOL    HW121043   3.758   6.108   6.113
 5903SOL    HW221044   3.798   6.221   6.224
 5904SOL     OW21045   4.938   5.934   6.472
 5904SOL    HW121046   4.860   5.918   0.033
 5904SOL    HW221047   5.018   5.886   0.006
 5905SOL     OW21048   3.848   6.401   6.217
 5905SOL    HW121049   3.779   6.441   6.277
 5905SOL    HW221050   3.929   6.460   6.217
 5906SOL     OW21051   4.121   5.832   6.451
 5906SOL    HW121052   4.117   5.807   0.047
 5906SOL    HW221053   4.215   5.851   6.425
 5907SOL     OW21054   5.195   6.260   6.349
 5907SOL    HW121055   5.229   6.229   6.438
 5907SOL    HW221056   5.170   6.357   6.355
 5908SOL     OW21057   4.294   5.679   6.142
 5908SOL    HW121058   4.197   5.656   6.152
 5908SOL    HW221059   4.303   5.766   6.093
 5909SOL     OW21060   4.069   5.639   5.750
 5909SOL    HW121061   4.103   5.728   5.783
 5909SOL    HW221062   4.100   5.567   5.812
 5910SOL     OW21063   4.724   6.168   5.597
 5910SOL    HW121064   4.695   6.262   5.614
 5910SOL    HW221065   4.760   6.128   5.682
 5911SOL     OW21066   4.536   5.979   6.173
 5911SOL    HW121067   4.488   6.028   6.100
 5911SOL    HW221068   4.634   5.979   6.155
 5912SOL     OW21069   4.712   5.524   6.336
 5912SOL    HW121070   4.628   5.527   6.282
 5912SOL    HW221071   4.715   5.440   6.390
 5913SOL     OW21072   5.565   6.381   6.031
 5913SOL    HW121073   5.620   6.356   6.110
 5913SOL    HW221074   5.582   6.317   5.956
 5914SOL     OW21075   4.172   5.864   5.861
 5914SOL    HW121076   4.271   5.852   5.850
 5914SOL    HW221077   4.153   5.960   5.883
 5915SOL     OW21078   4.550   0.144   5.967
 5915SOL    HW121079   4.457   0.131   6.000
 5915SOL    HW221080   4.589   0.055   5.942
 5916SOL     OW21081   4.386   5.876   6.402
 5916SOL    HW121082   4.439   5.906   6.322
 5916SOL    HW221083   4.434   5.903   6.485
 5917SOL     OW21084   5.364   6.209   6.140
 5917SOL    HW121085   5.305   6.224   6.220
 5917SOL    HW221086   5.422   6.288   6.126
 5918SOL     OW21087   4.836   6.090   5.835
 5918SOL    HW121088   4.821   6.047   5.924
 5918SOL    HW221089   4.904   6.162   5.843
 5919SOL     OW21090   5.435   5.686   5.949
 5919SOL    HW121091   5.494   5.767   5.948
 5919SOL    HW221092   5.353   5.705   6.002
 5920SOL     OW21093   5.571   5.878   0.168
 5920SOL    HW121094   5.641   5.813   0.137
 5920SOL    HW221095   5.497   5.882   0.101
 5921SOL     OW21096   4.008   5.987   6.258
 5921SOL    HW121097   3.912   6.012   6.268
 5921SOL    HW221098   4.035   5.926   6.333
 5922SOL     OW21099   3.784   5.926   5.579
 5922SOL    HW121100   3.729   5.863   5.524
 5922SOL    HW221101   3.737   6.014   5.586
 5923SOL     OW21102   3.798   5.708   5.767
 5923SOL    HW121103   3.782   5.794   5.719
 5923SOL    HW221104   3.896   5.690   5.771
 5924SOL     OW21105   4.815   5.983   6.096
 5924SOL    HW121106   4.840   5.888   6.112
 5924SOL    HW221107   4.865   6.042   6.160
 5925SOL     OW21108   4.954   6.129   6.289
 5925SOL    HW121109   5.043   6.175   6.298
 5925SOL    HW221110   4.948   6.055   6.355
 5926SOL     OW21111   5.786   0.599   0.140
 5926SOL    HW121112   5.707   0.578   0.196
 5926SOL    HW221113   5.756   0.640   0.054
 5927SOL     OW21114   5.795   0.252   0.982
 5927SOL    HW121115   5.836   0.199   1.057
 5927SOL    HW221116   5.698   0.228   0.974
 5928SOL     OW21117   5.604   0.423   0.604
 5928SOL    HW121118   5.530   0.403   0.668
 5928SOL    HW221119   5.576   0.399   0.512
 5929SOL     OW21120   5.962   1.241   1.243
 5929SOL    HW121121   5.910   1.155   1.245
 5929SOL    HW221122   5.927   1.298   1.168
 5930SOL     OW21123   6.276   0.919   0.763
 5930SOL    HW121124   6.282   0.941   0.861
 5930SOL    HW221125   6.274   1.004   0.710
 5931SOL     OW21126   5.844   1.386   1.038
 5931SOL    HW121127   5.752   1.352   1.018
 5931SOL    HW221128   5.839   1.482   1.067
 5932SOL     OW21129   6.023   0.373   1.500
 5932SOL    HW121130   6.099   0.310   1.515
 5932SOL    HW221131   5.937   0.322   1.500
 5933SOL     OW21132   5.748   1.703   0.455
 5933SOL    HW121133   5.799   1.777   0.500
 5933SOL    HW221134   5.769   1.617   0.500
 5934SOL     OW21135   5.782   1.472   0.599
 5934SOL    HW121136   5.731   1.506   0.679
 5934SOL    HW221137   5.755   1.378   0.580
 5935SOL     OW21138   5.726   0.664   0.536
 5935SOL    HW121139   5.687   0.576   0.561
 5935SOL    HW221140   5.717   0.728   0.613
 5936SOL     OW21141   5.708   1.559   0.200
 5936SOL    HW121142   5.665   1.604   0.122
 5936SOL    HW221143   5.722   1.626   0.273
 5937SOL     OW21144   5.753   0.800   1.536
 5937SOL    HW121145   5.830   0.824   1.476
 5937SOL    HW221146   5.745   0.868   1.608
 5938SOL     OW21147   6.172   1.321   0.710
 5938SOL    HW121148   6.098   1.289   0.769
 5938SOL    HW221149   6.133   1.374   0.634
 5939SOL     OW21150   6.365   0.011   0.439
 5939SOL    HW121151   6.417   6.436   0.480
 5939SOL    HW221152   6.267   6.491   0.447
 5940SOL     OW21153   5.926   0.217   1.751
 5940SOL    HW121154   6.024   0.238   1.747
 5940SOL    HW221155   5.878   0.290   1.799
 5941SOL     OW21156   6.213   0.633   0.319
 5941SOL    HW121157   6.252   0.725   0.309
 5941SOL    HW221158   6.140   0.634   0.387
 5942SOL     OW21159   6.389   0.679   1.373
 5942SOL    HW121160   6.333   0.635   1.442
 5942SOL    HW221161   6.341   0.677   1.285
 5943SOL     OW21162   5.706   0.821   0.756
 5943SOL    HW121163   5.760   0.792   0.835
 5943SOL    HW221164   5.752   0.897   0.711
 5944SOL     OW21165   6.119   0.228   0.961
 5944SOL    HW121166   6.121   0.260   1.056
 5944SOL    HW221167   6.139   0.305   0.900
 5945SOL     OW21168   5.984   1.771   0.833
 5945SOL    HW121169   6.053   1.699   0.843
 5945SOL    HW221170   6.021   1.858   0.865
 5946SOL     OW21171   5.895   0.859   0.162
 5946SOL    HW121172   5.971   0.869   0.097
 5946SOL    HW221173   5.866   0.763   0.165
 5947SOL     OW21174   5.798   0.211   1.455
 5947SOL    HW121175   5.716   0.265   1.435
 5947SOL    HW221176   5.780   0.152   1.534
 5948SOL     OW21177   6.010   0.611   0.506
 5948SOL    HW121178   6.005   0.511   0.508
 5948SOL    HW221179   5.917   0.649   0.509
 5949SOL     OW21180   6.438   0.553   0.940
 5949SOL    HW121181   6.471   0.541   0.846
 5949SOL    HW221182   0.016   0.572   0.999
 5950SOL     OW21183   6.084   6.434   0.467
 5950SOL    HW121184   6.065   6.472   0.557
 5950SOL    HW221185   6.002   6.439   0.410
 5951SOL     OW21186   5.863   6.491   0.306
 5951SOL    HW121187   5.910   0.073   0.273
 5951SOL    HW221188   5.846   6.429   0.230
 5952SOL     OW21189   5.688   0.579   1.389
 5952SOL    HW121190   5.780   0.559   1.355
 5952SOL    HW221191   5.692   0.659   1.450
 5953SOL     OW21192   6.119   0.290   1.226
 5953SOL    HW121193   6.160   0.276   1.316
 5953SOL    HW221194   6.034   0.238   1.219
 5954SOL     OW21195   6.216   1.323   0.057
 5954SOL    HW121196   6.267   1.301   0.140
 5954SOL    HW221197   6.120   1.298   0.069
 5955SOL     OW21198   5.957   0.812   1.327
 5955SOL    HW121199   6.039   0.832   1.380
 5955SOL    HW221200   5.952   0.714   1.309
 5956SOL     OW21201   5.662   1.582   1.349
 5956SOL    HW121202   5.599   1.659   1.358
 5956SOL    HW221203   5.717   1.594   1.266
 5957SOL     OW21204   5.928   1.014   0.385
 5957SOL    HW121205   5.942   1.105   0.347
 5957SOL    HW221206   5.913   0.949   0.310
 5958SOL     OW21207   6.174   0.488   0.869
 5958SOL    HW121208   6.174   0.545   0.787
 5958SOL    HW221209   6.264   0.493   0.913
 5959SOL     OW21210   5.898   6.453   1.784
 5959SOL    HW121211   5.958   6.394   1.729
 5959SOL    HW221212   5.919   0.049   1.765
 5960SOL     OW21213   6.090   0.862   1.074
 5960SOL    HW121214   6.158   0.935   1.066
 5960SOL    HW221215   6.042   0.870   1.161
 5961SOL     OW21216   5.901   0.127   1.211
 5961SOL    HW121217   5.855   0.147   1.298
 5961SOL    HW221218   5.942   0.036   1.215
 5962SOL     OW21219   5.629   1.312   1.354
 5962SOL    HW121220   5.682   1.270   1.428
 5962SOL    HW221221   5.645   1.411   1.353
 5963SOL     OW21222   6.272   0.662   1.130
 5963SOL    HW121223   6.329   0.637   1.051
 5963SOL    HW221224   6.201   0.726   1.101
 5964SOL     OW21225   5.986   0.050   0.695
 5964SOL    HW121226   5.914   0.118   0.699
 5964SOL    HW221227   5.967   6.476   0.760
 5965SOL     OW21228   6.434   1.602   1.662
 5965SOL    HW121229   0.002   1.671   1.637
 5965SOL    HW221230   6.454   1.517   1.613
 5966SOL     OW21231   5.869   0.741   0.961
 5966SOL    HW121232   5.947   0.796   0.988
 5966SOL    HW221233   5.888   0.645   0.977
 5967SOL     OW21234   5.937   0.483   1.015
 5967SOL    HW121235   5.887   0.399   0.999
 5967SOL    HW221236   6.022   0.483   0.963
 5968SOL     OW21237   5.709   1.763   0.910
 5968SOL    HW121238   5.669   1.684   0.863
 5968SOL    HW221239   5.800   1.781   0.873
 5969SOL     OW21240   5.591   0.563   1.129
 5969SOL    HW121241   5.662   0.575   1.060
 5969SOL    HW221242   5.631   0.575   1.220
 5970SOL     OW21243   6.451   0.494   0.327
 5970SOL    HW121244   6.432   0.416   0.387
 5970SOL    HW221245   6.367   0.544   0.310
 5971SOL     OW21246   6.383   0.371   1.181
 5971SOL    HW121247   6.283   0.370   1.179
 5971SOL    HW221248   6.417   0.462   1.157
 5972SOL     OW21249   6.056   0.537   0.105
 5972SOL    HW121250   6.110   0.568   0.184
 5972SOL    HW221251   5.959   0.549   0.124
 5973SOL     OW21252   5.764   1.220   1.585
 5973SOL    HW121253   5.753   1.289   1.657
 5973SOL    HW221254   5.747   1.129   1.623
 5974SOL     OW21255   5.592   1.310   0.971
 5974SOL    HW121256   5.532   1.299   1.050
 5974SOL    HW221257   5.560   1.252   0.896
 5975SOL     OW21258   6.196   1.677   1.754
 5975SOL    HW121259   6.179   1.775   1.743
 5975SOL    HW221260   6.289   1.656   1.723
 5976SOL     OW21261   6.296   1.216   1.487
 5976SOL    HW121262   6.202   1.247   1.499
 5976SOL    HW221263   6.358   1.294   1.497
 5977SOL     OW21264   6.377   1.535   6.474
 5977SOL    HW121265   6.331   1.616   6.438
 5977SOL    HW221266   6.309   1.468   0.005
 5978SOL     OW21267   5.812   0.269   0.707
 5978SOL    HW121268   5.736   0.325   0.675
 5978SOL    HW221269   5.812   0.267   0.807
 5979SOL     OW21270   6.352   1.010   1.324
 5979SOL    HW121271   6.444   0.974   1.337
 5979SOL    HW221272   6.338   1.089   1.383
 5980SOL     OW21273   6.024   1.288   1.501
 5980SOL    HW121274   6.015   1.275   1.402
 5980SOL    HW221275   5.939   1.261   1.545
 5981SOL     OW21276   5.725   0.987   1.739
 5981SOL    HW121277   5.630   0.980   1.767
 5981SOL    HW221278   5.784   0.980   1.820
 5982SOL     OW21279   6.267   0.235   1.461
 5982SOL    HW121280   6.342   0.199   1.406
 5982SOL    HW221281   6.295   0.320   1.505
 5983SOL     OW21282   5.596   0.099   0.345
 5983SOL    HW121283   5.584   0.130   0.251
 5983SOL    HW221284   5.686   0.055   0.354
 5984SOL     OW21285   6.272   0.508   1.566
 5984SOL    HW121286   6.302   0.529   1.659
 5984SOL    HW221287   6.173   0.492   1.565
 5985SOL     OW21288   6.240   0.663   0.661
 5985SOL    HW121289   6.253   0.756   0.695
 5985SOL    HW221290   6.158   0.660   0.603
 5986SOL     OW21291   5.684   1.218   0.597
 5986SOL    HW121292   5.604   1.202   0.654
 5986SOL    HW221293   5.742   1.136   0.596
 5987SOL     OW21294   6.146   1.533   1.525
 5987SOL    HW121295   6.103   1.443   1.529
 5987SOL    HW221296   6.158   1.569   1.617
 5988SOL     OW21297   5.937   0.542   1.288
 5988SOL    HW121298   5.986   0.479   1.348
 5988SOL    HW221299   5.950   0.515   1.193
 5989SOL     OW21300   6.173   1.201   3.089
 5989SOL    HW121301   6.163   1.236   2.996
 5989SOL    HW221302   6.104   1.244   3.148
 5990SOL     OW21303   6.264   0.879   2.479
 5990SOL    HW121304   6.351   0.901   2.524
 5990SOL    HW221305   6.214   0.964   2.461
 5991SOL     OW21306   5.974   1.488   2.913
 5991SOL    HW121307   6.027   1.409   2.882
 5991SOL    HW221308   6.008   1.571   2.868
 5992SOL     OW21309   5.741   1.732   2.300
 5992SOL    HW121310   5.783   1.798   2.364
 5992SOL    HW221311   5.805   1.657   2.283
 5993SOL     OW21312   5.984   1.099   2.737
 5993SOL    HW121313   5.993   1.013   2.786
 5993SOL    HW221314   5.888   1.128   2.739
 5994SOL     OW21315   6.190   1.835   3.324
 5994SOL    HW121316   6.119   1.804   3.387
 5994SOL    HW221317   6.232   1.919   3.359
 5995SOL     OW21318   5.822   0.294   3.638
 5995SOL    HW121319   5.921   0.293   3.655
 5995SOL    HW221320   5.778   0.228   3.699
 5996SOL     OW21321   6.137   0.641   2.185
 5996SOL    HW121322   6.163   0.736   2.204
 5996SOL    HW221323   6.064   0.613   2.247
 5997SOL     OW21324   6.403   0.507   3.308
 5997SOL    HW121325   6.415   0.547   3.399
 5997SOL    HW221326   6.330   0.439   3.310
 5998SOL     OW21327   6.210   0.148   2.599
 5998SOL    HW121328   6.221   0.248   2.607
 5998SOL    HW221329   6.297   0.103   2.621
 5999SOL     OW21330   5.913   1.871   2.731
 5999SOL    HW121331   5.985   1.806   2.752
 5999SOL    HW221332   5.936   1.960   2.770
 6000SOL     OW21333   5.907   0.941   1.963
 6000SOL    HW121334   5.991   0.921   1.912
 6000SOL    HW221335   5.875   0.859   2.009
 6001SOL     OW21336   5.849   1.707   3.194
 6001SOL    HW121337   5.907   1.627   3.187
 6001SOL    HW221338   5.900   1.789   3.167
 6002SOL     OW21339   5.940   0.562   2.355
 6002SOL    HW121340   5.944   0.464   2.376
 6002SOL    HW221341   5.844   0.591   2.354
 6003SOL     OW21342   5.926   0.010   2.048
 6003SOL    HW121343   5.921   6.490   1.950
 6003SOL    HW221344   5.882   6.437   2.099
 6004SOL     OW21345   6.110   1.101   2.434
 6004SOL    HW121346   6.041   1.108   2.507
 6004SOL    HW221347   6.065   1.106   2.345
 6005SOL     OW21348   5.630   0.565   3.178
 6005SOL    HW121349   5.718   0.521   3.158
 6005SOL    HW221350   5.632   0.601   3.272
 6006SOL     OW21351   6.059   0.186   2.965
 6006SOL    HW121352   6.079   0.107   2.906
 6006SOL    HW221353   5.970   0.224   2.939
 6007SOL     OW21354   5.956   0.270   2.107
 6007SOL    HW121355   5.942   0.173   2.088
 6007SOL    HW221356   6.052   0.287   2.129
 6008SOL     OW21357   5.606   1.599   3.159
 6008SOL    HW121358   5.548   1.647   3.093
 6008SOL    HW221359   5.691   1.649   3.172
 6009SOL     OW21360   5.989   1.114   2.182
 6009SOL    HW121361   5.986   1.210   2.153
 6009SOL    HW221362   5.954   1.055   2.109
 6010SOL     OW21363   6.037   0.612   2.817
 6010SOL    HW121364   6.057   0.644   2.725
 6010SOL    HW221365   6.123   0.593   2.865
 6011SOL     OW21366   6.017   1.485   3.181
 6011SOL    HW121367   5.993   1.480   3.084
 6011SOL    HW221368   6.111   1.520   3.190
 6012SOL     OW21369   6.057   0.002   3.684
 6012SOL    HW121370   6.083   6.463   3.596
 6012SOL    HW221371   6.073   0.101   3.683
 6013SOL     OW21372   6.244   0.940   3.016
 6013SOL    HW121373   6.222   1.031   3.051
 6013SOL    HW221374   6.261   0.878   3.093
 6014SOL     OW21375   5.658   1.342   3.076
 6014SOL    HW121376   5.731   1.294   3.124
 6014SOL    HW221377   5.653   1.437   3.109
 6015SOL     OW21378   0.041   0.931   2.915
 6015SOL    HW121379   0.115   0.870   2.885
 6015SOL    HW221380   6.456   0.879   2.921
 6016SOL     OW21381   6.442   1.554   3.498
 6016SOL    HW121382   6.395   1.496   3.431
 6016SOL    HW221383   0.019   1.504   3.536
 6017SOL     OW21384   5.993   0.881   2.921
 6017SOL    HW121385   6.087   0.900   2.950
 6017SOL    HW221386   5.986   0.785   2.892
 6018SOL     OW21387   5.647   1.837   2.783
 6018SOL    HW121388   5.611   1.774   2.714
 6018SOL    HW221389   5.745   1.850   2.766
 6019SOL     OW21390   6.115   1.690   2.771
 6019SOL    HW121391   6.193   1.732   2.818
 6019SOL    HW221392   6.145   1.651   2.684
 6020SOL     OW21393   5.662   0.661   2.929
 6020SOL    HW121394   5.715   0.593   2.878
 6020SOL    HW221395   5.644   0.627   3.021
 6021SOL     OW21396   6.346   0.488   2.308
 6021SOL    HW121397   6.382   0.536   2.389
 6021SOL    HW221398   6.277   0.546   2.264
 6022SOL     OW21399   5.766   1.598   3.576
 6022SOL    HW121400   5.722   1.662   3.639
 6022SOL    HW221401   5.797   1.517   3.626
 6023SOL     OW21402   6.115   0.494   1.950
 6023SOL    HW121403   6.124   0.546   2.035
 6023SOL    HW221404   6.018   0.480   1.931
 6024SOL     OW21405   6.219   1.612   3.651
 6024SOL    HW121406   6.150   1.661   3.597
 6024SOL    HW221407   6.301   1.598   3.595
 6025SOL     OW21408   6.389   1.177   3.256
 6025SOL    HW121409   6.358   1.206   3.347
 6025SOL    HW221410   6.313   1.185   3.192
 6026SOL     OW21411   6.223   1.568   1.997
 6026SOL    HW121412   6.211   1.612   1.909
 6026SOL    HW221413   6.241   1.470   1.984
 6027SOL     OW21414   0.051   0.958   3.197
 6027SOL    HW121415   0.046   0.956   3.097
 6027SOL    HW221416   0.003   1.039   3.231
 6028SOL     OW21417   6.038   1.359   3.451
 6028SOL    HW121418   6.007   1.410   3.371
 6028SOL    HW221419   5.971   1.368   3.525
 6029SOL     OW21420   6.076   1.569   2.219
 6029SOL    HW121421   6.146   1.571   2.148
 6029SOL    HW221422   6.060   1.661   2.253
 6030SOL     OW21423   6.321   0.765   3.221
 6030SOL    HW121424   6.398   0.828   3.235
 6030SOL    HW221425   6.348   0.672   3.247
 6031SOL     OW21426   5.956   1.741   3.449
 6031SOL    HW121427   5.920   1.751   3.357
 6031SOL    HW221428   5.895   1.683   3.503
 6032SOL     OW21429   6.084   0.690   2.564
 6032SOL    HW121430   6.152   0.756   2.534
 6032SOL    HW221431   6.040   0.648   2.485
 6033SOL     OW21432   6.341   1.816   2.855
 6033SOL    HW121433   6.347   1.902   2.804
 6033SOL    HW221434   6.431   1.775   2.862
 6034SOL     OW21435   5.874   1.370   3.684
 6034SOL    HW121436   5.780   1.342   3.701
 6034SOL    HW221437   5.926   1.365   3.769
 6035SOL     OW21438   5.735   1.140   2.492
 6035SOL    HW121439   5.734   1.144   2.592
 6035SOL    HW221440   5.728   1.233   2.455
 6036SOL     OW21441   5.930   0.287   2.382
 6036SOL    HW121442   5.916   0.278   2.284
 6036SOL    HW221443   5.957   0.198   2.420
 6037SOL     OW21444   5.867   0.466   3.091
 6037SOL    HW121445   5.957   0.508   3.104
 6037SOL    HW221446   5.874   0.392   3.024
 6038SOL     OW21447   6.459   1.519   2.495
 6038SOL    HW121448   0.022   1.504   2.418
 6038SOL    HW221449   6.467   1.442   2.559
 6039SOL     OW21450   0.185   6.430   3.062
 6039SOL    HW121451   0.113   6.426   3.131
 6039SOL    HW221452   0.253   6.358   3.080
 6040SOL     OW21453   6.266   1.602   3.192
 6040SOL    HW121454   6.247   1.690   3.237
 6040SOL    HW221455   6.352   1.609   3.141
 6041SOL     OW21456   5.852   0.607   3.800
 6041SOL    HW121457   5.756   0.581   3.788
 6041SOL    HW221458   5.873   0.684   3.739
 6042SOL     OW21459   5.817   0.248   4.651
 6042SOL    HW121460   5.840   0.217   4.743
 6042SOL    HW221461   5.741   0.194   4.615
 6043SOL     OW21462   5.542   0.340   4.372
 6043SOL    HW121463   5.458   0.344   4.427
 6043SOL    HW221464   5.545   0.253   4.322
 6044SOL     OW21465   6.141   1.001   4.538
 6044SOL    HW121466   6.207   0.933   4.571
 6044SOL    HW221467   6.136   0.997   4.438
 6045SOL     OW21468   6.411   1.220   5.510
 6045SOL    HW121469   6.437   1.133   5.553
 6045SOL    HW221470   6.320   1.247   5.541
 6046SOL     OW21471   5.892   1.552   4.655
 6046SOL    HW121472   5.814   1.497   4.686
 6046SOL    HW221473   5.968   1.541   4.719
 6047SOL     OW21474   5.841   1.488   4.390
 6047SOL    HW121475   5.886   1.509   4.477
 6047SOL    HW221476   5.745   1.513   4.396
 6048SOL     OW21477   6.263   1.845   5.249
 6048SOL    HW121478   6.165   1.832   5.232
 6048SOL    HW221479   6.307   1.880   5.167
 6049SOL     OW21480   5.591   0.604   4.322
 6049SOL    HW121481   5.584   0.505   4.335
 6049SOL    HW221482   5.673   0.638   4.366
 6050SOL     OW21483   6.153   1.356   4.544
 6050SOL    HW121484   6.098   1.291   4.597
 6050SOL    HW221485   6.136   1.342   4.446
 6051SOL     OW21486   5.927   0.375   5.571
 6051SOL    HW121487   5.997   0.426   5.622
 6051SOL    HW221488   5.866   0.439   5.526
 6052SOL     OW21489   6.210   0.722   3.916
 6052SOL    HW121490   6.192   0.722   3.818
 6052SOL    HW221491   6.175   0.806   3.957
 6053SOL     OW21492   6.342   0.625   5.239
 6053SOL    HW121493   6.310   0.588   5.325
 6053SOL    HW221494   6.319   0.563   5.164
 6054SOL     OW21495   5.549   0.788   4.582
 6054SOL    HW121496   5.636   0.764   4.538
 6054SOL    HW221497   5.493   0.840   4.517
 6055SOL     OW21498   6.177   0.131   4.633
 6055SOL    HW121499   6.154   0.184   4.715
 6055SOL    HW221500   6.132   0.171   4.553
 6056SOL     OW21501   6.053   0.973   3.903
 6056SOL    HW121502   5.990   1.018   3.966
 6056SOL    HW221503   6.001   0.911   3.843
 6057SOL     OW21504   6.159   1.276   5.596
 6057SOL    HW121505   6.114   1.365   5.604
 6057SOL    HW221506   6.102   1.206   5.639
 6058SOL     OW21507   6.095   1.947   4.077
 6058SOL    HW121508   6.110   1.914   4.170
 6058SOL    HW221509   6.071   1.871   4.018
 6059SOL     OW21510   5.668   1.733   4.868
 6059SOL    HW121511   5.744   1.687   4.913
 6059SOL    HW221512   5.689   1.746   4.771
 6060SOL     OW21513   6.224   6.424   3.897
 6060SOL    HW121514   6.261   0.011   3.927
 6060SOL    HW221515   6.167   6.438   3.816
 6061SOL     OW21516   6.401   0.271   5.319
 6061SOL    HW121517   6.471   0.226   5.375
 6061SOL    HW221518   6.351   0.338   5.374
 6062SOL     OW21519   6.414   1.350   4.635
 6062SOL    HW121520   6.480   1.349   4.560
 6062SOL    HW221521   6.322   1.359   4.598
 6063SOL     OW21522   6.103   0.251   4.875
 6063SOL    HW121523   6.169   0.219   4.942
 6063SOL    HW221524   6.011   0.222   4.902
 6064SOL     OW21525   6.024   0.240   4.002
 6064SOL    HW121526   6.116   0.204   3.991
 6064SOL    HW221527   6.023   0.337   3.976
 6065SOL     OW21528   5.989   0.829   4.917
 6065SOL    HW121529   6.061   0.825   4.987
 6065SOL    HW221530   5.907   0.872   4.956
 6066SOL     OW21531   5.615   1.488   5.050
 6066SOL    HW121532   5.562   1.541   4.985
 6066SOL    HW221533   5.710   1.521   5.050
 6067SOL     OW21534   5.883   1.080   4.097
 6067SOL    HW121535   5.883   1.178   4.119
 6067SOL    HW221536   5.936   1.031   4.166
 6068SOL     OW21537   5.874   1.615   5.007
 6068SOL    HW121538   5.948   1.585   4.947
 6068SOL    HW221539   5.910   1.674   5.079
 6069SOL     OW21540   6.048   0.687   5.319
 6069SOL    HW121541   6.075   0.746   5.244
 6069SOL    HW221542   6.037   0.593   5.286
 6070SOL     OW21543   6.087   6.468   5.632
 6070SOL    HW121544   6.046   6.417   5.557
 6070SOL    HW221545   6.174   0.007   5.602
 6071SOL     OW21546   5.528   1.304   5.236
 6071SOL    HW121547   5.600   1.234   5.226
 6071SOL    HW221548   5.550   1.382   5.177
 6072SOL     OW21549   5.851   0.836   5.609
 6072SOL    HW121550   5.865   0.849   5.707
 6072SOL    HW221551   5.939   0.836   5.562
 6073SOL     OW21552   5.963   0.719   4.672
 6073SOL    HW121553   5.962   0.773   4.756
 6073SOL    HW221554   5.961   0.622   4.694
 6074SOL     OW21555   5.961   0.465   4.761
 6074SOL    HW121556   5.897   0.407   4.711
 6074SOL    HW221557   6.032   0.408   4.804
 6075SOL     OW21558   5.616   1.311   3.731
 6075SOL    HW121559   5.527   1.347   3.758
 6075SOL    HW221560   5.610   1.211   3.720
 6076SOL     OW21561   5.725   1.756   4.598
 6076SOL    HW121562   5.659   1.727   4.529
 6076SOL    HW221563   5.797   1.688   4.607
 6077SOL     OW21564   5.671   0.381   4.903
 6077SOL    HW121565   5.585   0.417   4.867
 6077SOL    HW221566   5.723   0.455   4.946
 6078SOL     OW21567   5.771   0.589   5.499
 6078SOL    HW121568   5.799   0.682   5.522
 6078SOL    HW221569   5.740   0.586   5.404
 6079SOL     OW21570   6.484   0.688   3.914
 6079SOL    HW121571   0.003   0.591   3.903
 6079SOL    HW221572   6.385   0.702   3.924
 6080SOL     OW21573   5.852   1.501   5.384
 6080SOL    HW121574   5.948   1.528   5.399
 6080SOL    HW221575   5.832   1.419   5.437
 6081SOL     OW21576   6.279   0.455   5.041
 6081SOL    HW121577   6.295   0.356   5.038
 6081SOL    HW221578   6.344   0.501   4.981
 6082SOL     OW21579   6.077   0.479   3.873
 6082SOL    HW121580   6.139   0.556   3.889
 6082SOL    HW221581   5.985   0.514   3.855
 6083SOL     OW21582   5.652   1.425   4.690
 6083SOL    HW121583   5.563   1.433   4.736
 6083SOL    HW221584   5.659   1.335   4.646
 6084SOL     OW21585   6.244   1.803   5.519
 6084SOL    HW121586   6.163   1.856   5.545
 6084SOL    HW221587   6.263   1.816   5.422
 6085SOL     OW21588   5.868   1.724   5.603
 6085SOL    HW121589   5.827   1.636   5.581
 6085SOL    HW221590   5.829   1.759   5.689
 6086SOL     OW21591   6.455   1.255   5.243
 6086SOL    HW121592   6.438   1.241   5.341
 6086SOL    HW221593   6.381   1.309   5.203
 6087SOL     OW21594   5.819   0.358   4.405
 6087SOL    HW121595   5.724   0.350   4.376
 6087SOL    HW221596   5.828   0.325   4.499
 6088SOL     OW21597   6.310   1.059   5.097
 6088SOL    HW121598   6.377   1.030   5.028
 6088SOL    HW221599   6.353   1.126   5.158
 6089SOL     OW21600   5.887   1.348   4.167
 6089SOL    HW121601   5.846   1.404   4.096
 6089SOL    HW221602   5.871   1.390   4.256
 6090SOL     OW21603   5.664   1.043   5.535
 6090SOL    HW121604   5.572   1.008   5.553
 6090SOL    HW221605   5.731   0.972   5.554
 6091SOL     OW21606   6.294   0.182   5.077
 6091SOL    HW121607   6.267   0.086   5.087
 6091SOL    HW221608   6.341   0.211   5.161
 6092SOL     OW21609   5.749   0.214   4.034
 6092SOL    HW121610   5.726   0.183   3.942
 6092SOL    HW221611   5.847   0.230   4.041
 6093SOL     OW21612   6.180   0.824   5.121
 6093SOL    HW121613   6.220   0.915   5.112
 6093SOL    HW221614   6.250   0.761   5.157
 6094SOL     OW21615   6.290   0.482   5.472
 6094SOL    HW121616   6.226   0.490   5.549
 6094SOL    HW221617   6.382   0.504   5.504
 6095SOL     OW21618   5.993   1.762   5.232
 6095SOL    HW121619   5.896   1.775   5.254
 6095SOL    HW221620   6.033   1.695   5.294
 6096SOL     OW21621   5.808   1.276   5.556
 6096SOL    HW121622   5.742   1.202   5.543
 6096SOL    HW221623   5.764   1.351   5.605
 6097SOL     OW21624   5.947   0.497   4.204
 6097SOL    HW121625   6.043   0.469   4.206
 6097SOL    HW221626   5.896   0.445   4.272
 6098SOL     OW21627   5.856   0.549   5.028
 6098SOL    HW121628   5.928   0.513   5.087
 6098SOL    HW221629   5.894   0.567   4.937
 6099SOL     OW21630   0.092   0.016   4.773
 6099SOL    HW121631   0.036   6.463   4.709
 6099SOL    HW221632   0.188   6.494   4.759
 6100SOL     OW21633   5.601   1.050   4.100
 6100SOL    HW121634   5.700   1.059   4.089
 6100SOL    HW221635   5.578   0.956   4.126
 6101SOL     OW21636   5.796   0.548   5.780
 6101SOL    HW121637   5.741   0.623   5.816
 6101SOL    HW221638   5.782   0.540   5.682
 6102SOL     OW21639   5.821   0.247   0.051
 6102SOL    HW121640   5.887   0.258   0.126
 6102SOL    HW221641   5.728   0.259   0.087
 6103SOL     OW21642   5.585   0.390   6.181
 6103SOL    HW121643   5.499   0.440   6.192
 6103SOL    HW221644   5.569   0.307   6.129
 6104SOL     OW21645   6.318   1.194   6.326
 6104SOL    HW121646   6.273   1.225   6.410
 6104SOL    HW221647   6.368   1.270   6.284
 6105SOL     OW21648   6.375   0.954   6.203
 6105SOL    HW121649   6.432   0.906   6.270
 6105SOL    HW221650   6.347   1.042   6.242
 6106SOL     OW21651   5.798   1.701   6.067
 6106SOL    HW121652   5.797   1.761   6.148
 6106SOL    HW221653   5.887   1.707   6.023
 6107SOL     OW21654   5.728   1.445   6.134
 6107SOL    HW121655   5.736   1.541   6.108
 6107SOL    HW221656   5.637   1.428   6.171
 6108SOL     OW21657   5.735   0.627   6.174
 6108SOL    HW121658   5.686   0.540   6.172
 6108SOL    HW221659   5.739   0.661   6.267
 6109SOL     OW21660   5.697   1.505   5.654
 6109SOL    HW121661   5.616   1.478   5.602
 6109SOL    HW221662   5.671   1.575   5.721
 6110SOL     OW21663   5.722   0.753   6.423
 6110SOL    HW121664   5.772   0.830   6.462
 6110SOL    HW221665   5.639   0.787   6.378
 6111SOL     OW21666   6.043   1.748   5.948
 6111SOL    HW121667   6.085   1.808   6.016
 6111SOL    HW221668   6.114   1.706   5.892
 6112SOL     OW21669   5.974   0.679   6.052
 6112SOL    HW121670   6.025   0.594   6.059
 6112SOL    HW221671   5.884   0.668   6.094
 6113SOL     OW21672   6.455   1.421   6.233
 6113SOL    HW121673   6.462   1.459   6.325
 6113SOL    HW221674   6.373   1.457   6.188
 6114SOL     OW21675   5.858   0.129   5.653
 6114SOL    HW121676   5.886   0.219   5.618
 6114SOL    HW221677   5.937   0.068   5.656
 6115SOL     OW21678   6.137   0.341   5.853
 6115SOL    HW121679   6.209   0.288   5.809
 6115SOL    HW221680   6.122   0.426   5.804
 6116SOL     OW21681   6.198   0.564   6.376
 6116SOL    HW121682   6.156   0.640   6.327
 6116SOL    HW221683   6.145   0.544   6.458
 6117SOL     OW21684   6.006   0.084   6.317
 6117SOL    HW121685   5.943   0.159   6.299
 6117SOL    HW221686   5.984   0.006   6.259
 6118SOL     OW21687   6.076   0.569   5.704
 6118SOL    HW121688   6.095   0.654   5.654
 6118SOL    HW221689   5.990   0.580   5.754
 6119SOL     OW21690   6.245   1.663   5.783
 6119SOL    HW121691   6.266   1.699   5.692
 6119SOL    HW221692   6.327   1.617   5.819
 6120SOL     OW21693   5.839   0.299   6.276
 6120SOL    HW121694   5.752   0.332   6.240
 6120SOL    HW221695   5.838   0.304   6.376
 6121SOL     OW21696   5.744   0.275   5.863
 6121SOL    HW121697   5.770   0.370   5.848
 6121SOL    HW221698   5.788   0.218   5.793
 6122SOL     OW21699   6.133   0.808   6.246
 6122SOL    HW121700   6.213   0.857   6.210
 6122SOL    HW221701   6.076   0.777   6.170
 6123SOL     OW21702   6.262   1.748   6.338
 6123SOL    HW121703   6.238   1.820   6.403
 6123SOL    HW221704   6.319   1.785   6.265
 6124SOL     OW21705   6.056   0.419   6.103
 6124SOL    HW121706   6.076   0.377   6.015
 6124SOL    HW221707   5.977   0.374   6.145
 6125SOL     OW21708   5.606   1.096   6.078
 6125SOL    HW121709   5.682   1.116   6.140
 6125SOL    HW221710   5.609   1.000   6.052
 6126SOL     OW21711   5.816   2.171   1.007
 6126SOL    HW121712   5.845   2.141   1.098
 6126SOL    HW221713   5.735   2.120   0.979
 6127SOL     OW21714   5.677   2.312   0.631
 6127SOL    HW121715   5.583   2.319   0.664
 6127SOL    HW221716   5.681   2.243   0.558
 6128SOL     OW21717   6.382   2.622   1.874
 6128SOL    HW121718   6.416   2.569   1.952
 6128SOL    HW221719   6.459   2.667   1.829
 6129SOL     OW21720   5.928   3.243   1.049
 6129SOL    HW121721   5.868   3.172   1.014
 6129SOL    HW221722   5.970   3.292   0.972
 6130SOL     OW21723   6.016   2.240   1.462
 6130SOL    HW121724   6.107   2.200   1.469
 6130SOL    HW221725   6.023   2.340   1.468
 6131SOL     OW21726   5.823   3.553   0.451
 6131SOL    HW121727   5.813   3.620   0.525
 6131SOL    HW221728   5.909   3.569   0.403
 6132SOL     OW21729   5.699   3.333   0.554
 6132SOL    HW121730   5.748   3.413   0.519
 6132SOL    HW221731   5.653   3.358   0.640
 6133SOL     OW21732   6.151   3.639   1.399
 6133SOL    HW121733   6.127   3.630   1.496
 6133SOL    HW221734   6.087   3.702   1.354
 6134SOL     OW21735   5.755   2.571   0.578
 6134SOL    HW121736   5.720   2.477   0.588
 6134SOL    HW221737   5.725   2.626   0.656
 6135SOL     OW21738   5.610   3.372   0.133
 6135SOL    HW121739   5.624   3.301   0.202
 6135SOL    HW221740   5.599   3.460   0.179
 6136SOL     OW21741   5.803   2.618   1.541
 6136SOL    HW121742   5.897   2.585   1.543
 6136SOL    HW221743   5.801   2.714   1.568
 6137SOL     OW21744   6.155   3.177   0.679
 6137SOL    HW121745   6.118   3.085   0.663
 6137SOL    HW221746   6.208   3.205   0.599
 6138SOL     OW21747   6.353   1.759   0.323
 6138SOL    HW121748   6.406   1.818   0.262
 6138SOL    HW221749   6.374   1.780   0.418
 6139SOL     OW21750   5.979   2.134   1.858
 6139SOL    HW121751   6.015   2.206   1.917
 6139SOL    HW221752   5.918   2.174   1.789
 6140SOL     OW21753   6.415   2.397   1.493
 6140SOL    HW121754   6.365   2.440   1.568
 6140SOL    HW221755   6.371   2.311   1.469
 6141SOL     OW21756   5.679   2.719   0.810
 6141SOL    HW121757   5.734   2.701   0.891
 6141SOL    HW221758   5.692   2.815   0.782
 6142SOL     OW21759   5.730   3.793   1.512
 6142SOL    HW121760   5.773   3.703   1.517
 6142SOL    HW221761   5.650   3.789   1.452
 6143SOL     OW21762   6.087   2.007   0.912
 6143SOL    HW121763   6.113   2.050   0.998
 6143SOL    HW221764   6.140   2.047   0.837
 6144SOL     OW21765   5.892   3.605   0.872
 6144SOL    HW121766   5.954   3.527   0.866
 6144SOL    HW221767   5.929   3.672   0.937
 6145SOL     OW21768   5.820   2.225   1.657
 6145SOL    HW121769   5.729   2.193   1.628
 6145SOL    HW221770   5.882   2.225   1.579
 6146SOL     OW21771   6.070   3.665   0.388
 6146SOL    HW121772   6.100   3.734   0.454
 6146SOL    HW221773   6.150   3.627   0.342
 6147SOL     OW21774   5.824   3.556   1.370
 6147SOL    HW121775   5.884   3.477   1.355
 6147SOL    HW221776   5.739   3.543   1.320
 6148SOL     OW21777   6.002   2.511   0.466
 6148SOL    HW121778   6.026   2.418   0.494
 6148SOL    HW221779   5.913   2.536   0.504
 6149SOL     OW21780   6.363   2.192   1.749
 6149SOL    HW121781   6.459   2.217   1.764
 6149SOL    HW221782   6.335   2.123   1.815
 6150SOL     OW21783   6.401   3.112   0.829
 6150SOL    HW121784   6.417   3.210   0.838
 6150SOL    HW221785   6.304   3.095   0.810
 6151SOL     OW21786   5.755   2.462   1.315
 6151SOL    HW121787   5.844   2.442   1.275
 6151SOL    HW221788   5.766   2.523   1.393
 6152SOL     OW21789   6.155   2.074   1.181
 6152SOL    HW121790   6.202   1.989   1.206
 6152SOL    HW221791   6.061   2.072   1.213
 6153SOL     OW21792   6.024   3.425   0.069
 6153SOL    HW121793   5.980   3.369   0.140
 6153SOL    HW221794   6.033   3.370   6.486
 6154SOL     OW21795   6.172   2.097   0.288
 6154SOL    HW121796   6.149   2.000   0.276
 6154SOL    HW221797   6.174   2.142   0.199
 6155SOL     OW21798   6.464   1.963   1.380
 6155SOL    HW121799   6.401   1.909   1.324
 6155SOL    HW221800   0.036   2.000   1.321
 6156SOL     OW21801   5.921   3.008   0.311
 6156SOL    HW121802   5.936   3.107   0.313
 6156SOL    HW221803   5.985   2.965   0.247
 6157SOL     OW21804   5.993   3.347   1.290
 6157SOL    HW121805   5.963   3.308   1.203
 6157SOL    HW221806   6.088   3.379   1.281
 6158SOL     OW21807   6.058   2.513   1.517
 6158SOL    HW121808   6.099   2.572   1.448
 6158SOL    HW221809   6.124   2.496   1.590
 6159SOL     OW21810   6.146   1.955   1.738
 6159SOL    HW121811   6.111   1.923   1.650
 6159SOL    HW221812   6.086   2.026   1.774
 6160SOL     OW21813   5.895   2.089   1.265
 6160SOL    HW121814   5.927   2.153   1.334
 6160SOL    HW221815   5.839   2.018   1.308
 6161SOL     OW21816   5.586   3.256   1.316
 6161SOL    HW121817   5.650   3.183   1.342
 6161SOL    HW221818   5.498   3.215   1.291
 6162SOL     OW21819   5.869   1.900   0.618
 6162SOL    HW121820   5.877   1.994   0.653
 6162SOL    HW221821   5.914   1.837   0.681
 6163SOL     OW21822   0.060   2.646   1.101
 6163SOL    HW121823   0.094   2.554   1.119
 6163SOL    HW221824   0.006   2.646   1.017
 6164SOL     OW21825   6.470   3.271   1.611
 6164SOL    HW121826   6.477   3.320   1.525
 6164SOL    HW221827   0.060   3.262   1.653
 6165SOL     OW21828   5.856   2.666   1.026
 6165SOL    HW121829   5.955   2.662   1.041
 6165SOL    HW221830   5.823   2.575   1.000
 6166SOL     OW21831   5.783   2.424   0.915
 6166SOL    HW121832   5.805   2.337   0.958
 6166SOL    HW221833   5.787   2.414   0.816
 6167SOL     OW21834   5.656   3.189   0.330
 6167SOL    HW121835   5.660   3.232   0.420
 6167SOL    HW221836   5.654   3.089   0.340
 6168SOL     OW21837   5.629   3.588   0.943
 6168SOL    HW121838   5.591   3.517   0.884
 6168SOL    HW221839   5.726   3.602   0.921
 6169SOL     OW21840   6.061   3.377   0.850
 6169SOL    HW121841   6.140   3.419   0.896
 6169SOL    HW221842   6.093   3.310   0.782
 6170SOL     OW21843   5.589   2.492   1.099
 6170SOL    HW121844   5.642   2.466   1.019
 6170SOL    HW221845   5.647   2.490   1.180
 6171SOL     OW21846   5.698   2.457   1.736
 6171SOL    HW121847   5.743   2.370   1.714
 6171SOL    HW221848   5.720   2.524   1.665
 6172SOL     OW21849   5.732   3.036   1.407
 6172SOL    HW121850   5.741   2.981   1.490
 6172SOL    HW221851   5.754   2.980   1.327
 6173SOL     OW21852   6.238   3.548   0.203
 6173SOL    HW121853   6.272   3.602   0.125
 6173SOL    HW221854   6.165   3.487   0.172
 6174SOL     OW21855   5.884   2.153   0.723
 6174SOL    HW121856   5.802   2.206   0.701
 6174SOL    HW221857   5.893   2.146   0.823
 6175SOL     OW21858   5.888   3.246   1.518
 6175SOL    HW121859   5.931   3.281   1.435
 6175SOL    HW221860   5.824   3.173   1.494
 6176SOL     OW21861   6.316   3.214   0.457
 6176SOL    HW121862   6.380   3.151   0.500
 6176SOL    HW221863   6.343   3.229   0.362
 6177SOL     OW21864   5.915   3.288   0.289
 6177SOL    HW121865   5.819   3.261   0.290
 6177SOL    HW221866   5.937   3.334   0.375
 6178SOL     OW21867   5.804   2.884   1.634
 6178SOL    HW121868   5.736   2.899   1.706
 6178SOL    HW221869   5.895   2.904   1.669
 6179SOL     OW21870   6.283   2.150   1.490
 6179SOL    HW121871   6.339   2.078   1.450
 6179SOL    HW221872   6.303   2.157   1.588
 6180SOL     OW21873   5.727   2.096   0.468
 6180SOL    HW121874   5.748   2.092   0.370
 6180SOL    HW221875   5.764   2.016   0.514
 6181SOL     OW21876   6.250   2.450   1.706
 6181SOL    HW121877   6.287   2.515   1.773
 6181SOL    HW221878   6.272   2.357   1.735
 6182SOL     OW21879   6.185   2.711   0.519
 6182SOL    HW121880   6.268   2.668   0.557
 6182SOL    HW221881   6.116   2.641   0.502
 6183SOL     OW21882   6.253   3.513   0.997
 6183SOL    HW121883   6.222   3.606   0.982
 6183SOL    HW221884   6.257   3.494   1.095
 6184SOL     OW21885   6.060   2.242   0.529
 6184SOL    HW121886   6.064   2.187   0.445
 6184SOL    HW221887   5.988   2.207   0.588
 6185SOL     OW21888   5.999   2.412   1.195
 6185SOL    HW121889   6.049   2.327   1.180
 6185SOL    HW221890   6.044   2.487   1.146
 6186SOL     OW21891   6.261   3.435   1.270
 6186SOL    HW121892   6.218   3.514   1.315
 6186SOL    HW221893   6.354   3.424   1.305
 6187SOL     OW21894   5.675   2.904   0.363
 6187SOL    HW121895   5.769   2.934   0.348
 6187SOL    HW221896   5.664   2.811   0.328
 6188SOL     OW21897   5.825   2.479   1.977
 6188SOL    HW121898   5.775   2.415   2.035
 6188SOL    HW221899   5.778   2.487   1.889
 6189SOL     OW21900   5.499   2.163   2.590
 6189SOL    HW121901   5.415   2.214   2.610
 6189SOL    HW221902   5.482   2.099   2.515
 6190SOL     OW21903   6.229   2.988   2.905
 6190SOL    HW121904   6.142   3.037   2.898
 6190SOL    HW221905   6.275   3.013   2.990
 6191SOL     OW21906   6.426   2.751   3.664
 6191SOL    HW121907   6.400   2.817   3.734
 6191SOL    HW221908   6.495   2.791   3.604
 6192SOL     OW21909   6.001   3.154   2.903
 6192SOL    HW121910   5.901   3.145   2.902
 6192SOL    HW221911   6.026   3.248   2.880
 6193SOL     OW21912   6.120   2.273   3.305
 6193SOL    HW121913   6.175   2.194   3.329
 6193SOL    HW221914   6.026   2.260   3.336
 6194SOL     OW21915   5.698   3.460   2.308
 6194SOL    HW121916   5.770   3.512   2.354
 6194SOL    HW221917   5.732   3.427   2.220
 6195SOL     OW21918   5.650   3.327   2.544
 6195SOL    HW121919   5.660   3.366   2.453
 6195SOL    HW221920   5.670   3.229   2.542
 6196SOL     OW21921   5.919   2.978   2.658
 6196SOL    HW121922   5.915   3.009   2.753
 6196SOL    HW221923   5.840   3.014   2.608
 6197SOL     OW21924   6.233   3.571   3.235
 6197SOL    HW121925   6.138   3.593   3.255
 6197SOL    HW221926   6.282   3.655   3.211
 6198SOL     OW21927   6.131   2.744   1.897
 6198SOL    HW121928   6.220   2.698   1.896
 6198SOL    HW221929   6.079   2.713   1.977
 6199SOL     OW21930   5.629   2.599   2.454
 6199SOL    HW121931   5.628   2.501   2.472
 6199SOL    HW221932   5.688   2.645   2.520
 6200SOL     OW21933   5.474   3.386   2.075
 6200SOL    HW121934   5.406   3.330   2.027
 6200SOL    HW221935   5.429   3.466   2.115
 6201SOL     OW21936   5.604   2.586   3.392
 6201SOL    HW121937   5.646   2.675   3.409
 6201SOL    HW221938   5.504   2.597   3.392
 6202SOL     OW21939   6.124   3.353   2.581
 6202SOL    HW121940   6.121   3.253   2.571
 6202SOL    HW221941   6.096   3.395   2.495
 6203SOL     OW21942   5.825   2.718   3.122
 6203SOL    HW121943   5.898   2.704   3.190
 6203SOL    HW221944   5.804   2.630   3.078
 6204SOL     OW21945   5.901   2.148   3.662
 6204SOL    HW121946   5.947   2.213   3.724
 6204SOL    HW221947   5.802   2.151   3.680
 6205SOL     OW21948   6.316   2.417   3.449
 6205SOL    HW121949   6.279   2.476   3.521
 6205SOL    HW221950   6.241   2.368   3.404
 6206SOL     OW21951   5.760   2.744   2.643
 6206SOL    HW121952   5.840   2.805   2.641
 6206SOL    HW221953   5.685   2.790   2.691
 6207SOL     OW21954   5.749   3.724   3.444
 6207SOL    HW121955   5.755   3.712   3.543
 6207SOL    HW221956   5.693   3.651   3.404
 6208SOL     OW21957   6.113   2.141   2.719
 6208SOL    HW121958   6.041   2.126   2.787
 6208SOL    HW221959   6.109   2.236   2.688
 6209SOL     OW21960   5.964   2.666   2.114
 6209SOL    HW121961   5.904   2.737   2.152
 6209SOL    HW221962   5.909   2.600   2.062
 6210SOL     OW21963   5.916   3.164   3.610
 6210SOL    HW121964   5.876   3.159   3.519
 6210SOL    HW221965   5.908   3.075   3.656
 6211SOL     OW21966   5.861   2.243   3.408
 6211SOL    HW121967   5.764   2.267   3.419
 6211SOL    HW221968   5.895   2.204   3.493
 6212SOL     OW21969   5.828   3.605   3.011
 6212SOL    HW121970   5.915   3.560   3.029
 6212SOL    HW221971   5.820   3.623   2.912
 6213SOL     OW21972   6.367   2.120   3.655
 6213SOL    HW121973   6.452   2.077   3.684
 6213SOL    HW221974   6.294   2.096   3.719
 6214SOL     OW21975   6.471   3.295   2.664
 6214SOL    HW121976   6.436   3.382   2.629
 6214SOL    HW221977   6.397   3.244   2.707
 6215SOL     OW21978   0.026   2.418   2.853
 6215SOL    HW121979   6.496   2.362   2.775
 6215SOL    HW221980   0.033   2.361   2.935
 6216SOL     OW21981   5.683   2.381   3.223
 6216SOL    HW121982   5.776   2.354   3.248
 6216SOL    HW221983   5.656   2.461   3.276
 6217SOL     OW21984   6.317   2.242   2.054
 6217SOL    HW121985   6.320   2.147   2.021
 6217SOL    HW221986   6.226   2.279   2.038
 6218SOL     OW21987   0.046   2.024   3.296
 6218SOL    HW121988   0.062   2.020   3.197
 6218SOL    HW221989   0.117   2.080   3.339
 6219SOL     OW21990   6.028   2.662   3.302
 6219SOL    HW121991   6.087   2.742   3.315
 6219SOL    HW221992   6.076   2.595   3.244
 6220SOL     OW21993   5.717   3.370   3.125
 6220SOL    HW121994   5.728   3.455   3.074
 6220SOL    HW221995   5.807   3.332   3.145
 6221SOL     OW21996   5.969   3.282   3.184
 6221SOL    HW121997   6.030   3.239   3.118
 6221SOL    HW221998   6.023   3.318   3.261
 6222SOL     OW21999   5.984   2.653   3.579
 6222SOL    HW122000   5.992   2.657   3.480
 6222SOL    HW222001   6.070   2.618   3.618
 6223SOL     OW22002   5.999   1.895   3.670
 6223SOL    HW122003   5.981   1.845   3.585
 6223SOL    HW222004   5.960   1.987   3.663
 6224SOL     OW22005   5.549   3.143   3.112
 6224SOL    HW122006   5.605   3.069   3.150
 6224SOL    HW222007   5.600   3.229   3.119
 6225SOL     OW22008   5.892   1.899   2.461
 6225SOL    HW122009   5.881   1.997   2.441
 6225SOL    HW222010   5.896   1.886   2.560
 6226SOL     OW22011   0.181   2.598   2.985
 6226SOL    HW122012   0.247   2.545   3.039
 6226SOL    HW222013   0.135   2.538   2.920
 6227SOL     OW22014   6.375   3.322   3.642
 6227SOL    HW122015   6.341   3.404   3.595
 6227SOL    HW222016   6.462   3.343   3.686
 6228SOL     OW22017   5.864   2.889   3.690
 6228SOL    HW122018   5.854   2.891   3.790
 6228SOL    HW222019   5.909   2.804   3.663
 6229SOL     OW22020   6.132   3.413   2.848
 6229SOL    HW122021   6.174   3.504   2.850
 6229SOL    HW222022   6.123   3.382   2.753
 6230SOL     OW22023   5.617   2.337   2.959
 6230SOL    HW122024   5.597   2.239   2.947
 6230SOL    HW222025   5.637   2.354   3.056
 6231SOL     OW22026   5.751   2.513   3.623
 6231SOL    HW122027   5.837   2.562   3.606
 6231SOL    HW222028   5.688   2.529   3.548
 6232SOL     OW22029   6.478   2.464   2.076
 6232SOL    HW122030   6.416   2.386   2.082
 6232SOL    HW222031   6.483   2.509   2.166
 6233SOL     OW22032   5.736   3.405   3.590
 6233SOL    HW122033   5.762   3.487   3.640
 6233SOL    HW222034   5.797   3.330   3.617
 6234SOL     OW22035   6.060   2.343   2.015
 6234SOL    HW122036   6.095   2.389   2.097
 6234SOL    HW222037   5.977   2.388   1.984
 6235SOL     OW22038   5.699   2.940   3.219
 6235SOL    HW122039   5.687   2.900   3.310
 6235SOL    HW222040   5.744   2.874   3.159
 6236SOL     OW22041   5.728   3.089   2.876
 6236SOL    HW122042   5.669   3.121   2.950
 6236SOL    HW222043   5.676   3.029   2.816
 6237SOL     OW22044   6.262   3.536   3.509
 6237SOL    HW122045   6.241   3.629   3.540
 6237SOL    HW222046   6.271   3.536   3.410
 6238SOL     OW22047   5.758   3.655   3.711
 6238SOL    HW122048   5.679   3.630   3.768
 6238SOL    HW222049   5.820   3.712   3.765
 6239SOL     OW22050   5.766   2.185   2.638
 6239SOL    HW122051   5.667   2.177   2.634
 6239SOL    HW222052   5.798   2.168   2.731
 6240SOL     OW22053   6.444   2.882   3.276
 6240SOL    HW122054   6.460   2.805   3.214
 6240SOL    HW222055   6.421   2.963   3.223
 6241SOL     OW22056   5.817   3.144   3.362
 6241SOL    HW122057   5.874   3.196   3.298
 6241SOL    HW222058   5.775   3.067   3.314
 6242SOL     OW22059   6.107   3.479   2.339
 6242SOL    HW122060   6.130   3.392   2.295
 6242SOL    HW222061   6.110   3.552   2.271
 6243SOL     OW22062   5.683   2.840   3.472
 6243SOL    HW122063   5.600   2.894   3.487
 6243SOL    HW222064   5.749   2.860   3.545
 6244SOL     OW22065   6.296   2.076   3.395
 6244SOL    HW122066   6.383   2.063   3.348
 6244SOL    HW222067   6.313   2.100   3.491
 6245SOL     OW22068   5.604   2.166   1.902
 6245SOL    HW122069   5.599   2.067   1.917
 6245SOL    HW222070   5.588   2.185   1.805
 6246SOL     OW22071   6.232   2.564   3.669
 6246SOL    HW122072   6.295   2.641   3.662
 6246SOL    HW222073   6.279   2.486   3.711
 6247SOL     OW22074   5.974   3.603   3.317
 6247SOL    HW122075   5.902   3.656   3.362
 6247SOL    HW222076   5.985   3.515   3.364
 6248SOL     OW22077   6.390   2.682   2.541
 6248SOL    HW122078   6.388   2.732   2.628
 6248SOL    HW222079   6.359   2.588   2.555
 6249SOL     OW22080   6.253   3.656   2.791
 6249SOL    HW122081   6.228   3.750   2.769
 6249SOL    HW222082   6.299   3.614   2.713
 6250SOL     OW22083   5.689   3.051   2.529
 6250SOL    HW122084   5.622   3.008   2.589
 6250SOL    HW222085   5.675   3.019   2.435
 6251SOL     OW22086   6.050   3.366   3.444
 6251SOL    HW122087   6.016   3.298   3.509
 6251SOL    HW222088   6.127   3.415   3.485
 6252SOL     OW22089   6.341   3.524   2.566
 6252SOL    HW122090   6.353   3.580   2.484
 6252SOL    HW222091   6.261   3.465   2.554
 6253SOL     OW22092   6.253   3.338   3.088
 6253SOL    HW122093   6.255   3.420   3.144
 6253SOL    HW222094   6.216   3.360   2.998
 6254SOL     OW22095   5.647   2.962   2.269
 6254SOL    HW122096   5.705   3.022   2.214
 6254SOL    HW222097   5.641   2.872   2.226
 6255SOL     OW22098   5.744   2.469   3.891
 6255SOL    HW122099   5.673   2.400   3.910
 6255SOL    HW222100   5.741   2.493   3.794
 6256SOL     OW22101   5.836   1.994   4.678
 6256SOL    HW122102   5.842   1.986   4.777
 6256SOL    HW222103   5.797   1.910   4.641
 6257SOL     OW22104   5.521   2.119   4.421
 6257SOL    HW122105   5.439   2.171   4.400
 6257SOL    HW222106   5.549   2.066   4.341
 6258SOL     OW22107   6.170   3.306   4.758
 6258SOL    HW122108   6.082   3.260   4.745
 6258SOL    HW222109   6.164   3.368   4.837
 6259SOL     OW22110   6.307   2.868   4.443
 6259SOL    HW122111   6.380   2.931   4.469
 6259SOL    HW222112   6.226   2.920   4.416
 6260SOL     OW22113   6.196   3.035   5.556
 6260SOL    HW122114   6.280   3.089   5.553
 6260SOL    HW222115   6.118   3.093   5.536
 6261SOL     OW22116   5.925   3.173   4.720
 6261SOL    HW122117   5.841   3.125   4.745
 6261SOL    HW222118   5.920   3.201   4.624
 6262SOL     OW22119   6.010   2.103   5.314
 6262SOL    HW122120   6.093   2.136   5.268
 6262SOL    HW222121   5.938   2.090   5.246
 6263SOL     OW22122   5.805   3.513   4.101
 6263SOL    HW122123   5.786   3.516   4.200
 6263SOL    HW222124   5.892   3.558   4.083
 6264SOL     OW22125   5.930   3.240   4.446
 6264SOL    HW122126   5.957   3.295   4.367
 6264SOL    HW222127   5.830   3.231   4.448
 6265SOL     OW22128   5.880   2.858   4.537
 6265SOL    HW122129   5.894   2.766   4.501
 6265SOL    HW222130   5.941   2.873   4.615
 6266SOL     OW22131   6.126   3.682   5.135
 6266SOL    HW122132   6.055   3.674   5.204
 6266SOL    HW222133   6.206   3.729   5.173
 6267SOL     OW22134   5.781   2.478   5.260
 6267SOL    HW122135   5.878   2.461   5.240
 6267SOL    HW222136   5.770   2.571   5.294
 6268SOL     OW22137   6.351   2.434   5.177
 6268SOL    HW122138   6.330   2.453   5.273
 6268SOL    HW222139   6.324   2.340   5.154
 6269SOL     OW22140   5.954   3.751   4.662
 6269SOL    HW122141   6.046   3.723   4.636
 6269SOL    HW222142   5.891   3.732   4.586
 6270SOL     OW22143   5.981   3.201   5.485
 6270SOL    HW122144   5.946   3.180   5.394
 6270SOL    HW222145   5.927   3.153   5.554
 6271SOL     OW22146   5.762   2.093   5.184
 6271SOL    HW122147   5.725   2.174   5.138
 6271SOL    HW222148   5.727   2.089   5.277
 6272SOL     OW22149   6.041   3.641   4.056
 6272SOL    HW122150   6.100   3.701   4.110
 6272SOL    HW222151   6.095   3.596   3.985
 6273SOL     OW22152   5.911   3.714   4.931
 6273SOL    HW122153   5.973   3.649   4.976
 6273SOL    HW222154   5.927   3.711   4.832
 6274SOL     OW22155   6.045   2.574   4.219
 6274SOL    HW122156   6.036   2.475   4.206
 6274SOL    HW222157   5.995   2.600   4.302
 6275SOL     OW22158   6.181   2.040   3.829
 6275SOL    HW122159   6.173   2.016   3.926
 6275SOL    HW222160   6.124   1.979   3.774
 6276SOL     OW22161   6.328   2.167   5.477
 6276SOL    HW122162   6.400   2.106   5.510
 6276SOL    HW222163   6.252   2.168   5.542
 6277SOL     OW22164   6.474   2.294   4.598
 6277SOL    HW122165   6.417   2.254   4.527
 6277SOL    HW222166   6.422   2.364   4.648
 6278SOL     OW22167   6.072   3.001   4.398
 6278SOL    HW122168   6.001   2.939   4.434
 6278SOL    HW222169   6.040   3.095   4.406
 6279SOL     OW22170   5.665   2.320   5.063
 6279SOL    HW122171   5.721   2.330   4.981
 6279SOL    HW222172   5.695   2.385   5.132
 6280SOL     OW22173   6.244   2.041   4.621
 6280SOL    HW122174   6.276   1.968   4.682
 6280SOL    HW222175   6.210   2.117   4.676
 6281SOL     OW22176   6.108   3.272   3.829
 6281SOL    HW122177   6.032   3.284   3.893
 6281SOL    HW222178   6.076   3.224   3.747
 6282SOL     OW22179   5.907   2.138   4.026
 6282SOL    HW122180   5.977   2.068   4.043
 6282SOL    HW222181   5.940   2.201   3.956
 6283SOL     OW22182   6.382   1.957   5.032
 6283SOL    HW122183   6.360   1.912   4.946
 6283SOL    HW222184   6.471   2.003   5.024
 6284SOL     OW22185   5.846   3.366   4.973
 6284SOL    HW122186   5.840   3.306   4.893
 6284SOL    HW222187   5.940   3.400   4.982
 6285SOL     OW22188   6.044   2.446   5.228
 6285SOL    HW122189   6.089   2.483   5.147
 6285SOL    HW222190   6.111   2.435   5.301
 6286SOL     OW22191   6.008   1.950   5.542
 6286SOL    HW122192   5.950   1.869   5.540
 6286SOL    HW222193   6.003   1.997   5.454
 6287SOL     OW22194   5.808   1.961   4.947
 6287SOL    HW122195   5.800   2.004   5.037
 6287SOL    HW222196   5.742   1.886   4.940
 6288SOL     OW22197   6.311   2.472   4.732
 6288SOL    HW122198   6.371   2.468   4.811
 6288SOL    HW222199   6.299   2.567   4.704
 6289SOL     OW22200   0.102   2.694   4.813
 6289SOL    HW122201   0.187   2.679   4.763
 6289SOL    HW222202   0.025   2.690   4.749
 6290SOL     OW22203   6.427   3.403   5.273
 6290SOL    HW122204   6.440   3.349   5.189
 6290SOL    HW222205   6.362   3.356   5.333
 6291SOL     OW22206   6.038   2.621   4.676
 6291SOL    HW122207   6.127   2.667   4.664
 6291SOL    HW222208   6.018   2.612   4.773
 6292SOL     OW22209   5.807   2.260   5.435
 6292SOL    HW122210   5.893   2.218   5.407
 6292SOL    HW222211   5.791   2.343   5.382
 6293SOL     OW22212   5.860   3.454   5.524
 6293SOL    HW122213   5.770   3.433   5.563
 6293SOL    HW222214   5.909   3.369   5.504
 6294SOL     OW22215   5.982   2.336   3.850
 6294SOL    HW122216   6.063   2.394   3.841
 6294SOL    HW222217   5.902   2.393   3.869
 6295SOL     OW22218   5.750   2.923   5.194
 6295SOL    HW122219   5.765   2.852   5.262
 6295SOL    HW222220   5.727   2.881   5.106
 6296SOL     OW22221   5.712   3.018   4.788
 6296SOL    HW122222   5.702   2.946   4.857
 6296SOL    HW222223   5.667   2.990   4.703
 6297SOL     OW22224   6.243   3.592   5.458
 6297SOL    HW122225   6.196   3.673   5.494
 6297SOL    HW222226   6.296   3.618   5.377
 6298SOL     OW22227   0.086   2.006   3.770
 6298SOL    HW122228   0.122   1.914   3.753
 6298SOL    HW222229   0.056   2.013   3.865
 6299SOL     OW22230   6.178   3.539   3.848
 6299SOL    HW122231   6.252   3.572   3.789
 6299SOL    HW222232   6.164   3.441   3.832
 6300SOL     OW22233   5.703   2.213   4.604
 6300SOL    HW122234   5.641   2.186   4.530
 6300SOL    HW222235   5.761   2.135   4.629
 6301SOL     OW22236   5.886   3.158   5.233
 6301SOL    HW122237   5.819   3.229   5.215
 6301SOL    HW222238   5.844   3.068   5.216
 6302SOL     OW22239   6.264   2.166   5.200
 6302SOL    HW122240   6.304   2.096   5.140
 6302SOL    HW222241   6.301   2.155   5.292
 6303SOL     OW22242   5.633   2.162   3.711
 6303SOL    HW122243   5.599   2.214   3.789
 6303SOL    HW222244   5.577   2.184   3.631
 6304SOL     OW22245   5.698   1.980   3.908
 6304SOL    HW122246   5.667   2.044   3.837
 6304SOL    HW222247   5.771   2.022   3.961
 6305SOL     OW22248   6.227   2.665   5.080
 6305SOL    HW122249   6.263   2.753   5.111
 6305SOL    HW222250   6.287   2.591   5.110
 6306SOL     OW22251   6.238   2.429   5.427
 6306SOL    HW122252   6.214   2.479   5.509
 6306SOL    HW222253   6.272   2.338   5.452
 6307SOL     OW22254   5.939   3.676   5.335
 6307SOL    HW122255   5.876   3.753   5.328
 6307SOL    HW222256   5.899   3.605   5.393
 6308SOL     OW22257   6.313   2.634   4.287
 6308SOL    HW122258   6.311   2.717   4.343
 6308SOL    HW222259   6.219   2.609   4.260
 6309SOL     OW22260   6.269   3.718   4.654
 6309SOL    HW122261   6.277   3.781   4.577
 6309SOL    HW222262   6.351   3.661   4.660
 6310SOL     OW22263   5.846   3.077   5.684
 6310SOL    HW122264   5.807   2.998   5.731
 6310SOL    HW222265   5.832   3.159   5.740
 6311SOL     OW22266   5.666   3.201   4.476
 6311SOL    HW122267   5.576   3.244   4.476
 6311SOL    HW222268   5.658   3.104   4.498
 6312SOL     OW22269   6.238   3.320   5.460
 6312SOL    HW122270   6.142   3.289   5.465
 6312SOL    HW222271   6.241   3.419   5.471
 6313SOL     OW22272   6.112   3.445   4.997
 6313SOL    HW122273   6.135   3.528   5.048
 6313SOL    HW222274   6.127   3.365   5.055
 6314SOL     OW22275   5.604   2.878   4.015
 6314SOL    HW122276   5.698   2.908   4.000
 6314SOL    HW222277   5.604   2.783   4.048
 6315SOL     OW22278   5.790   2.058   0.210
 6315SOL    HW122279   5.852   1.987   0.176
 6315SOL    HW222280   5.712   2.066   0.148
 6316SOL     OW22281   5.550   2.204   6.296
 6316SOL    HW122282   5.468   2.260   6.307
 6316SOL    HW222283   5.540   2.145   6.216
 6317SOL     OW22284   6.326   2.993   0.024
 6317SOL    HW122285   6.236   2.976   0.063
 6317SOL    HW222286   6.326   3.082   6.478
 6318SOL     OW22287   6.284   2.838   6.147
 6318SOL    HW122288   6.360   2.904   6.146
 6318SOL    HW222289   6.197   2.887   6.138
 6319SOL     OW22290   5.886   3.172   6.149
 6319SOL    HW122291   5.852   3.262   6.122
 6319SOL    HW222292   5.812   3.105   6.143
 6320SOL     OW22293   6.201   2.928   5.811
 6320SOL    HW122294   6.199   2.957   5.716
 6320SOL    HW222295   6.296   2.924   5.843
 6321SOL     OW22296   5.624   3.401   5.676
 6321SOL    HW122297   5.537   3.360   5.702
 6321SOL    HW222298   5.616   3.501   5.681
 6322SOL     OW22299   6.068   3.295   6.318
 6322SOL    HW122300   5.994   3.237   6.284
 6322SOL    HW222301   6.119   3.333   6.241
 6323SOL     OW22302   6.382   1.861   6.126
 6323SOL    HW122303   6.448   1.863   6.051
 6323SOL    HW222304   6.297   1.906   6.097
 6324SOL     OW22305   5.647   2.804   6.298
 6324SOL    HW122306   5.744   2.823   6.309
 6324SOL    HW222307   5.613   2.756   6.379
 6325SOL     OW22308   6.178   1.960   6.488
 6325SOL    HW122309   6.099   1.927   0.040
 6325SOL    HW222310   6.188   2.059   0.002
 6326SOL     OW22311   5.958   3.675   6.464
 6326SOL    HW122312   5.989   3.588   0.002
 6326SOL    HW222313   6.037   3.736   6.452
 6327SOL     OW22314   5.993   2.770   5.905
 6327SOL    HW122315   6.075   2.806   5.860
 6327SOL    HW222316   6.007   2.673   5.926
 6328SOL     OW22317   6.313   3.259   6.438
 6328SOL    HW122318   6.368   3.324   6.386
 6328SOL    HW222319   6.218   3.264   6.408
 6329SOL     OW22320   6.113   1.939   6.134
 6329SOL    HW122321   6.128   1.918   6.231
 6329SOL    HW222322   6.034   1.999   6.126
 6330SOL     OW22323   5.897   1.927   5.807
 6330SOL    HW122324   5.940   1.937   5.718
 6330SOL    HW222325   5.947   1.859   5.861
 6331SOL     OW22326   6.100   3.182   5.882
 6331SOL    HW122327   6.007   3.210   5.859
 6331SOL    HW222328   6.111   3.085   5.864
 6332SOL     OW22329   6.035   2.944   6.113
 6332SOL    HW122330   5.997   3.036   6.105
 6332SOL    HW222331   6.012   2.891   6.031
 6333SOL     OW22332   5.673   3.706   6.471
 6333SOL    HW122333   5.629   3.617   6.482
 6333SOL    HW222334   5.772   3.694   6.468
 6334SOL     OW22335   6.199   3.354   6.074
 6334SOL    HW122336   6.160   3.279   6.021
 6334SOL    HW222337   6.231   3.426   6.012
 6335SOL     OW22338   5.821   3.298   5.837
 6335SOL    HW122339   5.753   3.336   5.775
 6335SOL    HW222340   5.808   3.336   5.929
 6336SOL     OW22341   5.608   2.152   5.589
 6336SOL    HW122342   5.531   2.147   5.526
 6336SOL    HW222343   5.686   2.194   5.543
 6337SOL     OW22344   5.652   2.035   5.833
 6337SOL    HW122345   5.628   2.078   5.746
 6337SOL    HW222346   5.743   1.993   5.826
 6338SOL     OW22347   6.211   2.568   6.160
 6338SOL    HW122348   6.227   2.667   6.158
 6338SOL    HW222349   6.118   2.549   6.128
 6339SOL     OW22350   6.328   3.684   6.494
 6339SOL    HW122351   6.273   3.750   6.444
 6339SOL    HW222352   6.420   3.681   6.456
 6340SOL     OW22353   5.681   3.000   6.100
 6340SOL    HW122354   5.672   2.927   6.167
 6340SOL    HW222355   5.698   2.961   6.010
 6341SOL     OW22356   5.871   2.073   6.113
 6341SOL    HW122357   5.869   2.079   6.013
 6341SOL    HW222358   5.844   2.160   6.153
 6342SOL     OW22359   6.400   3.438   6.237
 6342SOL    HW122360   6.418   3.533   6.212
 6342SOL    HW222361   6.325   3.403   6.182
 6343SOL     OW22362   5.753   2.882   5.857
 6343SOL    HW122363   5.840   2.836   5.870
 6343SOL    HW222364   5.678   2.816   5.863
 6344SOL     OW22365   5.721   4.375   0.120
 6344SOL    HW122366   5.623   4.368   0.137
 6344SOL    HW222367   5.758   4.285   0.098
 6345SOL     OW22368   6.076   4.930   1.117
 6345SOL    HW122369   6.021   5.000   1.073
 6345SOL    HW222370   6.149   4.973   1.170
 6346SOL     OW22371   0.022   4.544   1.844
 6346SOL    HW122372   6.450   4.610   1.824
 6346SOL    HW222373   0.073   4.524   1.760
 6347SOL     OW22374   6.251   4.814   0.625
 6347SOL    HW122375   6.324   4.879   0.644
 6347SOL    HW222376   6.163   4.857   0.644
 6348SOL     OW22377   6.275   4.847   1.804
 6348SOL    HW122378   6.303   4.829   1.710
 6348SOL    HW222379   6.202   4.916   1.805
 6349SOL     OW22380   5.894   5.107   1.016
 6349SOL    HW122381   5.813   5.050   1.025
 6349SOL    HW222382   5.875   5.199   1.047
 6350SOL     OW22383   6.123   4.080   1.314
 6350SOL    HW122384   6.211   4.045   1.346
 6350SOL    HW222385   6.049   4.041   1.368
 6351SOL     OW22386   5.873   5.448   0.522
 6351SOL    HW122387   5.880   5.525   0.587
 6351SOL    HW222388   5.869   5.484   0.429
 6352SOL     OW22389   5.711   5.231   0.537
 6352SOL    HW122390   5.781   5.302   0.536
 6352SOL    HW222391   5.697   5.197   0.444
 6353SOL     OW22392   5.796   4.814   0.830
 6353SOL    HW122393   5.831   4.729   0.871
 6353SOL    HW222394   5.760   4.873   0.902
 6354SOL     OW22395   6.092   4.731   0.192
 6354SOL    HW122396   6.176   4.742   0.139
 6354SOL    HW222397   6.061   4.637   0.185
 6355SOL     OW22398   5.697   4.231   0.642
 6355SOL    HW122399   5.601   4.227   0.615
 6355SOL    HW222400   5.720   4.324   0.672
 6356SOL     OW22401   5.814   4.478   1.625
 6356SOL    HW122402   5.913   4.469   1.629
 6356SOL    HW222403   5.787   4.563   1.669
 6357SOL     OW22404   6.170   5.122   0.751
 6357SOL    HW122405   6.102   5.051   0.731
 6357SOL    HW222406   6.188   5.174   0.668
 6358SOL     OW22407   5.760   4.752   1.324
 6358SOL    HW122408   5.826   4.740   1.250
 6358SOL    HW222409   5.716   4.664   1.344
 6359SOL     OW22410   5.954   4.495   0.220
 6359SOL    HW122411   5.874   4.457   0.174
 6359SOL    HW222412   5.953   4.467   0.316
 6360SOL     OW22413   6.426   4.281   1.481
 6360SOL    HW122414   6.394   4.297   1.575
 6360SOL    HW222415   6.356   4.310   1.416
 6361SOL     OW22416   5.762   4.492   0.703
 6361SOL    HW122417   5.800   4.512   0.793
 6361SOL    HW222418   5.709   4.571   0.671
 6362SOL     OW22419   5.755   5.596   1.580
 6362SOL    HW122420   5.721   5.579   1.673
 6362SOL    HW222421   5.714   5.530   1.517
 6363SOL     OW22422   5.986   5.581   0.939
 6363SOL    HW122423   6.029   5.490   0.935
 6363SOL    HW222424   6.055   5.651   0.920
 6364SOL     OW22425   6.078   5.041   1.776
 6364SOL    HW122426   6.075   5.065   1.679
 6364SOL    HW222427   5.987   5.014   1.806
 6365SOL     OW22428   5.891   3.997   1.432
 6365SOL    HW122429   5.841   4.076   1.395
 6365SOL    HW222430   5.828   3.939   1.483
 6366SOL     OW22431   6.122   5.604   0.331
 6366SOL    HW122432   6.140   5.662   0.410
 6366SOL    HW222433   6.208   5.568   0.296
 6367SOL     OW22434   5.939   4.450   0.500
 6367SOL    HW122435   5.948   4.351   0.490
 6367SOL    HW222436   5.876   4.470   0.574
 6368SOL     OW22437   6.294   4.008   1.745
 6368SOL    HW122438   6.354   3.957   1.683
 6368SOL    HW222439   6.207   3.958   1.756
 6369SOL     OW22440   6.370   5.245   0.908
 6369SOL    HW122441   6.442   5.183   0.941
 6369SOL    HW222442   6.303   5.194   0.856
 6370SOL     OW22443   6.392   4.203   0.822
 6370SOL    HW122444   6.416   4.154   0.738
 6370SOL    HW222445   6.459   4.183   0.893
 6371SOL     OW22446   5.899   3.789   0.219
 6371SOL    HW122447   5.915   3.753   0.127
 6371SOL    HW222448   5.964   3.747   0.283
 6372SOL     OW22449   5.999   4.914   0.665
 6372SOL    HW122450   5.930   4.893   0.734
 6372SOL    HW222451   5.987   4.855   0.586
 6373SOL     OW22452   5.656   5.411   1.400
 6373SOL    HW122453   5.590   5.430   1.328
 6373SOL    HW222454   5.745   5.393   1.359
 6374SOL     OW22455   5.991   4.729   0.461
 6374SOL    HW122456   6.044   4.742   0.378
 6374SOL    HW222457   5.959   4.634   0.466
 6375SOL     OW22458   6.138   4.305   0.806
 6375SOL    HW122459   6.145   4.391   0.755
 6375SOL    HW222460   6.229   4.265   0.816
 6376SOL     OW22461   6.090   4.470   1.681
 6376SOL    HW122462   6.118   4.504   1.591
 6376SOL    HW222463   6.154   4.399   1.710
 6377SOL     OW22464   6.073   3.842   1.789
 6377SOL    HW122465   6.075   3.755   1.740
 6377SOL    HW222466   5.978   3.872   1.800
 6378SOL     OW22467   5.945   3.777   1.279
 6378SOL    HW122468   5.926   3.856   1.337
 6378SOL    HW222469   5.895   3.698   1.314
 6379SOL     OW22470   5.619   5.072   1.277
 6379SOL    HW122471   5.597   5.013   1.355
 6379SOL    HW222472   5.616   5.168   1.304
 6380SOL     OW22473   6.361   4.388   1.065
 6380SOL    HW122474   6.393   4.303   1.024
 6380SOL    HW222475   6.332   4.451   0.993
 6381SOL     OW22476   5.863   3.743   0.639
 6381SOL    HW122477   5.949   3.789   0.617
 6381SOL    HW222478   5.872   3.695   0.726
 6382SOL     OW22479   0.135   4.466   1.110
 6382SOL    HW122480   0.155   4.388   1.169
 6382SOL    HW222481   0.038   4.465   1.084
 6383SOL     OW22482   0.013   5.321   1.574
 6383SOL    HW122483   0.047   5.306   1.481
 6383SOL    HW222484   0.090   5.322   1.637
 6384SOL     OW22485   6.007   4.597   1.919
 6384SOL    HW122486   6.090   4.631   1.962
 6384SOL    HW222487   6.030   4.543   1.838
 6385SOL     OW22488   5.866   4.575   0.950
 6385SOL    HW122489   5.903   4.627   1.027
 6385SOL    HW222490   5.886   4.478   0.963
 6386SOL     OW22491   5.926   4.312   0.974
 6386SOL    HW122492   5.862   4.243   0.941
 6386SOL    HW222493   6.010   4.308   0.919
 6387SOL     OW22494   5.678   5.536   0.911
 6387SOL    HW122495   5.648   5.468   0.844
 6387SOL    HW222496   5.778   5.536   0.916
 6388SOL     OW22497   6.100   5.339   0.931
 6388SOL    HW122498   6.192   5.326   0.968
 6388SOL    HW222499   6.072   5.257   0.881
 6389SOL     OW22500   5.847   5.271   1.780
 6389SOL    HW122501   5.803   5.300   1.865
 6389SOL    HW222502   5.860   5.172   1.781
 6390SOL     OW22503   6.231   4.330   1.296
 6390SOL    HW122504   6.190   4.239   1.293
 6390SOL    HW222505   6.275   4.349   1.208
 6391SOL     OW22506   5.854   4.870   1.548
 6391SOL    HW122507   5.841   4.806   1.623
 6391SOL    HW222508   5.823   4.827   1.462
 6392SOL     OW22509   5.674   4.933   1.047
 6392SOL    HW122510   5.656   4.980   1.133
 6392SOL    HW222511   5.618   4.851   1.041
 6393SOL     OW22512   6.271   5.402   1.728
 6393SOL    HW122513   6.188   5.432   1.681
 6393SOL    HW222514   6.345   5.393   1.661
 6394SOL     OW22515   0.003   3.883   0.120
 6394SOL    HW122516   0.061   3.812   0.081
 6394SOL    HW222517   6.408   3.851   0.122
 6395SOL     OW22518   5.686   5.545   1.839
 6395SOL    HW122519   5.672   5.451   1.872
 6395SOL    HW222520   5.739   5.596   1.907
 6396SOL     OW22521   6.312   4.886   1.524
 6396SOL    HW122522   6.329   4.973   1.572
 6396SOL    HW222523   6.274   4.906   1.433
 6397SOL     OW22524   6.328   5.445   0.210
 6397SOL    HW122525   6.288   5.478   0.124
 6397SOL    HW222526   6.281   5.362   0.239
 6398SOL     OW22527   0.324   5.366   0.139
 6398SOL    HW122528   0.360   5.299   0.204
 6398SOL    HW222529   0.227   5.346   0.122
 6399SOL     OW22530   6.404   4.638   1.464
 6399SOL    HW122531   6.317   4.590   1.454
 6399SOL    HW222532   6.387   4.733   1.492
 6400SOL     OW22533   6.238   5.298   0.550
 6400SOL    HW122534   6.327   5.330   0.583
 6400SOL    HW222535   6.171   5.372   0.557
 6401SOL     OW22536   5.791   4.718   1.778
 6401SOL    HW122537   5.699   4.712   1.816
 6401SOL    HW222538   5.856   4.677   1.842
 6402SOL     OW22539   6.361   4.020   1.421
 6402SOL    HW122540   6.395   3.946   1.479
 6402SOL    HW222541   6.400   4.107   1.451
 6403SOL     OW22542   5.651   3.868   0.290
 6403SOL    HW122543   5.623   3.922   0.210
 6403SOL    HW222544   5.747   3.843   0.281
 6404SOL     OW22545   6.301   4.292   1.732
 6404SOL    HW122546   6.372   4.320   1.796
 6404SOL    HW222547   6.286   4.193   1.739
 6405SOL     OW22548   6.000   5.485   1.673
 6405SOL    HW122549   5.928   5.533   1.624
 6405SOL    HW222550   5.962   5.404   1.717
 6406SOL     OW22551   6.156   4.552   0.657
 6406SOL    HW122552   6.181   4.645   0.630
 6406SOL    HW222553   6.086   4.517   0.594
 6407SOL     OW22554   6.292   5.659   1.076
 6407SOL    HW122555   6.252   5.710   1.000
 6407SOL    HW222556   6.358   5.593   1.040
 6408SOL     OW22557   5.821   4.992   1.848
 6408SOL    HW122558   5.805   4.900   1.811
 6408SOL    HW222559   5.758   5.009   1.923
 6409SOL     OW22560   6.339   5.125   1.641
 6409SOL    HW122561   6.278   5.164   1.710
 6409SOL    HW222562   6.410   5.191   1.618
 6410SOL     OW22563   5.902   4.224   1.235
 6410SOL    HW122564   5.987   4.175   1.255
 6410SOL    HW222565   5.907   4.264   1.144
 6411SOL     OW22566   6.455   5.408   0.669
 6411SOL    HW122567   6.439   5.504   0.646
 6411SOL    HW222568   6.428   5.392   0.764
 6412SOL     OW22569   6.270   5.036   1.281
 6412SOL    HW122570   6.249   5.106   1.349
 6412SOL    HW222571   6.369   5.028   1.272
 6413SOL     OW22572   5.624   4.673   0.222
 6413SOL    HW122573   5.717   4.711   0.223
 6413SOL    HW222574   5.617   4.600   0.290
 6414SOL     OW22575   5.802   3.914   2.862
 6414SOL    HW122576   5.848   3.900   2.950
 6414SOL    HW222577   5.807   3.829   2.809
 6415SOL     OW22578   6.345   4.513   3.654
 6415SOL    HW122579   6.307   4.567   3.728
 6415SOL    HW222580   6.379   4.573   3.582
 6416SOL     OW22581   6.237   4.861   3.604
 6416SOL    HW122582   6.259   4.946   3.556
 6416SOL    HW222583   6.142   4.836   3.586
 6417SOL     OW22584   5.907   5.247   2.937
 6417SOL    HW122585   5.942   5.154   2.946
 6417SOL    HW222586   5.974   5.303   2.887
 6418SOL     OW22587   5.835   4.911   2.772
 6418SOL    HW122588   5.913   4.933   2.830
 6418SOL    HW222589   5.751   4.913   2.827
 6419SOL     OW22590   6.283   5.495   3.220
 6419SOL    HW122591   6.190   5.530   3.233
 6419SOL    HW222592   6.345   5.573   3.210
 6420SOL     OW22593   6.263   4.685   2.028
 6420SOL    HW122594   6.264   4.742   1.946
 6420SOL    HW222595   6.344   4.704   2.083
 6421SOL     OW22596   5.655   4.225   2.519
 6421SOL    HW122597   5.559   4.201   2.507
 6421SOL    HW222598   5.665   4.283   2.600
 6422SOL     OW22599   5.680   5.311   1.996
 6422SOL    HW122600   5.670   5.213   2.013
 6422SOL    HW222601   5.624   5.362   2.062
 6423SOL     OW22602   6.161   5.160   2.603
 6423SOL    HW122603   6.096   5.084   2.597
 6423SOL    HW222604   6.187   5.188   2.511
 6424SOL     OW22605   6.432   3.759   2.409
 6424SOL    HW122606   6.474   3.799   2.328
 6424SOL    HW222607   6.365   3.823   2.446
 6425SOL     OW22608   5.962   4.022   3.774
 6425SOL    HW122609   6.009   4.107   3.797
 6425SOL    HW222610   5.864   4.040   3.761
 6426SOL     OW22611   6.178   4.470   2.188
 6426SOL    HW122612   6.213   4.544   2.129
 6426SOL    HW222613   6.160   4.507   2.279
 6427SOL     OW22614   5.828   5.630   3.433
 6427SOL    HW122615   5.822   5.579   3.518
 6427SOL    HW222616   5.759   5.597   3.368
 6428SOL     OW22617   6.150   3.924   2.757
 6428SOL    HW122618   6.153   3.901   2.855
 6428SOL    HW222619   6.125   4.020   2.746
 6429SOL     OW22620   5.968   5.622   2.633
 6429SOL    HW122621   6.016   5.547   2.679
 6429SOL    HW222622   5.946   5.694   2.700
 6430SOL     OW22623   5.872   4.591   2.172
 6430SOL    HW122624   5.916   4.570   2.084
 6430SOL    HW222625   5.855   4.506   2.221
 6431SOL     OW22626   5.966   4.856   3.559
 6431SOL    HW122627   5.930   4.891   3.473
 6431SOL    HW222628   5.930   4.911   3.635
 6432SOL     OW22629   6.025   5.511   2.165
 6432SOL    HW122630   6.071   5.539   2.250
 6432SOL    HW222631   6.089   5.458   2.109
 6433SOL     OW22632   5.825   4.368   2.329
 6433SOL    HW122633   5.905   4.311   2.344
 6433SOL    HW222634   5.748   4.334   2.383
 6434SOL     OW22635   6.210   3.849   2.029
 6434SOL    HW122636   6.308   3.840   2.012
 6434SOL    HW222637   6.161   3.854   1.942
 6435SOL     OW22638   6.415   4.128   3.813
 6435SOL    HW122639   6.355   4.066   3.863
 6435SOL    HW222640   6.361   4.180   3.747
 6436SOL     OW22641   6.413   5.168   2.702
 6436SOL    HW122642   6.462   5.202   2.622
 6436SOL    HW222643   6.316   5.158   2.680
 6437SOL     OW22644   6.487   4.331   2.825
 6437SOL    HW122645   6.471   4.281   2.740
 6437SOL    HW222646   0.014   4.267   2.896
 6438SOL     OW22647   6.258   3.951   2.493
 6438SOL    HW122648   6.200   3.940   2.573
 6438SOL    HW222649   6.203   3.986   2.416
 6439SOL     OW22650   5.953   4.988   2.540
 6439SOL    HW122651   5.907   4.960   2.624
 6439SOL    HW222652   5.962   4.908   2.479
 6440SOL     OW22653   6.169   3.887   3.033
 6440SOL    HW122654   6.233   3.841   3.094
 6440SOL    HW222655   6.076   3.882   3.071
 6441SOL     OW22656   6.120   5.132   2.043
 6441SOL    HW122657   6.047   5.089   2.097
 6441SOL    HW222658   6.115   5.098   1.949
 6442SOL     OW22659   6.123   4.038   2.212
 6442SOL    HW122660   6.160   3.965   2.155
 6442SOL    HW222661   6.098   4.116   2.155
 6443SOL     OW22662   6.383   3.803   3.206
 6443SOL    HW122663   6.439   3.873   3.163
 6443SOL    HW222664   6.434   3.761   3.282
 6444SOL     OW22665   5.681   5.315   3.092
 6444SOL    HW122666   5.607   5.344   3.031
 6444SOL    HW222667   5.760   5.287   3.038
 6445SOL     OW22668   5.949   4.792   2.334
 6445SOL    HW122669   5.947   4.877   2.281
 6445SOL    HW222670   5.923   4.715   2.276
 6446SOL     OW22671   6.111   4.202   2.761
 6446SOL    HW122672   6.145   4.255   2.683
 6446SOL    HW222673   6.181   4.202   2.833
 6447SOL     OW22674   6.049   4.465   3.540
 6447SOL    HW122675   6.109   4.501   3.468
 6447SOL    HW222676   6.086   4.378   3.573
 6448SOL     OW22677   5.898   3.862   3.113
 6448SOL    HW122678   5.851   3.904   3.191
 6448SOL    HW222679   5.874   3.765   3.108
 6449SOL     OW22680   5.627   5.067   3.215
 6449SOL    HW122681   5.593   5.065   3.309
 6449SOL    HW222682   5.635   5.162   3.185
 6450SOL     OW22683   6.433   5.294   3.506
 6450SOL    HW122684   6.433   5.288   3.407
 6450SOL    HW222685   0.026   5.282   3.540
 6451SOL     OW22686   5.883   4.624   3.679
 6451SOL    HW122687   5.910   4.713   3.643
 6451SOL    HW222688   5.936   4.552   3.632
 6452SOL     OW22689   5.886   4.170   2.919
 6452SOL    HW122690   5.847   4.082   2.892
 6452SOL    HW222691   5.959   4.195   2.855
 6453SOL     OW22692   5.659   5.029   2.071
 6453SOL    HW122693   5.575   5.076   2.097
 6453SOL    HW222694   5.653   4.932   2.095
 6454SOL     OW22695   5.681   5.523   2.748
 6454SOL    HW122696   5.692   5.517   2.648
 6454SOL    HW222697   5.760   5.480   2.792
 6455SOL     OW22698   6.092   5.390   2.745
 6455SOL    HW122699   6.182   5.434   2.744
 6455SOL    HW222700   6.099   5.301   2.699
 6456SOL     OW22701   5.671   4.320   3.007
 6456SOL    HW122702   5.736   4.248   2.983
 6456SOL    HW222703   5.721   4.399   3.044
 6457SOL     OW22704   6.401   4.264   2.171
 6457SOL    HW122705   6.409   4.204   2.091
 6457SOL    HW222706   6.312   4.309   2.169
 6458SOL     OW22707   5.841   5.216   3.625
 6458SOL    HW122708   5.903   5.205   3.547
 6458SOL    HW222709   5.843   5.134   3.681
 6459SOL     OW22710   6.266   4.138   2.978
 6459SOL    HW122711   6.243   4.042   2.992
 6459SOL    HW222712   6.363   4.151   2.996
 6460SOL     OW22713   6.052   4.257   2.061
 6460SOL    HW122714   6.088   4.341   2.102
 6460SOL    HW222715   5.987   4.280   1.989
 6461SOL     OW22716   5.633   4.927   2.961
 6461SOL    HW122717   5.643   4.974   3.049
 6461SOL    HW222718   5.542   4.886   2.956
 6462SOL     OW22719   6.236   5.407   3.661
 6462SOL    HW122720   6.218   5.501   3.635
 6462SOL    HW222721   6.312   5.371   3.606
 6463SOL     OW22722   6.475   3.796   1.977
 6463SOL    HW122723   0.050   3.734   1.952
 6463SOL    HW222724   6.497   3.841   2.064
 6464SOL     OW22725   5.823   5.484   3.658
 6464SOL    HW122726   5.822   5.385   3.646
 6464SOL    HW222727   5.853   5.506   3.750
 6465SOL     OW22728   6.198   5.387   1.989
 6465SOL    HW122729   6.230   5.389   1.895
 6465SOL    HW222730   6.173   5.293   2.014
 6466SOL     OW22731   5.846   4.040   2.585
 6466SOL    HW122732   5.774   4.103   2.558
 6466SOL    HW222733   5.826   4.003   2.676
 6467SOL     OW22734   5.872   4.989   3.331
 6467SOL    HW122735   5.923   5.070   3.358
 6467SOL    HW222736   5.780   5.016   3.300
 6468SOL     OW22737   6.191   5.231   2.336
 6468SOL    HW122738   6.212   5.199   2.244
 6468SOL    HW222739   6.092   5.243   2.345
 6469SOL     OW22740   5.909   5.036   2.198
 6469SOL    HW122741   5.820   5.036   2.151
 6469SOL    HW222742   5.910   5.107   2.268
 6470SOL     OW22743   5.657   4.818   3.654
 6470SOL    HW122744   5.565   4.788   3.681
 6470SOL    HW222745   5.717   4.739   3.646
 6471SOL     OW22746   6.251   4.262   3.625
 6471SOL    HW122747   6.293   4.353   3.628
 6471SOL    HW222748   6.250   4.229   3.531
 6472SOL     OW22749   6.209   4.326   2.523
 6472SOL    HW122750   6.203   4.422   2.497
 6472SOL    HW222751   6.138   4.274   2.475
 6473SOL     OW22752   5.868   4.987   3.773
 6473SOL    HW122753   5.777   4.947   3.767
 6473SOL    HW222754   5.880   5.032   3.861
 6474SOL     OW22755   5.714   4.768   2.510
 6474SOL    HW122756   5.738   4.804   2.600
 6474SOL    HW222757   5.795   4.763   2.452
 6475SOL     OW22758   6.262   5.090   3.450
 6475SOL    HW122759   6.292   5.091   3.355
 6475SOL    HW222760   6.315   5.156   3.503
 6476SOL     OW22761   6.012   4.177   2.414
 6476SOL    HW122762   6.043   4.121   2.338
 6476SOL    HW222763   5.955   4.122   2.475
 6477SOL     OW22764   6.055   4.161   3.151
 6477SOL    HW122765   6.135   4.169   3.092
 6477SOL    HW222766   5.972   4.163   3.096
 6478SOL     OW22767   0.001   5.279   2.465
 6478SOL    HW122768   0.057   5.362   2.468
 6478SOL    HW222769   6.414   5.300   2.419
 6479SOL     OW22770   6.383   5.245   3.236
 6479SOL    HW122771   6.342   5.336   3.225
 6479SOL    HW222772   6.429   5.219   3.151
 6480SOL     OW22773   5.660   4.764   2.165
 6480SOL    HW122774   5.744   4.710   2.161
 6480SOL    HW222775   5.581   4.702   2.165
 6481SOL     OW22776   5.823   4.430   4.081
 6481SOL    HW122777   5.748   4.420   4.145
 6481SOL    HW222778   5.789   4.421   3.987
 6482SOL     OW22779   5.833   3.983   4.784
 6482SOL    HW122780   5.858   3.977   4.881
 6482SOL    HW222781   5.873   3.907   4.734
 6483SOL     OW22782   5.527   4.143   4.332
 6483SOL    HW122783   5.472   4.132   4.415
 6483SOL    HW222784   5.550   4.053   4.295
 6484SOL     OW22785   6.150   5.071   5.009
 6484SOL    HW122786   6.101   5.081   4.923
 6484SOL    HW222787   6.203   5.154   5.027
 6485SOL     OW22788   6.160   4.692   4.466
 6485SOL    HW122789   6.165   4.691   4.566
 6485SOL    HW222790   6.107   4.771   4.435
 6486SOL     OW22791   6.270   4.995   5.535
 6486SOL    HW122792   6.297   4.992   5.439
 6486SOL    HW222793   6.171   5.004   5.541
 6487SOL     OW22794   6.002   5.134   4.786
 6487SOL    HW122795   5.938   5.071   4.742
 6487SOL    HW222796   6.043   5.194   4.718
 6488SOL     OW22797   5.872   5.465   4.308
 6488SOL    HW122798   5.904   5.548   4.355
 6488SOL    HW222799   5.947   5.429   4.252
 6489SOL     OW22800   5.747   5.215   4.256
 6489SOL    HW122801   5.789   5.301   4.283
 6489SOL    HW222802   5.715   5.166   4.337
 6490SOL     OW22803   5.786   4.855   4.530
 6490SOL    HW122804   5.763   4.760   4.509
 6490SOL    HW222805   5.781   4.870   4.629
 6491SOL     OW22806   6.172   5.561   5.086
 6491SOL    HW122807   6.112   5.520   5.155
 6491SOL    HW222808   6.218   5.641   5.125
 6492SOL     OW22809   6.229   4.701   3.838
 6492SOL    HW122810   6.238   4.761   3.759
 6492SOL    HW222811   6.183   4.751   3.912
 6493SOL     OW22812   5.630   4.395   4.270
 6493SOL    HW122813   5.593   4.307   4.300
 6493SOL    HW222814   5.657   4.449   4.349
 6494SOL     OW22815   6.203   5.077   4.452
 6494SOL    HW122816   6.132   5.008   4.441
 6494SOL    HW222817   6.230   5.111   4.362
 6495SOL     OW22818   6.418   3.718   4.136
 6495SOL    HW122819   6.461   3.779   4.069
 6495SOL    HW222820   6.330   3.755   4.163
 6496SOL     OW22821   5.706   4.605   5.122
 6496SOL    HW122822   5.755   4.632   5.039
 6496SOL    HW222823   5.608   4.613   5.106
 6497SOL     OW22824   5.912   3.974   5.657
 6497SOL    HW122825   5.961   4.050   5.700
 6497SOL    HW222826   5.824   4.007   5.622
 6498SOL     OW22827   6.213   4.440   4.016
 6498SOL    HW122828   6.216   4.532   3.978
 6498SOL    HW222829   6.149   4.438   4.093
 6499SOL     OW22830   6.393   4.204   5.106
 6499SOL    HW122831   6.333   4.154   5.168
 6499SOL    HW222832   6.391   4.162   5.016
 6500SOL     OW22833   5.728   4.581   4.491
 6500SOL    HW122834   5.802   4.551   4.551
 6500SOL    HW222835   5.640   4.572   4.540
 6501SOL     OW22836   5.624   5.647   5.299
 6501SOL    HW122837   5.644   5.564   5.351
 6501SOL    HW222838   5.525   5.655   5.285
 6502SOL     OW22839   6.150   3.997   4.592
 6502SOL    HW122840   6.146   3.952   4.681
 6502SOL    HW222841   6.182   4.091   4.604
 6503SOL     OW22842   5.890   4.673   3.962
 6503SOL    HW122843   5.891   4.657   3.863
 6503SOL    HW222844   5.875   4.586   4.009
 6504SOL     OW22845   5.998   5.050   5.477
 6504SOL    HW122846   5.981   5.053   5.378
 6504SOL    HW222847   5.933   4.987   5.520
 6505SOL     OW22848   5.808   3.921   5.312
 6505SOL    HW122849   5.839   4.009   5.347
 6505SOL    HW222850   5.712   3.907   5.336
 6506SOL     OW22851   6.086   5.396   4.144
 6506SOL    HW122852   6.121   5.485   4.170
 6506SOL    HW222853   6.120   5.372   4.053
 6507SOL     OW22854   5.735   5.531   4.890
 6507SOL    HW122855   5.799   5.460   4.918
 6507SOL    HW222856   5.732   5.536   4.790
 6508SOL     OW22857   6.469   5.151   4.584
 6508SOL    HW122858   6.482   5.204   4.500
 6508SOL    HW222859   6.381   5.103   4.579
 6509SOL     OW22860   6.480   4.300   4.572
 6509SOL    HW122861   0.014   4.387   4.536
 6509SOL    HW222862   6.477   4.233   4.498
 6510SOL     OW22863   6.182   3.850   4.170
 6510SOL    HW122864   6.132   3.904   4.238
 6510SOL    HW222865   6.196   3.904   4.088
 6511SOL     OW22866   5.877   3.807   3.916
 6511SOL    HW122867   5.924   3.881   3.867
 6511SOL    HW222868   5.944   3.751   3.965
 6512SOL     OW22869   5.702   4.329   5.087
 6512SOL    HW122870   5.792   4.287   5.096
 6512SOL    HW222871   5.706   4.425   5.116
 6513SOL     OW22872   6.193   3.890   4.857
 6513SOL    HW122873   6.225   3.813   4.802
 6513SOL    HW222874   6.155   3.856   4.943
 6514SOL     OW22875   6.161   5.039   3.878
 6514SOL    HW122876   6.129   4.971   3.943
 6514SOL    HW222877   6.107   5.033   3.794
 6515SOL     OW22878   6.206   3.984   3.931
 6515SOL    HW122879   6.167   3.925   3.862
 6515SOL    HW222880   6.168   4.076   3.922
 6516SOL     OW22881   0.030   3.722   5.095
 6516SOL    HW122882   0.064   3.677   5.012
 6516SOL    HW222883   0.067   3.677   5.176
 6517SOL     OW22884   5.869   4.666   4.902
 6517SOL    HW122885   5.954   4.653   4.952
 6517SOL    HW222886   5.868   4.607   4.821
 6518SOL     OW22887   5.650   5.288   5.048
 6518SOL    HW122888   5.600   5.338   4.978
 6518SOL    HW222889   5.748   5.293   5.028
 6519SOL     OW22890   6.216   4.259   4.630
 6519SOL    HW122891   6.167   4.322   4.570
 6519SOL    HW222892   6.315   4.273   4.620
 6520SOL     OW22893   5.911   5.327   4.962
 6520SOL    HW122894   5.941   5.259   4.896
 6520SOL    HW222895   5.987   5.351   5.022
 6521SOL     OW22896   6.090   3.820   5.520
 6521SOL    HW122897   6.042   3.772   5.446
 6521SOL    HW222898   6.025   3.876   5.571
 6522SOL     OW22899   6.148   4.675   4.736
 6522SOL    HW122900   6.244   4.654   4.754
 6522SOL    HW222901   6.124   4.760   4.784
 6523SOL     OW22902   5.894   3.952   5.056
 6523SOL    HW122903   5.860   3.942   5.150
 6523SOL    HW222904   5.904   3.862   5.015
 6524SOL     OW22905   0.025   5.182   5.325
 6524SOL    HW122906   0.049   5.230   5.241
 6524SOL    HW222907   6.457   5.112   5.305
 6525SOL     OW22908   5.918   4.517   4.681
 6525SOL    HW122909   6.011   4.555   4.680
 6525SOL    HW222910   5.923   4.417   4.679
 6526SOL     OW22911   5.918   4.240   4.705
 6526SOL    HW122912   5.880   4.150   4.725
 6526SOL    HW222913   6.015   4.231   4.682
 6527SOL     OW22914   5.618   4.991   3.925
 6527SOL    HW122915   5.564   5.042   3.992
 6527SOL    HW222916   5.601   4.893   3.935
 6528SOL     OW22917   5.734   5.544   4.617
 6528SOL    HW122918   5.693   5.455   4.598
 6528SOL    HW222919   5.815   5.556   4.560
 6529SOL     OW22920   6.110   5.291   4.598
 6529SOL    HW122921   6.159   5.378   4.586
 6529SOL    HW222922   6.151   5.221   4.540
 6530SOL     OW22923   5.661   4.349   4.817
 6530SOL    HW122924   5.743   4.327   4.765
 6530SOL    HW222925   5.680   4.338   4.915
 6531SOL     OW22926   6.409   4.270   4.111
 6531SOL    HW122927   6.453   4.228   4.032
 6531SOL    HW222928   6.339   4.334   4.080
 6532SOL     OW22929   6.357   4.111   4.839
 6532SOL    HW122930   6.302   4.028   4.852
 6532SOL    HW222931   6.302   4.181   4.794
 6533SOL     OW22932   6.119   4.235   3.858
 6533SOL    HW122933   6.160   4.248   3.768
 6533SOL    HW222934   6.145   4.310   3.918
 6534SOL     OW22935   5.823   4.810   5.283
 6534SOL    HW122936   5.827   4.806   5.383
 6534SOL    HW222937   5.782   4.726   5.247
 6535SOL     OW22938   6.401   3.731   3.757
 6535SOL    HW122939   6.480   3.692   3.710
 6535SOL    HW222940   6.431   3.777   3.841
 6536SOL     OW22941   6.293   5.047   5.261
 6536SOL    HW122942   6.238   5.126   5.288
 6536SOL    HW222943   6.263   5.015   5.171
 6537SOL     OW22944   6.179   5.311   3.906
 6537SOL    HW122945   6.186   5.353   3.815
 6537SOL    HW222946   6.163   5.213   3.897
 6538SOL     OW22947   5.959   5.039   5.210
 6538SOL    HW122948   6.022   5.040   5.132
 6538SOL    HW222949   5.915   4.949   5.216
 6539SOL     OW22950   6.263   5.186   4.208
 6539SOL    HW122951   6.288   5.144   4.121
 6539SOL    HW222952   6.191   5.253   4.193
 6540SOL     OW22953   5.842   5.119   4.011
 6540SOL    HW122954   5.756   5.079   3.979
 6540SOL    HW222955   5.829   5.160   4.101
 6541SOL     OW22956   6.335   3.811   5.259
 6541SOL    HW122957   6.403   3.785   5.190
 6541SOL    HW222958   6.381   3.836   5.344
 6542SOL     OW22959   5.629   3.894   3.969
 6542SOL    HW122960   5.607   3.910   4.065
 6542SOL    HW222961   5.725   3.867   3.961
 6543SOL     OW22962   6.220   4.063   5.263
 6543SOL    HW122963   6.145   4.073   5.329
 6543SOL    HW222964   6.252   3.968   5.264
 6544SOL     OW22965   6.112   4.427   4.449
 6544SOL    HW122966   6.133   4.525   4.450
 6544SOL    HW222967   6.081   4.401   4.358
 6545SOL     OW22968   6.250   5.527   4.564
 6545SOL    HW122969   6.217   5.619   4.583
 6545SOL    HW222970   6.350   5.525   4.571
 6546SOL     OW22971   5.618   5.076   4.450
 6546SOL    HW122972   5.662   4.991   4.477
 6546SOL    HW222973   5.522   5.059   4.428
 6547SOL     OW22974   6.155   5.255   5.396
 6547SOL    HW122975   6.100   5.187   5.443
 6547SOL    HW222976   6.236   5.276   5.450
 6548SOL     OW22977   6.471   5.303   4.351
 6548SOL    HW122978   6.463   5.395   4.313
 6548SOL    HW222979   6.403   5.243   4.309
 6549SOL     OW22980   6.285   5.304   5.057
 6549SOL    HW122981   6.254   5.399   5.054
 6549SOL    HW222982   6.385   5.301   5.064
 6550SOL     OW22983   5.605   4.726   4.019
 6550SOL    HW122984   5.701   4.707   4.000
 6550SOL    HW222985   5.554   4.640   4.024
 6551SOL     OW22986   5.755   4.294   5.755
 6551SOL    HW122987   5.663   4.308   5.792
 6551SOL    HW222988   5.774   4.364   5.686
 6552SOL     OW22989   5.516   4.202   6.232
 6552SOL    HW122990   5.460   4.214   6.314
 6552SOL    HW222991   5.502   4.110   6.195
 6553SOL     OW22992   6.336   4.779   0.019
 6553SOL    HW122993   6.425   4.736   0.002
 6553SOL    HW222994   6.341   4.876   6.495
 6554SOL     OW22995   6.190   4.661   6.313
 6554SOL    HW122996   6.241   4.699   6.390
 6554SOL    HW222997   6.113   4.721   6.291
 6555SOL     OW22998   5.799   5.484   5.977
 6555SOL    HW122999   5.810   5.525   6.068
 6555SOL    HW223000   5.885   5.441   5.949
 6556SOL     OW23001   5.765   4.804   6.438
 6556SOL    HW123002   5.805   4.810   0.030
 6556SOL    HW223003   5.667   4.825   6.442
 6557SOL     OW23004   5.679   4.414   6.172
 6557SOL    HW123005   5.627   4.330   6.186
 6557SOL    HW223006   5.681   4.466   6.258
 6558SOL     OW23007   5.610   5.314   5.658
 6558SOL    HW123008   5.554   5.231   5.653
 6558SOL    HW223009   5.595   5.359   5.747
 6559SOL     OW23010   6.137   5.076   6.263
 6559SOL    HW123011   6.084   4.991   6.273
 6559SOL    HW223012   6.105   5.125   6.182
 6560SOL     OW23013   6.394   3.692   6.091
 6560SOL    HW123014   6.457   3.747   6.036
 6560SOL    HW223015   6.319   3.749   6.124
 6561SOL     OW23016   6.093   4.445   5.846
 6561SOL    HW123017   6.095   4.535   5.801
 6561SOL    HW223018   6.032   4.448   5.925
 6562SOL     OW23019   5.668   4.547   6.406
 6562SOL    HW123020   5.689   4.490   6.485
 6562SOL    HW223021   5.711   4.636   6.417
 6563SOL     OW23022   6.154   3.864   6.399
 6563SOL    HW123023   6.157   3.957   6.435
 6563SOL    HW223024   6.164   3.867   6.299
 6564SOL     OW23025   5.981   5.676   6.444
 6564SOL    HW123026   6.042   5.598   6.459
 6564SOL    HW223027   6.033   5.761   6.450
 6565SOL     OW23028   6.057   5.410   5.871
 6565SOL    HW123029   6.055   5.506   5.843
 6565SOL    HW223030   6.132   5.364   5.824
 6566SOL     OW23031   5.940   4.408   6.072
 6566SOL    HW123032   5.951   4.308   6.079
 6566SOL    HW223033   5.849   4.434   6.104
 6567SOL     OW23034   6.305   3.897   5.679
 6567SOL    HW123035   6.375   3.908   5.608
 6567SOL    HW223036   6.220   3.866   5.637
 6568SOL     OW23037   6.353   5.050   6.443
 6568SOL    HW123038   6.384   5.144   6.433
 6568SOL    HW223039   6.274   5.034   6.383
 6569SOL     OW23040   6.161   3.833   6.129
 6569SOL    HW123041   6.073   3.787   6.138
 6569SOL    HW223042   6.159   3.892   6.048
 6570SOL     OW23043   5.823   3.782   5.828
 6570SOL    HW123044   5.857   3.859   5.775
 6570SOL    HW223045   5.879   3.701   5.809
 6571SOL     OW23046   5.976   4.842   6.264
 6571SOL    HW123047   5.905   4.825   6.333
 6571SOL    HW223048   5.934   4.850   6.174
 6572SOL     OW23049   6.162   3.984   5.901
 6572SOL    HW123050   6.221   3.960   5.824
 6572SOL    HW223051   6.107   4.065   5.878
 6573SOL     OW23052   6.190   4.161   6.245
 6573SOL    HW123053   6.206   4.257   6.220
 6573SOL    HW223054   6.181   4.153   6.344
 6574SOL     OW23055   5.614   4.938   5.662
 6574SOL    HW123056   5.537   5.002   5.659
 6574SOL    HW223057   5.612   4.887   5.748
 6575SOL     OW23058   5.736   5.682   0.063
 6575SOL    HW123059   5.682   5.611   0.018
 6575SOL    HW223060   5.824   5.691   0.018
 6576SOL     OW23061   6.462   4.346   6.054
 6576SOL    HW123062   6.472   4.336   5.955
 6576SOL    HW223063   6.367   4.367   6.077
 6577SOL     OW23064   6.009   4.194   5.787
 6577SOL    HW123065   6.066   4.274   5.803
 6577SOL    HW223066   5.912   4.221   5.788
 6578SOL     OW23067   6.267   5.282   5.749
 6578SOL    HW123068   6.313   5.304   5.663
 6578SOL    HW223069   6.300   5.194   5.784
 6579SOL     OW23070   5.672   4.085   5.597
 6579SOL    HW123071   5.589   4.107   5.546
 6579SOL    HW223072   5.694   4.160   5.659
 6580SOL     OW23073   6.204   4.425   6.171
 6580SOL    HW123074   6.213   4.509   6.225
 6580SOL    HW223075   6.115   4.424   6.125
 6581SOL     OW23076   6.214   5.522   6.472
 6581SOL    HW123077   6.264   5.602   6.437
 6581SOL    HW223078   6.240   5.441   6.420
 6582SOL     OW23079   6.290   5.306   6.326
 6582SOL    HW123080   6.302   5.367   6.248
 6582SOL    HW223081   6.233   5.229   6.299
 6583SOL     OW23082   5.630   4.786   5.882
 6583SOL    HW123083   5.706   4.819   5.938
 6583SOL    HW223084   5.604   4.695   5.913
 6584SOL     OW23085   5.779   6.302   0.115
 6584SOL    HW123086   5.691   6.264   0.145
 6584SOL    HW223087   5.846   6.229   0.107
 6585SOL     OW23088   5.531   5.997   0.661
 6585SOL    HW123089   5.435   6.017   0.682
 6585SOL    HW223090   5.535   5.940   0.579
 6586SOL     OW23091   6.211   0.204   0.679
 6586SOL    HW123092   6.281   0.174   0.743
 6586SOL    HW223093   6.128   0.150   0.690
 6587SOL     OW23094   6.014   6.030   1.523
 6587SOL    HW123095   6.097   5.974   1.517
 6587SOL    HW223096   5.937   5.973   1.551
 6588SOL     OW23097   6.406   5.666   0.588
 6588SOL    HW123098   6.459   5.714   0.518
 6588SOL    HW223099   6.313   5.703   0.590
 6589SOL     OW23100   5.941   5.856   1.875
 6589SOL    HW123101   5.986   5.930   1.925
 6589SOL    HW223102   5.850   5.886   1.845
 6590SOL     OW23103   6.178   6.341   0.215
 6590SOL    HW123104   6.159   6.416   0.151
 6590SOL    HW223105   6.146   6.367   0.307
 6591SOL     OW23106   6.404   6.295   1.582
 6591SOL    HW123107   6.379   6.259   1.671
 6591SOL    HW223108   6.386   6.226   1.512
 6592SOL     OW23109   6.165   5.784   0.862
 6592SOL    HW123110   6.160   5.880   0.890
 6592SOL    HW223111   6.172   5.779   0.762
 6593SOL     OW23112   5.803   5.867   1.579
 6593SOL    HW123113   5.750   5.901   1.656
 6593SOL    HW223114   5.794   5.767   1.573
 6594SOL     OW23115   5.921   6.139   0.607
 6594SOL    HW123116   5.989   6.187   0.662
 6594SOL    HW223117   5.830   6.175   0.628
 6595SOL     OW23118   6.440   6.140   0.790
 6595SOL    HW123119   6.418   6.064   0.729
 6595SOL    HW223120   6.479   6.104   0.875
 6596SOL     OW23121   6.131   5.753   0.573
 6596SOL    HW123122   6.047   5.713   0.610
 6596SOL    HW223123   6.108   5.839   0.527
 6597SOL     OW23124   5.867   5.543   0.263
 6597SOL    HW123125   5.818   5.608   0.205
 6597SOL    HW223126   5.960   5.577   0.280
 6598SOL     OW23127   6.005   0.331   0.524
 6598SOL    HW123128   6.091   0.303   0.568
 6598SOL    HW223129   5.928   0.311   0.584
 6599SOL     OW23130   6.394   0.284   0.497
 6599SOL    HW123131   6.323   0.271   0.565
 6599SOL    HW223132   6.415   0.197   0.453
 6600SOL     OW23133   6.050   6.390   1.242
 6600SOL    HW123134   6.109   6.408   1.321
 6600SOL    HW223135   6.003   6.302   1.255
 6601SOL     OW23136   6.154   6.058   0.915
 6601SOL    HW123137   6.167   6.114   0.833
 6601SOL    HW223138   6.207   6.097   0.990
 6602SOL     OW23139   6.046   6.291   1.632
 6602SOL    HW123140   6.102   6.341   1.567
 6602SOL    HW223141   6.043   6.194   1.605
 6603SOL     OW23142   6.137   5.719   1.743
 6603SOL    HW123143   6.098   5.631   1.716
 6603SOL    HW223144   6.066   5.776   1.784
 6604SOL     OW23145   6.180   6.469   0.994
 6604SOL    HW123146   6.146   0.062   0.977
 6604SOL    HW223147   6.145   6.436   1.082
 6605SOL     OW23148   6.323   6.151   1.120
 6605SOL    HW123149   6.380   6.077   1.086
 6605SOL    HW223150   6.376   6.235   1.125
 6606SOL     OW23151   5.898   5.664   0.691
 6606SOL    HW123152   5.846   5.748   0.704
 6606SOL    HW223153   5.923   5.626   0.780
 6607SOL     OW23154   5.954   6.345   0.872
 6607SOL    HW123155   6.043   6.364   0.913
 6607SOL    HW223156   5.922   6.255   0.903
 6608SOL     OW23157   5.885   6.074   0.940
 6608SOL    HW123158   5.861   6.030   1.026
 6608SOL    HW223159   5.983   6.063   0.923
 6609SOL     OW23160   5.506   6.157   1.154
 6609SOL    HW123161   5.587   6.125   1.104
 6609SOL    HW223162   5.510   6.256   1.165
 6610SOL     OW23163   5.733   6.214   1.757
 6610SOL    HW123164   5.799   6.284   1.784
 6610SOL    HW223165   5.685   6.243   1.674
 6611SOL     OW23166   6.342   6.175   0.372
 6611SOL    HW123167   6.406   6.118   0.321
 6611SOL    HW223168   6.289   6.231   0.308
 6612SOL     OW23169   6.333   6.103   1.399
 6612SOL    HW123170   6.296   6.017   1.432
 6612SOL    HW223171   6.306   6.116   1.303
 6613SOL     OW23172   5.768   5.892   0.759
 6613SOL    HW123173   5.677   5.925   0.733
 6613SOL    HW223174   5.814   5.960   0.816
 6614SOL     OW23175   5.670   0.066   1.656
 6614SOL    HW123176   5.612   0.141   1.689
 6614SOL    HW223177   5.733   0.039   1.729
 6615SOL     OW23178   6.224   5.859   1.505
 6615SOL    HW123179   6.266   5.798   1.438
 6615SOL    HW223180   6.205   5.808   1.589
 6616SOL     OW23181   5.552   5.832   0.440
 6616SOL    HW123182   5.555   5.855   0.343
 6616SOL    HW223183   5.639   5.790   0.467
 6617SOL     OW23184   6.202   6.453   1.468
 6617SOL    HW123185   6.214   0.052   1.475
 6617SOL    HW223186   6.284   6.406   1.503
 6618SOL     OW23187   6.367   6.211   1.835
 6618SOL    HW123188   6.322   6.274   1.898
 6618SOL    HW223189   6.403   6.133   1.885
 6619SOL     OW23190   6.187   6.227   0.697
 6619SOL    HW123191   6.283   6.220   0.724
 6619SOL    HW223192   6.180   6.276   0.610
 6620SOL     OW23193   5.888   5.792   2.836
 6620SOL    HW123194   5.928   5.774   2.926
 6620SOL    HW223195   5.789   5.799   2.844
 6621SOL     OW23196   0.011   6.364   3.659
 6621SOL    HW123197   0.050   6.331   3.745
 6621SOL    HW223198   0.075   6.348   3.584
 6622SOL     OW23199   6.382   5.568   2.431
 6622SOL    HW123200   6.410   5.576   2.335
 6622SOL    HW223201   6.285   5.593   2.439
 6623SOL     OW23202   5.937   5.945   3.788
 6623SOL    HW123203   5.962   6.007   3.863
 6623SOL    HW223204   5.840   5.922   3.796
 6624SOL     OW23205   6.382   6.196   3.261
 6624SOL    HW123206   6.359   6.177   3.356
 6624SOL    HW223207   6.305   6.170   3.203
 6625SOL     OW23208   5.669   6.387   2.596
 6625SOL    HW123209   5.684   6.398   2.498
 6625SOL    HW223210   5.626   6.470   2.633
 6626SOL     OW23211   5.689   5.853   3.546
 6626SOL    HW123212   5.616   5.895   3.491
 6626SOL    HW223213   5.735   5.783   3.492
 6627SOL     OW23214   6.251   5.655   2.000
 6627SOL    HW123215   6.227   5.558   2.002
 6627SOL    HW223216   6.225   5.694   1.912
 6628SOL     OW23217   6.282   5.905   3.597
 6628SOL    HW123218   6.335   5.868   3.673
 6628SOL    HW223219   6.191   5.865   3.597
 6629SOL     OW23220   6.120   5.642   2.397
 6629SOL    HW123221   6.064   5.653   2.479
 6629SOL    HW223222   6.108   5.721   2.337
 6630SOL     OW23223   5.840   5.661   2.035
 6630SOL    HW123224   5.893   5.722   1.978
 6630SOL    HW223225   5.901   5.602   2.087
 6631SOL     OW23226   5.708   6.323   3.217
 6631SOL    HW123227   5.803   6.291   3.214
 6631SOL    HW223228   5.673   6.314   3.310
 6632SOL     OW23229   6.112   5.828   2.184
 6632SOL    HW123230   6.164   5.763   2.129
 6632SOL    HW223231   6.080   5.903   2.126
 6633SOL     OW23232   6.498   5.670   3.189
 6633SOL    HW123233   0.053   5.651   3.108
 6633SOL    HW223234   0.035   5.749   3.237
 6634SOL     OW23235   6.158   6.137   2.689
 6634SOL    HW123236   6.184   6.163   2.596
 6634SOL    HW223237   6.214   6.187   2.754
 6635SOL     OW23238   6.106   6.353   3.455
 6635SOL    HW123239   6.180   6.289   3.479
 6635SOL    HW223240   6.052   6.314   3.381
 6636SOL     OW23241   6.036   5.773   3.604
 6636SOL    HW123242   5.978   5.748   3.527
 6636SOL    HW223243   5.989   5.841   3.660
 6637SOL     OW23244   6.105   6.482   2.798
 6637SOL    HW123245   6.124   0.036   2.716
 6637SOL    HW223246   6.020   6.430   2.785
 6638SOL     OW23247   6.021   5.734   3.075
 6638SOL    HW123248   6.015   5.794   3.154
 6638SOL    HW223249   6.017   5.639   3.105
 6639SOL     OW23250   6.277   6.295   2.883
 6639SOL    HW123251   6.373   6.321   2.869
 6639SOL    HW223252   6.218   6.370   2.855
 6640SOL     OW23253   0.038   6.361   2.839
 6640SOL    HW123254   0.095   6.394   2.915
 6640SOL    HW223255   0.080   6.280   2.799
 6641SOL     OW23256   5.879   6.337   2.773
 6641SOL    HW123257   5.802   6.349   2.711
 6641SOL    HW223258   5.889   6.241   2.798
 6642SOL     OW23259   5.932   6.070   2.815
 6642SOL    HW123260   5.917   5.971   2.820
 6642SOL    HW223261   6.017   6.089   2.767
 6643SOL     OW23262   6.272   6.112   2.131
 6643SOL    HW123263   6.350   6.068   2.086
 6643SOL    HW223264   6.297   6.136   2.225
 6644SOL     OW23265   6.174   6.152   3.088
 6644SOL    HW123266   6.183   6.056   3.062
 6644SOL    HW223267   6.203   6.210   3.012
 6645SOL     OW23268   5.695   0.107   3.788
 6645SOL    HW123269   5.598   0.098   3.765
 6645SOL    HW223270   5.741   0.019   3.775
 6646SOL     OW23271   6.276   5.790   3.345
 6646SOL    HW123272   6.356   5.777   3.287
 6646SOL    HW223273   6.303   5.831   3.432
 6647SOL     OW23274   5.679   5.955   1.815
 6647SOL    HW123275   5.587   5.938   1.780
 6647SOL    HW223276   5.701   6.052   1.806
 6648SOL     OW23277   5.687   5.865   2.131
 6648SOL    HW123278   5.665   5.920   2.050
 6648SOL    HW223279   5.741   5.785   2.104
 6649SOL     OW23280   6.315   6.178   3.527
 6649SOL    HW123281   6.370   6.231   3.591
 6649SOL    HW223282   6.305   6.084   3.561
 6650SOL     OW23283   6.039   6.014   2.379
 6650SOL    HW123284   6.078   5.943   2.320
 6650SOL    HW223285   5.941   5.997   2.391
 6651SOL     OW23286   5.765   5.907   4.724
 6651SOL    HW123287   5.799   5.858   4.805
 6651SOL    HW223288   5.681   5.865   4.692
 6652SOL     OW23289   5.502   6.009   4.426
 6652SOL    HW123290   5.405   6.024   4.445
 6652SOL    HW223291   5.512   5.928   4.367
 6653SOL     OW23292   6.361   0.003   5.569
 6653SOL    HW123293   6.451   6.492   5.610
 6653SOL    HW223294   6.347   6.434   5.499
 6654SOL     OW23295   6.255   0.088   4.233
 6654SOL    HW123296   6.351   0.076   4.259
 6654SOL    HW223297   6.211   0.151   4.297
 6655SOL     OW23298   6.039   5.954   5.279
 6655SOL    HW123299   6.127   5.918   5.246
 6655SOL    HW223300   5.965   5.895   5.246
 6656SOL     OW23301   5.690   6.182   4.349
 6656SOL    HW123302   5.620   6.116   4.375
 6656SOL    HW223303   5.773   6.134   4.320
 6657SOL     OW23304   5.730   6.323   5.337
 6657SOL    HW123305   5.826   6.330   5.362
 6657SOL    HW223306   5.684   6.410   5.353
 6658SOL     OW23307   6.413   5.535   4.218
 6658SOL    HW123308   6.410   5.503   4.124
 6658SOL    HW223309   6.325   5.576   4.242
 6659SOL     OW23310   5.877   5.787   5.525
 6659SOL    HW123311   5.902   5.884   5.537
 6659SOL    HW223312   5.779   5.776   5.539
 6660SOL     OW23313   6.354   6.207   5.167
 6660SOL    HW123314   6.356   6.205   5.267
 6660SOL    HW223315   6.300   6.130   5.134
 6661SOL     OW23316   6.123   5.779   4.618
 6661SOL    HW123317   6.122   5.763   4.717
 6661SOL    HW223318   6.154   5.873   4.600
 6662SOL     OW23319   5.809   5.825   5.202
 6662SOL    HW123320   5.768   5.916   5.202
 6662SOL    HW223321   5.745   5.759   5.243
 6663SOL     OW23322   6.141   5.670   3.830
 6663SOL    HW123323   6.239   5.692   3.826
 6663SOL    HW223324   6.097   5.701   3.746
 6664SOL     OW23325   0.107   5.932   4.578
 6664SOL    HW123326   0.145   6.013   4.532
 6664SOL    HW223327   0.075   5.958   4.669
 6665SOL     OW23328   6.160   5.641   4.241
 6665SOL    HW123329   6.100   5.655   4.319
 6665SOL    HW223330   6.142   5.711   4.172
 6666SOL     OW23331   5.921   5.530   3.912
 6666SOL    HW123332   6.005   5.577   3.886
 6666SOL    HW223333   5.944   5.451   3.969
 6667SOL     OW23334   6.056   0.209   4.399
 6667SOL    HW123335   5.980   0.275   4.393
 6667SOL    HW223336   6.026   0.121   4.363
 6668SOL     OW23337   5.725   6.088   5.177
 6668SOL    HW123338   5.798   6.098   5.110
 6668SOL    HW223339   5.716   6.173   5.229
 6669SOL     OW23340   6.123   5.761   4.894
 6669SOL    HW123341   6.155   5.681   4.944
 6669SOL    HW223342   6.025   5.773   4.908
 6670SOL     OW23343   6.100   5.824   4.052
 6670SOL    HW123344   6.110   5.772   3.967
 6670SOL    HW223345   6.052   5.909   4.034
 6671SOL     OW23346   6.495   5.636   5.052
 6671SOL    HW123347   0.019   5.582   4.971
 6671SOL    HW223348   0.045   5.722   5.050
 6672SOL     OW23349   6.189   6.045   4.590
 6672SOL    HW123350   6.201   6.113   4.517
 6672SOL    HW223351   6.243   6.073   4.669
 6673SOL     OW23352   6.094   5.662   5.423
 6673SOL    HW123353   6.073   5.578   5.373
 6673SOL    HW223354   6.009   5.705   5.454
 6674SOL     OW23355   6.206   6.364   4.632
 6674SOL    HW123356   6.200   6.464   4.632
 6674SOL    HW223357   6.117   6.325   4.652
 6675SOL     OW23358   5.856   5.767   4.943
 6675SOL    HW123359   5.845   5.791   5.039
 6675SOL    HW223360   5.814   5.677   4.926
 6676SOL     OW23361   6.333   6.146   4.799
 6676SOL    HW123362   6.430   6.124   4.805
 6676SOL    HW223363   6.321   6.245   4.785
 6677SOL     OW23364   5.955   6.100   4.733
 6677SOL    HW123365   5.879   6.037   4.719
 6677SOL    HW223366   6.032   6.074   4.675
 6678SOL     OW23367   5.913   6.081   5.481
 6678SOL    HW123368   5.967   6.036   5.409
 6678SOL    HW223369   5.816   6.071   5.460
 6679SOL     OW23370   6.420   6.095   3.813
 6679SOL    HW123371   6.485   6.160   3.852
 6679SOL    HW223372   6.331   6.104   3.859
 6680SOL     OW23373   6.210   6.018   5.012
 6680SOL    HW123374   6.196   5.922   4.988
 6680SOL    HW223375   6.251   6.067   4.935
 6681SOL     OW23376   5.989   6.085   4.025
 6681SOL    HW123377   6.083   6.120   4.017
 6681SOL    HW223378   5.924   6.159   4.009
 6682SOL     OW23379   6.400   5.747   3.796
 6682SOL    HW123380   6.441   5.666   3.753
 6682SOL    HW223381   6.461   5.781   3.868
 6683SOL     OW23382   5.676   0.087   5.449
 6683SOL    HW123383   5.580   0.085   5.477
 6683SOL    HW223384   5.734   0.098   5.530
 6684SOL     OW23385   6.259   5.780   5.239
 6684SOL    HW123386   6.356   5.769   5.259
 6684SOL    HW223387   6.204   5.742   5.314
 6685SOL     OW23388   5.674   5.886   3.812
 6685SOL    HW123389   5.673   5.869   3.713
 6685SOL    HW223390   5.617   5.966   3.832
 6686SOL     OW23391   5.690   5.666   3.974
 6686SOL    HW123392   5.677   5.748   3.919
 6686SOL    HW223393   5.774   5.619   3.946
 6687SOL     OW23394   6.375   6.239   5.439
 6687SOL    HW123395   6.325   6.202   5.517
 6687SOL    HW223396   6.473   6.229   5.455
 6688SOL     OW23397   5.946   6.120   5.003
 6688SOL    HW123398   6.033   6.086   5.040
 6688SOL    HW223399   5.946   6.109   4.904
 6689SOL     OW23400   5.817   6.058   5.746
 6689SOL    HW123401   5.724   6.094   5.753
 6689SOL    HW223402   5.856   6.085   5.658
 6690SOL     OW23403   5.700   6.310   6.259
 6690SOL    HW123404   5.687   6.227   6.312
 6690SOL    HW223405   5.698   6.390   6.320
 6691SOL     OW23406   6.301   5.496   6.131
 6691SOL    HW123407   6.355   5.496   6.047
 6691SOL    HW223408   6.222   5.557   6.121
 6692SOL     OW23409   5.717   0.006   6.448
 6692SOL    HW123410   5.742   6.434   0.013
 6692SOL    HW223411   5.771   0.088   6.466
 6693SOL     OW23412   6.167   5.881   6.446
 6693SOL    HW123413   6.180   5.972   6.483
 6693SOL    HW223414   6.161   5.886   6.346
 6694SOL     OW23415   5.946   6.369   6.153
 6694SOL    HW123416   5.941   6.376   6.053
 6694SOL    HW223417   5.857   6.342   6.190
 6695SOL     OW23418   6.083   5.662   6.088
 6695SOL    HW123419   5.994   5.643   6.129
 6695SOL    HW223420   6.073   5.671   5.989
 6696SOL     OW23421   5.757   5.699   5.804
 6696SOL    HW123422   5.852   5.716   5.777
 6696SOL    HW223423   5.752   5.620   5.864
 6697SOL     OW23424   6.229   0.221   6.224
 6697SOL    HW123425   6.156   0.177   6.276
 6697SOL    HW223426   6.202   0.314   6.199
 6698SOL     OW23427   6.043   5.711   5.825
 6698SOL    HW123428   6.107   5.730   5.751
 6698SOL    HW223429   6.012   5.797   5.865
 6699SOL     OW23430   6.165   6.150   0.017
 6699SOL    HW123431   6.175   6.195   6.428
 6699SOL    HW223432   6.181   6.216   0.090
 6700SOL     OW23433   5.835   5.637   6.208
 6700SOL    HW123434   5.756   5.698   6.205
 6700SOL    HW223435   5.883   5.648   6.295
 6701SOL     OW23436   5.617   5.898   5.954
 6701SOL    HW123437   5.598   5.983   5.904
 6701SOL    HW223438   5.686   5.845   5.904
 6702SOL     OW23439   6.181   6.292   6.285
 6702SOL    HW123440   6.252   6.356   6.255
 6702SOL    HW223441   6.095   6.314   6.239
 6703CL      CL23442   0.728   1.461   2.257
   6.50000   6.50000   6.50000
