;----------------------------TITLE -----------------------------------------------------------------------------------------
;   Aspirin
[ moleculetype ]
; Name   nrexcl
LZXY     3
[ atoms ]
;  nr  type  resnr  resid  atom  cgnr  charge    mass
    1  HS14    1    LZXY    H0K    1    0.457   1.0080
    2    OA    1    LZXY    O0A    2   -0.644  15.9994
    3  CAro    1    LZXY    C09    3    0.820  12.0110
    4  OOpt    1    LZXY    O0B    4   -0.585  15.9994
    5  CAro    1    LZXY    C08    5   -0.338  12.0110
    6  CAro    1    LZXY    C03    6    0.429  12.0110
    7  OOpt    1    LZXY    O02    7   -0.466  15.9994
    8  COpt    1    LZXY    C01    8    0.837  12.0110
    9  OCbl    1    LZXY    O0C    9   -0.570  15.9994
   10  C_H3    1    LZXY    C00   10   -0.637  12.0110
   11  HCH3    1    LZXY    H0D   11    0.203   1.0080
   12  HCH3    1    LZXY    H0E   12    0.203   1.0080
   13  HCH3    1    LZXY    H0F   13    0.203   1.0080
   14  CAro    1    LZXY    C04   14   -0.309  12.0110
   15  HCAr    1    LZXY    H0G   15    0.216   1.0080
   16  CAro    1    LZXY    C05   16   -0.055  12.0110
   17  HCAr    1    LZXY    H0H   17    0.156   1.0080
   18  CAro    1    LZXY    C06   18   -0.185  12.0110
   19  HCAr    1    LZXY    H0I   19    0.164   1.0080
   20  CAro    1    LZXY    C07   20   -0.041  12.0110
   21  HCAr    1    LZXY    H0J   21    0.142   1.0080
; total charge of the molecule:   0.000
[ bonds ]
;  ai   aj  funct   c0         c1
    1    2    2   0.0972   1.9581e+07
    2    3    2   0.1340   1.0500e+07
    3    4    2   0.1210   1.9807e+07
    3    5    2   0.1500   3.5556e+06
    5    6    2   0.1390   8.6600e+06
    5   20    2   0.1390   8.6600e+06
    6    7    2   0.1400   8.5400e+06
    6   14    2   0.1390   8.6600e+06
    7    8    2   0.1390   8.6600e+06
    8    9    2   0.1210   1.9807e+07
    8   10    2   0.1500   8.3700e+06
   10   11    2   0.1090   1.2300e+07
   10   12    2   0.1090   1.2300e+07
   10   13    2   0.1090   1.2300e+07
   14   15    2   0.1090   1.2300e+07
   14   16    2   0.1390   8.6600e+06
   16   17    2   0.1090   1.2300e+07
   16   18    2   0.1390   8.6600e+06
   18   19    2   0.1090   1.2300e+07
   18   20    2   0.1390   8.6600e+06
   20   21    2   0.1090   1.2300e+07
[ pairs ]
;  ai   aj  funct  ;  all 1-4 pairs but the ones excluded in GROMOS itp
    1    4    1
    1    5    1
    2    6    1
    2   20    1
    3    7    1
    3   14    1
    3   18    1
    3   21    1
    4    6    1
    4   20    1
    5    8    1
    5   15    1
    5   19    1
    6    9    1
    6   10    1
    6   17    1
    6   21    1
    7   11    1
    7   12    1
    7   13    1
    7   15    1
    7   16    1
    7   20    1
    8   14    1
    9   11    1
    9   12    1
    9   13    1
   14   19    1
   15   18    1
   16   21    1
   17   20    1
[ angles ]
;  ai   aj   ak  funct   angle     fc
    1    2    3    2    109.50   450.00
    2    3    4    2    120.00   780.00
    2    3    5    2    117.00   635.00
    4    3    5    2    121.00   685.00
    3    5    6    2    126.00   640.00
    3    5   20    2    119.00  2211.40
    6    5   20    2    120.00   560.00
    5    6    7    2    120.00   560.00
    5    6   14    2    120.00   560.00
    7    6   14    2    120.00   560.00
    6    7    8    2    119.00  2211.40
    7    8    9    2    124.00   730.00
    7    8   10    2    111.00   530.00
    9    8   10    2    126.00   640.00
    8   10   11    2    109.50   448.00
    8   10   12    2    109.50   448.00
    8   10   13    2    109.50   448.00
   11   10   12    2    107.60   507.00
   11   10   13    2    107.60   507.00
   12   10   13    2    107.60   507.00
    6   14   15    2    120.00   505.00
    6   14   16    2    120.00   560.00
   15   14   16    2    120.00   505.00
   14   16   17    2    120.00   505.00
   14   16   18    2    120.00   560.00
   17   16   18    2    120.00   505.00
   16   18   19    2    120.00   505.00
   16   18   20    2    120.00   560.00
   19   18   20    2    120.00   505.00
    5   20   18    2    120.00   560.00
    5   20   21    2    120.00   505.00
   18   20   21    2    120.00   505.00
[ dihedrals ]
; GROMOS improper dihedrals
;  ai   aj   ak   al  funct   angle     fc
    8    7    9   10    2      0.00   167.36
    6    5    7   14    2      0.00   167.36
   14    6   15   16    2      0.00   167.36
   16   14   17   18    2      0.00   167.36
   18   16   19   20    2      0.00   167.36
   20    5   18   21    2      0.00   167.36
    5    3    6   20    2      0.00   167.36
    3    2    4    5    2      0.00   167.36
[ dihedrals ]
;  ai   aj   ak   al  funct    ph0      cp     mult
   16   14    6    5    1    180.00    50.00    1
   12   10    8    7    1      0.00     0.30    3
    5   20   18   16    1    180.00    50.00    1
   18   16   14    6    1    180.00    50.00    1
   14   16   18   20    1    180.00    50.00    1
    6    5   20   18    1    180.00    50.00    1
    8    7    6    5    1      0.00     6.40    1
    1    2    3    4    1    180.00    26.40    2
    6    5    3    4    1    180.00    24.00    2
    6    7    8   10    1    180.00    24.00    2
    6    7    8   10    1    180.00     7.11    2
   20    5    6   14    1    180.00    50.00    1
[ exclusions ]
;  ai   aj  funct  ;  GROMOS 1-4 exclusions
    5   16
    6   18
   14   20
   15   17
   17   19
   19   21
