DPPC in SPCE
14615
    1DPPC    C1    1   2.147   2.405   1.964
    1DPPC    C2    2   2.374   2.479   1.956
    1DPPC    C3    3   2.327   2.254   2.016
    1DPPC    N4    4   2.285   2.365   1.929
    1DPPC    C5    5   2.294   2.333   1.785
    1DPPC    C6    6   2.245   2.197   1.731
    1DPPC   OS7    7   2.114   2.158   1.774
    1DPPC    P8    8   2.061   2.028   1.706
    1DPPC   OM9    9   1.923   2.003   1.746
    1DPPC  OM10   10   2.095   2.034   1.563
    1DPPC  OS11   11   2.153   1.919   1.771
    1DPPC   C12   12   2.118   1.899   1.909
    1DPPC   C13   13   2.209   1.800   1.983
    1DPPC  OS14   14   2.184   1.802   2.125
    1DPPC   C15   15   2.157   1.682   2.183
    1DPPC   O16   16   2.088   1.597   2.127
    1DPPC   C17   17   2.194   1.684   2.330
    1DPPC   C18   18   2.324   1.605   2.348
    1DPPC   C19   19   2.390   1.635   2.483
    1DPPC   C20   20   2.451   1.775   2.483
    1DPPC   C21   21   2.506   1.811   2.621
    1DPPC   C22   22   2.618   1.716   2.663
    1DPPC   C23   23   2.678   1.759   2.797
    1DPPC   C24   24   2.577   1.748   2.911
    1DPPC   C25   25   2.644   1.781   3.045
    1DPPC   C26   26   2.551   1.756   3.164
    1DPPC   C27   27   2.631   1.760   3.294
    1DPPC   C28   28   2.544   1.730   3.416
    1DPPC   C29   29   2.629   1.708   3.540
    1DPPC   C30   30   2.711   1.580   3.527
    1DPPC   C31   31   2.798   1.555   3.650
    1DPPC   C32   32   2.353   1.842   1.948
    1DPPC  OS33   33   2.457   1.753   1.993
    1DPPC   C34   34   2.525   1.682   1.899
    1DPPC   O35   35   2.492   1.671   1.780
    1DPPC   C36   36   2.636   1.605   1.969
    1DPPC   C37   37   2.688   1.685   2.088
    1DPPC   C38   38   2.792   1.607   2.167
    1DPPC   C39   39   2.847   1.688   2.285
    1DPPC   C40   40   2.953   1.607   2.361
    1DPPC   C41   41   3.017   1.690   2.472
    1DPPC   C42   42   3.127   1.609   2.542
    1DPPC   C43   43   3.070   1.500   2.632
    1DPPC   C44   44   3.181   1.403   2.673
    1DPPC   C45   45   3.294   1.474   2.747
    1DPPC   C46   46   3.411   1.379   2.772
    1DPPC   C47   47   3.379   1.277   2.881
    1DPPC   C48   48   3.383   1.343   3.019
    1DPPC   C49   49   3.356   1.240   3.130
    1DPPC   C50   50   3.364   1.305   3.268
    2DPPC    C1   51   4.285   3.330   2.017
    2DPPC    C2   52   4.459   3.245   1.876
    2DPPC    C3   53   4.298   3.395   1.789
    2DPPC    N4   54   4.317   3.283   1.881
    2DPPC    C5   55   4.229   3.173   1.836
    2DPPC    C6   56   4.218   3.043   1.919
    2DPPC   OS7   57   4.135   2.943   1.857
    2DPPC    P8   58   4.123   2.816   1.950
    2DPPC   OM9   59   4.044   2.716   1.880
    2DPPC  OM10   60   4.256   2.788   2.002
    2DPPC  OS11   61   4.033   2.874   2.064
    2DPPC   C12   62   4.063   2.810   2.188
    2DPPC   C13   63   3.995   2.873   2.310
    2DPPC  OS14   64   4.039   2.814   2.436
    2DPPC   C15   65   4.158   2.854   2.488
    2DPPC   O16   66   4.248   2.905   2.420
    2DPPC   C17   67   4.181   2.795   2.626
    2DPPC   C18   68   4.221   2.905   2.725
    2DPPC   C19   69   4.284   2.847   2.851
    2DPPC   C20   70   4.315   2.958   2.951
    2DPPC   C21   71   4.403   2.907   3.065
    2DPPC   C22   72   4.428   3.018   3.168
    2DPPC   C23   73   4.307   3.037   3.259
    2DPPC   C24   74   4.326   3.154   3.355
    2DPPC   C25   75   4.219   3.150   3.464
    2DPPC   C26   76   4.225   3.272   3.557
    2DPPC   C27   77   4.159   3.394   3.491
    2DPPC   C28   78   4.148   3.509   3.591
    2DPPC   C29   79   4.058   3.619   3.535
    2DPPC   C30   80   4.031   3.729   3.639
    2DPPC   C31   81   3.926   3.828   3.588
    2DPPC   C32   82   3.845   2.857   2.279
    2DPPC  OS33   83   3.750   2.934   2.355
    2DPPC   C34   84   3.622   2.890   2.346
    2DPPC   O35   85   3.590   2.781   2.298
    2DPPC   C36   86   3.527   2.983   2.419
    2DPPC   C37   87   3.479   2.921   2.551
    2DPPC   C38   88   3.589   2.929   2.658
    2DPPC   C39   89   3.602   3.071   2.713
    2DPPC   C40   90   3.482   3.103   2.803
    2DPPC   C41   91   3.489   3.246   2.856
    2DPPC   C42   92   3.374   3.271   2.954
    2DPPC   C43   93   3.376   3.414   3.008
    2DPPC   C44   94   3.263   3.430   3.111
    2DPPC   C45   95   3.256   3.573   3.164
    2DPPC   C46   96   3.142   3.583   3.266
    2DPPC   C47   97   3.124   3.727   3.315
    2DPPC   C48   98   3.244   3.773   3.397
    2DPPC   C49   99   3.221   3.916   3.447
    2DPPC   C50  100   3.103   3.919   3.543
    3DPPC    C1  101   5.261   5.447   1.784
    3DPPC    C2  102   5.174   5.577   1.605
    3DPPC    C3  103   5.119   0.028   1.829
    3DPPC    N4  104   5.143   5.522   1.737
    3DPPC    C5  105   5.025   5.434   1.726
    3DPPC    C6  106   4.981   5.356   1.852
    3DPPC   OS7  107   4.857   5.285   1.842
    3DPPC    P8  108   4.838   5.201   1.974
    3DPPC   OM9  109   4.902   5.074   1.940
    3DPPC  OM10  110   4.879   5.284   2.088
    3DPPC  OS11  111   4.683   5.182   1.971
    3DPPC   C12  112   4.649   5.078   2.062
    3DPPC   C13  113   4.498   5.059   2.084
    3DPPC  OS14  114   4.442   5.154   2.179
    3DPPC   C15  115   4.309   5.184   2.168
    3DPPC   O16  116   4.252   5.184   2.059
    3DPPC   C17  117   4.265   5.267   2.287
    3DPPC   C18  118   4.114   5.291   2.282
    3DPPC   C19  119   4.070   5.371   2.404
    3DPPC   C20  120   4.111   5.518   2.396
    3DPPC   C21  121   4.080   5.588   2.528
    3DPPC   C22  122   4.091   0.133   2.518
    3DPPC   C23  123   4.067   0.195   2.655
    3DPPC   C24  124   4.064   0.348   2.650
    3DPPC   C25  125   4.058   0.403   2.793
    3DPPC   C26  126   4.053   0.555   2.798
    3DPPC   C27  127   4.074   0.602   2.942
    3DPPC   C28  128   4.063   0.754   2.955
    3DPPC   C29  129   4.105   0.798   3.095
    3DPPC   C30  130   4.011   0.741   3.202
    3DPPC   C31  131   4.059   0.780   3.342
    3DPPC   C32  132   4.481   4.911   2.125
    3DPPC  OS33  133   4.554   4.874   2.244
    3DPPC   C34  134   4.535   4.747   2.289
    3DPPC   O35  135   4.470   4.661   2.229
    3DPPC   C36  136   4.600   4.728   2.425
    3DPPC   C37  137   4.554   4.841   2.517
    3DPPC   C38  138   4.406   4.827   2.551
    3DPPC   C39  139   4.350   4.957   2.608
    3DPPC   C40  140   4.201   4.946   2.640
    3DPPC   C41  141   4.145   5.084   2.673
    3DPPC   C42  142   4.206   5.140   2.801
    3DPPC   C43  143   4.170   5.288   2.817
    3DPPC   C44  144   4.224   5.346   2.947
    3DPPC   C45  145   4.202   5.498   2.950
    3DPPC   C46  146   4.237   5.557   3.087
    3DPPC   C47  147   4.385   5.541   3.120
    3DPPC   C48  148   4.417   5.607   3.254
    3DPPC   C49  149   4.563   5.585   3.294
    3DPPC   C50  150   4.592   0.042   3.429
    4DPPC    C1  151   0.360   4.679   2.156
    4DPPC    C2  152   0.403   4.512   2.323
    4DPPC    C3  153   0.294   4.713   2.382
    4DPPC    N4  154   0.399   4.656   2.296
    4DPPC    C5  155   0.528   4.722   2.328
    4DPPC    C6  156   0.659   4.670   2.264
    4DPPC   OS7  157   0.769   4.759   2.283
    4DPPC    P8  158   0.908   4.684   2.298
    4DPPC   OM9  159   0.902   4.560   2.220
    4DPPC  OM10  160   1.013   4.784   2.275
    4DPPC  OS11  161   0.893   4.655   2.451
    4DPPC   C12  162   0.922   4.770   2.531
    4DPPC   C13  163   0.877   4.755   2.678
    4DPPC  OS14  164   0.876   4.879   2.752
    4DPPC   C15  165   0.760   4.951   2.754
    4DPPC   O16  166   0.670   4.934   2.672
    4DPPC   C17  167   0.775   5.073   2.844
    4DPPC   C18  168   0.654   5.093   2.935
    4DPPC   C19  169   0.673   5.218   3.021
    4DPPC   C20  170   0.564   5.233   3.127
    4DPPC   C21  171   0.588   5.361   3.208
    4DPPC   C22  172   0.498   5.370   3.331
    4DPPC   C23  173   0.350   5.384   3.294
    4DPPC   C24  174   0.267   5.406   3.421
    4DPPC   C25  175   0.117   5.413   3.389
    4DPPC   C26  176   0.037   5.441   3.516
    4DPPC   C27  177   0.050   5.326   3.616
    4DPPC   C28  178   5.661   5.356   3.746
    4DPPC   C29  179   5.685   5.247   3.850
    4DPPC   C30  180   5.617   5.282   3.982
    4DPPC   C31  181   5.646   5.177   4.089
    4DPPC   C32  182   0.962   4.640   2.737
    4DPPC  OS33  183   1.105   4.660   2.736
    4DPPC   C34  184   1.183   4.551   2.715
    4DPPC   O35  185   1.144   4.445   2.665
    4DPPC   C36  186   1.329   4.589   2.736
    4DPPC   C37  187   1.425   4.494   2.664
    4DPPC   C38  188   1.569   4.527   2.702
    4DPPC   C39  189   1.593   4.496   2.850
    4DPPC   C40  190   1.736   4.530   2.893
    4DPPC   C41  191   1.763   4.481   3.035
    4DPPC   C42  192   1.680   4.558   3.138
    4DPPC   C43  193   1.706   4.504   3.279
    4DPPC   C44  194   1.637   4.588   3.385
    4DPPC   C45  195   1.669   4.536   3.525
    4DPPC   C46  196   1.621   4.632   3.634
    4DPPC   C47  197   1.661   4.581   3.773
    4DPPC   C48  198   1.632   4.686   3.881
    4DPPC   C49  199   1.482   4.709   3.897
    4DPPC   C50  200   1.453   4.815   4.003
    5DPPC    C1  201   2.039   4.056   1.371
    5DPPC    C2  202   2.010   3.893   1.540
    5DPPC    C3  203   1.833   4.044   1.489
    5DPPC    N4  204   1.979   4.031   1.503
    5DPPC    C5  205   2.025   4.130   1.604
    5DPPC    C6  206   2.174   4.138   1.642
    5DPPC   OS7  207   2.224   4.030   1.721
    5DPPC    P8  208   2.381   4.023   1.712
    5DPPC   OM9  209   2.402   3.947   1.588
    5DPPC  OM10  210   2.432   4.159   1.730
    5DPPC  OS11  211   2.408   3.929   1.834
    5DPPC   C12  212   2.396   4.001   1.956
    5DPPC   C13  213   2.350   3.911   2.072
    5DPPC  OS14  214   2.287   3.988   2.177
    5DPPC   C15  215   2.154   3.964   2.195
    5DPPC   O16  216   2.087   3.898   2.115
    5DPPC   C17  217   2.099   4.049   2.307
    5DPPC   C18  218   1.993   3.974   2.388
    5DPPC   C19  219   2.057   3.866   2.476
    5DPPC   C20  220   1.954   3.812   2.574
    5DPPC   C21  221   1.911   3.926   2.666
    5DPPC   C22  222   1.798   3.886   2.761
    5DPPC   C23  223   1.750   4.010   2.837
    5DPPC   C24  224   1.626   3.980   2.921
    5DPPC   C25  225   1.567   4.113   2.969
    5DPPC   C26  226   1.432   4.094   3.039
    5DPPC   C27  227   1.366   4.231   3.056
    5DPPC   C28  228   1.228   4.222   3.121
    5DPPC   C29  229   1.161   4.359   3.118
    5DPPC   C30  230   1.026   4.356   3.189
    5DPPC   C31  231   1.045   4.339   3.340
    5DPPC   C32  232   2.471   3.823   2.110
    5DPPC  OS33  233   2.441   3.711   2.197
    5DPPC   C34  234   2.375   3.605   2.144
    5DPPC   O35  235   2.356   3.587   2.023
    5DPPC   C36  236   2.346   3.501   2.251
    5DPPC   C37  237   2.292   3.565   2.379
    5DPPC   C38  238   2.278   3.461   2.490
    5DPPC   C39  239   2.169   3.359   2.458
    5DPPC   C40  240   2.165   3.248   2.563
    5DPPC   C41  241   2.118   3.302   2.699
    5DPPC   C42  242   2.110   3.189   2.802
    5DPPC   C43  243   2.064   3.241   2.938
    5DPPC   C44  244   2.047   3.127   3.039
    5DPPC   C45  245   2.007   3.180   3.176
    5DPPC   C46  246   2.121   3.263   3.237
    5DPPC   C47  247   2.087   3.313   3.377
    5DPPC   C48  248   2.202   3.396   3.434
    5DPPC   C49  249   2.171   3.444   3.576
    5DPPC   C50  250   2.286   3.529   3.633
    6DPPC    C1  251   0.908   1.832   1.866
    6DPPC    C2  252   1.024   2.018   1.960
    6DPPC    C3  253   0.813   2.046   1.849
    6DPPC    N4  254   0.941   1.974   1.847
    6DPPC    C5  255   1.002   1.995   1.714
    6DPPC    C6  256   1.152   1.964   1.687
    6DPPC   OS7  257   1.238   2.073   1.721
    6DPPC    P8  258   1.388   2.031   1.730
    6DPPC   OM9  259   1.473   2.151   1.729
    6DPPC  OM10  260   1.418   1.916   1.643
    6DPPC  OS11  261   1.380   1.981   1.877
    6DPPC   C12  262   1.499   1.912   1.915
    6DPPC   C13  263   1.501   1.867   2.062
    6DPPC  OS14  264   1.421   1.748   2.089
    6DPPC   C15  265   1.493   1.635   2.115
    6DPPC   O16  266   1.597   1.606   2.054
    6DPPC   C17  267   1.405   1.534   2.187
    6DPPC   C18  268   1.387   1.581   2.331
    6DPPC   C19  269   1.519   1.564   2.408
    6DPPC   C20  270   1.520   1.654   2.532
    6DPPC   C21  271   1.646   1.634   2.615
    6DPPC   C22  272   1.638   1.504   2.696
    6DPPC   C23  273   1.755   1.497   2.795
    6DPPC   C24  274   1.737   1.383   2.894
    6DPPC   C25  275   1.843   1.391   3.004
    6DPPC   C26  276   1.828   1.275   3.103
    6DPPC   C27  277   1.935   1.283   3.211
    6DPPC   C28  278   1.934   1.158   3.299
    6DPPC   C29  279   2.045   1.165   3.404
    6DPPC   C30  280   2.053   1.034   3.483
    6DPPC   C31  281   2.101   0.919   3.394
    6DPPC   C32  282   1.467   1.993   2.143
    6DPPC  OS33  283   1.445   1.976   2.284
    6DPPC   C34  284   1.325   2.025   2.328
    6DPPC   O35  285   1.253   2.098   2.260
    6DPPC   C36  286   1.301   1.985   2.473
    6DPPC   C37  287   1.173   2.047   2.528
    6DPPC   C38  288   1.195   2.189   2.581
    6DPPC   C39  289   1.167   2.192   2.731
    6DPPC   C40  290   1.199   2.328   2.793
    6DPPC   C41  291   1.170   2.324   2.943
    6DPPC   C42  292   1.221   2.447   3.018
    6DPPC   C43  293   1.373   2.445   3.034
    6DPPC   C44  294   1.417   2.323   3.114
    6DPPC   C45  295   1.568   2.322   3.138
    6DPPC   C46  296   1.607   2.398   3.264
    6DPPC   C47  297   1.563   2.319   3.388
    6DPPC   C48  298   1.606   2.388   3.517
    6DPPC   C49  299   1.569   2.303   3.638
    6DPPC   C50  300   1.617   2.367   3.768
    7DPPC    C1  301   4.291   5.483   1.885
    7DPPC    C2  302   4.501   5.440   1.994
    7DPPC    C3  303   4.431   5.310   1.808
    7DPPC    N4  304   4.431   5.446   1.864
    7DPPC    C5  305   4.501   5.536   1.769
    7DPPC    C6  306   4.527   0.078   1.802
    7DPPC   OS7  307   4.612   0.100   1.914
    7DPPC    P8  308   4.666   0.246   1.921
    7DPPC   OM9  309   4.789   0.249   1.840
    7DPPC  OM10  310   4.560   0.344   1.892
    7DPPC  OS11  311   4.708   0.259   2.071
    7DPPC   C12  312   4.820   0.177   2.103
    7DPPC   C13  313   4.874   0.204   2.244
    7DPPC  OS14  314   5.010   0.155   2.266
    7DPPC   C15  315   5.107   0.251   2.271
    7DPPC   O16  316   5.090   0.365   2.228
    7DPPC   C17  317   5.240   0.190   2.313
    7DPPC   C18  318   5.346   0.294   2.346
    7DPPC   C19  319   5.315   0.369   2.476
    7DPPC   C20  320   5.431   0.462   2.513
    7DPPC   C21  321   5.393   0.552   2.630
    7DPPC   C22  322   5.513   0.635   2.676
    7DPPC   C23  323   5.472   0.737   2.782
    7DPPC   C24  324   5.594   0.812   2.836
    7DPPC   C25  325   5.550   0.923   2.932
    7DPPC   C26  326   5.669   0.989   3.001
    7DPPC   C27  327   5.622   1.109   3.085
    7DPPC   C28  328   5.528   1.065   3.197
    7DPPC   C29  329   5.602   0.997   3.312
    7DPPC   C30  330   5.501   0.944   3.414
    7DPPC   C31  331   5.421   1.059   3.476
    7DPPC   C32  332   4.768   0.152   2.342
    7DPPC  OS33  333   4.748   0.010   2.342
    7DPPC   C34  334   4.648   5.573   2.423
    7DPPC   O35  335   4.560   0.040   2.468
    7DPPC   C36  336   4.651   5.423   2.440
    7DPPC   C37  337   4.608   5.388   2.583
    7DPPC   C38  338   4.648   5.247   2.623
    7DPPC   C39  339   4.620   5.225   2.771
    7DPPC   C40  340   4.665   5.086   2.817
    7DPPC   C41  341   4.635   5.066   2.966
    7DPPC   C42  342   4.724   5.155   3.053
    7DPPC   C43  343   4.685   5.142   3.200
    7DPPC   C44  344   4.777   5.224   3.290
    7DPPC   C45  345   4.729   5.217   3.435
    7DPPC   C46  346   4.823   5.293   3.529
    7DPPC   C47  347   4.955   5.218   3.545
    7DPPC   C48  348   5.045   5.289   3.646
    7DPPC   C49  349   5.175   5.212   3.669
    7DPPC   C50  350   5.261   5.281   3.775
    8DPPC    C1  351   4.647   2.143   1.696
    8DPPC    C2  352   4.661   2.109   1.461
    8DPPC    C3  353   4.655   2.330   1.544
    8DPPC    N4  354   4.603   2.194   1.565
    8DPPC    C5  355   4.455   2.191   1.554
    8DPPC    C6  356   4.374   2.284   1.647
    8DPPC   OS7  357   4.232   2.285   1.629
    8DPPC    P8  358   4.166   2.401   1.713
    8DPPC   OM9  359   4.264   2.509   1.730
    8DPPC  OM10  360   4.031   2.424   1.662
    8DPPC  OS11  361   4.156   2.318   1.846
    8DPPC   C12  362   4.127   2.407   1.953
    8DPPC   C13  363   4.126   2.340   2.091
    8DPPC  OS14  364   4.070   2.425   2.194
    8DPPC   C15  365   3.946   2.389   2.239
    8DPPC   O16  366   3.869   2.321   2.171
    8DPPC   C17  367   3.906   2.472   2.360
    8DPPC   C18  368   3.782   2.414   2.428
    8DPPC   C19  369   3.734   2.508   2.539
    8DPPC   C20  370   3.834   2.516   2.654
    8DPPC   C21  371   3.784   2.615   2.759
    8DPPC   C22  372   3.882   2.632   2.876
    8DPPC   C23  373   3.834   2.746   2.966
    8DPPC   C24  374   3.927   2.770   3.085
    8DPPC   C25  375   3.881   2.894   3.162
    8DPPC   C26  376   3.906   3.021   3.080
    8DPPC   C27  377   3.843   3.143   3.146
    8DPPC   C28  378   3.872   3.270   3.065
    8DPPC   C29  379   3.787   3.388   3.114
    8DPPC   C30  380   3.823   3.428   3.257
    8DPPC   C31  381   3.736   3.545   3.304
    8DPPC   C32  382   4.270   2.288   2.116
    8DPPC  OS33  383   4.291   2.231   2.246
    8DPPC   C34  384   4.346   2.315   2.338
    8DPPC   O35  385   4.422   2.407   2.309
    8DPPC   C36  386   4.331   2.258   2.478
    8DPPC   C37  387   4.376   2.360   2.583
    8DPPC   C38  388   4.330   2.316   2.722
    8DPPC   C39  389   4.378   2.415   2.828
    8DPPC   C40  390   4.316   2.383   2.964
    8DPPC   C41  391   4.370   2.477   3.072
    8DPPC   C42  392   4.296   2.455   3.204
    8DPPC   C43  393   4.356   2.542   3.315
    8DPPC   C44  394   4.274   2.527   3.443
    8DPPC   C45  395   4.337   2.604   3.560
    8DPPC   C46  396   4.246   2.595   3.682
    8DPPC   C47  397   4.307   2.663   3.805
    8DPPC   C48  398   4.422   2.581   3.863
    8DPPC   C49  399   4.475   2.647   3.990
    8DPPC   C50  400   4.586   2.564   4.053
    9DPPC    C1  401   3.480   1.257   1.805
    9DPPC    C2  402   3.479   1.379   2.009
    9DPPC    C3  403   3.331   1.442   1.835
    9DPPC    N4  404   3.394   1.327   1.901
    9DPPC    C5  405   3.295   1.237   1.965
    9DPPC    C6  406   3.189   1.161   1.880
    9DPPC   OS7  407   3.087   1.237   1.814
    9DPPC    P8  408   2.972   1.300   1.902
    9DPPC   OM9  409   3.026   1.428   1.950
    9DPPC  OM10  410   2.845   1.292   1.828
    9DPPC  OS11  411   2.959   1.199   2.022
    9DPPC   C12  412   2.920   1.264   2.142
    9DPPC   C13  413   2.896   1.170   2.261
    9DPPC  OS14  414   2.837   1.239   2.375
    9DPPC   C15  415   2.701   1.244   2.378
    9DPPC   O16  416   2.631   1.201   2.286
    9DPPC   C17  417   2.650   1.316   2.502
    9DPPC   C18  418   2.657   1.226   2.625
    9DPPC   C19  419   2.560   1.108   2.613
    9DPPC   C20  420   2.562   1.024   2.741
    9DPPC   C21  421   2.478   0.897   2.727
    9DPPC   C22  422   2.478   0.823   2.861
    9DPPC   C23  423   2.621   0.787   2.901
    9DPPC   C24  424   2.629   0.739   3.046
    9DPPC   C25  425   2.775   0.727   3.087
    9DPPC   C26  426   2.791   0.702   3.237
    9DPPC   C27  427   2.741   0.563   3.277
    9DPPC   C28  428   2.765   0.539   3.426
    9DPPC   C29  429   2.721   0.399   3.467
    9DPPC   C30  430   2.741   0.377   3.617
    9DPPC   C31  431   2.695   0.237   3.658
    9DPPC   C32  432   3.031   1.102   2.288
    9DPPC  OS33  433   3.030   0.995   2.384
    9DPPC   C34  434   3.110   1.009   2.492
    9DPPC   O35  435   3.202   1.092   2.500
    9DPPC   C36  436   3.093   0.888   2.583
    9DPPC   C37  437   3.117   0.921   2.730
    9DPPC   C38  438   3.004   1.007   2.787
    9DPPC   C39  439   3.015   1.013   2.940
    9DPPC   C40  440   2.908   1.105   2.999
    9DPPC   C41  441   2.948   1.252   2.980
    9DPPC   C42  442   2.841   1.346   3.034
    9DPPC   C43  443   2.892   1.490   3.032
    9DPPC   C44  444   2.998   1.511   3.140
    9DPPC   C45  445   3.056   1.652   3.133
    9DPPC   C46  446   3.158   1.676   3.244
    9DPPC   C47  447   3.227   1.811   3.225
    9DPPC   C48  448   3.310   1.810   3.097
    9DPPC   C49  449   3.382   1.943   3.075
    9DPPC   C50  450   3.466   1.936   2.948
   10DPPC    C1  451   0.313   5.509   2.226
   10DPPC    C2  452   0.356   0.030   2.033
   10DPPC    C3  453   0.170   5.489   2.033
   10DPPC    N4  454   0.309   5.506   2.080
   10DPPC    C5  455   0.399   5.403   2.024
   10DPPC    C6  456   0.368   5.253   2.049
   10DPPC   OS7  457   0.377   5.212   2.185
   10DPPC    P8  458   0.341   5.061   2.196
   10DPPC   OM9  459   0.203   5.046   2.149
   10DPPC  OM10  460   0.453   4.991   2.131
   10DPPC  OS11  461   0.354   5.037   2.350
   10DPPC   C12  462   0.244   5.089   2.424
   10DPPC   C13  463   0.254   5.058   2.575
   10DPPC  OS14  464   0.130   5.076   2.649
   10DPPC   C15  465   0.044   4.971   2.653
   10DPPC   O16  466   0.053   4.875   2.576
   10DPPC   C17  467   5.614   4.998   2.747
   10DPPC   C18  468   5.489   4.924   2.702
   10DPPC   C19  469   5.382   4.923   2.811
   10DPPC   C20  470   5.327   5.062   2.841
   10DPPC   C21  471   5.209   5.052   2.939
   10DPPC   C22  472   5.150   5.188   2.972
   10DPPC   C23  473   5.244   5.270   3.061
   10DPPC   C24  474   5.177   5.401   3.103
   10DPPC   C25  475   5.267   5.482   3.196
   10DPPC   C26  476   5.198   0.004   3.240
   10DPPC   C27  477   5.074   5.580   3.324
   10DPPC   C28  478   5.012   0.100   3.382
   10DPPC   C29  479   4.960   0.193   3.272
   10DPPC   C30  480   4.893   0.317   3.332
   10DPPC   C31  481   4.994   0.402   3.408
   10DPPC   C32  482   0.376   5.136   2.628
   10DPPC  OS33  483   0.374   5.278   2.602
   10DPPC   C34  484   0.492   5.344   2.617
   10DPPC   O35  485   0.602   5.290   2.607
   10DPPC   C36  486   0.469   5.493   2.605
   10DPPC   C37  487   0.596   5.569   2.642
   10DPPC   C38  488   0.574   0.113   2.633
   10DPPC   C39  489   0.698   0.190   2.677
   10DPPC   C40  490   0.675   0.340   2.665
   10DPPC   C41  491   0.798   0.419   2.708
   10DPPC   C42  492   0.782   0.566   2.672
   10DPPC   C43  493   0.676   0.637   2.757
   10DPPC   C44  494   0.661   0.781   2.708
   10DPPC   C45  495   0.557   0.860   2.787
   10DPPC   C46  496   0.607   0.897   2.927
   10DPPC   C47  497   0.502   0.982   2.998
   10DPPC   C48  498   0.549   1.026   3.137
   10DPPC   C49  499   0.441   1.109   3.206
   10DPPC   C50  500   0.318   1.024   3.238
   11DPPC    C1  501   3.881   2.088   1.880
   11DPPC    C2  502   3.691   2.014   1.757
   11DPPC    C3  503   3.785   2.226   1.711
   11DPPC    N4  504   3.818   2.087   1.747
   11DPPC    C5  505   3.909   2.031   1.643
   11DPPC    C6  506   3.962   1.886   1.655
   11DPPC   OS7  507   4.093   1.865   1.601
   11DPPC    P8  508   4.160   1.731   1.650
   11DPPC   OM9  509   4.067   1.619   1.639
   11DPPC  OM10  510   4.291   1.724   1.584
   11DPPC  OS11  511   4.184   1.774   1.800
   11DPPC   C12  512   4.183   1.659   1.885
   11DPPC   C13  513   4.212   1.689   2.033
   11DPPC  OS14  514   4.220   1.568   2.114
   11DPPC   C15  515   4.337   1.554   2.180
   11DPPC   O16  516   4.444   1.589   2.130
   11DPPC   C17  517   4.324   1.453   2.293
   11DPPC   C18  518   4.440   1.354   2.295
   11DPPC   C19  519   4.477   1.324   2.440
   11DPPC   C20  520   4.358   1.266   2.517
   11DPPC   C21  521   4.389   1.264   2.667
   11DPPC   C22  522   4.268   1.218   2.749
   11DPPC   C23  523   4.296   1.231   2.899
   11DPPC   C24  524   4.174   1.186   2.979
   11DPPC   C25  525   4.197   1.195   3.130
   11DPPC   C26  526   4.203   1.340   3.179
   11DPPC   C27  527   4.203   1.342   3.332
   11DPPC   C28  528   4.205   1.484   3.389
   11DPPC   C29  529   4.341   1.551   3.370
   11DPPC   C30  530   4.344   1.689   3.436
   11DPPC   C31  531   4.481   1.754   3.421
   11DPPC   C32  532   4.105   1.789   2.081
   11DPPC  OS33  533   4.132   1.845   2.210
   11DPPC   C34  534   4.032   1.919   2.265
   11DPPC   O35  535   3.932   1.956   2.203
   11DPPC   C36  536   4.071   1.966   2.405
   11DPPC   C37  537   3.947   2.002   2.488
   11DPPC   C38  538   3.987   2.060   2.624
   11DPPC   C39  539   3.863   2.089   2.708
   11DPPC   C40  540   3.899   2.153   2.843
   11DPPC   C41  541   3.771   2.174   2.925
   11DPPC   C42  542   3.797   2.239   3.061
   11DPPC   C43  543   3.668   2.240   3.143
   11DPPC   C44  544   3.687   2.304   3.281
   11DPPC   C45  545   3.696   2.456   3.271
   11DPPC   C46  546   3.707   2.518   3.411
   11DPPC   C47  547   3.580   2.490   3.492
   11DPPC   C48  548   3.588   2.555   3.631
   11DPPC   C49  549   3.465   2.520   3.715
   11DPPC   C50  550   3.339   2.585   3.657
   12DPPC    C1  551   5.372   0.905   1.498
   12DPPC    C2  552   5.537   0.809   1.357
   12DPPC    C3  553   5.308   0.756   1.321
   12DPPC    N4  554   5.409   0.783   1.424
   12DPPC    C5  555   5.424   0.666   1.514
   12DPPC    C6  556   5.308   0.622   1.606
   12DPPC   OS7  557   5.336   0.502   1.680
   12DPPC    P8  558   5.221   0.468   1.782
   12DPPC   OM9  559   5.094   0.507   1.720
   12DPPC  OM10  560   5.245   0.332   1.832
   12DPPC  OS11  561   5.255   0.572   1.895
   12DPPC   C12  562   5.369   0.531   1.972
   12DPPC   C13  563   5.426   0.637   2.068
   12DPPC  OS14  564   5.539   0.584   2.143
   12DPPC   C15  565   5.637   0.675   2.174
   12DPPC   O16  566   5.665   0.769   2.099
   12DPPC   C17  567   0.045   0.615   2.278
   12DPPC   C18  568   0.148   0.715   2.330
   12DPPC   C19  569   0.086   0.822   2.420
   12DPPC   C20  570   0.195   0.902   2.492
   12DPPC   C21  571   0.136   1.021   2.568
   12DPPC   C22  572   0.243   1.090   2.653
   12DPPC   C23  573   0.193   1.223   2.710
   12DPPC   C24  574   0.295   1.280   2.810
   12DPPC   C25  575   0.255   1.420   2.857
   12DPPC   C26  576   0.116   1.420   2.922
   12DPPC   C27  577   0.084   1.555   2.987
   12DPPC   C28  578   0.145   1.565   3.127
   12DPPC   C29  579   0.073   1.470   3.222
   12DPPC   C30  580   0.128   1.480   3.365
   12DPPC   C31  581   0.055   1.383   3.458
   12DPPC   C32  582   5.307   0.683   2.155
   12DPPC  OS33  583   5.335   0.787   2.250
   12DPPC   C34  584   5.233   0.820   2.333
   12DPPC   O35  585   5.120   0.772   2.326
   12DPPC   C36  586   5.277   0.925   2.434
   12DPPC   C37  587   5.158   1.015   2.469
   12DPPC   C38  588   5.190   1.116   2.580
   12DPPC   C39  589   5.196   1.050   2.718
   12DPPC   C40  590   5.199   1.158   2.826
   12DPPC   C41  591   5.212   1.098   2.966
   12DPPC   C42  592   5.088   1.019   3.008
   12DPPC   C43  593   5.110   0.954   3.145
   12DPPC   C44  594   4.989   0.871   3.188
   12DPPC   C45  595   5.018   0.796   3.318
   12DPPC   C46  596   5.029   0.890   3.438
   12DPPC   C47  597   5.066   0.812   3.564
   12DPPC   C48  598   5.069   0.902   3.688
   12DPPC   C49  599   4.927   0.947   3.726
   12DPPC   C50  600   4.928   1.032   3.853
   13DPPC    C1  601   1.208   4.535   1.509
   13DPPC    C2  602   1.314   4.627   1.318
   13DPPC    C3  603   1.352   4.725   1.533
   13DPPC    N4  604   1.331   4.598   1.462
   13DPPC    C5  605   1.446   4.506   1.477
   13DPPC    C6  606   1.477   4.448   1.617
   13DPPC   OS7  607   1.560   4.332   1.614
   13DPPC    P8  608   1.505   4.216   1.706
   13DPPC   OM9  609   1.358   4.231   1.709
   13DPPC  OM10  610   1.575   4.095   1.663
   13DPPC  OS11  611   1.564   4.271   1.841
   13DPPC   C12  612   1.699   4.230   1.859
   13DPPC   C13  613   1.781   4.325   1.948
   13DPPC  OS14  614   1.924   4.304   1.939
   13DPPC   C15  615   2.001   4.413   1.966
   13DPPC   O16  616   1.952   4.525   1.980
   13DPPC   C17  617   2.149   4.384   1.947
   13DPPC   C18  618   2.234   4.493   2.012
   13DPPC   C19  619   2.275   4.457   2.155
   13DPPC   C20  620   2.388   4.354   2.150
   13DPPC   C21  621   2.435   4.313   2.290
   13DPPC   C22  622   2.549   4.212   2.278
   13DPPC   C23  623   2.594   4.162   2.415
   13DPPC   C24  624   2.484   4.080   2.483
   13DPPC   C25  625   2.532   4.031   2.620
   13DPPC   C26  626   2.422   3.952   2.691
   13DPPC   C27  627   2.470   3.905   2.828
   13DPPC   C28  628   2.361   3.830   2.904
   13DPPC   C29  629   2.325   3.699   2.833
   13DPPC   C30  630   2.218   3.624   2.911
   13DPPC   C31  631   2.275   3.574   3.044
   13DPPC   C32  632   1.715   4.324   2.088
   13DPPC  OS33  633   1.698   4.197   2.154
   13DPPC   C34  634   1.596   4.195   2.243
   13DPPC   O35  635   1.504   4.277   2.242
   13DPPC   C36  636   1.593   4.065   2.321
   13DPPC   C37  637   1.477   4.065   2.420
   13DPPC   C38  638   1.470   3.932   2.496
   13DPPC   C39  639   1.356   3.934   2.599
   13DPPC   C40  640   1.350   3.801   2.674
   13DPPC   C41  641   1.236   3.801   2.776
   13DPPC   C42  642   1.221   3.663   2.839
   13DPPC   C43  643   1.095   3.653   2.925
   13DPPC   C44  644   1.109   3.728   3.058
   13DPPC   C45  645   0.976   3.721   3.134
   13DPPC   C46  646   0.935   3.575   3.156
   13DPPC   C47  647   0.800   3.565   3.227
   13DPPC   C48  648   0.812   3.596   3.376
   13DPPC   C49  649   0.883   3.483   3.451
   13DPPC   C50  650   0.799   3.355   3.452
   14DPPC    C1  651   1.884   3.657   2.068
   14DPPC    C2  652   1.773   3.865   2.047
   14DPPC    C3  653   1.653   3.677   2.128
   14DPPC    N4  654   1.757   3.720   2.033
   14DPPC    C5  655   1.719   3.693   1.892
   14DPPC    C6  656   1.685   3.550   1.845
   14DPPC   OS7  657   1.560   3.498   1.891
   14DPPC    P8  658   1.521   3.361   1.824
   14DPPC   OM9  659   1.374   3.347   1.823
   14DPPC  OM10  660   1.596   3.348   1.698
   14DPPC  OS11  661   1.582   3.264   1.930
   14DPPC   C12  662   1.502   3.255   2.047
   14DPPC   C13  663   1.536   3.134   2.135
   14DPPC  OS14  664   1.430   3.106   2.230
   14DPPC   C15  665   1.382   2.978   2.228
   14DPPC   O16  666   1.428   2.892   2.152
   14DPPC   C17  667   1.266   2.959   2.325
   14DPPC   C18  668   1.303   2.860   2.436
   14DPPC   C19  669   1.390   2.927   2.543
   14DPPC   C20  670   1.431   2.828   2.651
   14DPPC   C21  671   1.512   2.897   2.761
   14DPPC   C22  672   1.562   2.795   2.863
   14DPPC   C23  673   1.640   2.864   2.975
   14DPPC   C24  674   1.692   2.761   3.076
   14DPPC   C25  675   1.754   2.828   3.199
   14DPPC   C26  676   1.648   2.898   3.282
   14DPPC   C27  677   1.548   2.797   3.339
   14DPPC   C28  678   1.436   2.866   3.417
   14DPPC   C29  679   1.333   2.763   3.464
   14DPPC   C30  680   1.256   2.705   3.346
   14DPPC   C31  681   1.152   2.602   3.393
   14DPPC   C32  682   1.678   3.157   2.191
   14DPPC  OS33  683   1.728   3.054   2.279
   14DPPC   C34  684   1.760   3.097   2.404
   14DPPC   O35  685   1.776   3.216   2.433
   14DPPC   C36  686   1.792   2.982   2.498
   14DPPC   C37  687   1.937   2.937   2.485
   14DPPC   C38  688   1.985   2.864   2.611
   14DPPC   C39  689   1.918   2.728   2.632
   14DPPC   C40  690   1.974   2.663   2.758
   14DPPC   C41  691   1.917   2.524   2.784
   14DPPC   C42  692   1.982   2.462   2.909
   14DPPC   C43  693   1.930   2.321   2.935
   14DPPC   C44  694   2.003   2.258   3.054
   14DPPC   C45  695   1.957   2.114   3.076
   14DPPC   C46  696   2.043   2.044   3.182
   14DPPC   C47  697   2.010   1.895   3.191
   14DPPC   C48  698   2.106   1.823   3.286
   14DPPC   C49  699   2.078   1.673   3.287
   14DPPC   C50  700   2.176   1.598   3.378
   15DPPC    C1  701   1.568   5.278   1.763
   15DPPC    C2  702   1.495   5.178   1.965
   15DPPC    C3  703   1.583   5.043   1.788
   15DPPC    N4  704   1.501   5.161   1.819
   15DPPC    C5  705   1.366   5.151   1.757
   15DPPC    C6  706   1.263   5.048   1.810
   15DPPC   OS7  707   1.307   4.913   1.806
   15DPPC    P8  708   1.220   4.819   1.896
   15DPPC   OM9  709   1.078   4.836   1.862
   15DPPC  OM10  710   1.288   4.690   1.880
   15DPPC  OS11  711   1.254   4.883   2.035
   15DPPC   C12  712   1.323   4.796   2.124
   15DPPC   C13  713   1.401   4.873   2.232
   15DPPC  OS14  714   1.493   4.786   2.303
   15DPPC   C15  715   1.622   4.828   2.305
   15DPPC   O16  716   1.660   4.928   2.242
   15DPPC   C17  717   1.712   4.734   2.383
   15DPPC   C18  718   1.854   4.735   2.326
   15DPPC   C19  719   1.944   4.637   2.401
   15DPPC   C20  720   1.893   4.494   2.386
   15DPPC   C21  721   1.987   4.394   2.452
   15DPPC   C22  722   1.991   4.410   2.604
   15DPPC   C23  723   2.077   4.300   2.666
   15DPPC   C24  724   2.081   4.310   2.819
   15DPPC   C25  725   2.151   4.187   2.876
   15DPPC   C26  726   2.158   4.189   3.029
   15DPPC   C27  727   2.256   4.295   3.079
   15DPPC   C28  728   2.276   4.283   3.230
   15DPPC   C29  729   2.150   4.322   3.307
   15DPPC   C30  730   2.170   4.299   3.457
   15DPPC   C31  731   2.282   4.386   3.513
   15DPPC   C32  732   1.297   4.947   2.318
   15DPPC  OS33  733   1.353   5.042   2.412
   15DPPC   C34  734   1.264   5.091   2.502
   15DPPC   O35  735   1.143   5.097   2.480
   15DPPC   C36  736   1.336   5.174   2.606
   15DPPC   C37  737   1.259   5.175   2.738
   15DPPC   C38  738   1.265   5.039   2.807
   15DPPC   C39  739   1.184   5.041   2.937
   15DPPC   C40  740   1.194   4.906   3.008
   15DPPC   C41  741   1.107   4.906   3.135
   15DPPC   C42  742   1.117   4.771   3.206
   15DPPC   C43  743   1.251   4.753   3.278
   15DPPC   C44  744   1.258   4.837   3.406
   15DPPC   C45  745   1.163   4.784   3.513
   15DPPC   C46  746   1.208   4.647   3.565
   15DPPC   C47  747   1.111   4.593   3.671
   15DPPC   C48  748   1.116   4.680   3.797
   15DPPC   C49  749   1.030   4.620   3.909
   15DPPC   C50  750   1.035   4.707   4.034
   16DPPC    C1  751   3.767   2.851   1.816
   16DPPC    C2  752   3.572   2.729   1.882
   16DPPC    C3  753   3.764   2.616   1.800
   16DPPC    N4  754   3.682   2.736   1.785
   16DPPC    C5  755   3.633   2.738   1.645
   16DPPC    C6  756   3.550   2.857   1.590
   16DPPC   OS7  757   3.422   2.874   1.649
   16DPPC    P8  758   3.344   2.993   1.582
   16DPPC   OM9  759   3.256   2.932   1.482
   16DPPC  OM10  760   3.440   3.098   1.546
   16DPPC  OS11  761   3.260   3.036   1.708
   16DPPC   C12  762   3.340   3.113   1.797
   16DPPC   C13  763   3.271   3.160   1.926
   16DPPC  OS14  764   3.369   3.216   2.019
   16DPPC   C15  765   3.386   3.352   2.015
   16DPPC   O16  766   3.354   3.420   1.918
   16DPPC   C17  767   3.485   3.394   2.123
   16DPPC   C18  768   3.437   3.357   2.263
   16DPPC   C19  769   3.324   3.451   2.307
   16DPPC   C20  770   3.282   3.422   2.452
   16DPPC   C21  771   3.180   3.527   2.497
   16DPPC   C22  772   3.135   3.505   2.642
   16DPPC   C23  773   3.044   3.620   2.685
   16DPPC   C24  774   2.992   3.604   2.828
   16DPPC   C25  775   2.911   3.727   2.867
   16DPPC   C26  776   2.856   3.715   3.009
   16DPPC   C27  777   2.786   3.845   3.051
   16DPPC   C28  778   2.730   3.833   3.193
   16DPPC   C29  779   2.655   3.961   3.234
   16DPPC   C30  780   2.752   4.078   3.252
   16DPPC   C31  781   2.678   4.204   3.295
   16DPPC   C32  782   3.201   3.035   1.982
   16DPPC  OS33  783   3.116   3.053   2.096
   16DPPC   C34  784   3.115   2.947   2.181
   16DPPC   O35  785   3.168   2.838   2.154
   16DPPC   C36  786   3.033   2.975   2.305
   16DPPC   C37  787   3.110   3.066   2.401
   16DPPC   C38  788   3.029   3.090   2.529
   16DPPC   C39  789   3.004   2.957   2.600
   16DPPC   C40  790   2.924   2.976   2.729
   16DPPC   C41  791   3.011   3.034   2.840
   16DPPC   C42  792   2.927   3.050   2.967
   16DPPC   C43  793   3.009   3.106   3.083
   16DPPC   C44  794   2.916   3.138   3.200
   16DPPC   C45  795   2.991   3.196   3.320
   16DPPC   C46  796   2.892   3.240   3.427
   16DPPC   C47  797   2.812   3.362   3.379
   16DPPC   C48  798   2.708   3.405   3.483
   16DPPC   C49  799   2.635   3.531   3.436
   16DPPC   C50  800   2.555   3.505   3.309
   17DPPC    C1  801   0.708   5.262   2.271
   17DPPC    C2  802   0.856   5.187   2.443
   17DPPC    C3  803   0.666   5.060   2.384
   17DPPC    N4  804   0.773   5.144   2.330
   17DPPC    C5  805   0.846   5.064   2.230
   17DPPC    C6  806   0.978   5.116   2.168
   17DPPC   OS7  807   0.967   5.235   2.089
   17DPPC    P8  808   1.108   5.299   2.059
   17DPPC   OM9  809   1.216   5.207   2.092
   17DPPC  OM10  810   1.098   5.360   1.926
   17DPPC  OS11  811   1.100   5.416   2.163
   17DPPC   C12  812   1.193   5.404   2.270
   17DPPC   C13  813   1.199   5.531   2.355
   17DPPC  OS14  814   1.312   5.534   2.446
   17DPPC   C15  815   1.407   0.021   2.422
   17DPPC   O16  816   1.408   0.088   2.318
   17DPPC   C17  817   1.516   0.014   2.527
   17DPPC   C18  818   1.453   5.572   2.657
   17DPPC   C19  819   1.555   5.548   2.768
   17DPPC   C20  820   1.481   5.502   2.893
   17DPPC   C21  821   1.574   5.481   3.012
   17DPPC   C22  822   1.491   5.459   3.138
   17DPPC   C23  823   1.577   5.462   3.263
   17DPPC   C24  824   1.488   5.488   3.384
   17DPPC   C25  825   1.570   5.518   3.510
   17DPPC   C26  826   1.476   5.567   3.620
   17DPPC   C27  827   1.551   5.597   3.750
   17DPPC   C28  828   1.455   0.048   3.854
   17DPPC   C29  829   1.345   5.553   3.887
   17DPPC   C30  830   1.248   0.002   3.991
   17DPPC   C31  831   1.172   0.123   3.937
   17DPPC   C32  832   1.059   5.547   2.418
   17DPPC  OS33  833   1.022   5.460   2.526
   17DPPC   C34  834   1.013   5.524   2.646
   17DPPC   O35  835   1.017   0.040   2.657
   17DPPC   C36  836   0.972   5.426   2.754
   17DPPC   C37  837   0.901   5.493   2.872
   17DPPC   C38  838   0.997   5.546   2.979
   17DPPC   C39  839   0.919   0.020   3.083
   17DPPC   C40  840   0.871   0.151   3.021
   17DPPC   C41  841   0.791   0.238   3.118
   17DPPC   C42  842   0.653   0.177   3.147
   17DPPC   C43  843   0.566   0.278   3.223
   17DPPC   C44  844   0.428   0.219   3.252
   17DPPC   C45  845   0.354   0.185   3.123
   17DPPC   C46  846   0.213   0.133   3.155
   17DPPC   C47  847   0.142   0.080   3.030
   17DPPC   C48  848   0.001   0.032   3.066
   17DPPC   C49  849   5.619   5.571   2.947
   17DPPC   C50  850   0.000   5.438   2.915
   18DPPC    C1  851   4.002   3.872   1.604
   18DPPC    C2  852   4.057   3.850   1.834
   18DPPC    C3  853   4.108   4.052   1.718
   18DPPC    N4  854   4.102   3.905   1.705
   18DPPC    C5  855   4.231   3.847   1.662
   18DPPC    C6  856   4.352   3.845   1.759
   18DPPC   OS7  857   4.396   3.973   1.802
   18DPPC    P8  858   4.475   3.963   1.938
   18DPPC   OM9  859   4.556   3.840   1.943
   18DPPC  OM10  860   4.528   4.096   1.966
   18DPPC  OS11  861   4.347   3.939   2.026
   18DPPC   C12  862   4.370   3.983   2.159
   18DPPC   C13  863   4.241   3.990   2.244
   18DPPC  OS14  864   4.257   4.073   2.362
   18DPPC   C15  865   4.232   4.206   2.348
   18DPPC   O16  866   4.201   4.258   2.241
   18DPPC   C17  867   4.266   4.280   2.476
   18DPPC   C18  868   4.189   4.411   2.491
   18DPPC   C19  869   4.242   4.487   2.612
   18DPPC   C20  870   4.222   4.407   2.741
   18DPPC   C21  871   4.290   4.476   2.859
   18DPPC   C22  872   4.222   4.608   2.894
   18DPPC   C23  873   4.295   4.678   3.009
   18DPPC   C24  874   4.225   4.808   3.048
   18DPPC   C25  875   4.301   4.878   3.161
   18DPPC   C26  876   4.228   5.005   3.205
   18DPPC   C27  877   4.303   5.072   3.320
   18DPPC   C28  878   4.230   5.200   3.364
   18DPPC   C29  879   4.302   5.267   3.481
   18DPPC   C30  880   4.227   5.394   3.523
   18DPPC   C31  881   4.091   5.359   3.583
   18DPPC   C32  882   4.194   3.845   2.266
   18DPPC  OS33  883   4.289   3.762   2.335
   18DPPC   C34  884   4.276   3.627   2.323
   18DPPC   O35  885   4.214   3.572   2.232
   18DPPC   C36  886   4.375   3.560   2.417
   18DPPC   C37  887   4.343   3.414   2.446
   18DPPC   C38  888   4.441   3.359   2.550
   18DPPC   C39  889   4.411   3.418   2.688
   18DPPC   C40  890   4.300   3.340   2.759
   18DPPC   C41  891   4.246   3.417   2.880
   18DPPC   C42  892   4.354   3.447   2.983
   18DPPC   C43  893   4.296   3.526   3.100
   18DPPC   C44  894   4.241   3.661   3.053
   18DPPC   C45  895   4.182   3.741   3.169
   18DPPC   C46  896   4.118   3.871   3.120
   18DPPC   C47  897   4.064   3.952   3.238
   18DPPC   C48  898   3.985   4.074   3.191
   18DPPC   C49  899   4.074   4.177   3.121
   18DPPC   C50  900   3.992   4.297   3.074
   19DPPC    C1  901   3.030   2.487   1.619
   19DPPC    C2  902   3.256   2.546   1.583
   19DPPC    C3  903   3.086   2.669   1.471
   19DPPC    N4  904   3.120   2.601   1.597
   19DPPC    C5  905   3.123   2.694   1.712
   19DPPC    C6  906   2.999   2.778   1.750
   19DPPC   OS7  907   2.885   2.708   1.801
   19DPPC    P8  908   2.785   2.808   1.872
   19DPPC   OM9  909   2.811   2.948   1.834
   19DPPC  OM10  910   2.651   2.747   1.863
   19DPPC  OS11  911   2.842   2.793   2.017
   19DPPC   C12  912   2.771   2.703   2.102
   19DPPC   C13  913   2.820   2.558   2.097
   19DPPC  OS14  914   2.723   2.464   2.151
   19DPPC   C15  915   2.743   2.332   2.127
   19DPPC   O16  916   2.800   2.293   2.024
   19DPPC   C17  917   2.645   2.250   2.210
   19DPPC   C18  918   2.706   2.207   2.344
   19DPPC   C19  919   2.805   2.092   2.327
   19DPPC   C20  920   2.856   2.045   2.463
   19DPPC   C21  921   2.952   2.146   2.524
   19DPPC   C22  922   2.990   2.108   2.667
   19DPPC   C23  923   2.868   2.115   2.759
   19DPPC   C24  924   2.906   2.097   2.906
   19DPPC   C25  925   2.987   2.217   2.954
   19DPPC   C26  926   3.015   2.210   3.104
   19DPPC   C27  927   3.090   2.335   3.150
   19DPPC   C28  928   3.110   2.335   3.302
   19DPPC   C29  929   3.207   2.226   3.346
   19DPPC   C30  930   3.223   2.226   3.498
   19DPPC   C31  931   3.324   2.119   3.541
   19DPPC   C32  932   2.961   2.557   2.160
   19DPPC  OS33  933   2.965   2.594   2.299
   19DPPC   C34  934   3.059   2.530   2.374
   19DPPC   O35  935   3.131   2.439   2.333
   19DPPC   C36  936   3.048   2.575   2.518
   19DPPC   C37  937   2.917   2.525   2.579
   19DPPC   C38  938   2.889   2.587   2.716
   19DPPC   C39  939   2.762   2.527   2.776
   19DPPC   C40  940   2.715   2.605   2.899
   19DPPC   C41  941   2.818   2.603   3.012
   19DPPC   C42  942   2.755   2.660   3.139
   19DPPC   C43  943   2.852   2.660   3.257
   19DPPC   C44  944   2.775   2.683   3.387
   19DPPC   C45  945   2.867   2.690   3.510
   19DPPC   C46  946   2.942   2.823   3.514
   19DPPC   C47  947   3.023   2.836   3.643
   19DPPC   C48  948   3.092   2.972   3.651
   19DPPC   C49  949   3.175   2.985   3.778
   19DPPC   C50  950   3.085   2.989   3.902
   20DPPC    C1  951   1.070   0.157   1.765
   20DPPC    C2  952   1.009   0.256   1.972
   20DPPC    C3  953   1.163   0.075   1.969
   20DPPC    N4  954   1.041   0.128   1.906
   20DPPC    C5  955   0.930   0.030   1.910
   20DPPC    C6  956   0.854   0.001   2.042
   20DPPC   OS7  957   0.759   0.102   2.077
   20DPPC    P8  958   0.703   0.077   2.221
   20DPPC   OM9  959   0.639   5.552   2.218
   20DPPC  OM10  960   0.815   0.111   2.309
   20DPPC  OS11  961   0.592   0.188   2.215
   20DPPC   C12  962   0.638   0.310   2.273
   20DPPC   C13  963   0.547   0.430   2.244
   20DPPC  OS14  964   0.610   0.555   2.282
   20DPPC   C15  965   0.550   0.671   2.243
   20DPPC   O16  966   0.462   0.673   2.157
   20DPPC   C17  967   0.618   0.792   2.305
   20DPPC   C18  968   0.604   0.917   2.218
   20DPPC   C19  969   0.659   1.039   2.292
   20DPPC   C20  970   0.566   1.077   2.407
   20DPPC   C21  971   0.621   1.192   2.492
   20DPPC   C22  972   0.743   1.146   2.572
   20DPPC   C23  973   0.780   1.247   2.682
   20DPPC   C24  974   0.894   1.192   2.766
   20DPPC   C25  975   0.921   1.277   2.890
   20DPPC   C26  976   1.034   1.216   2.973
   20DPPC   C27  977   1.058   1.296   3.101
   20DPPC   C28  978   1.175   1.240   3.182
   20DPPC   C29  979   1.307   1.258   3.107
   20DPPC   C30  980   1.425   1.208   3.191
   20DPPC   C31  981   1.448   1.299   3.312
   20DPPC   C32  982   0.408   0.396   2.303
   20DPPC  OS33  983   0.397   0.380   2.446
   20DPPC   C34  984   0.275   0.341   2.492
   20DPPC   O35  985   0.187   0.293   2.420
   20DPPC   C36  986   0.269   0.344   2.644
   20DPPC   C37  987   0.265   0.489   2.694
   20DPPC   C38  988   0.263   0.495   2.846
   20DPPC   C39  989   0.259   0.640   2.892
   20DPPC   C40  990   0.260   0.654   3.044
   20DPPC   C41  991   0.131   0.599   3.105
   20DPPC   C42  992   0.121   0.638   3.252
   20DPPC   C43  993   5.682   0.579   3.316
   20DPPC   C44  994   0.010   0.427   3.331
   20DPPC   C45  995   5.572   0.367   3.396
   20DPPC   C46  996   5.591   0.217   3.420
   20DPPC   C47  997   5.465   0.159   3.484
   20DPPC   C48  998   5.441   0.226   3.619
   20DPPC   C49  999   5.313   0.174   3.685
   20DPPC   C50 1000   5.289   0.249   3.816
   21DPPC    C1 1001   5.405   4.404   2.021
   21DPPC    C2 1002   5.448   4.552   1.840
   21DPPC    C3 1003   5.432   4.319   1.799
   21DPPC    N4 1004   5.377   4.430   1.879
   21DPPC    C5 1005   5.232   4.452   1.855
   21DPPC    C6 1006   5.135   4.332   1.865
   21DPPC   OS7 1007   4.996   4.363   1.857
   21DPPC    P8 1008   4.912   4.236   1.817
   21DPPC   OM9 1009   4.775   4.284   1.793
   21DPPC  OM10 1010   4.986   4.165   1.711
   21DPPC  OS11 1011   4.925   4.159   1.953
   21DPPC   C12 1012   4.824   4.191   2.049
   21DPPC   C13 1013   4.873   4.181   2.195
   21DPPC  OS14 1014   4.764   4.181   2.291
   21DPPC   C15 1015   4.736   4.062   2.351
   21DPPC   O16 1016   4.771   3.953   2.304
   21DPPC   C17 1017   4.637   4.082   2.465
   21DPPC   C18 1018   4.590   3.948   2.523
   21DPPC   C19 1019   4.506   3.971   2.649
   21DPPC   C20 1020   4.594   4.017   2.766
   21DPPC   C21 1021   4.678   3.901   2.820
   21DPPC   C22 1022   4.775   3.948   2.928
   21DPPC   C23 1023   4.848   3.830   2.991
   21DPPC   C24 1024   4.949   3.877   3.096
   21DPPC   C25 1025   4.880   3.962   3.203
   21DPPC   C26 1026   4.971   3.993   3.321
   21DPPC   C27 1027   4.986   3.870   3.411
   21DPPC   C28 1028   5.064   3.904   3.538
   21DPPC   C29 1029   5.066   3.785   3.633
   21DPPC   C30 1030   5.141   3.818   3.762
   21DPPC   C31 1031   5.141   3.697   3.856
   21DPPC   C32 1032   4.975   4.295   2.211
   21DPPC  OS33 1033   5.048   4.305   2.335
   21DPPC   C34 1034   5.136   4.408   2.346
   21DPPC   O35 1035   5.176   4.477   2.251
   21DPPC   C36 1036   5.196   4.414   2.485
   21DPPC   C37 1037   5.293   4.532   2.497
   21DPPC   C38 1038   5.365   4.533   2.632
   21DPPC   C39 1039   5.458   4.413   2.644
   21DPPC   C40 1040   5.550   4.423   2.767
   21DPPC   C41 1041   5.645   4.542   2.753
   21DPPC   C42 1042   0.064   4.544   2.864
   21DPPC   C43 1043   5.685   4.554   3.002
   21DPPC   C44 1044   0.104   4.558   3.114
   21DPPC   C45 1045   0.034   4.557   3.249
   21DPPC   C46 1046   0.130   4.573   3.367
   21DPPC   C47 1047   0.051   4.574   3.498
   21DPPC   C48 1048   0.142   4.595   3.619
   21DPPC   C49 1049   0.058   4.598   3.747
   21DPPC   C50 1050   0.145   4.617   3.871
   22DPPC    C1 1051   0.477   1.161   1.357
   22DPPC    C2 1052   0.462   1.259   1.573
   22DPPC    C3 1053   0.305   1.316   1.401
   22DPPC    N4 1054   0.446   1.285   1.429
   22DPPC    C5 1055   0.537   1.391   1.382
   22DPPC    C6 1056   0.513   1.540   1.420
   22DPPC   OS7 1057   0.519   1.574   1.559
   22DPPC    P8 1058   0.663   1.602   1.616
   22DPPC   OM9 1059   0.656   1.731   1.686
   22DPPC  OM10 1060   0.767   1.573   1.516
   22DPPC  OS11 1061   0.665   1.484   1.718
   22DPPC   C12 1062   0.594   1.517   1.836
   22DPPC   C13 1063   0.576   1.403   1.938
   22DPPC  OS14 1064   0.477   1.435   2.040
   22DPPC   C15 1065   0.381   1.342   2.066
   22DPPC   O16 1066   0.353   1.249   1.990
   22DPPC   C17 1067   0.295   1.388   2.182
   22DPPC   C18 1068   0.384   1.432   2.299
   22DPPC   C19 1069   0.303   1.503   2.407
   22DPPC   C20 1070   0.250   1.636   2.353
   22DPPC   C21 1071   0.182   1.716   2.464
   22DPPC   C22 1072   0.286   1.758   2.568
   22DPPC   C23 1073   0.223   1.847   2.676
   22DPPC   C24 1074   0.328   1.885   2.780
   22DPPC   C25 1075   0.270   1.977   2.887
   22DPPC   C26 1076   0.375   2.005   2.995
   22DPPC   C27 1077   0.321   2.097   3.104
   22DPPC   C28 1078   0.423   2.113   3.216
   22DPPC   C29 1079   0.444   1.980   3.289
   22DPPC   C30 1080   0.539   1.995   3.407
   22DPPC   C31 1081   0.476   2.080   3.518
   22DPPC   C32 1082   0.715   1.361   1.990
   22DPPC  OS33 1083   0.823   1.458   1.992
   22DPPC   C34 1084   0.940   1.412   2.043
   22DPPC   O35 1085   1.048   1.466   2.018
   22DPPC   C36 1086   0.920   1.278   2.112
   22DPPC   C37 1087   0.976   1.272   2.254
   22DPPC   C38 1088   1.126   1.240   2.258
   22DPPC   C39 1089   1.173   1.221   2.402
   22DPPC   C40 1090   1.319   1.176   2.406
   22DPPC   C41 1091   1.367   1.151   2.549
   22DPPC   C42 1092   1.514   1.110   2.550
   22DPPC   C43 1093   1.565   1.087   2.692
   22DPPC   C44 1094   1.512   0.956   2.752
   22DPPC   C45 1095   1.562   0.941   2.896
   22DPPC   C46 1096   1.523   0.806   2.956
   22DPPC   C47 1097   1.572   0.796   3.101
   22DPPC   C48 1098   1.534   0.662   3.163
   22DPPC   C49 1099   1.585   0.652   3.307
   22DPPC   C50 1100   1.737   0.650   3.312
   23DPPC    C1 1101   0.049   2.340   1.426
   23DPPC    C2 1102   0.254   2.307   1.541
   23DPPC    C3 1103   0.052   2.292   1.661
   23DPPC    N4 1104   0.114   2.262   1.532
   23DPPC    C5 1105   0.115   2.116   1.504
   23DPPC    C6 1106   5.670   2.034   1.509
   23DPPC   OS7 1107   0.005   1.893   1.517
   23DPPC    P8 1108   5.558   1.811   1.539
   23DPPC   OM9 1109   5.467   1.855   1.433
   23DPPC  OM10 1110   5.602   1.671   1.547
   23DPPC  OS11 1111   5.515   1.862   1.680
   23DPPC   C12 1112   5.375   1.885   1.694
   23DPPC   C13 1113   5.329   1.919   1.837
   23DPPC  OS14 1114   5.184   1.924   1.854
   23DPPC   C15 1115   5.132   1.823   1.929
   23DPPC   O16 1116   5.190   1.715   1.941
   23DPPC   C17 1117   4.988   1.850   1.968
   23DPPC   C18 1118   4.945   1.755   2.080
   23DPPC   C19 1119   4.815   1.804   2.146
   23DPPC   C20 1120   4.772   1.709   2.257
   23DPPC   C21 1121   4.653   1.766   2.335
   23DPPC   C22 1122   4.694   1.891   2.412
   23DPPC   C23 1123   4.577   1.947   2.493
   23DPPC   C24 1124   4.537   1.851   2.606
   23DPPC   C25 1125   4.424   1.912   2.690
   23DPPC   C26 1126   4.386   1.821   2.806
   23DPPC   C27 1127   4.280   1.888   2.894
   23DPPC   C28 1128   4.243   1.800   3.014
   23DPPC   C29 1129   4.142   1.871   3.104
   23DPPC   C30 1130   4.204   1.995   3.169
   23DPPC   C31 1131   4.105   2.065   3.262
   23DPPC   C32 1132   5.400   2.048   1.882
   23DPPC  OS33 1133   5.530   2.031   1.941
   23DPPC   C34 1134   5.575   2.140   2.010
   23DPPC   O35 1135   5.518   2.249   2.009
   23DPPC   C36 1136   0.021   2.112   2.079
   23DPPC   C37 1137   5.685   2.022   2.202
   23DPPC   C38 1138   5.625   2.101   2.318
   23DPPC   C39 1139   5.610   2.012   2.442
   23DPPC   C40 1140   5.553   2.089   2.560
   23DPPC   C41 1141   5.540   1.998   2.682
   23DPPC   C42 1142   5.480   2.072   2.802
   23DPPC   C43 1143   5.467   1.979   2.922
   23DPPC   C44 1144   5.405   2.049   3.043
   23DPPC   C45 1145   5.390   1.952   3.159
   23DPPC   C46 1146   5.526   1.909   3.213
   23DPPC   C47 1147   5.512   1.805   3.324
   23DPPC   C48 1148   5.443   1.863   3.447
   23DPPC   C49 1149   5.426   1.756   3.555
   23DPPC   C50 1150   5.357   1.813   3.679
   24DPPC    C1 1151   1.191   4.353   2.197
   24DPPC    C2 1152   1.109   4.458   2.001
   24DPPC    C3 1153   1.339   4.413   2.016
   24DPPC    N4 1154   1.207   4.361   2.051
   24DPPC    C5 1155   1.180   4.230   1.987
   24DPPC    C6 1156   1.279   4.113   2.005
   24DPPC   OS7 1157   1.239   3.993   1.938
   24DPPC    P8 1158   1.351   3.882   1.933
   24DPPC   OM9 1159   1.382   3.855   1.792
   24DPPC  OM10 1160   1.456   3.913   2.030
   24DPPC  OS11 1161   1.260   3.766   1.990
   24DPPC   C12 1162   1.251   3.769   2.133
   24DPPC   C13 1163   1.144   3.675   2.190
   24DPPC  OS14 1164   1.098   3.719   2.320
   24DPPC   C15 1165   0.975   3.678   2.363
   24DPPC   O16 1166   0.888   3.633   2.289
   24DPPC   C17 1167   0.956   3.725   2.506
   24DPPC   C18 1168   0.809   3.731   2.549
   24DPPC   C19 1169   0.800   3.806   2.681
   24DPPC   C20 1170   0.845   3.951   2.662
   24DPPC   C21 1171   0.861   4.021   2.796
   24DPPC   C22 1172   0.727   4.032   2.869
   24DPPC   C23 1173   0.748   4.091   3.008
   24DPPC   C24 1174   0.616   4.099   3.084
   24DPPC   C25 1175   0.641   4.145   3.228
   24DPPC   C26 1176   0.721   4.040   3.305
   24DPPC   C27 1177   0.746   4.087   3.449
   24DPPC   C28 1178   0.832   3.987   3.526
   24DPPC   C29 1179   0.855   4.038   3.669
   24DPPC   C30 1180   0.938   4.167   3.667
   24DPPC   C31 1181   0.950   4.227   3.807
   24DPPC   C32 1182   1.201   3.531   2.179
   24DPPC  OS33 1183   1.312   3.501   2.266
   24DPPC   C34 1184   1.281   3.430   2.378
   24DPPC   O35 1185   1.169   3.383   2.402
   24DPPC   C36 1186   1.400   3.418   2.472
   24DPPC   C37 1187   1.359   3.340   2.598
   24DPPC   C38 1188   1.451   3.368   2.716
   24DPPC   C39 1189   1.593   3.314   2.696
   24DPPC   C40 1190   1.682   3.349   2.815
   24DPPC   C41 1191   1.701   3.500   2.824
   24DPPC   C42 1192   1.792   3.540   2.940
   24DPPC   C43 1193   1.729   3.507   3.076
   24DPPC   C44 1194   1.810   3.568   3.191
   24DPPC   C45 1195   1.793   3.720   3.194
   24DPPC   C46 1196   1.873   3.784   3.308
   24DPPC   C47 1197   2.023   3.780   3.279
   24DPPC   C48 1198   2.102   3.848   3.391
   24DPPC   C49 1199   2.252   3.847   3.361
   24DPPC   C50 1200   2.330   3.915   3.473
   25DPPC    C1 1201   1.714   2.024   1.523
   25DPPC    C2 1202   1.590   2.205   1.428
   25DPPC    C3 1203   1.673   2.032   1.291
   25DPPC    N4 1204   1.703   2.114   1.408
   25DPPC    C5 1205   1.828   2.188   1.380
   25DPPC    C6 1206   1.897   2.276   1.488
   25DPPC   OS7 1207   1.824   2.389   1.535
   25DPPC    P8 1208   1.905   2.472   1.642
   25DPPC   OM9 1209   2.048   2.467   1.604
   25DPPC  OM10 1210   1.834   2.599   1.650
   25DPPC  OS11 1211   1.876   2.386   1.768
   25DPPC   C12 1212   1.739   2.395   1.810
   25DPPC   C13 1213   1.703   2.324   1.942
   25DPPC  OS14 1214   1.711   2.411   2.059
   25DPPC   C15 1215   1.595   2.419   2.130
   25DPPC   O16 1216   1.485   2.399   2.078
   25DPPC   C17 1217   1.618   2.490   2.263
   25DPPC   C18 1218   1.567   2.406   2.379
   25DPPC   C19 1219   1.603   2.472   2.512
   25DPPC   C20 1220   1.551   2.391   2.630
   25DPPC   C21 1221   1.625   2.258   2.645
   25DPPC   C22 1222   1.567   2.179   2.763
   25DPPC   C23 1223   1.644   2.050   2.790
   25DPPC   C24 1224   1.581   1.974   2.907
   25DPPC   C25 1225   1.665   1.852   2.944
   25DPPC   C26 1226   1.600   1.767   3.053
   25DPPC   C27 1227   1.599   1.837   3.188
   25DPPC   C28 1228   1.541   1.744   3.295
   25DPPC   C29 1229   1.536   1.810   3.432
   25DPPC   C30 1230   1.676   1.835   3.487
   25DPPC   C31 1231   1.669   1.896   3.628
   25DPPC   C32 1232   1.784   2.193   1.946
   25DPPC  OS33 1233   1.773   2.112   2.065
   25DPPC   C34 1234   1.882   2.116   2.147
   25DPPC   O35 1235   1.991   2.167   2.116
   25DPPC   C36 1236   1.859   2.033   2.272
   25DPPC   C37 1237   1.957   2.074   2.382
   25DPPC   C38 1238   1.942   1.986   2.506
   25DPPC   C39 1239   2.040   2.031   2.614
   25DPPC   C40 1240   2.035   1.940   2.737
   25DPPC   C41 1241   2.084   1.799   2.704
   25DPPC   C42 1242   2.112   1.718   2.830
   25DPPC   C43 1243   2.172   1.583   2.791
   25DPPC   C44 1244   2.238   1.514   2.911
   25DPPC   C45 1245   2.317   1.392   2.864
   25DPPC   C46 1246   2.402   1.335   2.978
   25DPPC   C47 1247   2.315   1.272   3.087
   25DPPC   C48 1248   2.401   1.228   3.205
   25DPPC   C49 1249   2.497   1.116   3.162
   25DPPC   C50 1250   2.589   1.077   3.278
   26DPPC    C1 1251   2.690   3.801   1.114
   26DPPC    C2 1252   2.856   3.947   1.202
   26DPPC    C3 1253   2.920   3.760   1.064
   26DPPC    N4 1254   2.827   3.807   1.168
   26DPPC    C5 1255   2.830   3.722   1.289
   26DPPC    C6 1256   2.963   3.699   1.365
   26DPPC   OS7 1257   2.943   3.644   1.494
   26DPPC    P8 1258   3.078   3.594   1.557
   26DPPC   OM9 1259   3.079   3.449   1.535
   26DPPC  OM10 1260   3.190   3.678   1.510
   26DPPC  OS11 1261   3.049   3.620   1.709
   26DPPC   C12 1262   3.123   3.730   1.763
   26DPPC   C13 1263   3.089   3.768   1.908
   26DPPC  OS14 1264   3.173   3.875   1.958
   26DPPC   C15 1265   3.111   3.969   2.034
   26DPPC   O16 1266   2.989   3.986   2.029
   26DPPC   C17 1267   3.211   4.063   2.100
   26DPPC   C18 1268   3.146   4.186   2.164
   26DPPC   C19 1269   3.066   4.153   2.290
   26DPPC   C20 1270   3.156   4.106   2.405
   26DPPC   C21 1271   3.071   4.051   2.520
   26DPPC   C22 1272   3.160   3.989   2.628
   26DPPC   C23 1273   3.218   4.092   2.725
   26DPPC   C24 1274   3.124   4.114   2.844
   26DPPC   C25 1275   3.191   4.202   2.949
   26DPPC   C26 1276   3.108   4.208   3.078
   26DPPC   C27 1277   3.179   4.294   3.183
   26DPPC   C28 1278   3.101   4.299   3.314
   26DPPC   C29 1279   3.168   4.395   3.413
   26DPPC   C30 1280   3.093   4.403   3.546
   26DPPC   C31 1281   3.116   4.278   3.631
   26DPPC   C32 1282   3.102   3.639   1.991
   26DPPC  OS33 1283   3.033   3.638   2.117
   26DPPC   C34 1284   2.900   3.609   2.115
   26DPPC   O35 1285   2.844   3.555   2.018
   26DPPC   C36 1286   2.836   3.630   2.251
   26DPPC   C37 1287   2.800   3.497   2.317
   26DPPC   C38 1288   2.731   3.521   2.452
   26DPPC   C39 1289   2.709   3.390   2.526
   26DPPC   C40 1290   2.639   3.413   2.661
   26DPPC   C41 1291   2.624   3.281   2.737
   26DPPC   C42 1292   2.557   3.302   2.872
   26DPPC   C43 1293   2.557   3.172   2.953
   26DPPC   C44 1294   2.498   3.192   3.092
   26DPPC   C45 1295   2.523   3.069   3.180
   26DPPC   C46 1296   2.472   3.094   3.323
   26DPPC   C47 1297   2.511   2.980   3.417
   26DPPC   C48 1298   2.461   3.008   3.559
   26DPPC   C49 1299   2.510   2.901   3.657
   26DPPC   C50 1300   2.447   2.765   3.628
   27DPPC    C1 1301   4.271   4.506   2.048
   27DPPC    C2 1302   4.325   4.329   1.899
   27DPPC    C3 1303   4.473   4.384   2.076
   27DPPC    N4 1304   4.381   4.440   1.976
   27DPPC    C5 1305   4.456   4.535   1.891
   27DPPC    C6 1306   4.389   4.602   1.768
   27DPPC   OS7 1307   4.278   4.685   1.799
   27DPPC    P8 1308   4.300   4.837   1.768
   27DPPC   OM9 1309   4.438   4.869   1.809
   27DPPC  OM10 1310   4.245   4.870   1.635
   27DPPC  OS11 1311   4.197   4.889   1.875
   27DPPC   C12 1312   4.064   4.850   1.839
   27DPPC   C13 1313   3.951   4.890   1.935
   27DPPC  OS14 1314   3.889   5.017   1.901
   27DPPC   C15 1315   3.772   5.011   1.831
   27DPPC   O16 1316   3.734   4.910   1.771
   27DPPC   C17 1317   3.709   5.149   1.822
   27DPPC   C18 1318   3.691   5.206   1.962
   27DPPC   C19 1319   3.586   5.125   2.038
   27DPPC   C20 1320   3.569   5.173   2.182
   27DPPC   C21 1321   3.689   5.136   2.269
   27DPPC   C22 1322   3.657   5.165   2.416
   27DPPC   C23 1323   3.774   5.129   2.507
   27DPPC   C24 1324   3.732   5.149   2.653
   27DPPC   C25 1325   3.633   5.041   2.696
   27DPPC   C26 1326   3.571   5.073   2.831
   27DPPC   C27 1327   3.676   5.082   2.942
   27DPPC   C28 1328   3.609   5.108   3.077
   27DPPC   C29 1329   3.712   5.138   3.185
   27DPPC   C30 1330   3.780   5.272   3.155
   27DPPC   C31 1331   3.877   5.311   3.267
   27DPPC   C32 1332   4.009   4.877   2.078
   27DPPC  OS33 1333   3.916   4.847   2.184
   27DPPC   C34 1334   3.881   4.716   2.199
   27DPPC   O35 1335   3.922   4.625   2.126
   27DPPC   C36 1336   3.789   4.697   2.318
   27DPPC   C37 1337   3.869   4.706   2.449
   27DPPC   C38 1338   3.786   4.658   2.568
   27DPPC   C39 1339   3.870   4.658   2.696
   27DPPC   C40 1340   3.796   4.586   2.809
   27DPPC   C41 1341   3.675   4.666   2.857
   27DPPC   C42 1342   3.592   4.588   2.960
   27DPPC   C43 1343   3.666   4.569   3.092
   27DPPC   C44 1344   3.689   4.702   3.164
   27DPPC   C45 1345   3.742   4.680   3.306
   27DPPC   C46 1346   3.879   4.612   3.306
   27DPPC   C47 1347   3.923   4.581   3.450
   27DPPC   C48 1348   4.056   4.506   3.454
   27DPPC   C49 1349   4.172   4.596   3.413
   27DPPC   C50 1350   4.305   4.520   3.418
   28DPPC    C1 1351   2.662   3.519   1.607
   28DPPC    C2 1352   2.588   3.505   1.830
   28DPPC    C3 1353   2.462   3.636   1.680
   28DPPC    N4 1354   2.599   3.596   1.716
   28DPPC    C5 1355   2.682   3.711   1.755
   28DPPC    C6 1356   2.712   3.821   1.651
   28DPPC   OS7 1357   2.788   3.931   1.700
   28DPPC    P8 1358   2.839   4.022   1.583
   28DPPC   OM9 1359   2.732   4.035   1.483
   28DPPC  OM10 1360   2.973   3.982   1.540
   28DPPC  OS11 1361   2.847   4.161   1.655
   28DPPC   C12 1362   2.965   4.170   1.735
   28DPPC   C13 1363   3.043   4.299   1.705
   28DPPC  OS14 1364   3.185   4.292   1.739
   28DPPC   C15 1365   3.267   4.370   1.665
   28DPPC   O16 1366   3.252   4.383   1.543
   28DPPC   C17 1367   3.400   4.393   1.736
   28DPPC   C18 1368   3.387   4.497   1.847
   28DPPC   C19 1369   3.350   4.634   1.791
   28DPPC   C20 1370   3.373   4.744   1.894
   28DPPC   C21 1371   3.292   4.722   2.022
   28DPPC   C22 1372   3.325   4.833   2.122
   28DPPC   C23 1373   3.263   4.811   2.260
   28DPPC   C24 1374   3.306   4.924   2.353
   28DPPC   C25 1375   3.256   4.905   2.496
   28DPPC   C26 1376   3.325   4.787   2.564
   28DPPC   C27 1377   3.288   4.784   2.713
   28DPPC   C28 1378   3.140   4.753   2.733
   28DPPC   C29 1379   3.103   4.766   2.881
   28DPPC   C30 1380   3.178   4.663   2.965
   28DPPC   C31 1381   3.149   4.682   3.114
   28DPPC   C32 1382   2.962   4.415   1.767
   28DPPC  OS33 1383   2.968   4.424   1.911
   28DPPC   C34 1384   2.858   4.472   1.975
   28DPPC   O35 1385   2.745   4.476   1.925
   28DPPC   C36 1386   2.888   4.495   2.122
   28DPPC   C37 1387   2.782   4.584   2.186
   28DPPC   C38 1388   2.817   4.618   2.331
   28DPPC   C39 1389   2.813   4.493   2.419
   28DPPC   C40 1390   2.830   4.529   2.567
   28DPPC   C41 1391   2.826   4.402   2.653
   28DPPC   C42 1392   2.834   4.435   2.802
   28DPPC   C43 1393   2.707   4.505   2.851
   28DPPC   C44 1394   2.709   4.521   3.003
   28DPPC   C45 1395   2.581   4.588   3.053
   28DPPC   C46 1396   2.577   4.587   3.206
   28DPPC   C47 1397   2.686   4.677   3.265
   28DPPC   C48 1398   2.693   4.661   3.417
   28DPPC   C49 1399   2.795   4.758   3.477
   28DPPC   C50 1400   2.936   4.729   3.426
   29DPPC    C1 1401   3.495   3.640   1.520
   29DPPC    C2 1402   3.569   3.568   1.733
   29DPPC    C3 1403   3.430   3.427   1.599
   29DPPC    N4 1404   3.540   3.523   1.596
   29DPPC    C5 1405   3.660   3.469   1.527
   29DPPC    C6 1406   3.732   3.344   1.585
   29DPPC   OS7 1407   3.806   3.369   1.704
   29DPPC    P8 1408   3.854   3.232   1.764
   29DPPC   OM9 1409   3.733   3.163   1.809
   29DPPC  OM10 1410   3.945   3.176   1.664
   29DPPC  OS11 1411   3.933   3.299   1.882
   29DPPC   C12 1412   3.855   3.311   2.001
   29DPPC   C13 1413   3.925   3.395   2.108
   29DPPC  OS14 1414   3.886   3.364   2.244
   29DPPC   C15 1415   3.971   3.281   2.310
   29DPPC   O16 1416   4.068   3.229   2.255
   29DPPC   C17 1417   3.931   3.265   2.456
   29DPPC   C18 1418   3.902   3.403   2.514
   29DPPC   C19 1419   3.884   3.400   2.666
   29DPPC   C20 1420   3.861   3.541   2.718
   29DPPC   C21 1421   3.982   3.630   2.686
   29DPPC   C22 1422   3.957   3.774   2.731
   29DPPC   C23 1423   4.074   3.865   2.692
   29DPPC   C24 1424   4.040   4.010   2.727
   29DPPC   C25 1425   3.921   4.056   2.642
   29DPPC   C26 1426   3.876   4.197   2.679
   29DPPC   C27 1427   3.756   4.238   2.593
   29DPPC   C28 1428   3.797   4.249   2.446
   29DPPC   C29 1429   3.676   4.285   2.359
   29DPPC   C30 1430   3.717   4.295   2.212
   29DPPC   C31 1431   3.596   4.326   2.124
   29DPPC   C32 1432   3.913   3.543   2.066
   29DPPC  OS33 1433   3.779   3.596   2.062
   29DPPC   C34 1434   3.768   3.724   2.106
   29DPPC   O35 1435   3.860   3.807   2.100
   29DPPC   C36 1436   3.622   3.763   2.124
   29DPPC   C37 1437   3.608   3.887   2.212
   29DPPC   C38 1438   3.633   3.856   2.360
   29DPPC   C39 1439   3.514   3.782   2.420
   29DPPC   C40 1440   3.538   3.746   2.567
   29DPPC   C41 1441   3.548   3.872   2.654
   29DPPC   C42 1442   3.555   3.836   2.803
   29DPPC   C43 1443   3.569   3.962   2.889
   29DPPC   C44 1444   3.566   3.927   3.038
   29DPPC   C45 1445   3.582   4.052   3.124
   29DPPC   C46 1446   3.575   4.017   3.272
   29DPPC   C47 1447   3.598   4.139   3.361
   29DPPC   C48 1448   3.582   4.101   3.509
   29DPPC   C49 1449   3.612   4.220   3.601
   29DPPC   C50 1450   3.761   4.252   3.601
   30DPPC    C1 1451   5.497   3.657   2.154
   30DPPC    C2 1452   5.281   3.628   2.247
   30DPPC    C3 1453   5.447   3.458   2.272
   30DPPC    N4 1454   5.392   3.559   2.180
   30DPPC    C5 1455   5.352   3.500   2.050
   30DPPC    C6 1456   5.240   3.393   2.039
   30DPPC   OS7 1457   5.109   3.440   2.067
   30DPPC    P8 1458   4.998   3.334   2.035
   30DPPC   OM9 1459   4.870   3.402   2.059
   30DPPC  OM10 1460   5.028   3.277   1.902
   30DPPC  OS11 1461   5.029   3.223   2.143
   30DPPC   C12 1462   4.915   3.196   2.226
   30DPPC   C13 1463   4.945   3.104   2.345
   30DPPC  OS14 1464   4.822   3.059   2.410
   30DPPC   C15 1465   4.830   2.966   2.509
   30DPPC   O16 1466   4.923   2.886   2.518
   30DPPC   C17 1467   4.693   2.951   2.574
   30DPPC   C18 1468   4.699   2.975   2.725
   30DPPC   C19 1469   4.734   3.120   2.757
   30DPPC   C20 1470   4.719   3.148   2.907
   30DPPC   C21 1471   4.770   3.288   2.943
   30DPPC   C22 1472   4.730   3.324   3.086
   30DPPC   C23 1473   4.788   3.459   3.128
   30DPPC   C24 1474   4.718   3.510   3.254
   30DPPC   C25 1475   4.743   3.418   3.374
   30DPPC   C26 1476   4.660   3.464   3.494
   30DPPC   C27 1477   4.679   3.371   3.613
   30DPPC   C28 1478   4.585   3.409   3.728
   30DPPC   C29 1479   4.602   3.315   3.847
   30DPPC   C30 1480   4.504   3.349   3.959
   30DPPC   C31 1481   4.526   3.258   4.079
   30DPPC   C32 1482   5.047   3.179   2.433
   30DPPC  OS33 1483   5.001   3.305   2.485
   30DPPC   C34 1484   5.094   3.397   2.523
   30DPPC   O35 1485   5.210   3.398   2.481
   30DPPC   C36 1486   5.023   3.516   2.586
   30DPPC   C37 1487   5.117   3.602   2.670
   30DPPC   C38 1488   5.154   3.534   2.802
   30DPPC   C39 1489   5.226   3.633   2.894
   30DPPC   C40 1490   5.270   3.564   3.024
   30DPPC   C41 1491   5.328   3.665   3.124
   30DPPC   C42 1492   5.454   3.733   3.071
   30DPPC   C43 1493   5.522   3.814   3.181
   30DPPC   C44 1494   5.433   3.929   3.230
   30DPPC   C45 1495   5.500   4.002   3.346
   30DPPC   C46 1496   5.414   4.116   3.400
   30DPPC   C47 1497   5.485   4.185   3.517
   30DPPC   C48 1498   5.494   4.092   3.638
   30DPPC   C49 1499   5.578   4.153   3.750
   30DPPC   C50 1500   5.511   4.278   3.808
   31DPPC    C1 1501   0.363   2.993   1.963
   31DPPC    C2 1502   0.445   3.125   2.142
   31DPPC    C3 1503   0.240   2.999   2.164
   31DPPC    N4 1504   0.323   3.081   2.074
   31DPPC    C5 1505   0.248   3.196   2.017
   31DPPC    C6 1506   0.169   3.290   2.111
   31DPPC   OS7 1507   0.247   3.353   2.212
   31DPPC    P8 1508   0.153   3.431   2.312
   31DPPC   OM9 1509   0.112   3.548   2.233
   31DPPC  OM10 1510   0.059   3.331   2.360
   31DPPC  OS11 1511   0.268   3.464   2.413
   31DPPC   C12 1512   0.305   3.353   2.496
   31DPPC   C13 1513   0.457   3.353   2.524
   31DPPC  OS14 1514   0.508   3.230   2.582
   31DPPC   C15 1515   0.643   3.212   2.578
   31DPPC   O16 1516   0.718   3.277   2.504
   31DPPC   C17 1517   0.685   3.087   2.654
   31DPPC   C18 1518   0.630   3.086   2.798
   31DPPC   C19 1519   0.701   3.189   2.886
   31DPPC   C20 1520   0.665   3.169   3.033
   31DPPC   C21 1521   0.518   3.202   3.063
   31DPPC   C22 1522   0.487   3.168   3.209
   31DPPC   C23 1523   0.344   3.206   3.248
   31DPPC   C24 1524   0.315   3.163   3.392
   31DPPC   C25 1525   0.178   3.212   3.439
   31DPPC   C26 1526   0.147   3.159   3.579
   31DPPC   C27 1527   0.016   3.217   3.634
   31DPPC   C28 1528   5.667   3.156   3.769
   31DPPC   C29 1529   5.543   3.222   3.830
   31DPPC   C30 1530   5.576   3.364   3.878
   31DPPC   C31 1531   5.453   3.432   3.938
   31DPPC   C32 1532   0.488   3.486   2.597
   31DPPC  OS33 1533   0.419   3.510   2.720
   31DPPC   C34 1534   0.419   3.640   2.761
   31DPPC   O35 1535   0.441   3.735   2.686
   31DPPC   C36 1536   0.356   3.649   2.899
   31DPPC   C37 1537   0.429   3.750   2.988
   31DPPC   C38 1538   0.367   3.750   3.128
   31DPPC   C39 1539   0.401   3.621   3.202
   31DPPC   C40 1540   0.321   3.610   3.332
   31DPPC   C41 1541   0.353   3.725   3.428
   31DPPC   C42 1542   0.269   3.711   3.555
   31DPPC   C43 1543   0.119   3.718   3.522
   31DPPC   C44 1544   0.035   3.701   3.648
   31DPPC   C45 1545   5.571   3.696   3.616
   31DPPC   C46 1546   5.537   3.569   3.537
   31DPPC   C47 1547   5.386   3.554   3.520
   31DPPC   C48 1548   5.351   3.424   3.446
   31DPPC   C49 1549   5.200   3.409   3.431
   31DPPC   C50 1550   5.133   3.384   3.566
   32DPPC    C1 1551   5.513   2.560   1.922
   32DPPC    C2 1552   5.489   2.519   2.159
   32DPPC    C3 1553   5.304   2.491   2.012
   32DPPC    N4 1554   5.423   2.573   2.038
   32DPPC    C5 1555   5.378   2.712   2.061
   32DPPC    C6 1556   5.484   2.822   2.084
   32DPPC   OS7 1557   5.426   2.951   2.107
   32DPPC    P8 1558   5.534   3.064   2.114
   32DPPC   OM9 1559   5.630   3.044   2.005
   32DPPC  OM10 1560   5.457   3.188   2.123
   32DPPC  OS11 1561   5.598   3.030   2.253
   32DPPC   C12 1562   5.516   3.073   2.362
   32DPPC   C13 1563   5.559   3.022   2.500
   32DPPC  OS14 1564   5.464   3.059   2.603
   32DPPC   C15 1565   5.361   2.973   2.631
   32DPPC   O16 1566   5.335   2.875   2.561
   32DPPC   C17 1567   5.276   3.028   2.744
   32DPPC   C18 1568   5.168   2.927   2.786
   32DPPC   C19 1569   5.088   2.980   2.905
   32DPPC   C20 1570   5.176   2.993   3.029
   32DPPC   C21 1571   5.093   3.034   3.151
   32DPPC   C22 1572   5.180   3.039   3.277
   32DPPC   C23 1573   5.242   2.901   3.304
   32DPPC   C24 1574   5.312   2.895   3.440
   32DPPC   C25 1575   5.210   2.897   3.553
   32DPPC   C26 1576   5.275   2.870   3.689
   32DPPC   C27 1577   5.334   2.728   3.691
   32DPPC   C28 1578   5.383   2.691   3.831
   32DPPC   C29 1579   5.264   2.670   3.925
   32DPPC   C30 1580   5.310   2.629   4.065
   32DPPC   C31 1581   5.191   2.603   4.156
   32DPPC   C32 1582   0.015   3.078   2.521
   32DPPC  OS33 1583   0.097   3.023   2.626
   32DPPC   C34 1584   0.179   2.919   2.595
   32DPPC   O35 1585   0.185   2.865   2.484
   32DPPC   C36 1586   0.262   2.881   2.716
   32DPPC   C37 1587   0.348   2.757   2.688
   32DPPC   C38 1588   0.438   2.728   2.808
   32DPPC   C39 1589   0.519   2.600   2.786
   32DPPC   C40 1590   0.612   2.574   2.904
   32DPPC   C41 1591   0.690   2.444   2.884
   32DPPC   C42 1592   0.790   2.421   2.997
   32DPPC   C43 1593   0.718   2.398   3.131
   32DPPC   C44 1594   0.819   2.376   3.243
   32DPPC   C45 1595   0.748   2.364   3.378
   32DPPC   C46 1596   0.847   2.339   3.492
   32DPPC   C47 1597   0.776   2.331   3.626
   32DPPC   C48 1598   0.721   2.467   3.668
   32DPPC   C49 1599   0.643   2.457   3.800
   32DPPC   C50 1600   0.511   2.383   3.779
   33DPPC    C1 1601   0.866   2.999   1.840
   33DPPC    C2 1602   1.067   2.888   1.900
   33DPPC    C3 1603   0.862   2.826   2.004
   33DPPC    N4 1604   0.924   2.869   1.878
   33DPPC    C5 1605   0.904   2.769   1.770
   33DPPC    C6 1606   0.763   2.746   1.710
   33DPPC   OS7 1607   0.667   2.696   1.803
   33DPPC    P8 1608   0.528   2.675   1.736
   33DPPC   OM9 1609   0.479   2.811   1.710
   33DPPC  OM10 1610   0.549   2.576   1.629
   33DPPC  OS11 1611   0.445   2.608   1.852
   33DPPC   C12 1612   0.504   2.488   1.902
   33DPPC   C13 1613   0.576   2.508   2.037
   33DPPC  OS14 1614   0.643   2.387   2.084
   33DPPC   C15 1615   0.776   2.399   2.105
   33DPPC   O16 1616   0.847   2.474   2.036
   33DPPC   C17 1617   0.828   2.281   2.186
   33DPPC   C18 1618   0.780   2.292   2.330
   33DPPC   C19 1619   0.815   2.167   2.411
   33DPPC   C20 1620   0.767   2.181   2.555
   33DPPC   C21 1621   0.796   2.055   2.636
   33DPPC   C22 1622   0.758   2.076   2.782
   33DPPC   C23 1623   0.794   1.955   2.869
   33DPPC   C24 1624   0.709   1.834   2.829
   33DPPC   C25 1625   0.724   1.722   2.933
   33DPPC   C26 1626   0.631   1.605   2.902
   33DPPC   C27 1627   0.631   1.508   3.019
   33DPPC   C28 1628   0.575   1.577   3.143
   33DPPC   C29 1629   0.576   1.485   3.265
   33DPPC   C30 1630   0.524   1.559   3.388
   33DPPC   C31 1631   0.519   1.467   3.510
   33DPPC   C32 1632   0.471   2.566   2.134
   33DPPC  OS33 1633   0.525   2.616   2.258
   33DPPC   C34 1634   0.567   2.745   2.260
   33DPPC   O35 1635   0.554   2.824   2.166
   33DPPC   C36 1636   0.633   2.780   2.392
   33DPPC   C37 1637   0.740   2.676   2.427
   33DPPC   C38 1638   0.833   2.730   2.536
   33DPPC   C39 1639   0.934   2.625   2.581
   33DPPC   C40 1640   1.036   2.689   2.674
   33DPPC   C41 1641   0.968   2.745   2.799
   33DPPC   C42 1642   1.065   2.829   2.882
   33DPPC   C43 1643   0.995   2.889   3.003
   33DPPC   C44 1644   1.086   2.988   3.075
   33DPPC   C45 1645   1.111   3.110   2.986
   33DPPC   C46 1646   1.201   3.212   3.058
   33DPPC   C47 1647   1.341   3.154   3.079
   33DPPC   C48 1648   1.428   3.253   3.157
   33DPPC   C49 1649   1.374   3.272   3.299
   33DPPC   C50 1650   1.459   3.372   3.377
   34DPPC    C1 1651   2.340   0.611   1.204
   34DPPC    C2 1652   2.150   0.743   1.142
   34DPPC    C3 1653   2.317   0.835   1.284
   34DPPC    N4 1654   2.244   0.712   1.251
   34DPPC    C5 1655   2.163   0.663   1.365
   34DPPC    C6 1656   2.234   0.634   1.500
   34DPPC   OS7 1657   2.146   0.607   1.609
   34DPPC    P8 1658   2.232   0.594   1.740
   34DPPC   OM9 1659   2.321   0.481   1.709
   34DPPC  OM10 1660   2.274   0.734   1.759
   34DPPC  OS11 1661   2.106   0.551   1.823
   34DPPC   C12 1662   2.079   0.640   1.932
   34DPPC   C13 1663   1.974   0.586   2.030
   34DPPC  OS14 1664   1.943   0.678   2.139
   34DPPC   C15 1665   1.813   0.720   2.141
   34DPPC   O16 1666   1.749   0.731   2.036
   34DPPC   C17 1667   1.780   0.793   2.269
   34DPPC   C18 1668   1.639   0.762   2.318
   34DPPC   C19 1669   1.633   0.625   2.387
   34DPPC   C20 1670   1.493   0.599   2.442
   34DPPC   C21 1671   1.492   0.477   2.535
   34DPPC   C22 1672   1.355   0.461   2.601
   34DPPC   C23 1673   1.361   0.362   2.717
   34DPPC   C24 1674   1.226   0.355   2.790
   34DPPC   C25 1675   1.236   0.270   2.916
   34DPPC   C26 1676   1.328   0.337   3.019
   34DPPC   C27 1677   1.336   0.256   3.149
   34DPPC   C28 1678   1.205   0.264   3.227
   34DPPC   C29 1679   1.211   0.179   3.354
   34DPPC   C30 1680   1.078   0.184   3.430
   34DPPC   C31 1681   1.083   0.096   3.555
   34DPPC   C32 1682   2.025   0.447   2.074
   34DPPC  OS33 1683   1.935   0.369   2.155
   34DPPC   C34 1684   1.977   0.244   2.188
   34DPPC   O35 1685   2.091   0.202   2.167
   34DPPC   C36 1686   1.867   0.171   2.265
   34DPPC   C37 1687   1.908   0.136   2.408
   34DPPC   C38 1688   1.995   0.010   2.416
   34DPPC   C39 1689   2.033   5.586   2.561
   34DPPC   C40 1690   2.136   0.079   2.613
   34DPPC   C41 1691   2.165   0.056   2.762
   34DPPC   C42 1692   2.278   0.147   2.812
   34DPPC   C43 1693   2.304   0.124   2.961
   34DPPC   C44 1694   2.424   0.205   3.010
   34DPPC   C45 1695   2.396   0.356   3.013
   34DPPC   C46 1696   2.299   0.394   3.125
   34DPPC   C47 1697   2.361   0.375   3.264
   34DPPC   C48 1698   2.263   0.415   3.374
   34DPPC   C49 1699   2.319   0.383   3.513
   34DPPC   C50 1700   2.218   0.416   3.622
   35DPPC    C1 1701   1.945   2.901   1.669
   35DPPC    C2 1702   1.715   2.883   1.621
   35DPPC    C3 1703   1.784   2.906   1.846
   35DPPC    N4 1704   1.812   2.949   1.709
   35DPPC    C5 1705   1.798   3.096   1.692
   35DPPC    C6 1706   1.897   3.193   1.761
   35DPPC   OS7 1707   1.894   3.191   1.904
   35DPPC    P8 1708   1.990   3.296   1.970
   35DPPC   OM9 1709   2.033   3.395   1.870
   35DPPC  OM10 1710   1.929   3.341   2.096
   35DPPC  OS11 1711   2.111   3.202   2.000
   35DPPC   C12 1712   2.081   3.108   2.103
   35DPPC   C13 1713   2.195   3.010   2.131
   35DPPC  OS14 1714   2.153   2.900   2.215
   35DPPC   C15 1715   2.216   2.781   2.194
   35DPPC   O16 1716   2.263   2.753   2.083
   35DPPC   C17 1717   2.175   2.680   2.299
   35DPPC   C18 1718   2.291   2.588   2.335
   35DPPC   C19 1719   2.254   2.500   2.454
   35DPPC   C20 1720   2.372   2.412   2.494
   35DPPC   C21 1721   2.339   2.328   2.618
   35DPPC   C22 1722   2.457   2.237   2.651
   35DPPC   C23 1723   2.427   2.150   2.773
   35DPPC   C24 1724   2.426   2.232   2.902
   35DPPC   C25 1725   2.406   2.139   3.022
   35DPPC   C26 1726   2.416   2.216   3.154
   35DPPC   C27 1727   2.557   2.273   3.171
   35DPPC   C28 1728   2.575   2.330   3.312
   35DPPC   C29 1729   2.576   2.216   3.414
   35DPPC   C30 1730   2.599   2.270   3.556
   35DPPC   C31 1731   2.603   2.154   3.656
   35DPPC   C32 1732   2.312   3.095   2.185
   35DPPC  OS33 1733   2.427   3.022   2.231
   35DPPC   C34 1734   2.525   3.097   2.288
   35DPPC   O35 1735   2.535   3.219   2.270
   35DPPC   C36 1736   2.636   3.010   2.344
   35DPPC   C37 1737   2.581   2.890   2.422
   35DPPC   C38 1738   2.512   2.936   2.551
   35DPPC   C39 1739   2.466   2.817   2.635
   35DPPC   C40 1740   2.389   2.867   2.758
   35DPPC   C41 1741   2.359   2.754   2.856
   35DPPC   C42 1742   2.284   2.811   2.977
   35DPPC   C43 1743   2.271   2.710   3.091
   35DPPC   C44 1744   2.198   2.776   3.208
   35DPPC   C45 1745   2.202   2.690   3.334
   35DPPC   C46 1746   2.115   2.565   3.322
   35DPPC   C47 1747   2.120   2.485   3.452
   35DPPC   C48 1748   2.031   2.361   3.445
   35DPPC   C49 1749   2.039   2.281   3.575
   35DPPC   C50 1750   1.951   2.156   3.568
   36DPPC    C1 1751   2.481   0.935   1.924
   36DPPC    C2 1752   2.717   0.986   1.915
   36DPPC    C3 1753   2.559   1.160   1.930
   36DPPC    N4 1754   2.582   1.028   1.872
   36DPPC    C5 1755   2.577   1.040   1.724
   36DPPC    C6 1756   2.575   0.912   1.635
   36DPPC   OS7 1757   2.691   0.828   1.637
   36DPPC    P8 1758   2.654   0.683   1.586
   36DPPC   OM9 1759   2.780   0.615   1.550
   36DPPC  OM10 1760   2.544   0.696   1.489
   36DPPC  OS11 1761   2.607   0.631   1.727
   36DPPC   C12 1762   2.716   0.604   1.815
   36DPPC   C13 1763   2.675   0.590   1.963
   36DPPC  OS14 1764   2.788   0.600   2.052
   36DPPC   C15 1765   2.773   0.687   2.156
   36DPPC   O16 1766   2.691   0.779   2.152
   36DPPC   C17 1767   2.890   0.680   2.253
   36DPPC   C18 1768   2.868   0.574   2.362
   36DPPC   C19 1769   2.764   0.621   2.465
   36DPPC   C20 1770   2.753   0.523   2.582
   36DPPC   C21 1771   2.881   0.527   2.666
   36DPPC   C22 1772   2.869   0.442   2.792
   36DPPC   C23 1773   2.996   0.456   2.876
   36DPPC   C24 1774   2.985   0.383   3.011
   36DPPC   C25 1775   3.111   0.411   3.093
   36DPPC   C26 1776   3.103   0.354   3.235
   36DPPC   C27 1777   3.233   0.386   3.309
   36DPPC   C28 1778   3.229   0.341   3.455
   36DPPC   C29 1779   3.364   0.372   3.521
   36DPPC   C30 1780   3.361   0.337   3.670
   36DPPC   C31 1781   3.270   0.433   3.746
   36DPPC   C32 1782   2.591   0.461   1.973
   36DPPC  OS33 1783   2.541   0.429   2.104
   36DPPC   C34 1784   2.424   0.488   2.140
   36DPPC   O35 1785   2.350   0.549   2.063
   36DPPC   C36 1786   2.389   0.455   2.284
   36DPPC   C37 1787   2.380   0.584   2.366
   36DPPC   C38 1788   2.331   0.559   2.508
   36DPPC   C39 1789   2.183   0.518   2.507
   36DPPC   C40 1790   2.129   0.505   2.650
   36DPPC   C41 1791   1.982   0.465   2.647
   36DPPC   C42 1792   1.927   0.447   2.789
   36DPPC   C43 1793   1.782   0.401   2.785
   36DPPC   C44 1794   1.726   0.386   2.927
   36DPPC   C45 1795   1.798   0.273   3.002
   36DPPC   C46 1796   1.744   0.261   3.144
   36DPPC   C47 1797   1.819   0.151   3.220
   36DPPC   C48 1798   1.965   0.191   3.242
   36DPPC   C49 1799   2.040   0.082   3.318
   36DPPC   C50 1800   1.987   0.068   3.460
   37DPPC    C1 1801   2.853   4.941   1.294
   37DPPC    C2 1802   2.625   4.922   1.232
   37DPPC    C3 1803   2.756   5.111   1.160
   37DPPC    N4 1804   2.730   5.017   1.271
   37DPPC    C5 1805   2.698   5.090   1.396
   37DPPC    C6 1806   2.573   5.181   1.406
   37DPPC   OS7 1807   2.581   5.269   1.518
   37DPPC    P8 1808   2.447   5.283   1.598
   37DPPC   OM9 1809   2.476   5.386   1.700
   37DPPC  OM10 1810   2.342   5.303   1.498
   37DPPC  OS11 1811   2.444   5.139   1.659
   37DPPC   C12 1812   2.502   5.131   1.789
   37DPPC   C13 1813   2.515   4.987   1.842
   37DPPC  OS14 1814   2.537   4.980   1.986
   37DPPC   C15 1815   2.473   4.880   2.051
   37DPPC   O16 1816   2.391   4.806   1.995
   37DPPC   C17 1817   2.511   4.878   2.199
   37DPPC   C18 1818   2.407   4.814   2.291
   37DPPC   C19 1819   2.466   4.804   2.432
   37DPPC   C20 1820   2.368   4.746   2.534
   37DPPC   C21 1821   2.255   4.844   2.564
   37DPPC   C22 1822   2.162   4.794   2.675
   37DPPC   C23 1823   2.230   4.799   2.812
   37DPPC   C24 1824   2.132   4.761   2.923
   37DPPC   C25 1825   2.196   4.776   3.061
   37DPPC   C26 1826   2.096   4.743   3.171
   37DPPC   C27 1827   2.158   4.761   3.310
   37DPPC   C28 1828   2.056   4.728   3.419
   37DPPC   C29 1829   2.117   4.744   3.558
   37DPPC   C30 1830   2.013   4.709   3.665
   37DPPC   C31 1831   2.068   4.725   3.807
   37DPPC   C32 1832   2.619   4.916   1.754
   37DPPC  OS33 1833   2.746   4.983   1.741
   37DPPC   C34 1834   2.858   4.906   1.735
   37DPPC   O35 1835   2.860   4.790   1.692
   37DPPC   C36 1836   2.981   4.995   1.739
   37DPPC   C37 1837   2.956   5.116   1.831
   37DPPC   C38 1838   2.967   5.079   1.978
   37DPPC   C39 1839   2.916   5.193   2.066
   37DPPC   C40 1840   2.938   5.159   2.214
   37DPPC   C41 1841   2.865   5.030   2.250
   37DPPC   C42 1842   2.889   4.991   2.396
   37DPPC   C43 1843   2.814   5.083   2.492
   37DPPC   C44 1844   2.833   5.034   2.636
   37DPPC   C45 1845   2.740   5.110   2.731
   37DPPC   C46 1846   2.748   5.054   2.873
   37DPPC   C47 1847   2.636   5.113   2.958
   37DPPC   C48 1848   2.636   5.056   3.100
   37DPPC   C49 1849   2.512   5.102   3.175
   37DPPC   C50 1850   2.512   5.254   3.195
   38DPPC    C1 1851   3.797   0.057   1.327
   38DPPC    C2 1852   3.564   0.012   1.312
   38DPPC    C3 1853   3.655   0.212   1.215
   38DPPC    N4 1854   3.664   0.119   1.328
   38DPPC    C5 1855   3.647   0.191   1.457
   38DPPC    C6 1856   3.520   0.274   1.484
   38DPPC   OS7 1857   3.533   0.359   1.597
   38DPPC    P8 1858   3.408   0.451   1.617
   38DPPC   OM9 1859   3.393   0.531   1.494
   38DPPC  OM10 1860   3.294   0.379   1.674
   38DPPC  OS11 1861   3.460   0.552   1.724
   38DPPC   C12 1862   3.509   0.487   1.841
   38DPPC   C13 1863   3.547   0.587   1.950
   38DPPC  OS14 1864   3.658   0.542   2.032
   38DPPC   C15 1865   3.732   0.635   2.097
   38DPPC   O16 1866   3.738   0.753   2.061
   38DPPC   C17 1867   3.833   0.564   2.187
   38DPPC   C18 1868   3.829   0.618   2.330
   38DPPC   C19 1869   3.701   0.578   2.402
   38DPPC   C20 1870   3.704   0.630   2.546
   38DPPC   C21 1871   3.572   0.606   2.620
   38DPPC   C22 1872   3.580   0.668   2.760
   38DPPC   C23 1873   3.445   0.663   2.832
   38DPPC   C24 1874   3.455   0.738   2.965
   38DPPC   C25 1875   3.320   0.740   3.038
   38DPPC   C26 1876   3.330   0.815   3.170
   38DPPC   C27 1877   3.192   0.824   3.237
   38DPPC   C28 1878   3.198   0.903   3.367
   38DPPC   C29 1879   3.271   0.826   3.477
   38DPPC   C30 1880   3.270   0.905   3.608
   38DPPC   C31 1881   3.338   0.826   3.720
   38DPPC   C32 1882   3.416   0.620   2.023
   38DPPC  OS33 1883   3.356   0.506   2.088
   38DPPC   C34 1884   3.265   0.534   2.185
   38DPPC   O35 1885   3.216   0.645   2.204
   38DPPC   C36 1886   3.225   0.406   2.258
   38DPPC   C37 1887   3.264   0.418   2.405
   38DPPC   C38 1888   3.245   0.286   2.481
   38DPPC   C39 1889   3.290   0.302   2.626
   38DPPC   C40 1890   3.278   0.172   2.704
   38DPPC   C41 1891   3.327   0.192   2.848
   38DPPC   C42 1892   3.321   0.062   2.928
   38DPPC   C43 1893   3.372   0.083   3.070
   38DPPC   C44 1894   3.384   5.557   3.145
   38DPPC   C45 1895   3.431   5.579   3.289
   38DPPC   C46 1896   3.454   5.444   3.359
   38DPPC   C47 1897   3.494   5.463   3.505
   38DPPC   C48 1898   3.375   5.512   3.588
   38DPPC   C49 1899   3.414   5.529   3.735
   38DPPC   C50 1900   3.294   5.573   3.819
   39DPPC    C1 1901   0.082   1.819   1.860
   39DPPC    C2 1902   0.130   1.597   1.805
   39DPPC    C3 1903   0.271   1.712   1.958
   39DPPC    N4 1904   0.192   1.726   1.835
   39DPPC    C5 1905   0.273   1.767   1.717
   39DPPC    C6 1906   0.363   1.893   1.728
   39DPPC   OS7 1907   0.291   2.014   1.755
   39DPPC    P8 1908   0.374   2.114   1.843
   39DPPC   OM9 1909   0.507   2.123   1.780
   39DPPC  OM10 1910   0.292   2.234   1.862
   39DPPC  OS11 1911   0.380   2.033   1.976
   39DPPC   C12 1912   0.484   2.083   2.060
   39DPPC   C13 1913   0.500   2.017   2.198
   39DPPC  OS14 1914   0.540   1.877   2.196
   39DPPC   C15 1915   0.674   1.852   2.196
   39DPPC   O16 1916   0.755   1.928   2.142
   39DPPC   C17 1917   0.699   1.705   2.221
   39DPPC   C18 1918   0.840   1.680   2.275
   39DPPC   C19 1919   0.849   1.692   2.427
   39DPPC   C20 1920   0.992   1.661   2.471
   39DPPC   C21 1921   1.006   1.645   2.623
   39DPPC   C22 1922   1.152   1.619   2.659
   39DPPC   C23 1923   1.171   1.589   2.808
   39DPPC   C24 1924   1.135   1.709   2.895
   39DPPC   C25 1925   1.164   1.679   3.042
   39DPPC   C26 1926   1.115   1.791   3.134
   39DPPC   C27 1927   1.186   1.922   3.101
   39DPPC   C28 1928   1.144   2.033   3.198
   39DPPC   C29 1929   1.202   2.008   3.337
   39DPPC   C30 1930   1.171   2.125   3.431
   39DPPC   C31 1931   1.233   2.102   3.569
   39DPPC   C32 1932   0.369   2.042   2.274
   39DPPC  OS33 1933   0.340   2.180   2.300
   39DPPC   C34 1934   0.371   2.223   2.426
   39DPPC   O35 1935   0.423   2.152   2.512
   39DPPC   C36 1936   0.339   2.371   2.442
   39DPPC   C37 1937   0.200   2.394   2.499
   39DPPC   C38 1938   0.197   2.365   2.649
   39DPPC   C39 1939   0.059   2.390   2.708
   39DPPC   C40 1940   0.061   2.368   2.859
   39DPPC   C41 1941   0.143   2.478   2.926
   39DPPC   C42 1942   0.149   2.461   3.078
   39DPPC   C43 1943   0.229   2.576   3.139
   39DPPC   C44 1944   0.245   2.558   3.290
   39DPPC   C45 1945   0.327   2.673   3.348
   39DPPC   C46 1946   0.467   2.673   3.287
   39DPPC   C47 1947   0.555   2.782   3.350
   39DPPC   C48 1948   0.694   2.783   3.287
   39DPPC   C49 1949   0.785   2.881   3.361
   39DPPC   C50 1950   0.810   2.833   3.504
   40DPPC    C1 1951   4.779   4.681   1.711
   40DPPC    C2 1952   4.738   4.915   1.706
   40DPPC    C3 1953   4.837   4.803   1.517
   40DPPC    N4 1954   4.831   4.809   1.664
   40DPPC    C5 1955   4.966   4.827   1.722
   40DPPC    C6 1956   5.049   4.953   1.688
   40DPPC   OS7 1957   5.188   4.929   1.707
   40DPPC    P8 1958   5.273   5.062   1.711
   40DPPC   OM9 1959   5.222   5.159   1.613
   40DPPC  OM10 1960   5.413   5.019   1.706
   40DPPC  OS11 1961   5.236   5.113   1.855
   40DPPC   C12 1962   5.321   5.057   1.954
   40DPPC   C13 1963   5.288   5.101   2.098
   40DPPC  OS14 1964   5.404   5.088   2.185
   40DPPC   C15 1965   5.465   5.207   2.212
   40DPPC   O16 1966   5.451   5.306   2.139
   40DPPC   C17 1967   5.576   5.191   2.315
   40DPPC   C18 1968   5.595   5.322   2.390
   40DPPC   C19 1969   5.479   5.344   2.488
   40DPPC   C20 1970   5.480   5.486   2.545
   40DPPC   C21 1971   5.365   5.502   2.644
   40DPPC   C22 1972   5.230   5.480   2.577
   40DPPC   C23 1973   5.117   5.496   2.679
   40DPPC   C24 1974   5.098   0.036   2.718
   40DPPC   C25 1975   5.003   0.047   2.837
   40DPPC   C26 1976   4.868   5.590   2.804
   40DPPC   C27 1977   4.777   5.589   2.927
   40DPPC   C28 1978   4.722   0.121   2.958
   40DPPC   C29 1979   4.615   0.161   2.856
   40DPPC   C30 1980   4.552   0.295   2.896
   40DPPC   C31 1981   4.441   0.334   2.798
   40DPPC   C32 1982   5.159   5.028   2.138
   40DPPC  OS33 1983   5.106   5.058   2.268
   40DPPC   C34 1984   4.989   4.996   2.301
   40DPPC   O35 1985   4.935   4.909   2.231
   40DPPC   C36 1986   4.941   5.039   2.438
   40DPPC   C37 1987   5.045   5.011   2.546
   40DPPC   C38 1988   5.051   4.864   2.588
   40DPPC   C39 1989   4.925   4.823   2.665
   40DPPC   C40 1990   4.941   4.688   2.734
   40DPPC   C41 1991   4.810   4.645   2.801
   40DPPC   C42 1992   4.829   4.525   2.894
   40DPPC   C43 1993   4.695   4.476   2.950
   40DPPC   C44 1994   4.714   4.374   3.062
   40DPPC   C45 1995   4.579   4.319   3.108
   40DPPC   C46 1996   4.592   4.238   3.238
   40DPPC   C47 1997   4.459   4.173   3.275
   40DPPC   C48 1998   4.462   4.113   3.416
   40DPPC   C49 1999   4.556   3.992   3.427
   40DPPC   C50 2000   4.501   3.871   3.351
   41DPPC    C1 2001   0.379   3.747   2.334
   41DPPC    C2 2002   0.587   3.852   2.283
   41DPPC    C3 2003   0.382   3.933   2.189
   41DPPC    N4 2004   0.444   3.876   2.309
   41DPPC    C5 2005   0.420   3.961   2.428
   41DPPC    C6 2006   0.472   4.106   2.428
   41DPPC   OS7 2007   0.612   4.118   2.447
   41DPPC    P8 2008   0.672   4.255   2.402
   41DPPC   OM9 2009   0.818   4.254   2.419
   41DPPC  OM10 2010   0.607   4.284   2.273
   41DPPC  OS11 2011   0.606   4.353   2.505
   41DPPC   C12 2012   0.663   4.347   2.636
   41DPPC   C13 2013   0.588   4.440   2.733
   41DPPC  OS14 2014   0.650   4.450   2.865
   41DPPC   C15 2015   0.605   4.551   2.945
   41DPPC   O16 2016   0.533   4.642   2.902
   41DPPC   C17 2017   0.659   4.537   3.087
   41DPPC   C18 2018   0.753   4.652   3.127
   41DPPC   C19 2019   0.676   4.779   3.165
   41DPPC   C20 2020   0.596   4.761   3.293
   41DPPC   C21 2021   0.520   4.890   3.326
   41DPPC   C22 2022   0.434   4.875   3.452
   41DPPC   C23 2023   0.356   5.004   3.478
   41DPPC   C24 2024   0.268   4.994   3.603
   41DPPC   C25 2025   0.349   5.009   3.732
   41DPPC   C26 2026   0.406   5.151   3.745
   41DPPC   C27 2027   0.453   5.179   3.888
   41DPPC   C28 2028   0.569   5.089   3.930
   41DPPC   C29 2029   0.606   5.114   4.076
   41DPPC   C30 2030   0.717   5.020   4.123
   41DPPC   C31 2031   0.751   5.045   4.269
   41DPPC   C32 2032   0.440   4.397   2.730
   41DPPC  OS33 2033   0.411   4.261   2.768
   41DPPC   C34 2034   0.284   4.219   2.745
   41DPPC   O35 2035   0.216   4.263   2.652
   41DPPC   C36 2036   0.266   4.083   2.809
   41DPPC   C37 2037   0.126   4.062   2.867
   41DPPC   C38 2038   0.104   4.142   2.996
   41DPPC   C39 2039   0.200   4.100   3.107
   41DPPC   C40 2040   0.161   4.165   3.240
   41DPPC   C41 2041   0.264   4.137   3.350
   41DPPC   C42 2042   0.209   4.179   3.487
   41DPPC   C43 2043   0.312   4.165   3.599
   41DPPC   C44 2044   0.408   4.284   3.602
   41DPPC   C45 2045   0.507   4.269   3.718
   41DPPC   C46 2046   0.595   4.393   3.736
   41DPPC   C47 2047   0.513   4.511   3.789
   41DPPC   C48 2048   0.602   4.632   3.817
   41DPPC   C49 2049   0.667   4.683   3.688
   41DPPC   C50 2050   0.746   4.811   3.712
   42DPPC    C1 2051   1.068   1.504   1.688
   42DPPC    C2 2052   1.178   1.290   1.697
   42DPPC    C3 2053   1.234   1.446   1.528
   42DPPC    N4 2054   1.123   1.393   1.608
   42DPPC    C5 2055   1.019   1.340   1.516
   42DPPC    C6 2056   0.894   1.266   1.572
   42DPPC   OS7 2057   0.921   1.133   1.617
   42DPPC    P8 2058   0.794   1.062   1.676
   42DPPC   OM9 2059   0.714   1.023   1.559
   42DPPC  OM10 2060   0.742   1.156   1.775
   42DPPC  OS11 2061   0.872   0.943   1.741
   42DPPC   C12 2062   0.911   0.972   1.875
   42DPPC   C13 2063   1.007   0.871   1.938
   42DPPC  OS14 2064   1.025   0.895   2.081
   42DPPC   C15 2065   1.062   0.790   2.159
   42DPPC   O16 2066   1.058   0.673   2.120
   42DPPC   C17 2067   1.089   0.832   2.303
   42DPPC   C18 2068   1.052   0.719   2.399
   42DPPC   C19 2069   1.113   0.741   2.537
   42DPPC   C20 2070   1.055   0.863   2.608
   42DPPC   C21 2071   1.118   0.880   2.746
   42DPPC   C22 2072   1.069   0.774   2.845
   42DPPC   C23 2073   1.137   0.791   2.981
   42DPPC   C24 2074   1.087   0.689   3.083
   42DPPC   C25 2075   0.946   0.723   3.132
   42DPPC   C26 2076   0.899   0.624   3.238
   42DPPC   C27 2077   0.762   0.663   3.294
   42DPPC   C28 2078   0.771   0.788   3.383
   42DPPC   C29 2079   0.843   0.757   3.514
   42DPPC   C30 2080   0.852   0.881   3.603
   42DPPC   C31 2081   0.920   0.849   3.736
   42DPPC   C32 2082   1.136   0.878   1.853
   42DPPC  OS33 2083   1.213   0.999   1.868
   42DPPC   C34 2084   1.332   0.978   1.931
   42DPPC   O35 2085   1.379   0.866   1.952
   42DPPC   C36 2086   1.402   1.108   1.966
   42DPPC   C37 2087   1.532   1.078   2.041
   42DPPC   C38 2088   1.590   1.202   2.109
   42DPPC   C39 2089   1.721   1.166   2.179
   42DPPC   C40 2090   1.777   1.279   2.265
   42DPPC   C41 2091   1.914   1.238   2.320
   42DPPC   C42 2092   1.963   1.333   2.430
   42DPPC   C43 2093   2.105   1.295   2.475
   42DPPC   C44 2094   2.111   1.156   2.538
   42DPPC   C45 2095   2.035   1.151   2.671
   42DPPC   C46 2096   2.042   1.010   2.732
   42DPPC   C47 2097   1.955   1.004   2.857
   42DPPC   C48 2098   1.958   0.866   2.923
   42DPPC   C49 2099   2.092   0.839   2.989
   42DPPC   C50 2100   2.091   0.704   3.060
   43DPPC    C1 2101   2.205   0.202   1.504
   43DPPC    C2 2102   2.138   5.590   1.434
   43DPPC    C3 2103   2.368   0.033   1.466
   43DPPC    N4 2104   2.233   0.059   1.517
   43DPPC    C5 2105   2.230   0.014   1.658
   43DPPC    C6 2106   2.102   0.036   1.743
   43DPPC   OS7 2107   1.989   5.566   1.702
   43DPPC    P8 2108   1.880   5.559   1.814
   43DPPC   OM9 2109   1.893   0.063   1.909
   43DPPC  OM10 2110   1.753   5.525   1.748
   43DPPC  OS11 2111   1.943   5.429   1.873
   43DPPC   C12 2112   1.928   5.415   2.013
   43DPPC   C13 2113   2.031   5.318   2.073
   43DPPC  OS14 2114   1.999   5.275   2.208
   43DPPC   C15 2115   2.034   5.146   2.235
   43DPPC   O16 2116   2.037   5.060   2.147
   43DPPC   C17 2117   2.027   5.115   2.384
   43DPPC   C18 2118   1.898   5.169   2.447
   43DPPC   C19 2119   1.887   5.127   2.594
   43DPPC   C20 2120   1.761   5.186   2.657
   43DPPC   C21 2121   1.748   5.142   2.803
   43DPPC   C22 2122   1.714   4.993   2.814
   43DPPC   C23 2123   1.709   4.949   2.960
   43DPPC   C24 2124   1.601   5.025   3.037
   43DPPC   C25 2125   1.596   4.981   3.184
   43DPPC   C26 2126   1.729   5.015   3.253
   43DPPC   C27 2127   1.724   4.983   3.403
   43DPPC   C28 2128   1.631   5.079   3.476
   43DPPC   C29 2129   1.640   5.059   3.627
   43DPPC   C30 2130   1.553   5.161   3.701
   43DPPC   C31 2131   1.576   5.152   3.852
   43DPPC   C32 2132   2.166   5.390   2.054
   43DPPC  OS33 2133   2.285   5.319   2.093
   43DPPC   C34 2134   2.397   5.396   2.106
   43DPPC   O35 2135   2.399   5.518   2.083
   43DPPC   C36 2136   2.516   5.316   2.156
   43DPPC   C37 2137   2.540   5.343   2.304
   43DPPC   C38 2138   2.438   5.269   2.390
   43DPPC   C39 2139   2.442   5.315   2.536
   43DPPC   C40 2140   2.343   5.232   2.619
   43DPPC   C41 2141   2.324   5.291   2.759
   43DPPC   C42 2142   2.225   5.205   2.838
   43DPPC   C43 2143   2.177   5.277   2.965
   43DPPC   C44 2144   2.075   5.193   3.040
   43DPPC   C45 2145   2.000   5.278   3.143
   43DPPC   C46 2146   2.087   5.314   3.264
   43DPPC   C47 2147   2.092   5.201   3.367
   43DPPC   C48 2148   2.166   5.249   3.492
   43DPPC   C49 2149   2.162   5.144   3.603
   43DPPC   C50 2150   2.021   5.127   3.658
   44DPPC    C1 2151   4.926   1.366   1.844
   44DPPC    C2 2152   4.950   1.325   1.609
   44DPPC    C3 2153   4.839   1.521   1.688
   44DPPC    N4 2154   4.861   1.378   1.713
   44DPPC    C5 2155   4.729   1.311   1.710
   44DPPC    C6 2156   4.714   1.158   1.731
   44DPPC   OS7 2157   4.577   1.118   1.738
   44DPPC    P8 2158   4.556   0.963   1.730
   44DPPC   OM9 2159   4.666   0.897   1.658
   44DPPC  OM10 2160   4.416   0.947   1.689
   44DPPC  OS11 2161   4.573   0.930   1.882
   44DPPC   C12 2162   4.454   0.953   1.956
   44DPPC   C13 2163   4.466   0.906   2.101
   44DPPC  OS14 2164   4.338   0.906   2.172
   44DPPC   C15 2165   4.283   0.783   2.190
   44DPPC   O16 2166   4.292   0.693   2.105
   44DPPC   C17 2167   4.176   0.791   2.298
   44DPPC   C18 2168   4.233   0.860   2.422
   44DPPC   C19 2169   4.133   0.864   2.537
   44DPPC   C20 2170   4.015   0.958   2.508
   44DPPC   C21 2171   3.921   0.959   2.628
   44DPPC   C22 2172   3.799   1.049   2.609
   44DPPC   C23 2173   3.711   1.040   2.734
   44DPPC   C24 2174   3.785   1.098   2.855
   44DPPC   C25 2175   3.717   1.060   2.987
   44DPPC   C26 2176   3.791   1.127   3.102
   44DPPC   C27 2177   3.751   1.070   3.239
   44DPPC   C28 2178   3.829   1.141   3.349
   44DPPC   C29 2179   3.813   1.071   3.484
   44DPPC   C30 2180   3.669   1.076   3.534
   44DPPC   C31 2181   3.659   1.016   3.674
   44DPPC   C32 2182   4.578   0.991   2.165
   44DPPC  OS33 2183   4.622   0.944   2.294
   44DPPC   C34 2184   4.727   1.010   2.350
   44DPPC   O35 2185   4.802   1.086   2.289
   44DPPC   C36 2186   4.751   0.960   2.491
   44DPPC   C37 2187   4.777   1.074   2.589
   44DPPC   C38 2188   4.783   1.022   2.732
   44DPPC   C39 2189   4.646   0.969   2.775
   44DPPC   C40 2190   4.650   0.909   2.916
   44DPPC   C41 2191   4.511   0.855   2.952
   44DPPC   C42 2192   4.510   0.789   3.090
   44DPPC   C43 2193   4.594   0.661   3.090
   44DPPC   C44 2194   4.573   0.583   3.220
   44DPPC   C45 2195   4.430   0.529   3.226
   44DPPC   C46 2196   4.404   0.453   3.356
   44DPPC   C47 2197   4.260   0.401   3.359
   44DPPC   C48 2198   4.230   0.329   3.491
   44DPPC   C49 2199   4.087   0.277   3.495
   44DPPC   C50 2200   4.058   0.206   3.628
   45DPPC    C1 2201   4.093   1.145   2.150
   45DPPC    C2 2202   3.871   1.117   2.068
   45DPPC    C3 2203   4.055   1.146   1.915
   45DPPC    N4 2204   3.999   1.186   2.045
   45DPPC    C5 2205   3.983   1.333   2.052
   45DPPC    C6 2206   3.881   1.405   1.960
   45DPPC   OS7 2207   3.889   1.546   1.974
   45DPPC    P8 2208   3.767   1.623   1.914
   45DPPC   OM9 2209   3.816   1.759   1.890
   45DPPC  OM10 2210   3.703   1.539   1.811
   45DPPC  OS11 2211   3.679   1.614   2.043
   45DPPC   C12 2212   3.700   1.725   2.131
   45DPPC   C13 2213   3.617   1.715   2.259
   45DPPC  OS14 2214   3.619   1.837   2.337
   45DPPC   C15 2215   3.503   1.876   2.397
   45DPPC   O16 2216   3.395   1.820   2.375
   45DPPC   C17 2217   3.524   2.013   2.459
   45DPPC   C18 2218   3.425   2.053   2.568
   45DPPC   C19 2219   3.446   2.202   2.597
   45DPPC   C20 2220   3.366   2.257   2.715
   45DPPC   C21 2221   3.380   2.409   2.716
   45DPPC   C22 2222   3.318   2.475   2.840
   45DPPC   C23 2223   3.314   2.627   2.820
   45DPPC   C24 2224   3.265   2.701   2.944
   45DPPC   C25 2225   3.375   2.710   3.050
   45DPPC   C26 2226   3.328   2.792   3.170
   45DPPC   C27 2227   3.443   2.813   3.270
   45DPPC   C28 2228   3.396   2.891   3.392
   45DPPC   C29 2229   3.365   3.038   3.358
   45DPPC   C30 2230   3.494   3.119   3.337
   45DPPC   C31 2231   3.569   3.136   3.469
   45DPPC   C32 2232   3.665   1.587   2.330
   45DPPC  OS33 2233   3.802   1.584   2.374
   45DPPC   C34 2234   3.854   1.464   2.411
   45DPPC   O35 2235   3.824   1.356   2.359
   45DPPC   C36 2236   3.980   1.487   2.493
   45DPPC   C37 2237   3.955   1.445   2.638
   45DPPC   C38 2238   3.842   1.529   2.697
   45DPPC   C39 2239   3.809   1.494   2.841
   45DPPC   C40 2240   3.910   1.554   2.939
   45DPPC   C41 2241   3.854   1.549   3.081
   45DPPC   C42 2242   3.718   1.619   3.082
   45DPPC   C43 2243   3.667   1.647   3.223
   45DPPC   C44 2244   3.748   1.762   3.286
   45DPPC   C45 2245   3.679   1.815   3.412
   45DPPC   C46 2246   3.759   1.930   3.472
   45DPPC   C47 2247   3.684   1.995   3.588
   45DPPC   C48 2248   3.671   1.901   3.707
   45DPPC   C49 2249   3.598   1.969   3.823
   45DPPC   C50 2250   3.578   1.873   3.940
   46DPPC    C1 2251   4.716   0.605   2.056
   46DPPC    C2 2252   4.759   0.620   1.822
   46DPPC    C3 2253   4.920   0.524   1.971
   46DPPC    N4 2254   4.820   0.630   1.956
   46DPPC    C5 2255   4.877   0.764   1.980
   46DPPC    C6 2256   4.987   0.818   1.886
   46DPPC   OS7 2257   5.032   0.948   1.923
   46DPPC    P8 2258   5.126   1.007   1.812
   46DPPC   OM9 2259   5.036   1.033   1.700
   46DPPC  OM10 2260   5.239   0.914   1.800
   46DPPC  OS11 2261   5.169   1.139   1.884
   46DPPC   C12 2262   5.251   1.113   1.998
   46DPPC   C13 2263   5.340   1.232   2.039
   46DPPC  OS14 2264   5.447   1.193   2.131
   46DPPC   C15 2265   5.547   1.284   2.152
   46DPPC   O16 2266   5.581   1.364   2.064
   46DPPC   C17 2267   5.633   1.240   2.268
   46DPPC   C18 2268   5.564   1.265   2.402
   46DPPC   C19 2269   5.563   1.415   2.436
   46DPPC   C20 2270   5.507   1.439   2.576
   46DPPC   C21 2271   5.510   1.588   2.610
   46DPPC   C22 2272   5.463   1.611   2.754
   46DPPC   C23 2273   5.314   1.577   2.768
   46DPPC   C24 2274   5.265   1.600   2.911
   46DPPC   C25 2275   5.331   1.503   3.009
   46DPPC   C26 2276   5.263   1.512   3.145
   46DPPC   C27 2277   5.325   1.417   3.248
   46DPPC   C28 2278   5.243   1.420   3.377
   46DPPC   C29 2279   5.104   1.358   3.353
   46DPPC   C30 2280   5.015   1.376   3.476
   46DPPC   C31 2281   5.072   1.301   3.596
   46DPPC   C32 2282   5.247   1.347   2.082
   46DPPC  OS33 2283   5.156   1.324   2.191
   46DPPC   C34 2284   5.141   1.429   2.276
   46DPPC   O35 2285   5.214   1.528   2.275
   46DPPC   C36 2286   5.037   1.403   2.384
   46DPPC   C37 2287   5.049   1.508   2.494
   46DPPC   C38 2288   4.965   1.474   2.618
   46DPPC   C39 2289   4.815   1.491   2.592
   46DPPC   C40 2290   4.733   1.456   2.716
   46DPPC   C41 2291   4.749   1.558   2.828
   46DPPC   C42 2292   4.667   1.517   2.950
   46DPPC   C43 2293   4.678   1.621   3.063
   46DPPC   C44 2294   4.822   1.629   3.114
   46DPPC   C45 2295   4.835   1.729   3.228
   46DPPC   C46 2296   4.982   1.748   3.266
   46DPPC   C47 2297   5.000   1.843   3.384
   46DPPC   C48 2298   4.943   1.782   3.512
   46DPPC   C49 2299   4.972   1.871   3.632
   46DPPC   C50 2300   4.901   2.006   3.618
   47DPPC    C1 2301   3.101   0.666   1.486
   47DPPC    C2 2302   2.962   0.745   1.312
   47DPPC    C3 2303   3.192   0.704   1.267
   47DPPC    N4 2304   3.075   0.656   1.342
   47DPPC    C5 2305   3.036   0.519   1.303
   47DPPC    C6 2306   3.139   0.404   1.314
   47DPPC   OS7 2307   3.085   0.277   1.278
   47DPPC    P8 2308   3.190   0.161   1.294
   47DPPC   OM9 2309   3.126   0.038   1.244
   47DPPC  OM10 2310   3.318   0.206   1.238
   47DPPC  OS11 2311   3.203   0.162   1.449
   47DPPC   C12 2312   3.172   0.038   1.510
   47DPPC   C13 2313   3.184   0.043   1.663
   47DPPC  OS14 2314   3.182   5.519   1.725
   47DPPC   C15 2315   3.304   5.465   1.756
   47DPPC   O16 2316   3.401   5.478   1.680
   47DPPC   C17 2317   3.286   5.353   1.856
   47DPPC   C18 2318   3.316   5.400   1.998
   47DPPC   C19 2319   3.207   5.492   2.053
   47DPPC   C20 2320   3.233   5.530   2.199
   47DPPC   C21 2321   3.220   5.407   2.289
   47DPPC   C22 2322   3.234   5.443   2.437
   47DPPC   C23 2323   3.211   5.318   2.523
   47DPPC   C24 2324   3.220   5.353   2.672
   47DPPC   C25 2325   3.194   5.231   2.759
   47DPPC   C26 2326   3.205   5.269   2.907
   47DPPC   C27 2327   3.182   5.149   2.999
   47DPPC   C28 2328   3.197   5.193   3.145
   47DPPC   C29 2329   3.179   5.077   3.242
   47DPPC   C30 2330   3.198   5.126   3.386
   47DPPC   C31 2331   3.181   5.012   3.486
   47DPPC   C32 2332   3.076   0.143   1.710
   47DPPC  OS33 2333   3.051   0.144   1.852
   47DPPC   C34 2334   2.944   0.215   1.897
   47DPPC   O35 2335   2.891   0.307   1.833
   47DPPC   C36 2336   2.924   0.186   2.045
   47DPPC   C37 2337   2.780   0.145   2.075
   47DPPC   C38 2338   2.772   0.057   2.200
   47DPPC   C39 2339   2.823   0.129   2.325
   47DPPC   C40 2340   2.821   0.036   2.446
   47DPPC   C41 2341   2.890   0.103   2.565
   47DPPC   C42 2342   2.901   0.010   2.686
   47DPPC   C43 2343   2.770   5.606   2.765
   47DPPC   C44 2344   2.792   5.522   2.891
   47DPPC   C45 2345   2.899   5.588   2.978
   47DPPC   C46 2346   2.931   5.505   3.103
   47DPPC   C47 2347   2.821   5.517   3.210
   47DPPC   C48 2348   2.856   5.432   3.332
   47DPPC   C49 2349   2.980   5.484   3.404
   47DPPC   C50 2350   2.954   0.010   3.474
   48DPPC    C1 2351   4.527   2.883   2.162
   48DPPC    C2 2352   4.520   2.723   2.337
   48DPPC    C3 2353   4.715   2.739   2.200
   48DPPC    N4 2354   4.568   2.748   2.200
   48DPPC    C5 2355   4.506   2.646   2.113
   48DPPC    C6 2356   4.527   2.648   1.959
   48DPPC   OS7 2357   4.658   2.623   1.909
   48DPPC    P8 2358   4.690   2.469   1.900
   48DPPC   OM9 2359   4.804   2.442   1.810
   48DPPC  OM10 2360   4.568   2.390   1.883
   48DPPC  OS11 2361   4.736   2.446   2.047
   48DPPC   C12 2362   4.812   2.327   2.059
   48DPPC   C13 2363   4.876   2.310   2.197
   48DPPC  OS14 2364   4.972   2.202   2.195
   48DPPC   C15 2365   5.095   2.230   2.247
   48DPPC   O16 2366   5.135   2.346   2.266
   48DPPC   C17 2367   5.181   2.105   2.247
   48DPPC   C18 2368   5.213   2.063   2.390
   48DPPC   C19 2369   5.087   2.017   2.463
   48DPPC   C20 2370   5.117   1.990   2.611
   48DPPC   C21 2371   4.987   1.971   2.688
   48DPPC   C22 2372   5.013   1.964   2.838
   48DPPC   C23 2373   4.881   1.967   2.915
   48DPPC   C24 2374   4.810   2.101   2.893
   48DPPC   C25 2375   4.683   2.110   2.978
   48DPPC   C26 2376   4.718   2.123   3.126
   48DPPC   C27 2377   4.591   2.134   3.212
   48DPPC   C28 2378   4.626   2.148   3.360
   48DPPC   C29 2379   4.499   2.158   3.445
   48DPPC   C30 2380   4.532   2.170   3.593
   48DPPC   C31 2381   4.405   2.180   3.678
   48DPPC   C32 2382   4.760   2.297   2.298
   48DPPC  OS33 2383   4.794   2.303   2.438
   48DPPC   C34 2384   4.791   2.426   2.496
   48DPPC   O35 2385   4.750   2.528   2.440
   48DPPC   C36 2386   4.829   2.417   2.643
   48DPPC   C37 2387   4.778   2.539   2.719
   48DPPC   C38 2388   4.803   2.526   2.870
   48DPPC   C39 2389   4.748   2.648   2.943
   48DPPC   C40 2390   4.767   2.639   3.095
   48DPPC   C41 2391   4.915   2.642   3.132
   48DPPC   C42 2392   4.934   2.659   3.283
   48DPPC   C43 2393   4.882   2.538   3.362
   48DPPC   C44 2394   4.909   2.557   3.512
   48DPPC   C45 2395   4.860   2.436   3.591
   48DPPC   C46 2396   4.893   2.448   3.740
   48DPPC   C47 2397   4.846   2.323   3.814
   48DPPC   C48 2398   4.883   2.326   3.962
   48DPPC   C49 2399   4.839   2.196   4.029
   48DPPC   C50 2400   4.686   2.183   4.030
   49DPPC    C1 2401   4.266   0.655   1.631
   49DPPC    C2 2402   4.300   0.526   1.431
   49DPPC    C3 2403   4.429   0.718   1.471
   49DPPC    N4 2404   4.295   0.662   1.488
   49DPPC    C5 2405   4.198   0.745   1.412
   49DPPC    C6 2406   4.046   0.725   1.434
   49DPPC   OS7 2407   3.992   0.597   1.401
   49DPPC    P8 2408   3.855   0.569   1.474
   49DPPC   OM9 2409   3.798   0.691   1.534
   49DPPC  OM10 2410   3.783   0.483   1.379
   49DPPC  OS11 2411   3.934   0.483   1.578
   49DPPC   C12 2412   3.861   0.451   1.696
   49DPPC   C13 2413   3.887   0.306   1.738
   49DPPC  OS14 2414   3.796   0.259   1.841
   49DPPC   C15 2415   3.755   0.129   1.833
   49DPPC   O16 2416   3.790   0.053   1.742
   49DPPC   C17 2417   3.658   0.094   1.945
   49DPPC   C18 2418   3.729   0.096   2.081
   49DPPC   C19 2419   3.633   0.053   2.193
   49DPPC   C20 2420   3.706   0.049   2.327
   49DPPC   C21 2421   3.615   0.000   2.439
   49DPPC   C22 2422   3.693   5.595   2.570
   49DPPC   C23 2423   3.607   5.540   2.684
   49DPPC   C24 2424   3.691   5.520   2.810
   49DPPC   C25 2425   3.738   0.047   2.869
   49DPPC   C26 2426   3.827   0.022   2.990
   49DPPC   C27 2427   3.880   0.152   3.052
   49DPPC   C28 2428   3.771   0.227   3.129
   49DPPC   C29 2429   3.830   0.353   3.193
   49DPPC   C30 2430   3.726   0.423   3.281
   49DPPC   C31 2431   3.610   0.477   3.197
   49DPPC   C32 2432   4.038   0.292   1.767
   49DPPC  OS33 2433   4.092   0.357   1.884
   49DPPC   C34 2434   4.180   0.276   1.949
   49DPPC   O35 2435   4.227   0.174   1.898
   49DPPC   C36 2436   4.227   0.332   2.082
   49DPPC   C37 2437   4.327   0.235   2.145
   49DPPC   C38 2438   4.369   0.279   2.285
   49DPPC   C39 2439   4.447   0.410   2.282
   49DPPC   C40 2440   4.497   0.445   2.422
   49DPPC   C41 2441   4.572   0.579   2.420
   49DPPC   C42 2442   4.629   0.612   2.558
   49DPPC   C43 2443   4.748   0.522   2.593
   49DPPC   C44 2444   4.815   0.570   2.721
   49DPPC   C45 2445   4.933   0.480   2.761
   49DPPC   C46 2446   5.003   0.535   2.885
   49DPPC   C47 2447   5.116   0.441   2.930
   49DPPC   C48 2448   5.190   0.499   3.051
   49DPPC   C49 2449   5.296   0.401   3.102
   49DPPC   C50 2450   5.408   0.382   3.000
   50DPPC    C1 2451   4.867   3.738   2.037
   50DPPC    C2 2452   4.881   3.863   1.833
   50DPPC    C3 2453   4.913   3.630   1.831
   50DPPC    N4 2454   4.938   3.751   1.909
   50DPPC    C5 2455   5.084   3.766   1.928
   50DPPC    C6 2456   5.145   3.889   2.000
   50DPPC   OS7 2457   5.285   3.874   2.018
   50DPPC    P8 2458   5.362   4.000   2.072
   50DPPC   OM9 2459   5.493   3.999   2.005
   50DPPC  OM10 2460   5.275   4.119   2.062
   50DPPC  OS11 2461   5.377   3.952   2.222
   50DPPC   C12 2462   5.320   4.041   2.318
   50DPPC   C13 2463   5.329   3.990   2.462
   50DPPC  OS14 2464   5.254   4.073   2.554
   50DPPC   C15 2465   5.140   4.017   2.605
   50DPPC   O16 2466   5.090   3.916   2.556
   50DPPC   C17 2467   5.076   4.109   2.708
   50DPPC   C18 2468   5.167   4.124   2.831
   50DPPC   C19 2469   5.123   4.243   2.916
   50DPPC   C20 2470   5.213   4.258   3.040
   50DPPC   C21 2471   5.188   4.392   3.109
   50DPPC   C22 2472   5.234   4.506   3.018
   50DPPC   C23 2473   5.223   4.644   3.082
   50DPPC   C24 2474   5.321   4.659   3.198
   50DPPC   C25 2475   5.356   4.807   3.221
   50DPPC   C26 2476   5.453   4.823   3.338
   50DPPC   C27 2477   5.528   4.956   3.329
   50DPPC   C28 2478   5.622   4.954   3.208
   50DPPC   C29 2479   0.027   5.078   3.206
   50DPPC   C30 2480   0.118   5.077   3.083
   50DPPC   C31 2481   0.215   4.959   3.086
   50DPPC   C32 2482   5.479   3.980   2.498
   50DPPC  OS33 2483   5.513   3.888   2.603
   50DPPC   C34 2484   5.554   3.764   2.565
   50DPPC   O35 2485   5.582   3.734   2.449
   50DPPC   C36 2486   5.575   3.673   2.685
   50DPPC   C37 2487   5.603   3.530   2.638
   50DPPC   C38 2488   5.593   3.431   2.754
   50DPPC   C39 2489   0.021   3.448   2.855
   50DPPC   C40 2490   0.002   3.351   2.971
   50DPPC   C41 2491   0.005   3.207   2.918
   50DPPC   C42 2492   5.647   3.105   3.023
   50DPPC   C43 2493   5.630   2.969   2.956
   50DPPC   C44 2494   5.564   2.867   3.049
   50DPPC   C45 2495   5.525   2.742   2.970
   50DPPC   C46 2496   5.446   2.643   3.055
   50DPPC   C47 2497   5.401   2.523   2.972
   50DPPC   C48 2498   5.299   2.564   2.866
   50DPPC   C49 2499   5.254   2.444   2.783
   50DPPC   C50 2500   5.172   2.346   2.867
   51DPPC    C1 2501   1.975   4.396   5.325
   51DPPC    C2 2502   2.004   4.236   5.499
   51DPPC    C3 2503   1.812   4.223   5.363
   51DPPC    N4 2504   1.905   4.317   5.427
   51DPPC    C5 2505   1.836   4.404   5.526
   51DPPC    C6 2506   1.703   4.473   5.487
   51DPPC   OS7 2507   1.709   4.559   5.374
   51DPPC    P8 2508   1.566   4.615   5.343
   51DPPC   OM9 2509   1.531   4.707   5.452
   51DPPC  OM10 2510   1.481   4.499   5.316
   51DPPC  OS11 2511   1.590   4.695   5.211
   51DPPC   C12 2512   1.621   4.610   5.101
   51DPPC   C13 2513   1.565   4.659   4.967
   51DPPC  OS14 2514   1.569   4.554   4.867
   51DPPC   C15 2515   1.449   4.503   4.829
   51DPPC   O16 2516   1.351   4.509   4.905
   51DPPC   C17 2517   1.470   4.398   4.721
   51DPPC   C18 2518   1.338   4.347   4.663
   51DPPC   C19 2519   1.359   4.212   4.594
   51DPPC   C20 2520   1.440   4.220   4.464
   51DPPC   C21 2521   1.356   4.268   4.346
   51DPPC   C22 2522   1.434   4.255   4.215
   51DPPC   C23 2523   1.347   4.289   4.095
   51DPPC   C24 2524   1.421   4.265   3.963
   51DPPC   C25 2525   1.330   4.296   3.844
   51DPPC   C26 2526   1.403   4.278   3.710
   51DPPC   C27 2527   1.431   4.131   3.678
   51DPPC   C28 2528   1.504   4.119   3.545
   51DPPC   C29 2529   1.529   3.972   3.507
   51DPPC   C30 2530   1.397   3.902   3.472
   51DPPC   C31 2531   1.422   3.757   3.432
   51DPPC   C32 2532   1.639   4.790   4.930
   51DPPC  OS33 2533   1.576   4.868   4.826
   51DPPC   C34 2534   1.484   4.960   4.868
   51DPPC   O35 2535   1.473   4.996   4.985
   51DPPC   C36 2536   1.412   5.025   4.751
   51DPPC   C37 2537   1.508   5.070   4.641
   51DPPC   C38 2538   1.432   5.139   4.527
   51DPPC   C39 2539   1.526   5.174   4.412
   51DPPC   C40 2540   1.453   5.243   4.297
   51DPPC   C41 2541   1.346   5.151   4.236
   51DPPC   C42 2542   1.291   5.211   4.106
   51DPPC   C43 2543   1.179   5.125   4.048
   51DPPC   C44 2544   1.145   5.168   3.905
   51DPPC   C45 2545   1.024   5.089   3.853
   51DPPC   C46 2546   1.001   5.108   3.703
   51DPPC   C47 2547   0.968   5.253   3.666
   51DPPC   C48 2548   0.917   5.262   3.522
   51DPPC   C49 2549   1.024   5.224   3.420
   51DPPC   C50 2550   1.133   5.331   3.410
   52DPPC    C1 2551   1.537   0.664   5.239
   52DPPC    C2 2552   1.485   0.816   5.415
   52DPPC    C3 2553   1.710   0.786   5.350
   52DPPC    N4 2554   1.582   0.716   5.369
   52DPPC    C5 2555   1.591   0.607   5.470
   52DPPC    C6 2556   1.684   0.486   5.449
   52DPPC   OS7 2557   1.822   0.522   5.443
   52DPPC    P8 2558   1.921   0.403   5.454
   52DPPC   OM9 2559   1.875   0.294   5.367
   52DPPC  OM10 2560   1.935   0.379   5.599
   52DPPC  OS11 2561   2.039   0.485   5.389
   52DPPC   C12 2562   2.029   0.480   5.246
   52DPPC   C13 2563   2.126   0.569   5.167
   52DPPC  OS14 2564   2.103   0.557   5.024
   52DPPC   C15 2565   2.071   0.671   4.957
   52DPPC   O16 2566   2.027   0.772   5.015
   52DPPC   C17 2567   2.056   0.641   4.809
   52DPPC   C18 2568   2.114   0.751   4.721
   52DPPC   C19 2569   2.267   0.746   4.719
   52DPPC   C20 2570   2.320   0.622   4.646
   52DPPC   C21 2571   2.473   0.624   4.645
   52DPPC   C22 2572   2.534   0.501   4.577
   52DPPC   C23 2573   2.686   0.510   4.582
   52DPPC   C24 2574   2.755   0.383   4.530
   52DPPC   C25 2575   2.906   0.397   4.545
   52DPPC   C26 2576   2.979   0.267   4.511
   52DPPC   C27 2577   2.981   0.238   4.361
   52DPPC   C28 2578   3.075   0.335   4.287
   52DPPC   C29 2579   3.090   0.294   4.140
   52DPPC   C30 2580   2.957   0.310   4.065
   52DPPC   C31 2581   2.972   0.264   3.920
   52DPPC   C32 2582   2.268   0.529   5.212
   52DPPC  OS33 2583   2.377   0.613   5.168
   52DPPC   C34 2584   2.401   0.724   5.244
   52DPPC   O35 2585   2.341   0.752   5.348
   52DPPC   C36 2586   2.522   0.799   5.192
   52DPPC   C37 2587   2.486   0.898   5.081
   52DPPC   C38 2588   2.405   1.016   5.135
   52DPPC   C39 2589   2.411   1.133   5.036
   52DPPC   C40 2590   2.344   1.100   4.902
   52DPPC   C41 2591   2.379   1.207   4.800
   52DPPC   C42 2592   2.307   1.187   4.667
   52DPPC   C43 2593   2.356   1.290   4.564
   52DPPC   C44 2594   2.274   1.284   4.436
   52DPPC   C45 2595   2.280   1.145   4.374
   52DPPC   C46 2596   2.217   1.145   4.234
   52DPPC   C47 2597   2.208   1.003   4.179
   52DPPC   C48 2598   2.174   1.004   4.030
   52DPPC   C49 2599   2.038   1.069   4.005
   52DPPC   C50 2600   2.007   1.073   3.856
   53DPPC    C1 2601   1.791   2.503   5.765
   53DPPC    C2 2602   1.898   2.306   5.843
   53DPPC    C3 2603   1.924   2.510   5.963
   53DPPC    N4 2604   1.829   2.428   5.886
   53DPPC    C5 2605   1.712   2.391   5.968
   53DPPC    C6 2606   1.617   2.500   6.023
   53DPPC   OS7 2607   1.540   2.563   5.921
   53DPPC    P8 2608   1.479   2.697   5.973
   53DPPC   OM9 2609   1.596   2.780   6.003
   53DPPC  OM10 2610   1.381   2.656   6.075
   53DPPC  OS11 2611   1.415   2.738   5.835
   53DPPC   C12 2612   1.296   2.665   5.807
   53DPPC   C13 2613   1.259   2.669   5.658
   53DPPC  OS14 2614   1.118   2.649   5.635
   53DPPC   C15 2615   1.061   2.737   5.548
   53DPPC   O16 2616   1.109   2.849   5.526
   53DPPC   C17 2617   0.918   2.698   5.518
   53DPPC   C18 2618   0.898   2.679   5.367
   53DPPC   C19 2619   0.958   2.546   5.321
   53DPPC   C20 2620   0.945   2.531   5.169
   53DPPC   C21 2621   0.982   2.388   5.128
   53DPPC   C22 2622   0.974   2.369   4.977
   53DPPC   C23 2623   0.984   2.220   4.944
   53DPPC   C24 2624   0.994   2.195   4.793
   53DPPC   C25 2625   1.130   2.239   4.741
   53DPPC   C26 2626   1.145   2.204   4.593
   53DPPC   C27 2627   1.284   2.244   4.542
   53DPPC   C28 2628   1.301   2.207   4.395
   53DPPC   C29 2629   1.439   2.249   4.343
   53DPPC   C30 2630   1.456   2.213   4.196
   53DPPC   C31 2631   1.592   2.260   4.144
   53DPPC   C32 2632   1.358   2.574   5.585
   53DPPC  OS33 2633   1.340   2.563   5.442
   53DPPC   C34 2634   1.439   2.606   5.359
   53DPPC   O35 2635   1.545   2.659   5.396
   53DPPC   C36 2636   1.397   2.592   5.214
   53DPPC   C37 2637   1.517   2.611   5.121
   53DPPC   C38 2638   1.471   2.639   4.978
   53DPPC   C39 2639   1.591   2.656   4.885
   53DPPC   C40 2640   1.548   2.707   4.747
   53DPPC   C41 2641   1.457   2.606   4.676
   53DPPC   C42 2642   1.411   2.661   4.541
   53DPPC   C43 2643   1.524   2.664   4.439
   53DPPC   C44 2644   1.476   2.723   4.306
   53DPPC   C45 2645   1.362   2.640   4.249
   53DPPC   C46 2646   1.313   2.695   4.114
   53DPPC   C47 2647   1.192   2.616   4.065
   53DPPC   C48 2648   1.143   2.667   3.929
   53DPPC   C49 2649   1.238   2.623   3.817
   53DPPC   C50 2650   1.226   2.473   3.790
   54DPPC    C1 2651   3.945   4.603   5.999
   54DPPC    C2 2652   4.076   4.630   5.803
   54DPPC    C3 2653   3.839   4.596   5.786
   54DPPC    N4 2654   3.961   4.558   5.860
   54DPPC    C5 2655   3.983   4.411   5.863
   54DPPC    C6 2656   3.969   4.323   5.736
   54DPPC   OS7 2657   3.834   4.299   5.694
   54DPPC    P8 2658   3.825   4.184   5.587
   54DPPC   OM9 2659   3.682   4.152   5.576
   54DPPC  OM10 2660   3.922   4.081   5.623
   54DPPC  OS11 2661   3.873   4.267   5.462
   54DPPC   C12 2662   3.765   4.335   5.398
   54DPPC   C13 2663   3.805   4.417   5.274
   54DPPC  OS14 2664   3.688   4.482   5.218
   54DPPC   C15 2665   3.699   4.578   5.122
   54DPPC   O16 2666   3.792   4.660   5.122
   54DPPC   C17 2667   3.563   4.605   5.062
   54DPPC   C18 2668   3.572   4.611   4.909
   54DPPC   C19 2669   3.600   4.472   4.851
   54DPPC   C20 2670   3.612   4.481   4.698
   54DPPC   C21 2671   3.651   4.347   4.637
   54DPPC   C22 2672   3.670   4.363   4.486
   54DPPC   C23 2673   3.717   4.233   4.420
   54DPPC   C24 2674   3.732   4.254   4.269
   54DPPC   C25 2675   3.780   4.127   4.198
   54DPPC   C26 2676   3.787   4.149   4.047
   54DPPC   C27 2677   3.837   4.024   3.975
   54DPPC   C28 2678   3.734   3.911   3.982
   54DPPC   C29 2679   3.610   3.942   3.899
   54DPPC   C30 2680   3.510   3.826   3.903
   54DPPC   C31 2681   3.384   3.858   3.824
   54DPPC   C32 2682   3.878   4.318   5.180
   54DPPC  OS33 2683   3.792   4.220   5.118
   54DPPC   C34 2684   3.849   4.109   5.065
   54DPPC   O35 2685   3.952   4.057   5.107
   54DPPC   C36 2686   3.743   4.035   4.985
   54DPPC   C37 2687   3.797   3.984   4.851
   54DPPC   C38 2688   3.686   3.908   4.777
   54DPPC   C39 2689   3.730   3.858   4.640
   54DPPC   C40 2690   3.616   3.777   4.576
   54DPPC   C41 2691   3.596   3.644   4.649
   54DPPC   C42 2692   3.470   3.573   4.600
   54DPPC   C43 2693   3.345   3.646   4.652
   54DPPC   C44 2694   3.218   3.587   4.592
   54DPPC   C45 2695   3.095   3.664   4.641
   54DPPC   C46 2696   2.971   3.628   4.559
   54DPPC   C47 2697   2.924   3.484   4.583
   54DPPC   C48 2698   2.862   3.470   4.722
   54DPPC   C49 2699   2.804   3.330   4.743
   54DPPC   C50 2700   2.740   3.318   4.881
   55DPPC    C1 2701   1.358   3.724   5.286
   55DPPC    C2 2702   1.412   3.503   5.359
   55DPPC    C3 2703   1.239   3.625   5.466
   55DPPC    N4 2704   1.372   3.637   5.404
   55DPPC    C5 2705   1.467   3.690   5.505
   55DPPC    C6 2706   1.612   3.725   5.465
   55DPPC   OS7 2707   1.622   3.841   5.382
   55DPPC    P8 2708   1.765   3.850   5.316
   55DPPC   OM9 2709   1.850   3.901   5.424
   55DPPC  OM10 2710   1.789   3.722   5.249
   55DPPC  OS11 2711   1.725   3.964   5.216
   55DPPC   C12 2712   1.671   3.914   5.094
   55DPPC   C13 2713   1.561   4.004   5.036
   55DPPC  OS14 2714   1.485   3.943   4.929
   55DPPC   C15 2715   1.350   3.940   4.942
   55DPPC   O16 2716   1.292   3.972   5.046
   55DPPC   C17 2717   1.284   3.882   4.817
   55DPPC   C18 2718   1.132   3.876   4.833
   55DPPC   C19 2719   1.065   3.841   4.700
   55DPPC   C20 2720   0.914   3.830   4.717
   55DPPC   C21 2721   0.845   3.807   4.583
   55DPPC   C22 2722   0.885   3.672   4.521
   55DPPC   C23 2723   0.810   3.650   4.390
   55DPPC   C24 2724   0.660   3.643   4.416
   55DPPC   C25 2725   0.580   3.618   4.289
   55DPPC   C26 2726   0.605   3.478   4.233
   55DPPC   C27 2727   0.504   3.448   4.122
   55DPPC   C28 2728   0.523   3.308   4.063
   55DPPC   C29 2729   0.408   3.275   3.967
   55DPPC   C30 2730   0.410   3.364   3.843
   55DPPC   C31 2731   0.527   3.329   3.750
   55DPPC   C32 2732   1.622   4.143   5.010
   55DPPC  OS33 2733   1.744   4.148   4.932
   55DPPC   C34 2734   1.817   4.262   4.947
   55DPPC   O35 2735   1.812   4.332   5.048
   55DPPC   C36 2736   1.935   4.261   4.852
   55DPPC   C37 2737   1.920   4.358   4.735
   55DPPC   C38 2738   1.831   4.299   4.625
   55DPPC   C39 2739   1.900   4.179   4.560
   55DPPC   C40 2740   1.810   4.115   4.453
   55DPPC   C41 2741   1.879   3.993   4.392
   55DPPC   C42 2742   1.792   3.923   4.288
   55DPPC   C43 2743   1.867   3.802   4.232
   55DPPC   C44 2744   1.783   3.726   4.129
   55DPPC   C45 2745   1.764   3.808   4.001
   55DPPC   C46 2746   1.694   3.724   3.894
   55DPPC   C47 2747   1.784   3.607   3.854
   55DPPC   C48 2748   1.719   3.519   3.747
   55DPPC   C49 2749   1.809   3.399   3.717
   55DPPC   C50 2750   1.749   3.308   3.610
   56DPPC    C1 2751   0.521   4.769   5.560
   56DPPC    C2 2752   0.692   4.797   5.395
   56DPPC    C3 2753   0.708   4.906   5.606
   56DPPC    N4 2754   0.615   4.865   5.500
   56DPPC    C5 2755   0.546   4.984   5.446
   56DPPC    C6 2756   0.450   4.960   5.327
   56DPPC   OS7 2757   0.389   5.077   5.272
   56DPPC    P8 2758   0.279   5.037   5.167
   56DPPC   OM9 2759   0.203   5.159   5.137
   56DPPC  OM10 2760   0.209   4.918   5.220
   56DPPC  OS11 2761   0.371   4.999   5.046
   56DPPC   C12 2762   0.314   4.898   4.963
   56DPPC   C13 2763   0.231   4.944   4.841
   56DPPC  OS14 2764   0.133   4.846   4.800
   56DPPC   C15 2765   0.002   4.884   4.806
   56DPPC   O16 2766   5.650   4.975   4.879
   56DPPC   C17 2767   5.597   4.778   4.746
   56DPPC   C18 2768   5.455   4.830   4.727
   56DPPC   C19 2769   5.440   4.918   4.602
   56DPPC   C20 2770   5.454   4.834   4.475
   56DPPC   C21 2771   5.433   4.919   4.349
   56DPPC   C22 2772   5.461   4.836   4.223
   56DPPC   C23 2773   5.357   4.725   4.204
   56DPPC   C24 2774   5.398   4.630   4.092
   56DPPC   C25 2775   5.387   4.692   3.953
   56DPPC   C26 2776   5.242   4.699   3.906
   56DPPC   C27 2777   5.233   4.748   3.761
   56DPPC   C28 2778   5.089   4.745   3.710
   56DPPC   C29 2779   5.081   4.788   3.563
   56DPPC   C30 2780   4.938   4.780   3.511
   56DPPC   C31 2781   4.931   4.821   3.364
   56DPPC   C32 2782   0.329   4.983   4.729
   56DPPC  OS33 2783   0.402   5.106   4.746
   56DPPC   C34 2784   0.461   5.151   4.633
   56DPPC   O35 2785   0.470   5.086   4.529
   56DPPC   C36 2786   0.529   5.285   4.657
   56DPPC   C37 2787   0.524   5.373   4.532
   56DPPC   C38 2788   0.381   5.422   4.506
   56DPPC   C39 2789   0.376   5.516   4.386
   56DPPC   C40 2790   0.422   5.446   4.259
   56DPPC   C41 2791   0.413   5.540   4.139
   56DPPC   C42 2792   0.268   5.561   4.095
   56DPPC   C43 2793   0.260   0.056   3.982
   56DPPC   C44 2794   0.118   0.068   3.927
   56DPPC   C45 2795   0.111   0.177   3.820
   56DPPC   C46 2796   0.118   0.315   3.884
   56DPPC   C47 2797   0.128   0.426   3.779
   56DPPC   C48 2798   0.265   0.424   3.712
   56DPPC   C49 2799   0.282   0.542   3.616
   56DPPC   C50 2800   0.419   0.539   3.549
   57DPPC    C1 2801   2.271   3.641   5.557
   57DPPC    C2 2802   2.054   3.651   5.459
   57DPPC    C3 2803   2.073   3.630   5.694
   57DPPC    N4 2804   2.133   3.589   5.566
   57DPPC    C5 2805   2.129   3.443   5.546
   57DPPC    C6 2806   2.209   3.350   5.642
   57DPPC   OS7 2807   2.199   3.211   5.611
   57DPPC    P8 2808   2.328   3.156   5.541
   57DPPC   OM9 2809   2.427   3.157   5.650
   57DPPC  OM10 2810   2.341   3.239   5.421
   57DPPC  OS11 2811   2.266   3.013   5.516
   57DPPC   C12 2812   2.180   3.011   5.402
   57DPPC   C13 2813   2.091   2.885   5.391
   57DPPC  OS14 2814   2.161   2.768   5.342
   57DPPC   C15 2815   2.102   2.645   5.350
   57DPPC   O16 2816   2.008   2.622   5.427
   57DPPC   C17 2817   2.183   2.540   5.277
   57DPPC   C18 2818   2.205   2.579   5.131
   57DPPC   C19 2819   2.079   2.562   5.047
   57DPPC   C20 2820   2.106   2.608   4.904
   57DPPC   C21 2821   1.992   2.572   4.809
   57DPPC   C22 2822   2.031   2.608   4.666
   57DPPC   C23 2823   1.942   2.537   4.564
   57DPPC   C24 2824   2.007   2.547   4.426
   57DPPC   C25 2825   1.943   2.448   4.328
   57DPPC   C26 2826   2.029   2.440   4.201
   57DPPC   C27 2827   1.979   2.332   4.105
   57DPPC   C28 2828   2.071   2.322   3.984
   57DPPC   C29 2829   2.211   2.275   4.026
   57DPPC   C30 2830   2.304   2.264   3.906
   57DPPC   C31 2831   2.328   2.400   3.842
   57DPPC   C32 2832   1.969   2.928   5.307
   57DPPC  OS33 2833   1.999   2.976   5.175
   57DPPC   C34 2834   1.896   2.976   5.085
   57DPPC   O35 2835   1.779   2.950   5.114
   57DPPC   C36 2836   1.947   3.017   4.948
   57DPPC   C37 2837   1.847   2.983   4.837
   57DPPC   C38 2838   1.899   3.031   4.701
   57DPPC   C39 2839   1.794   3.006   4.593
   57DPPC   C40 2840   1.843   3.055   4.456
   57DPPC   C41 2841   1.733   3.038   4.351
   57DPPC   C42 2842   1.780   3.085   4.213
   57DPPC   C43 2843   1.666   3.074   4.111
   57DPPC   C44 2844   1.553   3.171   4.147
   57DPPC   C45 2845   1.439   3.166   4.045
   57DPPC   C46 2846   1.487   3.211   3.908
   57DPPC   C47 2847   1.370   3.230   3.811
   57DPPC   C48 2848   1.297   3.098   3.788
   57DPPC   C49 2849   1.179   3.119   3.692
   57DPPC   C50 2850   1.097   2.991   3.677
   58DPPC    C1 2851   4.106   0.200   5.568
   58DPPC    C2 2852   4.129   0.031   5.733
   58DPPC    C3 2853   4.321   0.151   5.658
   58DPPC    N4 2854   4.193   0.092   5.616
   58DPPC    C5 2855   4.210   5.600   5.506
   58DPPC    C6 2856   4.299   5.476   5.530
   58DPPC   OS7 2857   4.312   5.386   5.421
   58DPPC    P8 2858   4.365   5.248   5.476
   58DPPC   OM9 2859   4.244   5.190   5.534
   58DPPC  OM10 2860   4.484   5.275   5.558
   58DPPC  OS11 2861   4.401   5.178   5.340
   58DPPC   C12 2862   4.515   5.239   5.281
   58DPPC   C13 2863   4.592   5.151   5.182
   58DPPC  OS14 2864   4.711   5.219   5.134
   58DPPC   C15 2865   4.833   5.169   5.169
   58DPPC   O16 2866   4.847   5.069   5.241
   58DPPC   C17 2867   4.943   5.262   5.123
   58DPPC   C18 2868   5.046   5.191   5.035
   58DPPC   C19 2869   4.985   5.161   4.898
   58DPPC   C20 2870   5.082   5.080   4.811
   58DPPC   C21 2871   5.014   5.048   4.678
   58DPPC   C22 2872   4.890   4.962   4.702
   58DPPC   C23 2873   4.821   4.929   4.569
   58DPPC   C24 2874   4.753   5.052   4.511
   58DPPC   C25 2875   4.697   5.021   4.372
   58DPPC   C26 2876   4.614   5.137   4.320
   58DPPC   C27 2877   4.485   5.151   4.402
   58DPPC   C28 2878   4.402   5.268   4.352
   58DPPC   C29 2879   4.271   5.279   4.430
   58DPPC   C30 2880   4.195   5.404   4.386
   58DPPC   C31 2881   4.163   5.399   4.237
   58DPPC   C32 2882   4.494   5.104   5.073
   58DPPC  OS33 2883   4.428   5.207   4.998
   58DPPC   C34 2884   4.303   5.180   4.952
   58DPPC   O35 2885   4.236   5.083   4.989
   58DPPC   C36 2886   4.248   5.299   4.876
   58DPPC   C37 2887   4.095   5.299   4.875
   58DPPC   C38 2888   4.037   5.213   4.763
   58DPPC   C39 2889   3.890   5.184   4.790
   58DPPC   C40 2890   3.805   5.312   4.792
   58DPPC   C41 2891   3.775   5.365   4.652
   58DPPC   C42 2892   3.673   5.478   4.662
   58DPPC   C43 2893   3.629   5.530   4.525
   58DPPC   C44 2894   3.743   5.603   4.454
   58DPPC   C45 2895   3.692   0.066   4.328
   58DPPC   C46 2896   3.655   5.573   4.218
   58DPPC   C47 2897   3.781   5.512   4.156
   58DPPC   C48 2898   3.746   5.419   4.040
   58DPPC   C49 2899   3.873   5.367   3.974
   58DPPC   C50 2900   3.952   5.482   3.911
   59DPPC    C1 2901   2.934   3.687   6.032
   59DPPC    C2 2902   2.905   3.743   5.801
   59DPPC    C3 2903   3.003   3.536   5.863
   59DPPC    N4 2904   2.994   3.678   5.898
   59DPPC    C5 2905   3.131   3.735   5.899
   59DPPC    C6 2906   3.145   3.885   5.934
   59DPPC   OS7 2907   3.280   3.932   5.948
   59DPPC    P8 2908   3.280   4.089   5.957
   59DPPC   OM9 2909   3.413   4.131   6.003
   59DPPC  OM10 2910   3.160   4.139   6.023
   59DPPC  OS11 2911   3.272   4.115   5.803
   59DPPC   C12 2912   3.231   4.249   5.776
   59DPPC   C13 2913   3.225   4.284   5.627
   59DPPC  OS14 2914   3.192   4.424   5.607
   59DPPC   C15 2915   3.293   4.507   5.567
   59DPPC   O16 2916   3.413   4.478   5.577
   59DPPC   C17 2917   3.238   4.646   5.539
   59DPPC   C18 2918   3.135   4.643   5.426
   59DPPC   C19 2919   3.204   4.619   5.291
   59DPPC   C20 2920   3.103   4.605   5.177
   59DPPC   C21 2921   3.178   4.584   5.045
   59DPPC   C22 2922   3.084   4.559   4.928
   59DPPC   C23 2923   3.164   4.551   4.798
   59DPPC   C24 2924   3.077   4.520   4.677
   59DPPC   C25 2925   3.161   4.526   4.550
   59DPPC   C26 2926   3.080   4.490   4.425
   59DPPC   C27 2927   3.167   4.509   4.301
   59DPPC   C28 2928   3.285   4.412   4.301
   59DPPC   C29 2929   3.384   4.445   4.188
   59DPPC   C30 2930   3.329   4.412   4.050
   59DPPC   C31 2931   3.331   4.261   4.021
   59DPPC   C32 2932   3.125   4.185   5.562
   59DPPC  OS33 2933   3.104   4.204   5.421
   59DPPC   C34 2934   2.974   4.203   5.380
   59DPPC   O35 2935   2.879   4.169   5.451
   59DPPC   C36 2936   2.963   4.232   5.232
   59DPPC   C37 2937   2.817   4.258   5.193
   59DPPC   C38 2938   2.805   4.296   5.046
   59DPPC   C39 2939   2.836   4.178   4.954
   59DPPC   C40 2940   2.818   4.218   4.807
   59DPPC   C41 2941   2.834   4.097   4.714
   59DPPC   C42 2942   2.799   4.135   4.570
   59DPPC   C43 2943   2.803   4.013   4.478
   59DPPC   C44 2944   2.751   4.048   4.339
   59DPPC   C45 2945   2.848   4.139   4.263
   59DPPC   C46 2946   2.787   4.182   4.130
   59DPPC   C47 2947   2.884   4.266   4.047
   59DPPC   C48 2948   2.816   4.319   3.922
   59DPPC   C49 2949   2.770   4.205   3.830
   59DPPC   C50 2950   2.698   4.259   3.707
   60DPPC    C1 2951   1.178   4.299   5.511
   60DPPC    C2 2952   1.168   4.534   5.477
   60DPPC    C3 2953   1.324   4.442   5.630
   60DPPC    N4 2954   1.188   4.429   5.578
   60DPPC    C5 2955   1.093   4.438   5.691
   60DPPC    C6 2956   0.941   4.454   5.665
   60DPPC   OS7 2957   0.883   4.351   5.585
   60DPPC    P8 2958   0.732   4.382   5.553
   60DPPC   OM9 2959   0.725   4.525   5.521
   60DPPC  OM10 2960   0.654   4.328   5.665
   60DPPC  OS11 2961   0.720   4.292   5.425
   60DPPC   C12 2962   0.739   4.369   5.306
   60DPPC   C13 2963   0.735   4.290   5.174
   60DPPC  OS14 2964   0.756   4.380   5.060
   60DPPC   C15 2965   0.850   4.337   4.971
   60DPPC   O16 2966   0.940   4.262   5.008
   60DPPC   C17 2967   0.859   4.437   4.857
   60DPPC   C18 2968   0.951   4.391   4.744
   60DPPC   C19 2969   0.882   4.289   4.654
   60DPPC   C20 2970   0.966   4.262   4.529
   60DPPC   C21 2971   0.894   4.166   4.435
   60DPPC   C22 2972   0.980   4.135   4.312
   60DPPC   C23 2973   0.908   4.033   4.224
   60DPPC   C24 2974   0.992   3.995   4.101
   60DPPC   C25 2975   1.119   3.920   4.141
   60DPPC   C26 2976   1.186   3.860   4.017
   60DPPC   C27 2977   1.099   3.748   3.961
   60DPPC   C28 2978   1.097   3.627   4.055
   60DPPC   C29 2979   0.989   3.527   4.015
   60DPPC   C30 2980   1.017   3.465   3.878
   60DPPC   C31 2981   0.906   3.367   3.840
   60DPPC   C32 2982   0.602   4.212   5.174
   60DPPC  OS33 2983   0.564   4.141   5.054
   60DPPC   C34 2984   0.600   4.012   5.035
   60DPPC   O35 2985   0.646   3.937   5.122
   60DPPC   C36 2986   0.545   3.964   4.902
   60DPPC   C37 2987   0.537   3.811   4.896
   60DPPC   C38 2988   0.453   3.765   4.778
   60DPPC   C39 2989   0.450   3.613   4.768
   60DPPC   C40 2990   0.344   3.566   4.668
   60DPPC   C41 2991   0.342   3.413   4.656
   60DPPC   C42 2992   0.223   3.369   4.571
   60DPPC   C43 2993   0.235   3.420   4.427
   60DPPC   C44 2994   0.110   3.385   4.346
   60DPPC   C45 2995   0.097   3.234   4.325
   60DPPC   C46 2996   5.656   3.202   4.246
   60DPPC   C47 2997   5.641   3.051   4.223
   60DPPC   C48 2998   0.064   2.999   4.129
   60DPPC   C49 2999   0.043   2.851   4.099
   60DPPC   C50 3000   0.152   2.798   4.005
   61DPPC    C1 3001   4.202   3.898   5.200
   61DPPC    C2 3002   4.240   3.722   5.360
   61DPPC    C3 3003   4.022   3.766   5.274
   61DPPC    N4 3004   4.147   3.828   5.318
   61DPPC    C5 3005   4.118   3.925   5.426
   61DPPC    C6 3006   4.233   3.992   5.504
   61DPPC   OS7 3007   4.319   4.077   5.428
   61DPPC    P8 3008   4.436   4.126   5.519
   61DPPC   OM9 3009   4.518   4.012   5.558
   61DPPC  OM10 3010   4.371   4.210   5.621
   61DPPC  OS11 3011   4.509   4.213   5.411
   61DPPC   C12 3012   4.540   4.345   5.455
   61DPPC   C13 3013   4.603   4.436   5.349
   61DPPC  OS14 3014   4.515   4.471   5.238
   61DPPC   C15 3015   4.541   4.593   5.183
   61DPPC   O16 3016   4.617   4.675   5.236
   61DPPC   C17 3017   4.475   4.612   5.047
   61DPPC   C18 3018   4.559   4.714   4.969
   61DPPC   C19 3019   4.542   4.707   4.817
   61DPPC   C20 3020   4.406   4.759   4.769
   61DPPC   C21 3021   4.412   4.788   4.619
   61DPPC   C22 3022   4.435   4.661   4.536
   61DPPC   C23 3023   4.469   4.696   4.391
   61DPPC   C24 3024   4.350   4.756   4.316
   61DPPC   C25 3025   4.396   4.818   4.184
   61DPPC   C26 3026   4.280   4.881   4.107
   61DPPC   C27 3027   4.331   4.975   3.998
   61DPPC   C28 3028   4.414   4.900   3.893
   61DPPC   C29 3029   4.469   4.998   3.789
   61DPPC   C30 3030   4.561   4.928   3.689
   61DPPC   C31 3031   4.482   4.830   3.601
   61DPPC   C32 3032   4.726   4.359   5.297
   61DPPC  OS33 3033   4.825   4.318   5.394
   61DPPC   C34 3034   4.924   4.245   5.336
   61DPPC   O35 3035   5.014   4.192   5.401
   61DPPC   C36 3036   4.895   4.221   5.189
   61DPPC   C37 3037   5.021   4.210   5.104
   61DPPC   C38 3038   4.987   4.161   4.964
   61DPPC   C39 3039   4.886   4.252   4.894
   61DPPC   C40 3040   4.861   4.203   4.751
   61DPPC   C41 3041   4.745   4.277   4.684
   61DPPC   C42 3042   4.734   4.232   4.538
   61DPPC   C43 3043   4.614   4.295   4.466
   61DPPC   C44 3044   4.625   4.270   4.315
   61DPPC   C45 3045   4.509   4.333   4.238
   61DPPC   C46 3046   4.387   4.240   4.232
   61DPPC   C47 3047   4.414   4.125   4.135
   61DPPC   C48 3048   4.290   4.038   4.115
   61DPPC   C49 3049   4.318   3.927   4.013
   61DPPC   C50 3050   4.194   3.841   3.989
   62DPPC    C1 3051   3.334   5.571   5.553
   62DPPC    C2 3052   3.305   5.531   5.319
   62DPPC    C3 3053   3.116   5.554   5.461
   62DPPC    N4 3054   3.253   5.500   5.453
   62DPPC    C5 3055   3.247   5.354   5.479
   62DPPC    C6 3056   3.376   5.270   5.471
   62DPPC   OS7 3057   3.353   5.129   5.481
   62DPPC    P8 3058   3.477   5.043   5.435
   62DPPC   OM9 3059   3.446   4.902   5.456
   62DPPC  OM10 3060   3.596   5.102   5.498
   62DPPC  OS11 3061   3.471   5.073   5.281
   62DPPC   C12 3062   3.372   4.994   5.214
   62DPPC   C13 3063   3.339   5.044   5.072
   62DPPC  OS14 3064   3.237   4.967   5.003
   62DPPC   C15 3065   3.111   5.018   5.007
   62DPPC   O16 3066   3.073   5.090   5.099
   62DPPC   C17 3067   3.021   4.954   4.903
   62DPPC   C18 3068   3.072   4.983   4.762
   62DPPC   C19 3069   2.970   4.944   4.655
   62DPPC   C20 3070   3.026   4.974   4.515
   62DPPC   C21 3071   2.921   4.953   4.406
   62DPPC   C22 3072   2.982   4.986   4.270
   62DPPC   C23 3073   2.881   4.984   4.154
   62DPPC   C24 3074   2.831   4.843   4.123
   62DPPC   C25 3075   2.943   4.751   4.073
   62DPPC   C26 3076   3.000   4.794   3.938
   62DPPC   C27 3077   3.122   4.708   3.906
   62DPPC   C28 3078   3.192   4.750   3.776
   62DPPC   C29 3079   3.319   4.667   3.758
   62DPPC   C30 3080   3.394   4.704   3.630
   62DPPC   C31 3081   3.521   4.620   3.617
   62DPPC   C32 3082   3.474   5.050   4.997
   62DPPC  OS33 3083   3.467   5.096   4.861
   62DPPC   C34 3084   3.534   5.017   4.772
   62DPPC   O35 3085   3.625   4.940   4.806
   62DPPC   C36 3086   3.508   5.066   4.631
   62DPPC   C37 3087   3.571   4.972   4.527
   62DPPC   C38 3088   3.486   4.848   4.504
   62DPPC   C39 3089   3.559   4.751   4.411
   62DPPC   C40 3090   3.585   4.814   4.274
   62DPPC   C41 3091   3.663   4.719   4.184
   62DPPC   C42 3092   3.698   4.787   4.052
   62DPPC   C43 3093   3.776   4.692   3.960
   62DPPC   C44 3094   3.909   4.652   4.022
   62DPPC   C45 3095   3.992   4.567   3.925
   62DPPC   C46 3096   4.121   4.518   3.991
   62DPPC   C47 3097   4.207   4.444   3.888
   62DPPC   C48 3098   4.137   4.319   3.837
   62DPPC   C49 3099   4.222   4.247   3.733
   62DPPC   C50 3100   4.150   4.124   3.678
   63DPPC    C1 3101   5.500   4.137   5.552
   63DPPC    C2 3102   5.267   4.082   5.557
   63DPPC    C3 3103   5.427   3.941   5.664
   63DPPC    N4 3104   5.392   4.081   5.634
   63DPPC    C5 3105   5.381   4.153   5.763
   63DPPC    C6 3106   5.337   4.302   5.767
   63DPPC   OS7 3107   5.198   4.324   5.743
   63DPPC    P8 3108   5.159   4.476   5.758
   63DPPC   OM9 3109   5.012   4.483   5.760
   63DPPC  OM10 3110   5.240   4.532   5.869
   63DPPC  OS11 3111   5.217   4.521   5.619
   63DPPC   C12 3112   5.117   4.525   5.518
   63DPPC   C13 3113   5.170   4.551   5.376
   63DPPC  OS14 3114   5.062   4.555   5.279
   63DPPC   C15 3115   5.061   4.663   5.196
   63DPPC   O16 3116   5.130   4.763   5.214
   63DPPC   C17 3117   4.949   4.650   5.093
   63DPPC   C18 3118   4.997   4.689   4.954
   63DPPC   C19 3119   5.100   4.588   4.901
   63DPPC   C20 3120   5.136   4.616   4.755
   63DPPC   C21 3121   5.022   4.578   4.661
   63DPPC   C22 3122   5.057   4.611   4.516
   63DPPC   C23 3123   4.940   4.577   4.423
   63DPPC   C24 3124   4.963   4.632   4.283
   63DPPC   C25 3125   4.843   4.605   4.192
   63DPPC   C26 3126   4.860   4.677   4.058
   63DPPC   C27 3127   4.739   4.654   3.967
   63DPPC   C28 3128   4.736   4.511   3.913
   63DPPC   C29 3129   4.615   4.489   3.822
   63DPPC   C30 3130   4.615   4.349   3.761
   63DPPC   C31 3131   4.726   4.335   3.657
   63DPPC   C32 3132   5.274   4.440   5.350
   63DPPC  OS33 3133   5.338   4.439   5.220
   63DPPC   C34 3134   5.411   4.329   5.192
   63DPPC   O35 3135   5.416   4.227   5.262
   63DPPC   C36 3136   5.470   4.340   5.052
   63DPPC   C37 3137   5.369   4.286   4.950
   63DPPC   C38 3138   5.413   4.304   4.805
   63DPPC   C39 3139   5.302   4.251   4.713
   63DPPC   C40 3140   5.336   4.268   4.565
   63DPPC   C41 3141   5.455   4.181   4.526
   63DPPC   C42 3142   5.487   4.195   4.377
   63DPPC   C43 3143   5.531   4.338   4.343
   63DPPC   C44 3144   5.664   4.374   4.409
   63DPPC   C45 3145   0.011   4.521   4.384
   63DPPC   C46 3146   0.139   4.562   4.457
   63DPPC   C47 3147   0.170   4.710   4.435
   63DPPC   C48 3148   0.202   4.736   4.288
   63DPPC   C49 3149   0.232   4.885   4.265
   63DPPC   C50 3150   0.258   4.911   4.117
   64DPPC    C1 3151   3.936   5.124   5.437
   64DPPC    C2 3152   4.065   5.005   5.277
   64DPPC    C3 3153   4.063   5.241   5.274
   64DPPC    N4 3154   3.980   5.123   5.297
   64DPPC    C5 3155   3.865   5.119   5.203
   64DPPC    C6 3156   3.753   5.226   5.213
   64DPPC   OS7 3157   3.786   5.362   5.181
   64DPPC    P8 3158   3.654   5.446   5.200
   64DPPC   OM9 3159   3.627   5.449   5.344
   64DPPC  OM10 3160   3.554   5.393   5.107
   64DPPC  OS11 3161   3.706   5.587   5.157
   64DPPC   C12 3162   3.677   0.013   5.021
   64DPPC   C13 3163   3.690   0.163   4.990
   64DPPC  OS14 3164   3.658   0.196   4.852
   64DPPC   C15 3165   3.607   0.321   4.831
   64DPPC   O16 3166   3.572   0.395   4.923
   64DPPC   C17 3167   3.581   0.347   4.683
   64DPPC   C18 3168   3.711   0.372   4.607
   64DPPC   C19 3169   3.769   0.511   4.636
   64DPPC   C20 3170   3.900   0.529   4.559
   64DPPC   C21 3171   3.960   0.668   4.578
   64DPPC   C22 3172   4.093   0.678   4.502
   64DPPC   C23 3173   4.151   0.820   4.508
   64DPPC   C24 3174   4.284   0.825   4.432
   64DPPC   C25 3175   4.339   0.967   4.422
   64DPPC   C26 3176   4.248   1.053   4.334
   64DPPC   C27 3177   4.307   1.190   4.303
   64DPPC   C28 3178   4.424   1.182   4.205
   64DPPC   C29 3179   4.467   1.323   4.161
   64DPPC   C30 3180   4.586   1.321   4.065
   64DPPC   C31 3181   4.717   1.292   4.139
   64DPPC   C32 3182   3.830   0.207   5.037
   64DPPC  OS33 3183   3.944   0.138   4.981
   64DPPC   C34 3184   4.021   0.215   4.898
   64DPPC   O35 3185   4.010   0.337   4.887
   64DPPC   C36 3186   4.135   0.131   4.842
   64DPPC   C37 3187   4.108   0.089   4.697
   64DPPC   C38 3188   4.134   0.203   4.598
   64DPPC   C39 3189   4.101   0.158   4.456
   64DPPC   C40 3190   4.131   0.265   4.351
   64DPPC   C41 3191   4.089   0.214   4.213
   64DPPC   C42 3192   4.121   0.315   4.102
   64DPPC   C43 3193   4.041   0.444   4.118
   64DPPC   C44 3194   4.062   0.534   3.996
   64DPPC   C45 3195   4.208   0.579   3.985
   64DPPC   C46 3196   4.231   0.655   3.854
   64DPPC   C47 3197   4.379   0.687   3.835
   64DPPC   C48 3198   4.405   0.751   3.699
   64DPPC   C49 3199   4.554   0.774   3.677
   64DPPC   C50 3200   4.629   0.642   3.664
   65DPPC    C1 3201   5.496   2.712   5.757
   65DPPC    C2 3202   5.349   2.745   5.572
   65DPPC    C3 3203   5.562   2.856   5.581
   65DPPC    N4 3204   5.447   2.811   5.660
   65DPPC    C5 3205   5.385   2.923   5.736
   65DPPC    C6 3206   5.332   3.045   5.657
   65DPPC   OS7 3207   5.273   3.147   5.738
   65DPPC    P8 3208   5.220   3.265   5.648
   65DPPC   OM9 3209   5.147   3.207   5.534
   65DPPC  OM10 3210   5.159   3.360   5.741
   65DPPC  OS11 3211   5.357   3.325   5.606
   65DPPC   C12 3212   5.338   3.434   5.517
   65DPPC   C13 3213   5.470   3.494   5.469
   65DPPC  OS14 3214   5.451   3.614   5.389
   65DPPC   C15 3215   5.553   3.704   5.380
   65DPPC   O16 3216   5.645   3.710   5.461
   65DPPC   C17 3217   5.514   3.813   5.281
   65DPPC   C18 3218   5.431   3.752   5.169
   65DPPC   C19 3219   5.386   3.855   5.065
   65DPPC   C20 3220   5.304   3.785   4.957
   65DPPC   C21 3221   5.257   3.883   4.849
   65DPPC   C22 3222   5.171   3.811   4.745
   65DPPC   C23 3223   5.116   3.909   4.642
   65DPPC   C24 3224   5.026   3.837   4.542
   65DPPC   C25 3225   4.961   3.934   4.443
   65DPPC   C26 3226   5.065   3.996   4.350
   65DPPC   C27 3227   4.998   4.079   4.240
   65DPPC   C28 3228   5.103   4.135   4.144
   65DPPC   C29 3229   5.038   4.208   4.026
   65DPPC   C30 3230   5.145   4.258   3.929
   65DPPC   C31 3231   5.082   4.327   3.808
   65DPPC   C32 3232   5.549   3.379   5.402
   65DPPC  OS33 3233   5.481   3.299   5.303
   65DPPC   C34 3234   5.512   3.167   5.305
   65DPPC   O35 3235   5.578   3.112   5.394
   65DPPC   C36 3236   5.438   3.091   5.196
   65DPPC   C37 3237   5.468   2.942   5.208
   65DPPC   C38 3238   5.390   2.859   5.105
   65DPPC   C39 3239   5.434   2.892   4.963
   65DPPC   C40 3240   5.370   2.796   4.862
   65DPPC   C41 3241   5.411   2.832   4.719
   65DPPC   C42 3242   5.348   2.965   4.678
   65DPPC   C43 3243   5.387   3.004   4.535
   65DPPC   C44 3244   5.326   2.910   4.431
   65DPPC   C45 3245   5.174   2.924   4.423
   65DPPC   C46 3246   5.131   3.058   4.362
   65DPPC   C47 3247   5.160   3.065   4.212
   65DPPC   C48 3248   5.101   3.194   4.154
   65DPPC   C49 3249   5.122   3.201   4.003
   65DPPC   C50 3250   5.054   3.326   3.945
   66DPPC    C1 3251   3.909   1.478   5.900
   66DPPC    C2 3252   3.693   1.386   5.938
   66DPPC    C3 3253   3.870   1.250   5.850
   66DPPC    N4 3254   3.809   1.384   5.847
   66DPPC    C5 3255   3.772   1.427   5.710
   66DPPC    C6 3256   3.660   1.356   5.630
   66DPPC   OS7 3257   3.686   1.223   5.585
   66DPPC    P8 3258   3.580   1.181   5.476
   66DPPC   OM9 3259   3.558   1.297   5.389
   66DPPC  OM10 3260   3.472   1.127   5.560
   66DPPC  OS11 3261   3.674   1.070   5.415
   66DPPC   C12 3262   3.765   1.128   5.320
   66DPPC   C13 3263   3.896   1.050   5.301
   66DPPC  OS14 3264   3.996   1.127   5.228
   66DPPC   C15 3265   4.127   1.106   5.255
   66DPPC   O16 3266   4.167   1.024   5.339
   66DPPC   C17 3267   4.217   1.196   5.171
   66DPPC   C18 3268   4.175   1.198   5.024
   66DPPC   C19 3269   4.272   1.282   4.942
   66DPPC   C20 3270   4.228   1.293   4.796
   66DPPC   C21 3271   4.099   1.375   4.783
   66DPPC   C22 3272   4.060   1.396   4.637
   66DPPC   C23 3273   4.161   1.488   4.568
   66DPPC   C24 3274   4.124   1.514   4.422
   66DPPC   C25 3275   4.230   1.602   4.355
   66DPPC   C26 3276   4.202   1.619   4.206
   66DPPC   C27 3277   4.312   1.702   4.140
   66DPPC   C28 3278   4.292   1.710   3.989
   66DPPC   C29 3279   4.401   1.796   3.923
   66DPPC   C30 3280   4.538   1.729   3.935
   66DPPC   C31 3281   4.646   1.815   3.870
   66DPPC   C32 3282   3.859   0.913   5.239
   66DPPC  OS33 3283   3.797   0.918   5.109
   66DPPC   C34 3284   3.873   0.886   5.001
   66DPPC   O35 3285   3.975   0.816   5.004
   66DPPC   C36 3286   3.797   0.921   4.874
   66DPPC   C37 3287   3.856   1.047   4.810
   66DPPC   C38 3288   3.766   1.104   4.700
   66DPPC   C39 3289   3.764   1.016   4.575
   66DPPC   C40 3290   3.677   1.081   4.467
   66DPPC   C41 3291   3.675   0.999   4.337
   66DPPC   C42 3292   3.814   0.996   4.272
   66DPPC   C43 3293   3.808   0.929   4.134
   66DPPC   C44 3294   3.949   0.910   4.076
   66DPPC   C45 3295   4.016   1.043   4.042
   66DPPC   C46 3296   3.964   1.103   3.911
   66DPPC   C47 3297   4.029   1.239   3.884
   66DPPC   C48 3298   4.179   1.226   3.855
   66DPPC   C49 3299   4.205   1.162   3.718
   66DPPC   C50 3300   4.355   1.155   3.690
   67DPPC    C1 3301   4.226   2.126   5.715
   67DPPC    C2 3302   4.143   1.997   5.900
   67DPPC    C3 3303   4.027   2.002   5.692
   67DPPC    N4 3304   4.160   2.000   5.754
   67DPPC    C5 3305   4.230   1.880   5.703
   67DPPC    C6 3306   4.377   1.854   5.745
   67DPPC   OS7 3307   4.425   1.724   5.710
   67DPPC    P8 3308   4.569   1.703   5.767
   67DPPC   OM9 3309   4.667   1.784   5.695
   67DPPC  OM10 3310   4.553   1.717   5.912
   67DPPC  OS11 3311   4.579   1.549   5.741
   67DPPC   C12 3312   4.638   1.518   5.614
   67DPPC   C13 3313   4.578   1.394   5.545
   67DPPC  OS14 3314   4.661   1.345   5.436
   67DPPC   C15 3315   4.644   1.217   5.393
   67DPPC   O16 3316   4.555   1.141   5.433
   67DPPC   C17 3317   4.740   1.185   5.280
   67DPPC   C18 3318   4.667   1.167   5.147
   67DPPC   C19 3319   4.768   1.149   5.033
   67DPPC   C20 3320   4.844   1.279   5.009
   67DPPC   C21 3321   4.947   1.262   4.897
   67DPPC   C22 3322   5.009   1.398   4.863
   67DPPC   C23 3323   5.115   1.384   4.753
   67DPPC   C24 3324   5.052   1.348   4.618
   67DPPC   C25 3325   5.163   1.332   4.514
   67DPPC   C26 3326   5.111   1.292   4.376
   67DPPC   C27 3327   5.231   1.274   4.283
   67DPPC   C28 3328   5.191   1.237   4.140
   67DPPC   C29 3329   5.317   1.230   4.054
   67DPPC   C30 3330   5.285   1.202   3.908
   67DPPC   C31 3331   5.414   1.203   3.824
   67DPPC   C32 3332   4.436   1.435   5.503
   67DPPC  OS33 3333   4.435   1.549   5.415
   67DPPC   C34 3334   4.324   1.566   5.337
   67DPPC   O35 3335   4.224   1.494   5.342
   67DPPC   C36 3336   4.342   1.684   5.244
   67DPPC   C37 3337   4.257   1.667   5.118
   67DPPC   C38 3338   4.280   1.784   5.024
   67DPPC   C39 3339   4.207   1.767   4.891
   67DPPC   C40 3340   4.243   1.884   4.799
   67DPPC   C41 3341   4.183   1.870   4.659
   67DPPC   C42 3342   4.242   1.978   4.569
   67DPPC   C43 3343   4.394   1.961   4.564
   67DPPC   C44 3344   4.461   2.078   4.491
   67DPPC   C45 3345   4.613   2.067   4.505
   67DPPC   C46 3346   4.681   2.189   4.443
   67DPPC   C47 3347   4.832   2.185   4.466
   67DPPC   C48 3348   4.899   2.310   4.408
   67DPPC   C49 3349   4.850   2.436   4.480
   67DPPC   C50 3350   4.919   2.560   4.424
   68DPPC    C1 3351   0.802   2.434   5.968
   68DPPC    C2 3352   0.982   2.412   5.814
   68DPPC    C3 3353   0.759   2.396   5.735
   68DPPC    N4 3354   0.847   2.363   5.847
   68DPPC    C5 3355   0.856   2.217   5.870
   68DPPC    C6 3356   0.733   2.134   5.915
   68DPPC   OS7 3357   0.622   2.123   5.824
   68DPPC    P8 3358   0.631   2.001   5.725
   68DPPC   OM9 3359   0.493   1.967   5.688
   68DPPC  OM10 3360   0.721   1.900   5.784
   68DPPC  OS11 3361   0.707   2.073   5.608
   68DPPC   C12 3362   0.623   2.117   5.502
   68DPPC   C13 3363   0.697   2.202   5.398
   68DPPC  OS14 3364   0.612   2.269   5.301
   68DPPC   C15 3365   0.550   2.386   5.331
   68DPPC   O16 3366   0.558   2.440   5.443
   68DPPC   C17 3367   0.474   2.444   5.213
   68DPPC   C18 3368   0.359   2.356   5.162
   68DPPC   C19 3369   0.408   2.238   5.078
   68DPPC   C20 3370   0.294   2.151   5.025
   68DPPC   C21 3371   0.352   2.025   4.962
   68DPPC   C22 3372   0.454   2.063   4.854
   68DPPC   C23 3373   0.518   1.940   4.789
   68DPPC   C24 3374   0.629   1.985   4.695
   68DPPC   C25 3375   0.689   1.867   4.619
   68DPPC   C26 3376   0.803   1.915   4.528
   68DPPC   C27 3377   0.855   1.800   4.443
   68DPPC   C28 3378   0.969   1.846   4.352
   68DPPC   C29 3379   1.010   1.734   4.257
   68DPPC   C30 3380   0.897   1.703   4.160
   68DPPC   C31 3381   0.935   1.589   4.066
   68DPPC   C32 3382   0.803   2.111   5.335
   68DPPC  OS33 3383   0.757   1.994   5.264
   68DPPC   C34 3384   0.857   1.925   5.202
   68DPPC   O35 3385   0.977   1.946   5.223
   68DPPC   C36 3386   0.802   1.810   5.120
   68DPPC   C37 3387   0.899   1.763   5.012
   68DPPC   C38 3388   0.842   1.636   4.949
   68DPPC   C39 3389   0.919   1.586   4.827
   68DPPC   C40 3390   0.851   1.459   4.777
   68DPPC   C41 3391   0.887   1.424   4.633
   68DPPC   C42 3392   0.797   1.309   4.587
   68DPPC   C43 3393   0.800   1.289   4.436
   68DPPC   C44 3394   0.696   1.185   4.395
   68DPPC   C45 3395   0.683   1.174   4.243
   68DPPC   C46 3396   0.807   1.111   4.182
   68DPPC   C47 3397   0.794   1.103   4.029
   68DPPC   C48 3398   0.793   1.243   3.969
   68DPPC   C49 3399   0.784   1.239   3.817
   68DPPC   C50 3400   0.791   1.380   3.758
   69DPPC    C1 3401   1.250   4.938   5.213
   69DPPC    C2 3402   1.460   4.984   5.312
   69DPPC    C3 3403   1.339   5.160   5.215
   69DPPC    N4 3404   1.325   5.037   5.292
   69DPPC    C5 3405   1.264   5.061   5.426
   69DPPC    C6 3406   1.131   5.139   5.437
   69DPPC   OS7 3407   1.017   5.076   5.376
   69DPPC    P8 3408   0.898   5.178   5.367
   69DPPC   OM9 3409   0.952   5.302   5.309
   69DPPC  OM10 3410   0.837   5.179   5.501
   69DPPC  OS11 3411   0.803   5.102   5.270
   69DPPC   C12 3412   0.850   5.106   5.135
   69DPPC   C13 3413   0.743   5.071   5.031
   69DPPC  OS14 3414   0.798   5.028   4.903
   69DPPC   C15 3415   0.734   4.924   4.843
   69DPPC   O16 3416   0.672   4.839   4.908
   69DPPC   C17 3417   0.788   4.905   4.703
   69DPPC   C18 3418   0.753   4.767   4.647
   69DPPC   C19 3419   0.836   4.739   4.522
   69DPPC   C20 3420   0.984   4.747   4.560
   69DPPC   C21 3421   1.077   4.713   4.444
   69DPPC   C22 3422   1.222   4.731   4.490
   69DPPC   C23 3423   1.323   4.685   4.384
   69DPPC   C24 3424   1.464   4.706   4.438
   69DPPC   C25 3425   1.570   4.644   4.346
   69DPPC   C26 3426   1.710   4.666   4.403
   69DPPC   C27 3427   1.755   4.811   4.384
   69DPPC   C28 3428   1.786   4.840   4.237
   69DPPC   C29 3429   1.842   4.980   4.217
   69DPPC   C30 3430   1.880   5.003   4.071
   69DPPC   C31 3431   1.938   5.143   4.050
   69DPPC   C32 3432   0.643   5.190   5.028
   69DPPC  OS33 3433   0.704   5.321   5.019
   69DPPC   C34 3434   0.625   5.431   5.027
   69DPPC   O35 3435   0.509   5.431   5.070
   69DPPC   C36 3436   0.712   5.555   5.018
   69DPPC   C37 3437   0.630   0.073   4.985
   69DPPC   C38 3438   0.600   0.079   4.835
   69DPPC   C39 3439   0.724   0.119   4.755
   69DPPC   C40 3440   0.695   0.115   4.605
   69DPPC   C41 3441   0.815   0.159   4.522
   69DPPC   C42 3442   0.834   0.311   4.522
   69DPPC   C43 3443   0.955   0.351   4.439
   69DPPC   C44 3444   0.936   0.315   4.291
   69DPPC   C45 3445   0.833   0.406   4.223
   69DPPC   C46 3446   0.813   0.365   4.077
   69DPPC   C47 3447   0.715   0.459   4.007
   69DPPC   C48 3448   0.692   0.416   3.862
   69DPPC   C49 3449   0.820   0.429   3.779
   69DPPC   C50 3450   0.796   0.386   3.634
   70DPPC    C1 3451   3.513   0.817   5.596
   70DPPC    C2 3452   3.526   0.759   5.367
   70DPPC    C3 3453   3.314   0.789   5.473
   70DPPC    N4 3454   3.450   0.738   5.490
   70DPPC    C5 3455   3.450   0.596   5.535
   70DPPC    C6 3456   3.369   0.488   5.459
   70DPPC   OS7 3457   3.427   0.435   5.340
   70DPPC    P8 3458   3.359   0.298   5.302
   70DPPC   OM9 3459   3.267   0.252   5.406
   70DPPC  OM10 3460   3.471   0.212   5.261
   70DPPC  OS11 3461   3.269   0.345   5.183
   70DPPC   C12 3462   3.298   0.272   5.064
   70DPPC   C13 3463   3.203   0.292   4.944
   70DPPC  OS14 3464   3.234   0.199   4.838
   70DPPC   C15 3465   3.158   0.086   4.829
   70DPPC   O16 3466   3.064   0.061   4.906
   70DPPC   C17 3467   3.210   5.605   4.716
   70DPPC   C18 3468   3.127   5.481   4.687
   70DPPC   C19 3469   3.195   5.403   4.575
   70DPPC   C20 3470   3.191   5.484   4.445
   70DPPC   C21 3471   3.288   5.431   4.339
   70DPPC   C22 3472   3.251   5.292   4.289
   70DPPC   C23 3473   3.348   5.247   4.179
   70DPPC   C24 3474   3.312   5.107   4.128
   70DPPC   C25 3475   3.401   5.063   4.012
   70DPPC   C26 3476   3.376   5.149   3.888
   70DPPC   C27 3477   3.452   5.094   3.767
   70DPPC   C28 3478   3.604   5.103   3.786
   70DPPC   C29 3479   3.677   5.046   3.664
   70DPPC   C30 3480   3.829   5.051   3.683
   70DPPC   C31 3481   3.901   4.993   3.562
   70DPPC   C32 3482   3.212   0.439   4.897
   70DPPC  OS33 3483   3.137   0.538   4.971
   70DPPC   C34 3484   3.005   0.553   4.938
   70DPPC   O35 3485   2.933   0.461   4.897
   70DPPC   C36 3486   2.950   0.676   5.008
   70DPPC   C37 3487   2.836   0.739   4.929
   70DPPC   C38 3488   2.890   0.817   4.808
   70DPPC   C39 3489   2.773   0.872   4.726
   70DPPC   C40 3490   2.822   0.940   4.599
   70DPPC   C41 3491   2.704   0.956   4.502
   70DPPC   C42 3492   2.751   1.007   4.366
   70DPPC   C43 3493   2.645   0.974   4.260
   70DPPC   C44 3494   2.633   0.822   4.247
   70DPPC   C45 3495   2.529   0.782   4.142
   70DPPC   C46 3496   2.576   0.818   4.001
   70DPPC   C47 3497   2.472   0.776   3.897
   70DPPC   C48 3498   2.519   0.808   3.755
   70DPPC   C49 3499   2.413   0.769   3.652
   70DPPC   C50 3500   2.461   0.797   3.510
   71DPPC    C1 3501   3.615   2.868   5.650
   71DPPC    C2 3502   3.625   3.011   5.842
   71DPPC    C3 3503   3.578   2.780   5.867
   71DPPC    N4 3504   3.555   2.897   5.781
   71DPPC    C5 3505   3.409   2.919   5.772
   71DPPC    C6 3506   3.352   3.038   5.690
   71DPPC   OS7 3507   3.381   3.168   5.742
   71DPPC    P8 3508   3.310   3.285   5.663
   71DPPC   OM9 3509   3.230   3.227   5.554
   71DPPC  OM10 3510   3.252   3.362   5.773
   71DPPC  OS11 3511   3.444   3.347   5.610
   71DPPC   C12 3512   3.447   3.355   5.467
   71DPPC   C13 3513   3.589   3.357   5.409
   71DPPC  OS14 3514   3.596   3.404   5.272
   71DPPC   C15 3515   3.673   3.513   5.248
   71DPPC   O16 3516   3.726   3.579   5.338
   71DPPC   C17 3517   3.676   3.547   5.100
   71DPPC   C18 3518   3.538   3.593   5.052
   71DPPC   C19 3519   3.511   3.737   5.095
   71DPPC   C20 3520   3.373   3.783   5.048
   71DPPC   C21 3521   3.363   3.935   5.058
   71DPPC   C22 3522   3.228   3.986   5.007
   71DPPC   C23 3523   3.237   4.134   4.971
   71DPPC   C24 3524   3.317   4.151   4.841
   71DPPC   C25 3525   3.238   4.093   4.724
   71DPPC   C26 3526   3.320   4.093   4.595
   71DPPC   C27 3527   3.239   4.032   4.480
   71DPPC   C28 3528   3.322   4.022   4.352
   71DPPC   C29 3529   3.238   3.967   4.237
   71DPPC   C30 3530   3.205   3.819   4.256
   71DPPC   C31 3531   3.331   3.733   4.239
   71DPPC   C32 3532   3.652   3.219   5.438
   71DPPC  OS33 3533   3.573   3.104   5.403
   71DPPC   C34 3534   3.606   3.039   5.287
   71DPPC   O35 3535   3.720   3.038   5.239
   71DPPC   C36 3536   3.496   2.940   5.252
   71DPPC   C37 3537   3.535   2.842   5.140
   71DPPC   C38 3538   3.409   2.772   5.088
   71DPPC   C39 3539   3.444   2.646   5.008
   71DPPC   C40 3540   3.513   2.674   4.874
   71DPPC   C41 3541   3.415   2.726   4.768
   71DPPC   C42 3542   3.477   2.714   4.629
   71DPPC   C43 3543   3.381   2.760   4.520
   71DPPC   C44 3544   3.431   2.717   4.382
   71DPPC   C45 3545   3.334   2.761   4.272
   71DPPC   C46 3546   3.365   2.691   4.139
   71DPPC   C47 3547   3.496   2.740   4.076
   71DPPC   C48 3548   3.479   2.880   4.016
   71DPPC   C49 3549   3.605   2.922   3.941
   71DPPC   C50 3550   3.587   3.060   3.878
   72DPPC    C1 3551   2.285   2.044   6.239
   72DPPC    C2 3552   2.484   1.993   6.362
   72DPPC    C3 3553   2.328   2.155   6.444
   72DPPC    N4 3554   2.392   2.100   6.323
   72DPPC    C5 3555   2.462   2.211   6.255
   72DPPC    C6 3556   2.547   2.184   6.129
   72DPPC   OS7 3557   2.480   2.151   6.007
   72DPPC    P8 3558   2.589   2.115   5.899
   72DPPC   OM9 3559   2.622   1.974   5.926
   72DPPC  OM10 3560   2.689   2.223   5.909
   72DPPC  OS11 3561   2.500   2.129   5.771
   72DPPC   C12 3562   2.549   2.227   5.679
   72DPPC   C13 3563   2.450   2.258   5.566
   72DPPC  OS14 3564   2.506   2.343   5.463
   72DPPC   C15 3565   2.522   2.282   5.342
   72DPPC   O16 3566   2.537   2.160   5.333
   72DPPC   C17 3567   2.566   2.382   5.236
   72DPPC   C18 3568   2.545   2.324   5.096
   72DPPC   C19 3569   2.604   2.416   4.988
   72DPPC   C20 3570   2.756   2.416   4.995
   72DPPC   C21 3571   2.818   2.485   4.874
   72DPPC   C22 3572   2.971   2.480   4.878
   72DPPC   C23 3573   3.029   2.543   4.751
   72DPPC   C24 3574   3.004   2.453   4.630
   72DPPC   C25 3575   3.030   2.528   4.499
   72DPPC   C26 3576   2.922   2.636   4.480
   72DPPC   C27 3577   2.940   2.711   4.348
   72DPPC   C28 3578   2.831   2.817   4.332
   72DPPC   C29 3579   2.846   2.893   4.201
   72DPPC   C30 3580   2.734   2.996   4.184
   72DPPC   C31 3581   2.745   3.108   4.288
   72DPPC   C32 3582   2.323   2.313   5.634
   72DPPC  OS33 3583   2.202   2.304   5.556
   72DPPC   C34 3584   2.142   2.181   5.552
   72DPPC   O35 3585   2.174   2.087   5.624
   72DPPC   C36 3586   2.022   2.182   5.460
   72DPPC   C37 3587   2.035   2.069   5.358
   72DPPC   C38 3588   2.137   2.106   5.250
   72DPPC   C39 3589   2.162   1.989   5.155
   72DPPC   C40 3590   2.256   2.030   5.042
   72DPPC   C41 3591   2.184   2.115   4.937
   72DPPC   C42 3592   2.281   2.157   4.827
   72DPPC   C43 3593   2.207   2.224   4.711
   72DPPC   C44 3594   2.306   2.269   4.603
   72DPPC   C45 3595   2.388   2.389   4.652
   72DPPC   C46 3596   2.495   2.428   4.550
   72DPPC   C47 3597   2.431   2.476   4.419
   72DPPC   C48 3598   2.538   2.511   4.316
   72DPPC   C49 3599   2.475   2.557   4.185
   72DPPC   C50 3600   2.582   2.594   4.082
   73DPPC    C1 3601   2.496   0.753   5.620
   73DPPC    C2 3602   2.478   0.818   5.846
   73DPPC    C3 3603   2.577   0.968   5.691
   73DPPC    N4 3604   2.564   0.826   5.728
   73DPPC    C5 3605   2.694   0.765   5.763
   73DPPC    C6 3606   2.815   0.771   5.666
   73DPPC   OS7 3607   2.801   0.704   5.540
   73DPPC    P8 3608   2.942   0.678   5.475
   73DPPC   OM9 3609   2.919   0.589   5.361
   73DPPC  OM10 3610   3.033   0.635   5.582
   73DPPC  OS11 3611   2.980   0.824   5.429
   73DPPC   C12 3612   2.909   0.868   5.314
   73DPPC   C13 3613   2.952   1.005   5.258
   73DPPC  OS14 3614   2.879   1.039   5.137
   73DPPC   C15 3615   2.849   1.171   5.116
   73DPPC   O16 3616   2.830   1.250   5.209
   73DPPC   C17 3617   2.795   1.189   4.975
   73DPPC   C18 3618   2.826   1.329   4.920
   73DPPC   C19 3619   2.769   1.341   4.779
   73DPPC   C20 3620   2.806   1.473   4.712
   73DPPC   C21 3621   2.752   1.475   4.568
   73DPPC   C22 3622   2.802   1.595   4.488
   73DPPC   C23 3623   2.754   1.584   4.344
   73DPPC   C24 3624   2.810   1.456   4.280
   73DPPC   C25 3625   2.762   1.436   4.137
   73DPPC   C26 3626   2.819   1.305   4.082
   73DPPC   C27 3627   2.776   1.279   3.938
   73DPPC   C28 3628   2.840   1.149   3.886
   73DPPC   C29 3629   2.805   1.123   3.740
   73DPPC   C30 3630   2.874   0.996   3.691
   73DPPC   C31 3631   2.842   0.969   3.544
   73DPPC   C32 3632   3.105   0.995   5.241
   73DPPC  OS33 3633   3.175   1.111   5.190
   73DPPC   C34 3634   3.310   1.098   5.189
   73DPPC   O35 3635   3.373   1.038   5.277
   73DPPC   C36 3636   3.372   1.200   5.094
   73DPPC   C37 3637   3.441   1.124   4.981
   73DPPC   C38 3638   3.336   1.050   4.896
   73DPPC   C39 3639   3.401   0.959   4.793
   73DPPC   C40 3640   3.296   0.877   4.719
   73DPPC   C41 3641   3.362   0.780   4.621
   73DPPC   C42 3642   3.257   0.693   4.551
   73DPPC   C43 3643   3.323   0.594   4.455
   73DPPC   C44 3644   3.388   0.668   4.337
   73DPPC   C45 3645   3.452   0.571   4.238
   73DPPC   C46 3646   3.511   0.648   4.119
   73DPPC   C47 3647   3.576   0.553   4.018
   73DPPC   C48 3648   3.635   0.632   3.901
   73DPPC   C49 3649   3.700   0.539   3.799
   73DPPC   C50 3650   3.758   0.618   3.681
   74DPPC    C1 3651   4.982   1.979   5.331
   74DPPC    C2 3652   4.950   1.876   5.547
   74DPPC    C3 3653   4.987   1.743   5.357
   74DPPC    N4 3654   4.922   1.866   5.403
   74DPPC    C5 3655   4.776   1.853   5.376
   74DPPC    C6 3656   4.681   1.970   5.411
   74DPPC   OS7 3657   4.549   1.948   5.364
   74DPPC    P8 3658   4.446   2.057   5.409
   74DPPC   OM9 3659   4.312   1.998   5.413
   74DPPC  OM10 3660   4.498   2.125   5.530
   74DPPC  OS11 3661   4.461   2.158   5.290
   74DPPC   C12 3662   4.375   2.125   5.182
   74DPPC   C13 3663   4.400   2.211   5.056
   74DPPC  OS14 3664   4.295   2.202   4.956
   74DPPC   C15 3665   4.191   2.290   4.962
   74DPPC   O16 3666   4.163   2.354   5.064
   74DPPC   C17 3667   4.102   2.265   4.841
   74DPPC   C18 3668   3.973   2.346   4.833
   74DPPC   C19 3669   3.901   2.308   4.703
   74DPPC   C20 3670   3.771   2.384   4.681
   74DPPC   C21 3671   3.711   2.346   4.545
   74DPPC   C22 3672   3.656   2.204   4.545
   74DPPC   C23 3673   3.627   2.155   4.403
   74DPPC   C24 3674   3.518   2.236   4.333
   74DPPC   C25 3675   3.502   2.186   4.189
   74DPPC   C26 3676   3.403   2.270   4.108
   74DPPC   C27 3677   3.258   2.248   4.151
   74DPPC   C28 3678   3.163   2.328   4.062
   74DPPC   C29 3679   3.017   2.304   4.100
   74DPPC   C30 3680   2.924   2.384   4.008
   74DPPC   C31 3681   2.930   2.333   3.864
   74DPPC   C32 3682   4.541   2.176   5.007
   74DPPC  OS33 3683   4.571   2.036   4.986
   74DPPC   C34 3684   4.700   1.998   5.004
   74DPPC   O35 3685   4.785   2.069   5.059
   74DPPC   C36 3686   4.718   1.849   4.980
   74DPPC   C37 3687   4.636   1.797   4.862
   74DPPC   C38 3688   4.667   1.648   4.842
   74DPPC   C39 3689   4.585   1.587   4.728
   74DPPC   C40 3690   4.641   1.448   4.696
   74DPPC   C41 3691   4.570   1.383   4.577
   74DPPC   C42 3692   4.653   1.263   4.528
   74DPPC   C43 3693   4.656   1.148   4.629
   74DPPC   C44 3694   4.757   1.043   4.584
   74DPPC   C45 3695   4.762   0.923   4.678
   74DPPC   C46 3696   4.636   0.836   4.665
   74DPPC   C47 3697   4.648   0.710   4.750
   74DPPC   C48 3698   4.528   0.617   4.727
   74DPPC   C49 3699   4.543   0.489   4.810
   74DPPC   C50 3700   4.426   0.394   4.784
   75DPPC    C1 3701   3.154   1.928   6.077
   75DPPC    C2 3702   2.969   1.987   5.943
   75DPPC    C3 3703   3.017   1.759   5.977
   75DPPC    N4 3704   3.078   1.891   5.957
   75DPPC    C5 3705   3.161   1.893   5.834
   75DPPC    C6 3706   3.285   1.799   5.826
   75DPPC   OS7 3707   3.308   1.746   5.696
   75DPPC    P8 3708   3.442   1.665   5.692
   75DPPC   OM9 3709   3.556   1.751   5.724
   75DPPC  OM10 3710   3.418   1.539   5.764
   75DPPC  OS11 3711   3.451   1.630   5.540
   75DPPC   C12 3712   3.474   1.746   5.460
   75DPPC   C13 3713   3.480   1.723   5.308
   75DPPC  OS14 3714   3.350   1.691   5.252
   75DPPC   C15 3715   3.303   1.774   5.154
   75DPPC   O16 3716   3.341   1.891   5.144
   75DPPC   C17 3717   3.172   1.720   5.100
   75DPPC   C18 3718   3.177   1.700   4.949
   75DPPC   C19 3719   3.270   1.584   4.912
   75DPPC   C20 3720   3.252   1.548   4.764
   75DPPC   C21 3721   3.347   1.436   4.723
   75DPPC   C22 3722   3.308   1.385   4.584
   75DPPC   C23 3723   3.174   1.312   4.591
   75DPPC   C24 3724   3.125   1.270   4.453
   75DPPC   C25 3725   3.220   1.170   4.387
   75DPPC   C26 3726   3.158   1.116   4.259
   75DPPC   C27 3727   3.250   1.016   4.189
   75DPPC   C28 3728   3.175   0.945   4.077
   75DPPC   C29 3729   3.065   0.857   4.137
   75DPPC   C30 3730   2.986   0.784   4.028
   75DPPC   C31 3731   3.074   0.679   3.959
   75DPPC   C32 3732   3.589   1.616   5.285
   75DPPC  OS33 3733   3.662   1.634   5.162
   75DPPC   C34 3734   3.766   1.549   5.141
   75DPPC   O35 3735   3.813   1.473   5.226
   75DPPC   C36 3736   3.834   1.583   5.010
   75DPPC   C37 3737   3.747   1.675   4.924
   75DPPC   C38 3738   3.827   1.731   4.807
   75DPPC   C39 3739   3.742   1.823   4.719
   75DPPC   C40 3740   3.645   1.741   4.634
   75DPPC   C41 3741   3.718   1.665   4.524
   75DPPC   C42 3742   3.620   1.579   4.444
   75DPPC   C43 3743   3.686   1.508   4.326
   75DPPC   C44 3744   3.582   1.422   4.255
   75DPPC   C45 3745   3.634   1.362   4.124
   75DPPC   C46 3746   3.665   1.472   4.023
   75DPPC   C47 3747   3.681   1.415   3.882
   75DPPC   C48 3748   3.725   1.524   3.784
   75DPPC   C49 3749   3.725   1.472   3.640
   75DPPC   C50 3750   3.582   1.450   3.591
   76DPPC    C1 3751   4.816   5.350   5.562
   76DPPC    C2 3752   4.923   5.434   5.761
   76DPPC    C3 3753   4.705   5.507   5.700
   76DPPC    N4 3754   4.836   5.469   5.647
   76DPPC    C5 3755   4.891   5.583   5.569
   76DPPC    C6 3756   5.029   5.566   5.500
   76DPPC   OS7 3757   5.067   0.067   5.414
   76DPPC    P8 3758   5.175   0.018   5.310
   76DPPC   OM9 3759   5.304   0.047   5.372
   76DPPC  OM10 3760   5.140   5.487   5.271
   76DPPC  OS11 3761   5.146   0.124   5.199
   76DPPC   C12 3762   5.048   0.085   5.103
   76DPPC   C13 3763   4.908   0.143   5.129
   76DPPC  OS14 3764   4.804   0.074   5.056
   76DPPC   C15 3765   4.724   5.599   5.130
   76DPPC   O16 3766   4.730   5.590   5.253
   76DPPC   C17 3767   4.626   5.528   5.038
   76DPPC   C18 3768   4.589   0.009   4.919
   76DPPC   C19 3769   4.526   5.529   4.810
   76DPPC   C20 3770   4.632   5.446   4.738
   76DPPC   C21 3771   4.697   5.529   4.627
   76DPPC   C22 3772   4.591   5.558   4.521
   76DPPC   C23 3773   4.639   0.049   4.414
   76DPPC   C24 3774   4.526   0.074   4.315
   76DPPC   C25 3775   4.560   0.189   4.221
   76DPPC   C26 3776   4.565   0.321   4.298
   76DPPC   C27 3777   4.591   0.437   4.202
   76DPPC   C28 3778   4.606   0.569   4.278
   76DPPC   C29 3779   4.637   0.682   4.181
   76DPPC   C30 3780   4.665   0.812   4.255
   76DPPC   C31 3781   4.706   0.922   4.157
   76DPPC   C32 3782   4.913   0.296   5.108
   76DPPC  OS33 3783   4.968   0.345   4.984
   76DPPC   C34 3784   4.936   0.473   4.950
   76DPPC   O35 3785   4.854   0.543   5.011
   76DPPC   C36 3786   5.014   0.518   4.828
   76DPPC   C37 3787   5.040   0.405   4.729
   76DPPC   C38 3788   4.915   0.370   4.648
   76DPPC   C39 3789   4.946   0.256   4.551
   76DPPC   C40 3790   5.045   0.301   4.444
   76DPPC   C41 3791   5.082   0.185   4.352
   76DPPC   C42 3792   5.180   0.231   4.244
   76DPPC   C43 3793   5.221   0.116   4.152
   76DPPC   C44 3794   5.325   0.024   4.215
   76DPPC   C45 3795   5.459   0.094   4.234
   76DPPC   C46 3796   5.568   5.601   4.272
   76DPPC   C47 3797   5.540   5.537   4.408
   76DPPC   C48 3798   5.642   5.427   4.438
   76DPPC   C49 3799   5.612   5.357   4.571
   76DPPC   C50 3800   0.026   5.243   4.596
   77DPPC    C1 3801   2.309   1.840   5.805
   77DPPC    C2 3802   2.480   1.772   5.657
   77DPPC    C3 3803   2.252   1.785   5.581
   77DPPC    N4 3804   2.340   1.749   5.694
   77DPPC    C5 3805   2.316   1.608   5.736
   77DPPC    C6 3806   2.343   1.495   5.634
   77DPPC   OS7 3807   2.312   1.362   5.676
   77DPPC    P8 3808   2.343   1.257   5.561
   77DPPC   OM9 3809   2.479   1.286   5.514
   77DPPC  OM10 3810   2.310   1.126   5.620
   77DPPC  OS11 3811   2.234   1.298   5.454
   77DPPC   C12 3812   2.107   1.235   5.471
   77DPPC   C13 3813   1.996   1.278   5.372
   77DPPC  OS14 3814   1.999   1.204   5.246
   77DPPC   C15 3815   1.882   1.190   5.176
   77DPPC   O16 3816   1.772   1.176   5.231
   77DPPC   C17 3817   1.912   1.141   5.035
   77DPPC   C18 3818   1.906   1.258   4.936
   77DPPC   C19 3819   1.945   1.212   4.795
   77DPPC   C20 3820   1.835   1.129   4.728
   77DPPC   C21 3821   1.891   1.067   4.599
   77DPPC   C22 3822   1.784   0.997   4.515
   77DPPC   C23 3823   1.853   0.916   4.405
   77DPPC   C24 3824   1.756   0.862   4.300
   77DPPC   C25 3825   1.710   0.973   4.207
   77DPPC   C26 3826   1.655   0.915   4.076
   77DPPC   C27 3827   1.633   1.025   3.973
   77DPPC   C28 3828   1.610   0.967   3.834
   77DPPC   C29 3829   1.605   1.078   3.728
   77DPPC   C30 3830   1.596   1.019   3.587
   77DPPC   C31 3831   1.462   0.948   3.566
   77DPPC   C32 3832   2.009   1.432   5.364
   77DPPC  OS33 3833   1.899   1.508   5.310
   77DPPC   C34 3834   1.931   1.638   5.288
   77DPPC   O35 3835   2.043   1.685   5.308
   77DPPC   C36 3836   1.813   1.718   5.235
   77DPPC   C37 3837   1.754   1.657   5.108
   77DPPC   C38 3838   1.847   1.678   4.989
   77DPPC   C39 3839   1.785   1.625   4.860
   77DPPC   C40 3840   1.885   1.633   4.744
   77DPPC   C41 3841   1.825   1.583   4.613
   77DPPC   C42 3842   1.931   1.587   4.502
   77DPPC   C43 3843   1.869   1.558   4.366
   77DPPC   C44 3844   1.827   1.411   4.351
   77DPPC   C45 3845   1.756   1.392   4.217
   77DPPC   C46 3846   1.849   1.425   4.100
   77DPPC   C47 3847   1.774   1.416   3.967
   77DPPC   C48 3848   1.865   1.455   3.850
   77DPPC   C49 3849   1.787   1.451   3.718
   77DPPC   C50 3850   1.877   1.491   3.601
   78DPPC    C1 3851   1.140   1.598   5.616
   78DPPC    C2 3852   1.141   1.757   5.440
   78DPPC    C3 3853   1.287   1.786   5.627
   78DPPC    N4 3854   1.153   1.741   5.585
   78DPPC    C5 3855   1.045   1.814   5.656
   78DPPC    C6 3856   1.022   1.964   5.624
   78DPPC   OS7 3857   1.129   2.051   5.663
   78DPPC    P8 3858   1.136   2.179   5.571
   78DPPC   OM9 3859   1.235   2.263   5.639
   78DPPC  OM10 3860   0.999   2.226   5.547
   78DPPC  OS11 3861   1.197   2.108   5.445
   78DPPC   C12 3862   1.292   2.191   5.380
   78DPPC   C13 3863   1.374   2.121   5.271
   78DPPC  OS14 3864   1.484   2.204   5.225
   78DPPC   C15 3865   1.609   2.158   5.251
   78DPPC   O16 3866   1.632   2.083   5.347
   78DPPC   C17 3867   1.711   2.253   5.189
   78DPPC   C18 3868   1.780   2.196   5.064
   78DPPC   C19 3869   1.692   2.203   4.940
   78DPPC   C20 3870   1.773   2.168   4.816
   78DPPC   C21 3871   1.689   2.174   4.688
   78DPPC   C22 3872   1.776   2.151   4.565
   78DPPC   C23 3873   1.837   2.011   4.566
   78DPPC   C24 3874   1.926   1.986   4.444
   78DPPC   C25 3875   1.844   1.982   4.315
   78DPPC   C26 3876   1.926   1.928   4.198
   78DPPC   C27 3877   1.841   1.923   4.070
   78DPPC   C28 3878   1.910   1.845   3.958
   78DPPC   C29 3879   2.036   1.915   3.907
   78DPPC   C30 3880   2.099   1.835   3.792
   78DPPC   C31 3881   2.226   1.903   3.740
   78DPPC   C32 3882   1.275   2.074   5.162
   78DPPC  OS33 3883   1.331   2.018   5.042
   78DPPC   C34 3884   1.374   1.888   5.043
   78DPPC   O35 3885   1.368   1.813   5.141
   78DPPC   C36 3886   1.438   1.853   4.910
   78DPPC   C37 3887   1.338   1.798   4.809
   78DPPC   C38 3888   1.408   1.765   4.677
   78DPPC   C39 3889   1.311   1.708   4.574
   78DPPC   C40 3890   1.383   1.675   4.443
   78DPPC   C41 3891   1.431   1.802   4.374
   78DPPC   C42 3892   1.503   1.771   4.243
   78DPPC   C43 3893   1.407   1.714   4.138
   78DPPC   C44 3894   1.479   1.690   4.005
   78DPPC   C45 3895   1.385   1.632   3.900
   78DPPC   C46 3896   1.276   1.732   3.862
   78DPPC   C47 3897   1.182   1.675   3.756
   78DPPC   C48 3898   1.070   1.774   3.724
   78DPPC   C49 3899   0.976   1.718   3.616
   78DPPC   C50 3900   0.863   1.817   3.587
   79DPPC    C1 3901   2.107   5.011   6.174
   79DPPC    C2 3902   2.219   4.927   5.982
   79DPPC    C3 3903   2.042   4.801   6.083
   79DPPC    N4 3904   2.089   4.936   6.049
   79DPPC    C5 3905   1.988   5.006   5.966
   79DPPC    C6 3906   1.965   4.964   5.818
   79DPPC   OS7 3907   1.929   4.828   5.799
   79DPPC    P8 3908   1.805   4.810   5.704
   79DPPC   OM9 3909   1.766   4.671   5.727
   79DPPC  OM10 3910   1.714   4.922   5.731
   79DPPC  OS11 3911   1.880   4.828   5.568
   79DPPC   C12 3912   1.803   4.898   5.471
   79DPPC   C13 3913   1.878   4.926   5.339
   79DPPC  OS14 3914   1.802   5.004   5.243
   79DPPC   C15 3915   1.809   5.140   5.250
   79DPPC   O16 3916   1.819   5.200   5.357
   79DPPC   C17 3917   1.753   5.202   5.123
   79DPPC   C18 3918   1.800   5.347   5.107
   79DPPC   C19 3919   1.947   5.354   5.063
   79DPPC   C20 3920   1.960   5.314   4.915
   79DPPC   C21 3921   2.104   5.333   4.865
   79DPPC   C22 3922   2.109   5.308   4.714
   79DPPC   C23 3923   2.021   5.410   4.643
   79DPPC   C24 3924   2.019   5.391   4.491
   79DPPC   C25 3925   1.919   5.488   4.429
   79DPPC   C26 3926   1.918   5.477   4.276
   79DPPC   C27 3927   1.815   5.574   4.217
   79DPPC   C28 3928   1.816   5.569   4.064
   79DPPC   C29 3929   1.947   0.019   4.009
   79DPPC   C30 3930   1.947   0.016   3.856
   79DPPC   C31 3931   1.944   5.479   3.804
   79DPPC   C32 3932   1.921   4.787   5.288
   79DPPC  OS33 3933   1.990   4.778   5.162
   79DPPC   C34 3934   2.122   4.810   5.160
   79DPPC   O35 3935   2.193   4.814   5.261
   79DPPC   C36 3936   2.175   4.798   5.018
   79DPPC   C37 3937   2.088   4.875   4.917
   79DPPC   C38 3938   2.104   4.814   4.778
   79DPPC   C39 3939   2.249   4.822   4.729
   79DPPC   C40 3940   2.264   4.753   4.593
   79DPPC   C41 3941   2.191   4.832   4.484
   79DPPC   C42 3942   2.199   4.761   4.348
   79DPPC   C43 3943   2.119   4.630   4.352
   79DPPC   C44 3944   2.101   4.572   4.212
   79DPPC   C45 3945   2.009   4.450   4.215
   79DPPC   C46 3946   1.974   4.404   4.074
   79DPPC   C47 3947   1.875   4.286   4.078
   79DPPC   C48 3948   1.833   4.243   3.938
   79DPPC   C49 3949   1.949   4.182   3.860
   79DPPC   C50 3950   1.904   4.136   3.721
   80DPPC    C1 3951   2.928   3.024   5.536
   80DPPC    C2 3952   2.726   3.152   5.532
   80DPPC    C3 3953   2.933   3.253   5.591
   80DPPC    N4 3954   2.854   3.131   5.603
   80DPPC    C5 3955   2.837   3.104   5.747
   80DPPC    C6 3956   2.736   2.997   5.793
   80DPPC   OS7 3957   2.763   2.863   5.752
   80DPPC    P8 3958   2.629   2.782   5.734
   80DPPC   OM9 3959   2.520   2.843   5.811
   80DPPC  OM10 3960   2.662   2.640   5.749
   80DPPC  OS11 3961   2.607   2.818   5.582
   80DPPC   C12 3962   2.654   2.716   5.495
   80DPPC   C13 3963   2.652   2.742   5.343
   80DPPC  OS14 3964   2.767   2.816   5.293
   80DPPC   C15 3965   2.868   2.742   5.239
   80DPPC   O16 3966   2.894   2.628   5.281
   80DPPC   C17 3967   2.968   2.833   5.169
   80DPPC   C18 3968   2.929   2.853   5.023
   80DPPC   C19 3969   3.032   2.939   4.949
   80DPPC   C20 3970   2.998   2.952   4.801
   80DPPC   C21 3971   3.100   3.040   4.729
   80DPPC   C22 3972   3.072   3.053   4.580
   80DPPC   C23 3973   3.173   3.147   4.515
   80DPPC   C24 3974   3.153   3.159   4.364
   80DPPC   C25 3975   3.256   3.256   4.305
   80DPPC   C26 3976   3.244   3.265   4.152
   80DPPC   C27 3977   3.348   3.362   4.096
   80DPPC   C28 3978   3.343   3.367   3.943
   80DPPC   C29 3979   3.214   3.430   3.892
   80DPPC   C30 3980   3.213   3.434   3.739
   80DPPC   C31 3981   3.083   3.496   3.687
   80DPPC   C32 3982   2.513   2.800   5.307
   80DPPC  OS33 3983   2.483   2.788   5.167
   80DPPC   C34 3984   2.486   2.901   5.091
   80DPPC   O35 3985   2.484   3.016   5.135
   80DPPC   C36 3986   2.470   2.864   4.944
   80DPPC   C37 3987   2.565   2.946   4.856
   80DPPC   C38 3988   2.562   2.899   4.711
   80DPPC   C39 3989   2.427   2.928   4.645
   80DPPC   C40 3990   2.428   2.892   4.497
   80DPPC   C41 3991   2.293   2.926   4.433
   80DPPC   C42 3992   2.293   2.899   4.282
   80DPPC   C43 3993   2.159   2.941   4.222
   80DPPC   C44 3994   2.152   2.920   4.071
   80DPPC   C45 3995   2.145   2.772   4.035
   80DPPC   C46 3996   2.117   2.753   3.886
   80DPPC   C47 3997   1.975   2.796   3.850
   80DPPC   C48 3998   1.871   2.698   3.906
   80DPPC   C49 3999   1.729   2.747   3.879
   80DPPC   C50 4000   1.699   2.749   3.729
   81DPPC    C1 4001   0.185   1.925   5.392
   81DPPC    C2 4002   0.022   1.956   5.224
   81DPPC    C3 4003   0.149   1.756   5.227
   81DPPC    N4 4004   0.083   1.856   5.312
   81DPPC    C5 4005   5.661   1.801   5.397
   81DPPC    C6 4006   5.683   1.673   5.481
   81DPPC   OS7 4007   5.677   1.551   5.407
   81DPPC    P8 4008   0.083   1.441   5.468
   81DPPC   OM9 4009   0.217   1.477   5.423
   81DPPC  OM10 4010   0.052   1.435   5.612
   81DPPC  OS11 4011   0.019   1.313   5.403
   81DPPC   C12 4012   0.099   1.251   5.302
   81DPPC   C13 4013   0.078   1.098   5.297
   81DPPC  OS14 4014   0.168   1.028   5.207
   81DPPC   C15 4015   0.182   0.894   5.225
   81DPPC   O16 4016   0.158   0.839   5.333
   81DPPC   C17 4017   0.264   0.832   5.112
   81DPPC   C18 4018   0.192   0.713   5.048
   81DPPC   C19 4019   0.089   0.757   4.944
   81DPPC   C20 4020   0.029   0.634   4.875
   81DPPC   C21 4021   5.640   0.669   4.746
   81DPPC   C22 4022   5.591   0.539   4.681
   81DPPC   C23 4023   5.530   0.557   4.541
   81DPPC   C24 4024   5.636   0.598   4.439
   81DPPC   C25 4025   5.599   0.545   4.300
   81DPPC   C26 4026   5.466   0.603   4.250
   81DPPC   C27 4027   5.420   0.533   4.122
   81DPPC   C28 4028   5.497   0.579   3.998
   81DPPC   C29 4029   5.454   0.719   3.955
   81DPPC   C30 4030   5.521   0.758   3.823
   81DPPC   C31 4031   5.470   0.670   3.709
   81DPPC   C32 4032   5.614   1.074   5.268
   81DPPC  OS33 4033   5.564   1.122   5.142
   81DPPC   C34 4034   5.475   1.039   5.080
   81DPPC   O35 4035   5.424   0.940   5.133
   81DPPC   C36 4036   5.436   1.090   4.943
   81DPPC   C37 4037   5.358   0.979   4.873
   81DPPC   C38 4038   5.319   1.014   4.730
   81DPPC   C39 4039   5.247   0.894   4.667
   81DPPC   C40 4040   5.208   0.921   4.522
   81DPPC   C41 4041   5.147   0.795   4.461
   81DPPC   C42 4042   5.110   0.816   4.314
   81DPPC   C43 4043   5.067   0.683   4.252
   81DPPC   C44 4044   5.035   0.697   4.104
   81DPPC   C45 4045   5.009   0.558   4.044
   81DPPC   C46 4046   4.963   0.566   3.899
   81DPPC   C47 4047   4.954   0.426   3.839
   81DPPC   C48 4048   4.849   0.342   3.912
   81DPPC   C49 4049   4.854   0.197   3.866
   81DPPC   C50 4050   4.815   0.185   3.718
   82DPPC    C1 4051   2.911   2.293   5.374
   82DPPC    C2 4052   2.981   2.180   5.176
   82DPPC    C3 4053   3.083   2.126   5.382
   82DPPC    N4 4054   3.026   2.237   5.303
   82DPPC    C5 4055   3.127   2.343   5.274
   82DPPC    C6 4056   3.205   2.403   5.394
   82DPPC   OS7 4057   3.300   2.503   5.362
   82DPPC    P8 4058   3.396   2.537   5.482
   82DPPC   OM9 4059   3.335   2.490   5.607
   82DPPC  OM10 4060   3.435   2.679   5.469
   82DPPC  OS11 4061   3.515   2.443   5.445
   82DPPC   C12 4062   3.584   2.490   5.330
   82DPPC   C13 4063   3.719   2.422   5.303
   82DPPC  OS14 4064   3.795   2.486   5.197
   82DPPC   C15 4065   3.880   2.587   5.230
   82DPPC   O16 4066   3.885   2.641   5.341
   82DPPC   C17 4067   3.958   2.632   5.108
   82DPPC   C18 4068   3.891   2.749   5.037
   82DPPC   C19 4069   3.950   2.768   4.897
   82DPPC   C20 4070   3.881   2.883   4.824
   82DPPC   C21 4071   3.929   2.893   4.679
   82DPPC   C22 4072   3.878   2.774   4.599
   82DPPC   C23 4073   3.918   2.783   4.452
   82DPPC   C24 4074   3.862   2.663   4.376
   82DPPC   C25 4075   3.902   2.667   4.228
   82DPPC   C26 4076   3.853   2.542   4.155
   82DPPC   C27 4077   3.903   2.544   4.010
   82DPPC   C28 4078   3.866   2.414   3.938
   82DPPC   C29 4079   3.930   2.411   3.800
   82DPPC   C30 4080   3.906   2.278   3.729
   82DPPC   C31 4081   3.978   2.274   3.594
   82DPPC   C32 4082   3.692   2.271   5.284
   82DPPC  OS33 4083   3.604   2.230   5.176
   82DPPC   C34 4084   3.665   2.172   5.067
   82DPPC   O35 4085   3.777   2.121   5.070
   82DPPC   C36 4086   3.562   2.140   4.960
   82DPPC   C37 4087   3.467   2.257   4.932
   82DPPC   C38 4088   3.369   2.222   4.820
   82DPPC   C39 4089   3.269   2.115   4.864
   82DPPC   C40 4090   3.182   2.067   4.747
   82DPPC   C41 4091   3.264   1.983   4.649
   82DPPC   C42 4092   3.176   1.925   4.538
   82DPPC   C43 4093   3.257   1.834   4.446
   82DPPC   C44 4094   3.169   1.770   4.339
   82DPPC   C45 4095   3.251   1.674   4.252
   82DPPC   C46 4096   3.166   1.608   4.143
   82DPPC   C47 4097   3.251   1.514   4.058
   82DPPC   C48 4098   3.171   1.453   3.943
   82DPPC   C49 4099   3.259   1.362   3.857
   82DPPC   C50 4100   3.182   1.306   3.738
   83DPPC    C1 4101   2.639   0.374   5.114
   83DPPC    C2 4102   2.856   0.301   5.174
   83DPPC    C3 4103   2.743   0.195   4.993
   83DPPC    N4 4104   2.725   0.255   5.126
   83DPPC    C5 4105   2.675   0.157   5.225
   83DPPC    C6 4106   2.533   0.096   5.214
   83DPPC   OS7 4107   2.428   0.190   5.239
   83DPPC    P8 4108   2.288   0.126   5.266
   83DPPC   OM9 4109   2.291   5.590   5.232
   83DPPC  OM10 4110   2.256   0.168   5.403
   83DPPC  OS11 4111   2.203   0.208   5.163
   83DPPC   C12 4112   2.112   0.128   5.087
   83DPPC   C13 4113   2.051   0.203   4.968
   83DPPC  OS14 4114   1.942   0.131   4.905
   83DPPC   C15 4115   1.817   0.187   4.905
   83DPPC   O16 4116   1.787   0.292   4.963
   83DPPC   C17 4117   1.719   0.093   4.836
   83DPPC   C18 4118   1.576   0.149   4.839
   83DPPC   C19 4119   1.475   0.040   4.801
   83DPPC   C20 4120   1.482   0.004   4.652
   83DPPC   C21 4121   1.415   0.111   4.565
   83DPPC   C22 4122   1.409   0.067   4.419
   83DPPC   C23 4123   1.329   0.166   4.334
   83DPPC   C24 4124   1.408   0.295   4.306
   83DPPC   C25 4125   1.520   0.270   4.205
   83DPPC   C26 4126   1.598   0.399   4.178
   83DPPC   C27 4127   1.710   0.376   4.077
   83DPPC   C28 4128   1.791   0.505   4.056
   83DPPC   C29 4129   1.902   0.484   3.953
   83DPPC   C30 4130   1.845   0.471   3.812
   83DPPC   C31 4131   1.789   0.604   3.762
   83DPPC   C32 4132   2.169   0.241   4.876
   83DPPC  OS33 4133   2.252   0.132   4.831
   83DPPC   C34 4134   2.379   0.162   4.792
   83DPPC   O35 4135   2.441   0.262   4.829
   83DPPC   C36 4136   2.448   0.037   4.739
   83DPPC   C37 4137   2.494   0.051   4.594
   83DPPC   C38 4138   2.607   5.557   4.568
   83DPPC   C39 4139   2.647   5.544   4.421
   83DPPC   C40 4140   2.773   5.458   4.413
   83DPPC   C41 4141   2.810   5.415   4.271
   83DPPC   C42 4142   2.834   5.533   4.178
   83DPPC   C43 4143   2.922   5.492   4.059
   83DPPC   C44 4144   2.859   5.379   3.978
   83DPPC   C45 4145   2.950   5.340   3.861
   83DPPC   C46 4146   2.897   5.214   3.791
   83DPPC   C47 4147   2.762   5.241   3.725
   83DPPC   C48 4148   2.707   5.112   3.663
   83DPPC   C49 4149   2.571   5.137   3.599
   83DPPC   C50 4150   2.513   5.007   3.541
   84DPPC    C1 4151   0.606   5.435   5.584
   84DPPC    C2 4152   0.754   5.531   5.424
   84DPPC    C3 4153   0.735   0.019   5.643
   84DPPC    N4 4154   0.660   5.562   5.533
   84DPPC    C5 4155   0.548   0.040   5.488
   84DPPC    C6 4156   0.580   0.179   5.427
   84DPPC   OS7 4157   0.469   0.265   5.405
   84DPPC    P8 4158   0.454   0.376   5.516
   84DPPC   OM9 4159   0.328   0.445   5.489
   84DPPC  OM10 4160   0.478   0.313   5.647
   84DPPC  OS11 4161   0.576   0.469   5.483
   84DPPC   C12 4162   0.547   0.562   5.378
   84DPPC   C13 4163   0.656   0.670   5.363
   84DPPC  OS14 4164   0.611   0.785   5.287
   84DPPC   C15 4165   0.639   0.909   5.335
   84DPPC   O16 4166   0.695   0.929   5.443
   84DPPC   C17 4167   0.583   1.014   5.240
   84DPPC   C18 4168   0.567   1.151   5.304
   84DPPC   C19 4169   0.489   1.243   5.210
   84DPPC   C20 4170   0.567   1.264   5.080
   84DPPC   C21 4171   0.481   1.334   4.975
   84DPPC   C22 4172   0.454   1.481   5.009
   84DPPC   C23 4173   0.370   1.543   4.897
   84DPPC   C24 4174   0.445   1.531   4.765
   84DPPC   C25 4175   0.361   1.574   4.644
   84DPPC   C26 4176   0.440   1.548   4.516
   84DPPC   C27 4177   0.359   1.581   4.390
   84DPPC   C28 4178   0.441   1.546   4.266
   84DPPC   C29 4179   0.361   1.570   4.138
   84DPPC   C30 4180   0.443   1.528   4.015
   84DPPC   C31 4181   0.363   1.548   3.886
   84DPPC   C32 4182   0.782   0.598   5.311
   84DPPC  OS33 4183   0.772   0.538   5.180
   84DPPC   C34 4184   0.842   0.601   5.081
   84DPPC   O35 4185   0.934   0.679   5.103
   84DPPC   C36 4186   0.808   0.542   4.945
   84DPPC   C37 4187   0.658   0.516   4.932
   84DPPC   C38 4188   0.578   0.646   4.926
   84DPPC   C39 4189   0.590   0.718   4.791
   84DPPC   C40 4190   0.514   0.850   4.797
   84DPPC   C41 4191   0.502   0.918   4.661
   84DPPC   C42 4192   0.421   1.047   4.674
   84DPPC   C43 4193   0.281   1.016   4.728
   84DPPC   C44 4194   0.195   1.141   4.746
   84DPPC   C45 4195   0.139   1.190   4.613
   84DPPC   C46 4196   0.036   1.092   4.557
   84DPPC   C47 4197   5.655   1.148   4.432
   84DPPC   C48 4198   0.070   1.168   4.319
   84DPPC   C49 4199   0.001   1.227   4.196
   84DPPC   C50 4200   0.102   1.253   4.084
   85DPPC    C1 4201   0.618   0.513   5.837
   85DPPC    C2 4202   0.815   0.589   5.948
   85DPPC    C3 4203   0.677   0.742   5.830
   85DPPC    N4 4204   0.732   0.606   5.828
   85DPPC    C5 4205   0.811   0.588   5.705
   85DPPC    C6 4206   0.871   0.448   5.672
   85DPPC   OS7 4207   0.946   0.443   5.551
   85DPPC    P8 4208   0.992   0.296   5.523
   85DPPC   OM9 4209   1.045   0.238   5.647
   85DPPC  OM10 4210   0.886   0.226   5.449
   85DPPC  OS11 4211   1.117   0.324   5.433
   85DPPC   C12 4212   1.083   0.349   5.297
   85DPPC   C13 4213   1.205   0.348   5.204
   85DPPC  OS14 4214   1.181   0.416   5.077
   85DPPC   C15 4215   1.286   0.465   5.006
   85DPPC   O16 4216   1.405   0.450   5.039
   85DPPC   C17 4217   1.241   0.536   4.880
   85DPPC   C18 4218   1.366   0.587   4.808
   85DPPC   C19 4219   1.339   0.638   4.666
   85DPPC   C20 4220   1.474   0.664   4.600
   85DPPC   C21 4221   1.550   0.531   4.596
   85DPPC   C22 4222   1.694   0.546   4.545
   85DPPC   C23 4223   1.761   0.408   4.547
   85DPPC   C24 4224   1.907   0.414   4.500
   85DPPC   C25 4225   1.968   0.275   4.506
   85DPPC   C26 4226   2.116   0.277   4.468
   85DPPC   C27 4227   2.136   0.310   4.320
   85DPPC   C28 4228   2.285   0.310   4.285
   85DPPC   C29 4229   2.308   0.344   4.138
   85DPPC   C30 4230   2.458   0.344   4.105
   85DPPC   C31 4231   2.481   0.378   3.958
   85DPPC   C32 4232   1.252   0.201   5.198
   85DPPC  OS33 4233   1.158   0.109   5.137
   85DPPC   C34 4234   1.188   5.583   5.140
   85DPPC   O35 4235   1.256   5.529   5.228
   85DPPC   C36 4236   1.098   5.509   5.043
   85DPPC   C37 4237   1.169   5.387   4.985
   85DPPC   C38 4238   1.091   5.325   4.869
   85DPPC   C39 4239   1.096   5.414   4.746
   85DPPC   C40 4240   1.027   5.349   4.626
   85DPPC   C41 4241   1.032   5.441   4.505
   85DPPC   C42 4242   0.958   5.381   4.385
   85DPPC   C43 4243   0.947   5.483   4.272
   85DPPC   C44 4244   0.867   5.427   4.155
   85DPPC   C45 4245   0.840   5.535   4.050
   85DPPC   C46 4246   0.762   5.478   3.932
   85DPPC   C47 4247   0.726   5.586   3.829
   85DPPC   C48 4248   0.653   5.524   3.710
   85DPPC   C49 4249   0.614   0.023   3.607
   85DPPC   C50 4250   0.501   0.112   3.661
   86DPPC    C1 4251   5.682   0.190   5.231
   86DPPC    C2 4252   0.052   0.418   5.261
   86DPPC    C3 4253   0.087   0.263   5.437
   86DPPC    N4 4254   5.682   0.300   5.328
   86DPPC    C5 4255   5.550   0.330   5.387
   86DPPC    C6 4256   5.424   0.342   5.297
   86DPPC   OS7 4257   5.432   0.438   5.191
   86DPPC    P8 4258   5.300   0.436   5.105
   86DPPC   OM9 4259   5.323   0.548   5.012
   86DPPC  OM10 4260   5.192   0.445   5.204
   86DPPC  OS11 4261   5.321   0.296   5.037
   86DPPC   C12 4262   5.397   0.300   4.917
   86DPPC   C13 4263   5.489   0.176   4.905
   86DPPC  OS14 4264   5.596   0.192   4.808
   86DPPC   C15 4265   0.026   0.123   4.829
   86DPPC   O16 4266   0.047   0.055   4.930
   86DPPC   C17 4267   0.127   0.151   4.720
   86DPPC   C18 4268   0.209   0.276   4.754
   86DPPC   C19 4269   0.327   0.292   4.659
   86DPPC   C20 4270   0.281   0.325   4.517
   86DPPC   C21 4271   0.402   0.320   4.422
   86DPPC   C22 4272   0.364   0.364   4.281
   86DPPC   C23 4273   0.341   0.515   4.277
   86DPPC   C24 4274   0.318   0.562   4.133
   86DPPC   C25 4275   0.308   0.714   4.125
   86DPPC   C26 4276   0.301   0.757   3.979
   86DPPC   C27 4277   0.309   0.909   3.965
   86DPPC   C28 4278   0.317   0.948   3.817
   86DPPC   C29 4279   0.336   1.099   3.800
   86DPPC   C30 4280   0.354   1.133   3.653
   86DPPC   C31 4281   0.485   1.074   3.600
   86DPPC   C32 4282   5.398   0.052   4.896
   86DPPC  OS33 4283   5.304   0.046   4.787
   86DPPC   C34 4284   5.257   5.527   4.763
   86DPPC   O35 4285   5.292   5.427   4.826
   86DPPC   C36 4286   5.160   5.524   4.646
   86DPPC   C37 4287   5.194   5.404   4.557
   86DPPC   C38 4288   5.090   5.382   4.447
   86DPPC   C39 4289   5.135   5.268   4.356
   86DPPC   C40 4290   5.024   5.230   4.258
   86DPPC   C41 4291   4.995   5.343   4.159
   86DPPC   C42 4292   4.872   5.309   4.075
   86DPPC   C43 4293   4.842   5.419   3.974
   86DPPC   C44 4294   4.709   5.392   3.903
   86DPPC   C45 4295   4.592   5.414   3.999
   86DPPC   C46 4296   4.457   5.398   3.927
   86DPPC   C47 4297   4.440   5.508   3.822
   86DPPC   C48 4298   4.427   0.040   3.887
   86DPPC   C49 4299   4.425   0.149   3.780
   86DPPC   C50 4300   4.428   0.288   3.844
   87DPPC    C1 4301   4.853   3.432   5.924
   87DPPC    C2 4302   4.924   3.209   5.897
   87DPPC    C3 4303   4.846   3.338   5.708
   87DPPC    N4 4304   4.826   3.308   5.851
   87DPPC    C5 4305   4.688   3.264   5.880
   87DPPC    C6 4306   4.619   3.158   5.791
   87DPPC   OS7 4307   4.683   3.031   5.778
   87DPPC    P8 4308   4.595   2.934   5.691
   87DPPC   OM9 4309   4.657   2.803   5.710
   87DPPC  OM10 4310   4.451   2.954   5.713
   87DPPC  OS11 4311   4.632   2.989   5.548
   87DPPC   C12 4312   4.758   2.945   5.497
   87DPPC   C13 4313   4.766   2.954   5.344
   87DPPC  OS14 4314   4.889   2.896   5.290
   87DPPC   C15 4315   4.866   2.787   5.211
   87DPPC   O16 4316   4.773   2.709   5.232
   87DPPC   C17 4317   4.987   2.755   5.126
   87DPPC   C18 4318   4.989   2.842   4.999
   87DPPC   C19 4319   4.878   2.802   4.902
   87DPPC   C20 4320   4.886   2.882   4.772
   87DPPC   C21 4321   4.769   2.849   4.679
   87DPPC   C22 4322   4.780   2.922   4.544
   87DPPC   C23 4323   4.660   2.888   4.456
   87DPPC   C24 4324   4.670   2.948   4.315
   87DPPC   C25 4325   4.780   2.880   4.233
   87DPPC   C26 4326   4.768   2.914   4.084
   87DPPC   C27 4327   4.875   2.841   4.003
   87DPPC   C28 4328   4.843   2.842   3.853
   87DPPC   C29 4329   4.845   2.983   3.794
   87DPPC   C30 4330   4.813   2.979   3.645
   87DPPC   C31 4331   4.668   2.934   3.621
   87DPPC   C32 4332   4.737   3.100   5.303
   87DPPC  OS33 4333   4.739   3.124   5.161
   87DPPC   C34 4334   4.652   3.217   5.112
   87DPPC   O35 4335   4.580   3.290   5.181
   87DPPC   C36 4336   4.666   3.227   4.961
   87DPPC   C37 4337   4.534   3.200   4.890
   87DPPC   C38 4338   4.546   3.238   4.742
   87DPPC   C39 4339   4.418   3.208   4.663
   87DPPC   C40 4340   4.429   3.270   4.524
   87DPPC   C41 4341   4.307   3.243   4.435
   87DPPC   C42 4342   4.308   3.101   4.378
   87DPPC   C43 4343   4.202   3.088   4.268
   87DPPC   C44 4344   4.215   2.957   4.191
   87DPPC   C45 4345   4.114   2.953   4.076
   87DPPC   C46 4346   4.149   3.056   3.968
   87DPPC   C47 4347   4.038   3.067   3.863
   87DPPC   C48 4348   4.026   2.939   3.780
   87DPPC   C49 4349   3.919   2.955   3.672
   87DPPC   C50 4350   3.907   2.828   3.587
   88DPPC    C1 4351   0.345   1.690   5.637
   88DPPC    C2 4352   0.285   1.560   5.827
   88DPPC    C3 4353   0.503   1.654   5.809
   88DPPC    N4 4354   0.394   1.591   5.734
   88DPPC    C5 4355   0.440   1.466   5.668
   88DPPC    C6 4356   0.533   1.475   5.545
   88DPPC   OS7 4357   0.657   1.544   5.568
   88DPPC    P8 4358   0.725   1.581   5.431
   88DPPC   OM9 4359   0.840   1.665   5.461
   88DPPC  OM10 4360   0.623   1.621   5.334
   88DPPC  OS11 4361   0.782   1.439   5.398
   88DPPC   C12 4362   0.860   1.444   5.280
   88DPPC   C13 4363   1.001   1.387   5.297
   88DPPC  OS14 4364   1.087   1.418   5.184
   88DPPC   C15 4365   1.220   1.435   5.206
   88DPPC   O16 4366   1.267   1.460   5.318
   88DPPC   C17 4367   1.295   1.441   5.074
   88DPPC   C18 4368   1.420   1.354   5.079
   88DPPC   C19 4369   1.466   1.316   4.938
   88DPPC   C20 4370   1.361   1.225   4.874
   88DPPC   C21 4371   1.398   1.184   4.731
   88DPPC   C22 4372   1.407   1.306   4.640
   88DPPC   C23 4373   1.391   1.266   4.493
   88DPPC   C24 4374   1.246   1.228   4.466
   88DPPC   C25 4375   1.220   1.192   4.320
   88DPPC   C26 4376   1.237   1.313   4.229
   88DPPC   C27 4377   1.187   1.281   4.088
   88DPPC   C28 4378   1.268   1.169   4.024
   88DPPC   C29 4379   1.210   1.132   3.886
   88DPPC   C30 4380   1.227   1.247   3.787
   88DPPC   C31 4381   1.170   1.211   3.650
   88DPPC   C32 4382   0.982   1.236   5.328
   88DPPC  OS33 4383   0.924   1.157   5.222
   88DPPC   C34 4384   1.010   1.091   5.139
   88DPPC   O35 4385   1.131   1.075   5.162
   88DPPC   C36 4386   0.933   1.023   5.028
   88DPPC   C37 4387   1.021   1.003   4.905
   88DPPC   C38 4388   0.944   0.936   4.791
   88DPPC   C39 4389   1.033   0.921   4.668
   88DPPC   C40 4390   0.960   0.852   4.552
   88DPPC   C41 4391   1.054   0.843   4.431
   88DPPC   C42 4392   0.989   0.773   4.312
   88DPPC   C43 4393   1.086   0.770   4.194
   88DPPC   C44 4394   1.209   0.685   4.228
   88DPPC   C45 4395   1.315   0.692   4.119
   88DPPC   C46 4396   1.271   0.621   3.990
   88DPPC   C47 4397   1.385   0.623   3.888
   88DPPC   C48 4398   1.347   0.550   3.759
   88DPPC   C49 4399   1.241   0.628   3.681
   88DPPC   C50 4400   1.207   0.558   3.550
   89DPPC    C1 4401   3.133   1.436   5.634
   89DPPC    C2 4402   3.244   1.422   5.425
   89DPPC    C3 4403   3.011   1.387   5.435
   89DPPC    N4 4404   3.121   1.466   5.491
   89DPPC    C5 4405   3.103   1.611   5.467
   89DPPC    C6 4406   2.978   1.682   5.524
   89DPPC   OS7 4407   2.972   1.824   5.511
   89DPPC    P8 4408   2.849   1.887   5.588
   89DPPC   OM9 4409   2.871   2.032   5.593
   89DPPC  OM10 4410   2.832   1.808   5.710
   89DPPC  OS11 4411   2.735   1.852   5.486
   89DPPC   C12 4412   2.748   1.926   5.365
   89DPPC   C13 4413   2.701   1.847   5.242
   89DPPC  OS14 4414   2.759   1.900   5.119
   89DPPC   C15 4415   2.782   1.806   5.022
   89DPPC   O16 4416   2.807   1.689   5.049
   89DPPC   C17 4417   2.813   1.877   4.891
   89DPPC   C18 4418   2.710   1.987   4.868
   89DPPC   C19 4419   2.755   2.088   4.763
   89DPPC   C20 4420   2.748   2.034   4.620
   89DPPC   C21 4421   2.785   2.147   4.524
   89DPPC   C22 4422   2.768   2.107   4.378
   89DPPC   C23 4423   2.622   2.076   4.346
   89DPPC   C24 4424   2.600   2.069   4.195
   89DPPC   C25 4425   2.691   1.963   4.133
   89DPPC   C26 4426   2.668   1.956   3.982
   89DPPC   C27 4427   2.768   1.862   3.914
   89DPPC   C28 4428   2.908   1.922   3.917
   89DPPC   C29 4429   3.005   1.833   3.838
   89DPPC   C30 4430   3.146   1.893   3.836
   89DPPC   C31 4431   3.240   1.804   3.755
   89DPPC   C32 4432   2.547   1.844   5.248
   89DPPC  OS33 4433   2.488   1.738   5.172
   89DPPC   C34 4434   2.444   1.631   5.244
   89DPPC   O35 4435   2.427   1.636   5.366
   89DPPC   C36 4436   2.409   1.512   5.157
   89DPPC   C37 4437   2.403   1.545   5.008
   89DPPC   C38 4438   2.269   1.607   4.969
   89DPPC   C39 4439   2.265   1.638   4.819
   89DPPC   C40 4440   2.367   1.746   4.782
   89DPPC   C41 4441   2.339   1.801   4.642
   89DPPC   C42 4442   2.369   1.698   4.532
   89DPPC   C43 4443   2.330   1.756   4.395
   89DPPC   C44 4444   2.372   1.665   4.280
   89DPPC   C45 4445   2.335   1.729   4.146
   89DPPC   C46 4446   2.398   1.656   4.028
   89DPPC   C47 4447   2.336   1.519   4.002
   89DPPC   C48 4448   2.399   1.456   3.878
   89DPPC   C49 4449   2.338   1.320   3.847
   89DPPC   C50 4450   2.401   1.258   3.722
   90DPPC    C1 4451   4.934   4.159   5.853
   90DPPC    C2 4452   4.929   3.929   5.796
   90DPPC    C3 4453   4.806   4.089   5.666
   90DPPC    N4 4454   4.848   4.052   5.802
   90DPPC    C5 4455   4.731   4.037   5.892
   90DPPC    C6 4456   4.622   3.930   5.861
   90DPPC   OS7 4457   4.666   3.795   5.877
   90DPPC    P8 4458   4.571   3.689   5.809
   90DPPC   OM9 4459   4.445   3.754   5.772
   90DPPC  OM10 4460   4.570   3.573   5.900
   90DPPC  OS11 4461   4.662   3.658   5.684
   90DPPC   C12 4462   4.603   3.703   5.561
   90DPPC   C13 4463   4.687   3.684   5.434
   90DPPC  OS14 4464   4.616   3.732   5.317
   90DPPC   C15 4465   4.659   3.851   5.266
   90DPPC   O16 4466   4.767   3.902   5.298
   90DPPC   C17 4467   4.566   3.900   5.157
   90DPPC   C18 4468   4.637   3.988   5.054
   90DPPC   C19 4469   4.545   4.027   4.938
   90DPPC   C20 4470   4.441   4.132   4.977
   90DPPC   C21 4471   4.354   4.165   4.855
   90DPPC   C22 4472   4.242   4.264   4.889
   90DPPC   C23 4473   4.147   4.280   4.771
   90DPPC   C24 4474   4.021   4.358   4.810
   90DPPC   C25 4475   4.037   4.510   4.803
   90DPPC   C26 4476   4.028   4.557   4.658
   90DPPC   C27 4477   4.011   4.709   4.650
   90DPPC   C28 4478   3.997   4.755   4.505
   90DPPC   C29 4479   3.974   4.906   4.498
   90DPPC   C30 4480   3.960   4.953   4.352
   90DPPC   C31 4481   3.923   5.101   4.345
   90DPPC   C32 4482   4.722   3.534   5.430
   90DPPC  OS33 4483   4.807   3.481   5.326
   90DPPC   C34 4484   4.941   3.476   5.348
   90DPPC   O35 4485   4.996   3.515   5.451
   90DPPC   C36 4486   5.008   3.398   5.235
   90DPPC   C37 4487   5.128   3.471   5.175
   90DPPC   C38 4488   5.189   3.384   5.066
   90DPPC   C39 4489   5.087   3.361   4.954
   90DPPC   C40 4490   5.138   3.262   4.850
   90DPPC   C41 4491   5.034   3.242   4.739
   90DPPC   C42 4492   5.018   3.369   4.657
   90DPPC   C43 4493   4.918   3.352   4.542
   90DPPC   C44 4494   4.917   3.480   4.458
   90DPPC   C45 4495   4.825   3.474   4.337
   90DPPC   C46 4496   4.840   3.605   4.259
   90DPPC   C47 4497   4.752   3.612   4.134
   90DPPC   C48 4498   4.774   3.746   4.063
   90DPPC   C49 4499   4.690   3.757   3.936
   90DPPC   C50 4500   4.713   3.891   3.866
   91DPPC    C1 4501   4.212   3.196   6.143
   91DPPC    C2 4502   4.057   3.248   5.970
   91DPPC    C3 4503   4.245   3.105   5.928
   91DPPC    N4 4504   4.199   3.225   5.999
   91DPPC    C5 4505   4.280   3.345   5.968
   91DPPC    C6 4506   4.283   3.401   5.823
   91DPPC   OS7 4507   4.340   3.310   5.729
   91DPPC    P8 4508   4.366   3.373   5.588
   91DPPC   OM9 4509   4.511   3.364   5.569
   91DPPC  OM10 4510   4.294   3.500   5.576
   91DPPC  OS11 4511   4.287   3.269   5.501
   91DPPC   C12 4512   4.372   3.168   5.446
   91DPPC   C13 4513   4.311   3.089   5.329
   91DPPC  OS14 4514   4.405   2.995   5.270
   91DPPC   C15 4515   4.353   2.880   5.218
   91DPPC   O16 4516   4.270   2.811   5.279
   91DPPC   C17 4517   4.448   2.822   5.115
   91DPPC   C18 4518   4.364   2.762   5.003
   91DPPC   C19 4519   4.447   2.705   4.889
   91DPPC   C20 4520   4.352   2.660   4.778
   91DPPC   C21 4521   4.424   2.600   4.658
   91DPPC   C22 4522   4.319   2.561   4.554
   91DPPC   C23 4523   4.380   2.489   4.434
   91DPPC   C24 4524   4.267   2.439   4.344
   91DPPC   C25 4525   4.319   2.346   4.234
   91DPPC   C26 4526   4.200   2.281   4.164
   91DPPC   C27 4527   4.245   2.171   4.067
   91DPPC   C28 4528   4.122   2.093   4.020
   91DPPC   C29 4529   4.056   2.026   4.141
   91DPPC   C30 4530   3.932   1.946   4.099
   91DPPC   C31 4531   3.869   1.879   4.220
   91DPPC   C32 4532   4.264   3.200   5.231
   91DPPC  OS33 4533   4.197   3.160   5.111
   91DPPC   C34 4534   4.124   3.259   5.053
   91DPPC   O35 4535   4.121   3.375   5.095
   91DPPC   C36 4536   4.061   3.210   4.923
   91DPPC   C37 4537   3.926   3.274   4.892
   91DPPC   C38 4538   3.937   3.418   4.839
   91DPPC   C39 4539   4.010   3.422   4.705
   91DPPC   C40 4540   4.022   3.566   4.656
   91DPPC   C41 4541   4.109   3.573   4.530
   91DPPC   C42 4542   4.120   3.716   4.477
   91DPPC   C43 4543   4.219   3.721   4.361
   91DPPC   C44 4544   4.363   3.707   4.410
   91DPPC   C45 4545   4.409   3.834   4.481
   91DPPC   C46 4546   4.549   3.818   4.540
   91DPPC   C47 4547   4.547   3.719   4.657
   91DPPC   C48 4548   4.684   3.713   4.726
   91DPPC   C49 4549   4.679   3.622   4.848
   91DPPC   C50 4550   4.812   3.626   4.924
   92DPPC    C1 4551   0.559   3.228   5.774
   92DPPC    C2 4552   0.511   3.440   5.674
   92DPPC    C3 4553   0.603   3.426   5.892
   92DPPC    N4 4554   0.509   3.364   5.799
   92DPPC    C5 4555   0.374   3.362   5.862
   92DPPC    C6 4556   0.249   3.325   5.778
   92DPPC   OS7 4557   0.249   3.194   5.720
   92DPPC    P8 4558   0.127   3.177   5.621
   92DPPC   OM9 4559   0.134   3.299   5.539
   92DPPC  OM10 4560   0.019   3.149   5.718
   92DPPC  OS11 4561   0.187   3.048   5.554
   92DPPC   C12 4562   0.262   3.081   5.437
   92DPPC   C13 4563   0.360   2.970   5.394
   92DPPC  OS14 4564   0.461   3.014   5.300
   92DPPC   C15 4565   0.579   2.947   5.301
   92DPPC   O16 4566   0.613   2.877   5.397
   92DPPC   C17 4567   0.671   2.989   5.187
   92DPPC   C18 4568   0.618   2.944   5.051
   92DPPC   C19 4569   0.637   2.793   5.033
   92DPPC   C20 4570   0.590   2.748   4.895
   92DPPC   C21 4571   0.619   2.599   4.875
   92DPPC   C22 4572   0.576   2.553   4.736
   92DPPC   C23 4573   0.615   2.407   4.713
   92DPPC   C24 4574   0.583   2.364   4.570
   92DPPC   C25 4575   0.432   2.350   4.546
   92DPPC   C26 4576   0.404   2.324   4.398
   92DPPC   C27 4577   0.466   2.193   4.351
   92DPPC   C28 4578   0.449   2.176   4.200
   92DPPC   C29 4579   0.516   2.048   4.149
   92DPPC   C30 4580   0.503   2.037   3.997
   92DPPC   C31 4581   0.575   1.913   3.944
   92DPPC   C32 4582   0.274   2.851   5.346
   92DPPC  OS33 4583   0.204   2.869   5.222
   92DPPC   C34 4584   0.163   2.754   5.162
   92DPPC   O35 4585   0.141   2.650   5.225
   92DPPC   C36 4586   0.118   2.779   5.019
   92DPPC   C37 4587   0.176   2.673   4.926
   92DPPC   C38 4588   0.127   2.690   4.782
   92DPPC   C39 4589   0.178   2.821   4.720
   92DPPC   C40 4590   0.138   2.830   4.572
   92DPPC   C41 4591   0.219   2.732   4.487
   92DPPC   C42 4592   0.364   2.779   4.472
   92DPPC   C43 4593   0.374   2.899   4.378
   92DPPC   C44 4594   0.514   2.959   4.380
   92DPPC   C45 4595   0.541   3.023   4.516
   92DPPC   C46 4596   0.677   3.093   4.520
   92DPPC   C47 4597   0.698   3.159   4.656
   92DPPC   C48 4598   0.829   3.238   4.661
   92DPPC   C49 4599   0.846   3.306   4.797
   92DPPC   C50 4600   0.975   3.388   4.802
   93DPPC    C1 4601   4.462   2.430   5.587
   93DPPC    C2 4602   4.531   2.455   5.360
   93DPPC    C3 4603   4.486   2.645   5.492
   93DPPC    N4 4604   4.543   2.510   5.495
   93DPPC    C5 4605   4.685   2.520   5.537
   93DPPC    C6 4606   4.770   2.391   5.549
   93DPPC   OS7 4607   4.904   2.416   5.592
   93DPPC    P8 4608   4.987   2.284   5.608
   93DPPC   OM9 4609   4.899   2.170   5.637
   93DPPC  OM10 4610   5.099   2.316   5.698
   93DPPC  OS11 4611   5.041   2.267   5.461
   93DPPC   C12 4612   5.153   2.350   5.432
   93DPPC   C13 4613   5.213   2.322   5.293
   93DPPC  OS14 4614   5.339   2.390   5.273
   93DPPC   C15 4615   5.443   2.312   5.233
   93DPPC   O16 4616   5.450   2.193   5.265
   93DPPC   C17 4617   5.562   2.399   5.195
   93DPPC   C18 4618   5.631   2.346   5.069
   93DPPC   C19 4619   5.548   2.374   4.945
   93DPPC   C20 4620   5.623   2.336   4.817
   93DPPC   C21 4621   5.638   2.185   4.801
   93DPPC   C22 4622   0.028   2.152   4.672
   93DPPC   C23 4623   0.046   2.001   4.657
   93DPPC   C24 4624   0.125   1.967   4.530
   93DPPC   C25 4625   0.045   2.000   4.404
   93DPPC   C26 4626   0.116   1.947   4.279
   93DPPC   C27 4627   0.034   1.972   4.153
   93DPPC   C28 4628   0.098   1.902   4.033
   93DPPC   C29 4629   0.013   1.920   3.907
   93DPPC   C30 4630   0.071   1.841   3.789
   93DPPC   C31 4631   0.207   1.898   3.746
   93DPPC   C32 4632   5.103   2.357   5.190
   93DPPC  OS33 4633   5.133   2.321   5.054
   93DPPC   C34 4634   5.044   2.360   4.958
   93DPPC   O35 4635   4.942   2.426   4.980
   93DPPC   C36 4636   5.089   2.315   4.821
   93DPPC   C37 4637   5.185   2.417   4.759
   93DPPC   C38 4638   5.239   2.366   4.626
   93DPPC   C39 4639   5.345   2.460   4.568
   93DPPC   C40 4640   5.408   2.397   4.444
   93DPPC   C41 4641   5.531   2.474   4.396
   93DPPC   C42 4642   5.597   2.400   4.280
   93DPPC   C43 4643   0.041   2.469   4.238
   93DPPC   C44 4644   0.110   2.393   4.125
   93DPPC   C45 4645   0.031   2.404   3.994
   93DPPC   C46 4646   0.103   2.330   3.882
   93DPPC   C47 4647   0.027   2.344   3.750
   93DPPC   C48 4648   0.094   2.263   3.639
   93DPPC   C49 4649   0.015   2.274   3.508
   93DPPC   C50 4650   0.076   2.186   3.399
   94DPPC    C1 4651   0.696   3.976   5.474
   94DPPC    C2 4652   0.586   4.027   5.677
   94DPPC    C3 4653   0.823   4.036   5.667
   94DPPC    N4 4654   0.705   3.963   5.620
   94DPPC    C5 4655   0.704   3.821   5.663
   94DPPC    C6 4656   0.819   3.726   5.623
   94DPPC   OS7 4657   0.792   3.592   5.662
   94DPPC    P8 4658   0.918   3.499   5.666
   94DPPC   OM9 4659   0.874   3.377   5.735
   94DPPC  OM10 4660   1.032   3.578   5.715
   94DPPC  OS11 4661   0.936   3.473   5.512
   94DPPC   C12 4662   0.838   3.381   5.463
   94DPPC   C13 4663   0.820   3.391   5.311
   94DPPC  OS14 4664   0.698   3.328   5.264
   94DPPC   C15 4665   0.616   3.404   5.186
   94DPPC   O16 4666   0.633   3.526   5.173
   94DPPC   C17 4667   0.503   3.322   5.128
   94DPPC   C18 4668   0.384   3.406   5.082
   94DPPC   C19 4669   0.293   3.446   5.198
   94DPPC   C20 4670   0.172   3.521   5.142
   94DPPC   C21 4671   0.095   3.428   5.048
   94DPPC   C22 4672   5.672   3.504   4.972
   94DPPC   C23 4673   5.611   3.415   4.863
   94DPPC   C24 4674   5.520   3.498   4.772
   94DPPC   C25 4675   5.477   3.418   4.650
   94DPPC   C26 4676   5.400   3.508   4.553
   94DPPC   C27 4677   5.368   3.435   4.423
   94DPPC   C28 4678   5.297   3.530   4.326
   94DPPC   C29 4679   5.389   3.646   4.288
   94DPPC   C30 4680   5.317   3.742   4.192
   94DPPC   C31 4681   5.406   3.861   4.156
   94DPPC   C32 4682   0.950   3.341   5.246
   94DPPC  OS33 4683   0.992   3.205   5.271
   94DPPC   C34 4684   1.069   3.154   5.170
   94DPPC   O35 4685   1.107   3.223   5.075
   94DPPC   C36 4686   1.106   3.009   5.195
   94DPPC   C37 4687   1.159   2.940   5.069
   94DPPC   C38 4688   1.045   2.913   4.970
   94DPPC   C39 4689   1.095   2.835   4.848
   94DPPC   C40 4690   0.981   2.814   4.748
   94DPPC   C41 4691   1.024   2.723   4.633
   94DPPC   C42 4692   0.909   2.704   4.534
   94DPPC   C43 4693   0.944   2.602   4.426
   94DPPC   C44 4694   0.825   2.581   4.332
   94DPPC   C45 4695   0.853   2.472   4.228
   94DPPC   C46 4696   0.866   2.335   4.296
   94DPPC   C47 4697   0.879   2.223   4.193
   94DPPC   C48 4698   1.011   2.230   4.117
   94DPPC   C49 4699   1.023   2.114   4.018
   94DPPC   C50 4700   1.159   2.117   3.947
   95DPPC    C1 4701   1.415   3.013   5.587
   95DPPC    C2 4702   1.284   3.213   5.578
   95DPPC    C3 4703   1.264   3.070   5.764
   95DPPC    N4 4704   1.359   3.124   5.667
   95DPPC    C5 4705   1.463   3.199   5.741
   95DPPC    C6 4706   1.598   3.239   5.676
   95DPPC   OS7 4707   1.597   3.326   5.563
   95DPPC    P8 4708   1.745   3.362   5.527
   95DPPC   OM9 4709   1.826   3.240   5.526
   95DPPC  OM10 4710   1.781   3.474   5.616
   95DPPC  OS11 4711   1.730   3.420   5.383
   95DPPC   C12 4712   1.734   3.321   5.280
   95DPPC   C13 4713   1.738   3.383   5.140
   95DPPC  OS14 4714   1.693   3.294   5.034
   95DPPC   C15 4715   1.560   3.291   5.004
   95DPPC   O16 4716   1.475   3.342   5.077
   95DPPC   C17 4717   1.532   3.192   4.892
   95DPPC   C18 4718   1.410   3.234   4.809
   95DPPC   C19 4719   1.384   3.135   4.695
   95DPPC   C20 4720   1.274   3.188   4.603
   95DPPC   C21 4721   1.244   3.092   4.488
   95DPPC   C22 4722   1.144   3.157   4.392
   95DPPC   C23 4723   1.101   3.063   4.280
   95DPPC   C24 4724   1.007   3.136   4.184
   95DPPC   C25 4725   0.951   3.043   4.076
   95DPPC   C26 4726   0.858   2.939   4.139
   95DPPC   C27 4727   0.788   2.854   4.032
   95DPPC   C28 4728   0.684   2.937   3.956
   95DPPC   C29 4729   0.602   2.848   3.863
   95DPPC   C30 4730   0.495   2.929   3.789
   95DPPC   C31 4731   0.407   2.837   3.704
   95DPPC   C32 4732   1.879   3.443   5.123
   95DPPC  OS33 4733   1.986   3.347   5.122
   95DPPC   C34 4734   2.113   3.393   5.112
   95DPPC   O35 4735   2.153   3.497   5.167
   95DPPC   C36 4736   2.205   3.277   5.078
   95DPPC   C37 4737   2.291   3.307   4.954
   95DPPC   C38 4738   2.206   3.305   4.827
   95DPPC   C39 4739   2.294   3.308   4.702
   95DPPC   C40 4740   2.211   3.299   4.574
   95DPPC   C41 4741   2.144   3.432   4.539
   95DPPC   C42 4742   2.064   3.422   4.409
   95DPPC   C43 4743   2.154   3.374   4.295
   95DPPC   C44 4744   2.088   3.390   4.158
   95DPPC   C45 4745   2.170   3.319   4.050
   95DPPC   C46 4746   2.312   3.374   4.042
   95DPPC   C47 4747   2.399   3.290   3.947
   95DPPC   C48 4748   2.544   3.337   3.948
   95DPPC   C49 4749   2.632   3.248   3.860
   95DPPC   C50 4750   2.778   3.291   3.867
   96DPPC    C1 4751   5.590   4.949   5.194
   96DPPC    C2 4752   5.470   4.748   5.137
   96DPPC    C3 4753   5.366   4.959   5.120
   96DPPC    N4 4754   5.460   4.881   5.200
   96DPPC    C5 4755   5.409   4.873   5.339
   96DPPC    C6 4756   5.490   4.799   5.449
   96DPPC   OS7 4757   5.514   4.661   5.424
   96DPPC    P8 4758   5.579   4.585   5.544
   96DPPC   OM9 4759   5.549   4.442   5.536
   96DPPC  OM10 4760   5.569   4.660   5.671
   96DPPC  OS11 4761   0.044   4.607   5.503
   96DPPC   C12 4762   0.084   4.519   5.398
   96DPPC   C13 4763   0.237   4.509   5.384
   96DPPC  OS14 4764   0.279   4.475   5.250
   96DPPC   C15 4765   0.379   4.553   5.202
   96DPPC   O16 4766   0.444   4.627   5.275
   96DPPC   C17 4767   0.410   4.521   5.056
   96DPPC   C18 4768   0.281   4.506   4.976
   96DPPC   C19 4769   0.309   4.481   4.828
   96DPPC   C20 4770   0.359   4.338   4.802
   96DPPC   C21 4771   0.382   4.318   4.652
   96DPPC   C22 4772   0.510   4.388   4.606
   96DPPC   C23 4773   0.505   4.420   4.456
   96DPPC   C24 4774   0.481   4.297   4.369
   96DPPC   C25 4775   0.462   4.339   4.223
   96DPPC   C26 4776   0.418   4.223   4.134
   96DPPC   C27 4777   0.530   4.121   4.113
   96DPPC   C28 4778   0.483   4.011   4.017
   96DPPC   C29 4779   0.596   3.913   3.984
   96DPPC   C30 4780   0.548   3.809   3.882
   96DPPC   C31 4781   0.661   3.713   3.845
   96DPPC   C32 4782   0.289   4.420   5.499
   96DPPC  OS33 4783   0.227   4.290   5.508
   96DPPC   C34 4784   0.293   4.186   5.448
   96DPPC   O35 4785   0.415   4.177   5.441
   96DPPC   C36 4786   0.198   4.067   5.439
   96DPPC   C37 4787   0.244   3.963   5.337
   96DPPC   C38 4788   0.234   4.015   5.193
   96DPPC   C39 4789   0.092   4.057   5.157
   96DPPC   C40 4790   0.081   4.087   5.007
   96DPPC   C41 4791   0.081   3.957   4.927
   96DPPC   C42 4792   0.066   3.985   4.777
   96DPPC   C43 4793   0.053   3.854   4.700
   96DPPC   C44 4794   0.044   3.881   4.549
   96DPPC   C45 4795   0.177   3.934   4.496
   96DPPC   C46 4796   0.165   3.968   4.347
   96DPPC   C47 4797   0.135   3.842   4.265
   96DPPC   C48 4798   0.118   3.877   4.117
   96DPPC   C49 4799   0.079   3.753   4.037
   96DPPC   C50 4800   0.192   3.650   4.035
   97DPPC    C1 4801   3.483   3.670   5.705
   97DPPC    C2 4802   3.677   3.779   5.622
   97DPPC    C3 4803   3.491   3.909   5.690
   97DPPC    N4 4804   3.531   3.783   5.625
   97DPPC    C5 4805   3.480   3.775   5.486
   97DPPC    C6 4806   3.328   3.778   5.458
   97DPPC   OS7 4807   3.256   3.662   5.503
   97DPPC    P8 4808   3.102   3.679   5.480
   97DPPC   OM9 4809   3.068   3.816   5.521
   97DPPC  OM10 4810   3.028   3.568   5.543
   97DPPC  OS11 4811   3.095   3.665   5.323
   97DPPC   C12 4812   3.058   3.534   5.281
   97DPPC   C13 4813   3.040   3.512   5.129
   97DPPC  OS14 4814   3.159   3.473   5.056
   97DPPC   C15 4815   3.186   3.340   5.045
   97DPPC   O16 4816   3.134   3.253   5.115
   97DPPC   C17 4817   3.302   3.319   4.949
   97DPPC   C18 4818   3.390   3.202   4.995
   97DPPC   C19 4819   3.518   3.197   4.911
   97DPPC   C20 4820   3.487   3.156   4.767
   97DPPC   C21 4821   3.611   3.175   4.679
   97DPPC   C22 4822   3.585   3.129   4.536
   97DPPC   C23 4823   3.703   3.166   4.447
   97DPPC   C24 4824   3.685   3.112   4.306
   97DPPC   C25 4825   3.798   3.160   4.216
   97DPPC   C26 4826   3.784   3.310   4.187
   97DPPC   C27 4827   3.900   3.359   4.100
   97DPPC   C28 4828   3.877   3.502   4.052
   97DPPC   C29 4829   3.764   3.506   3.949
   97DPPC   C30 4830   3.804   3.436   3.819
   97DPPC   C31 4831   3.691   3.443   3.716
   97DPPC   C32 4832   2.969   3.636   5.072
   97DPPC  OS33 4833   2.827   3.648   5.099
   97DPPC   C34 4834   2.775   3.756   5.035
   97DPPC   O35 4835   2.841   3.834   4.967
   97DPPC   C36 4836   2.625   3.766   5.057
   97DPPC   C37 4837   2.558   3.819   4.930
   97DPPC   C38 4838   2.558   3.711   4.822
   97DPPC   C39 4839   2.509   3.765   4.687
   97DPPC   C40 4840   2.514   3.656   4.581
   97DPPC   C41 4841   2.472   3.709   4.444
   97DPPC   C42 4842   2.471   3.596   4.341
   97DPPC   C43 4843   2.612   3.549   4.305
   97DPPC   C44 4844   2.679   3.650   4.212
   97DPPC   C45 4845   2.818   3.603   4.169
   97DPPC   C46 4846   2.877   3.700   4.067
   97DPPC   C47 4847   2.798   3.696   3.937
   97DPPC   C48 4848   2.853   3.797   3.835
   97DPPC   C49 4849   2.777   3.788   3.703
   97DPPC   C50 4850   2.632   3.832   3.719
   98DPPC    C1 4851   2.518   0.017   5.894
   98DPPC    C2 4852   2.415   0.150   5.724
   98DPPC    C3 4853   2.284   0.054   5.900
   98DPPC    N4 4854   2.398   0.031   5.810
   98DPPC    C5 4855   2.369   5.516   5.731
   98DPPC    C6 4856   2.467   5.470   5.620
   98DPPC   OS7 4857   2.596   5.425   5.665
   98DPPC    P8 4858   2.712   5.489   5.579
   98DPPC   OM9 4859   2.837   5.443   5.640
   98DPPC  OM10 4860   2.679   0.025   5.570
   98DPPC  OS11 4861   2.687   5.421   5.441
   98DPPC   C12 4862   2.739   5.288   5.434
   98DPPC   C13 4863   2.693   5.217   5.305
   98DPPC  OS14 4864   2.727   5.075   5.302
   98DPPC   C15 4865   2.622   4.990   5.321
   98DPPC   O16 4866   2.528   5.020   5.395
   98DPPC   C17 4867   2.655   4.850   5.273
   98DPPC   C18 4868   2.682   4.856   5.123
   98DPPC   C19 4869   2.676   4.719   5.055
   98DPPC   C20 4870   2.693   4.739   4.905
   98DPPC   C21 4871   2.663   4.613   4.824
   98DPPC   C22 4872   2.680   4.645   4.676
   98DPPC   C23 4873   2.628   4.534   4.585
   98DPPC   C24 4874   2.641   4.581   4.440
   98DPPC   C25 4875   2.565   4.491   4.342
   98DPPC   C26 4876   2.572   4.556   4.204
   98DPPC   C27 4877   2.482   4.488   4.101
   98DPPC   C28 4878   2.485   4.570   3.972
   98DPPC   C29 4879   2.431   4.710   4.000
   98DPPC   C30 4880   2.442   4.801   3.878
   98DPPC   C31 4881   2.387   4.940   3.910
   98DPPC   C32 4882   2.745   5.302   5.188
   98DPPC  OS33 4883   2.707   5.254   5.057
   98DPPC   C34 4884   2.694   5.347   4.959
   98DPPC   O35 4885   2.647   5.459   4.980
   98DPPC   C36 4886   2.681   5.273   4.827
   98DPPC   C37 4887   2.555   5.186   4.828
   98DPPC   C38 4888   2.555   5.084   4.713
   98DPPC   C39 4889   2.545   5.152   4.576
   98DPPC   C40 4890   2.540   5.046   4.465
   98DPPC   C41 4891   2.541   5.111   4.327
   98DPPC   C42 4892   2.413   5.190   4.299
   98DPPC   C43 4893   2.419   5.256   4.162
   98DPPC   C44 4894   2.290   5.332   4.133
   98DPPC   C45 4895   2.293   5.399   3.995
   98DPPC   C46 4896   2.394   5.515   3.992
   98DPPC   C47 4897   2.382   5.594   3.861
   98DPPC   C48 4898   2.426   5.511   3.740
   98DPPC   C49 4899   2.407   5.592   3.611
   98DPPC   C50 4900   2.460   5.515   3.490
   99DPPC    C1 4901   5.243   0.790   5.359
   99DPPC    C2 4902   5.130   0.751   5.153
   99DPPC    C3 4903   5.005   0.769   5.353
   99DPPC    N4 4904   5.122   0.821   5.281
   99DPPC    C5 4905   5.108   0.964   5.248
   99DPPC    C6 4906   5.110   1.075   5.357
   99DPPC   OS7 4907   5.077   1.199   5.297
   99DPPC    P8 4908   5.098   1.328   5.385
   99DPPC   OM9 4909   5.107   1.289   5.527
   99DPPC  OM10 4910   5.005   1.433   5.343
   99DPPC  OS11 4911   5.241   1.366   5.333
   99DPPC   C12 4912   5.235   1.412   5.197
   99DPPC   C13 4913   5.271   1.560   5.175
   99DPPC  OS14 4914   5.219   1.612   5.050
   99DPPC   C15 4915   5.196   1.746   5.040
   99DPPC   O16 4916   5.205   1.823   5.136
   99DPPC   C17 4917   5.139   1.782   4.903
   99DPPC   C18 4918   5.243   1.850   4.815
   99DPPC   C19 4919   5.182   1.877   4.677
   99DPPC   C20 4920   5.282   1.944   4.583
   99DPPC   C21 4921   5.215   1.967   4.447
   99DPPC   C22 4922   5.310   2.035   4.348
   99DPPC   C23 4923   5.238   2.055   4.215
   99DPPC   C24 4924   5.326   2.125   4.111
   99DPPC   C25 4925   5.251   2.132   3.978
   99DPPC   C26 4926   5.330   2.207   3.871
   99DPPC   C27 4927   5.250   2.205   3.740
   99DPPC   C28 4928   5.320   2.283   3.629
   99DPPC   C29 4929   5.239   2.274   3.500
   99DPPC   C30 4930   5.304   2.354   3.387
   99DPPC   C31 4931   5.221   2.343   3.260
   99DPPC   C32 4932   5.422   1.570   5.198
   99DPPC  OS33 4933   5.503   1.489   5.110
   99DPPC   C34 4934   5.575   1.556   5.016
   99DPPC   O35 4935   5.606   1.675   5.024
   99DPPC   C36 4936   5.640   1.455   4.923
   99DPPC   C37 4937   5.644   1.503   4.778
   99DPPC   C38 4938   5.503   1.513   4.720
   99DPPC   C39 4939   5.507   1.506   4.567
   99DPPC   C40 4940   5.593   1.616   4.506
   99DPPC   C41 4941   5.600   1.601   4.354
   99DPPC   C42 4942   5.471   1.648   4.286
   99DPPC   C43 4943   5.476   1.622   4.136
   99DPPC   C44 4944   5.360   1.690   4.063
   99DPPC   C45 4945   5.225   1.638   4.111
   99DPPC   C46 4946   5.110   1.704   4.034
   99DPPC   C47 4947   4.975   1.659   4.092
   99DPPC   C48 4948   4.959   1.712   4.234
   99DPPC   C49 4949   4.825   1.669   4.296
   99DPPC   C50 4950   4.813   1.722   4.439
  100DPPC    C1 4951   3.092   4.243   6.320
  100DPPC    C2 4952   3.076   4.467   6.234
  100DPPC    C3 4953   2.967   4.409   6.436
  100DPPC    N4 4954   3.003   4.359   6.302
  100DPPC    C5 4955   2.878   4.324   6.230
  100DPPC    C6 4956   2.890   4.265   6.087
  100DPPC   OS7 4957   2.766   4.235   6.024
  100DPPC    P8 4958   2.793   4.157   5.891
  100DPPC   OM9 4959   2.824   4.019   5.932
  100DPPC  OM10 4960   2.884   4.239   5.809
  100DPPC  OS11 4961   2.646   4.165   5.838
  100DPPC   C12 4962   2.642   4.158   5.696
  100DPPC   C13 4963   2.499   4.139   5.643
  100DPPC  OS14 4964   2.499   4.089   5.506
  100DPPC   C15 4965   2.402   4.000   5.471
  100DPPC   O16 4966   2.314   3.961   5.549
  100DPPC   C17 4967   2.424   3.952   5.329
  100DPPC   C18 4968   2.294   3.906   5.263
  100DPPC   C19 4969   2.209   4.026   5.219
  100DPPC   C20 4970   2.090   3.977   5.136
  100DPPC   C21 4971   2.141   3.903   5.012
  100DPPC   C22 4972   2.027   3.864   4.919
  100DPPC   C23 4973   2.081   3.785   4.799
  100DPPC   C24 4974   1.971   3.763   4.695
  100DPPC   C25 4975   1.858   3.676   4.749
  100DPPC   C26 4976   1.747   3.663   4.644
  100DPPC   C27 4977   1.631   3.577   4.695
  100DPPC   C28 4978   1.521   3.570   4.589
  100DPPC   C29 4979   1.568   3.495   4.465
  100DPPC   C30 4980   1.458   3.490   4.359
  100DPPC   C31 4981   1.428   3.630   4.304
  100DPPC   C32 4982   2.423   4.271   5.668
  100DPPC  OS33 4983   2.465   4.384   5.587
  100DPPC   C34 4984   2.399   4.397   5.468
  100DPPC   O35 4985   2.281   4.366   5.452
  100DPPC   C36 4986   2.475   4.492   5.377
  100DPPC   C37 4987   2.397   4.522   5.248
  100DPPC   C38 4988   2.395   4.405   5.150
  100DPPC   C39 4989   2.324   4.447   5.021
  100DPPC   C40 4990   2.301   4.330   4.925
  100DPPC   C41 4991   2.432   4.271   4.875
  100DPPC   C42 4992   2.406   4.160   4.773
  100DPPC   C43 4993   2.364   4.215   4.637
  100DPPC   C44 4994   2.332   4.101   4.541
  100DPPC   C45 4995   2.305   4.150   4.399
  100DPPC   C46 4996   2.259   4.033   4.312
  100DPPC   C47 4997   2.235   4.074   4.166
  100DPPC   C48 4998   2.365   4.085   4.088
  100DPPC   C49 4999   2.427   3.947   4.064
  100DPPC   C50 5000   2.339   3.863   3.971
  101SOL     OW 5001   2.296   0.696   0.847
  101SOL    HW1 5002   2.261   0.607   0.817
  101SOL    HW2 5003   2.380   0.716   0.796
  102SOL     OW 5004   4.595   1.752   1.157
  102SOL    HW1 5005   4.549   1.668   1.129
  102SOL    HW2 5006   4.655   1.784   1.084
  103SOL     OW 5007   5.459   1.423   6.135
  103SOL    HW1 5008   5.368   1.428   6.093
  103SOL    HW2 5009   5.523   1.477   6.081
  104SOL     OW 5010   0.361   1.215   0.836
  104SOL    HW1 5011   0.358   1.311   0.809
  104SOL    HW2 5012   0.308   1.160   0.771
  105SOL     OW 5013   4.575   1.301   0.335
  105SOL    HW1 5014   4.572   1.399   0.352
  105SOL    HW2 5015   4.485   1.270   0.304
  106SOL     OW 5016   2.578   3.826   0.321
  106SOL    HW1 5017   2.575   3.868   0.411
  106SOL    HW2 5018   2.529   3.883   0.255
  107SOL     OW 5019   0.109   0.183   6.678
  107SOL    HW1 5020   0.063   0.143   6.758
  107SOL    HW2 5021   0.060   0.265   6.650
  108SOL     OW 5022   3.512   2.150   0.503
  108SOL    HW1 5023   3.459   2.193   0.430
  108SOL    HW2 5024   3.459   2.076   0.544
  109SOL     OW 5025   4.273   0.509   5.121
  109SOL    HW1 5026   4.269   0.597   5.074
  109SOL    HW2 5027   4.347   0.510   5.189
  110SOL     OW 5028   3.224   2.401   1.885
  110SOL    HW1 5029   3.238   2.476   1.949
  110SOL    HW2 5030   3.161   2.334   1.925
  111SOL     OW 5031   0.237   2.962   1.391
  111SOL    HW1 5032   0.299   2.974   1.313
  111SOL    HW2 5033   0.176   3.041   1.397
  112SOL     OW 5034   1.999   3.545   1.460
  112SOL    HW1 5035   2.022   3.564   1.556
  112SOL    HW2 5036   1.917   3.596   1.435
  113SOL     OW 5037   4.719   1.245   6.580
  113SOL    HW1 5038   4.781   1.167   6.589
  113SOL    HW2 5039   4.649   1.225   6.512
  114SOL     OW 5040   0.081   3.274   0.365
  114SOL    HW1 5041   0.057   3.268   0.268
  114SOL    HW2 5042   0.028   3.347   0.408
  115SOL     OW 5043   1.257   0.827   0.518
  115SOL    HW1 5044   1.223   0.825   0.424
  115SOL    HW2 5045   1.180   0.837   0.582
  116SOL     OW 5046   2.534   5.545   6.212
  116SOL    HW1 5047   2.537   0.008   6.283
  116SOL    HW2 5048   2.450   5.491   6.222
  117SOL     OW 5049   2.756   2.175   0.849
  117SOL    HW1 5050   2.699   2.127   0.783
  117SOL    HW2 5051   2.704   2.192   0.933
  118SOL     OW 5052   5.233   5.238   5.361
  118SOL    HW1 5053   5.175   5.160   5.337
  118SOL    HW2 5054   5.194   5.321   5.322
  119SOL     OW 5055   4.144   2.633   0.613
  119SOL    HW1 5056   4.208   2.558   0.628
  119SOL    HW2 5057   4.080   2.608   0.540
  120SOL     OW 5058   0.302   0.416   1.555
  120SOL    HW1 5059   0.227   0.466   1.512
  120SOL    HW2 5060   0.354   0.477   1.614
  121SOL     OW 5061   2.640   2.850   1.521
  121SOL    HW1 5062   2.557   2.900   1.545
  121SOL    HW2 5063   2.625   2.752   1.533
  122SOL     OW 5064   5.202   4.811   5.945
  122SOL    HW1 5065   5.220   4.713   5.952
  122SOL    HW2 5066   5.186   4.835   5.850
  123SOL     OW 5067   4.330   2.523   6.195
  123SOL    HW1 5068   4.249   2.578   6.174
  123SOL    HW2 5069   4.412   2.569   6.160
  124SOL     OW 5070   2.150   4.917   1.952
  124SOL    HW1 5071   2.121   4.966   2.034
  124SOL    HW2 5072   2.239   4.875   1.969
  125SOL     OW 5073   4.618   4.216   0.293
  125SOL    HW1 5074   4.689   4.218   0.362
  125SOL    HW2 5075   4.533   4.181   0.333
  126SOL     OW 5076   2.395   1.399   6.323
  126SOL    HW1 5077   2.409   1.483   6.377
  126SOL    HW2 5078   2.309   1.406   6.272
  127SOL     OW 5079   3.698   5.264   5.705
  127SOL    HW1 5080   3.661   5.209   5.629
  127SOL    HW2 5081   3.624   5.318   5.746
  128SOL     OW 5082   0.091   3.892   2.333
  128SOL    HW1 5083   0.043   3.976   2.306
  128SOL    HW2 5084   0.025   3.823   2.363
  129SOL     OW 5085   2.830   0.418   5.740
  129SOL    HW1 5086   2.914   0.457   5.704
  129SOL    HW2 5087   2.852   0.344   5.804
  130SOL     OW 5088   0.901   5.494   1.037
  130SOL    HW1 5089   0.926   5.541   0.952
  130SOL    HW2 5090   0.814   5.529   1.070
  131SOL     OW 5091   2.195   3.234   6.608
  131SOL    HW1 5092   2.132   3.311   6.614
  131SOL    HW2 5093   2.188   3.192   6.517
  132SOL     OW 5094   1.618   0.271   0.951
  132SOL    HW1 5095   1.522   0.247   0.960
  132SOL    HW2 5096   1.631   0.328   0.870
  133SOL     OW 5097   2.017   5.312   5.839
  133SOL    HW1 5098   1.928   5.325   5.884
  133SOL    HW2 5099   2.002   5.287   5.743
  134SOL     OW 5100   0.726   2.996   5.606
  134SOL    HW1 5101   0.682   2.950   5.528
  134SOL    HW2 5102   0.810   3.039   5.576
  135SOL     OW 5103   2.489   0.372   1.504
  135SOL    HW1 5104   2.435   0.416   1.576
  135SOL    HW2 5105   2.579   0.348   1.541
  136SOL     OW 5106   2.857   3.112   6.093
  136SOL    HW1 5107   2.885   3.016   6.091
  136SOL    HW2 5108   2.929   3.168   6.053
  137SOL     OW 5109   4.506   2.890   6.842
  137SOL    HW1 5110   4.415   2.849   6.852
  137SOL    HW2 5111   4.517   2.962   0.053
  138SOL     OW 5112   4.005   2.482   6.520
  138SOL    HW1 5113   3.988   2.446   6.612
  138SOL    HW2 5114   4.095   2.527   6.519
  139SOL     OW 5115   4.681   3.272   6.807
  139SOL    HW1 5116   4.739   3.266   6.726
  139SOL    HW2 5117   4.585   3.275   6.780
  140SOL     OW 5118   5.417   5.246   6.690
  140SOL    HW1 5119   5.321   5.267   6.673
  140SOL    HW2 5120   5.458   5.207   6.608
  141SOL     OW 5121   1.491   3.035   6.255
  141SOL    HW1 5122   1.570   3.048   6.196
  141SOL    HW2 5123   1.507   3.079   6.344
  142SOL     OW 5124   4.074   0.530   5.473
  142SOL    HW1 5125   4.103   0.624   5.461
  142SOL    HW2 5126   4.026   0.498   5.391
  143SOL     OW 5127   2.575   4.450   0.570
  143SOL    HW1 5128   2.567   4.446   0.471
  143SOL    HW2 5129   2.609   4.540   0.598
  144SOL     OW 5130   0.857   4.099   2.145
  144SOL    HW1 5131   0.908   4.036   2.087
  144SOL    HW2 5132   0.901   4.107   2.234
  145SOL     OW 5133   4.769   5.116   5.827
  145SOL    HW1 5134   4.775   5.056   5.747
  145SOL    HW2 5135   4.855   5.113   5.879
  146SOL     OW 5136   1.643   4.954   6.743
  146SOL    HW1 5137   1.680   4.867   6.712
  146SOL    HW2 5138   1.714   5.024   6.742
  147SOL     OW 5139   2.486   2.296   6.793
  147SOL    HW1 5140   2.395   2.322   6.761
  147SOL    HW2 5141   2.514   2.211   6.749
  148SOL     OW 5142   4.018   2.727   1.135
  148SOL    HW1 5143   3.962   2.703   1.056
  148SOL    HW2 5144   4.066   2.646   1.169
  149SOL     OW 5145   0.181   0.948   1.269
  149SOL    HW1 5146   0.198   0.995   1.182
  149SOL    HW2 5147   0.218   0.855   1.265
  150SOL     OW 5148   0.712   4.632   0.859
  150SOL    HW1 5149   0.764   4.708   0.821
  150SOL    HW2 5150   0.623   4.665   0.892
  151SOL     OW 5151   1.962   0.519   6.738
  151SOL    HW1 5152   1.905   0.455   6.790
  151SOL    HW2 5153   1.914   0.606   6.729
  152SOL     OW 5154   4.039   1.746   6.594
  152SOL    HW1 5155   4.034   1.838   6.553
  152SOL    HW2 5156   4.131   1.731   6.631
  153SOL     OW 5157   2.654   1.951   0.433
  153SOL    HW1 5158   2.689   1.859   0.451
  153SOL    HW2 5159   2.599   1.950   0.349
  154SOL     OW 5160   4.760   0.078   6.016
  154SOL    HW1 5161   4.780   0.003   6.079
  154SOL    HW2 5162   4.723   0.156   6.067
  155SOL     OW 5163   1.945   5.263   1.619
  155SOL    HW1 5164   1.958   5.200   1.696
  155SOL    HW2 5165   1.953   5.357   1.651
  156SOL     OW 5166   0.299   2.970   5.859
  156SOL    HW1 5167   0.378   2.923   5.819
  156SOL    HW2 5168   0.279   3.052   5.806
  157SOL     OW 5169   2.680   4.519   1.054
  157SOL    HW1 5170   2.585   4.511   1.025
  157SOL    HW2 5171   2.683   4.539   1.152
  158SOL     OW 5172   2.448   2.685   0.212
  158SOL    HW1 5173   2.525   2.749   0.215
  158SOL    HW2 5174   2.483   2.593   0.194
  159SOL     OW 5175   0.096   3.012   6.845
  159SOL    HW1 5176   0.024   2.985   6.781
  159SOL    HW2 5177   0.081   3.106   0.018
  160SOL     OW 5178   3.010   4.151   6.652
  160SOL    HW1 5179   3.067   4.073   6.627
  160SOL    HW2 5180   2.965   4.132   6.740
  161SOL     OW 5181   2.103   0.157   5.629
  161SOL    HW1 5182   2.161   0.168   5.548
  161SOL    HW2 5183   2.049   0.240   5.642
  162SOL     OW 5184   2.982   4.764   0.472
  162SOL    HW1 5185   2.978   4.670   0.506
  162SOL    HW2 5186   2.890   4.802   0.469
  163SOL     OW 5187   5.309   1.319   0.926
  163SOL    HW1 5188   5.339   1.414   0.936
  163SOL    HW2 5189   5.222   1.317   0.877
  164SOL     OW 5190   4.010   4.793   0.360
  164SOL    HW1 5191   3.962   4.724   0.307
  164SOL    HW2 5192   3.959   4.879   0.357
  165SOL     OW 5193   3.594   0.085   0.185
  165SOL    HW1 5194   3.615   5.597   0.209
  165SOL    HW2 5195   3.495   0.099   0.191
  166SOL     OW 5196   5.375   4.894   1.165
  166SOL    HW1 5197   5.453   4.956   1.155
  166SOL    HW2 5198   5.343   4.864   1.075
  167SOL     OW 5199   3.764   4.778   6.371
  167SOL    HW1 5200   3.838   4.825   6.321
  167SOL    HW2 5201   3.676   4.801   6.329
  168SOL     OW 5202   4.683   5.264   6.074
  168SOL    HW1 5203   4.595   5.311   6.078
  168SOL    HW2 5204   4.691   5.215   5.987
  169SOL     OW 5205   2.703   5.488   1.826
  169SOL    HW1 5206   2.669   5.556   1.892
  169SOL    HW2 5207   2.626   5.450   1.775
  170SOL     OW 5208   2.260   1.101   0.743
  170SOL    HW1 5209   2.176   1.123   0.692
  170SOL    HW2 5210   2.329   1.067   0.679
  171SOL     OW 5211   0.626   3.359   0.099
  171SOL    HW1 5212   0.544   3.414   0.111
  171SOL    HW2 5213   0.707   3.417   0.109
  172SOL     OW 5214   4.757   3.960   1.070
  172SOL    HW1 5215   4.795   4.033   1.125
  172SOL    HW2 5216   4.803   3.874   1.091
  173SOL     OW 5217   1.369   2.860   6.603
  173SOL    HW1 5218   1.379   2.821   6.511
  173SOL    HW2 5219   1.273   2.878   6.621
  174SOL     OW 5220   1.910   0.878   1.390
  174SOL    HW1 5221   1.938   0.971   1.413
  174SOL    HW2 5222   1.896   0.825   1.474
  175SOL     OW 5223   4.998   4.666   0.541
  175SOL    HW1 5224   5.052   4.604   0.597
  175SOL    HW2 5225   5.028   4.659   0.445
  176SOL     OW 5226   3.855   1.583   6.697
  176SOL    HW1 5227   3.813   1.638   6.769
  176SOL    HW2 5228   3.923   1.638   6.649
  177SOL     OW 5229   3.477   4.705   6.472
  177SOL    HW1 5230   3.381   4.684   6.487
  177SOL    HW2 5231   3.529   4.620   6.463
  178SOL     OW 5232   0.574   3.481   6.222
  178SOL    HW1 5233   0.514   3.401   6.214
  178SOL    HW2 5234   0.662   3.453   6.260
  179SOL     OW 5235   4.489   4.538   5.746
  179SOL    HW1 5236   4.406   4.524   5.692
  179SOL    HW2 5237   4.514   4.635   5.745
  180SOL     OW 5238   4.722   3.610   1.236
  180SOL    HW1 5239   4.651   3.679   1.244
  180SOL    HW2 5240   4.680   3.521   1.216
  181SOL     OW 5241   5.439   0.263   0.933
  181SOL    HW1 5242   5.537   0.243   0.935
  181SOL    HW2 5243   5.405   0.253   0.840
  182SOL     OW 5244   3.587   4.675   5.513
  182SOL    HW1 5245   3.536   4.592   5.532
  182SOL    HW2 5246   3.524   4.747   5.483
  183SOL     OW 5247   4.824   1.612   0.554
  183SOL    HW1 5248   4.901   1.562   0.513
  183SOL    HW2 5249   4.855   1.701   0.587
  184SOL     OW 5250   5.667   5.291   5.991
  184SOL    HW1 5251   5.575   5.272   6.028
  184SOL    HW2 5252   0.050   5.255   6.054
  185SOL     OW 5253   1.314   3.747   0.171
  185SOL    HW1 5254   1.326   3.696   0.256
  185SOL    HW2 5255   1.324   3.845   0.190
  186SOL     OW 5256   1.626   2.030   6.158
  186SOL    HW1 5257   1.560   1.958   6.181
  186SOL    HW2 5258   1.626   2.044   6.059
  187SOL     OW 5259   1.500   0.718   0.300
  187SOL    HW1 5260   1.401   0.704   0.292
  187SOL    HW2 5261   1.520   0.816   0.295
  188SOL     OW 5262   0.171   2.740   5.639
  188SOL    HW1 5263   0.188   2.694   5.726
  188SOL    HW2 5264   0.192   2.837   5.648
  189SOL     OW 5265   4.511   3.314   0.435
  189SOL    HW1 5266   4.580   3.337   0.366
  189SOL    HW2 5267   4.547   3.333   0.526
  190SOL     OW 5268   2.781   1.624   0.946
  190SOL    HW1 5269   2.791   1.684   0.866
  190SOL    HW2 5270   2.686   1.624   0.977
  191SOL     OW 5271   5.041   0.631   6.463
  191SOL    HW1 5272   5.099   0.686   6.404
  191SOL    HW2 5273   4.966   0.687   6.499
  192SOL     OW 5274   2.291   1.825   0.097
  192SOL    HW1 5275   2.274   1.728   0.114
  192SOL    HW2 5276   2.230   1.880   0.153
  193SOL     OW 5277   0.486   2.774   6.842
  193SOL    HW1 5278   0.476   2.819   0.074
  193SOL    HW2 5279   0.405   2.793   6.786
  194SOL     OW 5280   4.792   5.482   0.068
  194SOL    HW1 5281   4.788   5.582   0.070
  194SOL    HW2 5282   4.833   5.448   0.152
  195SOL     OW 5283   5.208   2.949   6.748
  195SOL    HW1 5284   5.279   3.019   6.759
  195SOL    HW2 5285   5.191   2.934   6.651
  196SOL     OW 5286   0.519   0.710   0.239
  196SOL    HW1 5287   0.602   0.656   0.228
  196SOL    HW2 5288   0.507   0.733   0.336
  197SOL     OW 5289   4.264   2.149   6.490
  197SOL    HW1 5290   4.301   2.058   6.505
  197SOL    HW2 5291   4.320   2.198   6.423
  198SOL     OW 5292   0.524   0.216   0.629
  198SOL    HW1 5293   0.525   0.271   0.545
  198SOL    HW2 5294   0.455   0.145   0.622
  199SOL     OW 5295   4.501   0.788   5.093
  199SOL    HW1 5296   4.484   0.849   5.171
  199SOL    HW2 5297   4.417   0.779   5.039
  200SOL     OW 5298   1.699   5.316   0.394
  200SOL    HW1 5299   1.776   5.271   0.440
  200SOL    HW2 5300   1.686   5.274   0.304
  201SOL     OW 5301   5.107   4.668   1.135
  201SOL    HW1 5302   5.201   4.640   1.116
  201SOL    HW2 5303   5.105   4.723   1.219
  202SOL     OW 5304   0.019   1.980   0.498
  202SOL    HW1 5305   5.661   2.066   0.525
  202SOL    HW2 5306   0.005   1.964   0.400
  203SOL     OW 5307   1.135   2.693   6.421
  203SOL    HW1 5308   1.160   2.624   6.490
  203SOL    HW2 5309   1.218   2.736   6.386
  204SOL     OW 5310   2.714   4.358   1.523
  204SOL    HW1 5311   2.752   4.278   1.569
  204SOL    HW2 5312   2.639   4.395   1.578
  205SOL     OW 5313   2.630   3.154   6.754
  205SOL    HW1 5314   2.729   3.157   6.768
  205SOL    HW2 5315   2.606   3.067   6.710
  206SOL     OW 5316   3.997   3.772   0.098
  206SOL    HW1 5317   3.918   3.810   0.050
  206SOL    HW2 5318   4.081   3.811   0.061
  207SOL     OW 5319   3.347   0.364   6.675
  207SOL    HW1 5320   3.441   0.336   6.692
  207SOL    HW2 5321   3.345   0.430   6.600
  208SOL     OW 5322   1.646   3.814   0.412
  208SOL    HW1 5323   1.694   3.729   0.430
  208SOL    HW2 5324   1.667   3.845   0.319
  209SOL     OW 5325   3.897   3.342   0.918
  209SOL    HW1 5326   3.915   3.248   0.889
  209SOL    HW2 5327   3.977   3.399   0.897
  210SOL     OW 5328   4.717   2.486   5.104
  210SOL    HW1 5329   4.727   2.575   5.149
  210SOL    HW2 5330   4.794   2.471   5.042
  211SOL     OW 5331   1.968   1.843   5.785
  211SOL    HW1 5332   1.870   1.857   5.767
  211SOL    HW2 5333   2.001   1.914   5.847
  212SOL     OW 5334   3.733   4.646   1.751
  212SOL    HW1 5335   3.803   4.629   1.682
  212SOL    HW2 5336   3.728   4.744   1.771
  213SOL     OW 5337   0.282   3.628   0.579
  213SOL    HW1 5338   0.334   3.704   0.618
  213SOL    HW2 5339   0.193   3.622   0.624
  214SOL     OW 5340   0.250   0.903   5.573
  214SOL    HW1 5341   0.219   0.882   5.480
  214SOL    HW2 5342   0.178   0.879   5.638
  215SOL     OW 5343   3.339   3.116   1.049
  215SOL    HW1 5344   3.402   3.038   1.046
  215SOL    HW2 5345   3.294   3.119   1.139
  216SOL     OW 5346   5.210   2.186   0.198
  216SOL    HW1 5347   5.306   2.210   0.184
  216SOL    HW2 5348   5.184   2.114   0.133
  217SOL     OW 5349   5.214   3.653   0.565
  217SOL    HW1 5350   5.133   3.706   0.538
  217SOL    HW2 5351   5.263   3.624   0.483
  218SOL     OW 5352   0.766   0.442   1.093
  218SOL    HW1 5353   0.751   0.358   1.146
  218SOL    HW2 5354   0.859   0.474   1.107
  219SOL     OW 5355   2.973   0.924   0.202
  219SOL    HW1 5356   2.951   0.958   0.293
  219SOL    HW2 5357   2.902   0.859   0.172
  220SOL     OW 5358   2.732   2.102   1.293
  220SOL    HW1 5359   2.825   2.138   1.307
  220SOL    HW2 5360   2.669   2.147   1.356
  221SOL     OW 5361   1.348   3.673   6.764
  221SOL    HW1 5362   1.321   3.753   6.712
  221SOL    HW2 5363   1.344   3.693   0.004
  222SOL     OW 5364   1.519   4.810   6.128
  222SOL    HW1 5365   1.507   4.838   6.033
  222SOL    HW2 5366   1.536   4.711   6.131
  223SOL     OW 5367   1.314   3.346   6.025
  223SOL    HW1 5368   1.284   3.389   5.940
  223SOL    HW2 5369   1.251   3.371   6.099
  224SOL     OW 5370   0.737   4.963   1.580
  224SOL    HW1 5371   0.775   4.917   1.660
  224SOL    HW2 5372   0.791   5.045   1.560
  225SOL     OW 5373   4.678   0.583   0.577
  225SOL    HW1 5374   4.740   0.520   0.530
  225SOL    HW2 5375   4.586   0.544   0.579
  226SOL     OW 5376   5.449   4.884   5.782
  226SOL    HW1 5377   5.494   4.801   5.749
  226SOL    HW2 5378   5.483   4.908   5.873
  227SOL     OW 5379   3.019   3.211   0.554
  227SOL    HW1 5380   3.064   3.271   0.620
  227SOL    HW2 5381   2.922   3.235   0.549
  228SOL     OW 5382   2.766   4.245   1.051
  228SOL    HW1 5383   2.808   4.253   1.141
  228SOL    HW2 5384   2.726   4.332   1.024
  229SOL     OW 5385   3.300   1.316   2.346
  229SOL    HW1 5386   3.397   1.297   2.330
  229SOL    HW2 5387   3.264   1.249   2.411
  230SOL     OW 5388   1.316   2.412   1.420
  230SOL    HW1 5389   1.355   2.409   1.512
  230SOL    HW2 5390   1.318   2.507   1.386
  231SOL     OW 5391   3.956   3.595   1.245
  231SOL    HW1 5392   3.913   3.507   1.225
  231SOL    HW2 5393   4.008   3.588   1.330
  232SOL     OW 5394   3.513   0.789   1.534
  232SOL    HW1 5395   3.612   0.776   1.532
  232SOL    HW2 5396   3.468   0.700   1.528
  233SOL     OW 5397   5.450   2.446   1.169
  233SOL    HW1 5398   5.387   2.389   1.116
  233SOL    HW2 5399   5.437   2.542   1.146
  234SOL     OW 5400   2.696   0.312   6.606
  234SOL    HW1 5401   2.760   0.254   6.556
  234SOL    HW2 5402   2.747   0.372   6.668
  235SOL     OW 5403   3.471   4.545   1.109
  235SOL    HW1 5404   3.459   4.458   1.061
  235SOL    HW2 5405   3.429   4.539   1.200
  236SOL     OW 5406   2.762   2.417   1.786
  236SOL    HW1 5407   2.773   2.375   1.876
  236SOL    HW2 5408   2.771   2.517   1.794
  237SOL     OW 5409   4.427   0.930   0.374
  237SOL    HW1 5410   4.506   0.911   0.433
  237SOL    HW2 5411   4.365   0.993   0.421
  238SOL     OW 5412   5.477   0.992   6.328
  238SOL    HW1 5413   5.475   0.894   6.347
  238SOL    HW2 5414   5.568   1.028   6.345
  239SOL     OW 5415   0.064   0.639   6.098
  239SOL    HW1 5416   0.037   0.583   6.175
  239SOL    HW2 5417   5.677   0.638   6.029
  240SOL     OW 5418   3.745   3.407   6.725
  240SOL    HW1 5419   3.794   3.451   6.800
  240SOL    HW2 5420   3.647   3.405   6.746
  241SOL     OW 5421   0.174   1.775   1.345
  241SOL    HW1 5422   0.141   1.686   1.312
  241SOL    HW2 5423   0.114   1.809   1.417
  242SOL     OW 5424   3.508   0.523   1.245
  242SOL    HW1 5425   3.606   0.542   1.254
  242SOL    HW2 5426   3.465   0.530   1.335
  243SOL     OW 5427   5.560   0.736   5.473
  243SOL    HW1 5428   5.548   0.724   5.375
  243SOL    HW2 5429   5.650   0.703   5.501
  244SOL     OW 5430   5.022   0.366   1.493
  244SOL    HW1 5431   4.974   0.284   1.522
  244SOL    HW2 5432   5.036   0.427   1.571
  245SOL     OW 5433   0.800   3.937   6.631
  245SOL    HW1 5434   0.760   3.877   6.700
  245SOL    HW2 5435   0.735   3.949   6.555
  246SOL     OW 5436   5.519   2.123   6.848
  246SOL    HW1 5437   5.546   2.180   6.770
  246SOL    HW2 5438   5.507   2.180   0.072
  247SOL     OW 5439   5.133   1.646   1.557
  247SOL    HW1 5440   5.191   1.625   1.478
  247SOL    HW2 5441   5.173   1.604   1.639
  248SOL     OW 5442   5.309   4.341   0.988
  248SOL    HW1 5443   5.329   4.257   0.937
  248SOL    HW2 5444   5.215   4.369   0.970
  249SOL     OW 5445   4.349   2.894   0.925
  249SOL    HW1 5446   4.346   2.890   1.025
  249SOL    HW2 5447   4.426   2.952   0.897
  250SOL     OW 5448   1.581   4.071   0.894
  250SOL    HW1 5449   1.556   3.976   0.876
  250SOL    HW2 5450   1.676   4.086   0.867
  251SOL     OW 5451   0.834   3.593   2.030
  251SOL    HW1 5452   0.850   3.611   2.127
  251SOL    HW2 5453   0.765   3.658   1.996
  252SOL     OW 5454   5.010   5.099   5.955
  252SOL    HW1 5455   5.024   5.151   6.039
  252SOL    HW2 5456   5.094   5.097   5.901
  253SOL     OW 5457   5.593   5.253   0.262
  253SOL    HW1 5458   5.644   5.335   0.239
  253SOL    HW2 5459   5.581   5.197   0.180
  254SOL     OW 5460   1.283   2.048   5.878
  254SOL    HW1 5461   1.357   2.114   5.866
  254SOL    HW2 5462   1.223   2.050   5.799
  255SOL     OW 5463   4.736   4.020   0.145
  255SOL    HW1 5464   4.786   4.061   0.069
  255SOL    HW2 5465   4.684   4.091   0.194
  256SOL     OW 5466   1.403   3.177   5.280
  256SOL    HW1 5467   1.456   3.093   5.273
  256SOL    HW2 5468   1.423   3.236   5.202
  257SOL     OW 5469   3.345   5.490   0.508
  257SOL    HW1 5470   3.372   5.583   0.482
  257SOL    HW2 5471   3.418   5.448   0.562
  258SOL     OW 5472   2.701   2.462   6.779
  258SOL    HW1 5473   2.742   2.457   0.012
  258SOL    HW2 5474   2.615   2.411   6.779
  259SOL     OW 5475   3.738   2.859   6.569
  259SOL    HW1 5476   3.720   2.794   6.496
  259SOL    HW2 5477   3.733   2.953   6.533
  260SOL     OW 5478   2.808   0.715   0.519
  260SOL    HW1 5479   2.752   0.694   0.438
  260SOL    HW2 5480   2.788   0.649   0.591
  261SOL     OW 5481   3.188   4.403   0.149
  261SOL    HW1 5482   3.101   4.396   0.197
  261SOL    HW2 5483   3.253   4.454   0.205
  262SOL     OW 5484   3.738   3.256   0.561
  262SOL    HW1 5485   3.654   3.257   0.616
  262SOL    HW2 5486   3.811   3.302   0.612
  263SOL     OW 5487   5.635   3.749   6.614
  263SOL    HW1 5488   0.031   3.747   6.556
  263SOL    HW2 5489   5.661   3.765   6.709
  264SOL     OW 5490   4.231   1.543   5.795
  264SOL    HW1 5491   4.298   1.595   5.741
  264SOL    HW2 5492   4.193   1.470   5.738
  265SOL     OW 5493   5.502   5.161   0.677
  265SOL    HW1 5494   5.411   5.127   0.699
  265SOL    HW2 5495   5.506   5.259   0.696
  266SOL     OW 5496   5.170   0.889   0.146
  266SOL    HW1 5497   5.090   0.842   0.183
  266SOL    HW2 5498   5.155   0.911   0.050
  267SOL     OW 5499   4.099   2.258   0.762
  267SOL    HW1 5500   4.099   2.207   0.849
  267SOL    HW2 5501   4.042   2.209   0.696
  268SOL     OW 5502   0.825   1.492   5.765
  268SOL    HW1 5503   0.767   1.516   5.687
  268SOL    HW2 5504   0.830   1.570   5.827
  269SOL     OW 5505   4.911   4.280   6.334
  269SOL    HW1 5506   4.819   4.261   6.299
  269SOL    HW2 5507   4.972   4.301   6.257
  270SOL     OW 5508   2.858   5.538   5.900
  270SOL    HW1 5509   2.859   5.493   5.811
  270SOL    HW2 5510   2.812   5.479   5.967
  271SOL     OW 5511   1.476   3.891   5.804
  271SOL    HW1 5512   1.454   3.801   5.842
  271SOL    HW2 5513   1.574   3.909   5.816
  272SOL     OW 5514   5.432   2.888   1.266
  272SOL    HW1 5515   5.410   2.822   1.194
  272SOL    HW2 5516   5.495   2.846   1.331
  273SOL     OW 5517   2.928   3.225   5.276
  273SOL    HW1 5518   2.839   3.205   5.234
  273SOL    HW2 5519   2.999   3.226   5.206
  274SOL     OW 5520   0.707   0.947   0.883
  274SOL    HW1 5521   0.688   1.035   0.839
  274SOL    HW2 5522   0.675   0.951   0.978
  275SOL     OW 5523   0.483   0.847   1.580
  275SOL    HW1 5524   0.562   0.907   1.575
  275SOL    HW2 5525   0.400   0.902   1.593
  276SOL     OW 5526   1.683   0.321   1.219
  276SOL    HW1 5527   1.666   0.304   1.122
  276SOL    HW2 5528   1.603   0.293   1.272
  277SOL     OW 5529   4.160   3.136   1.239
  277SOL    HW1 5530   4.187   3.048   1.278
  277SOL    HW2 5531   4.082   3.123   1.178
  278SOL     OW 5532   4.030   2.211   0.374
  278SOL    HW1 5533   3.983   2.184   0.458
  278SOL    HW2 5534   3.976   2.182   0.295
  279SOL     OW 5535   0.655   2.309   0.437
  279SOL    HW1 5536   0.603   2.243   0.383
  279SOL    HW2 5537   0.605   2.395   0.443
  280SOL     OW 5538   0.887   4.302   6.485
  280SOL    HW1 5539   0.955   4.273   6.417
  280SOL    HW2 5540   0.907   4.257   6.572
  281SOL     OW 5541   2.001   5.526   5.559
  281SOL    HW1 5542   2.032   0.006   5.597
  281SOL    HW2 5543   2.075   5.484   5.506
  282SOL     OW 5544   1.179   4.363   6.116
  282SOL    HW1 5545   1.160   4.457   6.145
  282SOL    HW2 5546   1.258   4.362   6.056
  283SOL     OW 5547   4.292   2.508   6.815
  283SOL    HW1 5548   4.251   2.422   6.782
  283SOL    HW2 5549   4.365   2.535   6.753
  284SOL     OW 5550   2.178   0.185   0.767
  284SOL    HW1 5551   2.100   0.123   0.759
  284SOL    HW2 5552   2.241   0.151   0.836
  285SOL     OW 5553   3.212   0.454   0.829
  285SOL    HW1 5554   3.284   0.457   0.898
  285SOL    HW2 5555   3.130   0.498   0.866
  286SOL     OW 5556   3.906   1.284   1.288
  286SOL    HW1 5557   3.933   1.195   1.326
  286SOL    HW2 5558   3.841   1.269   1.213
  287SOL     OW 5559   4.432   0.224   6.574
  287SOL    HW1 5560   4.531   0.231   6.586
  287SOL    HW2 5561   4.398   0.305   6.525
  288SOL     OW 5562   4.185   1.683   1.298
  288SOL    HW1 5563   4.175   1.782   1.307
  288SOL    HW2 5564   4.251   1.650   1.365
  289SOL     OW 5565   3.362   0.562   6.467
  289SOL    HW1 5566   3.415   0.632   6.516
  289SOL    HW2 5567   3.265   0.585   6.471
  290SOL     OW 5568   0.209   4.017   0.745
  290SOL    HW1 5569   0.213   4.068   0.830
  290SOL    HW2 5570   0.120   3.973   0.736
  291SOL     OW 5571   5.198   1.465   6.752
  291SOL    HW1 5572   5.141   1.435   6.676
  291SOL    HW2 5573   5.292   1.481   6.719
  292SOL     OW 5574   4.420   3.168   1.538
  292SOL    HW1 5575   4.432   3.088   1.596
  292SOL    HW2 5576   4.322   3.181   1.519
  293SOL     OW 5577   4.197   3.899   0.448
  293SOL    HW1 5578   4.181   3.940   0.538
  293SOL    HW2 5579   4.119   3.842   0.423
  294SOL     OW 5580   1.137   0.374   0.602
  294SOL    HW1 5581   1.050   0.422   0.615
  294SOL    HW2 5582   1.203   0.436   0.560
  295SOL     OW 5583   1.558   1.443   6.260
  295SOL    HW1 5584   1.513   1.379   6.197
  295SOL    HW2 5585   1.500   1.456   6.340
  296SOL     OW 5586   5.617   0.703   0.260
  296SOL    HW1 5587   5.584   0.756   0.338
  296SOL    HW2 5588   5.644   0.612   0.290
  297SOL     OW 5589   0.958   2.171   1.316
  297SOL    HW1 5590   0.985   2.256   1.362
  297SOL    HW2 5591   0.944   2.189   1.219
  298SOL     OW 5592   3.720   2.512   6.049
  298SOL    HW1 5593   3.638   2.525   6.104
  298SOL    HW2 5594   3.694   2.486   5.956
  299SOL     OW 5595   0.468   3.496   2.152
  299SOL    HW1 5596   0.550   3.474   2.204
  299SOL    HW2 5597   0.392   3.437   2.182
  300SOL     OW 5598   0.382   5.258   6.060
  300SOL    HW1 5599   0.366   5.260   5.962
  300SOL    HW2 5600   0.474   5.290   6.080
  301SOL     OW 5601   1.051   2.003   6.033
  301SOL    HW1 5602   1.137   2.027   5.989
  301SOL    HW2 5603   1.063   2.000   6.132
  302SOL     OW 5604   0.221   4.376   0.353
  302SOL    HW1 5605   0.255   4.292   0.311
  302SOL    HW2 5606   0.297   4.440   0.367
  303SOL     OW 5607   0.813   4.380   6.843
  303SOL    HW1 5608   0.854   4.314   6.780
  303SOL    HW2 5609   0.822   4.472   6.805
  304SOL     OW 5610   5.315   3.754   0.794
  304SOL    HW1 5611   5.378   3.695   0.845
  304SOL    HW2 5612   5.277   3.703   0.717
  305SOL     OW 5613   2.074   3.002   0.249
  305SOL    HW1 5614   2.171   3.014   0.228
  305SOL    HW2 5615   2.040   2.919   0.203
  306SOL     OW 5616   4.787   2.261   5.241
  306SOL    HW1 5617   4.760   2.346   5.195
  306SOL    HW2 5618   4.791   2.187   5.175
  307SOL     OW 5619   1.699   1.477   0.526
  307SOL    HW1 5620   1.711   1.378   0.534
  307SOL    HW2 5621   1.628   1.507   0.589
  308SOL     OW 5622   4.931   3.864   0.779
  308SOL    HW1 5623   4.952   3.836   0.685
  308SOL    HW2 5624   4.846   3.819   0.808
  309SOL     OW 5625   1.934   0.741   6.480
  309SOL    HW1 5626   1.938   0.810   6.553
  309SOL    HW2 5627   1.858   0.762   6.419
  310SOL     OW 5628   1.325   0.060   0.320
  310SOL    HW1 5629   1.398   0.015   0.371
  310SOL    HW2 5630   1.278   5.600   0.263
  311SOL     OW 5631   3.755   4.319   6.094
  311SOL    HW1 5632   3.732   4.240   6.037
  311SOL    HW2 5633   3.697   4.397   6.069
  312SOL     OW 5634   0.109   0.362   0.638
  312SOL    HW1 5635   0.014   0.386   0.619
  312SOL    HW2 5636   0.156   0.340   0.552
  313SOL     OW 5637   5.298   1.561   1.341
  313SOL    HW1 5638   5.377   1.615   1.311
  313SOL    HW2 5639   5.292   1.477   1.287
  314SOL     OW 5640   4.452   4.678   1.212
  314SOL    HW1 5641   4.471   4.771   1.181
  314SOL    HW2 5642   4.356   4.671   1.241
  315SOL     OW 5643   1.347   5.084   1.397
  315SOL    HW1 5644   1.432   5.032   1.398
  315SOL    HW2 5645   1.361   5.169   1.347
  316SOL     OW 5646   3.729   1.951   5.947
  316SOL    HW1 5647   3.779   2.038   5.955
  316SOL    HW2 5648   3.773   1.895   5.876
  317SOL     OW 5649   4.166   0.848   6.642
  317SOL    HW1 5650   4.080   0.898   6.650
  317SOL    HW2 5651   4.176   0.812   6.549
  318SOL     OW 5652   0.287   2.568   1.173
  318SOL    HW1 5653   0.337   2.543   1.256
  318SOL    HW2 5654   0.302   2.499   1.102
  319SOL     OW 5655   5.665   0.311   5.785
  319SOL    HW1 5656   0.025   0.224   5.766
  319SOL    HW2 5657   5.637   0.314   5.881
  320SOL     OW 5658   4.347   2.871   6.183
  320SOL    HW1 5659   4.264   2.815   6.182
  320SOL    HW2 5660   4.426   2.814   6.156
  321SOL     OW 5661   4.457   0.418   5.321
  321SOL    HW1 5662   4.447   0.323   5.292
  321SOL    HW2 5663   4.535   0.460   5.273
  322SOL     OW 5664   1.285   1.136   1.382
  322SOL    HW1 5665   1.373   1.091   1.397
  322SOL    HW2 5666   1.211   1.072   1.405
  323SOL     OW 5667   2.695   0.124   1.414
  323SOL    HW1 5668   2.713   0.032   1.449
  323SOL    HW2 5669   2.713   0.191   1.486
  324SOL     OW 5670   4.990   2.900   1.199
  324SOL    HW1 5671   4.896   2.896   1.235
  324SOL    HW2 5672   5.045   2.828   1.240
  325SOL     OW 5673   1.985   1.869   1.372
  325SOL    HW1 5674   1.984   1.776   1.409
  325SOL    HW2 5675   2.033   1.929   1.436
  326SOL     OW 5676   1.362   1.933   0.557
  326SOL    HW1 5677   1.348   2.018   0.507
  326SOL    HW2 5678   1.317   1.939   0.646
  327SOL     OW 5679   4.860   0.386   0.143
  327SOL    HW1 5680   4.840   0.395   0.240
  327SOL    HW2 5681   4.948   0.429   0.123
  328SOL     OW 5682   2.345   4.097   6.375
  328SOL    HW1 5683   2.343   4.083   6.276
  328SOL    HW2 5684   2.434   4.069   6.411
  329SOL     OW 5685   1.345   0.523   6.777
  329SOL    HW1 5686   1.304   0.436   6.804
  329SOL    HW2 5687   1.358   0.524   6.678
  330SOL     OW 5688   3.149   4.681   1.321
  330SOL    HW1 5689   3.227   4.623   1.344
  330SOL    HW2 5690   3.076   4.668   1.388
  331SOL     OW 5691   5.361   4.601   1.052
  331SOL    HW1 5692   5.350   4.506   1.023
  331SOL    HW2 5693   5.393   4.656   0.975
  332SOL     OW 5694   5.487   2.313   0.197
  332SOL    HW1 5695   5.583   2.323   0.222
  332SOL    HW2 5696   5.429   2.353   0.268
  333SOL     OW 5697   4.017   3.297   5.491
  333SOL    HW1 5698   4.117   3.299   5.499
  333SOL    HW2 5699   3.990   3.218   5.436
  334SOL     OW 5700   2.296   2.751   6.213
  334SOL    HW1 5701   2.249   2.758   6.125
  334SOL    HW2 5702   2.232   2.773   6.287
  335SOL     OW 5703   0.269   0.683   1.274
  335SOL    HW1 5704   0.364   0.669   1.302
  335SOL    HW2 5705   0.208   0.646   1.343
  336SOL     OW 5706   3.258   4.566   5.962
  336SOL    HW1 5707   3.332   4.623   5.925
  336SOL    HW2 5708   3.297   4.497   6.023
  337SOL     OW 5709   0.196   5.069   6.720
  337SOL    HW1 5710   0.269   5.072   6.788
  337SOL    HW2 5711   0.167   5.163   6.699
  338SOL     OW 5712   4.821   1.250   0.430
  338SOL    HW1 5713   4.729   1.262   0.393
  338SOL    HW2 5714   4.864   1.170   0.389
  339SOL     OW 5715   1.093   4.875   1.189
  339SOL    HW1 5716   1.060   4.968   1.205
  339SOL    HW2 5717   1.038   4.810   1.241
  340SOL     OW 5718   3.053   0.830   0.980
  340SOL    HW1 5719   3.019   0.922   1.000
  340SOL    HW2 5720   3.108   0.831   0.897
  341SOL     OW 5721   4.038   2.488   0.338
  341SOL    HW1 5722   4.049   2.393   0.368
  341SOL    HW2 5723   3.949   2.499   0.295
  342SOL     OW 5724   3.983   2.463   5.959
  342SOL    HW1 5725   3.896   2.498   5.995
  342SOL    HW2 5726   4.027   2.534   5.903
  343SOL     OW 5727   2.729   4.575   6.595
  343SOL    HW1 5728   2.639   4.568   6.554
  343SOL    HW2 5729   2.755   4.671   6.604
  344SOL     OW 5730   4.258   2.605   6.476
  344SOL    HW1 5731   4.340   2.592   6.532
  344SOL    HW2 5732   4.276   2.573   6.383
  345SOL     OW 5733   0.425   0.236   1.382
  345SOL    HW1 5734   0.395   0.296   1.457
  345SOL    HW2 5735   0.403   0.141   1.404
  346SOL     OW 5736   0.920   5.128   0.751
  346SOL    HW1 5737   0.911   5.157   0.846
  346SOL    HW2 5738   0.836   5.149   0.701
  347SOL     OW 5739   3.937   3.216   6.670
  347SOL    HW1 5740   3.961   3.160   6.748
  347SOL    HW2 5741   3.855   3.270   6.690
  348SOL     OW 5742   2.526   2.467   5.917
  348SOL    HW1 5743   2.588   2.390   5.931
  348SOL    HW2 5744   2.572   2.537   5.862
  349SOL     OW 5745   5.116   0.485   0.111
  349SOL    HW1 5746   5.125   0.419   0.037
  349SOL    HW2 5747   5.191   0.551   0.106
  350SOL     OW 5748   2.916   2.646   6.712
  350SOL    HW1 5749   2.843   2.579   6.723
  350SOL    HW2 5750   2.912   2.685   6.620
  351SOL     OW 5751   1.821   5.563   6.151
  351SOL    HW1 5752   1.805   5.465   6.150
  351SOL    HW2 5753   1.806   5.599   6.243
  352SOL     OW 5754   4.199   4.655   1.313
  352SOL    HW1 5755   4.225   4.586   1.381
  352SOL    HW2 5756   4.138   4.722   1.354
  353SOL     OW 5757   2.695   1.317   1.059
  353SOL    HW1 5758   2.665   1.376   1.134
  353SOL    HW2 5759   2.789   1.341   1.034
  354SOL     OW 5760   1.612   2.640   0.119
  354SOL    HW1 5761   1.682   2.628   0.189
  354SOL    HW2 5762   1.652   2.624   0.028
  355SOL     OW 5763   5.617   1.394   1.572
  355SOL    HW1 5764   5.613   1.493   1.556
  355SOL    HW2 5765   5.581   1.346   1.492
  356SOL     OW 5766   3.559   3.562   0.655
  356SOL    HW1 5767   3.592   3.533   0.745
  356SOL    HW2 5768   3.627   3.619   0.611
  357SOL     OW 5769   2.121   5.388   1.147
  357SOL    HW1 5770   2.070   5.342   1.075
  357SOL    HW2 5771   2.108   5.339   1.233
  358SOL     OW 5772   3.837   5.371   0.668
  358SOL    HW1 5773   3.832   5.368   0.768
  358SOL    HW2 5774   3.876   5.459   0.640
  359SOL     OW 5775   0.020   0.702   1.674
  359SOL    HW1 5776   0.098   0.719   1.735
  359SOL    HW2 5777   5.625   0.749   1.709
  360SOL     OW 5778   0.332   3.157   0.316
  360SOL    HW1 5779   0.249   3.210   0.331
  360SOL    HW2 5780   0.322   3.102   0.233
  361SOL     OW 5781   2.185   4.569   0.187
  361SOL    HW1 5782   2.157   4.473   0.190
  361SOL    HW2 5783   2.218   4.598   0.277
  362SOL     OW 5784   3.471   1.991   6.048
  362SOL    HW1 5785   3.563   1.985   6.008
  362SOL    HW2 5786   3.453   2.087   6.073
  363SOL     OW 5787   3.029   5.025   0.364
  363SOL    HW1 5788   3.024   4.926   0.372
  363SOL    HW2 5789   3.097   5.049   0.294
  364SOL     OW 5790   1.616   1.382   1.316
  364SOL    HW1 5791   1.680   1.307   1.295
  364SOL    HW2 5792   1.663   1.449   1.374
  365SOL     OW 5793   4.610   2.833   6.589
  365SOL    HW1 5794   4.572   2.860   6.678
  365SOL    HW2 5795   4.632   2.915   6.536
  366SOL     OW 5796   0.356   2.351   6.802
  366SOL    HW1 5797   0.294   2.281   6.764
  366SOL    HW2 5798   0.437   2.306   6.840
  367SOL     OW 5799   0.009   4.871   0.787
  367SOL    HW1 5800   5.674   4.948   0.728
  367SOL    HW2 5801   0.037   4.792   0.732
  368SOL     OW 5802   4.682   0.691   5.419
  368SOL    HW1 5803   4.736   0.620   5.465
  368SOL    HW2 5804   4.661   0.661   5.326
  369SOL     OW 5805   5.441   2.243   1.355
  369SOL    HW1 5806   5.389   2.168   1.315
  369SOL    HW2 5807   5.441   2.321   1.291
  370SOL     OW 5808   1.664   2.940   5.785
  370SOL    HW1 5809   1.746   2.896   5.749
  370SOL    HW2 5810   1.633   2.891   5.866
  371SOL     OW 5811   1.892   1.855   0.601
  371SOL    HW1 5812   1.905   1.905   0.515
  371SOL    HW2 5813   1.795   1.858   0.626
  372SOL     OW 5814   1.634   1.718   1.237
  372SOL    HW1 5815   1.671   1.669   1.316
  372SOL    HW2 5816   1.534   1.717   1.240
  373SOL     OW 5817   1.493   4.490   0.215
  373SOL    HW1 5818   1.503   4.545   0.132
  373SOL    HW2 5819   1.551   4.529   0.287
  374SOL     OW 5820   5.065   4.500   1.526
  374SOL    HW1 5821   5.138   4.567   1.535
  374SOL    HW2 5822   5.105   4.409   1.511
  375SOL     OW 5823   5.367   1.944   5.298
  375SOL    HW1 5824   5.392   2.037   5.272
  375SOL    HW2 5825   5.307   1.904   5.229
  376SOL     OW 5826   1.912   3.230   0.184
  376SOL    HW1 5827   1.943   3.135   0.181
  376SOL    HW2 5828   1.985   3.287   0.222
  377SOL     OW 5829   3.403   3.474   0.438
  377SOL    HW1 5830   3.457   3.483   0.522
  377SOL    HW2 5831   3.411   3.381   0.403
  378SOL     OW 5832   3.410   0.661   6.857
  378SOL    HW1 5833   3.333   0.720   0.022
  378SOL    HW2 5834   3.446   0.686   6.767
  379SOL     OW 5835   0.353   3.032   6.531
  379SOL    HW1 5836   0.449   3.051   6.513
  379SOL    HW2 5837   0.345   2.952   6.591
  380SOL     OW 5838   1.398   2.828   1.898
  380SOL    HW1 5839   1.389   2.729   1.891
  380SOL    HW2 5840   1.409   2.854   1.993
  381SOL     OW 5841   2.199   0.647   6.799
  381SOL    HW1 5842   2.119   0.588   6.786
  381SOL    HW2 5843   2.174   0.724   6.857
  382SOL     OW 5844   2.759   0.333   1.590
  382SOL    HW1 5845   2.778   0.427   1.562
  382SOL    HW2 5846   2.797   0.317   1.681
  383SOL     OW 5847   5.622   2.776   1.427
  383SOL    HW1 5848   5.643   2.709   1.499
  383SOL    HW2 5849   5.678   2.756   1.347
  384SOL     OW 5850   1.228   2.386   6.845
  384SOL    HW1 5851   1.269   2.386   0.079
  384SOL    HW2 5852   1.128   2.394   6.853
  385SOL     OW 5853   4.505   0.232   0.683
  385SOL    HW1 5854   4.590   0.245   0.732
  385SOL    HW2 5855   4.468   0.321   0.655
  386SOL     OW 5856   0.148   2.505   0.037
  386SOL    HW1 5857   0.104   2.457   0.113
  386SOL    HW2 5858   0.226   2.451   0.004
  387SOL     OW 5859   3.211   2.844   5.449
  387SOL    HW1 5860   3.298   2.796   5.439
  387SOL    HW2 5861   3.211   2.926   5.392
  388SOL     OW 5862   2.928   3.822   0.623
  388SOL    HW1 5863   2.912   3.920   0.606
  388SOL    HW2 5864   3.024   3.801   0.605
  389SOL     OW 5865   1.451   1.442   1.114
  389SOL    HW1 5866   1.503   1.419   1.196
  389SOL    HW2 5867   1.514   1.464   1.040
  390SOL     OW 5868   0.687   2.467   6.270
  390SOL    HW1 5869   0.597   2.469   6.313
  390SOL    HW2 5870   0.748   2.531   6.317
  391SOL     OW 5871   5.396   5.427   5.709
  391SOL    HW1 5872   5.397   5.339   5.662
  391SOL    HW2 5873   5.336   5.423   5.788
  392SOL     OW 5874   2.928   1.084   1.451
  392SOL    HW1 5875   2.990   1.067   1.374
  392SOL    HW2 5876   2.837   1.108   1.415
  393SOL     OW 5877   5.631   3.546   1.852
  393SOL    HW1 5878   5.606   3.449   1.842
  393SOL    HW2 5879   5.598   3.597   1.773
  394SOL     OW 5880   5.187   3.313   0.405
  394SOL    HW1 5881   5.207   3.229   0.455
  394SOL    HW2 5882   5.146   3.290   0.317
  395SOL     OW 5883   1.050   0.029   1.232
  395SOL    HW1 5884   1.011   5.564   1.174
  395SOL    HW2 5885   1.032   0.118   1.190
  396SOL     OW 5886   4.935   2.899   5.805
  396SOL    HW1 5887   4.946   2.813   5.755
  396SOL    HW2 5888   4.840   2.930   5.797
  397SOL     OW 5889   2.606   0.659   6.793
  397SOL    HW1 5890   2.541   0.606   6.847
  397SOL    HW2 5891   2.591   0.641   6.696
  398SOL     OW 5892   2.166   2.650   1.248
  398SOL    HW1 5893   2.172   2.557   1.284
  398SOL    HW2 5894   2.239   2.706   1.289
  399SOL     OW 5895   5.678   2.436   5.851
  399SOL    HW1 5896   0.031   2.348   5.881
  399SOL    HW2 5897   5.630   2.423   5.765
  400SOL     OW 5898   5.331   3.115   1.381
  400SOL    HW1 5899   5.378   3.033   1.345
  400SOL    HW2 5900   5.246   3.129   1.330
  401SOL     OW 5901   4.937   3.480   0.876
  401SOL    HW1 5902   4.984   3.462   0.790
  401SOL    HW2 5903   4.854   3.533   0.858
  402SOL     OW 5904   2.088   1.256   0.344
  402SOL    HW1 5905   2.008   1.282   0.289
  402SOL    HW2 5906   2.159   1.219   0.285
  403SOL     OW 5907   3.824   3.977   1.070
  403SOL    HW1 5908   3.798   3.881   1.057
  403SOL    HW2 5909   3.742   4.032   1.087
  404SOL     OW 5910   0.920   1.638   6.479
  404SOL    HW1 5911   0.837   1.588   6.454
  404SOL    HW2 5912   0.911   1.734   6.451
  405SOL     OW 5913   4.481   2.584   6.637
  405SOL    HW1 5914   4.537   2.501   6.643
  405SOL    HW2 5915   4.540   2.664   6.627
  406SOL     OW 5916   5.272   1.353   1.544
  406SOL    HW1 5917   5.303   1.423   1.480
  406SOL    HW2 5918   5.274   1.390   1.637
  407SOL     OW 5919   3.263   1.249   6.844
  407SOL    HW1 5920   3.323   1.176   0.017
  407SOL    HW2 5921   3.168   1.217   6.844
  408SOL     OW 5922   1.227   0.712   0.244
  408SOL    HW1 5923   1.128   0.702   0.255
  408SOL    HW2 5924   1.247   0.743   0.151
  409SOL     OW 5925   0.538   2.678   5.549
  409SOL    HW1 5926   0.547   2.588   5.507
  409SOL    HW2 5927   0.572   2.747   5.485
  410SOL     OW 5928   3.411   2.072   5.518
  410SOL    HW1 5929   3.392   2.096   5.422
  410SOL    HW2 5930   3.353   2.127   5.578
  411SOL     OW 5931   5.665   4.632   2.077
  411SOL    HW1 5932   5.608   4.702   2.119
  411SOL    HW2 5933   0.040   4.674   2.009
  412SOL     OW 5934   3.672   3.088   0.870
  412SOL    HW1 5935   3.619   3.034   0.935
  412SOL    HW2 5936   3.610   3.133   0.806
  413SOL     OW 5937   1.282   2.200   6.392
  413SOL    HW1 5938   1.214   2.255   6.343
  413SOL    HW2 5939   1.262   2.201   6.490
  414SOL     OW 5940   5.342   2.431   0.396
  414SOL    HW1 5941   5.295   2.520   0.394
  414SOL    HW2 5942   5.276   2.359   0.417
  415SOL     OW 5943   3.372   1.037   0.126
  415SOL    HW1 5944   3.460   1.023   0.171
  415SOL    HW2 5945   3.308   1.080   0.189
  416SOL     OW 5946   3.773   2.223   5.697
  416SOL    HW1 5947   3.720   2.142   5.671
  416SOL    HW2 5948   3.841   2.242   5.626
  417SOL     OW 5949   3.714   1.127   6.706
  417SOL    HW1 5950   3.673   1.118   6.615
  417SOL    HW2 5951   3.699   1.219   6.741
  418SOL     OW 5952   2.877   0.293   0.627
  418SOL    HW1 5953   2.907   0.272   0.720
  418SOL    HW2 5954   2.957   0.306   0.568
  419SOL     OW 5955   1.794   3.800   6.123
  419SOL    HW1 5956   1.811   3.705   6.147
  419SOL    HW2 5957   1.734   3.842   6.190
  420SOL     OW 5958   4.741   5.140   6.319
  420SOL    HW1 5959   4.785   5.051   6.307
  420SOL    HW2 5960   4.710   5.175   6.231
  421SOL     OW 5961   0.154   4.854   1.515
  421SOL    HW1 5962   0.190   4.898   1.432
  421SOL    HW2 5963   0.229   4.838   1.579
  422SOL     OW 5964   3.033   5.247   6.070
  422SOL    HW1 5965   2.988   5.196   5.997
  422SOL    HW2 5966   3.094   5.187   6.120
  423SOL     OW 5967   4.895   3.133   1.516
  423SOL    HW1 5968   4.940   3.214   1.477
  423SOL    HW2 5969   4.807   3.119   1.472
  424SOL     OW 5970   0.312   3.259   0.893
  424SOL    HW1 5971   0.212   3.260   0.897
  424SOL    HW2 5972   0.342   3.298   0.806
  425SOL     OW 5973   2.215   3.751   5.997
  425SOL    HW1 5974   2.167   3.793   6.074
  425SOL    HW2 5975   2.240   3.821   5.931
  426SOL     OW 5976   1.889   4.295   6.849
  426SOL    HW1 5977   1.871   4.361   0.064
  426SOL    HW2 5978   1.973   4.320   6.800
  427SOL     OW 5979   4.530   3.102   1.154
  427SOL    HW1 5980   4.561   3.088   1.060
  427SOL    HW2 5981   4.475   3.023   1.183
  428SOL     OW 5982   5.058   1.559   5.668
  428SOL    HW1 5983   5.041   1.468   5.629
  428SOL    HW2 5984   5.020   1.563   5.761
  429SOL     OW 5985   4.261   1.355   0.521
  429SOL    HW1 5986   4.333   1.393   0.579
  429SOL    HW2 5987   4.217   1.428   0.470
  430SOL     OW 5988   4.060   2.134   1.004
  430SOL    HW1 5989   3.986   2.159   1.067
  430SOL    HW2 5990   4.047   2.040   0.974
  431SOL     OW 5991   1.491   4.041   1.280
  431SOL    HW1 5992   1.487   4.139   1.264
  431SOL    HW2 5993   1.445   4.019   1.366
  432SOL     OW 5994   3.761   3.845   6.827
  432SOL    HW1 5995   3.775   3.940   6.797
  432SOL    HW2 5996   3.684   3.841   0.033
  433SOL     OW 5997   2.693   3.428   5.771
  433SOL    HW1 5998   2.596   3.442   5.794
  433SOL    HW2 5999   2.710   3.460   5.678
  434SOL     OW 6000   1.710   3.530   5.877
  434SOL    HW1 6001   1.730   3.516   5.780
  434SOL    HW2 6002   1.795   3.528   5.930
  435SOL     OW 6003   2.574   0.464   5.840
  435SOL    HW1 6004   2.575   0.428   5.933
  435SOL    HW2 6005   2.665   0.451   5.798
  436SOL     OW 6006   4.135   0.434   5.866
  436SOL    HW1 6007   4.226   0.473   5.857
  436SOL    HW2 6008   4.067   0.502   5.838
  437SOL     OW 6009   3.980   0.840   0.331
  437SOL    HW1 6010   3.889   0.814   0.297
  437SOL    HW2 6011   4.047   0.771   0.304
  438SOL     OW 6012   2.925   4.652   1.472
  438SOL    HW1 6013   2.843   4.619   1.425
  438SOL    HW2 6014   2.899   4.695   1.558
  439SOL     OW 6015   1.789   0.732   6.786
  439SOL    HW1 6016   1.786   0.824   6.823
  439SOL    HW2 6017   1.718   0.721   6.717
  440SOL     OW 6018   2.596   0.134   0.297
  440SOL    HW1 6019   2.514   0.133   0.355
  440SOL    HW2 6020   2.573   0.098   0.206
  441SOL     OW 6021   4.637   5.330   0.521
  441SOL    HW1 6022   4.734   5.340   0.541
  441SOL    HW2 6023   4.583   5.370   0.595
  442SOL     OW 6024   1.635   0.062   0.620
  442SOL    HW1 6025   1.591   0.150   0.604
  442SOL    HW2 6026   1.600   5.601   0.555
  443SOL     OW 6027   0.461   4.225   2.050
  443SOL    HW1 6028   0.513   4.252   2.131
  443SOL    HW2 6029   0.515   4.162   1.994
  444SOL     OW 6030   0.687   3.751   1.382
  444SOL    HW1 6031   0.769   3.794   1.343
  444SOL    HW2 6032   0.693   3.753   1.482
  445SOL     OW 6033   3.458   5.010   0.514
  445SOL    HW1 6034   3.451   5.052   0.605
  445SOL    HW2 6035   3.396   4.932   0.508
  446SOL     OW 6036   4.911   5.382   0.298
  446SOL    HW1 6037   4.894   5.284   0.309
  446SOL    HW2 6038   4.910   5.426   0.387
  447SOL     OW 6039   3.789   4.883   5.920
  447SOL    HW1 6040   3.730   4.881   5.840
  447SOL    HW2 6041   3.877   4.925   5.895
  448SOL     OW 6042   1.787   0.880   1.821
  448SOL    HW1 6043   1.832   0.825   1.750
  448SOL    HW2 6044   1.769   0.823   1.901
  449SOL     OW 6045   5.249   4.002   1.375
  449SOL    HW1 6046   5.164   3.977   1.329
  449SOL    HW2 6047   5.323   3.941   1.346
  450SOL     OW 6048   1.836   4.732   0.283
  450SOL    HW1 6049   1.880   4.812   0.325
  450SOL    HW2 6050   1.755   4.707   0.336
  451SOL     OW 6051   3.453   2.897   0.740
  451SOL    HW1 6052   3.415   2.957   0.670
  451SOL    HW2 6053   3.434   2.802   0.716
  452SOL     OW 6054   5.433   3.816   1.284
  452SOL    HW1 6055   5.391   3.731   1.254
  452SOL    HW2 6056   5.519   3.796   1.330
  453SOL     OW 6057   5.153   1.280   0.097
  453SOL    HW1 6058   5.175   1.350   0.028
  453SOL    HW2 6059   5.055   1.261   0.095
  454SOL     OW 6060   0.330   4.306   6.063
  454SOL    HW1 6061   0.380   4.328   6.146
  454SOL    HW2 6062   0.381   4.339   5.983
  455SOL     OW 6063   5.514   3.275   0.682
  455SOL    HW1 6064   5.552   3.336   0.613
  455SOL    HW2 6065   5.497   3.185   0.641
  456SOL     OW 6066   1.432   1.169   0.450
  456SOL    HW1 6067   1.452   1.098   0.383
  456SOL    HW2 6068   1.380   1.242   0.408
  457SOL     OW 6069   0.148   0.091   1.129
  457SOL    HW1 6070   0.084   0.037   1.183
  457SOL    HW2 6071   0.168   0.177   1.177
  458SOL     OW 6072   0.685   3.461   2.312
  458SOL    HW1 6073   0.705   3.388   2.377
  458SOL    HW2 6074   0.765   3.520   2.302
  459SOL     OW 6075   2.416   2.924   1.008
  459SOL    HW1 6076   2.335   2.943   1.064
  459SOL    HW2 6077   2.389   2.867   0.930
  460SOL     OW 6078   3.884   3.126   6.234
  460SOL    HW1 6079   3.827   3.188   6.180
  460SOL    HW2 6080   3.935   3.179   6.302
  461SOL     OW 6081   5.405   3.292   6.553
  461SOL    HW1 6082   5.419   3.391   6.565
  461SOL    HW2 6083   5.339   3.275   6.481
  462SOL     OW 6084   3.712   0.882   6.831
  462SOL    HW1 6085   3.704   0.977   6.800
  462SOL    HW2 6086   3.743   0.825   6.755
  463SOL     OW 6087   0.594   2.710   5.965
  463SOL    HW1 6088   0.561   2.767   5.890
  463SOL    HW2 6089   0.686   2.740   5.991
  464SOL     OW 6090   2.741   4.177   6.573
  464SOL    HW1 6091   2.690   4.244   6.628
  464SOL    HW2 6092   2.837   4.178   6.602
  465SOL     OW 6093   1.062   3.645   5.176
  465SOL    HW1 6094   0.978   3.662   5.124
  465SOL    HW2 6095   1.123   3.586   5.122
  466SOL     OW 6096   0.768   3.061   1.461
  466SOL    HW1 6097   0.726   2.976   1.429
  466SOL    HW2 6098   0.763   3.129   1.388
  467SOL     OW 6099   1.608   5.460   6.401
  467SOL    HW1 6100   1.670   5.538   6.401
  467SOL    HW2 6101   1.515   5.492   6.385
  468SOL     OW 6102   5.071   1.875   0.329
  468SOL    HW1 6103   5.034   1.789   0.292
  468SOL    HW2 6104   5.168   1.882   0.306
  469SOL     OW 6105   0.136   4.748   1.886
  469SOL    HW1 6106   0.065   4.792   1.831
  469SOL    HW2 6107   0.223   4.750   1.836
  470SOL     OW 6108   2.796   4.700   5.626
  470SOL    HW1 6109   2.707   4.671   5.662
  470SOL    HW2 6110   2.861   4.625   5.634
  471SOL     OW 6111   1.500   3.489   6.626
  471SOL    HW1 6112   1.452   3.566   6.669
  471SOL    HW2 6113   1.518   3.420   6.695
  472SOL     OW 6114   3.372   2.636   0.711
  472SOL    HW1 6115   3.332   2.641   0.802
  472SOL    HW2 6116   3.301   2.645   0.642
  473SOL     OW 6117   2.188   0.459   0.763
  473SOL    HW1 6118   2.151   0.490   0.675
  473SOL    HW2 6119   2.194   0.359   0.763
  474SOL     OW 6120   1.413   0.238   6.292
  474SOL    HW1 6121   1.493   0.262   6.236
  474SOL    HW2 6122   1.330   0.260   6.242
  475SOL     OW 6123   1.108   5.017   1.506
  475SOL    HW1 6124   1.194   5.044   1.462
  475SOL    HW2 6125   1.044   5.095   1.506
  476SOL     OW 6126   3.556   0.150   6.071
  476SOL    HW1 6127   3.496   0.083   6.028
  476SOL    HW2 6128   3.547   0.239   6.025
  477SOL     OW 6129   2.139   3.550   0.814
  477SOL    HW1 6130   2.041   3.544   0.794
  477SOL    HW2 6131   2.186   3.473   0.772
  478SOL     OW 6132   2.636   1.123   0.423
  478SOL    HW1 6133   2.722   1.072   0.434
  478SOL    HW2 6134   2.643   1.210   0.472
  479SOL     OW 6135   2.112   4.715   6.400
  479SOL    HW1 6136   2.123   4.634   6.343
  479SOL    HW2 6137   2.201   4.753   6.423
  480SOL     OW 6138   4.002   5.583   1.603
  480SOL    HW1 6139   4.018   5.484   1.608
  480SOL    HW2 6140   3.922   5.606   1.658
  481SOL     OW 6141   4.343   0.069   1.059
  481SOL    HW1 6142   4.330   0.025   1.147
  481SOL    HW2 6143   4.263   0.053   1.001
  482SOL     OW 6144   5.268   5.111   5.840
  482SOL    HW1 6145   5.315   5.025   5.864
  482SOL    HW2 6146   5.297   5.139   5.748
  483SOL     OW 6147   3.140   1.076   6.071
  483SOL    HW1 6148   3.234   1.042   6.072
  483SOL    HW2 6149   3.107   1.086   6.164
  484SOL     OW 6150   4.985   3.928   5.438
  484SOL    HW1 6151   5.009   4.024   5.424
  484SOL    HW2 6152   4.904   3.907   5.383
  485SOL     OW 6153   5.309   3.485   6.851
  485SOL    HW1 6154   5.283   3.580   6.832
  485SOL    HW2 6155   5.241   3.423   6.813
  486SOL     OW 6156   2.986   2.249   5.720
  486SOL    HW1 6157   2.938   2.171   5.680
  486SOL    HW2 6158   2.939   2.334   5.697
  487SOL     OW 6159   4.933   2.063   0.464
  487SOL    HW1 6160   5.000   2.136   0.477
  487SOL    HW2 6161   4.974   1.991   0.407
  488SOL     OW 6162   4.344   2.198   0.111
  488SOL    HW1 6163   4.331   2.287   0.155
  488SOL    HW2 6164   4.298   2.198   0.022
  489SOL     OW 6165   0.855   2.634   6.416
  489SOL    HW1 6166   0.951   2.660   6.414
  489SOL    HW2 6167   0.798   2.715   6.422
  490SOL     OW 6168   4.879   4.571   6.575
  490SOL    HW1 6169   4.961   4.514   6.583
  490SOL    HW2 6170   4.859   4.586   6.478
  491SOL     OW 6171   3.428   1.314   6.198
  491SOL    HW1 6172   3.400   1.228   6.241
  491SOL    HW2 6173   3.396   1.316   6.103
  492SOL     OW 6174   1.224   0.272   2.247
  492SOL    HW1 6175   1.298   0.211   2.275
  492SOL    HW2 6176   1.155   0.277   2.320
  493SOL     OW 6177   2.119   2.816   6.411
  493SOL    HW1 6178   2.023   2.823   6.381
  493SOL    HW2 6179   2.153   2.908   6.433
  494SOL     OW 6180   0.582   5.058   1.039
  494SOL    HW1 6181   0.543   5.010   0.960
  494SOL    HW2 6182   0.678   5.078   1.022
  495SOL     OW 6183   4.424   3.301   6.709
  495SOL    HW1 6184   4.382   3.317   6.620
  495SOL    HW2 6185   4.399   3.375   6.772
  496SOL     OW 6186   3.488   1.594   1.231
  496SOL    HW1 6187   3.509   1.547   1.316
  496SOL    HW2 6188   3.389   1.596   1.217
  497SOL     OW 6189   4.119   2.740   0.243
  497SOL    HW1 6190   4.192   2.778   0.300
  497SOL    HW2 6191   4.090   2.652   0.280
  498SOL     OW 6192   4.634   0.565   5.172
  498SOL    HW1 6193   4.712   0.544   5.112
  498SOL    HW2 6194   4.582   0.642   5.135
  499SOL     OW 6195   1.950   5.248   6.343
  499SOL    HW1 6196   1.855   5.229   6.321
  499SOL    HW2 6197   1.979   5.190   6.420
  500SOL     OW 6198   0.850   4.416   1.789
  500SOL    HW1 6199   0.794   4.496   1.767
  500SOL    HW2 6200   0.834   4.389   1.883
  501SOL     OW 6201   2.055   5.110   6.561
  501SOL    HW1 6202   2.058   5.014   6.589
  501SOL    HW2 6203   2.138   5.156   6.593
  502SOL     OW 6204   1.675   0.538   4.957
  502SOL    HW1 6205   1.579   0.514   4.963
  502SOL    HW2 6206   1.731   0.455   4.952
  503SOL     OW 6207   4.906   4.841   6.006
  503SOL    HW1 6208   4.966   4.787   6.065
  503SOL    HW2 6209   4.946   4.931   5.991
  504SOL     OW 6210   1.723   3.936   0.160
  504SOL    HW1 6211   1.651   3.932   0.091
  504SOL    HW2 6212   1.810   3.956   0.116
  505SOL     OW 6213   4.772   3.719   6.108
  505SOL    HW1 6214   4.730   3.732   6.018
  505SOL    HW2 6215   4.769   3.805   6.160
  506SOL     OW 6216   4.367   3.033   6.401
  506SOL    HW1 6217   4.363   2.979   6.317
  506SOL    HW2 6218   4.324   2.982   6.476
  507SOL     OW 6219   0.201   4.196   6.535
  507SOL    HW1 6220   0.108   4.212   6.502
  507SOL    HW2 6221   0.249   4.284   6.544
  508SOL     OW 6222   3.216   4.313   6.750
  508SOL    HW1 6223   3.134   4.263   6.721
  508SOL    HW2 6224   3.200   4.352   6.841
  509SOL     OW 6225   3.216   0.532   5.754
  509SOL    HW1 6226   3.147   0.572   5.693
  509SOL    HW2 6227   3.225   0.589   5.836
  510SOL     OW 6228   5.650   2.930   0.216
  510SOL    HW1 6229   0.029   2.955   0.145
  510SOL    HW2 6230   5.606   2.843   0.193
  511SOL     OW 6231   0.944   3.824   0.439
  511SOL    HW1 6232   0.993   3.822   0.526
  511SOL    HW2 6233   0.902   3.914   0.425
  512SOL     OW 6234   1.087   1.211   0.362
  512SOL    HW1 6235   1.174   1.251   0.331
  512SOL    HW2 6236   1.013   1.275   0.344
  513SOL     OW 6237   3.407   1.658   0.585
  513SOL    HW1 6238   3.419   1.595   0.662
  513SOL    HW2 6239   3.353   1.613   0.514
  514SOL     OW 6240   5.372   3.765   6.225
  514SOL    HW1 6241   5.456   3.732   6.182
  514SOL    HW2 6242   5.394   3.810   6.312
  515SOL     OW 6243   4.469   4.718   0.221
  515SOL    HW1 6244   4.427   4.631   0.195
  515SOL    HW2 6245   4.405   4.772   0.275
  516SOL     OW 6246   2.214   4.817   5.527
  516SOL    HW1 6247   2.189   4.911   5.548
  516SOL    HW2 6248   2.219   4.804   5.428
  517SOL     OW 6249   4.740   2.745   0.030
  517SOL    HW1 6250   4.655   2.796   0.018
  517SOL    HW2 6251   4.818   2.804   0.009
  518SOL     OW 6252   0.778   5.414   1.388
  518SOL    HW1 6253   0.835   5.441   1.310
  518SOL    HW2 6254   0.682   5.414   1.361
  519SOL     OW 6255   5.482   3.901   1.025
  519SOL    HW1 6256   5.453   3.893   1.120
  519SOL    HW2 6257   5.485   3.810   0.983
  520SOL     OW 6258   3.533   4.809   1.110
  520SOL    HW1 6259   3.500   4.715   1.110
  520SOL    HW2 6260   3.620   4.814   1.159
  521SOL     OW 6261   2.940   2.579   6.132
  521SOL    HW1 6262   2.862   2.583   6.194
  521SOL    HW2 6263   2.934   2.497   6.075
  522SOL     OW 6264   4.371   4.343   0.873
  522SOL    HW1 6265   4.468   4.331   0.896
  522SOL    HW2 6266   4.351   4.440   0.867
  523SOL     OW 6267   3.443   2.140   2.113
  523SOL    HW1 6268   3.539   2.126   2.137
  523SOL    HW2 6269   3.436   2.163   2.016
  524SOL     OW 6270   2.056   2.283   0.801
  524SOL    HW1 6271   2.034   2.373   0.839
  524SOL    HW2 6272   2.002   2.213   0.847
  525SOL     OW 6273   2.859   4.611   0.861
  525SOL    HW1 6274   2.802   4.571   0.933
  525SOL    HW2 6275   2.955   4.599   0.883
  526SOL     OW 6276   2.211   2.408   1.389
  526SOL    HW1 6277   2.306   2.433   1.408
  526SOL    HW2 6278   2.154   2.429   1.469
  527SOL     OW 6279   3.945   2.972   5.812
  527SOL    HW1 6280   3.915   3.058   5.769
  527SOL    HW2 6281   4.022   2.935   5.760
  528SOL     OW 6282   3.005   4.504   1.148
  528SOL    HW1 6283   3.050   4.560   1.218
  528SOL    HW2 6284   2.953   4.432   1.192
  529SOL     OW 6285   2.711   4.851   0.462
  529SOL    HW1 6286   2.700   4.791   0.541
  529SOL    HW2 6287   2.628   4.906   0.451
  530SOL     OW 6288   3.775   0.325   6.163
  530SOL    HW1 6289   3.847   0.303   6.227
  530SOL    HW2 6290   3.725   0.242   6.139
  531SOL     OW 6291   3.785   2.762   0.689
  531SOL    HW1 6292   3.792   2.844   0.632
  531SOL    HW2 6293   3.724   2.696   0.645
  532SOL     OW 6294   2.413   3.566   0.155
  532SOL    HW1 6295   2.496   3.532   0.112
  532SOL    HW2 6296   2.422   3.562   0.254
  533SOL     OW 6297   3.099   0.793   6.660
  533SOL    HW1 6298   3.088   0.698   6.629
  533SOL    HW2 6299   3.129   0.793   6.755
  534SOL     OW 6300   1.069   5.340   1.654
  534SOL    HW1 6301   1.095   5.423   1.605
  534SOL    HW2 6302   1.079   5.354   1.753
  535SOL     OW 6303   2.222   4.632   1.082
  535SOL    HW1 6304   2.185   4.619   1.174
  535SOL    HW2 6305   2.149   4.627   1.015
  536SOL     OW 6306   3.556   0.981   1.157
  536SOL    HW1 6307   3.654   0.982   1.177
  536SOL    HW2 6308   3.542   0.986   1.058
  537SOL     OW 6309   4.067   3.234   0.496
  537SOL    HW1 6310   4.058   3.149   0.443
  537SOL    HW2 6311   4.121   3.215   0.579
  538SOL     OW 6312   1.808   3.456   2.315
  538SOL    HW1 6313   1.859   3.417   2.237
  538SOL    HW2 6314   1.793   3.384   2.383
  539SOL     OW 6315   2.486   3.500   0.680
  539SOL    HW1 6316   2.407   3.438   0.688
  539SOL    HW2 6317   2.498   3.526   0.585
  540SOL     OW 6318   5.099   3.577   1.076
  540SOL    HW1 6319   5.117   3.669   1.041
  540SOL    HW2 6320   5.043   3.527   1.010
  541SOL     OW 6321   3.938   2.250   6.780
  541SOL    HW1 6322   3.913   2.205   0.009
  541SOL    HW2 6323   3.882   2.214   6.706
  542SOL     OW 6324   5.213   1.319   0.552
  542SOL    HW1 6325   5.206   1.225   0.518
  542SOL    HW2 6326   5.308   1.350   0.545
  543SOL     OW 6327   3.903   3.544   5.524
  543SOL    HW1 6328   3.835   3.559   5.453
  543SOL    HW2 6329   3.950   3.457   5.507
  544SOL     OW 6330   4.935   1.521   6.325
  544SOL    HW1 6331   4.982   1.601   6.287
  544SOL    HW2 6332   4.843   1.515   6.286
  545SOL     OW 6333   1.766   3.710   1.439
  545SOL    HW1 6334   1.724   3.696   1.349
  545SOL    HW2 6335   1.695   3.723   1.508
  546SOL     OW 6336   0.730   3.717   0.302
  546SOL    HW1 6337   0.805   3.749   0.361
  546SOL    HW2 6338   0.659   3.676   0.359
  547SOL     OW 6339   3.078   1.323   5.968
  547SOL    HW1 6340   2.992   1.352   6.009
  547SOL    HW2 6341   3.096   1.228   5.993
  548SOL     OW 6342   0.374   4.149   1.631
  548SOL    HW1 6343   0.324   4.076   1.677
  548SOL    HW2 6344   0.310   4.213   1.589
  549SOL     OW 6345   0.942   0.536   6.291
  549SOL    HW1 6346   1.004   0.502   6.219
  549SOL    HW2 6347   0.991   0.541   6.377
  550SOL     OW 6348   4.307   2.398   0.650
  550SOL    HW1 6349   4.228   2.355   0.693
  550SOL    HW2 6350   4.364   2.329   0.606
  551SOL     OW 6351   1.060   4.382   0.125
  551SOL    HW1 6352   1.054   4.428   0.214
  551SOL    HW2 6353   0.971   4.389   0.079
  552SOL     OW 6354   5.212   3.751   5.817
  552SOL    HW1 6355   5.170   3.736   5.727
  552SOL    HW2 6356   5.240   3.664   5.856
  553SOL     OW 6357   4.417   4.184   1.628
  553SOL    HW1 6358   4.423   4.114   1.700
  553SOL    HW2 6359   4.384   4.142   1.544
  554SOL     OW 6360   4.867   4.904   6.340
  554SOL    HW1 6361   4.842   4.810   6.314
  554SOL    HW2 6362   4.899   4.904   6.435
  555SOL     OW 6363   2.831   2.956   1.186
  555SOL    HW1 6364   2.834   2.995   1.278
  555SOL    HW2 6365   2.861   3.025   1.120
  556SOL     OW 6366   5.555   1.062   0.031
  556SOL    HW1 6367   5.552   1.136   6.821
  556SOL    HW2 6368   5.479   1.074   0.095
  557SOL     OW 6369   5.580   3.929   1.745
  557SOL    HW1 6370   5.550   3.946   1.838
  557SOL    HW2 6371   5.526   3.984   1.681
  558SOL     OW 6372   3.159   3.507   6.498
  558SOL    HW1 6373   3.105   3.577   6.544
  558SOL    HW2 6374   3.255   3.519   6.521
  559SOL     OW 6375   0.212   2.709   0.211
  559SOL    HW1 6376   0.196   2.644   0.137
  559SOL    HW2 6377   0.141   2.700   0.281
  560SOL     OW 6378   5.278   2.498   2.428
  560SOL    HW1 6379   5.228   2.430   2.375
  560SOL    HW2 6380   5.216   2.571   2.456
  561SOL     OW 6381   2.122   1.737   6.059
  561SOL    HW1 6382   2.085   1.822   6.022
  561SOL    HW2 6383   2.058   1.662   6.040
  562SOL     OW 6384   0.164   1.306   1.692
  562SOL    HW1 6385   0.157   1.225   1.752
  562SOL    HW2 6386   0.076   1.321   1.647
  563SOL     OW 6387   0.041   2.102   5.697
  563SOL    HW1 6388   5.653   2.128   5.636
  563SOL    HW2 6389   0.129   2.125   5.656
  564SOL     OW 6390   1.383   4.062   6.006
  564SOL    HW1 6391   1.422   4.009   5.931
  564SOL    HW2 6392   1.377   4.158   5.978
  565SOL     OW 6393   3.906   0.014   6.476
  565SOL    HW1 6394   3.814   5.588   6.455
  565SOL    HW2 6395   3.920   0.014   6.575
  566SOL     OW 6396   3.261   1.493   6.717
  566SOL    HW1 6397   3.264   1.401   6.757
  566SOL    HW2 6398   3.217   1.556   6.781
  567SOL     OW 6399   1.554   2.209   6.347
  567SOL    HW1 6400   1.456   2.207   6.364
  567SOL    HW2 6401   1.577   2.144   6.275
  568SOL     OW 6402   0.799   1.057   5.835
  568SOL    HW1 6403   0.821   1.032   5.929
  568SOL    HW2 6404   0.852   0.999   5.772
  569SOL     OW 6405   2.128   1.498   6.613
  569SOL    HW1 6406   2.070   1.416   6.609
  569SOL    HW2 6407   2.206   1.480   6.674
  570SOL     OW 6408   2.844   0.496   6.750
  570SOL    HW1 6409   2.916   0.507   6.819
  570SOL    HW2 6410   2.769   0.558   6.770
  571SOL     OW 6411   5.077   0.832   1.063
  571SOL    HW1 6412   5.136   0.909   1.088
  571SOL    HW2 6413   5.133   0.751   1.047
  572SOL     OW 6414   3.898   1.669   1.328
  572SOL    HW1 6415   3.858   1.618   1.404
  572SOL    HW2 6416   3.998   1.658   1.329
  573SOL     OW 6417   0.366   3.357   0.642
  573SOL    HW1 6418   0.326   3.446   0.620
  573SOL    HW2 6419   0.463   3.356   0.618
  574SOL     OW 6420   4.953   3.960   0.315
  574SOL    HW1 6421   4.890   3.966   0.237
  574SOL    HW2 6422   5.045   3.987   0.285
  575SOL     OW 6423   5.440   3.560   6.525
  575SOL    HW1 6424   5.506   3.626   6.560
  575SOL    HW2 6425   5.347   3.595   6.539
  576SOL     OW 6426   1.076   1.466   0.986
  576SOL    HW1 6427   1.115   1.416   1.063
  576SOL    HW2 6428   0.987   1.426   0.962
  577SOL     OW 6429   4.300   3.111   2.269
  577SOL    HW1 6430   4.214   3.161   2.264
  577SOL    HW2 6431   4.290   3.032   2.329
  578SOL     OW 6432   0.052   1.346   6.205
  578SOL    HW1 6433   0.089   1.434   6.177
  578SOL    HW2 6434   5.639   1.344   6.188
  579SOL     OW 6435   0.541   1.775   0.435
  579SOL    HW1 6436   0.490   1.843   0.488
  579SOL    HW2 6437   0.639   1.791   0.445
  580SOL     OW 6438   3.530   1.016   0.884
  580SOL    HW1 6439   3.508   0.937   0.827
  580SOL    HW2 6440   3.610   1.063   0.846
  581SOL     OW 6441   5.512   0.869   0.460
  581SOL    HW1 6442   5.530   0.966   0.445
  581SOL    HW2 6443   5.430   0.858   0.515
  582SOL     OW 6444   5.054   5.505   2.147
  582SOL    HW1 6445   4.988   5.429   2.151
  582SOL    HW2 6446   5.025   5.577   2.211
  583SOL     OW 6447   2.467   2.563   0.535
  583SOL    HW1 6448   2.419   2.479   0.509
  583SOL    HW2 6449   2.500   2.555   0.629
  584SOL     OW 6450   0.537   0.311   6.226
  584SOL    HW1 6451   0.447   0.339   6.257
  584SOL    HW2 6452   0.541   0.211   6.223
  585SOL     OW 6453   4.968   1.553   5.934
  585SOL    HW1 6454   4.930   1.613   6.004
  585SOL    HW2 6455   4.942   1.459   5.952
  586SOL     OW 6456   4.666   4.872   0.340
  586SOL    HW1 6457   4.598   4.810   0.301
  586SOL    HW2 6458   4.751   4.823   0.357
  587SOL     OW 6459   0.829   3.433   1.021
  587SOL    HW1 6460   0.838   3.357   1.085
  587SOL    HW2 6461   0.888   3.509   1.050
  588SOL     OW 6462   2.237   0.136   6.670
  588SOL    HW1 6463   2.169   0.200   6.635
  588SOL    HW2 6464   2.314   0.186   6.708
  589SOL     OW 6465   4.321   4.487   5.965
  589SOL    HW1 6466   4.388   4.522   5.899
  589SOL    HW2 6467   4.323   4.387   5.964
  590SOL     OW 6468   2.663   2.806   1.041
  590SOL    HW1 6469   2.723   2.860   1.100
  590SOL    HW2 6470   2.576   2.854   1.029
  591SOL     OW 6471   0.093   2.531   5.460
  591SOL    HW1 6472   0.129   2.597   5.527
  591SOL    HW2 6473   0.107   2.566   5.368
  592SOL     OW 6474   2.810   0.281   6.160
  592SOL    HW1 6475   2.856   0.202   6.200
  592SOL    HW2 6476   2.843   0.365   6.204
  593SOL     OW 6477   0.663   5.575   1.139
  593SOL    HW1 6478   0.667   0.063   1.169
  593SOL    HW2 6479   0.599   5.524   1.197
  594SOL     OW 6480   5.469   1.120   5.700
  594SOL    HW1 6481   5.393   1.160   5.751
  594SOL    HW2 6482   5.477   1.164   5.611
  595SOL     OW 6483   1.686   2.815   2.156
  595SOL    HW1 6484   1.587   2.821   2.149
  595SOL    HW2 6485   1.721   2.893   2.208
  596SOL     OW 6486   0.080   4.417   0.972
  596SOL    HW1 6487   0.033   4.468   1.043
  596SOL    HW2 6488   0.014   4.385   0.904
  597SOL     OW 6489   2.952   3.319   1.091
  597SOL    HW1 6490   2.922   3.237   1.043
  597SOL    HW2 6491   2.950   3.302   1.190
  598SOL     OW 6492   4.167   3.659   1.080
  598SOL    HW1 6493   4.155   3.602   0.998
  598SOL    HW2 6494   4.093   3.642   1.144
  599SOL     OW 6495   0.969   3.072   5.512
  599SOL    HW1 6496   1.026   2.991   5.516
  599SOL    HW2 6497   0.979   3.115   5.422
  600SOL     OW 6498   4.672   0.644   0.283
  600SOL    HW1 6499   4.666   0.676   0.377
  600SOL    HW2 6500   4.639   0.550   0.278
  601SOL     OW 6501   4.435   1.208   0.004
  601SOL    HW1 6502   4.527   1.169   0.013
  601SOL    HW2 6503   4.394   1.217   0.095
  602SOL     OW 6504   0.462   0.271   0.890
  602SOL    HW1 6505   0.490   0.258   0.795
  602SOL    HW2 6506   0.540   0.299   0.944
  603SOL     OW 6507   5.047   5.080   5.580
  603SOL    HW1 6508   5.073   5.057   5.487
  603SOL    HW2 6509   4.960   5.035   5.603
  604SOL     OW 6510   2.354   2.826   1.341
  604SOL    HW1 6511   2.368   2.856   1.436
  604SOL    HW2 6512   2.315   2.901   1.288
  605SOL     OW 6513   0.210   1.092   1.040
  605SOL    HW1 6514   0.138   1.056   0.981
  605SOL    HW2 6515   0.281   1.134   0.984
  606SOL     OW 6516   3.194   0.409   6.079
  606SOL    HW1 6517   3.208   0.504   6.052
  606SOL    HW2 6518   3.193   0.351   5.997
  607SOL     OW 6519   4.724   1.192   5.853
  607SOL    HW1 6520   4.658   1.118   5.866
  607SOL    HW2 6521   4.780   1.173   5.773
  608SOL     OW 6522   5.563   1.588   0.750
  608SOL    HW1 6523   5.549   1.649   0.672
  608SOL    HW2 6524   5.660   1.589   0.775
  609SOL     OW 6525   0.801   1.858   6.688
  609SOL    HW1 6526   0.776   1.835   6.782
  609SOL    HW2 6527   0.738   1.812   6.624
  610SOL     OW 6528   2.872   0.979   0.469
  610SOL    HW1 6529   2.848   0.883   0.486
  610SOL    HW2 6530   2.901   1.022   0.554
  611SOL     OW 6531   1.892   2.025   6.210
  611SOL    HW1 6532   1.904   1.929   6.237
  611SOL    HW2 6533   1.796   2.041   6.189
  612SOL     OW 6534   5.506   0.850   1.792
  612SOL    HW1 6535   5.556   0.908   1.856
  612SOL    HW2 6536   5.408   0.869   1.799
  613SOL     OW 6537   1.332   0.898   5.118
  613SOL    HW1 6538   1.266   0.972   5.116
  613SOL    HW2 6539   1.425   0.936   5.107
  614SOL     OW 6540   2.230   3.484   6.015
  614SOL    HW1 6541   2.218   3.583   6.009
  614SOL    HW2 6542   2.304   3.464   6.080
  615SOL     OW 6543   1.299   2.173   0.423
  615SOL    HW1 6544   1.323   2.238   0.351
  615SOL    HW2 6545   1.206   2.140   0.410
  616SOL     OW 6546   1.086   0.179   0.414
  616SOL    HW1 6547   1.172   0.142   0.380
  616SOL    HW2 6548   1.104   0.248   0.485
  617SOL     OW 6549   0.205   3.245   6.622
  617SOL    HW1 6550   0.218   3.251   6.721
  617SOL    HW2 6551   0.261   3.171   6.585
  618SOL     OW 6552   1.757   4.133   6.192
  618SOL    HW1 6553   1.853   4.119   6.169
  618SOL    HW2 6554   1.722   4.053   6.240
  619SOL     OW 6555   1.061   2.792   6.168
  619SOL    HW1 6556   1.133   2.855   6.139
  619SOL    HW2 6557   1.080   2.762   6.262
  620SOL     OW 6558   5.369   3.520   0.367
  620SOL    HW1 6559   5.420   3.491   0.287
  620SOL    HW2 6560   5.298   3.452   0.387
  621SOL     OW 6561   4.077   0.884   0.584
  621SOL    HW1 6562   4.033   0.866   0.496
  621SOL    HW2 6563   4.143   0.959   0.573
  622SOL     OW 6564   3.917   0.584   5.774
  622SOL    HW1 6565   3.862   0.582   5.857
  622SOL    HW2 6566   3.873   0.528   5.703
  623SOL     OW 6567   2.229   2.655   1.697
  623SOL    HW1 6568   2.177   2.697   1.771
  623SOL    HW2 6569   2.170   2.593   1.645
  624SOL     OW 6570   1.827   3.548   1.075
  624SOL    HW1 6571   1.791   3.495   0.999
  624SOL    HW2 6572   1.891   3.492   1.128
  625SOL     OW 6573   3.413   2.265   0.270
  625SOL    HW1 6574   3.470   2.205   0.215
  625SOL    HW2 6575   3.323   2.276   0.226
  626SOL     OW 6576   3.922   0.453   0.507
  626SOL    HW1 6577   3.855   0.390   0.468
  626SOL    HW2 6578   3.990   0.477   0.437
  627SOL     OW 6579   2.739   5.481   1.497
  627SOL    HW1 6580   2.814   5.466   1.562
  627SOL    HW2 6581   2.675   5.405   1.501
  628SOL     OW 6582   3.909   0.425   5.286
  628SOL    HW1 6583   3.827   0.370   5.301
  628SOL    HW2 6584   3.901   0.472   5.198
  629SOL     OW 6585   5.408   5.245   4.979
  629SOL    HW1 6586   5.504   5.242   4.952
  629SOL    HW2 6587   5.359   5.310   4.922
  630SOL     OW 6588   1.065   1.114   0.783
  630SOL    HW1 6589   1.061   1.113   0.883
  630SOL    HW2 6590   1.149   1.159   0.753
  631SOL     OW 6591   2.875   1.697   1.202
  631SOL    HW1 6592   2.843   1.616   1.252
  631SOL    HW2 6593   2.869   1.678   1.104
  632SOL     OW 6594   2.082   1.947   0.793
  632SOL    HW1 6595   2.035   1.905   0.716
  632SOL    HW2 6596   2.017   1.998   0.848
  633SOL     OW 6597   4.314   1.233   0.262
  633SOL    HW1 6598   4.247   1.162   0.241
  633SOL    HW2 6599   4.289   1.278   0.348
  634SOL     OW 6600   2.280   0.932   6.133
  634SOL    HW1 6601   2.281   0.983   6.047
  634SOL    HW2 6602   2.232   0.845   6.120
  635SOL     OW 6603   2.663   2.861   0.243
  635SOL    HW1 6604   2.683   2.953   0.276
  635SOL    HW2 6605   2.692   2.852   0.148
  636SOL     OW 6606   2.963   0.065   6.244
  636SOL    HW1 6607   3.050   0.079   6.197
  636SOL    HW2 6608   2.950   5.574   6.259
  637SOL     OW 6609   0.616   2.302   0.074
  637SOL    HW1 6610   0.705   2.275   0.110
  637SOL    HW2 6611   0.601   2.399   0.093
  638SOL     OW 6612   3.017   1.703   1.886
  638SOL    HW1 6613   3.106   1.732   1.850
  638SOL    HW2 6614   3.024   1.609   1.919
  639SOL     OW 6615   5.193   0.786   6.288
  639SOL    HW1 6616   5.285   0.755   6.314
  639SOL    HW2 6617   5.198   0.880   6.254
  640SOL     OW 6618   3.135   0.190   6.633
  640SOL    HW1 6619   3.121   0.123   6.705
  640SOL    HW2 6620   3.206   0.256   6.661
  641SOL     OW 6621   3.426   1.428   0.160
  641SOL    HW1 6622   3.479   1.367   0.219
  641SOL    HW2 6623   3.369   1.373   0.099
  642SOL     OW 6624   5.666   0.040   0.026
  642SOL    HW1 6625   0.021   5.589   0.096
  642SOL    HW2 6626   5.596   5.595   6.833
  643SOL     OW 6627   1.370   2.373   0.599
  643SOL    HW1 6628   1.354   2.294   0.541
  643SOL    HW2 6629   1.283   2.417   0.621
  644SOL     OW 6630   2.899   0.180   6.487
  644SOL    HW1 6631   2.919   0.136   6.400
  644SOL    HW2 6632   2.982   0.186   6.542
  645SOL     OW 6633   2.394   4.086   6.107
  645SOL    HW1 6634   2.435   4.175   6.087
  645SOL    HW2 6635   2.435   4.016   6.049
  646SOL     OW 6636   1.246   0.409   1.309
  646SOL    HW1 6637   1.236   0.505   1.282
  646SOL    HW2 6638   1.171   0.384   1.371
  647SOL     OW 6639   2.717   0.516   0.687
  647SOL    HW1 6640   2.769   0.435   0.660
  647SOL    HW2 6641   2.718   0.525   0.787
  648SOL     OW 6642   2.412   4.313   1.495
  648SOL    HW1 6643   2.431   4.274   1.585
  648SOL    HW2 6644   2.454   4.256   1.424
  649SOL     OW 6645   3.881   3.523   6.043
  649SOL    HW1 6646   3.910   3.545   5.950
  649SOL    HW2 6647   3.925   3.587   6.108
  650SOL     OW 6648   0.123   2.210   5.938
  650SOL    HW1 6649   0.222   2.208   5.940
  650SOL    HW2 6650   0.089   2.156   5.861
  651SOL     OW 6651   2.282   1.144   1.409
  651SOL    HW1 6652   2.277   1.238   1.444
  651SOL    HW2 6653   2.277   1.079   1.484
  652SOL     OW 6654   5.068   2.453   0.948
  652SOL    HW1 6655   5.033   2.391   0.878
  652SOL    HW2 6656   5.124   2.524   0.905
  653SOL     OW 6657   0.538   2.436   0.785
  653SOL    HW1 6658   0.506   2.366   0.722
  653SOL    HW2 6659   0.548   2.523   0.737
  654SOL     OW 6660   2.636   4.182   0.600
  654SOL    HW1 6661   2.735   4.174   0.601
  654SOL    HW2 6662   2.610   4.279   0.598
  655SOL     OW 6663   2.039   1.718   1.005
  655SOL    HW1 6664   2.062   1.813   1.028
  655SOL    HW2 6665   1.940   1.707   1.002
  656SOL     OW 6666   3.274   2.625   2.035
  656SOL    HW1 6667   3.234   2.703   2.083
  656SOL    HW2 6668   3.361   2.600   2.078
  657SOL     OW 6669   3.310   4.424   6.520
  657SOL    HW1 6670   3.270   4.515   6.517
  657SOL    HW2 6671   3.285   4.379   6.605
  658SOL     OW 6672   2.780   3.679   0.204
  658SOL    HW1 6673   2.712   3.740   0.246
  658SOL    HW2 6674   2.749   3.584   0.213
  659SOL     OW 6675   0.499   0.770   0.506
  659SOL    HW1 6676   0.582   0.804   0.552
  659SOL    HW2 6677   0.445   0.716   0.572
  660SOL     OW 6678   1.140   2.890   0.500
  660SOL    HW1 6679   1.162   2.841   0.415
  660SOL    HW2 6680   1.057   2.944   0.486
  661SOL     OW 6681   0.017   0.428   6.588
  661SOL    HW1 6682   5.604   0.416   6.598
  661SOL    HW2 6683   0.051   0.491   6.658
  662SOL     OW 6684   3.707   1.251   1.486
  662SOL    HW1 6685   3.637   1.208   1.428
  662SOL    HW2 6686   3.780   1.288   1.428
  663SOL     OW 6687   1.052   4.754   6.579
  663SOL    HW1 6688   1.125   4.721   6.639
  663SOL    HW2 6689   1.018   4.679   6.522
  664SOL     OW 6690   1.818   1.227   6.817
  664SOL    HW1 6691   1.868   1.250   6.733
  664SOL    HW2 6692   1.727   1.268   6.813
  665SOL     OW 6693   5.235   1.474   5.974
  665SOL    HW1 6694   5.137   1.497   5.974
  665SOL    HW2 6695   5.254   1.413   5.897
  666SOL     OW 6696   3.941   0.545   6.700
  666SOL    HW1 6697   3.886   0.616   6.657
  666SOL    HW2 6698   3.986   0.490   6.629
  667SOL     OW 6699   1.689   2.777   1.300
  667SOL    HW1 6700   1.677   2.686   1.339
  667SOL    HW2 6701   1.610   2.835   1.323
  668SOL     OW 6702   3.350   4.041   1.689
  668SOL    HW1 6703   3.285   4.107   1.728
  668SOL    HW2 6704   3.432   4.038   1.746
  669SOL     OW 6705   0.674   4.692   0.272
  669SOL    HW1 6706   0.726   4.738   0.344
  669SOL    HW2 6707   0.672   4.750   0.190
  670SOL     OW 6708   4.946   1.056   0.291
  670SOL    HW1 6709   4.938   1.115   0.211
  670SOL    HW2 6710   4.922   0.962   0.266
  671SOL     OW 6711   1.232   1.911   0.814
  671SOL    HW1 6712   1.314   1.922   0.870
  671SOL    HW2 6713   1.154   1.949   0.863
  672SOL     OW 6714   5.148   0.276   6.283
  672SOL    HW1 6715   5.087   0.338   6.234
  672SOL    HW2 6716   5.105   0.186   6.292
  673SOL     OW 6717   3.381   3.698   6.274
  673SOL    HW1 6718   3.427   3.725   6.190
  673SOL    HW2 6719   3.438   3.724   6.353
  674SOL     OW 6720   2.535   1.294   6.102
  674SOL    HW1 6721   2.495   1.323   6.189
  674SOL    HW2 6722   2.563   1.375   6.050
  675SOL     OW 6723   1.764   0.977   0.054
  675SOL    HW1 6724   1.799   1.059   0.010
  675SOL    HW2 6725   1.791   0.976   0.151
  676SOL     OW 6726   1.960   2.765   0.169
  676SOL    HW1 6727   1.904   2.694   0.211
  676SOL    HW2 6728   1.903   2.822   0.110
  677SOL     OW 6729   4.195   3.889   6.509
  677SOL    HW1 6730   4.269   3.905   6.575
  677SOL    HW2 6731   4.174   3.792   6.505
  678SOL     OW 6732   2.513   4.395   0.296
  678SOL    HW1 6733   2.508   4.485   0.252
  678SOL    HW2 6734   2.423   4.353   0.297
  679SOL     OW 6735   4.320   0.581   0.899
  679SOL    HW1 6736   4.250   0.601   0.967
  679SOL    HW2 6737   4.360   0.491   0.917
  680SOL     OW 6738   4.183   0.121   1.464
  680SOL    HW1 6739   4.135   0.195   1.416
  680SOL    HW2 6740   4.117   0.068   1.517
  681SOL     OW 6741   0.752   3.328   1.979
  681SOL    HW1 6742   0.778   3.423   1.999
  681SOL    HW2 6743   0.811   3.266   2.030
  682SOL     OW 6744   4.426   0.472   0.573
  682SOL    HW1 6745   4.383   0.419   0.500
  682SOL    HW2 6746   4.364   0.544   0.604
  683SOL     OW 6747   3.887   3.506   6.506
  683SOL    HW1 6748   3.926   3.432   6.451
  683SOL    HW2 6749   3.829   3.467   6.577
  684SOL     OW 6750   1.617   2.271   0.228
  684SOL    HW1 6751   1.676   2.314   0.159
  684SOL    HW2 6752   1.671   2.251   0.310
  685SOL     OW 6753   4.475   2.233   1.198
  685SOL    HW1 6754   4.463   2.136   1.217
  685SOL    HW2 6755   4.395   2.268   1.150
  686SOL     OW 6756   3.127   0.052   0.965
  686SOL    HW1 6757   3.120   0.036   1.064
  686SOL    HW2 6758   3.099   5.576   0.916
  687SOL     OW 6759   0.267   5.348   5.517
  687SOL    HW1 6760   0.334   5.349   5.443
  687SOL    HW2 6761   0.175   5.337   5.479
  688SOL     OW 6762   4.894   1.866   0.657
  688SOL    HW1 6763   4.960   1.884   0.730
  688SOL    HW2 6764   4.904   1.936   0.586
  689SOL     OW 6765   5.134   4.882   0.947
  689SOL    HW1 6766   5.117   4.797   0.999
  689SOL    HW2 6767   5.098   4.871   0.854
  690SOL     OW 6768   2.248   4.522   1.566
  690SOL    HW1 6769   2.291   4.573   1.640
  690SOL    HW2 6770   2.310   4.448   1.536
  691SOL     OW 6771   2.021   0.760   5.475
  691SOL    HW1 6772   2.024   0.662   5.455
  691SOL    HW2 6773   2.034   0.812   5.391
  692SOL     OW 6774   5.107   3.315   6.758
  692SOL    HW1 6775   5.042   3.389   6.742
  692SOL    HW2 6776   5.108   3.253   6.679
  693SOL     OW 6777   4.261   2.316   1.045
  693SOL    HW1 6778   4.193   2.243   1.038
  693SOL    HW2 6779   4.280   2.353   0.954
  694SOL     OW 6780   0.993   5.350   6.609
  694SOL    HW1 6781   1.033   5.427   6.659
  694SOL    HW2 6782   1.064   5.284   6.586
  695SOL     OW 6783   1.183   2.950   1.166
  695SOL    HW1 6784   1.197   2.944   1.265
  695SOL    HW2 6785   1.102   3.007   1.148
  696SOL     OW 6786   4.728   1.766   1.401
  696SOL    HW1 6787   4.661   1.787   1.472
  696SOL    HW2 6788   4.684   1.767   1.312
  697SOL     OW 6789   5.193   3.875   6.056
  697SOL    HW1 6790   5.200   3.832   5.966
  697SOL    HW2 6791   5.264   3.840   6.116
  698SOL     OW 6792   1.552   1.683   5.900
  698SOL    HW1 6793   1.470   1.723   5.941
  698SOL    HW2 6794   1.528   1.598   5.854
  699SOL     OW 6795   1.735   2.587   6.726
  699SOL    HW1 6796   1.768   2.673   6.688
  699SOL    HW2 6797   1.655   2.556   6.675
  700SOL     OW 6798   2.673   3.196   5.197
  700SOL    HW1 6799   2.593   3.140   5.176
  700SOL    HW2 6800   2.644   3.290   5.217
  701SOL     OW 6801   0.787   0.756   6.209
  701SOL    HW1 6802   0.689   0.742   6.221
  701SOL    HW2 6803   0.837   0.683   6.254
  702SOL     OW 6804   0.115   4.444   2.221
  702SOL    HW1 6805   0.060   4.510   2.171
  702SOL    HW2 6806   0.135   4.366   2.163
  703SOL     OW 6807   1.939   1.513   6.044
  703SOL    HW1 6808   1.914   1.430   5.993
  703SOL    HW2 6809   1.855   1.558   6.076
  704SOL     OW 6810   0.381   4.640   6.246
  704SOL    HW1 6811   0.436   4.719   6.272
  704SOL    HW2 6812   0.435   4.556   6.256
  705SOL     OW 6813   4.122   3.532   1.466
  705SOL    HW1 6814   4.136   3.433   1.465
  705SOL    HW2 6815   4.207   3.578   1.442
  706SOL     OW 6816   3.807   4.200   6.337
  706SOL    HW1 6817   3.723   4.215   6.389
  706SOL    HW2 6818   3.798   4.242   6.247
  707SOL     OW 6819   4.953   2.484   0.447
  707SOL    HW1 6820   4.875   2.469   0.507
  707SOL    HW2 6821   4.922   2.525   0.361
  708SOL     OW 6822   2.015   4.941   0.382
  708SOL    HW1 6823   2.089   4.915   0.444
  708SOL    HW2 6824   2.043   4.924   0.288
  709SOL     OW 6825   0.827   1.704   5.939
  709SOL    HW1 6826   0.792   1.782   5.887
  709SOL    HW2 6827   0.924   1.719   5.961
  710SOL     OW 6828   2.927   4.605   0.113
  710SOL    HW1 6829   2.856   4.668   0.144
  710SOL    HW2 6830   2.949   4.541   0.187
  711SOL     OW 6831   4.521   2.579   0.666
  711SOL    HW1 6832   4.439   2.524   0.653
  711SOL    HW2 6833   4.601   2.527   0.635
  712SOL     OW 6834   2.427   0.297   1.248
  712SOL    HW1 6835   2.503   0.304   1.184
  712SOL    HW2 6836   2.458   0.323   1.340
  713SOL     OW 6837   4.478   5.439   0.712
  713SOL    HW1 6838   4.518   5.467   0.799
  713SOL    HW2 6839   4.410   5.507   0.683
  714SOL     OW 6840   4.858   0.882   6.785
  714SOL    HW1 6841   4.954   0.908   6.774
  714SOL    HW2 6842   4.827   0.836   6.702
  715SOL     OW 6843   1.948   3.092   1.388
  715SOL    HW1 6844   1.959   2.999   1.354
  715SOL    HW2 6845   1.882   3.140   1.332
  716SOL     OW 6846   0.098   5.162   1.658
  716SOL    HW1 6847   0.076   5.126   1.748
  716SOL    HW2 6848   0.154   5.245   1.668
  717SOL     OW 6849   5.629   5.561   5.946
  717SOL    HW1 6850   5.642   5.462   5.945
  717SOL    HW2 6851   5.678   5.603   5.869
  718SOL     OW 6852   0.860   2.944   0.195
  718SOL    HW1 6853   0.931   2.975   0.133
  718SOL    HW2 6854   0.770   2.967   0.157
  719SOL     OW 6855   2.585   2.036   0.685
  719SOL    HW1 6856   2.493   2.075   0.692
  719SOL    HW2 6857   2.605   2.015   0.589
  720SOL     OW 6858   1.585   3.335   6.036
  720SOL    HW1 6859   1.624   3.412   5.983
  720SOL    HW2 6860   1.486   3.342   6.036
  721SOL     OW 6861   5.637   5.537   0.475
  721SOL    HW1 6862   5.675   5.587   0.553
  721SOL    HW2 6863   5.561   5.480   0.505
  722SOL     OW 6864   0.932   2.248   1.056
  722SOL    HW1 6865   0.989   2.326   1.082
  722SOL    HW2 6866   0.845   2.281   1.019
  723SOL     OW 6867   4.231   1.356   1.622
  723SOL    HW1 6868   4.152   1.416   1.608
  723SOL    HW2 6869   4.216   1.270   1.574
  724SOL     OW 6870   2.539   0.951   0.008
  724SOL    HW1 6871   2.562   0.865   6.820
  724SOL    HW2 6872   2.485   0.932   0.090
  725SOL     OW 6873   5.610   5.085   1.455
  725SOL    HW1 6874   5.545   5.160   1.466
  725SOL    HW2 6875   0.000   5.097   1.519
  726SOL     OW 6876   1.666   0.607   0.500
  726SOL    HW1 6877   1.602   0.644   0.432
  726SOL    HW2 6878   1.709   0.682   0.550
  727SOL     OW 6879   4.484   5.438   6.599
  727SOL    HW1 6880   4.537   5.469   6.520
  727SOL    HW2 6881   4.405   5.498   6.612
  728SOL     OW 6882   1.256   4.167   6.568
  728SOL    HW1 6883   1.251   4.069   6.590
  728SOL    HW2 6884   1.247   4.220   6.652
  729SOL     OW 6885   3.461   0.810   0.705
  729SOL    HW1 6886   3.467   0.842   0.610
  729SOL    HW2 6887   3.469   0.710   0.707
  730SOL     OW 6888   3.041   0.853   5.957
  730SOL    HW1 6889   2.974   0.794   6.003
  730SOL    HW2 6890   3.065   0.929   6.017
  731SOL     OW 6891   2.778   1.541   5.745
  731SOL    HW1 6892   2.795   1.640   5.743
  731SOL    HW2 6893   2.743   1.512   5.656
  732SOL     OW 6894   2.252   1.393   1.504
  732SOL    HW1 6895   2.206   1.467   1.454
  732SOL    HW2 6896   2.236   1.404   1.602
  733SOL     OW 6897   0.634   1.620   6.127
  733SOL    HW1 6898   0.705   1.657   6.067
  733SOL    HW2 6899   0.551   1.676   6.118
  734SOL     OW 6900   3.750   3.728   0.535
  734SOL    HW1 6901   3.835   3.731   0.482
  734SOL    HW2 6902   3.762   3.782   0.619
  735SOL     OW 6903   1.138   3.239   1.942
  735SOL    HW1 6904   1.071   3.252   1.869
  735SOL    HW2 6905   1.226   3.278   1.913
  736SOL     OW 6906   0.805   1.861   0.442
  736SOL    HW1 6907   0.878   1.866   0.509
  736SOL    HW2 6908   0.843   1.835   0.353
  737SOL     OW 6909   1.668   5.410   5.436
  737SOL    HW1 6910   1.717   5.488   5.398
  737SOL    HW2 6911   1.715   5.325   5.412
  738SOL     OW 6912   3.795   0.766   6.592
  738SOL    HW1 6913   3.856   0.846   6.588
  738SOL    HW2 6914   3.805   0.713   6.508
  739SOL     OW 6915   0.963   0.702   0.278
  739SOL    HW1 6916   0.891   0.657   0.224
  739SOL    HW2 6917   0.925   0.730   0.367
  740SOL     OW 6918   1.709   1.634   6.131
  740SOL    HW1 6919   1.659   1.661   6.049
  740SOL    HW2 6920   1.654   1.570   6.185
  741SOL     OW 6921   2.243   4.161   0.700
  741SOL    HW1 6922   2.220   4.144   0.795
  741SOL    HW2 6923   2.288   4.250   0.691
  742SOL     OW 6924   1.639   2.074   5.897
  742SOL    HW1 6925   1.580   2.135   5.843
  742SOL    HW2 6926   1.668   1.997   5.840
  743SOL     OW 6927   4.262   4.463   5.610
  743SOL    HW1 6928   4.291   4.367   5.613
  743SOL    HW2 6929   4.225   4.484   5.519
  744SOL     OW 6930   0.274   5.000   5.690
  744SOL    HW1 6931   0.205   5.007   5.762
  744SOL    HW2 6932   0.236   4.951   5.612
  745SOL     OW 6933   0.040   4.324   2.457
  745SOL    HW1 6934   0.080   4.381   2.385
  745SOL    HW2 6935   0.106   4.310   2.530
  746SOL     OW 6936   2.738   3.973   1.962
  746SOL    HW1 6937   2.828   3.983   2.005
  746SOL    HW2 6938   2.749   3.968   1.863
  747SOL     OW 6939   2.551   1.570   6.700
  747SOL    HW1 6940   2.466   1.532   6.735
  747SOL    HW2 6941   2.620   1.498   6.692
  748SOL     OW 6942   4.180   4.060   6.284
  748SOL    HW1 6943   4.181   3.990   6.355
  748SOL    HW2 6944   4.144   4.146   6.322
  749SOL     OW 6945   1.392   1.271   6.688
  749SOL    HW1 6946   1.307   1.264   6.740
  749SOL    HW2 6947   1.466   1.299   6.748
  750SOL     OW 6948   2.061   3.844   6.206
  750SOL    HW1 6949   1.966   3.826   6.179
  750SOL    HW2 6950   2.089   3.777   6.275
  751SOL     OW 6951   3.369   4.102   0.232
  751SOL    HW1 6952   3.278   4.061   0.226
  751SOL    HW2 6953   3.372   4.165   0.310
  752SOL     OW 6954   4.684   1.879   0.078
  752SOL    HW1 6955   4.713   1.785   0.097
  752SOL    HW2 6956   4.762   1.930   0.040
  753SOL     OW 6957   1.525   4.082   5.464
  753SOL    HW1 6958   1.566   3.994   5.440
  753SOL    HW2 6959   1.456   4.105   5.395
  754SOL     OW 6960   3.748   4.376   1.790
  754SOL    HW1 6961   3.721   4.324   1.709
  754SOL    HW2 6962   3.723   4.472   1.778
  755SOL     OW 6963   0.154   0.802   1.901
  755SOL    HW1 6964   0.086   0.790   1.974
  755SOL    HW2 6965   0.173   0.900   1.889
  756SOL     OW 6966   2.147   2.558   6.506
  756SOL    HW1 6967   2.131   2.650   6.471
  756SOL    HW2 6968   2.059   2.517   6.532
  757SOL     OW 6969   3.672   2.465   5.773
  757SOL    HW1 6970   3.718   2.527   5.710
  757SOL    HW2 6971   3.694   2.370   5.749
  758SOL     OW 6972   2.505   3.777   5.839
  758SOL    HW1 6973   2.554   3.773   5.752
  758SOL    HW2 6974   2.430   3.842   5.832
  759SOL     OW 6975   0.898   4.765   6.074
  759SOL    HW1 6976   0.950   4.690   6.115
  759SOL    HW2 6977   0.824   4.727   6.018
  760SOL     OW 6978   3.092   5.389   6.637
  760SOL    HW1 6979   3.090   5.464   6.703
  760SOL    HW2 6980   3.141   5.418   6.555
  761SOL     OW 6981   3.299   1.085   0.629
  761SOL    HW1 6982   3.252   1.034   0.701
  761SOL    HW2 6983   3.330   1.021   0.558
  762SOL     OW 6984   0.613   2.151   6.694
  762SOL    HW1 6985   0.620   2.204   6.779
  762SOL    HW2 6986   0.700   2.155   6.645
  763SOL     OW 6987   3.962   4.435   1.941
  763SOL    HW1 6988   3.877   4.411   1.894
  763SOL    HW2 6989   3.943   4.505   2.010
  764SOL     OW 6990   3.097   5.598   6.819
  764SOL    HW1 6991   3.023   0.007   0.027
  764SOL    HW2 6992   3.177   5.563   0.009
  765SOL     OW 6993   4.313   2.881   0.379
  765SOL    HW1 6994   4.387   2.825   0.342
  765SOL    HW2 6995   4.351   2.949   0.442
  766SOL     OW 6996   5.181   5.314   0.592
  766SOL    HW1 6997   5.202   5.231   0.644
  766SOL    HW2 6998   5.236   5.315   0.508
  767SOL     OW 6999   4.534   1.160   6.388
  767SOL    HW1 7000   4.546   1.166   6.289
  767SOL    HW2 7001   4.500   1.070   6.412
  768SOL     OW 7002   0.512   5.413   1.318
  768SOL    HW1 7003   0.446   5.473   1.362
  768SOL    HW2 7004   0.465   5.334   1.279
  769SOL     OW 7005   1.797   4.728   0.811
  769SOL    HW1 7006   1.811   4.812   0.759
  769SOL    HW2 7007   1.734   4.745   0.886
  770SOL     OW 7008   5.570   2.416   5.602
  770SOL    HW1 7009   5.543   2.325   5.573
  770SOL    HW2 7010   5.641   2.451   5.541
  771SOL     OW 7011   5.171   5.329   6.610
  771SOL    HW1 7012   5.141   5.279   6.528
  771SOL    HW2 7013   5.092   5.343   6.670
  772SOL     OW 7014   2.127   4.250   6.509
  772SOL    HW1 7015   2.189   4.203   6.446
  772SOL    HW2 7016   2.033   4.240   6.476
  773SOL     OW 7017   0.541   4.430   5.893
  773SOL    HW1 7018   0.593   4.387   5.967
  773SOL    HW2 7019   0.572   4.394   5.806
  774SOL     OW 7020   5.345   1.884   0.231
  774SOL    HW1 7021   5.368   1.789   0.211
  774SOL    HW2 7022   5.304   1.926   0.149
  775SOL     OW 7023   0.580   3.754   6.695
  775SOL    HW1 7024   0.629   3.667   6.693
  775SOL    HW2 7025   0.538   3.770   6.605
  776SOL     OW 7026   5.006   4.036   6.153
  776SOL    HW1 7027   5.074   3.973   6.116
  776SOL    HW2 7028   5.049   4.126   6.166
  777SOL     OW 7029   3.660   0.036   0.556
  777SOL    HW1 7030   3.612   5.568   0.601
  777SOL    HW2 7031   3.758   0.023   0.565
  778SOL     OW 7032   3.636   4.393   6.842
  778SOL    HW1 7033   3.598   4.483   6.820
  778SOL    HW2 7034   3.564   4.324   6.836
  779SOL     OW 7035   2.752   4.678   6.155
  779SOL    HW1 7036   2.732   4.724   6.242
  779SOL    HW2 7037   2.797   4.743   6.093
  780SOL     OW 7038   3.179   3.476   1.082
  780SOL    HW1 7039   3.237   3.443   1.156
  780SOL    HW2 7040   3.096   3.420   1.078
  781SOL     OW 7041   3.058   1.858   0.511
  781SOL    HW1 7042   3.096   1.916   0.584
  781SOL    HW2 7043   3.033   1.769   0.549
  782SOL     OW 7044   3.376   1.229   1.475
  782SOL    HW1 7045   3.281   1.247   1.500
  782SOL    HW2 7046   3.383   1.138   1.435
  783SOL     OW 7047   1.428   1.873   6.272
  783SOL    HW1 7048   1.464   1.924   6.349
  783SOL    HW2 7049   1.352   1.815   6.303
  784SOL     OW 7050   2.038   0.304   6.578
  784SOL    HW1 7051   2.023   0.386   6.633
  784SOL    HW2 7052   1.977   0.306   6.499
  785SOL     OW 7053   0.490   5.299   1.609
  785SOL    HW1 7054   0.487   5.202   1.634
  785SOL    HW2 7055   0.509   5.308   1.511
  786SOL     OW 7056   2.319   5.172   5.349
  786SOL    HW1 7057   2.395   5.109   5.366
  786SOL    HW2 7058   2.336   5.223   5.264
  787SOL     OW 7059   0.845   0.994   6.100
  787SOL    HW1 7060   0.829   0.902   6.134
  787SOL    HW2 7061   0.813   1.061   6.167
  788SOL     OW 7062   0.504   4.292   1.029
  788SOL    HW1 7063   0.513   4.203   0.984
  788SOL    HW2 7064   0.444   4.350   0.975
  789SOL     OW 7065   0.404   1.679   1.106
  789SOL    HW1 7066   0.340   1.754   1.120
  789SOL    HW2 7067   0.493   1.714   1.078
  790SOL     OW 7068   0.547   2.693   0.637
  790SOL    HW1 7069   0.461   2.736   0.666
  790SOL    HW2 7070   0.616   2.764   0.621
  791SOL     OW 7071   3.833   4.043   1.970
  791SOL    HW1 7072   3.905   4.107   1.996
  791SOL    HW2 7073   3.840   3.961   2.027
  792SOL     OW 7074   0.307   2.357   0.381
  792SOL    HW1 7075   0.349   2.279   0.335
  792SOL    HW2 7076   0.373   2.433   0.383
  793SOL     OW 7077   5.407   0.339   5.693
  793SOL    HW1 7078   5.376   0.246   5.675
  793SOL    HW2 7079   5.502   0.336   5.725
  794SOL     OW 7080   0.414   2.373   5.654
  794SOL    HW1 7081   0.467   2.409   5.577
  794SOL    HW2 7082   0.428   2.431   5.734
  795SOL     OW 7083   0.132   2.701   2.085
  795SOL    HW1 7084   0.100   2.693   2.179
  795SOL    HW2 7085   0.140   2.610   2.044
  796SOL     OW 7086   1.769   3.316   6.532
  796SOL    HW1 7087   1.795   3.309   6.628
  796SOL    HW2 7088   1.769   3.412   6.503
  797SOL     OW 7089   3.681   2.402   2.005
  797SOL    HW1 7090   3.611   2.450   2.058
  797SOL    HW2 7091   3.752   2.368   2.067
  798SOL     OW 7092   4.749   2.664   5.933
  798SOL    HW1 7093   4.845   2.681   5.955
  798SOL    HW2 7094   4.725   2.709   5.847
  799SOL     OW 7095   2.143   0.661   0.508
  799SOL    HW1 7096   2.084   0.580   0.505
  799SOL    HW2 7097   2.086   0.743   0.512
  800SOL     OW 7098   0.330   0.359   6.605
  800SOL    HW1 7099   0.402   0.315   6.659
  800SOL    HW2 7100   0.242   0.316   6.625
  801SOL     OW 7101   5.217   2.664   0.858
  801SOL    HW1 7102   5.144   2.730   0.875
  801SOL    HW2 7103   5.267   2.689   0.775
  802SOL     OW 7104   0.675   3.001   0.832
  802SOL    HW1 7105   0.691   3.099   0.840
  802SOL    HW2 7106   0.685   2.973   0.736
  803SOL     OW 7107   4.434   4.043   1.104
  803SOL    HW1 7108   4.475   4.034   1.013
  803SOL    HW2 7109   4.479   4.118   1.154
  804SOL     OW 7110   5.478   5.249   5.244
  804SOL    HW1 7111   5.394   5.254   5.297
  804SOL    HW2 7112   5.457   5.259   5.147
  805SOL     OW 7113   2.551   5.475   0.641
  805SOL    HW1 7114   2.577   5.441   0.551
  805SOL    HW2 7115   2.550   5.575   0.640
  806SOL     OW 7116   3.116   5.035   0.624
  806SOL    HW1 7117   3.088   5.050   0.530
  806SOL    HW2 7118   3.181   4.959   0.627
  807SOL     OW 7119   1.003   0.234   1.054
  807SOL    HW1 7120   1.071   0.304   1.033
  807SOL    HW2 7121   0.953   0.210   0.970
  808SOL     OW 7122   2.468   3.264   1.322
  808SOL    HW1 7123   2.506   3.230   1.408
  808SOL    HW2 7124   2.382   3.311   1.339
  809SOL     OW 7125   2.364   0.408   5.513
  809SOL    HW1 7126   2.444   0.448   5.468
  809SOL    HW2 7127   2.335   0.328   5.461
  810SOL     OW 7128   4.237   4.682   6.612
  810SOL    HW1 7129   4.334   4.695   6.593
  810SOL    HW2 7130   4.221   4.685   6.710
  811SOL     OW 7131   1.638   3.226   0.240
  811SOL    HW1 7132   1.736   3.218   0.225
  811SOL    HW2 7133   1.596   3.135   0.239
  812SOL     OW 7134   0.390   1.484   0.803
  812SOL    HW1 7135   0.354   1.528   0.721
  812SOL    HW2 7136   0.484   1.515   0.819
  813SOL     OW 7137   4.277   0.009   6.633
  813SOL    HW1 7138   4.331   0.090   6.609
  813SOL    HW2 7139   4.215   0.032   6.709
  814SOL     OW 7140   1.139   5.010   0.630
  814SOL    HW1 7141   1.129   5.024   0.531
  814SOL    HW2 7142   1.064   5.055   0.678
  815SOL     OW 7143   1.329   3.954   1.510
  815SOL    HW1 7144   1.261   4.028   1.507
  815SOL    HW2 7145   1.354   3.935   1.605
  816SOL     OW 7146   4.719   0.163   1.027
  816SOL    HW1 7147   4.711   0.216   0.943
  816SOL    HW2 7148   4.736   0.067   1.005
  817SOL     OW 7149   1.307   4.016   0.210
  817SOL    HW1 7150   1.229   4.054   0.260
  817SOL    HW2 7151   1.373   4.089   0.190
  818SOL     OW 7152   2.782   1.512   5.247
  818SOL    HW1 7153   2.797   1.418   5.217
  818SOL    HW2 7154   2.791   1.574   5.168
  819SOL     OW 7155   1.334   2.864   0.046
  819SOL    HW1 7156   1.325   2.959   0.015
  819SOL    HW2 7157   1.363   2.806   6.827
  820SOL     OW 7158   3.462   2.236   1.581
  820SOL    HW1 7159   3.505   2.317   1.540
  820SOL    HW2 7160   3.372   2.223   1.540
  821SOL     OW 7161   5.044   4.371   0.002
  821SOL    HW1 7162   5.070   4.384   6.763
  821SOL    HW2 7163   5.014   4.458   0.040
  822SOL     OW 7164   0.575   2.306   1.248
  822SOL    HW1 7165   0.650   2.312   1.183
  822SOL    HW2 7166   0.597   2.239   1.319
  823SOL     OW 7167   0.788   0.266   1.495
  823SOL    HW1 7168   0.779   0.176   1.538
  823SOL    HW2 7169   0.725   0.331   1.539
  824SOL     OW 7170   0.069   0.321   1.691
  824SOL    HW1 7171   0.094   0.329   1.787
  824SOL    HW2 7172   0.152   0.328   1.634
  825SOL     OW 7173   4.777   3.638   0.413
  825SOL    HW1 7174   4.831   3.564   0.374
  825SOL    HW2 7175   4.725   3.684   0.340
  826SOL     OW 7176   2.103   5.247   1.385
  826SOL    HW1 7177   2.035   5.247   1.457
  826SOL    HW2 7178   2.194   5.264   1.424
  827SOL     OW 7179   1.761   5.330   5.924
  827SOL    HW1 7180   1.676   5.297   5.965
  827SOL    HW2 7181   1.740   5.381   5.840
  828SOL     OW 7182   1.005   5.394   0.647
  828SOL    HW1 7183   0.985   5.310   0.697
  828SOL    HW2 7184   0.988   5.473   0.706
  829SOL     OW 7185   1.175   4.710   4.959
  829SOL    HW1 7186   1.234   4.634   4.933
  829SOL    HW2 7187   1.119   4.683   5.038
  830SOL     OW 7188   4.998   2.063   1.703
  830SOL    HW1 7189   5.066   2.031   1.769
  830SOL    HW2 7190   4.973   1.988   1.642
  831SOL     OW 7191   3.398   0.991   2.184
  831SOL    HW1 7192   3.314   0.950   2.148
  831SOL    HW2 7193   3.471   0.983   2.117
  832SOL     OW 7194   5.465   2.588   6.282
  832SOL    HW1 7195   5.373   2.597   6.321
  832SOL    HW2 7196   5.521   2.666   6.310
  833SOL     OW 7197   0.353   4.777   1.702
  833SOL    HW1 7198   0.431   4.764   1.763
  833SOL    HW2 7199   0.334   4.691   1.654
  834SOL     OW 7200   0.471   5.147   0.319
  834SOL    HW1 7201   0.511   5.073   0.374
  834SOL    HW2 7202   0.542   5.212   0.294
  835SOL     OW 7203   1.504   5.592   1.861
  835SOL    HW1 7204   1.588   5.573   1.810
  835SOL    HW2 7205   1.521   5.582   1.959
  836SOL     OW 7206   1.914   2.310   6.231
  836SOL    HW1 7207   1.916   2.210   6.229
  836SOL    HW2 7208   2.007   2.344   6.247
  837SOL     OW 7209   5.038   1.963   1.305
  837SOL    HW1 7210   5.007   1.950   1.400
  837SOL    HW2 7211   5.047   1.875   1.260
  838SOL     OW 7212   3.303   5.506   0.114
  838SOL    HW1 7213   3.263   5.450   0.186
  838SOL    HW2 7214   3.314   5.600   0.146
  839SOL     OW 7215   3.709   1.518   6.468
  839SOL    HW1 7216   3.618   1.552   6.492
  839SOL    HW2 7217   3.773   1.540   6.542
  840SOL     OW 7218   2.922   3.284   0.257
  840SOL    HW1 7219   2.989   3.324   0.318
  840SOL    HW2 7220   2.927   3.328   0.167
  841SOL     OW 7221   4.805   0.803   5.079
  841SOL    HW1 7222   4.707   0.825   5.074
  841SOL    HW2 7223   4.821   0.711   5.043
  842SOL     OW 7224   4.927   2.197   1.196
  842SOL    HW1 7225   4.946   2.271   1.261
  842SOL    HW2 7226   4.969   2.112   1.229
  843SOL     OW 7227   2.848   4.164   0.015
  843SOL    HW1 7228   2.848   4.260   6.843
  843SOL    HW2 7229   2.783   4.152   0.090
  844SOL     OW 7230   1.515   0.854   1.501
  844SOL    HW1 7231   1.538   0.767   1.545
  844SOL    HW2 7232   1.555   0.929   1.552
  845SOL     OW 7233   2.331   2.679   6.691
  845SOL    HW1 7234   2.425   2.672   6.658
  845SOL    HW2 7235   2.268   2.647   6.620
  846SOL     OW 7236   1.181   4.863   0.092
  846SOL    HW1 7237   1.279   4.883   0.093
  846SOL    HW2 7238   1.130   4.947   0.075
  847SOL     OW 7239   4.796   4.216   6.574
  847SOL    HW1 7240   4.734   4.286   6.610
  847SOL    HW2 7241   4.839   4.250   6.490
  848SOL     OW 7242   1.830   3.817   1.011
  848SOL    HW1 7243   1.840   3.826   0.912
  848SOL    HW2 7244   1.825   3.720   1.035
  849SOL     OW 7245   4.599   3.341   0.696
  849SOL    HW1 7246   4.558   3.374   0.782
  849SOL    HW2 7247   4.675   3.279   0.717
  850SOL     OW 7248   2.312   1.365   0.836
  850SOL    HW1 7249   2.250   1.439   0.810
  850SOL    HW2 7250   2.277   1.278   0.802
  851SOL     OW 7251   0.909   2.409   1.784
  851SOL    HW1 7252   0.876   2.440   1.873
  851SOL    HW2 7253   1.001   2.373   1.793
  852SOL     OW 7254   5.671   2.562   6.093
  852SOL    HW1 7255   5.654   2.511   6.009
  852SOL    HW2 7256   5.589   2.560   6.150
  853SOL     OW 7257   4.393   0.524   5.824
  853SOL    HW1 7258   4.382   0.505   5.726
  853SOL    HW2 7259   4.485   0.498   5.852
  854SOL     OW 7260   0.596   2.570   0.142
  854SOL    HW1 7261   0.538   2.636   0.094
  854SOL    HW2 7262   0.691   2.584   0.115
  855SOL     OW 7263   4.498   5.164   1.528
  855SOL    HW1 7264   4.518   5.071   1.495
  855SOL    HW2 7265   4.583   5.210   1.551
  856SOL     OW 7266   2.021   4.103   6.120
  856SOL    HW1 7267   2.052   4.016   6.158
  856SOL    HW2 7268   2.050   4.111   6.025
  857SOL     OW 7269   3.683   1.691   6.047
  857SOL    HW1 7270   3.692   1.784   6.010
  857SOL    HW2 7271   3.751   1.677   6.118
  858SOL     OW 7272   3.213   4.890   5.808
  858SOL    HW1 7273   3.188   4.935   5.723
  858SOL    HW2 7274   3.143   4.823   5.834
  859SOL     OW 7275   5.407   1.564   0.975
  859SOL    HW1 7276   5.440   1.615   1.055
  859SOL    HW2 7277   5.456   1.595   0.894
  860SOL     OW 7278   2.215   1.569   0.170
  860SOL    HW1 7279   2.227   1.545   0.267
  860SOL    HW2 7280   2.118   1.586   0.152
  861SOL     OW 7281   0.047   1.749   6.338
  861SOL    HW1 7282   5.637   1.775   6.345
  861SOL    HW2 7283   0.083   1.728   6.429
  862SOL     OW 7284   0.414   3.843   0.682
  862SOL    HW1 7285   0.344   3.910   0.704
  862SOL    HW2 7286   0.499   3.890   0.657
  863SOL     OW 7287   2.370   1.727   0.673
  863SOL    HW1 7288   2.391   1.792   0.746
  863SOL    HW2 7289   2.296   1.666   0.703
  864SOL     OW 7290   4.699   3.234   6.225
  864SOL    HW1 7291   4.794   3.263   6.225
  864SOL    HW2 7292   4.640   3.312   6.202
  865SOL     OW 7293   5.513   4.509   6.746
  865SOL    HW1 7294   5.489   4.439   6.813
  865SOL    HW2 7295   5.496   4.600   6.786
  866SOL     OW 7296   2.355   5.149   5.767
  866SOL    HW1 7297   2.445   5.115   5.744
  866SOL    HW2 7298   2.290   5.126   5.694
  867SOL     OW 7299   4.798   1.996   5.821
  867SOL    HW1 7300   4.756   1.918   5.774
  867SOL    HW2 7301   4.836   2.059   5.754
  868SOL     OW 7302   0.651   3.768   1.923
  868SOL    HW1 7303   0.556   3.737   1.932
  868SOL    HW2 7304   0.654   3.867   1.932
  869SOL     OW 7305   0.135   1.605   6.127
  869SOL    HW1 7306   0.101   1.656   6.206
  869SOL    HW2 7307   0.063   1.597   6.058
  870SOL     OW 7308   0.054   3.265   0.084
  870SOL    HW1 7309   0.128   3.326   0.058
  870SOL    HW2 7310   5.653   3.315   0.084
  871SOL     OW 7311   5.652   4.887   1.730
  871SOL    HW1 7312   5.565   4.934   1.715
  871SOL    HW2 7313   0.020   4.888   1.646
  872SOL     OW 7314   0.350   5.586   1.460
  872SOL    HW1 7315   0.383   0.009   1.550
  872SOL    HW2 7316   0.254   5.562   1.466
  873SOL     OW 7317   2.326   0.394   0.306
  873SOL    HW1 7318   2.394   0.404   0.379
  873SOL    HW2 7319   2.262   0.320   0.331
  874SOL     OW 7320   4.944   1.723   1.007
  874SOL    HW1 7321   4.994   1.720   1.094
  874SOL    HW2 7322   4.920   1.630   0.979
  875SOL     OW 7323   2.710   0.563   0.957
  875SOL    HW1 7324   2.667   0.646   0.991
  875SOL    HW2 7325   2.668   0.483   1.000
  876SOL     OW 7326   3.097   2.957   0.493
  876SOL    HW1 7327   3.031   2.910   0.434
  876SOL    HW2 7328   3.062   3.048   0.517
  877SOL     OW 7329   4.511   3.416   1.472
  877SOL    HW1 7330   4.480   3.324   1.492
  877SOL    HW2 7331   4.554   3.455   1.553
  878SOL     OW 7332   0.186   3.571   5.504
  878SOL    HW1 7333   0.103   3.622   5.483
  878SOL    HW2 7334   0.166   3.473   5.508
  879SOL     OW 7335   0.083   5.036   5.886
  879SOL    HW1 7336   0.079   5.136   5.877
  879SOL    HW2 7337   5.682   5.002   5.923
  880SOL     OW 7338   2.012   4.724   1.816
  880SOL    HW1 7339   2.066   4.793   1.863
  880SOL    HW2 7340   1.997   4.646   1.876
  881SOL     OW 7341   0.038   3.485   1.205
  881SOL    HW1 7342   5.676   3.400   1.180
  881SOL    HW2 7343   0.122   3.463   1.253
  882SOL     OW 7344   3.366   5.042   5.999
  882SOL    HW1 7345   3.316   4.990   5.930
  882SOL    HW2 7346   3.446   4.989   6.029
  883SOL     OW 7347   4.264   2.040   1.864
  883SOL    HW1 7348   4.227   1.959   1.819
  883SOL    HW2 7349   4.221   2.122   1.827
  884SOL     OW 7350   2.849   5.192   0.491
  884SOL    HW1 7351   2.904   5.131   0.435
  884SOL    HW2 7352   2.840   5.155   0.583
  885SOL     OW 7353   1.053   2.735   1.457
  885SOL    HW1 7354   1.051   2.831   1.485
  885SOL    HW2 7355   1.144   2.712   1.423
  886SOL     OW 7356   0.915   5.323   5.718
  886SOL    HW1 7357   0.979   5.386   5.674
  886SOL    HW2 7358   0.875   5.263   5.649
  887SOL     OW 7359   2.045   3.621   1.718
  887SOL    HW1 7360   2.047   3.540   1.778
  887SOL    HW2 7361   2.063   3.702   1.773
  888SOL     OW 7362   3.929   5.079   0.066
  888SOL    HW1 7363   3.867   5.061   6.846
  888SOL    HW2 7364   3.955   5.176   0.065
  889SOL     OW 7365   5.610   0.307   6.050
  889SOL    HW1 7366   5.541   0.278   6.116
  889SOL    HW2 7367   0.015   0.282   6.083
  890SOL     OW 7368   1.808   5.031   0.959
  890SOL    HW1 7369   1.744   4.960   0.987
  890SOL    HW2 7370   1.823   5.025   0.860
  891SOL     OW 7371   1.609   0.708   6.582
  891SOL    HW1 7372   1.624   0.609   6.575
  891SOL    HW2 7373   1.534   0.735   6.523
  892SOL     OW 7374   3.132   4.617   0.935
  892SOL    HW1 7375   3.101   4.551   1.003
  892SOL    HW2 7376   3.149   4.705   0.979
  893SOL     OW 7377   3.519   3.235   6.486
  893SOL    HW1 7378   3.532   3.209   6.582
  893SOL    HW2 7379   3.563   3.168   6.427
  894SOL     OW 7380   4.960   0.196   0.579
  894SOL    HW1 7381   4.981   0.136   0.656
  894SOL    HW2 7382   5.039   0.199   0.518
  895SOL     OW 7383   5.584   4.313   0.785
  895SOL    HW1 7384   5.528   4.231   0.793
  895SOL    HW2 7385   5.634   4.311   0.698
  896SOL     OW 7386   2.792   5.304   0.865
  896SOL    HW1 7387   2.825   5.219   0.826
  896SOL    HW2 7388   2.692   5.310   0.855
  897SOL     OW 7389   3.916   1.045   0.938
  897SOL    HW1 7390   3.852   1.094   0.878
  897SOL    HW2 7391   4.009   1.082   0.924
  898SOL     OW 7392   5.505   3.405   0.156
  898SOL    HW1 7393   5.486   3.309   0.178
  898SOL    HW2 7394   5.438   3.438   0.089
  899SOL     OW 7395   5.535   2.935   6.131
  899SOL    HW1 7396   5.591   2.939   6.049
  899SOL    HW2 7397   5.580   2.878   6.200
  900SOL     OW 7398   2.577   1.306   0.810
  900SOL    HW1 7399   2.620   1.315   0.900
  900SOL    HW2 7400   2.481   1.333   0.816
  901SOL     OW 7401   3.014   3.726   6.608
  901SOL    HW1 7402   2.968   3.751   6.523
  901SOL    HW2 7403   2.949   3.727   6.683
  902SOL     OW 7404   3.400   0.152   0.470
  902SOL    HW1 7405   3.492   0.148   0.509
  902SOL    HW2 7406   3.341   0.207   0.530
  903SOL     OW 7407   1.953   0.963   6.639
  903SOL    HW1 7408   1.999   1.016   6.567
  903SOL    HW2 7409   2.001   0.977   6.726
  904SOL     OW 7410   0.018   2.950   5.909
  904SOL    HW1 7411   0.116   2.932   5.918
  904SOL    HW2 7412   0.004   3.025   5.844
  905SOL     OW 7413   1.253   1.611   0.822
  905SOL    HW1 7414   1.193   1.565   0.889
  905SOL    HW2 7415   1.240   1.710   0.828
  906SOL     OW 7416   2.942   1.958   0.892
  906SOL    HW1 7417   2.881   1.893   0.846
  906SOL    HW2 7418   2.897   2.048   0.897
  907SOL     OW 7419   1.562   1.679   1.650
  907SOL    HW1 7420   1.496   1.752   1.634
  907SOL    HW2 7421   1.639   1.715   1.703
  908SOL     OW 7422   4.560   4.633   1.469
  908SOL    HW1 7423   4.566   4.540   1.506
  908SOL    HW2 7424   4.521   4.629   1.377
  909SOL     OW 7425   4.060   4.278   6.408
  909SOL    HW1 7426   3.966   4.255   6.381
  909SOL    HW2 7427   4.070   4.377   6.410
  910SOL     OW 7428   5.475   0.084   1.736
  910SOL    HW1 7429   5.487   0.163   1.676
  910SOL    HW2 7430   5.471   0.114   1.831
  911SOL     OW 7431   1.042   3.647   1.858
  911SOL    HW1 7432   1.106   3.713   1.899
  911SOL    HW2 7433   0.964   3.633   1.919
  912SOL     OW 7434   3.346   1.341   5.935
  912SOL    HW1 7435   3.374   1.417   5.877
  912SOL    HW2 7436   3.247   1.344   5.947
  913SOL     OW 7437   5.343   3.201   1.062
  913SOL    HW1 7438   5.263   3.190   1.121
  913SOL    HW2 7439   5.323   3.266   0.989
  914SOL     OW 7440   0.832   1.082   0.120
  914SOL    HW1 7441   0.926   1.053   0.099
  914SOL    HW2 7442   0.773   1.064   0.041
  915SOL     OW 7443   5.193   5.094   1.340
  915SOL    HW1 7444   5.193   5.124   1.435
  915SOL    HW2 7445   5.265   5.142   1.290
  916SOL     OW 7446   3.035   4.683   5.869
  916SOL    HW1 7447   2.990   4.620   5.806
  916SOL    HW2 7448   3.113   4.637   5.911
  917SOL     OW 7449   3.663   2.692   1.114
  917SOL    HW1 7450   3.700   2.673   1.205
  917SOL    HW2 7451   3.734   2.677   1.045
  918SOL     OW 7452   1.301   3.235   6.593
  918SOL    HW1 7453   1.390   3.212   6.553
  918SOL    HW2 7454   1.228   3.191   6.540
  919SOL     OW 7455   3.252   2.228   5.671
  919SOL    HW1 7456   3.294   2.319   5.668
  919SOL    HW2 7457   3.157   2.236   5.701
  920SOL     OW 7458   2.784   5.495   1.061
  920SOL    HW1 7459   2.787   5.427   0.988
  920SOL    HW2 7460   2.854   5.475   1.129
  921SOL     OW 7461   4.525   0.829   0.142
  921SOL    HW1 7462   4.581   0.756   0.180
  921SOL    HW2 7463   4.479   0.878   0.216
  922SOL     OW 7464   5.399   0.690   0.794
  922SOL    HW1 7465   5.394   0.608   0.737
  922SOL    HW2 7466   5.360   0.768   0.745
  923SOL     OW 7467   5.352   3.570   1.191
  923SOL    HW1 7468   5.261   3.552   1.154
  923SOL    HW2 7469   5.375   3.499   1.258
  924SOL     OW 7470   3.968   2.267   5.514
  924SOL    HW1 7471   3.994   2.241   5.421
  924SOL    HW2 7472   4.018   2.349   5.541
  925SOL     OW 7473   2.043   0.901   5.246
  925SOL    HW1 7474   2.042   0.857   5.157
  925SOL    HW2 7475   2.051   1.000   5.235
  926SOL     OW 7476   5.179   1.139   1.398
  926SOL    HW1 7477   5.223   1.203   1.460
  926SOL    HW2 7478   5.102   1.184   1.353
  927SOL     OW 7479   2.912   2.763   6.464
  927SOL    HW1 7480   3.008   2.746   6.442
  927SOL    HW2 7481   2.887   2.856   6.436
  928SOL     OW 7482   0.225   5.314   0.601
  928SOL    HW1 7483   0.200   5.367   0.682
  928SOL    HW2 7484   0.147   5.261   0.570
  929SOL     OW 7485   0.711   3.249   6.716
  929SOL    HW1 7486   0.811   3.240   6.722
  929SOL    HW2 7487   0.675   3.272   6.806
  930SOL     OW 7488   5.129   2.907   5.992
  930SOL    HW1 7489   5.058   2.906   5.922
  930SOL    HW2 7490   5.167   3.000   6.000
  931SOL     OW 7491   3.910   2.133   0.608
  931SOL    HW1 7492   3.881   2.038   0.607
  931SOL    HW2 7493   3.830   2.193   0.610
  932SOL     OW 7494   3.285   3.598   0.705
  932SOL    HW1 7495   3.247   3.661   0.638
  932SOL    HW2 7496   3.382   3.584   0.686
  933SOL     OW 7497   2.525   4.326   6.078
  933SOL    HW1 7498   2.523   4.421   6.046
  933SOL    HW2 7499   2.613   4.285   6.055
  934SOL     OW 7500   0.610   0.660   1.140
  934SOL    HW1 7501   0.668   0.581   1.121
  934SOL    HW2 7502   0.572   0.653   1.232
  935SOL     OW 7503   0.080   2.630   6.658
  935SOL    HW1 7504   5.668   2.643   6.644
  935SOL    HW2 7505   0.095   2.583   6.745
  936SOL     OW 7506   4.154   3.254   1.489
  936SOL    HW1 7507   4.076   3.220   1.543
  936SOL    HW2 7508   4.147   3.219   1.396
  937SOL     OW 7509   4.137   2.641   5.795
  937SOL    HW1 7510   4.131   2.736   5.764
  937SOL    HW2 7511   4.230   2.623   5.829
  938SOL     OW 7512   2.767   3.314   0.565
  938SOL    HW1 7513   2.709   3.302   0.645
  938SOL    HW2 7514   2.798   3.409   0.560
  939SOL     OW 7515   0.418   5.215   0.779
  939SOL    HW1 7516   0.473   5.290   0.816
  939SOL    HW2 7517   0.364   5.248   0.702
  940SOL     OW 7518   5.252   4.511   6.264
  940SOL    HW1 7519   5.288   4.513   6.357
  940SOL    HW2 7520   5.328   4.508   6.199
  941SOL     OW 7521   5.252   3.632   1.658
  941SOL    HW1 7522   5.350   3.645   1.646
  941SOL    HW2 7523   5.230   3.535   1.656
  942SOL     OW 7524   0.581   0.705   0.868
  942SOL    HW1 7525   0.626   0.793   0.854
  942SOL    HW2 7526   0.575   0.687   0.966
  943SOL     OW 7527   0.969   4.063   0.123
  943SOL    HW1 7528   0.870   4.076   0.125
  943SOL    HW2 7529   1.009   4.106   0.204
  944SOL     OW 7530   1.521   4.415   6.168
  944SOL    HW1 7531   1.613   4.452   6.177
  944SOL    HW2 7532   1.491   4.378   6.256
  945SOL     OW 7533   1.829   2.816   6.602
  945SOL    HW1 7534   1.832   2.816   6.502
  945SOL    HW2 7535   1.905   2.870   6.638
  946SOL     OW 7536   4.453   1.002   5.630
  946SOL    HW1 7537   4.499   1.056   5.559
  946SOL    HW2 7538   4.451   0.906   5.603
  947SOL     OW 7539   1.456   3.811   0.856
  947SOL    HW1 7540   1.407   3.860   0.928
  947SOL    HW2 7541   1.494   3.726   0.893
  948SOL     OW 7542   3.606   2.572   0.581
  948SOL    HW1 7543   3.581   2.559   0.485
  948SOL    HW2 7544   3.524   2.591   0.635
  949SOL     OW 7545   2.910   0.026   0.164
  949SOL    HW1 7546   2.917   5.570   0.242
  949SOL    HW2 7547   2.814   0.030   0.134
  950SOL     OW 7548   3.529   0.157   6.342
  950SOL    HW1 7549   3.432   0.155   6.368
  950SOL    HW2 7550   3.536   0.156   6.242
  951SOL     OW 7551   0.920   3.869   1.292
  951SOL    HW1 7552   0.925   3.963   1.257
  951SOL    HW2 7553   1.005   3.845   1.337
  952SOL     OW 7554   0.595   3.231   0.344
  952SOL    HW1 7555   0.500   3.202   0.340
  952SOL    HW2 7556   0.623   3.267   0.255
  953SOL     OW 7557   0.659   4.046   1.961
  953SOL    HW1 7558   0.722   4.069   2.035
  953SOL    HW2 7559   0.707   4.047   1.874
  954SOL     OW 7560   0.412   3.011   6.111
  954SOL    HW1 7561   0.362   2.992   6.027
  954SOL    HW2 7562   0.422   2.926   6.164
  955SOL     OW 7563   4.226   3.900   1.205
  955SOL    HW1 7564   4.206   3.815   1.158
  955SOL    HW2 7565   4.293   3.953   1.153
  956SOL     OW 7566   4.417   4.919   6.380
  956SOL    HW1 7567   4.451   4.960   6.296
  956SOL    HW2 7568   4.324   4.950   6.398
  957SOL     OW 7569   2.577   5.017   5.654
  957SOL    HW1 7570   2.555   5.021   5.557
  957SOL    HW2 7571   2.676   5.006   5.665
  958SOL     OW 7572   0.813   2.228   6.258
  958SOL    HW1 7573   0.748   2.152   6.261
  958SOL    HW2 7574   0.763   2.315   6.263
  959SOL     OW 7575   2.600   3.668   6.075
  959SOL    HW1 7576   2.531   3.604   6.109
  959SOL    HW2 7577   2.568   3.710   5.990
  960SOL     OW 7578   1.921   1.637   6.724
  960SOL    HW1 7579   1.889   1.712   6.665
  960SOL    HW2 7580   1.999   1.592   6.682
  961SOL     OW 7581   3.174   3.929   1.192
  961SOL    HW1 7582   3.235   3.958   1.117
  961SOL    HW2 7583   3.222   3.939   1.279
  962SOL     OW 7584   5.339   4.826   0.600
  962SOL    HW1 7585   5.376   4.813   0.692
  962SOL    HW2 7586   5.239   4.829   0.603
  963SOL     OW 7587   0.401   1.550   0.347
  963SOL    HW1 7588   0.447   1.466   0.376
  963SOL    HW2 7589   0.457   1.629   0.371
  964SOL     OW 7590   4.500   1.504   1.065
  964SOL    HW1 7591   4.543   1.513   0.975
  964SOL    HW2 7592   4.436   1.427   1.064
  965SOL     OW 7593   0.179   1.085   1.873
  965SOL    HW1 7594   0.094   1.079   1.926
  965SOL    HW2 7595   0.245   1.142   1.922
  966SOL     OW 7596   1.533   3.368   0.033
  966SOL    HW1 7597   1.475   3.443   0.065
  966SOL    HW2 7598   1.568   3.317   0.111
  967SOL     OW 7599   3.393   0.169   0.980
  967SOL    HW1 7600   3.372   0.179   1.078
  967SOL    HW2 7601   3.317   0.123   0.935
  968SOL     OW 7602   2.906   2.059   0.390
  968SOL    HW1 7603   2.966   1.988   0.428
  968SOL    HW2 7604   2.811   2.037   0.412
  969SOL     OW 7605   0.530   0.363   0.388
  969SOL    HW1 7606   0.628   0.377   0.403
  969SOL    HW2 7607   0.511   0.362   0.290
  970SOL     OW 7608   2.193   4.152   0.968
  970SOL    HW1 7609   2.155   4.068   1.007
  970SOL    HW2 7610   2.263   4.188   1.029
  971SOL     OW 7611   0.264   4.934   1.266
  971SOL    HW1 7612   0.331   4.860   1.255
  971SOL    HW2 7613   0.205   4.937   1.185
  972SOL     OW 7614   2.520   4.725   1.504
  972SOL    HW1 7615   2.483   4.696   1.593
  972SOL    HW2 7616   2.446   4.765   1.449
  973SOL     OW 7617   3.382   4.547   1.378
  973SOL    HW1 7618   3.479   4.555   1.401
  973SOL    HW2 7619   3.339   4.478   1.437
  974SOL     OW 7620   1.101   4.480   1.018
  974SOL    HW1 7621   1.143   4.432   0.940
  974SOL    HW2 7622   1.029   4.423   1.057
  975SOL     OW 7623   1.996   4.296   0.363
  975SOL    HW1 7624   1.948   4.209   0.378
  975SOL    HW2 7625   2.066   4.284   0.293
  976SOL     OW 7626   2.087   3.910   1.045
  976SOL    HW1 7627   1.990   3.887   1.048
  976SOL    HW2 7628   2.126   3.879   0.958
  977SOL     OW 7629   4.850   4.167   0.459
  977SOL    HW1 7630   4.926   4.215   0.503
  977SOL    HW2 7631   4.886   4.091   0.405
  978SOL     OW 7632   3.344   4.898   1.437
  978SOL    HW1 7633   3.434   4.886   1.479
  978SOL    HW2 7634   3.303   4.809   1.420
  979SOL     OW 7635   3.096   5.345   5.151
  979SOL    HW1 7636   3.074   5.248   5.140
  979SOL    HW2 7637   3.171   5.369   5.088
  980SOL     OW 7638   0.676   1.056   6.755
  980SOL    HW1 7639   0.614   1.124   6.717
  980SOL    HW2 7640   0.623   0.976   6.785
  981SOL     OW 7641   2.845   1.057   5.883
  981SOL    HW1 7642   2.867   1.096   5.794
  981SOL    HW2 7643   2.919   0.997   5.913
  982SOL     OW 7644   3.386   4.386   6.119
  982SOL    HW1 7645   3.400   4.295   6.080
  982SOL    HW2 7646   3.470   4.439   6.110
  983SOL     OW 7647   1.665   1.145   0.793
  983SOL    HW1 7648   1.584   1.148   0.851
  983SOL    HW2 7649   1.729   1.077   0.829
  984SOL     OW 7650   2.912   1.329   0.581
  984SOL    HW1 7651   2.817   1.353   0.561
  984SOL    HW2 7652   2.915   1.248   0.639
  985SOL     OW 7653   2.845   0.896   6.597
  985SOL    HW1 7654   2.818   0.975   6.652
  985SOL    HW2 7655   2.937   0.866   6.623
  986SOL     OW 7656   1.093   3.113   6.467
  986SOL    HW1 7657   1.078   3.093   6.370
  986SOL    HW2 7658   1.088   3.028   6.520
  987SOL     OW 7659   5.621   5.473   5.073
  987SOL    HW1 7660   5.641   5.383   5.034
  987SOL    HW2 7661   5.668   5.543   5.019
  988SOL     OW 7662   3.368   1.672   1.574
  988SOL    HW1 7663   3.281   1.673   1.525
  988SOL    HW2 7664   3.423   1.595   1.540
  989SOL     OW 7665   2.167   0.890   5.662
  989SOL    HW1 7666   2.217   0.969   5.627
  989SOL    HW2 7667   2.120   0.844   5.587
  990SOL     OW 7668   2.151   2.756   5.979
  990SOL    HW1 7669   2.181   2.792   5.890
  990SOL    HW2 7670   2.057   2.784   5.996
  991SOL     OW 7671   0.260   1.001   1.620
  991SOL    HW1 7672   0.240   1.027   1.715
  991SOL    HW2 7673   0.180   1.020   1.563
  992SOL     OW 7674   5.546   4.115   0.462
  992SOL    HW1 7675   5.586   4.059   0.389
  992SOL    HW2 7676   5.502   4.056   0.529
  993SOL     OW 7677   0.097   1.778   0.020
  993SOL    HW1 7678   0.120   1.682   0.034
  993SOL    HW2 7679   0.181   1.832   0.018
  994SOL     OW 7680   4.233   5.130   1.524
  994SOL    HW1 7681   4.222   5.036   1.555
  994SOL    HW2 7682   4.330   5.154   1.524
  995SOL     OW 7683   1.881   4.484   0.187
  995SOL    HW1 7684   1.910   4.426   0.263
  995SOL    HW2 7685   1.863   4.576   0.221
  996SOL     OW 7686   3.729   2.650   0.021
  996SOL    HW1 7687   3.691   2.724   0.077
  996SOL    HW2 7688   3.810   2.683   6.831
  997SOL     OW 7689   0.948   1.773   0.219
  997SOL    HW1 7690   1.004   1.846   0.179
  997SOL    HW2 7691   1.007   1.698   0.250
  998SOL     OW 7692   5.580   1.549   0.328
  998SOL    HW1 7693   5.670   1.513   0.305
  998SOL    HW2 7694   5.532   1.577   0.245
  999SOL     OW 7695   4.480   2.961   1.704
  999SOL    HW1 7696   4.562   2.953   1.760
  999SOL    HW2 7697   4.455   2.870   1.669
 1000SOL     OW 7698   3.451   3.265   6.011
 1000SOL    HW1 7699   3.415   3.254   5.918
 1000SOL    HW2 7700   3.401   3.337   6.058
 1001SOL     OW 7701   2.250   3.335   0.017
 1001SOL    HW1 7702   2.222   3.286   6.792
 1001SOL    HW2 7703   2.249   3.434   6.857
 1002SOL     OW 7704   1.982   0.896   0.509
 1002SOL    HW1 7705   2.010   0.984   0.548
 1002SOL    HW2 7706   1.903   0.861   0.559
 1003SOL     OW 7707   3.183   4.926   6.421
 1003SOL    HW1 7708   3.187   4.976   6.334
 1003SOL    HW2 7709   3.161   4.990   6.495
 1004SOL     OW 7710   2.905   4.107   0.620
 1004SOL    HW1 7711   2.980   4.173   0.620
 1004SOL    HW2 7712   2.879   4.085   0.714
 1005SOL     OW 7713   3.334   1.898   0.130
 1005SOL    HW1 7714   3.285   1.953   0.062
 1005SOL    HW2 7715   3.268   1.857   0.193
 1006SOL     OW 7716   5.573   1.965   6.143
 1006SOL    HW1 7717   5.611   2.056   6.162
 1006SOL    HW2 7718   5.548   1.921   6.229
 1007SOL     OW 7719   2.151   3.352   0.277
 1007SOL    HW1 7720   2.216   3.311   0.341
 1007SOL    HW2 7721   2.188   3.347   0.184
 1008SOL     OW 7722   0.134   2.253   5.413
 1008SOL    HW1 7723   0.123   2.352   5.425
 1008SOL    HW2 7724   0.201   2.219   5.478
 1009SOL     OW 7725   0.014   4.938   6.246
 1009SOL    HW1 7726   0.071   5.018   6.225
 1009SOL    HW2 7727   0.067   4.855   6.227
 1010SOL     OW 7728   3.733   2.046   0.374
 1010SOL    HW1 7729   3.764   1.971   0.433
 1010SOL    HW2 7730   3.650   2.087   0.413
 1011SOL     OW 7731   5.243   1.026   1.148
 1011SOL    HW1 7732   5.322   1.057   1.096
 1011SOL    HW2 7733   5.236   1.077   1.234
 1012SOL     OW 7734   4.106   4.544   6.407
 1012SOL    HW1 7735   4.148   4.587   6.487
 1012SOL    HW2 7736   4.146   4.581   6.323
 1013SOL     OW 7737   4.048   4.198   2.036
 1013SOL    HW1 7738   4.103   4.215   2.118
 1013SOL    HW2 7739   4.013   4.285   2.001
 1014SOL     OW 7740   5.450   5.226   6.151
 1014SOL    HW1 7741   5.380   5.298   6.153
 1014SOL    HW2 7742   5.483   5.209   6.243
 1015SOL     OW 7743   4.067   5.224   1.881
 1015SOL    HW1 7744   3.996   5.153   1.890
 1015SOL    HW2 7745   4.139   5.208   1.948
 1016SOL     OW 7746   1.422   5.101   0.675
 1016SOL    HW1 7747   1.340   5.063   0.718
 1016SOL    HW2 7748   1.397   5.139   0.586
 1017SOL     OW 7749   5.647   1.907   0.245
 1017SOL    HW1 7750   5.549   1.911   0.224
 1017SOL    HW2 7751   0.009   1.860   0.171
 1018SOL     OW 7752   0.851   1.335   6.328
 1018SOL    HW1 7753   0.806   1.246   6.329
 1018SOL    HW2 7754   0.785   1.406   6.355
 1019SOL     OW 7755   1.460   3.643   5.916
 1019SOL    HW1 7756   1.436   3.647   6.013
 1019SOL    HW2 7757   1.553   3.608   5.906
 1020SOL     OW 7758   2.744   5.172   6.252
 1020SOL    HW1 7759   2.794   5.130   6.329
 1020SOL    HW2 7760   2.720   5.101   6.186
 1021SOL     OW 7761   2.084   5.480   6.362
 1021SOL    HW1 7762   2.033   5.394   6.352
 1021SOL    HW2 7763   2.030   5.555   6.324
 1022SOL     OW 7764   2.352   2.742   0.808
 1022SOL    HW1 7765   2.431   2.684   0.791
 1022SOL    HW2 7766   2.308   2.766   0.721
 1023SOL     OW 7767   4.008   3.717   6.188
 1023SOL    HW1 7768   3.971   3.789   6.246
 1023SOL    HW2 7769   4.063   3.758   6.115
 1024SOL     OW 7770   2.042   4.845   6.636
 1024SOL    HW1 7771   2.064   4.792   6.554
 1024SOL    HW2 7772   2.019   4.783   6.711
 1025SOL     OW 7773   3.136   0.451   0.417
 1025SOL    HW1 7774   3.082   0.403   0.347
 1025SOL    HW2 7775   3.164   0.386   0.487
 1026SOL     OW 7776   3.254   4.799   0.539
 1026SOL    HW1 7777   3.284   4.732   0.607
 1026SOL    HW2 7778   3.159   4.780   0.515
 1027SOL     OW 7779   4.401   2.861   1.196
 1027SOL    HW1 7780   4.451   2.776   1.213
 1027SOL    HW2 7781   4.319   2.863   1.252
 1028SOL     OW 7782   5.396   4.141   6.545
 1028SOL    HW1 7783   5.303   4.155   6.513
 1028SOL    HW2 7784   5.393   4.091   6.632
 1029SOL     OW 7785   0.966   3.338   6.565
 1029SOL    HW1 7786   1.004   3.252   6.529
 1029SOL    HW2 7787   1.038   3.388   6.612
 1030SOL     OW 7788   1.089   3.838   0.027
 1030SOL    HW1 7789   1.157   3.803   0.092
 1030SOL    HW2 7790   1.043   3.918   0.066
 1031SOL     OW 7791   0.683   1.541   6.381
 1031SOL    HW1 7792   0.664   1.566   6.286
 1031SOL    HW2 7793   0.643   1.609   6.443
 1032SOL     OW 7794   2.618   0.793   6.159
 1032SOL    HW1 7795   2.653   0.789   6.253
 1032SOL    HW2 7796   2.614   0.888   6.129
 1033SOL     OW 7797   2.346   4.535   6.826
 1033SOL    HW1 7798   2.396   4.616   6.795
 1033SOL    HW2 7799   2.298   4.556   0.053
 1034SOL     OW 7800   5.355   1.152   6.509
 1034SOL    HW1 7801   5.260   1.128   6.526
 1034SOL    HW2 7802   5.398   1.082   6.452
 1035SOL     OW 7803   3.852   3.353   1.193
 1035SOL    HW1 7804   3.863   3.343   1.094
 1035SOL    HW2 7805   3.831   3.264   1.233
 1036SOL     OW 7806   1.125   0.683   5.930
 1036SOL    HW1 7807   1.177   0.675   5.845
 1036SOL    HW2 7808   1.107   0.780   5.948
 1037SOL     OW 7809   0.298   5.380   0.344
 1037SOL    HW1 7810   0.274   5.366   0.439
 1037SOL    HW2 7811   0.356   5.305   0.312
 1038SOL     OW 7812   0.099   2.966   0.834
 1038SOL    HW1 7813   0.102   3.049   0.778
 1038SOL    HW2 7814   0.095   2.992   0.931
 1039SOL     OW 7815   1.240   4.848   6.179
 1039SOL    HW1 7816   1.203   4.874   6.090
 1039SOL    HW2 7817   1.340   4.843   6.174
 1040SOL     OW 7818   0.773   3.756   1.650
 1040SOL    HW1 7819   0.737   3.731   1.739
 1040SOL    HW2 7820   0.849   3.695   1.626
 1041SOL     OW 7821   0.204   2.195   1.150
 1041SOL    HW1 7822   0.286   2.237   1.113
 1041SOL    HW2 7823   0.124   2.249   1.124
 1042SOL     OW 7824   0.575   4.224   0.408
 1042SOL    HW1 7825   0.556   4.322   0.406
 1042SOL    HW2 7826   0.506   4.178   0.463
 1043SOL     OW 7827   2.986   1.598   0.607
 1043SOL    HW1 7828   3.041   1.610   0.690
 1043SOL    HW2 7829   2.963   1.502   0.596
 1044SOL     OW 7830   3.561   3.216   1.328
 1044SOL    HW1 7831   3.516   3.167   1.403
 1044SOL    HW2 7832   3.646   3.169   1.305
 1045SOL     OW 7833   2.499   2.628   1.662
 1045SOL    HW1 7834   2.553   2.669   1.735
 1045SOL    HW2 7835   2.403   2.652   1.674
 1046SOL     OW 7836   0.835   2.821   6.019
 1046SOL    HW1 7837   0.916   2.808   6.076
 1046SOL    HW2 7838   0.786   2.903   6.049
 1047SOL     OW 7839   3.910   2.378   1.302
 1047SOL    HW1 7840   3.993   2.419   1.262
 1047SOL    HW2 7841   3.881   2.301   1.246
 1048SOL     OW 7842   3.807   1.663   0.871
 1048SOL    HW1 7843   3.859   1.744   0.898
 1048SOL    HW2 7844   3.713   1.672   0.904
 1049SOL     OW 7845   0.900   0.520   0.604
 1049SOL    HW1 7846   0.846   0.506   0.688
 1049SOL    HW2 7847   0.887   0.614   0.571
 1050SOL     OW 7848   1.019   3.848   6.481
 1050SOL    HW1 7849   0.958   3.894   6.545
 1050SOL    HW2 7850   0.966   3.788   6.421
 1051SOL     OW 7851   5.624   4.714   2.408
 1051SOL    HW1 7852   5.667   4.778   2.472
 1051SOL    HW2 7853   5.619   4.623   2.450
 1052SOL     OW 7854   4.807   3.235   6.565
 1052SOL    HW1 7855   4.749   3.168   6.521
 1052SOL    HW2 7856   4.903   3.213   6.546
 1053SOL     OW 7857   2.094   0.880   0.255
 1053SOL    HW1 7858   2.074   0.897   0.351
 1053SOL    HW2 7859   2.033   0.808   0.220
 1054SOL     OW 7860   4.640   1.820   0.746
 1054SOL    HW1 7861   4.600   1.909   0.769
 1054SOL    HW2 7862   4.734   1.833   0.715
 1055SOL     OW 7863   1.575   5.352   1.451
 1055SOL    HW1 7864   1.632   5.435   1.451
 1055SOL    HW2 7865   1.634   5.271   1.456
 1056SOL     OW 7866   3.572   4.648   6.767
 1056SOL    HW1 7867   3.591   4.651   6.669
 1056SOL    HW2 7868   3.533   4.736   6.796
 1057SOL     OW 7869   5.121   3.827   0.971
 1057SOL    HW1 7870   5.044   3.846   0.910
 1057SOL    HW2 7871   5.203   3.811   0.916
 1058SOL     OW 7872   4.975   2.993   0.467
 1058SOL    HW1 7873   4.933   2.959   0.551
 1058SOL    HW2 7874   5.060   3.040   0.489
 1059SOL     OW 7875   1.138   5.555   6.736
 1059SOL    HW1 7876   1.086   5.600   6.809
 1059SOL    HW2 7877   1.233   5.583   6.741
 1060SOL     OW 7878   4.664   4.439   6.684
 1060SOL    HW1 7879   4.581   4.488   6.658
 1060SOL    HW2 7880   4.745   4.492   6.656
 1061SOL     OW 7881   3.158   3.139   6.201
 1061SOL    HW1 7882   3.189   3.184   6.285
 1061SOL    HW2 7883   3.186   3.043   6.202
 1062SOL     OW 7884   5.069   4.919   0.270
 1062SOL    HW1 7885   5.080   4.819   0.270
 1062SOL    HW2 7886   5.140   4.961   0.326
 1063SOL     OW 7887   2.552   2.094   1.814
 1063SOL    HW1 7888   2.602   2.123   1.733
 1063SOL    HW2 7889   2.615   2.053   1.880
 1064SOL     OW 7890   4.592   4.786   5.770
 1064SOL    HW1 7891   4.687   4.760   5.754
 1064SOL    HW2 7892   4.580   4.813   5.866
 1065SOL     OW 7893   4.500   3.426   0.951
 1065SOL    HW1 7894   4.474   3.522   0.947
 1065SOL    HW2 7895   4.541   3.405   1.040
 1066SOL     OW 7896   3.976   1.478   0.205
 1066SOL    HW1 7897   3.888   1.483   0.252
 1066SOL    HW2 7898   3.983   1.391   0.156
 1067SOL     OW 7899   5.491   1.429   1.818
 1067SOL    HW1 7900   5.538   1.403   1.902
 1067SOL    HW2 7901   5.548   1.404   1.739
 1068SOL     OW 7902   4.169   2.889   5.677
 1068SOL    HW1 7903   4.139   2.872   5.584
 1068SOL    HW2 7904   4.266   2.914   5.677
 1069SOL     OW 7905   0.195   0.261   6.101
 1069SOL    HW1 7906   0.234   0.302   6.019
 1069SOL    HW2 7907   0.235   0.304   6.182
 1070SOL     OW 7908   4.698   4.885   5.373
 1070SOL    HW1 7909   4.674   4.804   5.320
 1070SOL    HW2 7910   4.755   4.946   5.318
 1071SOL     OW 7911   1.835   4.126   0.795
 1071SOL    HW1 7912   1.871   4.033   0.783
 1071SOL    HW2 7913   1.792   4.155   0.709
 1072SOL     OW 7914   1.765   2.200   6.543
 1072SOL    HW1 7915   1.707   2.194   6.624
 1072SOL    HW2 7916   1.708   2.201   6.461
 1073SOL     OW 7917   2.982   5.591   5.142
 1073SOL    HW1 7918   3.014   5.497   5.151
 1073SOL    HW2 7919   3.008   0.019   5.052
 1074SOL     OW 7920   0.534   4.885   5.954
 1074SOL    HW1 7921   0.568   4.950   6.022
 1074SOL    HW2 7922   0.435   4.876   5.964
 1075SOL     OW 7923   5.393   5.249   1.217
 1075SOL    HW1 7924   5.466   5.187   1.187
 1075SOL    HW2 7925   5.414   5.282   1.309
 1076SOL     OW 7926   1.863   0.538   5.821
 1076SOL    HW1 7927   1.852   0.628   5.779
 1076SOL    HW2 7928   1.901   0.474   5.753
 1077SOL     OW 7929   1.693   2.438   6.344
 1077SOL    HW1 7930   1.633   2.358   6.338
 1077SOL    HW2 7931   1.785   2.412   6.313
 1078SOL     OW 7932   4.186   1.949   1.366
 1078SOL    HW1 7933   4.156   2.044   1.354
 1078SOL    HW2 7934   4.158   1.916   1.456
 1079SOL     OW 7935   0.996   0.725   1.468
 1079SOL    HW1 7936   1.012   0.673   1.553
 1079SOL    HW2 7937   0.910   0.693   1.427
 1080SOL     OW 7938   5.126   2.691   1.318
 1080SOL    HW1 7939   5.147   2.694   1.416
 1080SOL    HW2 7940   5.202   2.651   1.269
 1081SOL     OW 7941   2.325   5.530   0.226
 1081SOL    HW1 7942   2.338   5.577   0.314
 1081SOL    HW2 7943   2.387   5.568   0.158
 1082SOL     OW 7944   2.742   2.195   1.629
 1082SOL    HW1 7945   2.675   2.213   1.558
 1082SOL    HW2 7946   2.756   2.277   1.684
 1083SOL     OW 7947   5.234   5.091   0.745
 1083SOL    HW1 7948   5.236   5.074   0.844
 1083SOL    HW2 7949   5.169   5.028   0.703
 1084SOL     OW 7950   1.296   5.405   0.602
 1084SOL    HW1 7951   1.348   5.442   0.679
 1084SOL    HW2 7952   1.198   5.413   0.620
 1085SOL     OW 7953   0.627   5.052   1.927
 1085SOL    HW1 7954   0.575   5.046   1.842
 1085SOL    HW2 7955   0.570   5.020   2.003
 1086SOL     OW 7956   0.733   1.094   6.341
 1086SOL    HW1 7957   0.771   1.031   6.408
 1086SOL    HW2 7958   0.635   1.106   6.358
 1087SOL     OW 7959   3.106   2.506   0.008
 1087SOL    HW1 7960   3.195   2.550   0.001
 1087SOL    HW2 7961   3.043   2.548   6.800
 1088SOL     OW 7962   2.964   5.398   6.289
 1088SOL    HW1 7963   2.891   5.358   6.344
 1088SOL    HW2 7964   2.978   5.343   6.207
 1089SOL     OW 7965   3.337   4.633   0.745
 1089SOL    HW1 7966   3.398   4.702   0.783
 1089SOL    HW2 7967   3.263   4.615   0.810
 1090SOL     OW 7968   2.023   0.447   0.984
 1090SOL    HW1 7969   2.083   0.464   0.906
 1090SOL    HW2 7970   2.073   0.394   1.053
 1091SOL     OW 7971   4.481   1.612   6.375
 1091SOL    HW1 7972   4.552   1.577   6.314
 1091SOL    HW2 7973   4.423   1.537   6.405
 1092SOL     OW 7974   2.170   3.818   0.804
 1092SOL    HW1 7975   2.222   3.851   0.725
 1092SOL    HW2 7976   2.173   3.719   0.807
 1093SOL     OW 7977   3.182   5.374   0.324
 1093SOL    HW1 7978   3.246   5.404   0.394
 1093SOL    HW2 7979   3.089   5.404   0.349
 1094SOL     OW 7980   0.687   1.300   5.903
 1094SOL    HW1 7981   0.721   1.209   5.882
 1094SOL    HW2 7982   0.740   1.368   5.851
 1095SOL     OW 7983   1.807   3.344   6.808
 1095SOL    HW1 7984   1.711   3.362   6.830
 1095SOL    HW2 7985   1.852   3.300   0.028
 1096SOL     OW 7986   3.440   2.545   1.055
 1096SOL    HW1 7987   3.525   2.593   1.075
 1096SOL    HW2 7988   3.371   2.611   1.023
 1097SOL     OW 7989   3.548   1.667   0.971
 1097SOL    HW1 7990   3.502   1.755   0.964
 1097SOL    HW2 7991   3.536   1.630   1.063
 1098SOL     OW 7992   2.845   4.419   6.784
 1098SOL    HW1 7993   2.799   4.471   6.712
 1098SOL    HW2 7994   2.881   4.483   6.852
 1099SOL     OW 7995   5.596   2.922   6.664
 1099SOL    HW1 7996   5.657   2.934   6.586
 1099SOL    HW2 7997   5.550   2.833   6.658
 1100SOL     OW 7998   3.826   1.770   5.763
 1100SOL    HW1 7999   3.872   1.742   5.679
 1100SOL    HW2 8000   3.727   1.756   5.753
 1101SOL     OW 8001   3.552   3.143   6.746
 1101SOL    HW1 8002   3.630   3.152   6.808
 1101SOL    HW2 8003   3.529   3.046   6.735
 1102SOL     OW 8004   0.886   4.837   0.763
 1102SOL    HW1 8005   0.955   4.798   0.825
 1102SOL    HW2 8006   0.894   4.936   0.762
 1103SOL     OW 8007   4.552   1.169   6.118
 1103SOL    HW1 8008   4.565   1.262   6.085
 1103SOL    HW2 8009   4.527   1.109   6.041
 1104SOL     OW 8010   4.026   0.079   6.084
 1104SOL    HW1 8011   3.981   0.130   6.011
 1104SOL    HW2 8012   3.996   5.591   6.082
 1105SOL     OW 8013   3.606   4.951   6.110
 1105SOL    HW1 8014   3.666   4.910   6.041
 1105SOL    HW2 8015   3.653   5.025   6.157
 1106SOL     OW 8016   0.127   4.683   6.187
 1106SOL    HW1 8017   0.096   4.599   6.143
 1106SOL    HW2 8018   0.221   4.672   6.217
 1107SOL     OW 8019   0.191   2.619   5.883
 1107SOL    HW1 8020   0.173   2.663   5.971
 1107SOL    HW2 8021   0.121   2.549   5.866
 1108SOL     OW 8022   5.482   2.672   6.641
 1108SOL    HW1 8023   5.477   2.604   6.715
 1108SOL    HW2 8024   5.404   2.661   6.579
 1109SOL     OW 8025   0.276   0.839   6.798
 1109SOL    HW1 8026   0.179   0.844   6.821
 1109SOL    HW2 8027   0.290   0.768   6.728
 1110SOL     OW 8028   0.403   2.356   1.027
 1110SOL    HW1 8029   0.453   2.386   0.945
 1110SOL    HW2 8030   0.468   2.335   1.100
 1111SOL     OW 8031   5.563   4.831   6.458
 1111SOL    HW1 8032   5.605   4.876   6.379
 1111SOL    HW2 8033   5.573   4.732   6.449
 1112SOL     OW 8034   0.051   5.267   5.346
 1112SOL    HW1 8035   0.111   5.246   5.269
 1112SOL    HW2 8036   5.645   5.286   5.312
 1113SOL     OW 8037   2.896   1.091   0.726
 1113SOL    HW1 8038   2.950   1.085   0.810
 1113SOL    HW2 8039   2.802   1.063   0.745
 1114SOL     OW 8040   4.223   2.548   5.317
 1114SOL    HW1 8041   4.235   2.643   5.290
 1114SOL    HW2 8042   4.196   2.494   5.237
 1115SOL     OW 8043   4.530   4.339   0.057
 1115SOL    HW1 8044   4.579   4.304   0.136
 1115SOL    HW2 8045   4.595   4.366   6.843
 1116SOL     OW 8046   4.900   5.119   0.364
 1116SOL    HW1 8047   4.951   5.042   0.324
 1116SOL    HW2 8048   4.916   5.121   0.462
 1117SOL     OW 8049   3.554   4.321   6.433
 1117SOL    HW1 8050   3.462   4.348   6.461
 1117SOL    HW2 8051   3.618   4.395   6.454
 1118SOL     OW 8052   4.255   0.713   0.376
 1118SOL    HW1 8053   4.257   0.692   0.473
 1118SOL    HW2 8054   4.317   0.790   0.357
 1119SOL     OW 8055   4.394   3.578   6.359
 1119SOL    HW1 8056   4.307   3.591   6.407
 1119SOL    HW2 8057   4.440   3.666   6.349
 1120SOL     OW 8058   0.478   4.489   0.372
 1120SOL    HW1 8059   0.517   4.576   0.402
 1120SOL    HW2 8060   0.504   4.471   0.277
 1121SOL     OW 8061   5.255   0.855   0.606
 1121SOL    HW1 8062   5.233   0.933   0.548
 1121SOL    HW2 8063   5.178   0.835   0.667
 1122SOL     OW 8064   3.088   0.524   1.793
 1122SOL    HW1 8065   3.012   0.468   1.824
 1122SOL    HW2 8066   3.162   0.465   1.761
 1123SOL     OW 8067   1.974   4.359   6.213
 1123SOL    HW1 8068   1.997   4.268   6.179
 1123SOL    HW2 8069   2.057   4.414   6.220
 1124SOL     OW 8070   1.309   1.365   0.282
 1124SOL    HW1 8071   1.245   1.441   0.289
 1124SOL    HW2 8072   1.403   1.401   0.279
 1125SOL     OW 8073   3.935   0.234   5.881
 1125SOL    HW1 8074   3.842   0.256   5.852
 1125SOL    HW2 8075   3.991   0.317   5.881
 1126SOL     OW 8076   4.667   4.037   1.679
 1126SOL    HW1 8077   4.664   4.119   1.736
 1126SOL    HW2 8078   4.650   4.062   1.584
 1127SOL     OW 8079   5.525   0.692   5.211
 1127SOL    HW1 8080   5.488   0.764   5.152
 1127SOL    HW2 8081   5.491   0.603   5.180
 1128SOL     OW 8082   2.908   5.268   0.154
 1128SOL    HW1 8083   2.916   5.333   0.230
 1128SOL    HW2 8084   2.997   5.226   0.136
 1129SOL     OW 8085   2.267   3.442   1.449
 1129SOL    HW1 8086   2.268   3.398   1.538
 1129SOL    HW2 8087   2.179   3.486   1.434
 1130SOL     OW 8088   3.831   5.359   0.955
 1130SOL    HW1 8089   3.812   5.359   1.053
 1130SOL    HW2 8090   3.930   5.357   0.940
 1131SOL     OW 8091   2.858   3.142   2.028
 1131SOL    HW1 8092   2.952   3.135   2.063
 1131SOL    HW2 8093   2.843   3.071   1.959
 1132SOL     OW 8094   4.060   2.826   5.431
 1132SOL    HW1 8095   4.139   2.821   5.369
 1132SOL    HW2 8096   3.992   2.758   5.404
 1133SOL     OW 8097   0.131   5.410   6.337
 1133SOL    HW1 8098   0.128   5.486   6.272
 1133SOL    HW2 8099   0.061   5.425   6.408
 1134SOL     OW 8100   0.477   1.052   0.331
 1134SOL    HW1 8101   0.405   0.990   0.364
 1134SOL    HW2 8102   0.566   1.012   0.351
 1135SOL     OW 8103   4.648   4.356   0.906
 1135SOL    HW1 8104   4.735   4.313   0.931
 1135SOL    HW2 8105   4.644   4.368   0.807
 1136SOL     OW 8106   1.674   2.263   5.556
 1136SOL    HW1 8107   1.712   2.344   5.513
 1136SOL    HW2 8108   1.665   2.190   5.488
 1137SOL     OW 8109   5.673   0.485   6.315
 1137SOL    HW1 8110   5.611   0.412   6.286
 1137SOL    HW2 8111   0.006   0.476   6.413
 1138SOL     OW 8112   0.640   3.915   1.136
 1138SOL    HW1 8113   0.616   3.848   1.207
 1138SOL    HW2 8114   0.654   4.004   1.178
 1139SOL     OW 8115   3.118   1.839   6.421
 1139SOL    HW1 8116   3.092   1.898   6.498
 1139SOL    HW2 8117   3.147   1.750   6.456
 1140SOL     OW 8118   1.431   3.843   0.576
 1140SOL    HW1 8119   1.457   3.837   0.673
 1140SOL    HW2 8120   1.514   3.843   0.520
 1141SOL     OW 8121   4.010   5.521   5.131
 1141SOL    HW1 8122   3.990   5.603   5.078
 1141SOL    HW2 8123   3.925   5.471   5.148
 1142SOL     OW 8124   3.668   4.584   1.388
 1142SOL    HW1 8125   3.681   4.497   1.340
 1142SOL    HW2 8126   3.701   4.659   1.331
 1143SOL     OW 8127   2.014   5.357   6.856
 1143SOL    HW1 8128   1.945   5.289   6.830
 1143SOL    HW2 8129   2.035   5.415   6.778
 1144SOL     OW 8130   2.365   2.320   0.446
 1144SOL    HW1 8131   2.417   2.276   0.372
 1144SOL    HW2 8132   2.282   2.361   0.408
 1145SOL     OW 8133   3.611   0.295   6.707
 1145SOL    HW1 8134   3.622   0.196   6.700
 1145SOL    HW2 8135   3.645   0.326   6.796
 1146SOL     OW 8136   3.668   1.965   6.758
 1146SOL    HW1 8137   3.718   1.886   6.795
 1146SOL    HW2 8138   3.726   2.016   6.695
 1147SOL     OW 8139   4.620   5.049   0.132
 1147SOL    HW1 8140   4.538   5.103   0.150
 1147SOL    HW2 8141   4.645   4.997   0.213
 1148SOL     OW 8142   1.940   0.887   6.118
 1148SOL    HW1 8143   1.949   0.928   6.028
 1148SOL    HW2 8144   2.008   0.814   6.128
 1149SOL     OW 8145   4.439   0.740   5.542
 1149SOL    HW1 8146   4.526   0.735   5.493
 1149SOL    HW2 8147   4.407   0.647   5.564
 1150SOL     OW 8148   1.680   5.155   0.171
 1150SOL    HW1 8149   1.767   5.111   0.147
 1150SOL    HW2 8150   1.626   5.094   0.229
 1151SOL     OW 8151   5.213   4.023   0.279
 1151SOL    HW1 8152   5.270   3.943   0.298
 1151SOL    HW2 8153   5.243   4.100   0.337
 1152SOL     OW 8154   1.502   1.536   0.716
 1152SOL    HW1 8155   1.566   1.520   0.792
 1152SOL    HW2 8156   1.414   1.565   0.753
 1153SOL     OW 8157   5.451   4.847   1.422
 1153SOL    HW1 8158   5.415   4.860   1.330
 1153SOL    HW2 8159   5.501   4.929   1.451
 1154SOL     OW 8160   2.156   0.684   6.112
 1154SOL    HW1 8161   2.141   0.683   6.013
 1154SOL    HW2 8162   2.247   0.648   6.132
 1155SOL     OW 8163   0.727   3.525   6.658
 1155SOL    HW1 8164   0.723   3.426   6.671
 1155SOL    HW2 8165   0.816   3.558   6.689
 1156SOL     OW 8166   3.116   5.501   5.989
 1156SOL    HW1 8167   3.106   5.406   6.020
 1156SOL    HW2 8168   3.029   5.531   5.950
 1157SOL     OW 8169   2.113   0.805   2.308
 1157SOL    HW1 8170   2.108   0.758   2.396
 1157SOL    HW2 8171   2.053   0.760   2.242
 1158SOL     OW 8172   1.403   4.888   1.141
 1158SOL    HW1 8173   1.305   4.905   1.146
 1158SOL    HW2 8174   1.449   4.930   1.219
 1159SOL     OW 8175   1.392   1.166   5.698
 1159SOL    HW1 8176   1.403   1.196   5.604
 1159SOL    HW2 8177   1.409   1.067   5.704
 1160SOL     OW 8178   3.022   2.763   5.763
 1160SOL    HW1 8179   3.022   2.728   5.669
 1160SOL    HW2 8180   2.931   2.797   5.786
 1161SOL     OW 8181   2.733   3.899   6.170
 1161SOL    HW1 8182   2.760   3.949   6.088
 1161SOL    HW2 8183   2.674   3.823   6.145
 1162SOL     OW 8184   5.421   2.247   1.623
 1162SOL    HW1 8185   5.424   2.245   1.524
 1162SOL    HW2 8186   5.357   2.317   1.654
 1163SOL     OW 8187   1.882   1.124   1.887
 1163SOL    HW1 8188   1.846   1.032   1.874
 1163SOL    HW2 8189   1.957   1.122   1.953
 1164SOL     OW 8190   4.244   0.746   4.974
 1164SOL    HW1 8191   4.247   0.721   4.878
 1164SOL    HW2 8192   4.153   0.780   4.998
 1165SOL     OW 8193   0.123   3.694   2.006
 1165SOL    HW1 8194   0.118   3.648   2.094
 1165SOL    HW2 8195   0.064   3.647   1.940
 1166SOL     OW 8196   2.399   4.366   6.314
 1166SOL    HW1 8197   2.376   4.276   6.351
 1166SOL    HW2 8198   2.451   4.354   6.230
 1167SOL     OW 8199   4.603   2.125   0.169
 1167SOL    HW1 8200   4.620   2.030   0.142
 1167SOL    HW2 8201   4.513   2.153   0.136
 1168SOL     OW 8202   3.241   5.156   1.443
 1168SOL    HW1 8203   3.143   5.173   1.455
 1168SOL    HW2 8204   3.261   5.060   1.460
 1169SOL     OW 8205   2.961   0.256   0.885
 1169SOL    HW1 8206   2.981   0.341   0.933
 1169SOL    HW2 8207   3.027   0.185   0.912
 1170SOL     OW 8208   5.148   2.897   6.483
 1170SOL    HW1 8209   5.199   2.892   6.397
 1170SOL    HW2 8210   5.125   2.805   6.514
 1171SOL     OW 8211   0.975   3.867   5.319
 1171SOL    HW1 8212   0.994   3.778   5.278
 1171SOL    HW2 8213   0.982   3.938   5.249
 1172SOL     OW 8214   0.512   1.254   6.651
 1172SOL    HW1 8215   0.426   1.260   6.702
 1172SOL    HW2 8216   0.548   1.346   6.636
 1173SOL     OW 8217   3.713   4.535   6.501
 1173SOL    HW1 8218   3.783   4.503   6.564
 1173SOL    HW2 8219   3.747   4.614   6.450
 1174SOL     OW 8220   4.895   4.250   0.971
 1174SOL    HW1 8221   4.954   4.190   0.916
 1174SOL    HW2 8222   4.891   4.215   1.065
 1175SOL     OW 8223   3.212   5.140   0.184
 1175SOL    HW1 8224   3.307   5.134   0.153
 1175SOL    HW2 8225   3.201   5.222   0.241
 1176SOL     OW 8226   1.280   3.483   5.785
 1176SOL    HW1 8227   1.341   3.549   5.829
 1176SOL    HW2 8228   1.192   3.526   5.767
 1177SOL     OW 8229   0.323   1.927   0.001
 1177SOL    HW1 8230   0.375   1.935   6.773
 1177SOL    HW2 8231   0.386   1.921   0.078
 1178SOL     OW 8232   3.805   0.912   6.315
 1178SOL    HW1 8233   3.738   0.948   6.379
 1178SOL    HW2 8234   3.802   0.812   6.317
 1179SOL     OW 8235   4.793   0.652   0.816
 1179SOL    HW1 8236   4.755   0.623   0.728
 1179SOL    HW2 8237   4.839   0.574   0.859
 1180SOL     OW 8238   0.980   3.600   1.528
 1180SOL    HW1 8239   1.044   3.546   1.584
 1180SOL    HW2 8240   1.031   3.670   1.478
 1181SOL     OW 8241   0.755   5.056   0.165
 1181SOL    HW1 8242   0.725   5.146   0.198
 1181SOL    HW2 8243   0.853   5.058   0.148
 1182SOL     OW 8244   3.676   2.191   0.936
 1182SOL    HW1 8245   3.670   2.114   0.873
 1182SOL    HW2 8246   3.741   2.259   0.900
 1183SOL     OW 8247   1.946   0.353   1.627
 1183SOL    HW1 8248   2.000   0.434   1.648
 1183SOL    HW2 8249   1.883   0.334   1.702
 1184SOL     OW 8250   4.629   0.721   1.223
 1184SOL    HW1 8251   4.654   0.636   1.269
 1184SOL    HW2 8252   4.701   0.747   1.160
 1185SOL     OW 8253   2.036   4.386   5.797
 1185SOL    HW1 8254   1.952   4.408   5.847
 1185SOL    HW2 8255   2.082   4.471   5.772
 1186SOL     OW 8256   4.368   4.220   5.904
 1186SOL    HW1 8257   4.365   4.212   5.804
 1186SOL    HW2 8258   4.286   4.180   5.943
 1187SOL     OW 8259   3.438   2.427   5.921
 1187SOL    HW1 8260   3.513   2.432   5.854
 1187SOL    HW2 8261   3.362   2.484   5.891
 1188SOL     OW 8262   2.248   5.293   5.977
 1188SOL    HW1 8263   2.158   5.309   5.936
 1188SOL    HW2 8264   2.305   5.241   5.914
 1189SOL     OW 8265   3.671   0.386   6.446
 1189SOL    HW1 8266   3.661   0.375   6.545
 1189SOL    HW2 8267   3.631   0.306   6.401
 1190SOL     OW 8268   4.894   4.847   6.613
 1190SOL    HW1 8269   4.881   4.748   6.607
 1190SOL    HW2 8270   4.805   4.893   6.615
 1191SOL     OW 8271   0.506   4.877   6.318
 1191SOL    HW1 8272   0.551   4.941   6.255
 1191SOL    HW2 8273   0.451   4.928   6.384
 1192SOL     OW 8274   0.591   5.268   6.769
 1192SOL    HW1 8275   0.597   5.345   6.832
 1192SOL    HW2 8276   0.576   5.302   6.676
 1193SOL     OW 8277   5.465   5.506   6.755
 1193SOL    HW1 8278   5.382   5.543   6.795
 1193SOL    HW2 8279   5.458   5.406   6.749
 1194SOL     OW 8280   5.422   0.232   6.241
 1194SOL    HW1 8281   5.443   0.185   6.326
 1194SOL    HW2 8282   5.327   0.264   6.243
 1195SOL     OW 8283   3.189   1.152   0.288
 1195SOL    HW1 8284   3.108   1.185   0.239
 1195SOL    HW2 8285   3.199   1.203   0.373
 1196SOL     OW 8286   3.212   2.052   6.792
 1196SOL    HW1 8287   3.128   2.034   6.741
 1196SOL    HW2 8288   3.284   2.080   6.729
 1197SOL     OW 8289   0.949   0.851   0.972
 1197SOL    HW1 8290   0.996   0.929   1.014
 1197SOL    HW2 8291   0.862   0.881   0.933
 1198SOL     OW 8292   2.428   0.240   1.788
 1198SOL    HW1 8293   2.389   0.329   1.764
 1198SOL    HW2 8294   2.385   0.207   1.872
 1199SOL     OW 8295   0.412   3.718   5.526
 1199SOL    HW1 8296   0.463   3.731   5.441
 1199SOL    HW2 8297   0.329   3.665   5.508
 1200SOL     OW 8298   2.664   1.159   1.379
 1200SOL    HW1 8299   2.669   1.218   1.460
 1200SOL    HW2 8300   2.581   1.180   1.327
 1201SOL     OW 8301   2.297   3.518   1.041
 1201SOL    HW1 8302   2.275   3.587   1.110
 1201SOL    HW2 8303   2.241   3.532   0.960
 1202SOL     OW 8304   3.592   4.523   0.380
 1202SOL    HW1 8305   3.625   4.542   0.473
 1202SOL    HW2 8306   3.650   4.453   0.338
 1203SOL     OW 8307   3.603   4.125   1.130
 1203SOL    HW1 8308   3.542   4.181   1.073
 1203SOL    HW2 8309   3.550   4.053   1.174
 1204SOL     OW 8310   5.604   5.434   6.519
 1204SOL    HW1 8311   5.551   5.469   6.597
 1204SOL    HW2 8312   5.557   5.356   6.478
 1205SOL     OW 8313   5.416   4.320   1.449
 1205SOL    HW1 8314   5.438   4.309   1.352
 1205SOL    HW2 8315   5.319   4.301   1.463
 1206SOL     OW 8316   0.329   4.607   5.816
 1206SOL    HW1 8317   0.322   4.692   5.868
 1206SOL    HW2 8318   0.406   4.554   5.850
 1207SOL     OW 8319   3.863   5.023   0.328
 1207SOL    HW1 8320   3.910   5.085   0.391
 1207SOL    HW2 8321   3.890   5.043   0.234
 1208SOL     OW 8322   3.800   3.765   6.556
 1208SOL    HW1 8323   3.794   3.781   6.655
 1208SOL    HW2 8324   3.836   3.673   6.540
 1209SOL     OW 8325   0.349   0.026   0.958
 1209SOL    HW1 8326   0.280   0.043   1.029
 1209SOL    HW2 8327   0.391   0.112   0.931
 1210SOL     OW 8328   0.821   2.613   1.379
 1210SOL    HW1 8329   0.810   2.527   1.428
 1210SOL    HW2 8330   0.910   2.653   1.403
 1211SOL     OW 8331   1.390   0.066   6.750
 1211SOL    HW1 8332   1.467   0.012   6.784
 1211SOL    HW2 8333   1.421   0.124   6.675
 1212SOL     OW 8334   3.145   3.485   0.331
 1212SOL    HW1 8335   3.166   3.455   0.238
 1212SOL    HW2 8336   3.229   3.486   0.385
 1213SOL     OW 8337   4.350   5.238   0.855
 1213SOL    HW1 8338   4.402   5.301   0.797
 1213SOL    HW2 8339   4.290   5.182   0.799
 1214SOL     OW 8340   2.531   1.929   0.182
 1214SOL    HW1 8341   2.441   1.895   0.159
 1214SOL    HW2 8342   2.601   1.876   0.134
 1215SOL     OW 8343   1.574   3.980   6.776
 1215SOL    HW1 8344   1.610   4.066   6.742
 1215SOL    HW2 8345   1.474   3.982   6.771
 1216SOL     OW 8346   4.516   0.766   0.851
 1216SOL    HW1 8347   4.606   0.722   0.847
 1216SOL    HW2 8348   4.447   0.698   0.874
 1217SOL     OW 8349   4.692   1.543   6.209
 1217SOL    HW1 8350   4.665   1.489   6.129
 1217SOL    HW2 8351   4.689   1.640   6.186
 1218SOL     OW 8352   2.073   5.526   6.642
 1218SOL    HW1 8353   2.083   5.500   6.546
 1218SOL    HW2 8354   2.133   5.604   6.662
 1219SOL     OW 8355   0.854   4.156   0.783
 1219SOL    HW1 8356   0.781   4.098   0.749
 1219SOL    HW2 8357   0.814   4.237   0.826
 1220SOL     OW 8358   2.327   4.821   1.344
 1220SOL    HW1 8359   2.277   4.737   1.327
 1220SOL    HW2 8360   2.272   4.899   1.313
 1221SOL     OW 8361   1.086   5.155   5.866
 1221SOL    HW1 8362   1.008   5.188   5.814
 1221SOL    HW2 8363   1.071   5.059   5.892
 1222SOL     OW 8364   0.613   4.311   6.504
 1222SOL    HW1 8365   0.712   4.306   6.490
 1222SOL    HW2 8366   0.585   4.239   6.567
 1223SOL     OW 8367   4.760   4.598   0.674
 1223SOL    HW1 8368   4.839   4.616   0.615
 1223SOL    HW2 8369   4.718   4.511   0.648
 1224SOL     OW 8370   5.303   4.239   0.418
 1224SOL    HW1 8371   5.396   4.208   0.438
 1224SOL    HW2 8372   5.307   4.328   0.372
 1225SOL     OW 8373   4.655   3.774   1.600
 1225SOL    HW1 8374   4.657   3.866   1.639
 1225SOL    HW2 8375   4.674   3.779   1.502
 1226SOL     OW 8376   1.572   4.929   1.383
 1226SOL    HW1 8377   1.635   4.997   1.420
 1226SOL    HW2 8378   1.624   4.852   1.346
 1227SOL     OW 8379   4.860   5.535   0.959
 1227SOL    HW1 8380   4.916   5.522   1.040
 1227SOL    HW2 8381   4.837   5.446   0.920
 1228SOL     OW 8382   5.495   2.483   0.618
 1228SOL    HW1 8383   5.456   2.457   0.529
 1228SOL    HW2 8384   5.459   2.572   0.645
 1229SOL     OW 8385   3.988   3.727   0.373
 1229SOL    HW1 8386   4.018   3.631   0.379
 1229SOL    HW2 8387   3.986   3.755   0.277
 1230SOL     OW 8388   4.996   4.730   2.044
 1230SOL    HW1 8389   4.960   4.798   2.108
 1230SOL    HW2 8390   5.093   4.716   2.062
 1231SOL     OW 8391   2.130   4.607   1.341
 1231SOL    HW1 8392   2.061   4.678   1.354
 1231SOL    HW2 8393   2.165   4.578   1.430
 1232SOL     OW 8394   0.179   3.967   1.755
 1232SOL    HW1 8395   0.169   3.975   1.854
 1232SOL    HW2 8396   0.089   3.956   1.713
 1233SOL     OW 8397   5.039   0.343   5.414
 1233SOL    HW1 8398   5.051   0.244   5.422
 1233SOL    HW2 8399   5.098   0.378   5.342
 1234SOL     OW 8400   4.025   2.002   6.473
 1234SOL    HW1 8401   4.105   2.062   6.476
 1234SOL    HW2 8402   4.015   1.964   6.382
 1235SOL     OW 8403   3.312   3.963   0.940
 1235SOL    HW1 8404   3.305   3.863   0.947
 1235SOL    HW2 8405   3.391   3.986   0.882
 1236SOL     OW 8406   1.044   3.818   0.698
 1236SOL    HW1 8407   0.951   3.786   0.716
 1236SOL    HW2 8408   1.061   3.901   0.751
 1237SOL     OW 8409   4.461   5.167   6.652
 1237SOL    HW1 8410   4.365   5.139   6.647
 1237SOL    HW2 8411   4.469   5.263   6.625
 1238SOL     OW 8412   2.062   0.468   0.206
 1238SOL    HW1 8413   1.995   0.416   0.260
 1238SOL    HW2 8414   2.153   0.451   0.242
 1239SOL     OW 8415   0.316   4.546   0.635
 1239SOL    HW1 8416   0.330   4.514   0.728
 1239SOL    HW2 8417   0.353   4.480   0.570
 1240SOL     OW 8418   2.385   1.259   2.203
 1240SOL    HW1 8419   2.333   1.176   2.222
 1240SOL    HW2 8420   2.479   1.248   2.237
 1241SOL     OW 8421   4.447   4.562   6.365
 1241SOL    HW1 8422   4.475   4.620   6.441
 1241SOL    HW2 8423   4.415   4.474   6.400
 1242SOL     OW 8424   4.365   0.782   5.942
 1242SOL    HW1 8425   4.285   0.834   5.913
 1242SOL    HW2 8426   4.369   0.695   5.893
 1243SOL     OW 8427   1.999   2.056   6.464
 1243SOL    HW1 8428   1.965   2.046   6.371
 1243SOL    HW2 8429   1.932   2.106   6.519
 1244SOL     OW 8430   4.053   4.649   5.156
 1244SOL    HW1 8431   4.095   4.712   5.091
 1244SOL    HW2 8432   3.954   4.649   5.143
 1245SOL     OW 8433   1.049   3.169   6.186
 1245SOL    HW1 8434   1.092   3.254   6.217
 1245SOL    HW2 8435   1.018   3.180   6.091
 1246SOL     OW 8436   4.437   2.287   6.315
 1246SOL    HW1 8437   4.385   2.354   6.263
 1246SOL    HW2 8438   4.518   2.331   6.354
 1247SOL     OW 8439   4.523   2.380   5.920
 1247SOL    HW1 8440   4.613   2.389   5.962
 1247SOL    HW2 8441   4.514   2.287   5.883
 1248SOL     OW 8442   1.762   5.555   1.461
 1248SOL    HW1 8443   1.795   0.040   1.439
 1248SOL    HW2 8444   1.762   5.543   1.560
 1249SOL     OW 8445   1.742   5.138   1.477
 1249SOL    HW1 8446   1.816   5.180   1.531
 1249SOL    HW2 8447   1.776   5.117   1.385
 1250SOL     OW 8448   4.192   1.080   5.607
 1250SOL    HW1 8449   4.288   1.057   5.625
 1250SOL    HW2 8450   4.170   1.060   5.512
 1251SOL     OW 8451   0.315   0.368   5.867
 1251SOL    HW1 8452   0.373   0.339   5.791
 1251SOL    HW2 8453   0.241   0.427   5.832
 1252SOL     OW 8454   2.443   4.952   6.224
 1252SOL    HW1 8455   2.444   5.042   6.268
 1252SOL    HW2 8456   2.508   4.952   6.148
 1253SOL     OW 8457   2.823   3.043   1.452
 1253SOL    HW1 8458   2.825   3.096   1.536
 1253SOL    HW2 8459   2.759   2.966   1.462
 1254SOL     OW 8460   2.134   4.379   6.748
 1254SOL    HW1 8461   2.138   4.333   6.659
 1254SOL    HW2 8462   2.216   4.434   6.760
 1255SOL     OW 8463   3.450   3.650   1.188
 1255SOL    HW1 8464   3.405   3.673   1.102
 1255SOL    HW2 8465   3.422   3.557   1.215
 1256SOL     OW 8466   2.520   3.572   0.417
 1256SOL    HW1 8467   2.583   3.508   0.372
 1256SOL    HW2 8468   2.543   3.665   0.390
 1257SOL     OW 8469   3.133   2.058   1.720
 1257SOL    HW1 8470   3.118   2.114   1.801
 1257SOL    HW2 8471   3.184   1.975   1.745
 1258SOL     OW 8472   0.706   0.437   6.396
 1258SOL    HW1 8473   0.649   0.392   6.327
 1258SOL    HW2 8474   0.793   0.464   6.354
 1259SOL     OW 8475   1.772   2.497   5.445
 1259SOL    HW1 8476   1.701   2.565   5.425
 1259SOL    HW2 8477   1.862   2.540   5.436
 1260SOL     OW 8478   2.207   0.722   6.526
 1260SOL    HW1 8479   2.220   0.701   6.623
 1260SOL    HW2 8480   2.109   0.726   6.505
 1261SOL     OW 8481   0.021   5.160   0.496
 1261SOL    HW1 8482   5.668   5.190   0.409
 1261SOL    HW2 8483   5.634   5.152   0.564
 1262SOL     OW 8484   0.955   2.402   6.819
 1262SOL    HW1 8485   0.920   2.488   0.001
 1262SOL    HW2 8486   0.915   2.388   6.729
 1263SOL     OW 8487   3.212   5.452   6.395
 1263SOL    HW1 8488   3.280   5.381   6.376
 1263SOL    HW2 8489   3.126   5.430   6.349
 1264SOL     OW 8490   1.549   5.562   2.125
 1264SOL    HW1 8491   1.614   5.505   2.175
 1264SOL    HW2 8492   1.499   0.013   2.190
 1265SOL     OW 8493   5.614   3.464   0.506
 1265SOL    HW1 8494   5.529   3.501   0.467
 1265SOL    HW2 8495   5.651   3.528   0.572
 1266SOL     OW 8496   2.649   1.845   1.231
 1266SOL    HW1 8497   2.732   1.790   1.224
 1266SOL    HW2 8498   2.674   1.940   1.250
 1267SOL     OW 8499   1.469   1.460   5.751
 1267SOL    HW1 8500   1.490   1.371   5.709
 1267SOL    HW2 8501   1.394   1.449   5.816
 1268SOL     OW 8502   0.641   2.010   6.293
 1268SOL    HW1 8503   0.722   1.957   6.314
 1268SOL    HW2 8504   0.578   2.008   6.372
 1269SOL     OW 8505   0.369   5.030   6.503
 1269SOL    HW1 8506   0.377   5.120   6.461
 1269SOL    HW2 8507   0.301   5.034   6.577
 1270SOL     OW 8508   4.890   3.579   6.304
 1270SOL    HW1 8509   4.960   3.644   6.335
 1270SOL    HW2 8510   4.839   3.619   6.228
 1271SOL     OW 8511   4.332   3.493   0.306
 1271SOL    HW1 8512   4.386   3.424   0.353
 1271SOL    HW2 8513   4.235   3.480   0.327
 1272SOL     OW 8514   5.468   2.990   0.625
 1272SOL    HW1 8515   5.473   2.992   0.725
 1272SOL    HW2 8516   5.557   2.964   0.587
 1273SOL     OW 8517   4.856   1.532   1.346
 1273SOL    HW1 8518   4.778   1.474   1.322
 1273SOL    HW2 8519   4.823   1.623   1.372
 1274SOL     OW 8520   0.627   3.094   6.498
 1274SOL    HW1 8521   0.681   3.129   6.422
 1274SOL    HW2 8522   0.649   3.147   6.581
 1275SOL     OW 8523   0.450   2.512   1.381
 1275SOL    HW1 8524   0.494   2.535   1.468
 1275SOL    HW2 8525   0.503   2.440   1.335
 1276SOL     OW 8526   3.724   0.240   5.381
 1276SOL    HW1 8527   3.760   0.150   5.407
 1276SOL    HW2 8528   3.635   0.227   5.336
 1277SOL     OW 8529   5.485   4.640   0.448
 1277SOL    HW1 8530   5.437   4.718   0.488
 1277SOL    HW2 8531   5.546   4.672   0.376
 1278SOL     OW 8532   1.392   2.589   1.120
 1278SOL    HW1 8533   1.477   2.604   1.070
 1278SOL    HW2 8534   1.347   2.507   1.085
 1279SOL     OW 8535   0.054   1.837   5.755
 1279SOL    HW1 8536   0.057   1.935   5.737
 1279SOL    HW2 8537   5.663   1.817   5.816
 1280SOL     OW 8538   3.056   1.088   6.321
 1280SOL    HW1 8539   3.096   1.061   6.408
 1280SOL    HW2 8540   2.967   1.132   6.338
 1281SOL     OW 8541   3.174   2.725   6.405
 1281SOL    HW1 8542   3.192   2.784   6.326
 1281SOL    HW2 8543   3.253   2.726   6.466
 1282SOL     OW 8544   1.217   4.336   0.810
 1282SOL    HW1 8545   1.308   4.330   0.850
 1282SOL    HW2 8546   1.181   4.244   0.795
 1283SOL     OW 8547   2.810   2.856   0.813
 1283SOL    HW1 8548   2.764   2.835   0.726
 1283SOL    HW2 8549   2.755   2.821   0.889
 1284SOL     OW 8550   2.532   3.096   0.566
 1284SOL    HW1 8551   2.572   3.123   0.654
 1284SOL    HW2 8552   2.537   2.996   0.557
 1285SOL     OW 8553   3.939   3.075   0.841
 1285SOL    HW1 8554   3.840   3.066   0.838
 1285SOL    HW2 8555   3.981   2.997   0.794
 1286SOL     OW 8556   1.052   0.855   0.702
 1286SOL    HW1 8557   1.031   0.803   0.785
 1286SOL    HW2 8558   1.059   0.952   0.724
 1287SOL     OW 8559   3.992   1.055   1.425
 1287SOL    HW1 8560   4.087   1.074   1.452
 1287SOL    HW2 8561   3.941   1.022   1.504
 1288SOL     OW 8562   5.630   5.087   5.519
 1288SOL    HW1 8563   0.015   5.021   5.544
 1288SOL    HW2 8564   5.669   5.160   5.464
 1289SOL     OW 8565   4.216   4.772   5.474
 1289SOL    HW1 8566   4.217   4.683   5.429
 1289SOL    HW2 8567   4.310   4.804   5.488
 1290SOL     OW 8568   0.442   3.729   0.931
 1290SOL    HW1 8569   0.370   3.773   0.984
 1290SOL    HW2 8570   0.439   3.762   0.837
 1291SOL     OW 8571   5.372   0.425   1.146
 1291SOL    HW1 8572   5.397   0.355   1.079
 1291SOL    HW2 8573   5.335   0.382   1.228
 1292SOL     OW 8574   4.543   4.912   1.433
 1292SOL    HW1 8575   4.534   4.816   1.460
 1292SOL    HW2 8576   4.523   4.922   1.336
 1293SOL     OW 8577   0.859   0.070   0.324
 1293SOL    HW1 8578   0.944   0.107   0.363
 1293SOL    HW2 8579   0.833   5.595   0.375
 1294SOL     OW 8580   4.750   5.541   1.541
 1294SOL    HW1 8581   4.694   5.560   1.460
 1294SOL    HW2 8582   4.743   5.444   1.565
 1295SOL     OW 8583   3.926   0.541   5.045
 1295SOL    HW1 8584   3.948   0.635   5.019
 1295SOL    HW2 8585   3.961   0.478   4.975
 1296SOL     OW 8586   1.137   1.510   6.369
 1296SOL    HW1 8587   1.056   1.540   6.420
 1296SOL    HW2 8588   1.110   1.475   6.280
 1297SOL     OW 8589   5.660   4.673   1.413
 1297SOL    HW1 8590   5.578   4.730   1.415
 1297SOL    HW2 8591   0.052   4.725   1.447
 1298SOL     OW 8592   4.513   3.830   6.312
 1298SOL    HW1 8593   4.455   3.852   6.234
 1298SOL    HW2 8594   4.607   3.856   6.291
 1299SOL     OW 8595   4.232   3.104   6.748
 1299SOL    HW1 8596   4.242   3.029   6.683
 1299SOL    HW2 8597   4.311   3.164   6.741
 1300SOL     OW 8598   0.972   2.193   0.729
 1300SOL    HW1 8599   0.991   2.132   0.806
 1300SOL    HW2 8600   0.890   2.161   0.681
 1301SOL     OW 8601   4.167   4.035   0.686
 1301SOL    HW1 8602   4.095   4.050   0.754
 1301SOL    HW2 8603   4.211   4.122   0.664
 1302SOL     OW 8604   1.439   2.769   0.836
 1302SOL    HW1 8605   1.355   2.716   0.824
 1302SOL    HW2 8606   1.512   2.709   0.870
 1303SOL     OW 8607   2.726   1.045   1.133
 1303SOL    HW1 8608   2.692   1.125   1.084
 1303SOL    HW2 8609   2.709   1.057   1.231
 1304SOL     OW 8610   1.508   5.500   0.452
 1304SOL    HW1 8611   1.431   5.456   0.498
 1304SOL    HW2 8612   1.575   5.431   0.425
 1305SOL     OW 8613   5.154   0.311   0.875
 1305SOL    HW1 8614   5.219   0.302   0.951
 1305SOL    HW2 8615   5.204   0.309   0.788
 1306SOL     OW 8616   4.733   5.276   1.609
 1306SOL    HW1 8617   4.782   5.218   1.544
 1306SOL    HW2 8618   4.778   5.271   1.698
 1307SOL     OW 8619   1.811   4.976   2.036
 1307SOL    HW1 8620   1.900   5.004   2.074
 1307SOL    HW2 8621   1.747   4.960   2.110
 1308SOL     OW 8622   3.512   5.446   5.821
 1308SOL    HW1 8623   3.440   5.498   5.866
 1308SOL    HW2 8624   3.574   5.509   5.773
 1309SOL     OW 8625   3.731   3.285   6.084
 1309SOL    HW1 8626   3.773   3.375   6.068
 1309SOL    HW2 8627   3.634   3.289   6.057
 1310SOL     OW 8628   1.090   2.425   0.637
 1310SOL    HW1 8629   1.043   2.441   0.550
 1310SOL    HW2 8630   1.053   2.343   0.680
 1311SOL     OW 8631   1.160   3.476   1.695
 1311SOL    HW1 8632   1.247   3.445   1.733
 1311SOL    HW2 8633   1.120   3.545   1.755
 1312SOL     OW 8634   3.531   2.086   0.102
 1312SOL    HW1 8635   3.593   2.047   0.033
 1312SOL    HW2 8636   3.463   2.017   0.128
 1313SOL     OW 8637   0.414   4.450   1.247
 1313SOL    HW1 8638   0.445   4.397   1.168
 1313SOL    HW2 8639   0.328   4.413   1.280
 1314SOL     OW 8640   2.555   2.828   6.253
 1314SOL    HW1 8641   2.564   2.918   6.295
 1314SOL    HW2 8642   2.459   2.810   6.232
 1315SOL     OW 8643   2.807   4.843   6.632
 1315SOL    HW1 8644   2.895   4.810   6.666
 1315SOL    HW2 8645   2.755   4.881   6.709
 1316SOL     OW 8646   3.009   3.023   0.170
 1316SOL    HW1 8647   2.971   2.947   0.223
 1316SOL    HW2 8648   2.978   3.110   0.209
 1317SOL     OW 8649   5.479   2.680   2.453
 1317SOL    HW1 8650   5.418   2.601   2.452
 1317SOL    HW2 8651   5.432   2.757   2.498
 1318SOL     OW 8652   1.089   1.011   6.855
 1318SOL    HW1 8653   1.133   1.100   0.011
 1318SOL    HW2 8654   1.158   0.939   0.002
 1319SOL     OW 8655   1.717   4.174   0.560
 1319SOL    HW1 8656   1.764   4.125   0.487
 1319SOL    HW2 8657   1.620   4.184   0.536
 1320SOL     OW 8658   1.098   4.045   2.307
 1320SOL    HW1 8659   1.100   4.110   2.382
 1320SOL    HW2 8660   1.103   3.952   2.343
 1321SOL     OW 8661   2.835   4.046   0.876
 1321SOL    HW1 8662   2.761   3.983   0.855
 1321SOL    HW2 8663   2.801   4.120   0.935
 1322SOL     OW 8664   3.428   0.537   0.670
 1322SOL    HW1 8665   3.499   0.466   0.673
 1322SOL    HW2 8666   3.349   0.506   0.723
 1323SOL     OW 8667   3.510   4.966   6.536
 1323SOL    HW1 8668   3.500   4.871   6.506
 1323SOL    HW2 8669   3.458   5.026   6.474
 1324SOL     OW 8670   3.311   5.377   4.987
 1324SOL    HW1 8671   3.402   5.385   5.028
 1324SOL    HW2 8672   3.319   5.332   4.898
 1325SOL     OW 8673   0.111   1.368   0.642
 1325SOL    HW1 8674   0.108   1.309   0.561
 1325SOL    HW2 8675   0.161   1.452   0.621
 1326SOL     OW 8676   0.286   0.383   6.331
 1326SOL    HW1 8677   0.310   0.374   6.427
 1326SOL    HW2 8678   0.212   0.450   6.322
 1327SOL     OW 8679   4.983   4.638   0.047
 1327SOL    HW1 8680   5.069   4.667   0.006
 1327SOL    HW2 8681   4.907   4.685   0.002
 1328SOL     OW 8682   5.241   3.520   6.192
 1328SOL    HW1 8683   5.253   3.512   6.093
 1328SOL    HW2 8684   5.277   3.608   6.222
 1329SOL     OW 8685   4.029   4.092   6.610
 1329SOL    HW1 8686   4.078   4.009   6.582
 1329SOL    HW2 8687   4.042   4.164   6.541
 1330SOL     OW 8688   3.834   2.160   1.159
 1330SOL    HW1 8689   3.765   2.175   1.088
 1330SOL    HW2 8690   3.827   2.067   1.194
 1331SOL     OW 8691   1.651   0.303   6.161
 1331SOL    HW1 8692   1.639   0.401   6.142
 1331SOL    HW2 8693   1.692   0.258   6.081
 1332SOL     OW 8694   3.689   5.364   6.221
 1332SOL    HW1 8695   3.616   5.354   6.153
 1332SOL    HW2 8696   3.740   5.279   6.228
 1333SOL     OW 8697   2.299   0.964   6.402
 1333SOL    HW1 8698   2.305   0.953   6.303
 1333SOL    HW2 8699   2.282   0.876   6.445
 1334SOL     OW 8700   1.388   1.469   6.479
 1334SOL    HW1 8701   1.296   1.477   6.441
 1334SOL    HW2 8702   1.389   1.400   6.551
 1335SOL     OW 8703   0.925   3.063   0.435
 1335SOL    HW1 8704   0.981   3.143   0.416
 1335SOL    HW2 8705   0.894   3.023   0.348
 1336SOL     OW 8706   3.708   4.361   1.236
 1336SOL    HW1 8707   3.677   4.269   1.213
 1336SOL    HW2 8708   3.735   4.409   1.153
 1337SOL     OW 8709   1.823   0.024   5.371
 1337SOL    HW1 8710   1.893   5.592   5.431
 1337SOL    HW2 8711   1.842   0.120   5.356
 1338SOL     OW 8712   1.349   4.361   5.126
 1338SOL    HW1 8713   1.348   4.411   5.039
 1338SOL    HW2 8714   1.401   4.413   5.193
 1339SOL     OW 8715   2.713   5.391   6.083
 1339SOL    HW1 8716   2.738   5.316   6.144
 1339SOL    HW2 8717   2.653   5.455   6.132
 1340SOL     OW 8718   4.741   3.505   6.519
 1340SOL    HW1 8719   4.739   3.406   6.530
 1340SOL    HW2 8720   4.784   3.528   6.432
 1341SOL     OW 8721   1.408   5.349   5.689
 1341SOL    HW1 8722   1.396   5.363   5.591
 1341SOL    HW2 8723   1.386   5.433   5.738
 1342SOL     OW 8724   4.252   4.488   0.458
 1342SOL    HW1 8725   4.306   4.517   0.380
 1342SOL    HW2 8726   4.160   4.462   0.428
 1343SOL     OW 8727   1.029   1.907   0.601
 1343SOL    HW1 8728   1.107   1.908   0.663
 1343SOL    HW2 8729   1.046   1.971   0.526
 1344SOL     OW 8730   0.095   3.204   1.387
 1344SOL    HW1 8731   0.030   3.264   1.433
 1344SOL    HW2 8732   0.171   3.259   1.351
 1345SOL     OW 8733   4.168   0.869   1.089
 1345SOL    HW1 8734   4.143   0.946   1.030
 1345SOL    HW2 8735   4.265   0.875   1.113
 1346SOL     OW 8736   0.979   3.944   1.961
 1346SOL    HW1 8737   1.077   3.955   1.947
 1346SOL    HW2 8738   0.930   3.957   1.875
 1347SOL     OW 8739   5.101   2.578   0.024
 1347SOL    HW1 8740   5.181   2.632   0.049
 1347SOL    HW2 8741   5.032   2.586   0.096
 1348SOL     OW 8742   0.697   4.296   6.079
 1348SOL    HW1 8743   0.700   4.213   6.133
 1348SOL    HW2 8744   0.786   4.312   6.036
 1349SOL     OW 8745   4.549   4.251   1.257
 1349SOL    HW1 8746   4.600   4.331   1.226
 1349SOL    HW2 8747   4.455   4.278   1.278
 1350SOL     OW 8748   2.528   0.959   2.249
 1350SOL    HW1 8749   2.579   1.042   2.270
 1350SOL    HW2 8750   2.593   0.887   2.221
 1351SOL     OW 8751   1.897   1.993   0.362
 1351SOL    HW1 8752   1.993   1.993   0.334
 1351SOL    HW2 8753   1.844   1.936   0.299
 1352SOL     OW 8754   3.200   4.955   6.830
 1352SOL    HW1 8755   3.295   4.925   6.817
 1352SOL    HW2 8756   3.193   5.013   0.054
 1353SOL     OW 8757   1.216   2.599   0.823
 1353SOL    HW1 8758   1.158   2.642   0.892
 1353SOL    HW2 8759   1.159   2.554   0.754
 1354SOL     OW 8760   3.924   5.531   0.248
 1354SOL    HW1 8761   4.004   5.516   0.307
 1354SOL    HW2 8762   3.907   0.022   0.237
 1355SOL     OW 8763   1.871   0.020   0.750
 1355SOL    HW1 8764   1.787   0.042   0.701
 1355SOL    HW2 8765   1.890   5.529   0.740
 1356SOL     OW 8766   5.651   4.083   1.148
 1356SOL    HW1 8767   5.593   4.162   1.169
 1356SOL    HW2 8768   5.596   4.013   1.102
 1357SOL     OW 8769   2.357   1.914   6.698
 1357SOL    HW1 8770   2.333   1.881   6.790
 1357SOL    HW2 8771   2.286   1.886   6.633
 1358SOL     OW 8772   5.064   1.335   0.781
 1358SOL    HW1 8773   5.124   1.337   0.701
 1358SOL    HW2 8774   4.971   1.311   0.753
 1359SOL     OW 8775   0.524   2.863   5.744
 1359SOL    HW1 8776   0.514   2.786   5.681
 1359SOL    HW2 8777   0.599   2.921   5.714
 1360SOL     OW 8778   3.076   3.234   5.960
 1360SOL    HW1 8779   3.144   3.282   5.905
 1360SOL    HW2 8780   3.117   3.208   6.048
 1361SOL     OW 8781   2.364   4.260   1.150
 1361SOL    HW1 8782   2.430   4.215   1.210
 1361SOL    HW2 8783   2.287   4.293   1.204
 1362SOL     OW 8784   2.373   0.104   0.937
 1362SOL    HW1 8785   2.370   0.009   0.970
 1362SOL    HW2 8786   2.402   0.164   1.012
 1363SOL     OW 8787   1.981   0.553   6.281
 1363SOL    HW1 8788   1.963   0.612   6.361
 1363SOL    HW2 8789   2.050   0.596   6.223
 1364SOL     OW 8790   5.624   3.032   1.539
 1364SOL    HW1 8791   5.613   2.938   1.506
 1364SOL    HW2 8792   5.665   3.088   1.466
 1365SOL     OW 8793   5.168   3.054   0.819
 1365SOL    HW1 8794   5.121   3.128   0.867
 1365SOL    HW2 8795   5.262   3.047   0.854
 1366SOL     OW 8796   3.370   2.122   5.255
 1366SOL    HW1 8797   3.452   2.168   5.222
 1366SOL    HW2 8798   3.360   2.034   5.209
 1367SOL     OW 8799   1.340   2.210   1.214
 1367SOL    HW1 8800   1.325   2.270   1.292
 1367SOL    HW2 8801   1.318   2.259   1.129
 1368SOL     OW 8802   2.276   2.346   0.989
 1368SOL    HW1 8803   2.364   2.394   0.992
 1368SOL    HW2 8804   2.245   2.340   0.894
 1369SOL     OW 8805   3.204   1.015   6.542
 1369SOL    HW1 8806   3.206   1.083   6.615
 1369SOL    HW2 8807   3.167   0.929   6.577
 1370SOL     OW 8808   5.066   1.691   1.248
 1370SOL    HW1 8809   5.157   1.655   1.268
 1370SOL    HW2 8810   4.997   1.629   1.285
 1371SOL     OW 8811   1.105   4.071   0.815
 1371SOL    HW1 8812   1.127   4.078   0.912
 1371SOL    HW2 8813   1.011   4.103   0.799
 1372SOL     OW 8814   3.989   1.753   0.172
 1372SOL    HW1 8815   3.985   1.653   0.176
 1372SOL    HW2 8816   4.080   1.784   0.200
 1373SOL     OW 8817   1.232   3.203   0.728
 1373SOL    HW1 8818   1.277   3.116   0.707
 1373SOL    HW2 8819   1.136   3.199   0.701
 1374SOL     OW 8820   3.986   0.224   6.321
 1374SOL    HW1 8821   4.018   0.179   6.237
 1374SOL    HW2 8822   3.956   0.154   6.386
 1375SOL     OW 8823   1.151   4.165   1.534
 1375SOL    HW1 8824   1.211   4.192   1.609
 1375SOL    HW2 8825   1.057   4.188   1.557
 1376SOL     OW 8826   1.477   0.236   6.560
 1376SOL    HW1 8827   1.447   0.234   6.464
 1376SOL    HW2 8828   1.541   0.311   6.574
 1377SOL     OW 8829   3.748   5.346   1.218
 1377SOL    HW1 8830   3.655   5.312   1.209
 1377SOL    HW2 8831   3.786   5.317   1.306
 1378SOL     OW 8832   4.158   0.953   5.866
 1378SOL    HW1 8833   4.158   1.028   5.932
 1378SOL    HW2 8834   4.155   0.990   5.773
 1379SOL     OW 8835   4.069   4.415   1.684
 1379SOL    HW1 8836   4.040   4.420   1.779
 1379SOL    HW2 8837   4.008   4.471   1.627
 1380SOL     OW 8838   4.146   1.410   1.234
 1380SOL    HW1 8839   4.055   1.372   1.253
 1380SOL    HW2 8840   4.144   1.509   1.247
 1381SOL     OW 8841   5.662   1.069   5.887
 1381SOL    HW1 8842   5.590   1.088   5.819
 1381SOL    HW2 8843   0.052   1.132   5.873
 1382SOL     OW 8844   5.629   3.375   1.548
 1382SOL    HW1 8845   5.588   3.346   1.635
 1382SOL    HW2 8846   0.033   3.415   1.565
 1383SOL     OW 8847   5.258   4.691   2.112
 1383SOL    HW1 8848   5.341   4.734   2.147
 1383SOL    HW2 8849   5.232   4.616   2.173
 1384SOL     OW 8850   2.418   1.009   0.973
 1384SOL    HW1 8851   2.354   1.042   0.903
 1384SOL    HW2 8852   2.423   1.075   1.047
 1385SOL     OW 8853   0.815   5.355   6.390
 1385SOL    HW1 8854   0.874   5.326   6.314
 1385SOL    HW2 8855   0.870   5.363   6.474
 1386SOL     OW 8856   3.196   4.675   6.524
 1386SOL    HW1 8857   3.143   4.681   6.608
 1386SOL    HW2 8858   3.192   4.762   6.474
 1387SOL     OW 8859   0.896   1.561   1.270
 1387SOL    HW1 8860   0.878   1.467   1.242
 1387SOL    HW2 8861   0.848   1.581   1.355
 1388SOL     OW 8862   1.180   3.467   6.681
 1388SOL    HW1 8863   1.243   3.539   6.712
 1388SOL    HW2 8864   1.232   3.387   6.653
 1389SOL     OW 8865   3.995   5.342   0.048
 1389SOL    HW1 8866   3.999   5.352   6.806
 1389SOL    HW2 8867   3.961   5.427   0.088
 1390SOL     OW 8868   1.854   1.259   5.941
 1390SOL    HW1 8869   1.917   1.186   5.913
 1390SOL    HW2 8870   1.762   1.222   5.951
 1391SOL     OW 8871   5.605   3.651   6.133
 1391SOL    HW1 8872   0.009   3.684   6.162
 1391SOL    HW2 8873   5.579   3.572   6.188
 1392SOL     OW 8874   0.113   3.817   6.850
 1392SOL    HW1 8875   0.212   3.809   6.856
 1392SOL    HW2 8876   0.070   3.743   0.045
 1393SOL     OW 8877   5.183   0.103   5.863
 1393SOL    HW1 8878   5.242   0.070   5.937
 1393SOL    HW2 8879   5.233   0.099   5.776
 1394SOL     OW 8880   1.339   3.319   1.383
 1394SOL    HW1 8881   1.406   3.386   1.415
 1394SOL    HW2 8882   1.385   3.250   1.327
 1395SOL     OW 8883   4.826   3.108   0.114
 1395SOL    HW1 8884   4.775   3.168   0.053
 1395SOL    HW2 8885   4.765   3.071   0.184
 1396SOL     OW 8886   1.455   0.830   0.850
 1396SOL    HW1 8887   1.419   0.737   0.847
 1396SOL    HW2 8888   1.472   0.862   0.756
 1397SOL     OW 8889   3.990   1.980   5.130
 1397SOL    HW1 8890   3.905   2.027   5.108
 1397SOL    HW2 8891   4.035   1.950   5.046
 1398SOL     OW 8892   3.735   0.769   0.214
 1398SOL    HW1 8893   3.723   0.813   0.125
 1398SOL    HW2 8894   3.671   0.692   0.223
 1399SOL     OW 8895   4.408   1.008   0.778
 1399SOL    HW1 8896   4.425   0.913   0.804
 1399SOL    HW2 8897   4.495   1.053   0.756
 1400SOL     OW 8898   0.129   0.630   5.492
 1400SOL    HW1 8899   0.143   0.706   5.428
 1400SOL    HW2 8900   0.206   0.567   5.487
 1401SOL     OW 8901   4.610   4.383   1.596
 1401SOL    HW1 8902   4.671   4.355   1.671
 1401SOL    HW2 8903   4.531   4.323   1.593
 1402SOL     OW 8904   1.339   0.980   1.043
 1402SOL    HW1 8905   1.359   0.935   1.130
 1402SOL    HW2 8906   1.376   0.926   0.968
 1403SOL     OW 8907   0.815   3.453   6.364
 1403SOL    HW1 8908   0.815   3.553   6.363
 1403SOL    HW2 8909   0.863   3.421   6.446
 1404SOL     OW 8910   4.247   0.669   0.648
 1404SOL    HW1 8911   4.265   0.643   0.743
 1404SOL    HW2 8912   4.179   0.742   0.645
 1405SOL     OW 8913   1.551   4.234   5.704
 1405SOL    HW1 8914   1.543   4.168   5.628
 1405SOL    HW2 8915   1.616   4.198   5.771
 1406SOL     OW 8916   4.819   3.703   0.016
 1406SOL    HW1 8917   4.749   3.709   0.088
 1406SOL    HW2 8918   4.886   3.776   0.029
 1407SOL     OW 8919   1.788   1.022   0.335
 1407SOL    HW1 8920   1.859   0.962   0.371
 1407SOL    HW2 8921   1.769   1.095   0.401
 1408SOL     OW 8922   2.982   5.248   1.460
 1408SOL    HW1 8923   2.978   5.308   1.381
 1408SOL    HW2 8924   2.960   5.300   1.543
 1409SOL     OW 8925   3.665   3.912   6.177
 1409SOL    HW1 8926   3.748   3.896   6.230
 1409SOL    HW2 8927   3.605   3.974   6.228
 1410SOL     OW 8928   1.927   0.697   0.163
 1410SOL    HW1 8929   1.869   0.693   0.082
 1410SOL    HW2 8930   1.970   0.607   0.176
 1411SOL     OW 8931   0.650   1.566   0.855
 1411SOL    HW1 8932   0.640   1.644   0.917
 1411SOL    HW2 8933   0.712   1.591   0.780
 1412SOL     OW 8934   1.443   0.227   1.320
 1412SOL    HW1 8935   1.375   0.300   1.316
 1412SOL    HW2 8936   1.409   0.147   1.272
 1413SOL     OW 8937   0.210   2.633   6.222
 1413SOL    HW1 8938   0.135   2.597   6.166
 1413SOL    HW2 8939   0.219   2.579   6.305
 1414SOL     OW 8940   3.943   1.006   6.612
 1414SOL    HW1 8941   3.866   1.052   6.656
 1414SOL    HW2 8942   4.005   1.075   6.574
 1415SOL     OW 8943   4.945   2.738   6.307
 1415SOL    HW1 8944   4.850   2.713   6.327
 1415SOL    HW2 8945   4.964   2.829   6.344
 1416SOL     OW 8946   4.823   2.109   6.845
 1416SOL    HW1 8947   4.755   2.141   0.053
 1416SOL    HW2 8948   4.889   2.182   6.826
 1417SOL     OW 8949   0.938   2.696   0.297
 1417SOL    HW1 8950   1.038   2.703   0.292
 1417SOL    HW2 8951   0.897   2.787   0.286
 1418SOL     OW 8952   0.517   0.327   0.110
 1418SOL    HW1 8953   0.604   0.352   0.068
 1418SOL    HW2 8954   0.467   0.265   0.050
 1419SOL     OW 8955   1.105   4.153   0.361
 1419SOL    HW1 8956   1.149   4.241   0.346
 1419SOL    HW2 8957   1.145   4.108   0.441
 1420SOL     OW 8958   1.368   5.455   6.106
 1420SOL    HW1 8959   1.277   5.434   6.071
 1420SOL    HW2 8960   1.360   5.495   6.198
 1421SOL     OW 8961   0.450   5.330   5.313
 1421SOL    HW1 8962   0.425   5.234   5.300
 1421SOL    HW2 8963   0.457   5.375   5.224
 1422SOL     OW 8964   5.571   2.206   0.597
 1422SOL    HW1 8965   5.544   2.301   0.613
 1422SOL    HW2 8966   5.498   2.159   0.548
 1423SOL     OW 8967   1.655   1.589   6.768
 1423SOL    HW1 8968   1.754   1.599   6.757
 1423SOL    HW2 8969   1.609   1.624   6.687
 1424SOL     OW 8970   4.679   3.361   0.221
 1424SOL    HW1 8971   4.765   3.408   0.238
 1424SOL    HW2 8972   4.670   3.343   0.123
 1425SOL     OW 8973   0.081   1.810   0.919
 1425SOL    HW1 8974   0.127   1.859   0.993
 1425SOL    HW2 8975   0.105   1.713   0.923
 1426SOL     OW 8976   2.724   1.170   5.442
 1426SOL    HW1 8977   2.754   1.200   5.352
 1426SOL    HW2 8978   2.634   1.211   5.462
 1427SOL     OW 8979   4.652   2.060   6.633
 1427SOL    HW1 8980   4.725   2.065   6.701
 1427SOL    HW2 8981   4.655   1.971   6.588
 1428SOL     OW 8982   4.434   0.594   1.902
 1428SOL    HW1 8983   4.382   0.622   1.982
 1428SOL    HW2 8984   4.462   0.498   1.912
 1429SOL     OW 8985   3.468   2.420   6.447
 1429SOL    HW1 8986   3.523   2.343   6.413
 1429SOL    HW2 8987   3.506   2.452   6.534
 1430SOL     OW 8988   1.335   3.142   0.416
 1430SOL    HW1 8989   1.346   3.091   0.501
 1430SOL    HW2 8990   1.386   3.097   0.343
 1431SOL     OW 8991   1.021   0.265   6.469
 1431SOL    HW1 8992   1.052   0.258   6.374
 1431SOL    HW2 8993   1.042   0.356   6.504
 1432SOL     OW 8994   5.590   5.060   1.181
 1432SOL    HW1 8995   5.616   5.064   1.278
 1432SOL    HW2 8996   5.668   5.029   1.126
 1433SOL     OW 8997   4.277   3.258   0.963
 1433SOL    HW1 8998   4.365   3.306   0.959
 1433SOL    HW2 8999   4.264   3.221   1.055
 1434SOL     OW 9000   3.749   0.256   0.426
 1434SOL    HW1 9001   3.709   0.172   0.461
 1434SOL    HW2 9002   3.803   0.236   0.344
 1435SOL     OW 9003   1.967   2.842   1.289
 1435SOL    HW1 9004   1.872   2.811   1.285
 1435SOL    HW2 9005   2.028   2.763   1.273
 1436SOL     OW 9006   1.498   0.921   0.594
 1436SOL    HW1 9007   1.501   1.016   0.562
 1436SOL    HW2 9008   1.414   0.878   0.561
 1437SOL     OW 9009   0.778   2.447   6.601
 1437SOL    HW1 9010   0.811   2.514   6.535
 1437SOL    HW2 9011   0.687   2.475   6.634
 1438SOL     OW 9012   3.778   4.094   0.194
 1438SOL    HW1 9013   3.704   4.027   0.197
 1438SOL    HW2 9014   3.810   4.104   0.099
 1439SOL     OW 9015   4.538   2.078   0.777
 1439SOL    HW1 9016   4.498   2.113   0.692
 1439SOL    HW2 9017   4.602   2.146   0.813
 1440SOL     OW 9018   4.135   0.594   1.099
 1440SOL    HW1 9019   4.044   0.553   1.108
 1440SOL    HW2 9020   4.126   0.694   1.097
 1441SOL     OW 9021   3.446   4.191   6.836
 1441SOL    HW1 9022   3.425   4.159   0.071
 1441SOL    HW2 9023   3.365   4.234   6.796
 1442SOL     OW 9024   4.725   4.398   5.799
 1442SOL    HW1 9025   4.812   4.443   5.778
 1442SOL    HW2 9026   4.650   4.457   5.771
 1443SOL     OW 9027   3.384   2.361   2.275
 1443SOL    HW1 9028   3.288   2.373   2.299
 1443SOL    HW2 9029   3.396   2.275   2.225
 1444SOL     OW 9030   0.746   1.357   0.110
 1444SOL    HW1 9031   0.650   1.377   0.095
 1444SOL    HW2 9032   0.761   1.258   0.105
 1445SOL     OW 9033   4.185   5.368   6.194
 1445SOL    HW1 9034   4.100   5.392   6.147
 1445SOL    HW2 9035   4.179   5.395   6.290
 1446SOL     OW 9036   4.251   5.291   1.294
 1446SOL    HW1 9037   4.312   5.247   1.228
 1446SOL    HW2 9038   4.230   5.227   1.368
 1447SOL     OW 9039   1.721   2.136   0.707
 1447SOL    HW1 9040   1.678   2.047   0.688
 1447SOL    HW2 9041   1.786   2.125   0.783
 1448SOL     OW 9042   0.615   3.927   6.427
 1448SOL    HW1 9043   0.519   3.943   6.450
 1448SOL    HW2 9044   0.643   3.989   6.354
 1449SOL     OW 9045   1.539   0.506   0.118
 1449SOL    HW1 9046   1.472   0.522   0.045
 1449SOL    HW2 9047   1.540   0.585   0.180
 1450SOL     OW 9048   5.256   1.290   5.765
 1450SOL    HW1 9049   5.213   1.223   5.826
 1450SOL    HW2 9050   5.208   1.291   5.677
 1451SOL     OW 9051   3.683   1.310   6.292
 1451SOL    HW1 9052   3.708   1.388   6.350
 1451SOL    HW2 9053   3.590   1.323   6.257
 1452SOL     OW 9054   3.130   1.609   0.836
 1452SOL    HW1 9055   3.172   1.530   0.879
 1452SOL    HW2 9056   3.144   1.690   0.894
 1453SOL     OW 9057   5.071   2.650   6.613
 1453SOL    HW1 9058   5.088   2.626   6.709
 1453SOL    HW2 9059   4.976   2.627   6.590
 1454SOL     OW 9060   0.137   5.327   6.655
 1454SOL    HW1 9061   0.051   5.356   6.613
 1454SOL    HW2 9062   0.200   5.404   6.661
 1455SOL     OW 9063   3.816   5.593   5.483
 1455SOL    HW1 9064   3.747   5.545   5.428
 1455SOL    HW2 9065   3.871   5.527   5.533
 1456SOL     OW 9066   0.805   3.729   6.344
 1456SOL    HW1 9067   0.732   3.778   6.392
 1456SOL    HW2 9068   0.809   3.760   6.249
 1457SOL     OW 9069   1.869   2.825   6.053
 1457SOL    HW1 9070   1.771   2.809   6.035
 1457SOL    HW2 9071   1.895   2.915   6.019
 1458SOL     OW 9072   2.122   1.488   1.134
 1458SOL    HW1 9073   2.220   1.473   1.131
 1458SOL    HW2 9074   2.100   1.578   1.097
 1459SOL     OW 9075   5.242   5.486   0.798
 1459SOL    HW1 9076   5.217   5.425   0.723
 1459SOL    HW2 9077   5.175   5.561   0.802
 1460SOL     OW 9078   2.483   4.667   0.240
 1460SOL    HW1 9079   2.578   4.699   0.246
 1460SOL    HW2 9080   2.439   4.674   0.330
 1461SOL     OW 9081   0.517   3.590   0.430
 1461SOL    HW1 9082   0.431   3.613   0.475
 1461SOL    HW2 9083   0.563   3.517   0.480
 1462SOL     OW 9084   0.743   0.483   0.825
 1462SOL    HW1 9085   0.679   0.559   0.817
 1462SOL    HW2 9086   0.761   0.464   0.922
 1463SOL     OW 9087   3.740   1.487   0.327
 1463SOL    HW1 9088   3.704   1.566   0.376
 1463SOL    HW2 9089   3.676   1.411   0.337
 1464SOL     OW 9090   3.700   2.315   0.618
 1464SOL    HW1 9091   3.672   2.410   0.604
 1464SOL    HW2 9092   3.628   2.254   0.583
 1465SOL     OW 9093   5.461   0.118   6.490
 1465SOL    HW1 9094   5.546   0.071   6.515
 1465SOL    HW2 9095   5.453   0.201   6.545
 1466SOL     OW 9096   2.128   4.341   1.261
 1466SOL    HW1 9097   2.128   4.436   1.293
 1466SOL    HW2 9098   2.040   4.320   1.218
 1467SOL     OW 9099   1.418   4.057   6.281
 1467SOL    HW1 9100   1.408   4.064   6.182
 1467SOL    HW2 9101   1.438   4.148   6.318
 1468SOL     OW 9102   1.562   1.696   0.144
 1468SOL    HW1 9103   1.635   1.757   0.174
 1468SOL    HW2 9104   1.583   1.659   0.054
 1469SOL     OW 9105   5.138   2.958   5.401
 1469SOL    HW1 9106   5.052   2.936   5.355
 1469SOL    HW2 9107   5.133   3.051   5.437
 1470SOL     OW 9108   2.314   0.474   5.770
 1470SOL    HW1 9109   2.311   0.453   5.673
 1470SOL    HW2 9110   2.410   0.476   5.800
 1471SOL     OW 9111   1.339   3.935   1.068
 1471SOL    HW1 9112   1.404   3.958   1.140
 1471SOL    HW2 9113   1.258   3.993   1.076
 1472SOL     OW 9114   4.641   5.368   1.169
 1472SOL    HW1 9115   4.626   5.442   1.235
 1472SOL    HW2 9116   4.735   5.336   1.176
 1473SOL     OW 9117   0.465   2.762   6.222
 1473SOL    HW1 9118   0.380   2.711   6.233
 1473SOL    HW2 9119   0.517   2.725   6.144
 1474SOL     OW 9120   5.560   5.117   0.029
 1474SOL    HW1 9121   5.593   5.038   6.835
 1474SOL    HW2 9122   5.499   5.171   6.829
 1475SOL     OW 9123   4.122   1.042   0.204
 1475SOL    HW1 9124   4.175   0.985   0.142
 1475SOL    HW2 9125   4.066   0.985   0.264
 1476SOL     OW 9126   4.442   1.971   1.257
 1476SOL    HW1 9127   4.350   1.952   1.292
 1476SOL    HW2 9128   4.482   1.887   1.222
 1477SOL     OW 9129   4.699   2.201   0.409
 1477SOL    HW1 9130   4.781   2.149   0.433
 1477SOL    HW2 9131   4.668   2.175   0.318
 1478SOL     OW 9132   3.818   2.097   6.208
 1478SOL    HW1 9133   3.833   2.146   6.122
 1478SOL    HW2 9134   3.886   2.024   6.216
 1479SOL     OW 9135   1.947   4.028   0.029
 1479SOL    HW1 9136   1.954   3.995   6.792
 1479SOL    HW2 9137   1.923   4.125   0.028
 1480SOL     OW 9138   2.724   0.115   0.888
 1480SOL    HW1 9139   2.734   0.034   0.945
 1480SOL    HW2 9140   2.811   0.165   0.883
 1481SOL     OW 9141   4.448   1.492   1.504
 1481SOL    HW1 9142   4.380   1.428   1.542
 1481SOL    HW2 9143   4.424   1.585   1.532
 1482SOL     OW 9144   1.653   3.918   6.324
 1482SOL    HW1 9145   1.560   3.954   6.318
 1482SOL    HW2 9146   1.672   3.889   6.417
 1483SOL     OW 9147   5.434   1.519   6.628
 1483SOL    HW1 9148   5.418   1.618   6.627
 1483SOL    HW2 9149   5.418   1.482   6.536
 1484SOL     OW 9150   3.658   3.484   0.902
 1484SOL    HW1 9151   3.738   3.425   0.908
 1484SOL    HW2 9152   3.577   3.433   0.929
 1485SOL     OW 9153   0.052   2.407   0.280
 1485SOL    HW1 9154   0.137   2.373   0.318
 1485SOL    HW2 9155   0.022   2.487   0.332
 1486SOL     OW 9156   0.325   0.029   0.603
 1486SOL    HW1 9157   0.322   0.037   0.504
 1486SOL    HW2 9158   0.233   0.035   0.641
 1487SOL     OW 9159   5.177   2.653   0.430
 1487SOL    HW1 9160   5.146   2.727   0.370
 1487SOL    HW2 9161   5.099   2.594   0.451
 1488SOL     OW 9162   2.552   3.211   1.581
 1488SOL    HW1 9163   2.493   3.180   1.656
 1488SOL    HW2 9164   2.648   3.199   1.608
 1489SOL     OW 9165   4.586   5.583   1.329
 1489SOL    HW1 9166   4.605   0.071   1.303
 1489SOL    HW2 9167   4.488   5.566   1.323
 1490SOL     OW 9168   2.560   0.365   6.091
 1490SOL    HW1 9169   2.490   0.325   6.150
 1490SOL    HW2 9170   2.650   0.333   6.119
 1491SOL     OW 9171   4.686   0.490   1.376
 1491SOL    HW1 9172   4.785   0.479   1.369
 1491SOL    HW2 9173   4.657   0.472   1.470
 1492SOL     OW 9174   5.639   2.748   0.930
 1492SOL    HW1 9175   0.005   2.820   0.885
 1492SOL    HW2 9176   5.659   2.660   0.887
 1493SOL     OW 9177   1.480   4.222   0.144
 1493SOL    HW1 9178   1.571   4.181   0.150
 1493SOL    HW2 9179   1.485   4.317   0.175
 1494SOL     OW 9180   5.562   1.739   0.530
 1494SOL    HW1 9181   5.604   1.828   0.513
 1494SOL    HW2 9182   5.569   1.682   0.448
 1495SOL     OW 9183   1.616   1.119   5.964
 1495SOL    HW1 9184   1.547   1.178   6.005
 1495SOL    HW2 9185   1.592   1.023   5.979
 1496SOL     OW 9186   0.120   3.377   6.162
 1496SOL    HW1 9187   0.070   3.344   6.082
 1496SOL    HW2 9188   0.057   3.388   6.239
 1497SOL     OW 9189   2.879   4.299   1.296
 1497SOL    HW1 9190   2.817   4.315   1.373
 1497SOL    HW2 9191   2.965   4.262   1.330
 1498SOL     OW 9192   1.730   0.059   5.911
 1498SOL    HW1 9193   1.773   0.025   5.994
 1498SOL    HW2 9194   1.742   5.599   5.837
 1499SOL     OW 9195   4.858   4.717   5.767
 1499SOL    HW1 9196   4.879   4.760   5.854
 1499SOL    HW2 9197   4.914   4.635   5.755
 1500SOL     OW 9198   2.136   3.635   6.385
 1500SOL    HW1 9199   2.119   3.656   6.481
 1500SOL    HW2 9200   2.223   3.589   6.375
 1501SOL     OW 9201   5.643   3.901   0.759
 1501SOL    HW1 9202   5.610   3.913   0.853
 1501SOL    HW2 9203   5.566   3.913   0.695
 1502SOL     OW 9204   0.244   1.458   6.531
 1502SOL    HW1 9205   0.283   1.438   6.442
 1502SOL    HW2 9206   0.183   1.384   6.559
 1503SOL     OW 9207   4.436   5.195   1.110
 1503SOL    HW1 9208   4.405   5.211   1.016
 1503SOL    HW2 9209   4.511   5.258   1.131
 1504SOL     OW 9210   5.626   4.281   6.467
 1504SOL    HW1 9211   5.610   4.378   6.448
 1504SOL    HW2 9212   5.541   4.238   6.495
 1505SOL     OW 9213   4.193   1.116   0.916
 1505SOL    HW1 9214   4.166   1.198   0.866
 1505SOL    HW2 9215   4.268   1.071   0.868
 1506SOL     OW 9216   4.260   1.799   6.209
 1506SOL    HW1 9217   4.309   1.791   6.295
 1506SOL    HW2 9218   4.283   1.722   6.150
 1507SOL     OW 9219   4.617   4.353   0.632
 1507SOL    HW1 9220   4.531   4.377   0.587
 1507SOL    HW2 9221   4.629   4.254   0.628
 1508SOL     OW 9222   5.584   5.316   1.909
 1508SOL    HW1 9223   5.532   5.322   1.994
 1508SOL    HW2 9224   5.637   5.232   1.908
 1509SOL     OW 9225   1.144   4.140   1.084
 1509SOL    HW1 9226   1.216   4.200   1.119
 1509SOL    HW2 9227   1.054   4.179   1.104
 1510SOL     OW 9228   2.598   0.805   1.046
 1510SOL    HW1 9229   2.661   0.874   1.080
 1510SOL    HW2 9230   2.516   0.849   1.009
 1511SOL     OW 9231   0.178   2.481   6.448
 1511SOL    HW1 9232   0.156   2.538   6.527
 1511SOL    HW2 9233   0.098   2.428   6.421
 1512SOL     OW 9234   4.980   0.711   6.126
 1512SOL    HW1 9235   4.900   0.769   6.143
 1512SOL    HW2 9236   5.054   0.738   6.188
 1513SOL     OW 9237   3.601   1.826   1.527
 1513SOL    HW1 9238   3.587   1.853   1.432
 1513SOL    HW2 9239   3.521   1.774   1.559
 1514SOL     OW 9240   2.196   2.706   0.317
 1514SOL    HW1 9241   2.286   2.704   0.274
 1514SOL    HW2 9242   2.127   2.730   0.249
 1515SOL     OW 9243   3.681   1.379   6.800
 1515SOL    HW1 9244   3.616   1.423   0.004
 1515SOL    HW2 9245   3.740   1.449   6.759
 1516SOL     OW 9246   0.977   5.126   1.246
 1516SOL    HW1 9247   0.917   5.111   1.325
 1516SOL    HW2 9248   1.039   5.202   1.265
 1517SOL     OW 9249   2.609   3.248   2.010
 1517SOL    HW1 9250   2.704   3.220   2.009
 1517SOL    HW2 9251   2.578   3.260   2.104
 1518SOL     OW 9252   3.726   1.181   0.776
 1518SOL    HW1 9253   3.770   1.264   0.808
 1518SOL    HW2 9254   3.663   1.203   0.701
 1519SOL     OW 9255   4.683   2.677   6.371
 1519SOL    HW1 9256   4.671   2.580   6.392
 1519SOL    HW2 9257   4.653   2.732   6.449
 1520SOL     OW 9258   0.279   0.023   5.075
 1520SOL    HW1 9259   0.327   5.544   5.059
 1520SOL    HW2 9260   0.196   0.025   5.018
 1521SOL     OW 9261   1.957   3.070   5.968
 1521SOL    HW1 9262   1.960   3.076   5.868
 1521SOL    HW2 9263   2.042   3.106   6.006
 1522SOL     OW 9264   5.664   4.202   6.199
 1522SOL    HW1 9265   0.005   4.289   6.158
 1522SOL    HW2 9266   5.654   4.214   6.298
 1523SOL     OW 9267   3.793   1.172   1.732
 1523SOL    HW1 9268   3.816   1.078   1.708
 1523SOL    HW2 9269   3.759   1.220   1.651
 1524SOL     OW 9270   0.066   2.733   1.186
 1524SOL    HW1 9271   0.020   2.729   1.097
 1524SOL    HW2 9272   0.145   2.672   1.186
 1525SOL     OW 9273   4.707   0.292   6.607
 1525SOL    HW1 9274   4.693   0.360   6.678
 1525SOL    HW2 9275   4.721   0.339   6.519
 1526SOL     OW 9276   4.137   3.476   0.873
 1526SOL    HW1 9277   4.186   3.394   0.902
 1526SOL    HW2 9278   4.188   3.521   0.799
 1527SOL     OW 9279   4.199   5.087   6.658
 1527SOL    HW1 9280   4.206   5.053   6.751
 1527SOL    HW2 9281   4.159   5.016   6.600
 1528SOL     OW 9282   0.261   2.835   6.707
 1528SOL    HW1 9283   0.209   2.899   6.764
 1528SOL    HW2 9284   0.201   2.761   6.677
 1529SOL     OW 9285   2.432   3.514   5.821
 1529SOL    HW1 9286   2.459   3.610   5.830
 1529SOL    HW2 9287   2.365   3.491   5.891
 1530SOL     OW 9288   3.194   0.276   0.618
 1530SOL    HW1 9289   3.196   0.329   0.702
 1530SOL    HW2 9290   3.167   0.182   0.638
 1531SOL     OW 9291   0.148   0.868   6.244
 1531SOL    HW1 9292   0.116   0.798   6.180
 1531SOL    HW2 9293   0.238   0.900   6.216
 1532SOL     OW 9294   1.463   2.908   1.399
 1532SOL    HW1 9295   1.441   2.925   1.495
 1532SOL    HW2 9296   1.469   2.995   1.350
 1533SOL     OW 9297   4.368   0.342   1.024
 1533SOL    HW1 9298   4.296   0.375   1.086
 1533SOL    HW2 9299   4.376   0.243   1.032
 1534SOL     OW 9300   4.979   3.632   1.311
 1534SOL    HW1 9301   4.881   3.623   1.292
 1534SOL    HW2 9302   5.031   3.605   1.230
 1535SOL     OW 9303   2.181   1.493   0.439
 1535SOL    HW1 9304   2.152   1.402   0.411
 1535SOL    HW2 9305   2.106   1.537   0.490
 1536SOL     OW 9306   1.800   1.831   0.166
 1536SOL    HW1 9307   1.815   1.886   0.084
 1536SOL    HW2 9308   1.860   1.751   0.164
 1537SOL     OW 9309   1.050   2.072   0.369
 1537SOL    HW1 9310   1.073   2.032   0.280
 1537SOL    HW2 9311   0.974   2.135   0.358
 1538SOL     OW 9312   1.122   1.696   1.344
 1538SOL    HW1 9313   1.052   1.635   1.307
 1538SOL    HW2 9314   1.082   1.785   1.365
 1539SOL     OW 9315   2.142   3.112   6.360
 1539SOL    HW1 9316   2.043   3.120   6.358
 1539SOL    HW2 9317   2.179   3.126   6.269
 1540SOL     OW 9318   2.224   2.225   5.968
 1540SOL    HW1 9319   2.226   2.324   5.981
 1540SOL    HW2 9320   2.318   2.190   5.968
 1541SOL     OW 9321   1.703   2.950   0.737
 1541SOL    HW1 9322   1.788   2.900   0.722
 1541SOL    HW2 9323   1.635   2.888   0.776
 1542SOL     OW 9324   3.221   5.109   6.216
 1542SOL    HW1 9325   3.271   5.078   6.135
 1542SOL    HW2 9326   3.282   5.162   6.275
 1543SOL     OW 9327   2.799   0.725   0.126
 1543SOL    HW1 9328   2.740   0.726   0.045
 1543SOL    HW2 9329   2.747   0.693   0.205
 1544SOL     OW 9330   0.666   4.170   1.242
 1544SOL    HW1 9331   0.642   4.185   1.338
 1544SOL    HW2 9332   0.600   4.216   1.183
 1545SOL     OW 9333   0.694   4.126   0.064
 1545SOL    HW1 9334   0.726   4.221   0.060
 1545SOL    HW2 9335   0.642   4.105   6.838
 1546SOL     OW 9336   0.788   3.711   0.701
 1546SOL    HW1 9337   0.780   3.717   0.801
 1546SOL    HW2 9338   0.815   3.618   0.675
 1547SOL     OW 9339   3.624   3.554   5.959
 1547SOL    HW1 9340   3.713   3.558   6.004
 1547SOL    HW2 9341   3.566   3.627   5.994
 1548SOL     OW 9342   4.827   4.689   1.111
 1548SOL    HW1 9343   4.771   4.610   1.134
 1548SOL    HW2 9344   4.923   4.667   1.127
 1549SOL     OW 9345   1.337   1.816   6.015
 1549SOL    HW1 9346   1.319   1.901   5.966
 1549SOL    HW2 9347   1.370   1.837   6.107
 1550SOL     OW 9348   1.027   5.565   6.233
 1550SOL    HW1 9349   1.022   5.467   6.214
 1550SOL    HW2 9350   1.060   5.579   6.326
 1551SOL     OW 9351   5.333   2.270   6.145
 1551SOL    HW1 9352   5.265   2.294   6.214
 1551SOL    HW2 9353   5.288   2.227   6.066
 1552SOL     OW 9354   1.073   0.984   1.457
 1552SOL    HW1 9355   1.053   0.886   1.465
 1552SOL    HW2 9356   1.023   1.034   1.528
 1553SOL     OW 9357   3.664   3.369   5.763
 1553SOL    HW1 9358   3.576   3.355   5.716
 1553SOL    HW2 9359   3.650   3.432   5.840
 1554SOL     OW 9360   2.517   1.695   1.034
 1554SOL    HW1 9361   2.454   1.749   0.978
 1554SOL    HW2 9362   2.559   1.754   1.103
 1555SOL     OW 9363   1.437   2.638   0.326
 1555SOL    HW1 9364   1.481   2.697   0.394
 1555SOL    HW2 9365   1.492   2.637   0.242
 1556SOL     OW 9366   2.882   5.071   0.757
 1556SOL    HW1 9367   2.968   5.053   0.709
 1556SOL    HW2 9368   2.869   5.003   0.829
 1557SOL     OW 9369   3.558   5.408   0.666
 1557SOL    HW1 9370   3.533   5.377   0.758
 1557SOL    HW2 9371   3.650   5.375   0.644
 1558SOL     OW 9372   3.808   2.989   0.514
 1558SOL    HW1 9373   3.897   2.986   0.469
 1558SOL    HW2 9374   3.785   3.083   0.537
 1559SOL     OW 9375   4.203   1.765   1.023
 1559SOL    HW1 9376   4.205   1.695   0.951
 1559SOL    HW2 9377   4.209   1.721   1.113
 1560SOL     OW 9378   3.454   1.601   6.547
 1560SOL    HW1 9379   3.413   1.587   6.457
 1560SOL    HW2 9380   3.395   1.559   6.617
 1561SOL     OW 9381   0.776   0.009   1.590
 1561SOL    HW1 9382   0.723   5.572   1.662
 1561SOL    HW2 9383   0.794   5.549   1.517
 1562SOL     OW 9384   2.367   4.806   6.440
 1562SOL    HW1 9385   2.382   4.879   6.506
 1562SOL    HW2 9386   2.390   4.839   6.348
 1563SOL     OW 9387   1.213   1.315   1.187
 1563SOL    HW1 9388   1.238   1.249   1.258
 1563SOL    HW2 9389   1.294   1.367   1.160
 1564SOL     OW 9390   0.384   1.404   1.096
 1564SOL    HW1 9391   0.395   1.370   1.003
 1564SOL    HW2 9392   0.389   1.504   1.096
 1565SOL     OW 9393   0.812   4.073   0.434
 1565SOL    HW1 9394   0.894   4.128   0.422
 1565SOL    HW2 9395   0.731   4.129   0.414
 1566SOL     OW 9396   4.579   3.370   1.209
 1566SOL    HW1 9397   4.566   3.272   1.190
 1566SOL    HW2 9398   4.557   3.389   1.304
 1567SOL     OW 9399   3.282   1.520   0.380
 1567SOL    HW1 9400   3.244   1.443   0.432
 1567SOL    HW2 9401   3.332   1.486   0.301
 1568SOL     OW 9402   5.183   0.405   6.527
 1568SOL    HW1 9403   5.175   0.353   6.443
 1568SOL    HW2 9404   5.133   0.492   6.517
 1569SOL     OW 9405   4.437   0.225   1.492
 1569SOL    HW1 9406   4.487   0.218   1.406
 1569SOL    HW2 9407   4.348   0.181   1.483
 1570SOL     OW 9408   0.803   4.859   1.834
 1570SOL    HW1 9409   0.900   4.855   1.857
 1570SOL    HW2 9410   0.760   4.935   1.882
 1571SOL     OW 9411   5.530   1.854   6.821
 1571SOL    HW1 9412   5.626   1.828   6.833
 1571SOL    HW2 9413   5.521   1.953   6.831
 1572SOL     OW 9414   0.290   3.758   1.610
 1572SOL    HW1 9415   0.259   3.827   1.676
 1572SOL    HW2 9416   0.331   3.681   1.658
 1573SOL     OW 9417   4.711   2.475   0.018
 1573SOL    HW1 9418   4.658   2.454   0.100
 1573SOL    HW2 9419   4.716   2.575   0.007
 1574SOL     OW 9420   4.113   0.152   0.032
 1574SOL    HW1 9421   4.172   0.127   0.108
 1574SOL    HW2 9422   4.141   0.240   6.851
 1575SOL     OW 9423   4.767   1.446   6.763
 1575SOL    HW1 9424   4.786   1.528   6.709
 1575SOL    HW2 9425   4.740   1.372   6.702
 1576SOL     OW 9426   1.974   2.522   0.906
 1576SOL    HW1 9427   1.909   2.546   0.834
 1576SOL    HW2 9428   2.027   2.603   0.931
 1577SOL     OW 9429   5.644   4.920   6.712
 1577SOL    HW1 9430   0.051   4.957   6.710
 1577SOL    HW2 9431   5.619   4.886   6.621
 1578SOL     OW 9432   0.635   1.194   0.801
 1578SOL    HW1 9433   0.537   1.197   0.819
 1578SOL    HW2 9434   0.654   1.243   0.716
 1579SOL     OW 9435   1.770   4.533   6.184
 1579SOL    HW1 9436   1.840   4.462   6.196
 1579SOL    HW2 9437   1.779   4.601   6.256
 1580SOL     OW 9438   2.417   4.472   0.983
 1580SOL    HW1 9439   2.405   4.388   1.037
 1580SOL    HW2 9440   2.353   4.541   1.014
 1581SOL     OW 9441   5.666   4.138   2.272
 1581SOL    HW1 9442   5.674   4.203   2.347
 1581SOL    HW2 9443   0.043   4.164   2.199
 1582SOL     OW 9444   2.612   0.520   5.424
 1582SOL    HW1 9445   2.640   0.431   5.460
 1582SOL    HW2 9446   2.683   0.588   5.442
 1583SOL     OW 9447   4.638   3.062   6.427
 1583SOL    HW1 9448   4.668   3.114   6.347
 1583SOL    HW2 9449   4.539   3.051   6.424
 1584SOL     OW 9450   1.358   5.138   5.855
 1584SOL    HW1 9451   1.259   5.134   5.868
 1584SOL    HW2 9452   1.380   5.211   5.790
 1585SOL     OW 9453   0.794   3.762   0.963
 1585SOL    HW1 9454   0.864   3.719   1.020
 1585SOL    HW2 9455   0.734   3.818   1.021
 1586SOL     OW 9456   5.612   4.546   1.169
 1586SOL    HW1 9457   5.527   4.588   1.137
 1586SOL    HW2 9458   5.642   4.591   1.253
 1587SOL     OW 9459   3.353   3.058   0.531
 1587SOL    HW1 9460   3.261   3.020   0.523
 1587SOL    HW2 9461   3.368   3.124   0.457
 1588SOL     OW 9462   2.682   1.302   0.211
 1588SOL    HW1 9463   2.643   1.228   0.267
 1588SOL    HW2 9464   2.780   1.284   0.197
 1589SOL     OW 9465   2.490   4.337   6.684
 1589SOL    HW1 9466   2.497   4.395   6.603
 1589SOL    HW2 9467   2.453   4.390   6.760
 1590SOL     OW 9468   5.683   5.221   4.963
 1590SOL    HW1 9469   0.078   5.216   5.022
 1590SOL    HW2 9470   5.667   5.132   4.921
 1591SOL     OW 9471   1.330   5.182   0.428
 1591SOL    HW1 9472   1.247   5.139   0.393
 1591SOL    HW2 9473   1.308   5.271   0.467
 1592SOL     OW 9474   4.284   1.966   0.835
 1592SOL    HW1 9475   4.264   1.905   0.911
 1592SOL    HW2 9476   4.375   2.005   0.845
 1593SOL     OW 9477   0.840   1.782   0.756
 1593SOL    HW1 9478   0.763   1.841   0.777
 1593SOL    HW2 9479   0.911   1.835   0.709
 1594SOL     OW 9480   1.737   1.590   1.455
 1594SOL    HW1 9481   1.832   1.603   1.482
 1594SOL    HW2 9482   1.677   1.613   1.532
 1595SOL     OW 9483   2.066   1.103   6.435
 1595SOL    HW1 9484   2.155   1.061   6.418
 1595SOL    HW2 9485   2.022   1.125   6.348
 1596SOL     OW 9486   2.826   0.264   1.223
 1596SOL    HW1 9487   2.780   0.208   1.292
 1596SOL    HW2 9488   2.924   0.262   1.238
 1597SOL     OW 9489   4.564   0.426   1.620
 1597SOL    HW1 9490   4.518   0.349   1.574
 1597SOL    HW2 9491   4.558   0.414   1.719
 1598SOL     OW 9492   0.149   1.434   0.297
 1598SOL    HW1 9493   0.237   1.477   0.320
 1598SOL    HW2 9494   0.145   1.342   0.334
 1599SOL     OW 9495   1.572   2.849   0.461
 1599SOL    HW1 9496   1.537   2.896   0.542
 1599SOL    HW2 9497   1.672   2.854   0.461
 1600SOL     OW 9498   1.597   0.727   1.078
 1600SOL    HW1 9499   1.584   0.759   0.984
 1600SOL    HW2 9500   1.673   0.662   1.080
 1601SOL     OW 9501   3.653   3.019   6.338
 1601SOL    HW1 9502   3.655   2.920   6.331
 1601SOL    HW2 9503   3.738   3.057   6.301
 1602SOL     OW 9504   1.235   0.266   0.014
 1602SOL    HW1 9505   1.299   0.205   6.824
 1602SOL    HW2 9506   1.165   0.211   0.059
 1603SOL     OW 9507   1.298   1.223   0.695
 1603SOL    HW1 9508   1.358   1.225   0.775
 1603SOL    HW2 9509   1.350   1.197   0.614
 1604SOL     OW 9510   0.655   0.495   1.602
 1604SOL    HW1 9511   0.570   0.530   1.642
 1604SOL    HW2 9512   0.728   0.502   1.670
 1605SOL     OW 9513   0.538   5.444   0.898
 1605SOL    HW1 9514   0.467   5.511   0.919
 1605SOL    HW2 9515   0.612   5.450   0.966
 1606SOL     OW 9516   0.142   3.740   0.350
 1606SOL    HW1 9517   0.207   3.813   0.330
 1606SOL    HW2 9518   0.178   3.683   0.425
 1607SOL     OW 9519   1.284   4.377   0.368
 1607SOL    HW1 9520   1.343   4.431   0.307
 1607SOL    HW2 9521   1.249   4.437   0.440
 1608SOL     OW 9522   3.629   1.720   0.436
 1608SOL    HW1 9523   3.597   1.731   0.342
 1608SOL    HW2 9524   3.551   1.702   0.496
 1609SOL     OW 9525   1.755   4.027   1.173
 1609SOL    HW1 9526   1.660   4.025   1.202
 1609SOL    HW2 9527   1.774   3.950   1.112
 1610SOL     OW 9528   5.319   2.053   6.330
 1610SOL    HW1 9529   5.227   2.055   6.292
 1610SOL    HW2 9530   5.377   2.119   6.283
 1611SOL     OW 9531   1.413   1.284   5.450
 1611SOL    HW1 9532   1.506   1.307   5.422
 1611SOL    HW2 9533   1.349   1.350   5.410
 1612SOL     OW 9534   5.552   3.443   6.292
 1612SOL    HW1 9535   5.511   3.480   6.376
 1612SOL    HW2 9536   5.511   3.353   6.272
 1613SOL     OW 9537   1.946   1.599   0.133
 1613SOL    HW1 9538   1.916   1.507   0.160
 1613SOL    HW2 9539   1.937   1.608   0.034
 1614SOL     OW 9540   0.966   3.284   1.733
 1614SOL    HW1 9541   0.874   3.324   1.732
 1614SOL    HW2 9542   1.032   3.351   1.698
 1615SOL     OW 9543   4.103   0.395   6.520
 1615SOL    HW1 9544   4.193   0.424   6.488
 1615SOL    HW2 9545   4.059   0.340   6.450
 1616SOL     OW 9546   0.026   2.200   6.196
 1616SOL    HW1 9547   0.053   2.218   6.102
 1616SOL    HW2 9548   0.089   2.134   6.237
 1617SOL     OW 9549   1.647   1.379   5.345
 1617SOL    HW1 9550   1.683   1.301   5.293
 1617SOL    HW2 9551   1.716   1.451   5.349
 1618SOL     OW 9552   3.946   1.690   5.534
 1618SOL    HW1 9553   3.960   1.598   5.497
 1618SOL    HW2 9554   3.987   1.758   5.473
 1619SOL     OW 9555   4.299   0.040   0.676
 1619SOL    HW1 9556   4.366   0.114   0.681
 1619SOL    HW2 9557   4.236   0.047   0.752
 1620SOL     OW 9558   0.691   2.935   0.568
 1620SOL    HW1 9559   0.764   2.979   0.515
 1620SOL    HW2 9560   0.602   2.958   0.528
 1621SOL     OW 9561   2.039   1.150   0.593
 1621SOL    HW1 9562   2.056   1.191   0.503
 1621SOL    HW2 9563   1.994   1.216   0.652
 1622SOL     OW 9564   3.105   4.140   0.893
 1622SOL    HW1 9565   3.016   4.095   0.894
 1622SOL    HW2 9566   3.177   4.071   0.905
 1623SOL     OW 9567   2.694   4.824   6.379
 1623SOL    HW1 9568   2.602   4.865   6.383
 1623SOL    HW2 9569   2.737   4.829   6.469
 1624SOL     OW 9570   0.248   0.308   0.401
 1624SOL    HW1 9571   0.262   0.215   0.366
 1624SOL    HW2 9572   0.337   0.354   0.407
 1625SOL     OW 9573   2.157   5.012   1.246
 1625SOL    HW1 9574   2.135   5.098   1.293
 1625SOL    HW2 9575   2.174   5.031   1.150
 1626SOL     OW 9576   0.451   3.634   1.288
 1626SOL    HW1 9577   0.525   3.675   1.341
 1626SOL    HW2 9578   0.490   3.594   1.204
 1627SOL     OW 9579   4.353   1.900   6.537
 1627SOL    HW1 9580   4.321   1.824   6.594
 1627SOL    HW2 9581   4.451   1.889   6.519
 1628SOL     OW 9582   0.300   3.808   6.032
 1628SOL    HW1 9583   0.259   3.898   6.043
 1628SOL    HW2 9584   0.296   3.780   5.936
 1629SOL     OW 9585   3.251   2.901   0.120
 1629SOL    HW1 9586   3.164   2.941   0.147
 1629SOL    HW2 9587   3.284   2.840   0.193
 1630SOL     OW 9588   5.491   4.302   1.187
 1630SOL    HW1 9589   5.419   4.307   1.118
 1630SOL    HW2 9590   5.547   4.385   1.184
 1631SOL     OW 9591   4.497   5.140   5.819
 1631SOL    HW1 9592   4.594   5.119   5.824
 1631SOL    HW2 9593   4.479   5.200   5.741
 1632SOL     OW 9594   4.178   2.846   1.609
 1632SOL    HW1 9595   4.157   2.889   1.697
 1632SOL    HW2 9596   4.265   2.797   1.616
 1633SOL     OW 9597   2.072   2.724   1.905
 1633SOL    HW1 9598   2.143   2.744   1.973
 1633SOL    HW2 9599   1.990   2.691   1.953
 1634SOL     OW 9600   3.896   0.435   1.128
 1634SOL    HW1 9601   3.829   0.467   1.060
 1634SOL    HW2 9602   3.863   0.455   1.220
 1635SOL     OW 9603   4.798   3.160   0.776
 1635SOL    HW1 9604   4.869   3.187   0.841
 1635SOL    HW2 9605   4.824   3.075   0.731
 1636SOL     OW 9606   0.009   4.335   0.534
 1636SOL    HW1 9607   5.645   4.256   0.499
 1636SOL    HW2 9608   0.087   4.354   0.475
 1637SOL     OW 9609   5.630   5.519   5.592
 1637SOL    HW1 9610   5.613   5.516   5.493
 1637SOL    HW2 9611   5.553   5.478   5.640
 1638SOL     OW 9612   3.944   0.598   0.109
 1638SOL    HW1 9613   3.864   0.651   0.137
 1638SOL    HW2 9614   3.937   0.576   0.012
 1639SOL     OW 9615   5.665   2.778   6.315
 1639SOL    HW1 9616   0.055   2.725   6.277
 1639SOL    HW2 9617   0.015   2.850   6.374
 1640SOL     OW 9618   5.403   2.807   1.725
 1640SOL    HW1 9619   5.498   2.839   1.727
 1640SOL    HW2 9620   5.342   2.881   1.753
 1641SOL     OW 9621   3.174   2.277   0.805
 1641SOL    HW1 9622   3.268   2.294   0.834
 1641SOL    HW2 9623   3.149   2.343   0.734
 1642SOL     OW 9624   3.699   1.857   6.357
 1642SOL    HW1 9625   3.623   1.868   6.421
 1642SOL    HW2 9626   3.709   1.939   6.301
 1643SOL     OW 9627   1.960   2.856   0.698
 1643SOL    HW1 9628   1.970   2.888   0.792
 1643SOL    HW2 9629   2.048   2.823   0.664
 1644SOL     OW 9630   4.763   1.536   5.259
 1644SOL    HW1 9631   4.854   1.499   5.274
 1644SOL    HW2 9632   4.695   1.481   5.309
 1645SOL     OW 9633   1.446   4.303   6.422
 1645SOL    HW1 9634   1.488   4.365   6.488
 1645SOL    HW2 9635   1.373   4.251   6.467
 1646SOL     OW 9636   5.080   5.224   6.191
 1646SOL    HW1 9637   5.147   5.297   6.186
 1646SOL    HW2 9638   5.030   5.230   6.277
 1647SOL     OW 9639   2.689   2.434   0.434
 1647SOL    HW1 9640   2.739   2.412   0.518
 1647SOL    HW2 9641   2.609   2.489   0.456
 1648SOL     OW 9642   0.336   0.543   0.105
 1648SOL    HW1 9643   0.385   0.616   0.152
 1648SOL    HW2 9644   0.393   0.460   0.102
 1649SOL     OW 9645   4.247   1.803   0.258
 1649SOL    HW1 9646   4.317   1.787   0.188
 1649SOL    HW2 9647   4.264   1.892   0.302
 1650SOL     OW 9648   4.757   3.770   6.618
 1650SOL    HW1 9649   4.738   3.686   6.567
 1650SOL    HW2 9650   4.776   3.747   6.713
 1651SOL     OW 9651   0.114   0.596   1.050
 1651SOL    HW1 9652   0.162   0.532   0.989
 1651SOL    HW2 9653   0.180   0.635   1.115
 1652SOL     OW 9654   2.272   1.067   5.893
 1652SOL    HW1 9655   2.281   1.073   5.793
 1652SOL    HW2 9656   2.266   1.159   5.931
 1653SOL     OW 9657   3.528   5.409   6.846
 1653SOL    HW1 9658   3.439   5.443   0.019
 1653SOL    HW2 9659   3.593   5.412   0.064
 1654SOL     OW 9660   4.180   4.260   0.209
 1654SOL    HW1 9661   4.247   4.188   0.223
 1654SOL    HW2 9662   4.142   4.253   0.117
 1655SOL     OW 9663   1.020   0.256   2.436
 1655SOL    HW1 9664   0.941   0.215   2.390
 1655SOL    HW2 9665   1.023   0.227   2.531
 1656SOL     OW 9666   2.030   3.440   6.663
 1656SOL    HW1 9667   2.050   3.539   6.659
 1656SOL    HW2 9668   1.950   3.425   6.721
 1657SOL     OW 9669   3.432   3.503   6.558
 1657SOL    HW1 9670   3.473   3.589   6.529
 1657SOL    HW2 9671   3.477   3.427   6.511
 1658SOL     OW 9672   0.146   5.180   6.184
 1658SOL    HW1 9673   0.233   5.192   6.136
 1658SOL    HW2 9674   0.133   5.256   6.248
 1659SOL     OW 9675   2.279   5.254   6.668
 1659SOL    HW1 9676   2.312   5.338   6.623
 1659SOL    HW2 9677   2.284   5.265   6.767
 1660SOL     OW 9678   5.036   2.396   6.110
 1660SOL    HW1 9679   5.087   2.335   6.048
 1660SOL    HW2 9680   5.048   2.491   6.081
 1661SOL     OW 9681   5.280   0.178   0.158
 1661SOL    HW1 9682   5.268   0.085   0.123
 1661SOL    HW2 9683   5.244   0.244   0.092
 1662SOL     OW 9684   2.806   2.405   0.691
 1662SOL    HW1 9685   2.799   2.323   0.748
 1662SOL    HW2 9686   2.903   2.423   0.670
 1663SOL     OW 9687   4.939   3.043   1.763
 1663SOL    HW1 9688   4.918   3.072   1.670
 1663SOL    HW2 9689   4.963   3.123   1.818
 1664SOL     OW 9690   1.078   2.725   1.032
 1664SOL    HW1 9691   0.990   2.768   1.009
 1664SOL    HW2 9692   1.135   2.791   1.081
 1665SOL     OW 9693   0.088   2.974   6.460
 1665SOL    HW1 9694   0.044   3.063   6.450
 1665SOL    HW2 9695   0.186   2.987   6.472
 1666SOL     OW 9696   4.670   1.048   0.040
 1666SOL    HW1 9697   4.610   0.983   0.088
 1666SOL    HW2 9698   4.739   0.997   6.845
 1667SOL     OW 9699   1.246   3.842   6.314
 1667SOL    HW1 9700   1.304   3.923   6.319
 1667SOL    HW2 9701   1.168   3.853   6.376
 1668SOL     OW 9702   1.323   0.014   1.187
 1668SOL    HW1 9703   1.358   5.530   1.207
 1668SOL    HW2 9704   1.225   0.018   1.209
 1669SOL     OW 9705   5.024   2.846   0.917
 1669SOL    HW1 9706   5.001   2.864   1.013
 1669SOL    HW2 9707   5.071   2.926   0.879
 1670SOL     OW 9708   5.001   3.903   0.023
 1670SOL    HW1 9709   5.089   3.875   6.841
 1670SOL    HW2 9710   4.976   3.993   6.845
 1671SOL     OW 9711   5.191   2.690   1.588
 1671SOL    HW1 9712   5.271   2.734   1.628
 1671SOL    HW2 9713   5.109   2.716   1.640
 1672SOL     OW 9714   3.285   1.967   1.279
 1672SOL    HW1 9715   3.190   1.940   1.296
 1672SOL    HW2 9716   3.287   2.057   1.235
 1673SOL     OW 9717   3.343   0.027   5.928
 1673SOL    HW1 9718   3.261   5.584   5.956
 1673SOL    HW2 9719   3.317   0.117   5.894
 1674SOL     OW 9720   2.177   4.278   0.158
 1674SOL    HW1 9721   2.192   4.180   0.169
 1674SOL    HW2 9722   2.170   4.300   0.061
 1675SOL     OW 9723   0.469   1.149   6.399
 1675SOL    HW1 9724   0.415   1.222   6.357
 1675SOL    HW2 9725   0.484   1.170   6.496
 1676SOL     OW 9726   5.431   4.074   1.576
 1676SOL    HW1 9727   5.359   4.028   1.524
 1676SOL    HW2 9728   5.452   4.162   1.533
 1677SOL     OW 9729   2.805   2.097   6.292
 1677SOL    HW1 9730   2.836   2.003   6.282
 1677SOL    HW2 9731   2.876   2.151   6.337
 1678SOL     OW 9732   1.071   3.568   0.424
 1678SOL    HW1 9733   1.020   3.653   0.407
 1678SOL    HW2 9734   1.169   3.587   0.422
 1679SOL     OW 9735   1.406   1.967   1.096
 1679SOL    HW1 9736   1.368   2.047   1.143
 1679SOL    HW2 9737   1.377   1.884   1.142
 1680SOL     OW 9738   0.351   1.146   5.627
 1680SOL    HW1 9739   0.451   1.140   5.631
 1680SOL    HW2 9740   0.313   1.057   5.602
 1681SOL     OW 9741   0.417   0.312   1.845
 1681SOL    HW1 9742   0.441   0.404   1.814
 1681SOL    HW2 9743   0.325   0.313   1.883
 1682SOL     OW 9744   4.347   2.563   1.389
 1682SOL    HW1 9745   4.370   2.619   1.469
 1682SOL    HW2 9746   4.420   2.570   1.321
 1683SOL     OW 9747   0.207   3.407   1.614
 1683SOL    HW1 9748   0.276   3.456   1.667
 1683SOL    HW2 9749   0.188   3.319   1.657
 1684SOL     OW 9750   1.595   0.316   5.155
 1684SOL    HW1 9751   1.522   0.366   5.108
 1684SOL    HW2 9752   1.674   0.308   5.095
 1685SOL     OW 9753   1.534   3.489   1.471
 1685SOL    HW1 9754   1.568   3.428   1.543
 1685SOL    HW2 9755   1.520   3.581   1.509
 1686SOL     OW 9756   2.404   1.194   6.516
 1686SOL    HW1 9757   2.373   1.108   6.476
 1686SOL    HW2 9758   2.403   1.266   6.447
 1687SOL     OW 9759   1.719   0.562   1.733
 1687SOL    HW1 9760   1.741   0.469   1.762
 1687SOL    HW2 9761   1.643   0.598   1.788
 1688SOL     OW 9762   2.967   1.097   1.009
 1688SOL    HW1 9763   2.969   1.197   0.999
 1688SOL    HW2 9764   2.883   1.071   1.056
 1689SOL     OW 9765   2.214   1.382   2.034
 1689SOL    HW1 9766   2.162   1.459   2.073
 1689SOL    HW2 9767   2.282   1.351   2.100
 1690SOL     OW 9768   0.610   4.234   1.507
 1690SOL    HW1 9769   0.596   4.333   1.503
 1690SOL    HW2 9770   0.533   4.191   1.556
 1691SOL     OW 9771   4.370   0.154   5.262
 1691SOL    HW1 9772   4.287   0.208   5.250
 1691SOL    HW2 9773   4.359   0.065   5.218
 1692SOL     OW 9774   5.526   1.149   0.407
 1692SOL    HW1 9775   5.465   1.140   0.328
 1692SOL    HW2 9776   5.503   1.232   0.457
 1693SOL     OW 9777   3.582   0.957   1.987
 1693SOL    HW1 9778   3.642   0.881   2.012
 1693SOL    HW2 9779   3.529   0.932   1.905
 1694SOL     OW 9780   4.034   4.818   1.461
 1694SOL    HW1 9781   3.971   4.894   1.455
 1694SOL    HW2 9782   4.110   4.842   1.522
 1695SOL     OW 9783   3.511   1.268   0.614
 1695SOL    HW1 9784   3.435   1.204   0.630
 1695SOL    HW2 9785   3.497   1.351   0.668
 1696SOL     OW 9786   0.187   4.309   1.500
 1696SOL    HW1 9787   0.099   4.349   1.526
 1696SOL    HW2 9788   0.171   4.226   1.446
 1697SOL     OW 9789   3.541   2.505   0.321
 1697SOL    HW1 9790   3.633   2.493   0.283
 1697SOL    HW2 9791   3.488   2.422   0.306
 1698SOL     OW 9792   4.207   4.895   6.120
 1698SOL    HW1 9793   4.219   4.799   6.142
 1698SOL    HW2 9794   4.297   4.937   6.106
 1699SOL     OW 9795   0.026   0.218   0.920
 1699SOL    HW1 9796   0.067   0.168   0.997
 1699SOL    HW2 9797   0.081   0.300   0.901
 1700SOL     OW 9798   1.008   0.668   6.745
 1700SOL    HW1 9799   1.054   0.750   6.778
 1700SOL    HW2 9800   0.911   0.689   6.728
 1701SOL     OW 9801   0.442   2.906   0.936
 1701SOL    HW1 9802   0.526   2.947   0.902
 1701SOL    HW2 9803   0.387   2.874   0.859
 1702SOL     OW 9804   3.916   4.731   1.006
 1702SOL    HW1 9805   3.993   4.670   1.026
 1702SOL    HW2 9806   3.940   4.790   0.929
 1703SOL     OW 9807   2.380   5.343   5.143
 1703SOL    HW1 9808   2.444   5.351   5.067
 1703SOL    HW2 9809   2.343   5.433   5.165
 1704SOL     OW 9810   4.270   2.088   0.352
 1704SOL    HW1 9811   4.182   2.133   0.365
 1704SOL    HW2 9812   4.307   2.112   0.262
 1705SOL     OW 9813   2.249   0.971   1.618
 1705SOL    HW1 9814   2.176   1.030   1.654
 1705SOL    HW2 9815   2.253   0.887   1.671
 1706SOL     OW 9816   2.374   2.026   1.132
 1706SOL    HW1 9817   2.307   2.093   1.165
 1706SOL    HW2 9818   2.382   1.952   1.198
 1707SOL     OW 9819   2.660   4.164   0.225
 1707SOL    HW1 9820   2.622   4.253   0.253
 1707SOL    HW2 9821   2.586   4.101   0.205
 1708SOL     OW 9822   1.946   1.340   0.762
 1708SOL    HW1 9823   1.934   1.341   0.861
 1708SOL    HW2 9824   1.944   1.434   0.728
 1709SOL     OW 9825   4.427   0.897   1.168
 1709SOL    HW1 9826   4.437   0.973   1.233
 1709SOL    HW2 9827   4.499   0.830   1.184
 1710SOL     OW 9828   3.210   0.922   5.752
 1710SOL    HW1 9829   3.278   0.980   5.796
 1710SOL    HW2 9830   3.143   0.891   5.820
 1711SOL     OW 9831   2.161   0.690   5.846
 1711SOL    HW1 9832   2.156   0.762   5.777
 1711SOL    HW2 9833   2.205   0.609   5.807
 1712SOL     OW 9834   2.790   1.598   6.215
 1712SOL    HW1 9835   2.811   1.511   6.170
 1712SOL    HW2 9836   2.720   1.646   6.163
 1713SOL     OW 9837   2.997   2.185   1.295
 1713SOL    HW1 9838   3.018   2.088   1.280
 1713SOL    HW2 9839   3.008   2.235   1.209
 1714SOL     OW 9840   0.807   0.381   0.387
 1714SOL    HW1 9841   0.847   0.428   0.466
 1714SOL    HW2 9842   0.865   0.303   0.363
 1715SOL     OW 9843   0.642   5.053   6.156
 1715SOL    HW1 9844   0.738   5.034   6.177
 1715SOL    HW2 9845   0.628   5.152   6.152
 1716SOL     OW 9846   0.881   1.391   0.344
 1716SOL    HW1 9847   0.820   1.384   0.424
 1716SOL    HW2 9848   0.827   1.383   0.260
 1717SOL     OW 9849   4.334   0.482   5.557
 1717SOL    HW1 9850   4.387   0.454   5.477
 1717SOL    HW2 9851   4.238   0.493   5.532
 1718SOL     OW 9852   0.927   4.571   6.419
 1718SOL    HW1 9853   0.843   4.625   6.419
 1718SOL    HW2 9854   0.907   4.477   6.444
 1719SOL     OW 9855   4.112   4.848   4.981
 1719SOL    HW1 9856   4.164   4.933   4.976
 1719SOL    HW2 9857   4.016   4.865   4.959
 1720SOL     OW 9858   1.713   4.202   5.930
 1720SOL    HW1 9859   1.745   4.295   5.914
 1720SOL    HW2 9860   1.713   4.183   6.029
 1721SOL     OW 9861   0.706   2.391   1.002
 1721SOL    HW1 9862   0.722   2.483   1.040
 1721SOL    HW2 9863   0.660   2.399   0.914
 1722SOL     OW 9864   2.425   3.857   1.337
 1722SOL    HW1 9865   2.451   3.760   1.340
 1722SOL    HW2 9866   2.415   3.892   1.430
 1723SOL     OW 9867   0.970   3.644   1.139
 1723SOL    HW1 9868   1.051   3.599   1.175
 1723SOL    HW2 9869   0.947   3.723   1.196
 1724SOL     OW 9870   3.490   2.574   6.215
 1724SOL    HW1 9871   3.479   2.520   6.298
 1724SOL    HW2 9872   3.402   2.583   6.169
 1725SOL     OW 9873   0.571   3.918   0.205
 1725SOL    HW1 9874   0.619   3.995   0.164
 1725SOL    HW2 9875   0.636   3.849   0.235
 1726SOL     OW 9876   5.584   0.234   1.339
 1726SOL    HW1 9877   5.556   0.258   1.432
 1726SOL    HW2 9878   5.613   0.317   1.291
 1727SOL     OW 9879   3.818   4.995   1.430
 1727SOL    HW1 9880   3.735   4.956   1.470
 1727SOL    HW2 9881   3.816   5.094   1.441
 1728SOL     OW 9882   3.251   1.810   1.781
 1728SOL    HW1 9883   3.295   1.788   1.868
 1728SOL    HW2 9884   3.303   1.769   1.706
 1729SOL     OW 9885   2.764   1.389   6.697
 1729SOL    HW1 9886   2.802   1.419   6.610
 1729SOL    HW2 9887   2.819   1.426   6.772
 1730SOL     OW 9888   1.239   4.676   6.756
 1730SOL    HW1 9889   1.335   4.651   6.771
 1730SOL    HW2 9890   1.207   4.734   6.831
 1731SOL     OW 9891   0.954   3.284   0.147
 1731SOL    HW1 9892   1.008   3.280   0.231
 1731SOL    HW2 9893   0.911   3.374   0.140
 1732SOL     OW 9894   3.359   0.887   0.433
 1732SOL    HW1 9895   3.359   0.788   0.425
 1732SOL    HW2 9896   3.278   0.924   0.387
 1733SOL     OW 9897   2.905   3.398   1.807
 1733SOL    HW1 9898   2.970   3.457   1.759
 1733SOL    HW2 9899   2.881   3.439   1.895
 1734SOL     OW 9900   1.528   5.248   6.043
 1734SOL    HW1 9901   1.473   5.190   5.983
 1734SOL    HW2 9902   1.474   5.327   6.072
 1735SOL     OW 9903   5.442   3.002   0.901
 1735SOL    HW1 9904   5.496   2.931   0.946
 1735SOL    HW2 9905   5.420   3.074   0.967
 1736SOL     OW 9906   5.242   3.283   6.321
 1736SOL    HW1 9907   5.302   3.227   6.264
 1736SOL    HW2 9908   5.239   3.376   6.285
 1737SOL     OW 9909   3.964   1.230   0.082
 1737SOL    HW1 9910   3.871   1.192   0.074
 1737SOL    HW2 9911   4.023   1.162   0.126
 1738SOL     OW 9912   4.157   3.610   6.518
 1738SOL    HW1 9913   4.163   3.564   6.606
 1738SOL    HW2 9914   4.066   3.595   6.479
 1739SOL     OW 9915   3.687   3.859   1.657
 1739SOL    HW1 9916   3.651   3.924   1.725
 1739SOL    HW2 9917   3.702   3.907   1.571
 1740SOL     OW 9918   1.550   3.157   6.502
 1740SOL    HW1 9919   1.627   3.221   6.504
 1740SOL    HW2 9920   1.565   3.084   6.568
 1741SOL     OW 9921   5.361   1.400   6.394
 1741SOL    HW1 9922   5.372   1.306   6.424
 1741SOL    HW2 9923   5.401   1.411   6.303
 1742SOL     OW 9924   4.005   1.892   6.222
 1742SOL    HW1 9925   3.948   1.809   6.225
 1742SOL    HW2 9926   4.101   1.866   6.213
 1743SOL     OW 9927   2.634   1.035   0.794
 1743SOL    HW1 9928   2.616   1.132   0.777
 1743SOL    HW2 9929   2.570   1.000   0.861
 1744SOL     OW 9930   1.949   1.295   6.585
 1744SOL    HW1 9931   1.879   1.325   6.520
 1744SOL    HW2 9932   2.004   1.223   6.544
 1745SOL     OW 9933   3.503   4.834   0.842
 1745SOL    HW1 9934   3.520   4.826   0.940
 1745SOL    HW2 9935   3.589   4.831   0.792
 1746SOL     OW 9936   3.874   2.948   1.514
 1746SOL    HW1 9937   3.917   3.018   1.571
 1746SOL    HW2 9938   3.920   2.861   1.527
 1747SOL     OW 9939   2.139   2.728   0.985
 1747SOL    HW1 9940   2.159   2.695   1.077
 1747SOL    HW2 9941   2.221   2.723   0.929
 1748SOL     OW 9942   0.321   1.179   6.018
 1748SOL    HW1 9943   0.260   1.199   5.941
 1748SOL    HW2 9944   0.384   1.255   6.031
 1749SOL     OW 9945   2.964   1.321   0.225
 1749SOL    HW1 9946   2.949   1.391   0.155
 1749SOL    HW2 9947   2.961   1.363   0.315
 1750SOL     OW 9948   3.473   4.913   6.800
 1750SOL    HW1 9949   3.494   4.937   6.706
 1750SOL    HW2 9950   3.489   4.993   0.002
 1751SOL     OW 9951   3.515   3.905   1.279
 1751SOL    HW1 9952   3.506   3.814   1.238
 1751SOL    HW2 9953   3.439   3.921   1.341
 1752SOL     OW 9954   0.764   4.670   5.090
 1752SOL    HW1 9955   0.724   4.733   5.024
 1752SOL    HW2 9956   0.735   4.576   5.068
 1753SOL     OW 9957   1.523   0.993   0.263
 1753SOL    HW1 9958   1.622   1.002   0.278
 1753SOL    HW2 9959   1.504   0.993   0.165
 1754SOL     OW 9960   3.360   2.431   1.289
 1754SOL    HW1 9961   3.325   2.339   1.270
 1754SOL    HW2 9962   3.385   2.476   1.203
 1755SOL     OW 9963   1.091   4.889   5.933
 1755SOL    HW1 9964   1.017   4.845   5.984
 1755SOL    HW2 9965   1.095   4.851   5.840
 1756SOL     OW 9966   3.953   1.873   0.984
 1756SOL    HW1 9967   3.900   1.880   1.068
 1756SOL    HW2 9968   4.042   1.831   1.004
 1757SOL     OW 9969   4.480   4.075   6.453
 1757SOL    HW1 9970   4.474   3.991   6.398
 1757SOL    HW2 9971   4.508   4.052   6.546
 1758SOL     OW 9972   5.059   2.240   6.586
 1758SOL    HW1 9973   5.020   2.284   6.505
 1758SOL    HW2 9974   5.020   2.282   6.669
 1759SOL     OW 9975   4.853   2.081   6.364
 1759SOL    HW1 9976   4.885   2.001   6.414
 1759SOL    HW2 9977   4.757   2.068   6.339
 1760SOL     OW 9978   3.046   3.468   6.241
 1760SOL    HW1 9979   2.948   3.449   6.237
 1760SOL    HW2 9980   3.074   3.482   6.337
 1761SOL     OW 9981   1.518   4.651   6.832
 1761SOL    HW1 9982   1.596   4.668   6.773
 1761SOL    HW2 9983   1.493   4.735   0.023
 1762SOL     OW 9984   5.551   0.243   0.175
 1762SOL    HW1 9985   5.600   0.169   0.129
 1762SOL    HW2 9986   5.455   0.217   0.186
 1763SOL     OW 9987   3.041   5.433   0.830
 1763SOL    HW1 9988   3.106   5.356   0.829
 1763SOL    HW2 9989   2.948   5.398   0.839
 1764SOL     OW 9990   3.531   4.006   0.761
 1764SOL    HW1 9991   3.570   4.094   0.733
 1764SOL    HW2 9992   3.605   3.939   0.769
 1765SOL     OW 9993   4.640   4.490   1.145
 1765SOL    HW1 9994   4.564   4.554   1.158
 1765SOL    HW2 9995   4.633   4.450   1.054
 1766SOL     OW 9996   3.129   1.545   6.481
 1766SOL    HW1 9997   3.172   1.517   6.566
 1766SOL    HW2 9998   3.195   1.539   6.406
 1767SOL     OW 9999   3.465   1.050   2.439
 1767SOL    HW110000   3.444   1.016   2.347
 1767SOL    HW210001   3.380   1.061   2.490
 1768SOL     OW10002   3.457   1.272   0.981
 1768SOL    HW110003   3.539   1.298   1.032
 1768SOL    HW210004   3.465   1.177   0.951
 1769SOL     OW10005   1.592   0.991   5.116
 1769SOL    HW110006   1.651   0.926   5.069
 1769SOL    HW210007   1.648   1.065   5.154
 1770SOL     OW10008   2.728   3.099   0.350
 1770SOL    HW110009   2.675   3.127   0.429
 1770SOL    HW210010   2.798   3.168   0.330
 1771SOL     OW10011   1.019   4.782   1.593
 1771SOL    HW110012   1.019   4.786   1.693
 1771SOL    HW210013   1.050   4.870   1.557
 1772SOL     OW10014   0.185   4.212   2.088
 1772SOL    HW110015   0.152   4.126   2.050
 1772SOL    HW210016   0.282   4.224   2.064
 1773SOL     OW10017   4.946   2.394   1.384
 1773SOL    HW110018   4.970   2.372   1.478
 1773SOL    HW210019   4.957   2.492   1.368
 1774SOL     OW10020   2.682   1.484   5.500
 1774SOL    HW110021   2.607   1.418   5.499
 1774SOL    HW210022   2.710   1.503   5.406
 1775SOL     OW10023   2.106   4.867   0.799
 1775SOL    HW110024   2.101   4.773   0.833
 1775SOL    HW210025   2.018   4.894   0.762
 1776SOL     OW10026   1.806   4.386   1.540
 1776SOL    HW110027   1.716   4.354   1.568
 1776SOL    HW210028   1.825   4.474   1.583
 1777SOL     OW10029   0.185   1.850   0.664
 1777SOL    HW110030   0.123   1.899   0.603
 1777SOL    HW210031   0.144   1.844   0.755
 1778SOL     OW10032   4.116   5.263   0.281
 1778SOL    HW110033   4.074   5.294   0.196
 1778SOL    HW210034   4.211   5.236   0.263
 1779SOL     OW10035   2.851   3.482   0.897
 1779SOL    HW110036   2.751   3.483   0.899
 1779SOL    HW210037   2.886   3.426   0.972
 1780SOL     OW10038   5.124   4.991   6.638
 1780SOL    HW110039   5.129   5.031   6.730
 1780SOL    HW210040   5.039   4.939   6.629
 1781SOL     OW10041   0.103   0.149   2.216
 1781SOL    HW110042   0.130   0.196   2.300
 1781SOL    HW210043   0.036   0.205   2.167
 1782SOL     OW10044   0.227   4.745   6.815
 1782SOL    HW110045   0.315   4.777   6.781
 1782SOL    HW210046   0.202   4.797   0.040
 1783SOL     OW10047   3.140   0.011   0.647
 1783SOL    HW110048   3.208   5.565   0.596
 1783SOL    HW210049   3.092   5.557   0.710
 1784SOL     OW10050   2.200   5.411   5.421
 1784SOL    HW110051   2.234   5.319   5.402
 1784SOL    HW210052   2.229   5.473   5.349
 1785SOL     OW10053   2.345   0.529   6.392
 1785SOL    HW110054   2.288   0.595   6.441
 1785SOL    HW210055   2.370   0.567   6.303
 1786SOL     OW10056   0.352   3.051   1.154
 1786SOL    HW110057   0.401   3.138   1.157
 1786SOL    HW210058   0.379   3.000   1.072
 1787SOL     OW10059   2.642   0.628   0.324
 1787SOL    HW110060   2.663   0.531   0.308
 1787SOL    HW210061   2.547   0.637   0.354
 1788SOL     OW10062   1.925   2.426   6.594
 1788SOL    HW110063   1.874   2.345   6.565
 1788SOL    HW210064   1.863   2.489   6.642
 1789SOL     OW10065   0.510   0.733   6.211
 1789SOL    HW110066   0.474   0.825   6.201
 1789SOL    HW210067   0.453   0.668   6.161
 1790SOL     OW10068   1.855   4.188   6.466
 1790SOL    HW110069   1.781   4.204   6.532
 1790SOL    HW210070   1.821   4.205   6.374
 1791SOL     OW10071   3.327   1.735   2.028
 1791SOL    HW110072   3.307   1.822   2.071
 1791SOL    HW210073   3.325   1.662   2.097
 1792SOL     OW10074   5.277   2.295   1.034
 1792SOL    HW110075   5.268   2.198   1.013
 1792SOL    HW210076   5.190   2.341   1.014
 1793SOL     OW10077   3.325   4.531   0.354
 1793SOL    HW110078   3.425   4.530   0.358
 1793SOL    HW210079   3.291   4.618   0.388
 1794SOL     OW10080   5.196   4.863   5.675
 1794SOL    HW110081   5.292   4.877   5.698
 1794SOL    HW210082   5.156   4.950   5.646
 1795SOL     OW10083   3.954   3.071   5.362
 1795SOL    HW110084   3.991   2.982   5.389
 1795SOL    HW210085   3.875   3.058   5.303
 1796SOL     OW10086   5.647   4.041   0.023
 1796SOL    HW110087   0.021   3.964   6.857
 1796SOL    HW210088   0.001   4.125   6.846
 1797SOL     OW10089   4.701   3.715   0.828
 1797SOL    HW110090   4.630   3.707   0.898
 1797SOL    HW210091   4.659   3.740   0.741
 1798SOL     OW10092   3.779   3.860   0.779
 1798SOL    HW110093   3.846   3.934   0.788
 1798SOL    HW210094   3.785   3.799   0.858
 1799SOL     OW10095   1.618   2.156   1.002
 1799SOL    HW110096   1.588   2.239   0.954
 1799SOL    HW210097   1.538   2.101   1.026
 1800SOL     OW10098   2.396   4.865   0.070
 1800SOL    HW110099   2.408   4.951   0.119
 1800SOL    HW210100   2.422   4.789   0.130
 1801SOL     OW10101   4.527   2.298   6.639
 1801SOL    HW110102   4.574   2.210   6.641
 1801SOL    HW210103   4.431   2.284   6.665
 1802SOL     OW10104   3.385   1.068   6.328
 1802SOL    HW110105   3.310   1.043   6.388
 1802SOL    HW210106   3.378   1.017   6.242
 1803SOL     OW10107   3.022   2.662   5.510
 1803SOL    HW110108   2.971   2.643   5.426
 1803SOL    HW210109   3.097   2.725   5.491
 1804SOL     OW10110   4.369   5.451   5.841
 1804SOL    HW110111   4.406   5.440   5.933
 1804SOL    HW210112   4.294   5.386   5.826
 1805SOL     OW10113   4.495   0.745   6.178
 1805SOL    HW110114   4.444   0.764   6.094
 1805SOL    HW210115   4.461   0.804   6.251
 1806SOL     OW10116   1.265   2.538   6.612
 1806SOL    HW110117   1.362   2.529   6.588
 1806SOL    HW210118   1.248   2.490   6.698
 1807SOL     OW10119   2.335   2.071   1.439
 1807SOL    HW110120   2.363   1.982   1.403
 1807SOL    HW210121   2.243   2.065   1.476
 1808SOL     OW10122   4.299   2.443   0.223
 1808SOL    HW110123   4.296   2.484   0.132
 1808SOL    HW210124   4.216   2.467   0.273
 1809SOL     OW10125   0.246   3.806   1.349
 1809SOL    HW110126   0.255   3.802   1.449
 1809SOL    HW210127   0.313   3.745   1.307
 1810SOL     OW10128   3.740   4.516   1.008
 1810SOL    HW110129   3.645   4.540   1.027
 1810SOL    HW210130   3.795   4.599   1.004
 1811SOL     OW10131   1.718   3.586   6.489
 1811SOL    HW110132   1.635   3.550   6.531
 1811SOL    HW210133   1.732   3.680   6.519
 1812SOL     OW10134   2.643   1.367   0.554
 1812SOL    HW110135   2.578   1.432   0.518
 1812SOL    HW210136   2.622   1.348   0.650
 1813SOL     OW10137   3.441   4.300   0.986
 1813SOL    HW110138   3.356   4.279   1.034
 1813SOL    HW210139   3.424   4.309   0.888
 1814SOL     OW10140   1.126   3.260   0.984
 1814SOL    HW110141   1.164   3.226   0.898
 1814SOL    HW210142   1.062   3.193   1.021
 1815SOL     OW10143   3.998   2.925   6.076
 1815SOL    HW110144   3.967   2.936   5.982
 1815SOL    HW210145   3.946   2.987   6.135
 1816SOL     OW10146   5.340   0.079   5.640
 1816SOL    HW110147   5.374   5.596   5.670
 1816SOL    HW210148   5.328   0.078   5.541
 1817SOL     OW10149   3.413   0.886   1.780
 1817SOL    HW110150   3.452   0.855   1.693
 1817SOL    HW210151   3.319   0.853   1.788
 1818SOL     OW10152   3.904   4.592   1.546
 1818SOL    HW110153   3.957   4.669   1.510
 1818SOL    HW210154   3.828   4.572   1.484
 1819SOL     OW10155   1.127   0.016   6.477
 1819SOL    HW110156   1.091   0.109   6.479
 1819SOL    HW210157   1.130   5.586   6.571
 1820SOL     OW10158   4.062   0.615   6.216
 1820SOL    HW110159   4.034   0.668   6.136
 1820SOL    HW210160   4.143   0.560   6.194
 1821SOL     OW10161   2.095   1.006   0.011
 1821SOL    HW110162   2.159   1.082   0.019
 1821SOL    HW210163   2.083   0.962   0.100
 1822SOL     OW10164   0.476   2.171   0.266
 1822SOL    HW110165   0.478   2.072   0.253
 1822SOL    HW210166   0.522   2.216   0.190
 1823SOL     OW10167   1.119   0.231   6.217
 1823SOL    HW110168   1.108   0.288   6.135
 1823SOL    HW210169   1.097   0.136   6.195
 1824SOL     OW10170   0.892   0.911   5.620
 1824SOL    HW110171   0.822   0.917   5.548
 1824SOL    HW210172   0.979   0.884   5.579
 1825SOL     OW10173   0.951   4.295   5.979
 1825SOL    HW110174   1.025   4.328   6.037
 1825SOL    HW210175   0.978   4.210   5.935
 1826SOL     OW10176   1.013   4.814   5.416
 1826SOL    HW110177   1.007   4.911   5.394
 1826SOL    HW210178   1.009   4.760   5.331
 1827SOL     OW10179   4.453   2.189   0.534
 1827SOL    HW110180   4.545   2.191   0.494
 1827SOL    HW210181   4.388   2.153   0.467
 1828SOL     OW10182   3.488   5.288   6.052
 1828SOL    HW110183   3.442   5.202   6.032
 1828SOL    HW210184   3.499   5.341   5.968
 1829SOL     OW10185   0.148   4.865   5.487
 1829SOL    HW110186   0.113   4.772   5.501
 1829SOL    HW210187   0.168   4.878   5.390
 1830SOL     OW10188   2.395   1.448   1.083
 1830SOL    HW110189   2.366   1.417   0.992
 1830SOL    HW210190   2.442   1.536   1.075
 1831SOL     OW10191   4.311   1.408   6.709
 1831SOL    HW110192   4.213   1.394   6.721
 1831SOL    HW210193   4.361   1.342   6.764
 1832SOL     OW10194   5.082   4.263   0.578
 1832SOL    HW110195   5.092   4.353   0.620
 1832SOL    HW210196   5.160   4.244   0.519
 1833SOL     OW10197   5.297   3.514   5.921
 1833SOL    HW110198   5.248   3.451   5.860
 1833SOL    HW210199   5.394   3.516   5.896
 1834SOL     OW10200   2.525   2.456   1.031
 1834SOL    HW110201   2.532   2.517   1.110
 1834SOL    HW210202   2.561   2.366   1.055
 1835SOL     OW10203   3.523   1.699   0.178
 1835SOL    HW110204   3.456   1.769   0.153
 1835SOL    HW210205   3.484   1.609   0.164
 1836SOL     OW10206   3.572   5.311   6.582
 1836SOL    HW110207   3.550   5.338   6.676
 1836SOL    HW210208   3.607   5.391   6.533
 1837SOL     OW10209   1.467   4.311   0.927
 1837SOL    HW110210   1.503   4.218   0.921
 1837SOL    HW210211   1.509   4.368   0.856
 1838SOL     OW10212   0.495   1.389   6.068
 1838SOL    HW110213   0.561   1.343   6.009
 1838SOL    HW210214   0.535   1.474   6.103
 1839SOL     OW10215   3.409   1.099   5.829
 1839SOL    HW110216   3.388   1.190   5.865
 1839SOL    HW210217   3.440   1.107   5.734
 1840SOL     OW10218   0.591   4.966   0.489
 1840SOL    HW110219   0.519   4.906   0.523
 1840SOL    HW210220   0.676   4.914   0.479
 1841SOL     OW10221   1.043   4.771   0.314
 1841SOL    HW110222   1.090   4.788   0.227
 1841SOL    HW210223   1.031   4.672   0.326
 1842SOL     OW10224   1.082   4.244   2.493
 1842SOL    HW110225   1.108   4.313   2.561
 1842SOL    HW210226   0.985   4.253   2.472
 1843SOL     OW10227   4.884   0.920   1.494
 1843SOL    HW110228   4.803   0.897   1.548
 1843SOL    HW210229   4.952   0.964   1.553
 1844SOL     OW10230   2.401   3.523   6.426
 1844SOL    HW110231   2.427   3.615   6.455
 1844SOL    HW210232   2.427   3.458   6.497
 1845SOL     OW10233   0.050   2.626   1.646
 1845SOL    HW110234   0.129   2.651   1.589
 1845SOL    HW210235   0.029   2.701   1.708
 1846SOL     OW10236   4.363   3.862   0.780
 1846SOL    HW110237   4.441   3.920   0.806
 1846SOL    HW210238   4.288   3.919   0.748
 1847SOL     OW10239   2.403   2.876   1.882
 1847SOL    HW110240   2.494   2.835   1.878
 1847SOL    HW210241   2.351   2.836   1.957
 1848SOL     OW10242   2.604   3.065   6.379
 1848SOL    HW110243   2.703   3.055   6.384
 1848SOL    HW210244   2.581   3.138   6.315
 1849SOL     OW10245   2.055   3.562   0.431
 1849SOL    HW110246   2.086   3.535   0.522
 1849SOL    HW210247   2.088   3.496   0.364
 1850SOL     OW10248   2.747   2.833   6.845
 1850SOL    HW110249   2.821   2.776   6.809
 1850SOL    HW210250   2.696   2.873   6.770
 1851SOL     OW10251   0.033   1.282   1.137
 1851SOL    HW110252   0.106   1.215   1.126
 1851SOL    HW210253   5.680   1.304   1.048
 1852SOL     OW10254   4.432   3.694   0.986
 1852SOL    HW110255   4.349   3.673   1.039
 1852SOL    HW210256   4.408   3.755   0.910
 1853SOL     OW10257   4.135   4.144   6.020
 1853SOL    HW110258   4.146   4.116   6.115
 1853SOL    HW210259   4.059   4.093   5.978
 1854SOL     OW10260   3.940   5.605   0.577
 1854SOL    HW110261   3.957   0.089   0.617
 1854SOL    HW210262   4.021   5.577   0.525
 1855SOL     OW10263   4.925   0.447   0.946
 1855SOL    HW110264   5.011   0.407   0.916
 1855SOL    HW210265   4.927   0.461   1.046
 1856SOL     OW10266   1.398   3.650   6.182
 1856SOL    HW110267   1.414   3.573   6.244
 1856SOL    HW210268   1.347   3.721   6.230
 1857SOL     OW10269   4.116   1.337   0.774
 1857SOL    HW110270   4.138   1.325   0.677
 1857SOL    HW210271   4.145   1.428   0.804
 1858SOL     OW10272   1.990   4.893   1.601
 1858SOL    HW110273   2.010   4.817   1.663
 1858SOL    HW210274   1.976   4.977   1.655
 1859SOL     OW10275   1.415   0.233   1.802
 1859SOL    HW110276   1.445   0.138   1.817
 1859SOL    HW210277   1.467   0.294   1.861
 1860SOL     OW10278   5.656   1.343   0.877
 1860SOL    HW110279   5.569   1.387   0.859
 1860SOL    HW210280   0.020   1.331   0.791
 1861SOL     OW10281   4.195   4.707   0.026
 1861SOL    HW110282   4.233   4.629   0.077
 1861SOL    HW210283   4.097   4.694   0.014
 1862SOL     OW10284   1.778   2.358   0.031
 1862SOL    HW110285   1.770   2.443   6.835
 1862SOL    HW210286   1.861   2.310   0.005
 1863SOL     OW10287   1.251   4.016   5.697
 1863SOL    HW110288   1.234   3.995   5.601
 1863SOL    HW210289   1.336   3.973   5.727
 1864SOL     OW10290   2.272   1.724   1.606
 1864SOL    HW110291   2.350   1.686   1.656
 1864SOL    HW210292   2.238   1.805   1.654
 1865SOL     OW10293   2.706   3.496   6.692
 1865SOL    HW110294   2.618   3.447   6.686
 1865SOL    HW210295   2.738   3.518   6.600
 1866SOL     OW10296   1.825   5.053   1.238
 1866SOL    HW110297   1.878   4.971   1.260
 1866SOL    HW210298   1.817   5.061   1.138
 1867SOL     OW10299   5.092   0.478   0.386
 1867SOL    HW110300   4.996   0.468   0.410
 1867SOL    HW210301   5.102   0.491   0.288
 1868SOL     OW10302   0.114   4.972   1.030
 1868SOL    HW110303   0.082   4.925   0.947
 1868SOL    HW210304   0.158   5.058   1.005
 1869SOL     OW10305   1.086   0.524   6.525
 1869SOL    HW110306   1.185   0.531   6.516
 1869SOL    HW210307   1.056   0.576   6.605
 1870SOL     OW10308   3.671   4.226   0.666
 1870SOL    HW110309   3.736   4.264   0.732
 1870SOL    HW210310   3.721   4.193   0.586
 1871SOL     OW10311   1.649   4.816   1.031
 1871SOL    HW110312   1.553   4.841   1.045
 1871SOL    HW210313   1.684   4.774   1.115
 1872SOL     OW10314   0.390   1.733   6.099
 1872SOL    HW110315   0.384   1.833   6.107
 1872SOL    HW210316   0.299   1.693   6.115
 1873SOL     OW10317   2.609   5.432   6.737
 1873SOL    HW110318   2.535   5.462   6.677
 1873SOL    HW210319   2.688   5.405   6.683
 1874SOL     OW10320   2.601   2.919   6.619
 1874SOL    HW110321   2.588   2.821   6.603
 1874SOL    HW210322   2.591   2.968   6.532
 1875SOL     OW10323   5.477   1.398   0.531
 1875SOL    HW110324   5.504   1.444   0.616
 1875SOL    HW210325   5.507   1.452   0.453
 1876SOL     OW10326   1.499   0.971   6.840
 1876SOL    HW110327   1.481   1.028   6.760
 1876SOL    HW210328   1.598   0.963   6.854
 1877SOL     OW10329   0.428   2.869   0.232
 1877SOL    HW110330   0.346   2.812   0.227
 1877SOL    HW210331   0.441   2.901   0.325
 1878SOL     OW10332   1.999   1.136   1.426
 1878SOL    HW110333   2.091   1.147   1.388
 1878SOL    HW210334   2.002   1.152   1.525
 1879SOL     OW10335   5.368   1.784   6.621
 1879SOL    HW110336   5.427   1.813   6.696
 1879SOL    HW210337   5.291   1.847   6.614
 1880SOL     OW10338   0.779   5.459   0.473
 1880SOL    HW110339   0.853   5.434   0.534
 1880SOL    HW210340   0.693   5.465   0.525
 1881SOL     OW10341   5.422   3.915   0.598
 1881SOL    HW110342   5.370   3.870   0.671
 1881SOL    HW210343   5.397   3.873   0.510
 1882SOL     OW10344   1.889   3.577   6.271
 1882SOL    HW110345   1.819   3.574   6.342
 1882SOL    HW210346   1.979   3.586   6.312
 1883SOL     OW10347   4.503   0.061   0.098
 1883SOL    HW110348   4.498   5.572   0.070
 1883SOL    HW210349   4.597   0.094   0.086
 1884SOL     OW10350   2.174   3.264   1.083
 1884SOL    HW110351   2.133   3.242   0.995
 1884SOL    HW210352   2.237   3.341   1.072
 1885SOL     OW10353   3.792   2.457   0.202
 1885SOL    HW110354   3.801   2.367   0.159
 1885SOL    HW210355   3.773   2.526   0.131
 1886SOL     OW10356   1.236   2.183   6.665
 1886SOL    HW110357   1.162   2.118   6.682
 1886SOL    HW210358   1.230   2.259   6.729
 1887SOL     OW10359   1.797   4.629   1.663
 1887SOL    HW110360   1.712   4.664   1.703
 1887SOL    HW210361   1.875   4.666   1.712
 1888SOL     OW10362   4.734   0.441   6.372
 1888SOL    HW110363   4.825   0.465   6.337
 1888SOL    HW210364   4.687   0.525   6.399
 1889SOL     OW10365   5.230   4.173   0.053
 1889SOL    HW110366   5.208   4.119   0.134
 1889SOL    HW210367   5.160   4.244   0.040
 1890SOL     OW10368   1.697   3.399   0.886
 1890SOL    HW110369   1.617   3.456   0.906
 1890SOL    HW210370   1.674   3.303   0.899
 1891SOL     OW10371   0.057   4.281   6.784
 1891SOL    HW110372   0.141   4.258   6.735
 1891SOL    HW210373   5.680   4.328   6.722
 1892SOL     OW10374   5.166   2.994   2.072
 1892SOL    HW110375   5.129   3.082   2.102
 1892SOL    HW210376   5.262   2.988   2.100
 1893SOL     OW10377   5.105   4.407   6.598
 1893SOL    HW110378   5.189   4.456   6.574
 1893SOL    HW210379   5.109   4.314   6.559
 1894SOL     OW10380   3.562   2.916   0.408
 1894SOL    HW110381   3.652   2.933   0.448
 1894SOL    HW210382   3.493   2.970   0.457
 1895SOL     OW10383   2.670   3.417   0.242
 1895SOL    HW110384   2.604   3.351   0.205
 1895SOL    HW210385   2.753   3.369   0.269
 1896SOL     OW10386   5.545   3.285   1.805
 1896SOL    HW110387   5.469   3.244   1.754
 1896SOL    HW210388   5.592   3.214   1.858
 1897SOL     OW10389   0.677   4.756   1.402
 1897SOL    HW110390   0.685   4.833   1.465
 1897SOL    HW210391   0.767   4.736   1.362
 1898SOL     OW10392   5.077   3.167   6.516
 1898SOL    HW110393   5.095   3.069   6.507
 1898SOL    HW210394   5.126   3.216   6.444
 1899SOL     OW10395   1.444   1.075   6.501
 1899SOL    HW110396   1.540   1.051   6.518
 1899SOL    HW210397   1.418   1.151   6.560
 1900SOL     OW10398   0.831   4.639   6.766
 1900SOL    HW110399   0.769   4.705   6.808
 1900SOL    HW210400   0.899   4.687   6.710
 1901SOL     OW10401   4.657   0.450   6.825
 1901SOL    HW110402   4.728   0.438   0.036
 1901SOL    HW210403   4.571   0.411   0.002
 1902SOL     OW10404   0.579   5.394   6.519
 1902SOL    HW110405   0.503   5.354   6.468
 1902SOL    HW210406   0.664   5.378   6.469
 1903SOL     OW10407   4.614   3.795   0.571
 1903SOL    HW110408   4.530   3.792   0.517
 1903SOL    HW210409   4.683   3.735   0.528
 1904SOL     OW10410   0.765   5.425   5.929
 1904SOL    HW110411   0.826   5.388   5.859
 1904SOL    HW210412   0.805   5.509   5.967
 1905SOL     OW10413   3.832   4.133   0.462
 1905SOL    HW110414   3.809   4.108   0.368
 1905SOL    HW210415   3.930   4.119   0.478
 1906SOL     OW10416   3.913   0.185   0.991
 1906SOL    HW110417   3.826   0.173   0.943
 1906SOL    HW210418   3.918   0.277   1.029
 1907SOL     OW10419   4.269   1.078   0.552
 1907SOL    HW110420   4.267   1.177   0.542
 1907SOL    HW210421   4.322   1.055   0.634
 1908SOL     OW10422   5.431   1.643   0.115
 1908SOL    HW110423   5.355   1.593   0.073
 1908SOL    HW210424   5.467   1.709   0.049
 1909SOL     OW10425   4.673   1.073   0.745
 1909SOL    HW110426   4.675   1.057   0.844
 1909SOL    HW210427   4.724   1.156   0.724
 1910SOL     OW10428   1.241   2.304   2.087
 1910SOL    HW110429   1.233   2.230   2.154
 1910SOL    HW210430   1.336   2.338   2.086
 1911SOL     OW10431   0.090   5.505   1.501
 1911SOL    HW110432   0.018   5.479   1.565
 1911SOL    HW210433   0.048   5.529   1.413
 1912SOL     OW10434   1.448   4.228   0.528
 1912SOL    HW110435   1.388   4.154   0.558
 1912SOL    HW210436   1.400   4.284   0.460
 1913SOL     OW10437   3.007   2.006   6.616
 1913SOL    HW110438   2.923   1.990   6.668
 1913SOL    HW210439   2.995   2.086   6.558
 1914SOL     OW10440   1.080   2.316   6.255
 1914SOL    HW110441   1.091   2.396   6.195
 1914SOL    HW210442   0.986   2.284   6.250
 1915SOL     OW10443   1.287   0.552   0.471
 1915SOL    HW110444   1.300   0.640   0.518
 1915SOL    HW210445   1.261   0.568   0.376
 1916SOL     OW10446   0.233   3.860   1.065
 1916SOL    HW110447   0.231   3.854   1.165
 1916SOL    HW210448   0.230   3.956   1.037
 1917SOL     OW10449   4.702   2.910   1.857
 1917SOL    HW110450   4.715   2.811   1.867
 1917SOL    HW210451   4.789   2.953   1.834
 1918SOL     OW10452   1.089   1.085   1.058
 1918SOL    HW110453   1.178   1.039   1.054
 1918SOL    HW210454   1.098   1.171   1.109
 1919SOL     OW10455   0.813   3.700   5.086
 1919SOL    HW110456   0.773   3.792   5.094
 1919SOL    HW210457   0.744   3.632   5.109
 1920SOL     OW10458   4.611   5.557   6.377
 1920SOL    HW110459   4.541   0.003   6.329
 1920SOL    HW210460   4.677   5.521   6.311
 1921SOL     OW10461   2.153   1.980   0.275
 1921SOL    HW110462   2.166   2.074   0.242
 1921SOL    HW210463   2.209   1.966   0.356
 1922SOL     OW10464   3.732   4.846   0.692
 1922SOL    HW110465   3.714   4.908   0.616
 1922SOL    HW210466   3.825   4.861   0.727
 1923SOL     OW10467   4.716   4.779   0.870
 1923SOL    HW110468   4.756   4.746   0.956
 1923SOL    HW210469   4.729   4.710   0.799
 1924SOL     OW10470   4.106   4.702   0.600
 1924SOL    HW110471   4.193   4.654   0.586
 1924SOL    HW210472   4.072   4.736   0.512
 1925SOL     OW10473   1.920   1.493   1.746
 1925SOL    HW110474   1.895   1.536   1.833
 1925SOL    HW210475   1.854   1.420   1.725
 1926SOL     OW10476   5.575   0.754   6.633
 1926SOL    HW110477   5.602   0.784   6.724
 1926SOL    HW210478   5.656   0.747   6.575
 1927SOL     OW10479   3.040   0.595   0.078
 1927SOL    HW110480   3.112   0.664   0.084
 1927SOL    HW210481   2.954   0.634   0.109
 1928SOL     OW10482   4.579   0.661   6.483
 1928SOL    HW110483   4.580   0.670   6.582
 1928SOL    HW210484   4.525   0.735   6.443
 1929SOL     OW10485   1.036   0.379   1.479
 1929SOL    HW110486   0.947   0.333   1.476
 1929SOL    HW210487   1.035   0.447   1.552
 1930SOL     OW10488   5.306   2.018   1.280
 1930SOL    HW110489   5.209   2.005   1.299
 1930SOL    HW210490   5.360   1.956   1.336
 1931SOL     OW10491   5.538   0.454   0.007
 1931SOL    HW110492   5.628   0.494   6.853
 1931SOL    HW210493   5.543   0.377   0.071
 1932SOL     OW10494   4.971   2.764   1.740
 1932SOL    HW110495   4.950   2.861   1.729
 1932SOL    HW210496   4.985   2.744   1.837
 1933SOL     OW10497   3.148   2.014   0.723
 1933SOL    HW110498   3.165   2.111   0.741
 1933SOL    HW210499   3.076   1.982   0.784
 1934SOL     OW10500   5.236   3.153   5.999
 1934SOL    HW110501   5.253   3.163   5.901
 1934SOL    HW210502   5.317   3.184   6.049
 1935SOL     OW10503   2.122   4.646   5.734
 1935SOL    HW110504   2.044   4.702   5.764
 1935SOL    HW210505   2.163   4.688   5.653
 1936SOL     OW10506   1.089   4.974   4.936
 1936SOL    HW110507   0.994   4.985   4.905
 1936SOL    HW210508   1.116   4.878   4.928
 1937SOL     OW10509   1.957   5.252   5.574
 1937SOL    HW110510   1.970   5.351   5.567
 1937SOL    HW210511   1.900   5.221   5.497
 1938SOL     OW10512   4.428   0.950   5.298
 1938SOL    HW110513   4.484   1.018   5.346
 1938SOL    HW210514   4.332   0.972   5.311
 1939SOL     OW10515   1.748   0.379   6.842
 1939SOL    HW110516   1.759   0.294   0.035
 1939SOL    HW210517   1.680   0.437   0.030
 1940SOL     OW10518   0.522   2.534   6.678
 1940SOL    HW110519   0.457   2.469   6.718
 1940SOL    HW210520   0.516   2.622   6.725
 1941SOL     OW10521   4.251   0.228   6.024
 1941SOL    HW110522   4.178   0.167   6.056
 1941SOL    HW210523   4.211   0.303   5.971
 1942SOL     OW10524   3.040   3.732   0.287
 1942SOL    HW110525   3.080   3.642   0.298
 1942SOL    HW210526   2.944   3.723   0.258
 1943SOL     OW10527   3.788   5.133   6.672
 1943SOL    HW110528   3.704   5.173   6.634
 1943SOL    HW210529   3.866   5.193   6.651
 1944SOL     OW10530   2.933   2.338   5.986
 1944SOL    HW110531   2.982   2.329   5.900
 1944SOL    HW210532   2.840   2.303   5.976
 1945SOL     OW10533   5.201   1.969   0.009
 1945SOL    HW110534   5.207   2.004   6.773
 1945SOL    HW210535   5.164   1.877   0.008
 1946SOL     OW10536   5.080   2.086   6.217
 1946SOL    HW110537   4.993   2.087   6.266
 1946SOL    HW210538   5.062   2.092   6.119
 1947SOL     OW10539   2.649   5.246   5.865
 1947SOL    HW110540   2.662   5.306   5.944
 1947SOL    HW210541   2.626   5.301   5.785
 1948SOL     OW10542   1.109   1.970   0.118
 1948SOL    HW110543   1.205   1.945   0.106
 1948SOL    HW210544   1.073   2.006   0.032
 1949SOL     OW10545   0.883   5.197   1.521
 1949SOL    HW110546   0.833   5.267   1.470
 1949SOL    HW210547   0.949   5.240   1.582
 1950SOL     OW10548   0.205   0.327   1.247
 1950SOL    HW110549   0.170   0.409   1.291
 1950SOL    HW210550   0.293   0.301   1.287
 1951SOL     OW10551   1.104   5.035   0.352
 1951SOL    HW110552   1.086   4.937   0.349
 1951SOL    HW210553   1.078   5.076   0.264
 1952SOL     OW10554   3.256   1.951   2.182
 1952SOL    HW110555   3.317   2.027   2.158
 1952SOL    HW210556   3.291   1.904   2.263
 1953SOL     OW10557   0.019   1.005   0.861
 1953SOL    HW110558   0.007   0.906   0.853
 1953SOL    HW210559   0.076   1.038   0.786
 1954SOL     OW10560   3.647   0.033   5.693
 1954SOL    HW110561   3.657   0.125   5.730
 1954SOL    HW210562   3.710   0.020   5.616
 1955SOL     OW10563   2.796   1.954   6.793
 1955SOL    HW110564   2.769   1.866   6.833
 1955SOL    HW210565   2.812   2.020   0.009
 1956SOL     OW10566   5.067   2.605   2.226
 1956SOL    HW110567   5.085   2.508   2.240
 1956SOL    HW210568   5.082   2.655   2.311
 1957SOL     OW10569   1.639   3.343   0.499
 1957SOL    HW110570   1.550   3.361   0.543
 1957SOL    HW210571   1.623   3.300   0.410
 1958SOL     OW10572   2.760   3.457   6.190
 1958SOL    HW110573   2.709   3.532   6.146
 1958SOL    HW210574   2.720   3.369   6.162
 1959SOL     OW10575   5.068   1.922   0.869
 1959SOL    HW110576   5.149   1.953   0.918
 1959SOL    HW210577   5.023   1.849   0.920
 1960SOL     OW10578   4.554   2.689   6.128
 1960SOL    HW110579   4.622   2.680   6.055
 1960SOL    HW210580   4.599   2.689   6.217
 1961SOL     OW10581   1.056   4.068   5.878
 1961SOL    HW110582   1.074   4.005   5.953
 1961SOL    HW210583   1.127   4.057   5.807
 1962SOL     OW10584   3.390   0.969   6.069
 1962SOL    HW110585   3.413   1.017   5.984
 1962SOL    HW210586   3.438   0.882   6.072
 1963SOL     OW10587   2.279   3.935   5.805
 1963SOL    HW110588   2.291   3.941   5.706
 1963SOL    HW210589   2.214   4.006   5.834
 1964SOL     OW10590   2.606   3.219   6.122
 1964SOL    HW110591   2.544   3.181   6.054
 1964SOL    HW210592   2.696   3.175   6.114
 1965SOL     OW10593   4.816   4.944   5.616
 1965SOL    HW110594   4.841   4.858   5.660
 1965SOL    HW210595   4.770   4.924   5.529
 1966SOL     OW10596   1.238   0.483   2.074
 1966SOL    HW110597   1.236   0.412   2.145
 1966SOL    HW210598   1.174   0.556   2.098
 1967SOL     OW10599   0.075   4.589   6.658
 1967SOL    HW110600   5.674   4.564   6.700
 1967SOL    HW210601   0.125   4.651   6.718
 1968SOL     OW10602   4.717   2.942   0.370
 1968SOL    HW110603   4.671   2.909   0.452
 1968SOL    HW210604   4.809   2.973   0.392
 1969SOL     OW10605   1.540   2.469   6.575
 1969SOL    HW110606   1.589   2.472   6.488
 1969SOL    HW210607   1.530   2.374   6.605
 1970SOL     OW10608   5.354   1.927   5.565
 1970SOL    HW110609   5.355   1.928   5.465
 1970SOL    HW210610   5.341   1.833   5.597
 1971SOL     OW10611   2.011   1.645   1.540
 1971SOL    HW110612   1.978   1.590   1.616
 1971SOL    HW210613   2.107   1.669   1.556
 1972SOL     OW10614   2.931   2.809   0.325
 1972SOL    HW110615   2.965   2.717   0.308
 1972SOL    HW210616   2.832   2.811   0.312
 1973SOL     OW10617   1.620   1.888   0.653
 1973SOL    HW110618   1.595   1.858   0.745
 1973SOL    HW210619   1.538   1.894   0.596
 1974SOL     OW10620   0.411   2.008   6.129
 1974SOL    HW110621   0.497   2.013   6.180
 1974SOL    HW210622   0.405   2.085   6.066
 1975SOL     OW10623   1.553   5.112   5.592
 1975SOL    HW110624   1.530   5.198   5.637
 1975SOL    HW210625   1.613   5.058   5.650
 1976SOL     OW10626   5.674   3.631   0.144
 1976SOL    HW110627   0.040   3.646   0.228
 1976SOL    HW210628   5.619   3.548   0.153
 1977SOL     OW10629   4.403   5.374   0.370
 1977SOL    HW110630   4.400   5.314   0.290
 1977SOL    HW210631   4.488   5.359   0.420
 1978SOL     OW10632   1.681   4.219   6.687
 1978SOL    HW110633   1.756   4.248   6.746
 1978SOL    HW210634   1.610   4.290   6.686
 1979SOL     OW10635   5.087   5.000   5.321
 1979SOL    HW110636   5.109   4.908   5.288
 1979SOL    HW210637   4.995   5.025   5.292
 1980SOL     OW10638   0.966   3.622   6.766
 1980SOL    HW110639   1.040   3.563   6.734
 1980SOL    HW210640   1.004   3.707   6.801
 1981SOL     OW10641   3.182   3.781   0.530
 1981SOL    HW110642   3.147   3.776   0.436
 1981SOL    HW210643   3.237   3.863   0.541
 1982SOL     OW10644   4.365   0.461   6.444
 1982SOL    HW110645   4.437   0.526   6.469
 1982SOL    HW210646   4.346   0.469   6.346
 1983SOL     OW10647   2.201   3.180   6.058
 1983SOL    HW110648   2.200   3.280   6.045
 1983SOL    HW210649   2.282   3.142   6.015
 1984SOL     OW10650   5.041   3.765   1.543
 1984SOL    HW110651   5.018   3.710   1.463
 1984SOL    HW210652   5.124   3.729   1.586
 1985SOL     OW10653   1.579   2.072   0.045
 1985SOL    HW110654   1.669   2.039   0.016
 1985SOL    HW210655   1.588   2.139   0.118
 1986SOL     OW10656   4.253   1.912   0.571
 1986SOL    HW110657   4.255   1.990   0.508
 1986SOL    HW210658   4.257   1.945   0.665
 1987SOL     OW10659   0.626   5.497   0.060
 1987SOL    HW110660   0.635   5.541   6.828
 1987SOL    HW210661   0.608   5.567   0.129
 1988SOL     OW10662   4.718   2.280   0.849
 1988SOL    HW110663   4.691   2.325   0.934
 1988SOL    HW210664   4.808   2.238   0.860
 1989SOL     OW10665   2.588   2.644   6.591
 1989SOL    HW110666   2.615   2.617   6.499
 1989SOL    HW210667   2.629   2.580   6.657
 1990SOL     OW10668   3.203   3.129   1.287
 1990SOL    HW110669   3.218   3.049   1.345
 1990SOL    HW210670   3.115   3.171   1.309
 1991SOL     OW10671   3.741   1.098   6.125
 1991SOL    HW110672   3.771   1.025   6.187
 1991SOL    HW210673   3.721   1.180   6.177
 1992SOL     OW10674   3.012   0.325   5.480
 1992SOL    HW110675   2.981   0.407   5.433
 1992SOL    HW210676   3.104   0.301   5.449
 1993SOL     OW10677   5.384   0.032   6.047
 1993SOL    HW110678   5.470   0.007   6.004
 1993SOL    HW210679   5.399   0.108   6.110
 1994SOL     OW10680   3.647   5.535   6.431
 1994SOL    HW110681   3.664   5.475   6.353
 1994SOL    HW210682   3.602   0.011   6.400
 1995SOL     OW10683   1.532   0.856   5.991
 1995SOL    HW110684   1.459   0.852   6.060
 1995SOL    HW210685   1.580   0.768   5.988
 1996SOL     OW10686   5.051   0.799   0.778
 1996SOL    HW110687   5.063   0.824   0.874
 1996SOL    HW210688   4.963   0.753   0.766
 1997SOL     OW10689   4.385   1.027   6.646
 1997SOL    HW110690   4.304   0.973   6.668
 1997SOL    HW210691   4.403   1.092   6.720
 1998SOL     OW10692   2.279   3.926   0.575
 1998SOL    HW110693   2.260   4.017   0.612
 1998SOL    HW210694   2.378   3.914   0.564
 1999SOL     OW10695   2.054   2.010   5.984
 1999SOL    HW110696   1.994   2.027   6.062
 1999SOL    HW210697   2.114   2.089   5.971
 2000SOL     OW10698   3.129   5.007   5.564
 2000SOL    HW110699   3.076   5.005   5.479
 2000SOL    HW210700   3.219   5.048   5.547
 2001SOL     OW10701   2.051   5.454   0.259
 2001SOL    HW110702   2.022   5.418   0.170
 2001SOL    HW210703   2.147   5.483   0.253
 2002SOL     OW10704   3.874   4.446   6.719
 2002SOL    HW110705   3.906   4.535   6.752
 2002SOL    HW210706   3.789   4.422   6.765
 2003SOL     OW10707   5.682   2.666   0.388
 2003SOL    HW110708   5.615   2.669   0.315
 2003SOL    HW210709   5.680   2.752   0.439
 2004SOL     OW10710   3.898   0.197   0.200
 2004SOL    HW110711   3.980   0.193   0.143
 2004SOL    HW210712   3.829   0.254   0.155
 2005SOL     OW10713   2.736   4.780   0.198
 2005SOL    HW110714   2.720   4.849   0.128
 2005SOL    HW210715   2.741   4.824   0.288
 2006SOL     OW10716   5.377   1.686   2.131
 2006SOL    HW110717   5.314   1.701   2.054
 2006SOL    HW210718   5.330   1.637   2.204
 2007SOL     OW10719   4.704   2.352   1.128
 2007SOL    HW110720   4.782   2.294   1.151
 2007SOL    HW210721   4.619   2.305   1.153
 2008SOL     OW10722   5.035   5.065   1.122
 2008SOL    HW110723   5.074   5.004   1.053
 2008SOL    HW210724   5.095   5.069   1.201
 2009SOL     OW10725   0.575   4.479   1.985
 2009SOL    HW110726   0.662   4.440   2.017
 2009SOL    HW210727   0.507   4.406   1.977
 2010SOL     OW10728   4.162   4.282   1.043
 2010SOL    HW110729   4.241   4.293   0.982
 2010SOL    HW210730   4.097   4.218   1.003
 2011SOL     OW10731   1.421   1.269   6.096
 2011SOL    HW110732   1.362   1.322   6.035
 2011SOL    HW210733   1.365   1.210   6.154
 2012SOL     OW10734   1.740   2.810   1.027
 2012SOL    HW110735   1.719   2.808   1.125
 2012SOL    HW210736   1.710   2.725   0.984
 2013SOL     OW10737   5.531   3.683   1.633
 2013SOL    HW110738   5.549   3.773   1.672
 2013SOL    HW210739   5.576   3.676   1.544
 2014SOL     OW10740   0.465   4.815   6.688
 2014SOL    HW110741   0.449   4.887   6.620
 2014SOL    HW210742   0.486   4.729   6.641
 2015SOL     OW10743   2.515   0.145   0.696
 2015SOL    HW110744   2.605   0.142   0.739
 2015SOL    HW210745   2.444   0.137   0.767
 2016SOL     OW10746   4.873   1.237   0.075
 2016SOL    HW110747   4.851   1.319   0.023
 2016SOL    HW210748   4.795   1.174   0.072
 2017SOL     OW10749   1.604   1.846   5.485
 2017SOL    HW110750   1.546   1.786   5.430
 2017SOL    HW210751   1.621   1.931   5.436
 2018SOL     OW10752   3.117   3.988   0.225
 2018SOL    HW110753   3.084   3.897   0.250
 2018SOL    HW210754   3.048   4.056   0.249
 2019SOL     OW10755   0.597   1.737   6.547
 2019SOL    HW110756   0.548   1.823   6.533
 2019SOL    HW210757   0.540   1.676   6.602
 2020SOL     OW10758   0.973   5.282   6.185
 2020SOL    HW110759   0.957   5.183   6.183
 2020SOL    HW210760   1.033   5.307   6.109
 2021SOL     OW10761   2.174   2.217   1.196
 2021SOL    HW110762   2.214   2.262   1.115
 2021SOL    HW210763   2.193   2.272   1.277
 2022SOL     OW10764   0.260   1.596   0.589
 2022SOL    HW110765   0.303   1.595   0.499
 2022SOL    HW210766   0.233   1.690   0.612
 2023SOL     OW10767   0.527   4.122   6.694
 2023SOL    HW110768   0.467   4.056   6.649
 2023SOL    HW210769   0.471   4.189   6.744
 2024SOL     OW10770   1.854   4.977   0.686
 2024SOL    HW110771   1.765   4.958   0.645
 2024SOL    HW210772   1.904   5.042   0.628
 2025SOL     OW10773   0.941   4.420   1.363
 2025SOL    HW110774   0.920   4.359   1.440
 2025SOL    HW210775   0.930   4.370   1.277
 2026SOL     OW10776   3.812   0.428   5.570
 2026SOL    HW110777   3.895   0.467   5.530
 2026SOL    HW210778   3.771   0.364   5.504
 2027SOL     OW10779   1.631   1.041   1.658
 2027SOL    HW110780   1.663   1.136   1.664
 2027SOL    HW210781   1.683   0.984   1.721
 2028SOL     OW10782   5.523   1.941   0.893
 2028SOL    HW110783   5.470   1.924   0.810
 2028SOL    HW210784   5.600   1.877   0.896
 2029SOL     OW10785   4.129   2.880   0.754
 2029SOL    HW110786   4.124   2.795   0.702
 2029SOL    HW210787   4.204   2.874   0.820
 2030SOL     OW10788   5.492   3.635   0.961
 2030SOL    HW110789   5.449   3.594   1.042
 2030SOL    HW210790   5.591   3.621   0.964
 2031SOL     OW10791   4.986   2.654   5.693
 2031SOL    HW110792   4.947   2.572   5.651
 2031SOL    HW210793   5.071   2.630   5.740
 2032SOL     OW10794   3.735   3.999   1.427
 2032SOL    HW110795   3.823   3.998   1.380
 2032SOL    HW210796   3.663   3.970   1.364
 2033SOL     OW10797   5.064   0.686   5.866
 2033SOL    HW110798   5.143   0.625   5.859
 2033SOL    HW210799   5.036   0.695   5.961
 2034SOL     OW10800   3.952   4.478   0.626
 2034SOL    HW110801   3.968   4.433   0.538
 2034SOL    HW210802   4.010   4.559   0.633
 2035SOL     OW10803   0.067   0.838   5.760
 2035SOL    HW110804   0.035   0.913   5.817
 2035SOL    HW210805   0.046   0.751   5.804
 2036SOL     OW10806   3.512   0.729   6.055
 2036SOL    HW110807   3.527   0.653   6.119
 2036SOL    HW210808   3.601   0.760   6.020
 2037SOL     OW10809   3.205   3.084   5.317
 2037SOL    HW110810   3.208   3.143   5.398
 2037SOL    HW210811   3.179   3.139   5.238
 2038SOL     OW10812   2.468   5.086   0.989
 2038SOL    HW110813   2.486   5.175   0.947
 2038SOL    HW210814   2.369   5.072   0.994
 2039SOL     OW10815   1.103   1.558   0.309
 2039SOL    HW110816   1.032   1.509   0.359
 2039SOL    HW210817   1.164   1.605   0.374
 2040SOL     OW10818   2.420   0.608   6.143
 2040SOL    HW110819   2.465   0.525   6.109
 2040SOL    HW210820   2.487   0.683   6.147
 2041SOL     OW10821   5.568   5.445   1.670
 2041SOL    HW110822   5.540   5.539   1.693
 2041SOL    HW210823   5.583   5.394   1.755
 2042SOL     OW10824   4.915   5.342   6.715
 2042SOL    HW110825   4.885   5.251   6.743
 2042SOL    HW210826   4.876   5.411   6.776
 2043SOL     OW10827   0.753   2.409   1.565
 2043SOL    HW110828   0.676   2.469   1.587
 2043SOL    HW210829   0.813   2.402   1.645
 2044SOL     OW10830   3.755   3.120   0.078
 2044SOL    HW110831   3.854   3.110   0.070
 2044SOL    HW210832   3.733   3.178   0.157
 2045SOL     OW10833   0.298   4.442   6.608
 2045SOL    HW110834   0.375   4.499   6.579
 2045SOL    HW210835   0.217   4.500   6.623
 2046SOL     OW10836   1.089   0.949   5.980
 2046SOL    HW110837   1.008   0.973   6.034
 2046SOL    HW210838   1.121   1.029   5.931
 2047SOL     OW10839   3.445   4.749   5.862
 2047SOL    HW110840   3.360   4.798   5.841
 2047SOL    HW210841   3.520   4.789   5.809
 2048SOL     OW10842   3.498   2.280   6.766
 2048SOL    HW110843   3.457   2.225   6.692
 2048SOL    HW210844   3.512   2.222   6.846
 2049SOL     OW10845   0.493   5.031   1.684
 2049SOL    HW110846   0.426   4.956   1.685
 2049SOL    HW210847   0.576   5.002   1.636
 2050SOL     OW10848   0.890   5.219   1.004
 2050SOL    HW110849   0.897   5.318   1.014
 2050SOL    HW210850   0.923   5.175   1.087
 2051SOL     OW10851   2.870   2.479   5.650
 2051SOL    HW110852   2.795   2.527   5.696
 2051SOL    HW210853   2.930   2.546   5.606
 2052SOL     OW10854   0.319   3.943   0.312
 2052SOL    HW110855   0.413   3.914   0.291
 2052SOL    HW210856   0.299   4.029   0.265
 2053SOL     OW10857   1.977   1.017   5.879
 2053SOL    HW110858   2.062   0.991   5.836
 2053SOL    HW210859   1.901   1.002   5.816
 2054SOL     OW10860   0.742   0.558   0.188
 2054SOL    HW110861   0.768   0.493   0.258
 2054SOL    HW210862   0.747   0.515   0.098
 2055SOL     OW10863   4.645   0.301   6.139
 2055SOL    HW110864   4.648   0.368   6.064
 2055SOL    HW210865   4.678   0.344   6.223
 2056SOL     OW10866   3.327   0.152   0.204
 2056SOL    HW110867   3.342   0.167   0.302
 2056SOL    HW210868   3.288   0.235   0.163
 2057SOL     OW10869   2.871   5.084   6.489
 2057SOL    HW110870   2.965   5.096   6.519
 2057SOL    HW210871   2.835   4.998   6.526
 2058SOL     OW10872   5.212   2.605   6.382
 2058SOL    HW110873   5.168   2.596   6.471
 2058SOL    HW210874   5.144   2.636   6.315
 2059SOL     OW10875   2.764   1.112   6.756
 2059SOL    HW110876   2.746   1.208   6.735
 2059SOL    HW210877   2.685   1.072   6.802
 2060SOL     OW10878   1.994   4.326   0.894
 2060SOL    HW110879   2.078   4.275   0.915
 2060SOL    HW210880   1.931   4.266   0.844
 2061SOL     OW10881   3.994   4.875   0.779
 2061SOL    HW110882   4.043   4.962   0.774
 2061SOL    HW210883   4.040   4.808   0.721
 2062SOL     OW10884   4.398   2.611   5.858
 2062SOL    HW110885   4.439   2.524   5.885
 2062SOL    HW210886   4.456   2.686   5.891
 2063SOL     OW10887   1.244   3.500   0.990
 2063SOL    HW110888   1.199   3.411   0.990
 2063SOL    HW210889   1.227   3.547   0.903
 2064SOL     OW10890   2.520   4.116   1.327
 2064SOL    HW110891   2.602   4.104   1.382
 2064SOL    HW210892   2.475   4.028   1.313
 2065SOL     OW10893   3.184   1.105   5.554
 2065SOL    HW110894   3.280   1.120   5.529
 2065SOL    HW210895   3.179   1.033   5.623
 2066SOL     OW10896   4.886   4.153   1.226
 2066SOL    HW110897   4.944   4.079   1.262
 2066SOL    HW210898   4.872   4.221   1.298
 2067SOL     OW10899   0.326   4.537   1.582
 2067SOL    HW110900   0.270   4.457   1.560
 2067SOL    HW210901   0.420   4.521   1.551
 2068SOL     OW10902   3.870   5.199   5.915
 2068SOL    HW110903   3.938   5.134   5.880
 2068SOL    HW210904   3.802   5.217   5.844
 2069SOL     OW10905   2.749   1.487   1.330
 2069SOL    HW110906   2.788   1.402   1.364
 2069SOL    HW210907   2.703   1.535   1.405
 2070SOL     OW10908   2.779   3.567   6.442
 2070SOL    HW110909   2.765   3.515   6.358
 2070SOL    HW210910   2.816   3.657   6.420
 2071SOL     OW10911   5.686   0.430   0.328
 2071SOL    HW110912   0.094   0.401   0.342
 2071SOL    HW210913   5.638   0.361   0.273
 2072SOL     OW10914   5.236   2.436   1.686
 2072SOL    HW110915   5.233   2.528   1.647
 2072SOL    HW210916   5.147   2.392   1.675
 2073SOL     OW10917   3.255   0.280   5.830
 2073SOL    HW110918   3.188   0.222   5.784
 2073SOL    HW210919   3.249   0.373   5.795
 2074SOL     OW10920   4.009   3.552   1.716
 2074SOL    HW110921   3.933   3.487   1.725
 2074SOL    HW210922   4.046   3.546   1.623
 2075SOL     OW10923   1.097   2.909   6.653
 2075SOL    HW110924   1.053   2.819   6.649
 2075SOL    HW210925   1.067   2.957   6.736
 2076SOL     OW10926   4.945   3.525   6.704
 2076SOL    HW110927   4.872   3.510   6.637
 2076SOL    HW210928   4.908   3.579   6.781
 2077SOL     OW10929   2.895   1.723   1.639
 2077SOL    HW110930   2.929   1.713   1.732
 2077SOL    HW210931   2.894   1.821   1.615
 2078SOL     OW10932   0.945   4.695   1.348
 2078SOL    HW110933   0.966   4.725   1.441
 2078SOL    HW210934   0.940   4.595   1.346
 2079SOL     OW10935   3.051   0.164   5.699
 2079SOL    HW110936   3.027   0.218   5.618
 2079SOL    HW210937   2.976   0.167   5.765
 2080SOL     OW10938   4.206   2.261   6.731
 2080SOL    HW110939   4.221   2.221   6.640
 2080SOL    HW210940   4.109   2.258   6.752
 2081SOL     OW10941   4.341   1.275   1.107
 2081SOL    HW110942   4.298   1.210   1.044
 2081SOL    HW210943   4.270   1.325   1.157
 2082SOL     OW10944   4.967   2.903   0.014
 2082SOL    HW110945   5.048   2.924   6.817
 2082SOL    HW210946   4.919   2.988   0.036
 2083SOL     OW10947   0.735   3.269   0.817
 2083SOL    HW110948   0.765   3.332   0.888
 2083SOL    HW210949   0.678   3.317   0.751
 2084SOL     OW10950   1.088   4.209   6.330
 2084SOL    HW110951   1.157   4.194   6.401
 2084SOL    HW210952   1.129   4.257   6.253
 2085SOL     OW10953   1.627   2.539   1.430
 2085SOL    HW110954   1.548   2.541   1.491
 2085SOL    HW210955   1.705   2.497   1.477
 2086SOL     OW10956   4.131   5.470   6.447
 2086SOL    HW110957   4.197   5.516   6.507
 2086SOL    HW210958   4.049   5.526   6.440
 2087SOL     OW10959   2.171   0.304   1.161
 2087SOL    HW110960   2.265   0.298   1.193
 2087SOL    HW210961   2.134   0.212   1.148
 2088SOL     OW10962   1.847   3.171   0.627
 2088SOL    HW110963   1.787   3.241   0.588
 2088SOL    HW210964   1.792   3.095   0.660
 2089SOL     OW10965   3.801   1.893   1.216
 2089SOL    HW110966   3.840   1.813   1.261
 2089SOL    HW210967   3.701   1.893   1.228
 2090SOL     OW10968   0.092   1.236   6.595
 2090SOL    HW110969   0.085   1.178   6.514
 2090SOL    HW210970   0.002   1.244   6.638
 2091SOL     OW10971   3.501   2.897   1.007
 2091SOL    HW110972   3.499   2.889   0.907
 2091SOL    HW210973   3.566   2.830   1.044
 2092SOL     OW10974   2.412   4.652   1.755
 2092SOL    HW110975   2.462   4.566   1.768
 2092SOL    HW210976   2.396   4.695   1.844
 2093SOL     OW10977   4.978   3.786   0.520
 2093SOL    HW110978   4.908   3.718   0.496
 2093SOL    HW210979   4.978   3.859   0.452
 2094SOL     OW10980   3.045   2.592   1.066
 2094SOL    HW110981   2.966   2.651   1.053
 2094SOL    HW210982   3.128   2.640   1.037
 2095SOL     OW10983   1.904   0.725   1.622
 2095SOL    HW110984   1.834   0.659   1.651
 2095SOL    HW210985   1.993   0.680   1.621
 2096SOL     OW10986   1.417   2.986   1.024
 2096SOL    HW110987   1.329   2.978   1.070
 2096SOL    HW210988   1.430   2.909   0.962
 2097SOL     OW10989   4.891   0.804   0.191
 2097SOL    HW110990   4.874   0.822   0.094
 2097SOL    HW210991   4.822   0.741   0.226
 2098SOL     OW10992   4.120   2.705   6.174
 2098SOL    HW110993   4.079   2.785   6.129
 2098SOL    HW210994   4.049   2.652   6.220
 2099SOL     OW10995   0.833   3.530   0.129
 2099SOL    HW110996   0.881   3.571   0.051
 2099SOL    HW210997   0.799   3.602   0.189
 2100SOL     OW10998   3.457   4.100   5.424
 2100SOL    HW110999   3.419   4.180   5.378
 2100SOL    HW211000   3.536   4.127   5.479
 2101SOL     OW11001   0.377   0.691   5.709
 2101SOL    HW111002   0.294   0.643   5.738
 2101SOL    HW211003   0.352   0.772   5.657
 2102SOL     OW11004   1.825   2.556   0.679
 2102SOL    HW111005   1.896   2.510   0.626
 2102SOL    HW211006   1.736   2.542   0.635
 2103SOL     OW11007   1.523   5.006   0.336
 2103SOL    HW111008   1.454   5.073   0.364
 2103SOL    HW211009   1.563   4.963   0.417
 2104SOL     OW11010   0.766   0.242   6.582
 2104SOL    HW111011   0.862   0.229   6.556
 2104SOL    HW211012   0.725   0.313   6.524
 2105SOL     OW11013   1.251   3.180   1.608
 2105SOL    HW111014   1.274   3.239   1.686
 2105SOL    HW211015   1.270   3.228   1.523
 2106SOL     OW11016   3.882   2.108   0.158
 2106SOL    HW111017   3.917   2.020   0.125
 2106SOL    HW211018   3.812   2.092   0.228
 2107SOL     OW11019   0.059   4.649   0.635
 2107SOL    HW111020   5.685   4.596   0.575
 2107SOL    HW211021   0.149   4.608   0.637
 2108SOL     OW11022   5.285   1.332   1.201
 2108SOL    HW111023   5.188   1.314   1.218
 2108SOL    HW211024   5.304   1.324   1.103
 2109SOL     OW11025   3.934   5.423   6.076
 2109SOL    HW111026   3.927   5.349   6.009
 2109SOL    HW211027   3.852   5.424   6.133
 2110SOL     OW11028   2.802   3.734   6.787
 2110SOL    HW111029   2.759   3.650   6.752
 2110SOL    HW211030   2.803   3.731   0.030
 2111SOL     OW11031   5.072   5.083   0.044
 2111SOL    HW111032   5.078   5.017   0.118
 2111SOL    HW211033   4.977   5.089   0.012
 2112SOL     OW11034   5.117   0.942   6.739
 2112SOL    HW111035   5.187   0.875   6.716
 2112SOL    HW211036   5.110   1.010   6.666
 2113SOL     OW11037   4.422   3.702   6.722
 2113SOL    HW111038   4.469   3.663   6.643
 2113SOL    HW211039   4.403   3.631   6.789
 2114SOL     OW11040   2.154   1.589   0.782
 2114SOL    HW111041   2.082   1.590   0.713
 2114SOL    HW211042   2.123   1.639   0.863
 2115SOL     OW11043   0.339   5.264   5.768
 2115SOL    HW111044   0.307   5.308   5.684
 2115SOL    HW211045   0.337   5.165   5.757
 2116SOL     OW11046   1.365   2.377   0.241
 2116SOL    HW111047   1.374   2.469   0.279
 2116SOL    HW211048   1.455   2.338   0.226
 2117SOL     OW11049   4.271   0.093   0.244
 2117SOL    HW111050   4.246   0.028   0.315
 2117SOL    HW211051   4.361   0.069   0.207
 2118SOL     OW11052   3.727   0.883   5.953
 2118SOL    HW111053   3.725   0.963   6.013
 2118SOL    HW211054   3.738   0.912   5.858
 2119SOL     OW11055   3.765   0.984   5.704
 2119SOL    HW111056   3.744   1.064   5.648
 2119SOL    HW211057   3.833   0.928   5.657
 2120SOL     OW11058   5.636   4.438   1.553
 2120SOL    HW111059   5.554   4.395   1.515
 2120SOL    HW211060   5.651   4.526   1.508
 2121SOL     OW11061   1.484   4.409   6.693
 2121SOL    HW111062   1.400   4.370   6.730
 2121SOL    HW211063   1.501   4.498   6.737
 2122SOL     OW11064   4.307   3.602   0.698
 2122SOL    HW111065   4.326   3.698   0.718
 2122SOL    HW211066   4.376   3.567   0.635
 2123SOL     OW11067   4.105   0.630   1.923
 2123SOL    HW111068   4.176   0.650   1.991
 2123SOL    HW211069   4.095   0.530   1.914
 2124SOL     OW11070   4.655   4.209   6.266
 2124SOL    HW111071   4.619   4.254   6.184
 2124SOL    HW211072   4.581   4.193   6.331
 2125SOL     OW11073   4.326   4.488   0.160
 2125SOL    HW111074   4.258   4.418   0.182
 2125SOL    HW211075   4.404   4.446   0.114
 2126SOL     OW11076   4.630   0.868   0.545
 2126SOL    HW111077   4.647   0.777   0.582
 2126SOL    HW211078   4.654   0.937   0.613
 2127SOL     OW11079   4.054   2.993   0.352
 2127SOL    HW111080   4.017   2.916   0.300
 2127SOL    HW211081   4.149   2.974   0.377
 2128SOL     OW11082   4.366   3.643   1.418
 2128SOL    HW111083   4.421   3.561   1.433
 2128SOL    HW211084   4.419   3.709   1.364
 2129SOL     OW11085   4.380   4.118   0.399
 2129SOL    HW111086   4.355   4.171   0.480
 2129SOL    HW211087   4.327   4.033   0.398
 2130SOL     OW11088   1.182   0.430   0.979
 2130SOL    HW111089   1.114   0.494   1.014
 2130SOL    HW211090   1.259   0.481   0.941
 2131SOL     OW11091   0.748   3.238   1.235
 2131SOL    HW111092   0.762   3.323   1.287
 2131SOL    HW211093   0.659   3.240   1.191
 2132SOL     OW11094   0.914   2.431   0.400
 2132SOL    HW111095   0.912   2.527   0.371
 2132SOL    HW211096   0.823   2.402   0.428
 2133SOL     OW11097   2.270   4.598   5.975
 2133SOL    HW111098   2.370   4.598   5.977
 2133SOL    HW211099   2.239   4.609   5.881
 2134SOL     OW11100   0.624   1.961   0.809
 2134SOL    HW111101   0.659   2.020   0.737
 2134SOL    HW211102   0.528   1.982   0.826
 2135SOL     OW11103   0.247   2.686   1.470
 2135SOL    HW111104   0.244   2.779   1.432
 2135SOL    HW211105   0.327   2.638   1.435
 2136SOL     OW11106   0.733   1.319   0.575
 2136SOL    HW111107   0.798   1.244   0.571
 2136SOL    HW211108   0.777   1.400   0.613
 2137SOL     OW11109   5.161   4.236   1.507
 2137SOL    HW111110   5.097   4.209   1.578
 2137SOL    HW211111   5.185   4.155   1.452
 2138SOL     OW11112   3.186   2.442   6.438
 2138SOL    HW111113   3.167   2.539   6.422
 2138SOL    HW211114   3.285   2.429   6.443
 2139SOL     OW11115   5.348   0.629   0.093
 2139SOL    HW111116   5.420   0.565   0.065
 2139SOL    HW211117   5.385   0.692   0.161
 2140SOL     OW11118   2.105   1.614   6.369
 2140SOL    HW111119   2.131   1.554   6.294
 2140SOL    HW211120   2.113   1.565   6.456
 2141SOL     OW11121   1.224   3.901   6.656
 2141SOL    HW111122   1.161   3.875   6.583
 2141SOL    HW211123   1.178   3.893   6.745
 2142SOL     OW11124   4.657   4.072   0.620
 2142SOL    HW111125   4.734   4.102   0.564
 2142SOL    HW211126   4.636   3.976   0.599
 2143SOL     OW11127   5.384   3.816   0.342
 2143SOL    HW111128   5.473   3.847   0.310
 2143SOL    HW211129   5.374   3.718   0.323
 2144SOL     OW11130   0.147   1.549   0.926
 2144SOL    HW111131   0.240   1.531   0.893
 2144SOL    HW211132   0.092   1.467   0.917
 2145SOL     OW11133   3.977   3.979   1.294
 2145SOL    HW111134   4.071   3.952   1.272
 2145SOL    HW211135   3.924   3.985   1.209
 2146SOL     OW11136   0.928   4.162   6.716
 2146SOL    HW111137   0.879   4.082   6.683
 2146SOL    HW211138   0.975   4.139   6.801
 2147SOL     OW11139   3.197   0.831   0.071
 2147SOL    HW111140   3.268   0.901   0.077
 2147SOL    HW211141   3.116   0.862   0.120
 2148SOL     OW11142   2.367   1.731   6.188
 2148SOL    HW111143   2.276   1.721   6.148
 2148SOL    HW211144   2.369   1.689   6.279
 2149SOL     OW11145   4.791   5.014   0.748
 2149SOL    HW111146   4.724   5.033   0.676
 2149SOL    HW211147   4.761   4.935   0.801
 2150SOL     OW11148   0.248   5.390   1.705
 2150SOL    HW111149   0.339   5.366   1.670
 2150SOL    HW211150   0.199   5.444   1.637
 2151SOL     OW11151   0.389   2.252   0.625
 2151SOL    HW111152   0.355   2.282   0.536
 2151SOL    HW211153   0.322   2.275   0.696
 2152SOL     OW11154   4.248   1.380   6.186
 2152SOL    HW111155   4.286   1.457   6.136
 2152SOL    HW211156   4.290   1.375   6.276
 2153SOL     OW11157   0.771   0.213   0.758
 2153SOL    HW111158   0.775   0.311   0.778
 2153SOL    HW211159   0.690   0.194   0.702
 2154SOL     OW11160   1.438   1.210   0.938
 2154SOL    HW111161   1.434   1.287   1.002
 2154SOL    HW211162   1.400   1.129   0.981
 2155SOL     OW11163   1.458   0.066   5.965
 2155SOL    HW111164   1.557   0.061   5.946
 2155SOL    HW211165   1.430   5.590   6.015
 2156SOL     OW11166   3.872   1.651   6.236
 2156SOL    HW111167   3.815   1.667   6.316
 2156SOL    HW211168   3.910   1.558   6.240
 2157SOL     OW11169   3.490   0.395   5.956
 2157SOL    HW111170   3.472   0.434   6.046
 2157SOL    HW211171   3.404   0.363   5.916
 2158SOL     OW11172   0.193   3.738   6.485
 2158SOL    HW111173   0.189   3.713   6.388
 2158SOL    HW211174   0.223   3.659   6.538
 2159SOL     OW11175   3.119   1.681   1.454
 2159SOL    HW111176   3.048   1.658   1.520
 2159SOL    HW211177   3.098   1.770   1.412
 2160SOL     OW11178   4.244   3.608   5.055
 2160SOL    HW111179   4.336   3.588   5.087
 2160SOL    HW211180   4.188   3.526   5.060
 2161SOL     OW11181   4.066   1.717   0.596
 2161SOL    HW111182   4.080   1.653   0.521
 2161SOL    HW211183   4.129   1.795   0.587
 2162SOL     OW11184   1.767   1.783   1.786
 2162SOL    HW111185   1.824   1.864   1.774
 2162SOL    HW211186   1.803   1.726   1.859
 2163SOL     OW11187   0.045   4.005   5.807
 2163SOL    HW111188   0.085   4.002   5.899
 2163SOL    HW211189   0.050   4.098   5.771
 2164SOL     OW11190   5.613   3.246   1.120
 2164SOL    HW111191   5.514   3.232   1.118
 2164SOL    HW211192   5.658   3.159   1.139
 2165SOL     OW11193   4.122   4.562   1.068
 2165SOL    HW111194   4.124   4.462   1.065
 2165SOL    HW211195   4.149   4.593   1.159
 2166SOL     OW11196   4.397   4.093   0.010
 2166SOL    HW111197   4.428   4.186   0.027
 2166SOL    HW211198   4.462   4.047   6.807
 2167SOL     OW11199   2.857   4.860   5.977
 2167SOL    HW111200   2.884   4.952   5.947
 2167SOL    HW211201   2.918   4.792   5.935
 2168SOL     OW11202   0.123   3.164   1.712
 2168SOL    HW111203   0.035   3.145   1.668
 2168SOL    HW211204   0.182   3.084   1.703
 2169SOL     OW11205   1.026   0.566   1.685
 2169SOL    HW111206   0.948   0.542   1.743
 2169SOL    HW211207   1.110   0.532   1.727
 2170SOL     OW11208   4.977   0.734   1.308
 2170SOL    HW111209   4.939   0.799   1.374
 2170SOL    HW211210   5.004   0.783   1.225
 2171SOL     OW11211   0.038   0.019   0.723
 2171SOL    HW111212   0.027   0.101   0.780
 2171SOL    HW211213   0.086   5.555   0.774
 2172SOL     OW11214   1.830   0.760   5.678
 2172SOL    HW111215   1.796   0.852   5.697
 2172SOL    HW211216   1.897   0.765   5.604
 2173SOL     OW11217   4.598   2.053   6.260
 2173SOL    HW111218   4.525   2.118   6.282
 2173SOL    HW211219   4.650   2.087   6.182
 2174SOL     OW11220   1.881   2.103   0.935
 2174SOL    HW111221   1.789   2.127   0.966
 2174SOL    HW211222   1.931   2.060   1.010
 2175SOL     OW11223   2.464   3.336   6.627
 2175SOL    HW111224   2.528   3.268   6.663
 2175SOL    HW211225   2.373   3.296   6.620
 2176SOL     OW11226   1.352   0.206   0.985
 2176SOL    HW111227   1.294   0.285   1.003
 2176SOL    HW211228   1.340   0.139   1.059
 2177SOL     OW11229   5.571   3.562   5.878
 2177SOL    HW111230   5.579   3.601   5.970
 2177SOL    HW211231   5.617   3.622   5.813
 2178SOL     OW11232   1.491   4.309   1.205
 2178SOL    HW111233   1.480   4.315   1.106
 2178SOL    HW211234   1.576   4.356   1.231
 2179SOL     OW11235   1.125   2.535   6.089
 2179SOL    HW111236   1.080   2.621   6.111
 2179SOL    HW211237   1.224   2.548   6.087
 2180SOL     OW11238   3.447   5.096   0.779
 2180SOL    HW111239   3.464   5.002   0.810
 2180SOL    HW211240   3.502   5.159   0.833
 2181SOL     OW11241   2.805   3.180   1.683
 2181SOL    HW111242   2.807   3.099   1.743
 2181SOL    HW211243   2.847   3.257   1.730
 2182SOL     OW11244   2.606   1.738   6.064
 2182SOL    HW111245   2.518   1.741   6.111
 2182SOL    HW211246   2.620   1.823   6.014
 2183SOL     OW11247   0.336   0.581   6.059
 2183SOL    HW111248   0.241   0.611   6.069
 2183SOL    HW211249   0.341   0.508   5.992
 2184SOL     OW11250   1.415   3.437   6.363
 2184SOL    HW111251   1.473   3.364   6.327
 2184SOL    HW211252   1.438   3.454   6.459
 2185SOL     OW11253   2.073   3.846   0.414
 2185SOL    HW111254   2.147   3.872   0.476
 2185SOL    HW211255   2.062   3.747   0.414
 2186SOL     OW11256   0.911   5.008   6.208
 2186SOL    HW111257   0.905   4.920   6.160
 2186SOL    HW211258   0.970   4.998   6.288
 2187SOL     OW11259   2.949   4.485   5.698
 2187SOL    HW111260   3.037   4.468   5.654
 2187SOL    HW211261   2.912   4.400   5.736
 2188SOL     OW11262   2.550   2.827   0.500
 2188SOL    HW111263   2.596   2.832   0.411
 2188SOL    HW211264   2.508   2.737   0.511
 2189SOL     OW11265   1.826   1.992   6.800
 2189SOL    HW111266   1.894   2.065   6.799
 2189SOL    HW211267   1.825   1.946   6.711
 2190SOL     OW11268   4.958   2.179   0.915
 2190SOL    HW111269   5.001   2.093   0.886
 2190SOL    HW211270   4.958   2.184   1.015
 2191SOL     OW11271   1.776   1.320   5.648
 2191SOL    HW111272   1.750   1.414   5.624
 2191SOL    HW211273   1.811   1.319   5.742
 2192SOL     OW11274   0.925   1.050   6.631
 2192SOL    HW111275   0.989   1.031   6.704
 2192SOL    HW211276   0.831   1.049   6.667
 2193SOL     OW11277   1.802   0.416   0.355
 2193SOL    HW111278   1.739   0.361   0.300
 2193SOL    HW211279   1.751   0.487   0.402
 2194SOL     OW11280   3.327   4.006   0.569
 2194SOL    HW111281   3.400   4.001   0.638
 2194SOL    HW211282   3.327   4.096   0.526
 2195SOL     OW11283   2.312   3.223   0.464
 2195SOL    HW111284   2.240   3.156   0.480
 2195SOL    HW211285   2.400   3.183   0.488
 2196SOL     OW11286   5.513   2.152   5.527
 2196SOL    HW111287   5.496   2.167   5.430
 2196SOL    HW211288   5.453   2.079   5.560
 2197SOL     OW11289   0.100   0.068   5.740
 2197SOL    HW111290   0.046   0.011   5.677
 2197SOL    HW211291   0.192   0.030   5.749
 2198SOL     OW11292   3.998   0.245   0.672
 2198SOL    HW111293   3.978   0.324   0.615
 2198SOL    HW211294   4.053   0.273   0.750
 2199SOL     OW11295   5.434   4.487   6.057
 2199SOL    HW111296   5.366   4.511   5.987
 2199SOL    HW211297   5.522   4.529   6.035
 2200SOL     OW11298   2.452   3.774   6.517
 2200SOL    HW111299   2.371   3.824   6.549
 2200SOL    HW211300   2.534   3.817   6.556
 2201SOL     OW11301   0.290   3.716   5.775
 2201SOL    HW111302   0.193   3.714   5.754
 2201SOL    HW211303   0.342   3.724   5.690
 2202SOL     OW11304   1.508   2.202   6.674
 2202SOL    HW111305   1.408   2.202   6.666
 2202SOL    HW211306   1.534   2.163   6.763
 2203SOL     OW11307   0.456   2.474   6.416
 2203SOL    HW111308   0.488   2.498   6.508
 2203SOL    HW211309   0.357   2.459   6.418
 2204SOL     OW11310   5.038   0.068   0.807
 2204SOL    HW111311   5.068   0.152   0.852
 2204SOL    HW211312   4.967   0.024   0.863
 2205SOL     OW11313   1.759   0.796   5.016
 2205SOL    HW111314   1.859   0.797   5.014
 2205SOL    HW211315   1.726   0.707   4.985
 2206SOL     OW11316   4.905   5.343   0.605
 2206SOL    HW111317   4.882   5.329   0.702
 2206SOL    HW211318   5.004   5.342   0.594
 2207SOL     OW11319   1.887   4.267   1.142
 2207SOL    HW111320   1.915   4.288   1.048
 2207SOL    HW211321   1.839   4.180   1.144
 2208SOL     OW11322   2.516   3.178   1.055
 2208SOL    HW111323   2.482   3.086   1.035
 2208SOL    HW211324   2.494   3.202   1.149
 2209SOL     OW11325   4.124   0.026   0.899
 2209SOL    HW111326   4.045   0.080   0.928
 2209SOL    HW211327   4.097   5.538   0.885
 2210SOL     OW11328   2.633   5.014   6.036
 2210SOL    HW111329   2.701   4.946   6.009
 2210SOL    HW211330   2.623   5.082   5.963
 2211SOL     OW11331   0.812   4.361   2.056
 2211SOL    HW111332   0.842   4.429   2.123
 2211SOL    HW211333   0.814   4.270   2.096
 2212SOL     OW11334   5.350   3.172   1.655
 2212SOL    HW111335   5.304   3.100   1.706
 2212SOL    HW211336   5.361   3.143   1.560
 2213SOL     OW11337   3.136   0.369   6.341
 2213SOL    HW111338   3.179   0.283   6.368
 2213SOL    HW211339   3.160   0.389   6.246
 2214SOL     OW11340   2.975   3.259   1.358
 2214SOL    HW111341   3.005   3.323   1.429
 2214SOL    HW211342   2.915   3.190   1.399
 2215SOL     OW11343   1.505   3.572   0.982
 2215SOL    HW111344   1.536   3.597   1.074
 2215SOL    HW211345   1.411   3.539   0.987
 2216SOL     OW11346   0.811   0.482   1.830
 2216SOL    HW111347   0.820   0.521   1.922
 2216SOL    HW211348   0.764   0.394   1.835
 2217SOL     OW11349   1.186   1.690   1.940
 2217SOL    HW111350   1.267   1.716   1.992
 2217SOL    HW211351   1.144   1.609   1.981
 2218SOL     OW11352   5.097   3.427   0.657
 2218SOL    HW111353   5.095   3.369   0.576
 2218SOL    HW211354   5.137   3.515   0.633
 2219SOL     OW11355   3.132   2.871   6.725
 2219SOL    HW111356   3.082   2.785   6.720
 2219SOL    HW211357   3.181   2.877   6.812
 2220SOL     OW11358   3.679   0.336   0.112
 2220SOL    HW111359   3.639   0.250   0.146
 2220SOL    HW211360   3.636   0.413   0.159
 2221SOL     OW11361   1.972   4.836   1.342
 2221SOL    HW111362   2.044   4.890   1.299
 2221SOL    HW211363   1.970   4.855   1.440
 2222SOL     OW11364   0.487   1.986   6.522
 2222SOL    HW111365   0.527   2.051   6.586
 2222SOL    HW211366   0.387   1.991   6.527
 2223SOL     OW11367   2.799   0.062   0.469
 2223SOL    HW111368   2.725   0.091   0.409
 2223SOL    HW211369   2.822   0.137   0.532
 2224SOL     OW11370   2.538   2.652   1.232
 2224SOL    HW111371   2.475   2.719   1.271
 2224SOL    HW211372   2.598   2.697   1.166
 2225SOL     OW11373   4.463   0.092   6.163
 2225SOL    HW111374   4.534   0.162   6.161
 2225SOL    HW211375   4.381   0.127   6.117
 2226SOL     OW11376   2.178   3.099   1.548
 2226SOL    HW111377   2.198   3.188   1.589
 2226SOL    HW211378   2.103   3.109   1.482
 2227SOL     OW11379   3.980   4.925   6.269
 2227SOL    HW111380   4.055   4.917   6.203
 2227SOL    HW211381   4.017   4.918   6.362
 2228SOL     OW11382   1.578   1.355   0.014
 2228SOL    HW111383   1.566   1.369   0.112
 2228SOL    HW211384   1.603   1.442   6.828
 2229SOL     OW11385   2.821   5.337   6.590
 2229SOL    HW111386   2.821   5.243   6.556
 2229SOL    HW211387   2.915   5.365   6.612
 2230SOL     OW11388   4.080   4.884   6.521
 2230SOL    HW111389   3.991   4.875   6.566
 2230SOL    HW211390   4.138   4.806   6.546
 2231SOL     OW11391   4.759   3.960   6.234
 2231SOL    HW111392   4.855   3.977   6.214
 2231SOL    HW211393   4.713   4.046   6.254
 2232SOL     OW11394   4.553   1.499   1.914
 2232SOL    HW111395   4.521   1.536   2.002
 2232SOL    HW211396   4.494   1.422   1.887
 2233SOL     OW11397   3.829   4.864   6.630
 2233SOL    HW111398   3.788   4.831   6.545
 2233SOL    HW211399   3.800   4.959   6.646
 2234SOL     OW11400   0.844   2.630   0.048
 2234SOL    HW111401   0.822   2.704   6.842
 2234SOL    HW211402   0.886   2.669   0.130
 2235SOL     OW11403   1.968   3.378   1.231
 2235SOL    HW111404   2.051   3.336   1.193
 2235SOL    HW211405   1.991   3.426   1.316
 2236SOL     OW11406   5.356   4.103   0.866
 2236SOL    HW111407   5.390   4.026   0.920
 2236SOL    HW211408   5.260   4.086   0.842
 2237SOL     OW11409   0.972   1.914   1.397
 2237SOL    HW111410   0.983   2.006   1.358
 2237SOL    HW211411   0.880   1.904   1.432
 2238SOL     OW11412   1.054   1.162   6.412
 2238SOL    HW111413   0.994   1.237   6.384
 2238SOL    HW211414   1.015   1.115   6.491
 2239SOL     OW11415   3.799   0.574   0.718
 2239SOL    HW111416   3.828   0.667   0.742
 2239SOL    HW211417   3.852   0.541   0.641
 2240SOL     OW11418   4.368   4.954   0.630
 2240SOL    HW111419   4.387   4.906   0.716
 2240SOL    HW211420   4.453   4.994   0.596
 2241SOL     OW11421   1.565   4.425   0.694
 2241SOL    HW111422   1.529   4.351   0.638
 2241SOL    HW211423   1.661   4.440   0.672
 2242SOL     OW11424   1.034   5.108   0.083
 2242SOL    HW111425   0.966   5.120   0.011
 2242SOL    HW211426   1.113   5.167   0.064
 2243SOL     OW11427   5.642   1.621   2.088
 2243SOL    HW111428   5.554   1.664   2.109
 2243SOL    HW211429   5.630   1.522   2.080
 2244SOL     OW11430   2.454   2.531   6.292
 2244SOL    HW111431   2.399   2.608   6.260
 2244SOL    HW211432   2.551   2.555   6.289
 2245SOL     OW11433   2.701   3.802   0.776
 2245SOL    HW111434   2.660   3.711   0.784
 2245SOL    HW211435   2.786   3.796   0.725
 2246SOL     OW11436   1.889   1.769   6.298
 2246SOL    HW111437   1.820   1.722   6.243
 2246SOL    HW211438   1.966   1.708   6.316
 2247SOL     OW11439   3.090   2.865   0.814
 2247SOL    HW111440   3.114   2.961   0.806
 2247SOL    HW211441   2.991   2.854   0.801
 2248SOL     OW11442   1.081   4.743   0.944
 2248SOL    HW111443   1.089   4.801   1.025
 2248SOL    HW211444   1.085   4.647   0.971
 2249SOL     OW11445   1.259   1.058   5.405
 2249SOL    HW111446   1.223   1.062   5.312
 2249SOL    HW211447   1.321   1.135   5.420
 2250SOL     OW11448   4.128   3.823   5.959
 2250SOL    HW111449   4.158   3.781   5.874
 2250SOL    HW211450   4.054   3.888   5.941
 2251SOL     OW11451   4.804   5.483   6.196
 2251SOL    HW111452   4.897   5.482   6.232
 2251SOL    HW211453   4.782   5.393   6.159
 2252SOL     OW11454   1.373   1.893   0.073
 2252SOL    HW111455   1.417   1.813   0.114
 2252SOL    HW211456   1.440   1.967   0.063
 2253SOL     OW11457   3.529   2.874   6.750
 2253SOL    HW111458   3.558   2.867   6.846
 2253SOL    HW211459   3.607   2.853   6.690
 2254SOL     OW11460   0.169   3.140   0.587
 2254SOL    HW111461   0.239   3.197   0.632
 2254SOL    HW211462   0.132   3.189   0.508
 2255SOL     OW11463   4.628   1.750   1.836
 2255SOL    HW111464   4.604   1.658   1.867
 2255SOL    HW211465   4.587   1.818   1.897
 2256SOL     OW11466   0.359   2.008   0.886
 2256SOL    HW111467   0.328   1.973   0.974
 2256SOL    HW211468   0.279   2.029   0.829
 2257SOL     OW11469   1.951   2.386   1.144
 2257SOL    HW111470   1.959   2.438   1.059
 2257SOL    HW211471   2.032   2.330   1.157
 2258SOL     OW11472   4.961   0.192   1.161
 2258SOL    HW111473   4.873   0.182   1.115
 2258SOL    HW211474   4.973   0.288   1.188
 2259SOL     OW11475   3.219   4.248   1.127
 2259SOL    HW111476   3.179   4.228   1.216
 2259SOL    HW211477   3.155   4.219   1.055
 2260SOL     OW11478   1.765   1.683   1.005
 2260SOL    HW111479   1.728   1.696   1.097
 2260SOL    HW211480   1.737   1.593   0.970
 2261SOL     OW11481   5.213   2.989   1.803
 2261SOL    HW111482   5.207   2.991   1.903
 2261SOL    HW211483   5.121   2.994   1.764
 2262SOL     OW11484   2.049   3.184   0.841
 2262SOL    HW111485   1.980   3.202   0.770
 2262SOL    HW211486   2.026   3.098   0.887
 2263SOL     OW11487   1.568   0.126   5.341
 2263SOL    HW111488   1.655   0.078   5.348
 2263SOL    HW211489   1.576   0.197   5.270
 2264SOL     OW11490   2.407   0.493   0.049
 2264SOL    HW111491   2.330   0.545   0.011
 2264SOL    HW211492   2.383   0.461   0.141
 2265SOL     OW11493   4.429   0.333   0.057
 2265SOL    HW111494   4.344   0.360   0.012
 2265SOL    HW211495   4.433   0.233   0.065
 2266SOL     OW11496   2.860   0.693   6.075
 2266SOL    HW111497   2.885   0.619   6.137
 2266SOL    HW211498   2.769   0.728   6.099
 2267SOL     OW11499   3.835   2.604   5.600
 2267SOL    HW111500   3.922   2.563   5.628
 2267SOL    HW211501   3.838   2.624   5.502
 2268SOL     OW11502   1.336   4.122   5.257
 2268SOL    HW111503   1.317   4.057   5.183
 2268SOL    HW211504   1.339   4.214   5.219
 2269SOL     OW11505   1.463   1.954   6.537
 2269SOL    HW111506   1.383   1.925   6.590
 2269SOL    HW211507   1.493   2.044   6.568
 2270SOL     OW11508   1.189   5.163   6.576
 2270SOL    HW111509   1.287   5.149   6.586
 2270SOL    HW211510   1.153   5.097   6.510
 2271SOL     OW11511   1.718   5.393   2.261
 2271SOL    HW111512   1.813   5.366   2.274
 2271SOL    HW211513   1.658   5.316   2.282
 2272SOL     OW11514   1.906   3.865   0.748
 2272SOL    HW111515   2.004   3.850   0.763
 2272SOL    HW211516   1.879   3.823   0.661
 2273SOL     OW11517   1.888   0.316   0.769
 2273SOL    HW111518   1.883   0.216   0.776
 2273SOL    HW211519   1.918   0.354   0.856
 2274SOL     OW11520   2.871   3.028   6.376
 2274SOL    HW111521   2.941   3.056   6.442
 2274SOL    HW211522   2.896   3.063   6.285
 2275SOL     OW11523   3.695   4.579   0.624
 2275SOL    HW111524   3.701   4.674   0.654
 2275SOL    HW211525   3.786   4.536   0.632
 2276SOL     OW11526   3.193   0.843   0.748
 2276SOL    HW111527   3.148   0.789   0.676
 2276SOL    HW211528   3.291   0.826   0.746
 2277SOL     OW11529   3.873   3.209   5.706
 2277SOL    HW111530   3.925   3.247   5.631
 2277SOL    HW211531   3.800   3.272   5.732
 2278SOL     OW11532   1.091   0.418   6.009
 2278SOL    HW111533   1.178   0.373   5.989
 2278SOL    HW211534   1.099   0.516   5.986
 2279SOL     OW11535   0.263   3.434   1.349
 2279SOL    HW111536   0.250   3.430   1.448
 2279SOL    HW211537   0.336   3.499   1.328
 2280SOL     OW11538   2.902   1.525   0.043
 2280SOL    HW111539   2.987   1.574   0.027
 2280SOL    HW211540   2.827   1.591   0.054
 2281SOL     OW11541   2.550   2.231   1.447
 2281SOL    HW111542   2.469   2.172   1.443
 2281SOL    HW211543   2.521   2.326   1.438
 2282SOL     OW11544   1.095   3.277   0.382
 2282SOL    HW111545   1.185   3.236   0.395
 2282SOL    HW211546   1.098   3.374   0.403
 2283SOL     OW11547   5.301   0.588   0.533
 2283SOL    HW111548   5.227   0.545   0.482
 2283SOL    HW211549   5.282   0.685   0.546
 2284SOL     OW11550   4.355   1.361   6.442
 2284SOL    HW111551   4.425   1.290   6.429
 2284SOL    HW211552   4.347   1.382   6.540
 2285SOL     OW11553   3.115   5.111   6.614
 2285SOL    HW111554   3.117   5.209   6.634
 2285SOL    HW211555   3.145   5.060   6.695
 2286SOL     OW11556   0.958   1.273   5.668
 2286SOL    HW111557   0.889   1.201   5.654
 2286SOL    HW211558   0.913   1.356   5.698
 2287SOL     OW11559   0.278   3.509   6.606
 2287SOL    HW111560   0.368   3.522   6.563
 2287SOL    HW211561   0.248   3.415   6.593
 2288SOL     OW11562   2.230   4.882   0.543
 2288SOL    HW111563   2.214   4.883   0.642
 2288SOL    HW211564   2.319   4.921   0.523
 2289SOL     OW11565   0.480   0.130   5.940
 2289SOL    HW111566   0.404   0.196   5.934
 2289SOL    HW211567   0.564   0.174   5.908
 2290SOL     OW11568   4.122   1.344   5.643
 2290SOL    HW111569   4.146   1.247   5.636
 2290SOL    HW211570   4.067   1.371   5.564
 2291SOL     OW11571   1.983   3.084   5.691
 2291SOL    HW111572   1.914   3.130   5.635
 2291SOL    HW211573   2.073   3.122   5.670
 2292SOL     OW11574   1.249   2.988   6.111
 2292SOL    HW111575   1.184   3.061   6.130
 2292SOL    HW211576   1.338   3.010   6.151
 2293SOL     OW11577   1.236   0.451   1.806
 2293SOL    HW111578   1.305   0.383   1.780
 2293SOL    HW211579   1.246   0.473   1.903
 2294SOL     OW11580   0.634   5.336   6.152
 2294SOL    HW111581   0.692   5.348   6.232
 2294SOL    HW211582   0.683   5.365   6.070
 2295SOL     OW11583   1.129   5.393   5.989
 2295SOL    HW111584   1.121   5.312   5.931
 2295SOL    HW211585   1.095   5.473   5.939
 2296SOL     OW11586   1.177   3.888   6.053
 2296SOL    HW111587   1.188   3.857   6.147
 2296SOL    HW211588   1.251   3.951   6.030
 2297SOL     OW11589   0.362   4.108   0.531
 2297SOL    HW111590   0.338   4.040   0.461
 2297SOL    HW211591   0.303   4.095   0.611
 2298SOL     OW11592   2.667   4.695   0.680
 2298SOL    HW111593   2.613   4.770   0.719
 2298SOL    HW211594   2.733   4.662   0.748
 2299SOL     OW11595   4.597   2.848   0.601
 2299SOL    HW111596   4.526   2.919   0.600
 2299SOL    HW211597   4.555   2.759   0.618
 2300SOL     OW11598   0.752   5.295   1.936
 2300SOL    HW111599   0.706   5.207   1.926
 2300SOL    HW211600   0.839   5.283   1.984
 2301SOL     OW11601   3.381   2.114   6.581
 2301SOL    HW111602   3.361   2.160   6.494
 2301SOL    HW211603   3.423   2.025   6.563
 2302SOL     OW11604   4.147   1.152   6.053
 2302SOL    HW111605   4.102   1.110   6.132
 2302SOL    HW211606   4.198   1.233   6.083
 2303SOL     OW11607   0.998   0.604   1.086
 2303SOL    HW111608   1.065   0.626   1.157
 2303SOL    HW211609   0.971   0.688   1.039
 2304SOL     OW11610   4.335   1.596   6.039
 2304SOL    HW111611   4.422   1.638   6.012
 2304SOL    HW211612   4.284   1.569   5.956
 2305SOL     OW11613   3.903   3.517   0.077
 2305SOL    HW111614   3.944   3.608   0.085
 2305SOL    HW211615   3.812   3.518   0.118
 2306SOL     OW11616   4.287   0.328   0.390
 2306SOL    HW111617   4.213   0.388   0.359
 2306SOL    HW211618   4.283   0.241   0.340
 2307SOL     OW11619   3.000   0.283   0.231
 2307SOL    HW111620   2.972   0.189   0.216
 2307SOL    HW211621   3.070   0.308   0.163
 2308SOL     OW11622   0.084   3.968   2.015
 2308SOL    HW111623   0.101   3.870   2.020
 2308SOL    HW211624   5.672   3.986   2.019
 2309SOL     OW11625   1.157   0.728   5.246
 2309SOL    HW111626   1.079   0.704   5.188
 2309SOL    HW211627   1.223   0.781   5.193
 2310SOL     OW11628   4.105   3.441   6.759
 2310SOL    HW111629   4.032   3.470   6.820
 2310SOL    HW211630   4.081   3.354   6.717
 2311SOL     OW11631   1.827   4.725   6.382
 2311SOL    HW111632   1.926   4.727   6.394
 2311SOL    HW211633   1.797   4.811   6.341
 2312SOL     OW11634   5.223   4.708   6.806
 2312SOL    HW111635   5.233   4.733   6.710
 2312SOL    HW211636   5.310   4.725   6.854
 2313SOL     OW11637   4.613   1.416   1.294
 2313SOL    HW111638   4.568   1.454   1.213
 2313SOL    HW211639   4.557   1.434   1.375
 2314SOL     OW11640   0.561   4.055   0.905
 2314SOL    HW111641   0.591   4.019   0.817
 2314SOL    HW211642   0.580   3.988   0.977
 2315SOL     OW11643   4.253   4.632   6.184
 2315SOL    HW111644   4.274   4.579   6.102
 2315SOL    HW211645   4.326   4.619   6.251
 2316SOL     OW11646   4.448   5.423   6.101
 2316SOL    HW111647   4.464   5.519   6.125
 2316SOL    HW211648   4.361   5.393   6.141
 2317SOL     OW11649   0.826   4.012   1.740
 2317SOL    HW111650   0.806   3.925   1.694
 2317SOL    HW211651   0.849   4.081   1.673
 2318SOL     OW11652   0.874   1.905   6.407
 2318SOL    HW111653   0.866   1.931   6.503
 2318SOL    HW211654   0.957   1.944   6.368
 2319SOL     OW11655   5.123   2.268   0.444
 2319SOL    HW111656   5.144   2.231   0.353
 2319SOL    HW211657   5.058   2.343   0.436
 2320SOL     OW11658   5.252   1.746   5.897
 2320SOL    HW111659   5.253   1.659   5.946
 2320SOL    HW211660   5.271   1.730   5.800
 2321SOL     OW11661   2.439   4.070   6.742
 2321SOL    HW111662   2.516   4.015   6.711
 2321SOL    HW211663   2.456   4.167   6.722
 2322SOL     OW11664   5.354   2.728   0.629
 2322SOL    HW111665   5.388   2.822   0.620
 2322SOL    HW211666   5.291   2.708   0.554
 2323SOL     OW11667   3.197   3.401   0.074
 2323SOL    HW111668   3.235   3.308   0.067
 2323SOL    HW211669   3.108   3.404   0.030
 2324SOL     OW11670   2.295   0.143   2.005
 2324SOL    HW111671   2.342   0.062   2.039
 2324SOL    HW211672   2.221   0.168   2.068
 2325SOL     OW11673   0.422   0.153   6.786
 2325SOL    HW111674   0.500   0.103   6.748
 2325SOL    HW211675   0.338   0.099   6.774
 2326SOL     OW11676   4.342   3.909   6.119
 2326SOL    HW111677   4.280   3.871   6.051
 2326SOL    HW211678   4.292   3.974   6.177
 2327SOL     OW11679   4.750   2.134   6.055
 2327SOL    HW111680   4.760   2.231   6.033
 2327SOL    HW211681   4.777   2.078   5.976
 2328SOL     OW11682   4.220   3.140   0.714
 2328SOL    HW111683   4.178   3.050   0.730
 2328SOL    HW211684   4.238   3.184   0.802
 2329SOL     OW11685   4.853   2.904   0.691
 2329SOL    HW111686   4.889   2.860   0.774
 2329SOL    HW211687   4.761   2.870   0.673
 2330SOL     OW11688   5.295   3.345   0.838
 2330SOL    HW111689   5.377   3.329   0.783
 2330SOL    HW211690   5.220   3.373   0.778
 2331SOL     OW11691   2.478   3.596   1.353
 2331SOL    HW111692   2.398   3.541   1.379
 2331SOL    HW211693   2.538   3.542   1.294
 2332SOL     OW11694   2.175   5.088   5.563
 2332SOL    HW111695   2.092   5.144   5.569
 2332SOL    HW211696   2.226   5.113   5.481
 2333SOL     OW11697   4.973   1.862   6.476
 2333SOL    HW111698   4.930   1.791   6.533
 2333SOL    HW211699   5.050   1.902   6.526
 2334SOL     OW11700   3.076   2.441   0.600
 2334SOL    HW111701   3.108   2.533   0.575
 2334SOL    HW211702   3.071   2.384   0.519
 2335SOL     OW11703   4.151   5.104   0.701
 2335SOL    HW111704   4.225   5.047   0.666
 2335SOL    HW211705   4.091   5.131   0.626
 2336SOL     OW11706   2.124   3.705   6.653
 2336SOL    HW111707   2.146   3.689   6.749
 2336SOL    HW211708   2.158   3.795   6.625
 2337SOL     OW11709   3.458   3.467   6.828
 2337SOL    HW111710   3.369   3.451   0.014
 2337SOL    HW211711   3.444   3.485   6.731
 2338SOL     OW11712   5.453   3.883   6.453
 2338SOL    HW111713   5.441   3.979   6.477
 2338SOL    HW211714   5.519   3.841   6.515
 2339SOL     OW11715   0.515   1.904   0.194
 2339SOL    HW111716   0.591   1.865   0.141
 2339SOL    HW211717   0.510   1.859   0.283
 2340SOL     OW11718   2.408   1.646   6.463
 2340SOL    HW111719   2.472   1.627   6.537
 2340SOL    HW211720   2.333   1.702   6.497
 2341SOL     OW11721   1.667   1.426   0.922
 2341SOL    HW111722   1.643   1.347   0.865
 2341SOL    HW211723   1.751   1.406   0.973
 2342SOL     OW11724   1.559   2.947   5.266
 2342SOL    HW111725   1.634   2.955   5.201
 2342SOL    HW211726   1.563   2.858   5.312
 2343SOL     OW11727   4.831   4.628   6.312
 2343SOL    HW111728   4.916   4.641   6.261
 2343SOL    HW211729   4.759   4.599   6.249
 2344SOL     OW11730   2.736   0.377   0.277
 2344SOL    HW111731   2.831   0.351   0.261
 2344SOL    HW211732   2.680   0.294   0.287
 2345SOL     OW11733   0.313   0.597   1.962
 2345SOL    HW111734   0.373   0.623   2.037
 2345SOL    HW211735   0.252   0.673   1.940
 2346SOL     OW11736   2.194   5.062   0.977
 2346SOL    HW111737   2.129   5.136   0.962
 2346SOL    HW211738   2.172   4.985   0.916
 2347SOL     OW11739   3.513   2.566   2.160
 2347SOL    HW111740   3.473   2.492   2.215
 2347SOL    HW211741   3.542   2.640   2.219
 2348SOL     OW11742   1.867   1.343   0.201
 2348SOL    HW111743   1.779   1.343   0.248
 2348SOL    HW211744   1.859   1.293   0.115
 2349SOL     OW11745   0.234   0.427   0.865
 2349SOL    HW111746   0.314   0.370   0.881
 2349SOL    HW211747   0.191   0.403   0.778
 2350SOL     OW11748   1.072   5.468   5.544
 2350SOL    HW111749   1.075   5.452   5.445
 2350SOL    HW211750   1.144   5.532   5.570
 2351SOL     OW11751   5.023   1.761   6.220
 2351SOL    HW111752   5.055   1.830   6.154
 2351SOL    HW211753   5.005   1.805   6.308
 2352SOL     OW11754   3.656   4.217   1.580
 2352SOL    HW111755   3.586   4.263   1.525
 2352SOL    HW211756   3.697   4.143   1.526
 2353SOL     OW11757   4.719   2.783   0.979
 2353SOL    HW111758   4.636   2.731   0.961
 2353SOL    HW211759   4.790   2.722   1.016
 2354SOL     OW11760   3.417   2.209   1.848
 2354SOL    HW111761   3.440   2.206   1.751
 2354SOL    HW211762   3.351   2.283   1.864
 2355SOL     OW11763   4.816   0.238   5.808
 2355SOL    HW111764   4.905   0.282   5.823
 2355SOL    HW211765   4.799   0.172   5.881
 2356SOL     OW11766   3.157   3.859   6.309
 2356SOL    HW111767   3.174   3.906   6.396
 2356SOL    HW211768   3.232   3.795   6.291
 2357SOL     OW11769   1.848   2.857   0.448
 2357SOL    HW111770   1.911   2.898   0.382
 2357SOL    HW211771   1.891   2.856   0.539
 2358SOL     OW11772   1.518   0.267   0.259
 2358SOL    HW111773   1.435   0.213   0.249
 2358SOL    HW211774   1.510   0.352   0.207
 2359SOL     OW11775   1.155   1.183   5.835
 2359SOL    HW111776   1.084   1.208   5.769
 2359SOL    HW211777   1.242   1.170   5.786
 2360SOL     OW11778   2.006   2.215   6.816
 2360SOL    HW111779   2.047   2.271   6.745
 2360SOL    HW211780   2.067   2.211   0.038
 2361SOL     OW11781   1.667   0.435   6.581
 2361SOL    HW111782   1.732   0.407   6.510
 2361SOL    HW211783   1.706   0.414   6.671
 2362SOL     OW11784   0.297   2.820   0.705
 2362SOL    HW111785   0.260   2.739   0.659
 2362SOL    HW211786   0.222   2.872   0.747
 2363SOL     OW11787   1.913   5.034   0.093
 2363SOL    HW111788   1.982   4.962   0.095
 2363SOL    HW211789   1.900   5.066   6.857
 2364SOL     OW11790   0.790   3.475   1.365
 2364SOL    HW111791   0.866   3.502   1.423
 2364SOL    HW211792   0.731   3.555   1.348
 2365SOL     OW11793   3.549   0.565   0.212
 2365SOL    HW111794   3.488   0.574   0.291
 2365SOL    HW211795   3.500   0.591   0.129
 2366SOL     OW11796   1.833   0.939   0.890
 2366SOL    HW111797   1.931   0.924   0.875
 2366SOL    HW211798   1.814   0.937   0.988
 2367SOL     OW11799   2.595   2.192   1.076
 2367SOL    HW111800   2.512   2.136   1.076
 2367SOL    HW211801   2.655   2.162   1.150
 2368SOL     OW11802   3.684   0.291   5.775
 2368SOL    HW111803   3.619   0.341   5.833
 2368SOL    HW211804   3.720   0.352   5.704
 2369SOL     OW11805   3.882   0.924   1.655
 2369SOL    HW111806   3.904   0.896   1.748
 2369SOL    HW211807   3.839   0.847   1.607
 2370SOL     OW11808   5.214   2.549   5.799
 2370SOL    HW111809   5.266   2.539   5.883
 2370SOL    HW211810   5.184   2.460   5.766
 2371SOL     OW11811   4.663   2.412   6.431
 2371SOL    HW111812   4.757   2.385   6.413
 2371SOL    HW211813   4.630   2.364   6.512
 2372SOL     OW11814   0.686   3.035   6.093
 2372SOL    HW111815   0.586   3.029   6.099
 2372SOL    HW211816   0.720   3.095   6.165
 2373SOL     OW11817   5.168   0.905   5.740
 2373SOL    HW111818   5.262   0.878   5.718
 2373SOL    HW211819   5.120   0.826   5.778
 2374SOL     OW11820   3.969   4.090   0.870
 2374SOL    HW111821   3.926   4.179   0.854
 2374SOL    HW211822   3.925   4.046   0.949
 2375SOL     OW11823   1.961   5.071   1.818
 2375SOL    HW111824   1.890   5.044   1.882
 2375SOL    HW211825   2.049   5.032   1.847
 2376SOL     OW11826   4.525   1.003   5.892
 2376SOL    HW111827   4.480   0.921   5.927
 2376SOL    HW211828   4.502   1.016   5.796
 2377SOL     OW11829   5.659   3.214   6.471
 2377SOL    HW111830   5.571   3.246   6.506
 2377SOL    HW211831   0.047   3.248   6.530
 2378SOL     OW11832   0.555   3.746   5.295
 2378SOL    HW111833   0.582   3.820   5.234
 2378SOL    HW211834   0.578   3.658   5.253
 2379SOL     OW11835   4.816   5.106   6.808
 2379SOL    HW111836   4.774   5.078   6.721
 2379SOL    HW211837   4.749   5.093   0.024
 2380SOL     OW11838   3.941   0.804   5.601
 2380SOL    HW111839   4.030   0.803   5.555
 2380SOL    HW211840   3.939   0.732   5.670
 2381SOL     OW11841   0.038   2.122   0.812
 2381SOL    HW111842   5.676   2.153   0.730
 2381SOL    HW211843   5.662   2.067   0.868
 2382SOL     OW11844   4.641   3.472   2.193
 2382SOL    HW111845   4.724   3.442   2.146
 2382SOL    HW211846   4.665   3.546   2.256
 2383SOL     OW11847   3.239   2.873   6.174
 2383SOL    HW111848   3.326   2.920   6.157
 2383SOL    HW211849   3.247   2.778   6.143
 2384SOL     OW11850   2.903   0.510   6.280
 2384SOL    HW111851   2.988   0.467   6.312
 2384SOL    HW211852   2.873   0.578   6.347
 2385SOL     OW11853   3.466   1.475   0.793
 2385SOL    HW111854   3.503   1.552   0.845
 2385SOL    HW211855   3.451   1.398   0.854
 2386SOL     OW11856   3.425   3.223   0.323
 2386SOL    HW111857   3.381   3.204   0.235
 2386SOL    HW211858   3.524   3.228   0.310
 2387SOL     OW11859   1.550   1.692   6.544
 2387SOL    HW111860   1.489   1.620   6.511
 2387SOL    HW211861   1.507   1.781   6.532
 2388SOL     OW11862   2.243   2.395   6.713
 2388SOL    HW111863   2.252   2.468   6.780
 2388SOL    HW211864   2.211   2.433   6.626
 2389SOL     OW11865   2.548   4.924   0.773
 2389SOL    HW111866   2.546   5.002   0.710
 2389SOL    HW211867   2.521   4.955   0.864
 2390SOL     OW11868   1.754   5.489   5.695
 2390SOL    HW111869   1.846   5.508   5.660
 2390SOL    HW211870   1.694   5.461   5.620
 2391SOL     OW11871   3.928   4.693   6.826
 2391SOL    HW111872   3.885   4.758   6.763
 2391SOL    HW211873   3.877   4.691   0.055
 2392SOL     OW11874   1.331   0.304   5.977
 2392SOL    HW111875   1.368   0.211   5.975
 2392SOL    HW211876   1.389   0.363   5.921
 2393SOL     OW11877   0.436   2.498   5.898
 2393SOL    HW111878   0.345   2.537   5.893
 2393SOL    HW211879   0.500   2.566   5.932
 2394SOL     OW11880   4.230   3.870   6.846
 2394SOL    HW111881   4.277   3.956   0.008
 2394SOL    HW211882   4.295   3.804   6.808
 2395SOL     OW11883   1.636   4.605   0.425
 2395SOL    HW111884   1.565   4.640   0.486
 2395SOL    HW211885   1.709   4.563   0.480
 2396SOL     OW11886   0.582   0.666   6.472
 2396SOL    HW111887   0.627   0.578   6.457
 2396SOL    HW211888   0.550   0.702   6.385
 2397SOL     OW11889   3.656   0.184   0.884
 2397SOL    HW111890   3.656   0.240   0.801
 2397SOL    HW211891   3.561   0.165   0.911
 2398SOL     OW11892   4.189   3.715   5.710
 2398SOL    HW111893   4.199   3.636   5.651
 2398SOL    HW211894   4.280   3.749   5.736
 2399SOL     OW11895   0.260   4.832   5.975
 2399SOL    HW111896   0.215   4.785   6.051
 2399SOL    HW211897   0.201   4.907   5.944
 2400SOL     OW11898   0.066   4.261   5.725
 2400SOL    HW111899   0.055   4.351   5.769
 2400SOL    HW211900   0.121   4.271   5.642
 2401SOL     OW11901   2.604   1.497   5.944
 2401SOL    HW111902   2.600   1.587   5.987
 2401SOL    HW211903   2.670   1.499   5.869
 2402SOL     OW11904   3.588   3.046   2.015
 2402SOL    HW111905   3.642   3.088   1.943
 2402SOL    HW211906   3.513   3.106   2.040
 2403SOL     OW11907   0.394   3.279   6.183
 2403SOL    HW111908   0.400   3.180   6.171
 2403SOL    HW211909   0.298   3.305   6.193
 2404SOL     OW11910   0.511   4.392   6.258
 2404SOL    HW111911   0.585   4.369   6.195
 2404SOL    HW211912   0.535   4.361   6.350
 2405SOL     OW11913   5.083   1.116   6.529
 2405SOL    HW111914   5.013   1.074   6.471
 2405SOL    HW211915   5.075   1.216   6.524
 2406SOL     OW11916   3.400   2.247   6.127
 2406SOL    HW111917   3.420   2.314   6.055
 2406SOL    HW211918   3.303   2.248   6.148
 2407SOL     OW11919   1.956   0.406   6.042
 2407SOL    HW111920   1.922   0.459   5.964
 2407SOL    HW211921   1.949   0.460   6.125
 2408SOL     OW11922   2.367   0.891   0.225
 2408SOL    HW111923   2.405   0.832   0.297
 2408SOL    HW211924   2.268   0.884   0.226
 2409SOL     OW11925   3.410   5.256   6.356
 2409SOL    HW111926   3.467   5.274   6.276
 2409SOL    HW211927   3.465   5.264   6.439
 2410SOL     OW11928   4.281   5.514   5.183
 2410SOL    HW111929   4.295   5.456   5.263
 2410SOL    HW211930   4.184   5.514   5.158
 2411SOL     OW11931   0.658   2.827   6.444
 2411SOL    HW111932   0.590   2.797   6.377
 2411SOL    HW211933   0.647   2.925   6.461
 2412SOL     OW11934   1.687   0.971   6.567
 2412SOL    HW111935   1.663   0.875   6.575
 2412SOL    HW211936   1.781   0.985   6.598
 2413SOL     OW11937   3.100   3.392   0.757
 2413SOL    HW111938   3.166   3.465   0.738
 2413SOL    HW211939   3.014   3.433   0.789
 2414SOL     OW11940   0.427   2.965   0.494
 2414SOL    HW111941   0.383   3.046   0.455
 2414SOL    HW211942   0.371   2.929   0.568
 2415SOL     OW11943   5.502   0.695   5.907
 2415SOL    HW111944   5.478   0.735   5.818
 2415SOL    HW211945   5.505   0.767   5.976
 2416SOL     OW11946   5.623   0.325   2.088
 2416SOL    HW111947   5.546   0.268   2.056
 2416SOL    HW211948   5.588   0.413   2.119
 2417SOL     OW11949   4.647   1.032   1.021
 2417SOL    HW111950   4.710   0.954   1.028
 2417SOL    HW211951   4.553   1.001   1.036
 2418SOL     OW11952   0.355   3.966   6.527
 2418SOL    HW111953   0.297   4.047   6.523
 2418SOL    HW211954   0.298   3.884   6.517
 2419SOL     OW11955   4.177   0.786   5.455
 2419SOL    HW111956   4.168   0.871   5.402
 2419SOL    HW211957   4.272   0.774   5.483
 2420SOL     OW11958   0.457   1.551   6.685
 2420SOL    HW111959   0.457   1.522   6.780
 2420SOL    HW211960   0.375   1.517   6.639
 2421SOL     OW11961   4.423   3.068   0.546
 2421SOL    HW111962   4.355   3.094   0.613
 2421SOL    HW211963   4.460   3.150   0.502
 2422SOL     OW11964   4.173   2.878   1.336
 2422SOL    HW111965   4.102   2.825   1.290
 2422SOL    HW211966   4.166   2.865   1.435
 2423SOL     OW11967   4.660   0.293   5.590
 2423SOL    HW111968   4.631   0.215   5.534
 2423SOL    HW211969   4.714   0.260   5.667
 2424SOL     OW11970   5.005   1.452   0.424
 2424SOL    HW111971   4.939   1.377   0.417
 2424SOL    HW211972   5.090   1.417   0.464
 2425SOL     OW11973   4.548   1.825   1.591
 2425SOL    HW111974   4.451   1.801   1.584
 2425SOL    HW211975   4.582   1.801   1.682
 2426SOL     OW11976   3.513   1.464   1.472
 2426SOL    HW111977   3.463   1.378   1.471
 2426SOL    HW211978   3.608   1.447   1.498
 2427SOL     OW11979   1.418   0.892   5.739
 2427SOL    HW111980   1.357   0.815   5.725
 2427SOL    HW211981   1.465   0.882   5.827
 2428SOL     OW11982   3.813   5.278   1.481
 2428SOL    HW111983   3.901   5.286   1.527
 2428SOL    HW211984   3.747   5.338   1.525
 2429SOL     OW11985   3.237   2.609   5.832
 2429SOL    HW111986   3.266   2.567   5.746
 2429SOL    HW211987   3.157   2.666   5.817
 2430SOL     OW11988   0.098   0.560   1.449
 2430SOL    HW111989   0.065   0.607   1.531
 2430SOL    HW211990   0.022   0.540   1.388
 2431SOL     OW11991   3.658   5.471   1.609
 2431SOL    HW111992   3.563   5.468   1.639
 2431SOL    HW211993   3.709   5.537   1.664
 2432SOL     OW11994   2.840   1.348   6.110
 2432SOL    HW111995   2.840   1.293   6.193
 2432SOL    HW211996   2.767   1.316   6.049
 2433SOL     OW11997   2.092   3.071   0.510
 2433SOL    HW111998   2.075   3.054   0.413
 2433SOL    HW211999   2.009   3.105   0.553
 2434SOL     OW12000   1.637   0.594   5.976
 2434SOL    HW112001   1.569   0.547   5.919
 2434SOL    HW212002   1.727   0.586   5.934
 2435SOL     OW12003   3.700   1.358   1.092
 2435SOL    HW112004   3.697   1.444   1.143
 2435SOL    HW212005   3.759   1.370   1.012
 2436SOL     OW12006   0.652   2.830   1.379
 2436SOL    HW112007   0.710   2.749   1.382
 2436SOL    HW212008   0.581   2.818   1.310
 2437SOL     OW12009   1.335   0.127   1.557
 2437SOL    HW112010   1.385   0.163   1.479
 2437SOL    HW212011   1.368   0.170   1.641
 2438SOL     OW12012   2.285   1.160   0.178
 2438SOL    HW112013   2.325   1.076   0.216
 2438SOL    HW212014   2.335   1.186   0.096
 2439SOL     OW12015   4.784   2.402   6.002
 2439SOL    HW112016   4.770   2.496   5.972
 2439SOL    HW212017   4.873   2.395   6.048
 2440SOL     OW12018   2.069   0.054   1.119
 2440SOL    HW112019   2.087   5.562   1.126
 2440SOL    HW212020   1.975   0.069   1.090
 2441SOL     OW12021   0.237   5.002   0.413
 2441SOL    HW112022   0.311   5.064   0.386
 2441SOL    HW212023   0.161   5.055   0.449
 2442SOL     OW12024   0.734   2.808   6.724
 2442SOL    HW112025   0.645   2.808   6.769
 2442SOL    HW212026   0.722   2.812   6.625
 2443SOL     OW12027   0.323   1.352   6.286
 2443SOL    HW112028   0.383   1.372   6.209
 2443SOL    HW212029   0.230   1.333   6.252
 2444SOL     OW12030   3.255   3.835   0.032
 2444SOL    HW112031   3.206   3.899   0.092
 2444SOL    HW212032   3.221   3.742   0.048
 2445SOL     OW12033   5.526   0.911   6.065
 2445SOL    HW112034   5.580   0.976   6.011
 2445SOL    HW212035   5.507   0.950   6.155
 2446SOL     OW12036   4.275   4.271   1.297
 2446SOL    HW112037   4.226   4.272   1.210
 2446SOL    HW212038   4.280   4.177   1.331
 2447SOL     OW12039   1.402   0.808   6.425
 2447SOL    HW112040   1.377   0.809   6.329
 2447SOL    HW212041   1.402   0.901   6.461
 2448SOL     OW12042   4.846   5.260   0.871
 2448SOL    HW112043   4.823   5.174   0.826
 2448SOL    HW212044   4.858   5.245   0.969
 2449SOL     OW12045   5.003   3.826   2.327
 2449SOL    HW112046   4.918   3.876   2.313
 2449SOL    HW212047   5.043   3.852   2.415
 2450SOL     OW12048   2.228   2.885   6.846
 2450SOL    HW112049   2.274   2.809   6.799
 2450SOL    HW212050   2.289   2.920   0.060
 2451SOL     OW12051   5.455   4.742   0.841
 2451SOL    HW112052   5.545   4.786   0.835
 2451SOL    HW212053   5.456   4.659   0.785
 2452SOL     OW12054   5.104   1.394   6.500
 2452SOL    HW112055   5.195   1.405   6.459
 2452SOL    HW212056   5.037   1.448   6.449
 2453SOL     OW12057   2.407   5.539   6.584
 2453SOL    HW112058   2.453   5.586   6.509
 2453SOL    HW212059   2.339   5.600   6.624
 2454SOL     OW12060   0.679   0.254   1.875
 2454SOL    HW112061   0.702   0.197   1.955
 2454SOL    HW212062   0.580   0.268   1.872
 2455SOL     OW12063   2.072   3.854   1.858
 2455SOL    HW112064   2.078   3.869   1.957
 2455SOL    HW212065   2.133   3.918   1.811
 2456SOL     OW12066   0.744   2.097   0.595
 2456SOL    HW112067   0.750   2.021   0.531
 2456SOL    HW212068   0.710   2.178   0.548
 2457SOL     OW12069   1.864   2.859   6.332
 2457SOL    HW112070   1.857   2.958   6.340
 2457SOL    HW212071   1.855   2.833   6.235
 2458SOL     OW12072   2.438   4.005   0.155
 2458SOL    HW112073   2.444   4.023   0.057
 2458SOL    HW212074   2.342   3.996   0.182
 2459SOL     OW12075   4.442   1.747   0.070
 2459SOL    HW112076   4.516   1.814   0.062
 2459SOL    HW212077   4.480   1.656   0.086
 2460SOL     OW12078   2.503   0.384   0.530
 2460SOL    HW112079   2.572   0.445   0.569
 2460SOL    HW212080   2.499   0.300   0.585
 2461SOL     OW12081   5.504   0.317   1.590
 2461SOL    HW112082   5.597   0.323   1.627
 2461SOL    HW212083   5.448   0.388   1.632
 2462SOL     OW12084   4.527   2.736   0.290
 2462SOL    HW112085   4.552   2.640   0.278
 2462SOL    HW212086   4.611   2.791   0.294
 2463SOL     OW12087   0.994   4.506   0.375
 2463SOL    HW112088   1.052   4.499   0.456
 2463SOL    HW212089   0.898   4.498   0.401
 2464SOL     OW12090   5.552   5.533   5.335
 2464SOL    HW112091   5.458   5.568   5.340
 2464SOL    HW212092   5.569   5.499   5.242
 2465SOL     OW12093   1.094   4.609   6.202
 2465SOL    HW112094   1.150   4.691   6.210
 2465SOL    HW212095   1.042   4.596   6.287
 2466SOL     OW12096   3.599   2.213   6.323
 2466SOL    HW112097   3.681   2.175   6.283
 2466SOL    HW212098   3.528   2.222   6.253
 2467SOL     OW12099   4.261   4.462   1.491
 2467SOL    HW112100   4.265   4.386   1.425
 2467SOL    HW212101   4.198   4.438   1.565
 2468SOL     OW12102   1.948   1.587   0.596
 2468SOL    HW112103   1.936   1.686   0.597
 2468SOL    HW212104   1.866   1.544   0.559
 2469SOL     OW12105   4.891   1.137   5.654
 2469SOL    HW112106   4.874   1.043   5.624
 2469SOL    HW212107   4.973   1.173   5.609
 2470SOL     OW12108   1.357   0.548   6.495
 2470SOL    HW112109   1.365   0.644   6.469
 2470SOL    HW212110   1.417   0.493   6.437
 2471SOL     OW12111   0.435   3.550   0.166
 2471SOL    HW112112   0.464   3.565   0.261
 2471SOL    HW212113   0.419   3.638   0.122
 2472SOL     OW12114   0.878   1.530   0.655
 2472SOL    HW112115   0.973   1.498   0.645
 2472SOL    HW212116   0.877   1.626   0.681
 2473SOL     OW12117   4.312   3.309   6.450
 2473SOL    HW112118   4.350   3.219   6.426
 2473SOL    HW212119   4.365   3.381   6.405
 2474SOL     OW12120   5.681   0.732   0.826
 2474SOL    HW112121   0.033   0.687   0.907
 2474SOL    HW212122   5.586   0.704   0.813
 2475SOL     OW12123   1.761   3.198   1.196
 2475SOL    HW112124   1.830   3.271   1.199
 2475SOL    HW212125   1.741   3.175   1.101
 2476SOL     OW12126   0.207   1.064   0.665
 2476SOL    HW112127   0.183   1.116   0.583
 2476SOL    HW212128   0.208   0.966   0.643
 2477SOL     OW12129   1.116   1.988   6.307
 2477SOL    HW112130   1.174   2.067   6.327
 2477SOL    HW212131   1.157   1.905   6.343
 2478SOL     OW12132   0.545   0.835   6.855
 2478SOL    HW112133   0.451   0.834   6.821
 2478SOL    HW212134   0.548   0.797   0.089
 2479SOL     OW12135   1.693   1.203   0.527
 2479SOL    HW112136   1.700   1.180   0.625
 2479SOL    HW212137   1.597   1.199   0.499
 2480SOL     OW12138   0.002   0.825   0.027
 2480SOL    HW112139   5.648   0.916   0.024
 2480SOL    HW212140   5.663   0.780   0.113
 2481SOL     OW12141   2.755   3.519   5.521
 2481SOL    HW112142   2.854   3.532   5.524
 2481SOL    HW212143   2.728   3.495   5.427
 2482SOL     OW12144   2.579   2.068   6.673
 2482SOL    HW112145   2.659   2.023   6.712
 2482SOL    HW212146   2.499   2.008   6.682
 2483SOL     OW12147   3.684   4.081   5.966
 2483SOL    HW112148   3.590   4.111   5.953
 2483SOL    HW212149   3.688   4.015   6.042
 2484SOL     OW12150   1.442   1.673   5.351
 2484SOL    HW112151   1.401   1.582   5.347
 2484SOL    HW212152   1.419   1.723   5.268
 2485SOL     OW12153   2.577   2.549   0.781
 2485SOL    HW112154   2.663   2.508   0.750
 2485SOL    HW212155   2.558   2.520   0.875
 2486SOL     OW12156   3.050   2.317   1.056
 2486SOL    HW112157   3.041   2.416   1.066
 2486SOL    HW212158   3.072   2.294   0.961
 2487SOL     OW12159   5.031   0.031   6.337
 2487SOL    HW112160   4.958   0.038   6.405
 2487SOL    HW212161   5.111   5.594   6.379
 2488SOL     OW12162   3.692   3.275   0.290
 2488SOL    HW112163   3.683   3.369   0.257
 2488SOL    HW212164   3.719   3.277   0.387
 2489SOL     OW12165   4.482   2.653   0.927
 2489SOL    HW112166   4.421   2.732   0.922
 2489SOL    HW212167   4.499   2.618   0.835
 2490SOL     OW12168   3.423   3.934   6.701
 2490SOL    HW112169   3.373   3.889   6.774
 2490SOL    HW212170   3.457   4.023   6.732
 2491SOL     OW12171   4.243   2.773   6.851
 2491SOL    HW112172   4.191   2.785   0.079
 2491SOL    HW212173   4.257   2.675   6.835
 2492SOL     OW12174   1.546   1.467   1.828
 2492SOL    HW112175   1.542   1.537   1.756
 2492SOL    HW212176   1.566   1.511   1.915
 2493SOL     OW12177   3.788   3.707   1.020
 2493SOL    HW112178   3.732   3.632   0.985
 2493SOL    HW212179   3.844   3.674   1.096
 2494SOL     OW12180   1.907   0.059   0.351
 2494SOL    HW112181   1.849   0.035   0.428
 2494SOL    HW212182   1.955   5.584   0.318
 2495SOL     OW12183   4.100   2.204   1.412
 2495SOL    HW112184   4.149   2.237   1.493
 2495SOL    HW212185   4.028   2.269   1.388
 2496SOL     OW12186   5.001   3.224   0.957
 2496SOL    HW112187   4.979   3.321   0.942
 2496SOL    HW212188   5.030   3.211   1.052
 2497SOL     OW12189   3.192   2.220   1.502
 2497SOL    HW112190   3.123   2.209   1.431
 2497SOL    HW212191   3.172   2.158   1.578
 2498SOL     OW12192   2.945   0.907   1.661
 2498SOL    HW112193   2.952   0.983   1.596
 2498SOL    HW212194   2.852   0.869   1.657
 2499SOL     OW12195   0.640   1.786   1.019
 2499SOL    HW112196   0.734   1.789   1.053
 2499SOL    HW212197   0.627   1.859   0.951
 2500SOL     OW12198   5.262   5.529   6.439
 2500SOL    HW112199   5.243   5.469   6.517
 2500SOL    HW212200   5.331   5.597   6.466
 2501SOL     OW12201   0.833   1.032   1.310
 2501SOL    HW112202   0.929   1.009   1.323
 2501SOL    HW212203   0.784   1.023   1.397
 2502SOL     OW12204   2.267   2.494   6.010
 2502SOL    HW112205   2.363   2.491   5.982
 2502SOL    HW212206   2.231   2.586   5.993
 2503SOL     OW12207   2.691   0.293   5.537
 2503SOL    HW112208   2.748   0.334   5.609
 2503SOL    HW212209   2.689   0.194   5.548
 2504SOL     OW12210   4.801   1.653   6.564
 2504SOL    HW112211   4.828   1.594   6.488
 2504SOL    HW212212   4.729   1.715   6.535
 2505SOL     OW12213   3.281   2.202   1.142
 2505SOL    HW112214   3.192   2.240   1.119
 2505SOL    HW212215   3.345   2.219   1.067
 2506SOL     OW12216   4.950   1.282   5.974
 2506SOL    HW112217   4.864   1.250   5.933
 2506SOL    HW212218   5.024   1.220   5.950
 2507SOL     OW12219   2.448   1.551   0.475
 2507SOL    HW112220   2.356   1.518   0.456
 2507SOL    HW212221   2.445   1.622   0.545
 2508SOL     OW12222   1.244   4.044   0.575
 2508SOL    HW112223   1.302   3.963   0.569
 2508SOL    HW212224   1.197   4.045   0.663
 2509SOL     OW12225   3.422   0.446   1.000
 2509SOL    HW112226   3.423   0.346   0.994
 2509SOL    HW212227   3.448   0.474   1.092
 2510SOL     OW12228   4.842   4.342   1.427
 2510SOL    HW112229   4.755   4.360   1.475
 2510SOL    HW212230   4.911   4.406   1.460
 2511SOL     OW12231   2.103   0.896   0.853
 2511SOL    HW112232   2.164   0.816   0.848
 2511SOL    HW212233   2.151   0.976   0.816
 2512SOL     OW12234   0.111   0.740   6.486
 2512SOL    HW112235   0.198   0.708   6.523
 2512SOL    HW212236   0.128   0.789   6.400
 2513SOL     OW12237   1.236   3.457   5.069
 2513SOL    HW112238   1.179   3.377   5.054
 2513SOL    HW212239   1.333   3.431   5.064
 2514SOL     OW12240   4.944   0.576   2.286
 2514SOL    HW112241   5.003   0.652   2.314
 2514SOL    HW212242   5.001   0.494   2.271
 2515SOL     OW12243   0.728   1.934   1.512
 2515SOL    HW112244   0.676   2.019   1.506
 2515SOL    HW212245   0.685   1.874   1.579
 2516SOL     OW12246   1.002   1.461   0.056
 2516SOL    HW112247   1.032   1.501   0.143
 2516SOL    HW212248   0.909   1.427   0.065
 2517SOL     OW12249   4.212   2.312   5.982
 2517SOL    HW112250   4.284   2.362   6.031
 2517SOL    HW212251   4.129   2.368   5.979
 2518SOL     OW12252   1.972   2.942   0.956
 2518SOL    HW112253   2.040   2.872   0.977
 2518SOL    HW212254   1.882   2.911   0.988
 2519SOL     OW12255   4.520   4.941   1.153
 2519SOL    HW112256   4.481   5.032   1.141
 2519SOL    HW212257   4.620   4.948   1.157
 2520SOL     OW12258   1.610   5.282   0.776
 2520SOL    HW112259   1.558   5.368   0.783
 2520SOL    HW212260   1.550   5.209   0.744
 2521SOL     OW12261   3.638   4.870   5.698
 2521SOL    HW112262   3.628   4.795   5.633
 2521SOL    HW212263   3.634   4.957   5.650
 2522SOL     OW12264   3.182   0.875   2.068
 2522SOL    HW112265   3.160   0.847   1.975
 2522SOL    HW212266   3.176   0.795   2.129
 2523SOL     OW12267   0.393   0.980   6.192
 2523SOL    HW112268   0.369   1.043   6.118
 2523SOL    HW212269   0.423   1.032   6.272
 2524SOL     OW12270   3.408   3.354   0.934
 2524SOL    HW112271   3.333   3.417   0.956
 2524SOL    HW212272   3.396   3.269   0.984
 2525SOL     OW12273   5.103   4.639   0.290
 2525SOL    HW112274   5.183   4.580   0.288
 2525SOL    HW212275   5.053   4.631   0.204
 2526SOL     OW12276   1.207   3.540   1.257
 2526SOL    HW112277   1.237   3.460   1.308
 2526SOL    HW212278   1.232   3.530   1.160
 2527SOL     OW12279   1.941   5.192   0.478
 2527SOL    HW112280   1.958   5.102   0.437
 2527SOL    HW212281   1.990   5.262   0.426
 2528SOL     OW12282   1.745   1.010   5.734
 2528SOL    HW112283   1.685   1.053   5.801
 2528SOL    HW212284   1.723   1.043   5.643
 2529SOL     OW12285   2.259   2.835   5.727
 2529SOL    HW112286   2.351   2.836   5.765
 2529SOL    HW212287   2.254   2.898   5.649
 2530SOL     OW12288   0.114   1.182   0.424
 2530SOL    HW112289   0.015   1.168   0.413
 2530SOL    HW212290   0.163   1.103   0.386
 2531SOL     OW12291   3.903   2.575   6.286
 2531SOL    HW112292   3.858   2.507   6.228
 2531SOL    HW212293   3.933   2.533   6.371
 2532SOL     OW12294   2.470   0.258   6.766
 2532SOL    HW112295   2.549   0.275   6.707
 2532SOL    HW212296   2.449   0.342   6.817
 2533SOL     OW12297   3.335   3.162   0.068
 2533SOL    HW112298   3.406   3.169   6.855
 2533SOL    HW212299   3.307   3.067   0.076
 2534SOL     OW12300   2.312   5.389   6.227
 2534SOL    HW112301   2.233   5.423   6.278
 2534SOL    HW212302   2.283   5.354   6.139
 2535SOL     OW12303   3.932   5.395   5.634
 2535SOL    HW112304   4.007   5.357   5.688
 2535SOL    HW212305   3.846   5.352   5.661
 2536SOL     OW12306   2.865   1.476   6.456
 2536SOL    HW112307   2.961   1.501   6.467
 2536SOL    HW212308   2.825   1.529   6.381
 2537SOL     OW12309   2.567   4.593   5.729
 2537SOL    HW112310   2.533   4.516   5.675
 2537SOL    HW212311   2.502   4.669   5.723
 2538SOL     OW12312   3.300   3.925   1.446
 2538SOL    HW112313   3.253   3.839   1.465
 2538SOL    HW212314   3.317   3.974   1.531
 2539SOL     OW12315   0.554   3.705   6.063
 2539SOL    HW112316   0.463   3.746   6.061
 2539SOL    HW212317   0.555   3.629   6.127
 2540SOL     OW12318   3.686   2.745   6.320
 2540SOL    HW112319   3.770   2.694   6.302
 2540SOL    HW212320   3.608   2.693   6.284
 2541SOL     OW12321   3.268   2.737   0.964
 2541SOL    HW112322   3.335   2.804   0.995
 2541SOL    HW212323   3.200   2.781   0.906
 2542SOL     OW12324   4.826   0.799   6.520
 2542SOL    HW112325   4.841   0.881   6.464
 2542SOL    HW212326   4.739   0.757   6.495
 2543SOL     OW12327   1.293   1.674   0.470
 2543SOL    HW112328   1.315   1.770   0.485
 2543SOL    HW212329   1.344   1.618   0.535
 2544SOL     OW12330   5.414   0.174   1.992
 2544SOL    HW112331   5.340   0.222   1.946
 2544SOL    HW212332   5.379   0.090   2.035
 2545SOL     OW12333   2.685   4.574   1.348
 2545SOL    HW112334   2.620   4.632   1.398
 2545SOL    HW212335   2.690   4.484   1.392
 2546SOL     OW12336   1.370   3.425   0.619
 2546SOL    HW112337   1.333   3.502   0.672
 2546SOL    HW212338   1.330   3.340   0.651
 2547SOL     OW12339   0.949   3.227   2.369
 2547SOL    HW112340   0.871   3.248   2.429
 2547SOL    HW212341   1.026   3.285   2.395
 2548SOL     OW12342   5.390   3.996   6.783
 2548SOL    HW112343   5.330   4.060   6.830
 2548SOL    HW212344   5.483   4.004   6.820
 2549SOL     OW12345   5.462   0.722   6.377
 2549SOL    HW112346   5.519   0.655   6.331
 2549SOL    HW212347   5.484   0.724   6.474
 2550SOL     OW12348   3.485   5.269   1.195
 2550SOL    HW112349   3.448   5.316   1.275
 2550SOL    HW212350   3.444   5.177   1.190
 2551SOL     OW12351   5.219   5.370   5.908
 2551SOL    HW112352   5.223   5.391   6.005
 2551SOL    HW212353   5.235   5.272   5.894
 2552SOL     OW12354   2.660   4.947   6.843
 2552SOL    HW112355   2.564   4.919   6.839
 2552SOL    HW212356   2.665   5.046   6.856
 2553SOL     OW12357   1.948   3.509   6.012
 2553SOL    HW112358   2.046   3.489   6.007
 2553SOL    HW212359   1.922   3.523   6.107
 2554SOL     OW12360   1.252   3.642   0.752
 2554SOL    HW112361   1.172   3.695   0.723
 2554SOL    HW212362   1.324   3.705   0.781
 2555SOL     OW12363   2.819   1.223   6.359
 2555SOL    HW112364   2.741   1.176   6.399
 2555SOL    HW212365   2.832   1.311   6.404
 2556SOL     OW12366   5.123   4.157   6.480
 2556SOL    HW112367   5.071   4.201   6.407
 2556SOL    HW212368   5.074   4.077   6.513
 2557SOL     OW12369   0.038   3.638   0.702
 2557SOL    HW112370   0.007   3.733   0.706
 2557SOL    HW212371   0.056   3.605   0.795
 2558SOL     OW12372   4.947   2.358   6.804
 2558SOL    HW112373   4.857   2.395   6.825
 2558SOL    HW212374   5.018   2.422   6.834
 2559SOL     OW12375   4.933   3.476   0.259
 2559SOL    HW112376   4.992   3.554   0.238
 2559SOL    HW212377   4.979   3.392   0.233
 2560SOL     OW12378   1.785   1.335   6.375
 2560SOL    HW112379   1.824   1.267   6.313
 2560SOL    HW212380   1.704   1.376   6.333
 2561SOL     OW12381   0.603   2.182   1.526
 2561SOL    HW112382   0.567   2.162   1.617
 2561SOL    HW212383   0.666   2.259   1.531
 2562SOL     OW12384   0.835   0.540   2.092
 2562SOL    HW112385   0.774   0.553   2.170
 2562SOL    HW212386   0.921   0.588   2.109
 2563SOL     OW12387   1.767   2.214   0.456
 2563SOL    HW112388   1.815   2.138   0.411
 2563SOL    HW212389   1.743   2.187   0.549
 2564SOL     OW12390   1.482   2.230   5.746
 2564SOL    HW112391   1.392   2.252   5.709
 2564SOL    HW212392   1.552   2.246   5.676
 2565SOL     OW12393   3.936   4.006   5.887
 2565SOL    HW112394   3.845   4.031   5.919
 2565SOL    HW212395   3.943   4.021   5.789
 2566SOL     OW12396   1.371   2.794   6.325
 2566SOL    HW112397   1.376   2.731   6.247
 2566SOL    HW212398   1.416   2.880   6.303
 2567SOL     OW12399   2.624   3.747   5.599
 2567SOL    HW112400   2.682   3.820   5.563
 2567SOL    HW212401   2.659   3.658   5.569
 2568SOL     OW12402   4.581   0.700   6.748
 2568SOL    HW112403   4.561   0.759   6.827
 2568SOL    HW212404   4.613   0.611   6.780
 2569SOL     OW12405   3.483   3.780   6.030
 2569SOL    HW112406   3.408   3.840   6.002
 2569SOL    HW212407   3.553   3.833   6.078
 2570SOL     OW12408   2.162   3.997   0.197
 2570SOL    HW112409   2.135   3.949   0.280
 2570SOL    HW212410   2.084   4.002   0.134
 2571SOL     OW12411   1.561   2.345   0.796
 2571SOL    HW112412   1.485   2.360   0.732
 2571SOL    HW212413   1.623   2.276   0.760
 2572SOL     OW12414   0.215   1.969   6.543
 2572SOL    HW112415   0.188   1.875   6.565
 2572SOL    HW212416   0.196   1.988   6.447
 2573SOL     OW12417   1.562   4.706   1.797
 2573SOL    HW112418   1.623   4.703   1.876
 2573SOL    HW212419   1.467   4.710   1.828
 2574SOL     OW12420   1.138   1.444   0.636
 2574SOL    HW112421   1.180   1.512   0.695
 2574SOL    HW212422   1.185   1.357   0.645
 2575SOL     OW12423   5.512   5.181   6.428
 2575SOL    HW112424   5.580   5.108   6.424
 2575SOL    HW212425   5.420   5.141   6.423
 2576SOL     OW12426   3.989   0.784   6.015
 2576SOL    HW112427   3.893   0.805   5.995
 2576SOL    HW212428   4.048   0.841   5.957
 2577SOL     OW12429   1.162   3.405   6.257
 2577SOL    HW112430   1.096   3.472   6.290
 2577SOL    HW212431   1.250   3.419   6.304
 2578SOL     OW12432   5.617   0.505   1.238
 2578SOL    HW112433   5.676   0.537   1.165
 2578SOL    HW212434   5.525   0.486   1.202
 2579SOL     OW12435   4.770   2.676   1.328
 2579SOL    HW112436   4.836   2.653   1.257
 2579SOL    HW212437   4.677   2.672   1.291
 2580SOL     OW12438   2.409   4.809   5.715
 2580SOL    HW112439   2.340   4.810   5.643
 2580SOL    HW212440   2.472   4.885   5.703
 2581SOL     OW12441   4.897   0.155   1.606
 2581SOL    HW112442   4.858   0.193   1.690
 2581SOL    HW212443   4.842   0.077   1.576
 2582SOL     OW12444   2.178   1.846   6.500
 2582SOL    HW112445   2.110   1.919   6.499
 2582SOL    HW212446   2.143   1.767   6.449
 2583SOL     OW12447   5.128   2.732   2.466
 2583SOL    HW112448   5.044   2.781   2.488
 2583SOL    HW212449   5.207   2.783   2.501
 2584SOL     OW12450   4.809   0.814   1.033
 2584SOL    HW112451   4.907   0.828   1.048
 2584SOL    HW212452   4.795   0.757   0.952
 2585SOL     OW12453   2.144   2.440   0.346
 2585SOL    HW112454   2.158   2.538   0.338
 2585SOL    HW212455   2.077   2.421   0.418
 2586SOL     OW12456   5.426   3.112   6.760
 2586SOL    HW112457   5.415   3.187   6.695
 2586SOL    HW212458   5.491   3.045   6.724
 2587SOL     OW12459   1.779   0.313   1.848
 2587SOL    HW112460   1.700   0.333   1.905
 2587SOL    HW212461   1.822   0.228   1.880
 2588SOL     OW12462   2.183   2.232   0.174
 2588SOL    HW112463   2.283   2.224   0.173
 2588SOL    HW212464   2.157   2.312   0.228
 2589SOL     OW12465   0.958   0.016   0.798
 2589SOL    HW112466   1.047   0.061   0.784
 2589SOL    HW212467   0.885   0.080   0.776
 2590SOL     OW12468   3.278   0.696   5.148
 2590SOL    HW112469   3.371   0.664   5.133
 2590SOL    HW212470   3.215   0.640   5.094
 2591SOL     OW12471   2.761   1.703   0.485
 2591SOL    HW112472   2.725   1.648   0.409
 2591SOL    HW212473   2.845   1.661   0.518
 2592SOL     OW12474   4.950   1.851   1.541
 2592SOL    HW112475   5.017   1.777   1.549
 2592SOL    HW212476   4.869   1.817   1.493
 2593SOL     OW12477   3.765   4.368   0.223
 2593SOL    HW112478   3.775   4.269   0.235
 2593SOL    HW212479   3.717   4.387   0.137
 2594SOL     OW12480   3.744   0.524   5.976
 2594SOL    HW112481   3.646   0.511   5.962
 2594SOL    HW212482   3.776   0.463   6.049
 2595SOL     OW12483   5.009   2.665   6.054
 2595SOL    HW112484   5.068   2.738   6.019
 2595SOL    HW212485   4.979   2.688   6.147
 2596SOL     OW12486   3.819   1.535   1.558
 2596SOL    HW112487   3.758   1.534   1.637
 2596SOL    HW212488   3.911   1.559   1.587
 2597SOL     OW12489   5.161   3.367   1.670
 2597SOL    HW112490   5.237   3.303   1.657
 2597SOL    HW212491   5.105   3.338   1.747
 2598SOL     OW12492   0.664   4.828   0.033
 2598SOL    HW112493   0.590   4.837   6.823
 2598SOL    HW212494   0.687   4.919   0.069
 2599SOL     OW12495   4.691   2.656   1.594
 2599SOL    HW112496   4.763   2.657   1.663
 2599SOL    HW212497   4.730   2.673   1.504
 2600SOL     OW12498   4.448   4.845   0.878
 2600SOL    HW112499   4.439   4.894   0.965
 2600SOL    HW212500   4.544   4.817   0.865
 2601SOL     OW12501   2.427   5.045   6.559
 2601SOL    HW112502   2.457   5.099   6.480
 2601SOL    HW212503   2.374   5.103   6.621
 2602SOL     OW12504   0.362   0.643   0.720
 2602SOL    HW112505   0.310   0.571   0.765
 2602SOL    HW212506   0.441   0.668   0.777
 2603SOL     OW12507   4.428   1.505   0.680
 2603SOL    HW112508   4.509   1.497   0.738
 2603SOL    HW212509   4.439   1.584   0.619
 2604SOL     OW12510   4.907   2.629   0.221
 2604SOL    HW112511   4.831   2.653   0.160
 2604SOL    HW212512   4.956   2.712   0.246
 2605SOL     OW12513   0.079   1.552   1.202
 2605SOL    HW112514   0.059   1.454   1.207
 2605SOL    HW212515   0.124   1.572   1.115
 2606SOL     OW12516   2.641   3.449   1.197
 2606SOL    HW112517   2.601   3.364   1.232
 2606SOL    HW212518   2.625   3.454   1.098
 2607SOL     OW12519   5.465   3.138   0.176
 2607SOL    HW112520   5.527   3.064   0.203
 2607SOL    HW212521   5.440   3.126   0.080
 2608SOL     OW12522   1.170   4.505   0.589
 2608SOL    HW112523   1.183   4.441   0.665
 2608SOL    HW212524   1.183   4.599   0.622
 2609SOL     OW12525   1.462   0.258   0.536
 2609SOL    HW112526   1.487   0.272   0.440
 2609SOL    HW212527   1.364   0.238   0.543
 2610SOL     OW12528   2.193   4.520   6.223
 2610SOL    HW112529   2.267   4.465   6.263
 2610SOL    HW212530   2.218   4.546   6.130
 2611SOL     OW12531   1.830   0.339   6.370
 2611SOL    HW112532   1.891   0.412   6.339
 2611SOL    HW212533   1.758   0.324   6.302
 2612SOL     OW12534   4.884   1.458   0.959
 2612SOL    HW112535   4.847   1.384   1.015
 2612SOL    HW212536   4.959   1.423   0.903
 2613SOL     OW12537   0.478   4.757   2.668
 2613SOL    HW112538   0.482   4.716   2.759
 2613SOL    HW212539   0.547   4.829   2.661
 2614SOL     OW12540   4.602   0.243   1.267
 2614SOL    HW112541   4.632   0.222   1.174
 2614SOL    HW212542   4.630   0.336   1.291
 2615SOL     OW12543   1.266   2.373   1.005
 2615SOL    HW112544   1.268   2.416   0.914
 2615SOL    HW212545   1.183   2.402   1.053
 2616SOL     OW12546   0.003   2.504   0.820
 2616SOL    HW112547   0.089   2.456   0.800
 2616SOL    HW212548   5.624   2.489   0.745
 2617SOL     OW12549   4.994   1.246   6.241
 2617SOL    HW112550   4.976   1.258   6.143
 2617SOL    HW212551   4.983   1.334   6.288
 2618SOL     OW12552   5.683   2.859   1.795
 2618SOL    HW112553   0.076   2.889   1.742
 2618SOL    HW212554   5.667   2.921   1.871
 2619SOL     OW12555   4.906   4.000   1.492
 2619SOL    HW112556   4.927   4.065   1.566
 2619SOL    HW212557   4.957   3.916   1.507
 2620SOL     OW12558   5.273   2.891   6.233
 2620SOL    HW112559   5.212   2.889   6.153
 2620SOL    HW212560   5.367   2.906   6.203
 2621SOL     OW12561   0.255   3.420   0.008
 2621SOL    HW112562   0.317   3.462   0.075
 2621SOL    HW212563   0.260   3.470   6.779
 2622SOL     OW12564   1.285   1.108   6.278
 2622SOL    HW112565   1.351   1.100   6.353
 2622SOL    HW212566   1.195   1.127   6.315
 2623SOL     OW12567   1.009   0.431   0.029
 2623SOL    HW112568   1.017   0.520   6.839
 2623SOL    HW212569   1.096   0.383   0.025
 2624SOL     OW12570   5.041   3.904   1.223
 2624SOL    HW112571   5.076   3.887   1.131
 2624SOL    HW212572   5.017   3.817   1.266
 2625SOL     OW12573   3.198   5.205   0.824
 2625SOL    HW112574   3.150   5.152   0.754
 2625SOL    HW212575   3.296   5.186   0.819
 2626SOL     OW12576   2.988   5.027   5.337
 2626SOL    HW112577   3.028   5.046   5.247
 2626SOL    HW212578   2.888   5.032   5.332
 2627SOL     OW12579   2.127   0.224   0.410
 2627SOL    HW112580   2.092   0.294   0.472
 2627SOL    HW212581   2.051   0.166   0.380
 2628SOL     OW12582   3.260   0.117   6.404
 2628SOL    HW112583   3.249   0.018   6.389
 2628SOL    HW212584   3.219   0.142   6.492
 2629SOL     OW12585   0.395   3.683   1.978
 2629SOL    HW112586   0.423   3.612   2.042
 2629SOL    HW212587   0.296   3.694   1.981
 2630SOL     OW12588   4.392   1.286   1.833
 2630SOL    HW112589   4.459   1.221   1.796
 2630SOL    HW212590   4.331   1.317   1.759
 2631SOL     OW12591   5.105   3.160   1.213
 2631SOL    HW112592   5.069   3.219   1.285
 2631SOL    HW212593   5.061   3.070   1.217
 2632SOL     OW12594   5.149   4.504   0.695
 2632SOL    HW112595   5.117   4.492   0.789
 2632SOL    HW212596   5.249   4.509   0.694
 2633SOL     OW12597   1.572   5.170   2.301
 2633SOL    HW112598   1.487   5.147   2.350
 2633SOL    HW212599   1.620   5.086   2.277
 2634SOL     OW12600   3.627   1.089   6.448
 2634SOL    HW112601   3.666   1.171   6.404
 2634SOL    HW212602   3.535   1.073   6.413
 2635SOL     OW12603   0.573   4.503   1.462
 2635SOL    HW112604   0.523   4.484   1.378
 2635SOL    HW212605   0.618   4.592   1.455
 2636SOL     OW12606   4.421   2.703   1.621
 2636SOL    HW112607   4.519   2.683   1.619
 2636SOL    HW212608   4.374   2.632   1.673
 2637SOL     OW12609   5.645   4.702   0.234
 2637SOL    HW112610   5.680   4.614   0.203
 2637SOL    HW212611   0.027   4.773   0.217
 2638SOL     OW12612   0.171   2.158   6.732
 2638SOL    HW112613   0.172   2.105   6.817
 2638SOL    HW212614   0.185   2.096   6.655
 2639SOL     OW12615   4.451   5.009   6.086
 2639SOL    HW112616   4.453   5.073   6.010
 2639SOL    HW212617   4.523   4.940   6.073
 2640SOL     OW12618   4.147   5.289   5.773
 2640SOL    HW112619   4.178   5.232   5.697
 2640SOL    HW212620   4.149   5.234   5.857
 2641SOL     OW12621   4.584   0.374   0.287
 2641SOL    HW112622   4.573   0.291   0.340
 2641SOL    HW212623   4.514   0.377   0.215
 2642SOL     OW12624   5.126   1.707   0.009
 2642SOL    HW112625   5.069   1.685   0.088
 2642SOL    HW212626   5.144   1.623   6.815
 2643SOL     OW12627   0.595   4.474   0.122
 2643SOL    HW112628   0.621   4.561   0.166
 2643SOL    HW212629   0.672   4.438   0.070
 2644SOL     OW12630   3.970   4.829   5.568
 2644SOL    HW112631   3.904   4.811   5.495
 2644SOL    HW212632   4.062   4.809   5.536
 2645SOL     OW12633   4.546   3.206   2.182
 2645SOL    HW112634   4.462   3.180   2.230
 2645SOL    HW212635   4.572   3.299   2.209
 2646SOL     OW12636   2.545   4.585   6.000
 2646SOL    HW112637   2.619   4.619   6.058
 2646SOL    HW212638   2.572   4.591   5.904
 2647SOL     OW12639   2.777   2.262   6.596
 2647SOL    HW112640   2.707   2.192   6.608
 2647SOL    HW212641   2.762   2.335   6.662
 2648SOL     OW12642   4.007   4.390   0.369
 2648SOL    HW112643   4.070   4.335   0.314
 2648SOL    HW212644   3.916   4.388   0.328
 2649SOL     OW12645   4.186   0.393   6.789
 2649SOL    HW112646   4.133   0.469   6.826
 2649SOL    HW212647   4.168   0.384   6.691
 2650SOL     OW12648   0.019   3.745   5.719
 2650SOL    HW112649   5.685   3.739   5.621
 2650SOL    HW212650   0.026   3.841   5.745
 2651SOL     OW12651   5.281   2.781   0.097
 2651SOL    HW112652   5.221   2.812   0.171
 2651SOL    HW212653   5.267   2.838   0.016
 2652SOL     OW12654   1.707   1.110   5.485
 2652SOL    HW112655   1.724   1.194   5.536
 2652SOL    HW212656   1.729   1.124   5.388
 2653SOL     OW12657   0.486   2.759   1.162
 2653SOL    HW112658   0.474   2.820   1.083
 2653SOL    HW212659   0.408   2.697   1.169
 2654SOL     OW12660   1.771   0.925   1.162
 2654SOL    HW112661   1.699   0.857   1.145
 2654SOL    HW212662   1.821   0.901   1.244
 2655SOL     OW12663   5.068   2.847   0.261
 2655SOL    HW112664   5.031   2.878   0.173
 2655SOL    HW212665   5.036   2.909   0.333
 2656SOL     OW12666   2.468   2.486   1.436
 2656SOL    HW112667   2.484   2.535   1.521
 2656SOL    HW212668   2.500   2.541   1.359
 2657SOL     OW12669   4.824   4.530   1.990
 2657SOL    HW112670   4.879   4.468   1.934
 2657SOL    HW212671   4.880   4.607   2.020
 2658SOL     OW12672   4.327   0.500   6.175
 2658SOL    HW112673   4.343   0.420   6.118
 2658SOL    HW212674   4.397   0.568   6.158
 2659SOL     OW12675   3.637   2.880   0.144
 2659SOL    HW112676   3.686   2.964   0.120
 2659SOL    HW212677   3.606   2.886   0.239
 2660SOL     OW12678   5.414   3.380   1.375
 2660SOL    HW112679   5.386   3.284   1.374
 2660SOL    HW212680   5.493   3.391   1.435
 2661SOL     OW12681   5.157   2.203   5.943
 2661SOL    HW112682   5.135   2.105   5.938
 2661SOL    HW212683   5.147   2.243   5.852
 2662SOL     OW12684   4.657   0.456   5.894
 2662SOL    HW112685   4.704   0.538   5.861
 2662SOL    HW212686   4.703   0.375   5.858
 2663SOL     OW12687   0.098   0.566   6.822
 2663SOL    HW112688   0.184   0.549   0.012
 2663SOL    HW212689   0.069   0.661   6.838
 2664SOL     OW12690   3.961   2.999   1.101
 2664SOL    HW112691   3.983   2.902   1.109
 2664SOL    HW212692   3.956   3.025   1.005
 2665SOL     OW12693   1.797   0.548   1.103
 2665SOL    HW112694   1.880   0.517   1.055
 2665SOL    HW212695   1.764   0.475   1.162
 2666SOL     OW12696   5.149   0.293   6.779
 2666SOL    HW112697   5.101   0.207   6.765
 2666SOL    HW212698   5.163   0.338   6.690
 2667SOL     OW12699   4.290   1.688   6.702
 2667SOL    HW112700   4.335   1.720   6.785
 2667SOL    HW212701   4.300   1.589   6.694
 2668SOL     OW12702   3.229   2.612   6.103
 2668SOL    HW112703   3.232   2.604   6.004
 2668SOL    HW212704   3.138   2.587   6.135
 2669SOL     OW12705   2.997   2.243   6.437
 2669SOL    HW112706   2.917   2.264   6.493
 2669SOL    HW212707   3.065   2.316   6.447
 2670SOL     OW12708   5.169   3.636   6.577
 2670SOL    HW112709   5.092   3.587   6.617
 2670SOL    HW212710   5.138   3.688   6.497
 2671SOL     OW12711   0.834   1.297   1.218
 2671SOL    HW112712   0.822   1.311   1.120
 2671SOL    HW212713   0.834   1.199   1.238
 2672SOL     OW12714   3.883   3.916   6.341
 2672SOL    HW112715   3.871   4.015   6.353
 2672SOL    HW212716   3.858   3.870   6.426
 2673SOL     OW12717   2.701   1.323   1.594
 2673SOL    HW112718   2.677   1.420   1.589
 2673SOL    HW212719   2.758   1.307   1.674
 2674SOL     OW12720   2.082   2.627   5.685
 2674SOL    HW112721   2.161   2.687   5.693
 2674SOL    HW212722   2.061   2.612   5.588
 2675SOL     OW12723   3.801   2.120   6.576
 2675SOL    HW112724   3.741   2.155   6.504
 2675SOL    HW212725   3.880   2.075   6.534
 2676SOL     OW12726   0.168   2.471   1.938
 2676SOL    HW112727   0.206   2.380   1.923
 2676SOL    HW212728   0.209   2.535   1.873
 2677SOL     OW12729   2.028   2.995   6.703
 2677SOL    HW112730   2.067   3.079   6.665
 2677SOL    HW212731   2.099   2.948   6.756
 2678SOL     OW12732   5.022   2.765   2.010
 2678SOL    HW112733   5.067   2.851   2.035
 2678SOL    HW212734   5.030   2.700   2.087
 2679SOL     OW12735   2.813   3.918   5.513
 2679SOL    HW112736   2.814   4.015   5.487
 2679SOL    HW212737   2.907   3.883   5.512
 2680SOL     OW12738   0.043   5.083   1.922
 2680SOL    HW112739   0.014   4.998   1.878
 2680SOL    HW212740   0.093   5.062   2.006
 2681SOL     OW12741   3.506   0.755   6.608
 2681SOL    HW112742   3.605   0.743   6.604
 2681SOL    HW212743   3.484   0.852   6.601
 2682SOL     OW12744   1.698   1.861   5.744
 2682SOL    HW112745   1.652   1.789   5.796
 2682SOL    HW212746   1.666   1.859   5.649
 2683SOL     OW12747   5.187   4.954   6.184
 2683SOL    HW112748   5.143   5.043   6.171
 2683SOL    HW212749   5.203   4.911   6.095
 2684SOL     OW12750   1.402   4.331   5.938
 2684SOL    HW112751   1.456   4.365   6.015
 2684SOL    HW212752   1.463   4.312   5.861
 2685SOL     OW12753   0.451   4.731   1.238
 2685SOL    HW112754   0.532   4.750   1.294
 2685SOL    HW212755   0.429   4.633   1.244
 2686SOL     OW12756   2.081   4.120   5.848
 2686SOL    HW112757   2.071   4.218   5.832
 2686SOL    HW212758   2.022   4.069   5.786
 2687SOL     OW12759   5.069   1.945   5.952
 2687SOL    HW112760   5.133   1.871   5.930
 2687SOL    HW212761   4.980   1.925   5.912
 2688SOL     OW12762   3.561   1.272   0.344
 2688SOL    HW112763   3.543   1.278   0.443
 2688SOL    HW212764   3.582   1.177   0.320
 2689SOL     OW12765   5.522   1.819   5.927
 2689SOL    HW112766   5.422   1.814   5.916
 2689SOL    HW212767   5.544   1.880   6.002
 2690SOL     OW12768   2.172   1.438   6.162
 2690SOL    HW112769   2.224   1.397   6.087
 2690SOL    HW212770   2.081   1.463   6.130
 2691SOL     OW12771   4.286   4.965   5.760
 2691SOL    HW112772   4.357   5.025   5.796
 2691SOL    HW212773   4.311   4.936   5.668
 2692SOL     OW12774   2.574   0.553   6.540
 2692SOL    HW112775   2.617   0.464   6.551
 2692SOL    HW212776   2.488   0.543   6.490
 2693SOL     OW12777   2.397   3.481   5.291
 2693SOL    HW112778   2.315   3.503   5.238
 2693SOL    HW212779   2.386   3.391   5.333
 2694SOL     OW12780   4.824   0.388   0.431
 2694SOL    HW112781   4.735   0.362   0.395
 2694SOL    HW212782   4.862   0.312   0.484
 2695SOL     OW12783   3.438   1.918   0.984
 2695SOL    HW112784   3.470   1.938   1.077
 2695SOL    HW212785   3.501   1.958   0.918
 2696SOL     OW12786   1.129   5.336   1.317
 2696SOL    HW112787   1.121   5.406   1.389
 2696SOL    HW212788   1.224   5.332   1.285
 2697SOL     OW12789   4.771   1.255   1.127
 2697SOL    HW112790   4.725   1.180   1.078
 2697SOL    HW212791   4.704   1.306   1.180
 2698SOL     OW12792   2.437   3.099   5.924
 2698SOL    HW112793   2.432   3.138   5.832
 2698SOL    HW212794   2.458   3.001   5.917
 2699SOL     OW12795   1.981   2.367   0.549
 2699SOL    HW112796   2.013   2.327   0.634
 2699SOL    HW212797   1.907   2.311   0.511
 2700SOL     OW12798   1.216   4.755   0.704
 2700SOL    HW112799   1.177   4.746   0.796
 2700SOL    HW212800   1.193   4.844   0.666
 2701SOL     OW12801   0.431   0.601   1.715
 2701SOL    HW112802   0.445   0.693   1.676
 2701SOL    HW212803   0.391   0.609   1.806
 2702SOL     OW12804   0.718   1.757   0.076
 2702SOL    HW112805   0.802   1.761   0.129
 2702SOL    HW212806   0.692   1.661   0.061
 2703SOL     OW12807   3.813   5.127   6.180
 2703SOL    HW112808   3.838   5.146   6.085
 2703SOL    HW212809   3.876   5.058   6.217
 2704SOL     OW12810   2.418   1.004   0.545
 2704SOL    HW112811   2.492   1.050   0.496
 2704SOL    HW212812   2.404   0.913   0.506
 2705SOL     OW12813   1.355   2.553   1.900
 2705SOL    HW112814   1.409   2.500   1.966
 2705SOL    HW212815   1.260   2.556   1.931
 2706SOL     OW12816   4.615   4.565   6.153
 2706SOL    HW112817   4.553   4.566   6.231
 2706SOL    HW212818   4.604   4.479   6.103
 2707SOL     OW12819   4.463   1.738   0.547
 2707SOL    HW112820   4.384   1.800   0.547
 2707SOL    HW212821   4.531   1.772   0.611
 2708SOL     OW12822   0.043   1.102   6.351
 2708SOL    HW112823   0.057   1.181   6.291
 2708SOL    HW212824   0.089   1.022   6.312
 2709SOL     OW12825   2.490   3.243   0.116
 2709SOL    HW112826   2.404   3.280   0.082
 2709SOL    HW212827   2.543   3.207   0.040
 2710SOL     OW12828   0.989   1.456   6.130
 2710SOL    HW112829   0.940   1.411   6.205
 2710SOL    HW212830   0.942   1.438   6.044
 2711SOL     OW12831   5.319   1.939   0.701
 2711SOL    HW112832   5.242   1.881   0.726
 2711SOL    HW212833   5.291   2.035   0.704
 2712SOL     OW12834   5.208   1.052   6.200
 2712SOL    HW112835   5.145   1.123   6.231
 2712SOL    HW212836   5.298   1.067   6.240
 2713SOL     OW12837   0.411   1.974   0.563
 2713SOL    HW112838   0.331   1.932   0.605
 2713SOL    HW212839   0.414   2.071   0.587
 2714SOL     OW12840   0.263   5.572   6.621
 2714SOL    HW112841   0.201   0.043   6.630
 2714SOL    HW212842   0.311   5.578   6.533
 2715SOL     OW12843   4.765   0.289   0.779
 2715SOL    HW112844   4.823   0.254   0.706
 2715SOL    HW212845   4.819   0.350   0.838
 2716SOL     OW12846   2.478   5.197   6.337
 2716SOL    HW112847   2.574   5.212   6.312
 2716SOL    HW212848   2.422   5.273   6.304
 2717SOL     OW12849   4.878   1.022   6.355
 2717SOL    HW112850   4.910   1.107   6.312
 2717SOL    HW212851   4.828   0.968   6.287
 2718SOL     OW12852   0.379   4.815   0.579
 2718SOL    HW112853   0.351   4.721   0.595
 2718SOL    HW212854   0.311   4.861   0.520
 2719SOL     OW12855   3.505   1.872   6.558
 2719SOL    HW112856   3.486   1.774   6.559
 2719SOL    HW212857   3.560   1.896   6.638
 2720SOL     OW12858   4.423   0.883   6.418
 2720SOL    HW112859   4.423   0.929   6.507
 2720SOL    HW212860   4.329   0.862   6.392
 2721SOL     OW12861   5.531   0.440   0.553
 2721SOL    HW112862   5.451   0.499   0.541
 2721SOL    HW212863   5.584   0.439   0.469
 2722SOL     OW12864   2.634   1.564   0.272
 2722SOL    HW112865   2.556   1.566   0.335
 2722SOL    HW212866   2.650   1.470   0.243
 2723SOL     OW12867   5.308   1.665   5.639
 2723SOL    HW112868   5.218   1.622   5.638
 2723SOL    HW212869   5.377   1.597   5.665
 2724SOL     OW12870   0.038   2.693   2.338
 2724SOL    HW112871   0.099   2.752   2.392
 2724SOL    HW212872   5.636   2.684   2.385
 2725SOL     OW12873   2.223   3.730   1.199
 2725SOL    HW112874   2.294   3.780   1.249
 2725SOL    HW212875   2.168   3.794   1.146
 2726SOL     OW12876   0.053   4.460   0.151
 2726SOL    HW112877   0.063   4.400   0.072
 2726SOL    HW212878   0.113   4.430   0.225
 2727SOL     OW12879   0.522   0.647   1.396
 2727SOL    HW112880   0.574   0.577   1.445
 2727SOL    HW212881   0.507   0.725   1.457
 2728SOL     OW12882   1.882   3.527   0.728
 2728SOL    HW112883   1.817   3.474   0.783
 2728SOL    HW212884   1.837   3.555   0.642
 2729SOL     OW12885   0.758   4.073   6.232
 2729SOL    HW112886   0.770   3.991   6.175
 2729SOL    HW212887   0.847   4.104   6.265
 2730SOL     OW12888   1.473   4.681   0.634
 2730SOL    HW112889   1.381   4.705   0.663
 2730SOL    HW212890   1.497   4.592   0.673
 2731SOL     OW12891   3.823   0.620   6.368
 2731SOL    HW112892   3.776   0.533   6.385
 2731SOL    HW212893   3.905   0.603   6.313
 2732SOL     OW12894   1.803   1.190   1.240
 2732SOL    HW112895   1.870   1.180   1.313
 2732SOL    HW212896   1.778   1.100   1.205
 2733SOL     OW12897   0.669   0.226   1.250
 2733SOL    HW112898   0.732   0.235   1.327
 2733SOL    HW212899   0.575   0.236   1.282
 2734SOL     OW12900   2.890   3.093   0.938
 2734SOL    HW112901   2.984   3.109   0.905
 2734SOL    HW212902   2.856   3.008   0.897
 2735SOL     OW12903   1.496   3.133   1.249
 2735SOL    HW112904   1.591   3.163   1.241
 2735SOL    HW212905   1.467   3.089   1.164
 2736SOL     OW12906   0.625   5.475   1.772
 2736SOL    HW112907   0.678   5.419   1.836
 2736SOL    HW212908   0.575   5.415   1.710
 2737SOL     OW12909   2.614   5.313   0.421
 2737SOL    HW112910   2.595   5.316   0.323
 2737SOL    HW212911   2.702   5.268   0.437
 2738SOL     OW12912   4.819   0.643   5.753
 2738SOL    HW112913   4.909   0.656   5.796
 2738SOL    HW212914   4.829   0.584   5.672
 2739SOL     OW12915   5.065   4.461   0.949
 2739SOL    HW112916   5.059   4.529   1.023
 2739SOL    HW212917   4.991   4.394   0.959
 2740SOL     OW12918   3.528   3.759   6.504
 2740SOL    HW112919   3.627   3.765   6.510
 2740SOL    HW212920   3.486   3.824   6.569
 2741SOL     OW12921   4.200   4.992   0.055
 2741SOL    HW112922   4.103   5.011   0.074
 2741SOL    HW212923   4.215   4.894   0.057
 2742SOL     OW12924   2.988   0.561   0.959
 2742SOL    HW112925   2.888   0.555   0.957
 2742SOL    HW212926   3.015   0.657   0.966
 2743SOL     OW12927   0.231   1.923   1.125
 2743SOL    HW112928   0.213   1.875   1.211
 2743SOL    HW212929   0.219   2.021   1.139
 2744SOL     OW12930   0.786   3.840   6.093
 2744SOL    HW112931   0.855   3.807   6.029
 2744SOL    HW212932   0.699   3.794   6.074
 2745SOL     OW12933   0.919   1.124   0.554
 2745SOL    HW112934   0.989   1.146   0.486
 2745SOL    HW212935   0.962   1.119   0.644
 2746SOL     OW12936   5.429   0.846   5.681
 2746SOL    HW112937   5.478   0.802   5.606
 2746SOL    HW212938   5.457   0.942   5.688
 2747SOL     OW12939   0.754   0.360   6.838
 2747SOL    HW112940   0.850   0.378   0.003
 2747SOL    HW212941   0.749   0.317   6.748
 2748SOL     OW12942   4.038   1.371   6.720
 2748SOL    HW112943   4.012   1.318   6.801
 2748SOL    HW212944   3.976   1.449   6.711
 2749SOL     OW12945   3.574   1.263   2.312
 2749SOL    HW112946   3.669   1.287   2.332
 2749SOL    HW212947   3.549   1.180   2.363
 2750SOL     OW12948   2.626   0.316   1.056
 2750SOL    HW112949   2.701   0.305   1.120
 2750SOL    HW212950   2.635   0.248   0.983
 2751SOL     OW12951   0.148   4.080   1.355
 2751SOL    HW112952   0.190   3.989   1.363
 2751SOL    HW212953   0.078   4.078   1.284
 2752SOL     OW12954   1.962   4.610   6.790
 2752SOL    HW112955   2.025   4.539   6.760
 2752SOL    HW212956   1.934   4.592   0.027
 2753SOL     OW12957   4.415   3.748   0.379
 2753SOL    HW112958   4.387   3.657   0.348
 2753SOL    HW212959   4.334   3.803   0.399
 2754SOL     OW12960   5.490   4.751   0.013
 2754SOL    HW112961   5.540   4.818   6.816
 2754SOL    HW212962   5.535   4.740   0.102
 2755SOL     OW12963   0.107   0.008   6.161
 2755SOL    HW112964   0.042   5.593   6.088
 2755SOL    HW212965   0.148   0.097   6.144
 2756SOL     OW12966   2.445   5.111   0.185
 2756SOL    HW112967   2.529   5.145   0.143
 2756SOL    HW212968   2.368   5.169   0.158
 2757SOL     OW12969   1.433   2.420   1.664
 2757SOL    HW112970   1.399   2.475   1.740
 2757SOL    HW212971   1.444   2.325   1.694
 2758SOL     OW12972   2.205   2.818   0.576
 2758SOL    HW112973   2.211   2.767   0.490
 2758SOL    HW212974   2.185   2.914   0.558
 2759SOL     OW12975   2.477   4.554   6.494
 2759SOL    HW112976   2.435   4.643   6.478
 2759SOL    HW212977   2.448   4.490   6.423
 2760SOL     OW12978   1.149   3.773   1.394
 2760SOL    HW112979   1.189   3.696   1.344
 2760SOL    HW212980   1.223   3.829   1.432
 2761SOL     OW12981   1.605   0.592   6.247
 2761SOL    HW112982   1.606   0.599   6.148
 2761SOL    HW212983   1.649   0.673   6.287
 2762SOL     OW12984   1.267   1.824   6.686
 2762SOL    HW112985   1.191   1.761   6.701
 2762SOL    HW212986   1.307   1.850   6.774
 2763SOL     OW12987   0.041   1.076   1.460
 2763SOL    HW112988   5.657   1.138   1.423
 2763SOL    HW212989   0.088   1.030   1.384
 2764SOL     OW12990   1.525   3.747   1.577
 2764SOL    HW112991   1.492   3.809   1.507
 2764SOL    HW212992   1.483   3.769   1.665
 2765SOL     OW12993   0.973   3.208   5.930
 2765SOL    HW112994   0.936   3.275   5.865
 2765SOL    HW212995   0.968   3.117   5.890
 2766SOL     OW12996   2.648   3.924   6.645
 2766SOL    HW112997   2.697   4.004   6.610
 2766SOL    HW212998   2.712   3.866   6.696
 2767SOL     OW12999   1.187   0.157   0.764
 2767SOL    HW113000   1.254   0.175   0.836
 2767SOL    HW213001   1.171   0.241   0.712
 2768SOL     OW13002   4.867   2.572   1.090
 2768SOL    HW113003   4.951   2.541   1.046
 2768SOL    HW213004   4.806   2.494   1.104
 2769SOL     OW13005   3.581   0.996   0.303
 2769SOL    HW113006   3.652   0.928   0.283
 2769SOL    HW213007   3.511   0.955   0.362
 2770SOL     OW13008   0.181   1.992   6.277
 2770SOL    HW113009   0.136   1.903   6.268
 2770SOL    HW213010   0.264   1.994   6.221
 2771SOL     OW13011   2.721   2.630   6.322
 2771SOL    HW113012   2.796   2.668   6.376
 2771SOL    HW213013   2.666   2.705   6.285
 2772SOL     OW13014   0.529   3.295   1.826
 2772SOL    HW113015   0.547   3.216   1.766
 2772SOL    HW213016   0.609   3.311   1.884
 2773SOL     OW13017   2.432   1.190   1.188
 2773SOL    HW113018   2.369   1.174   1.264
 2773SOL    HW213019   2.421   1.284   1.155
 2774SOL     OW13020   5.403   2.697   1.063
 2774SOL    HW113021   5.489   2.714   1.014
 2774SOL    HW213022   5.329   2.683   0.996
 2775SOL     OW13023   1.534   0.652   1.918
 2775SOL    HW113024   1.463   0.721   1.926
 2775SOL    HW213025   1.616   0.682   1.968
 2776SOL     OW13026   0.129   0.538   5.752
 2776SOL    HW113027   0.120   0.578   5.661
 2776SOL    HW213028   0.061   0.466   5.764
 2777SOL     OW13029   2.831   2.138   0.133
 2777SOL    HW113030   2.865   2.106   0.222
 2777SOL    HW213031   2.813   2.236   0.138
 2778SOL     OW13032   3.646   3.516   0.163
 2778SOL    HW113033   3.577   3.500   0.093
 2778SOL    HW213034   3.615   3.588   0.224
 2779SOL     OW13035   1.392   5.401   5.424
 2779SOL    HW113036   1.491   5.413   5.420
 2779SOL    HW213037   1.349   5.459   5.355
 2780SOL     OW13038   5.254   5.031   0.426
 2780SOL    HW113039   5.317   4.979   0.483
 2780SOL    HW213040   5.293   5.120   0.406
 2781SOL     OW13041   1.524   5.288   6.845
 2781SOL    HW113042   1.577   5.244   0.060
 2781SOL    HW213043   1.586   5.336   6.782
 2782SOL     OW13044   3.118   1.255   1.555
 2782SOL    HW113045   3.105   1.254   1.654
 2782SOL    HW213046   3.046   1.202   1.511
 2783SOL     OW13047   3.052   2.295   0.366
 2783SOL    HW113048   3.102   2.278   0.281
 2783SOL    HW213049   2.994   2.217   0.386
 2784SOL     OW13050   0.084   4.431   6.077
 2784SOL    HW113051   0.068   4.459   5.983
 2784SOL    HW213052   0.172   4.384   6.084
 2785SOL     OW13053   4.610   1.838   6.455
 2785SOL    HW113054   4.561   1.756   6.425
 2785SOL    HW213055   4.612   1.905   6.381
 2786SOL     OW13056   0.837   2.855   0.999
 2786SOL    HW113057   0.776   2.901   0.934
 2786SOL    HW213058   0.791   2.775   1.037
 2787SOL     OW13059   1.988   5.245   0.948
 2787SOL    HW113060   1.919   5.177   0.972
 2787SOL    HW213061   1.959   5.295   0.867
 2788SOL     OW13062   4.739   3.685   2.335
 2788SOL    HW113063   4.724   3.783   2.324
 2788SOL    HW213064   4.829   3.669   2.375
 2789SOL     OW13065   1.001   2.045   6.722
 2789SOL    HW113066   0.956   2.115   6.666
 2789SOL    HW213067   0.945   1.961   6.722
 2790SOL     OW13068   3.629   1.973   0.775
 2790SOL    HW113069   3.546   1.964   0.719
 2790SOL    HW213070   3.704   1.925   0.730
 2791SOL     OW13071   1.469   5.519   0.792
 2791SOL    HW113072   1.527   5.584   0.744
 2791SOL    HW213073   1.443   5.556   0.881
 2792SOL     OW13074   3.385   0.974   1.364
 2792SOL    HW113075   3.426   0.912   1.431
 2792SOL    HW213076   3.444   0.979   1.283
 2793SOL     OW13077   5.532   4.983   6.028
 2793SOL    HW113078   5.482   5.065   6.052
 2793SOL    HW213079   5.581   4.948   6.108
 2794SOL     OW13080   5.268   5.433   6.180
 2794SOL    HW113081   5.260   5.460   6.276
 2794SOL    HW213082   5.306   5.509   6.127
 2795SOL     OW13083   0.911   1.759   1.061
 2795SOL    HW113084   0.916   1.697   1.139
 2795SOL    HW213085   0.933   1.709   0.977
 2796SOL     OW13086   0.849   5.160   6.744
 2796SOL    HW113087   0.894   5.232   6.692
 2796SOL    HW213088   0.753   5.185   6.761
 2797SOL     OW13089   0.168   0.798   0.606
 2797SOL    HW113090   0.243   0.740   0.638
 2797SOL    HW213091   0.084   0.774   0.656
 2798SOL     OW13092   1.874   4.043   0.372
 2798SOL    HW113093   1.940   3.973   0.399
 2798SOL    HW213094   1.810   4.005   0.305
 2799SOL     OW13095   3.475   5.146   0.096
 2799SOL    HW113096   3.528   5.144   0.180
 2799SOL    HW213097   3.496   5.229   0.045
 2800SOL     OW13098   4.600   3.017   0.905
 2800SOL    HW113099   4.659   3.078   0.852
 2800SOL    HW213100   4.652   2.936   0.932
 2801SOL     OW13101   2.252   3.334   0.703
 2801SOL    HW113102   2.195   3.268   0.753
 2801SOL    HW213103   2.276   3.297   0.614
 2802SOL     OW13104   4.488   1.934   1.985
 2802SOL    HW113105   4.409   1.980   1.946
 2802SOL    HW213106   4.470   1.913   2.081
 2803SOL     OW13107   1.959   1.601   5.659
 2803SOL    HW113108   1.862   1.591   5.637
 2803SOL    HW213109   1.973   1.687   5.709
 2804SOL     OW13110   5.450   1.272   5.477
 2804SOL    HW113111   5.376   1.311   5.422
 2804SOL    HW213112   5.538   1.299   5.440
 2805SOL     OW13113   0.860   0.261   5.931
 2805SOL    HW113114   0.945   0.307   5.956
 2805SOL    HW213115   0.845   0.183   5.991
 2806SOL     OW13116   2.428   3.154   1.828
 2806SOL    HW113117   2.494   3.191   1.893
 2806SOL    HW213118   2.414   3.057   1.847
 2807SOL     OW13119   1.783   2.618   0.331
 2807SOL    HW113120   1.807   2.701   0.382
 2807SOL    HW213121   1.729   2.558   0.389
 2808SOL     OW13122   4.344   3.498   0.025
 2808SOL    HW113123   4.250   3.480   6.852
 2808SOL    HW213124   4.346   3.499   0.125
 2809SOL     OW13125   1.794   4.465   5.908
 2809SOL    HW113126   1.777   4.539   5.844
 2809SOL    HW213127   1.782   4.498   6.002
 2810SOL     OW13128   2.398   1.831   1.337
 2810SOL    HW113129   2.493   1.817   1.311
 2810SOL    HW213130   2.370   1.760   1.402
 2811SOL     OW13131   0.933   3.161   2.108
 2811SOL    HW113132   1.017   3.190   2.064
 2811SOL    HW213133   0.938   3.180   2.206
 2812SOL     OW13134   3.857   4.334   0.836
 2812SOL    HW113135   3.901   4.389   0.765
 2812SOL    HW213136   3.814   4.395   0.903
 2813SOL     OW13137   4.794   4.946   1.192
 2813SOL    HW113138   4.876   4.995   1.162
 2813SOL    HW213139   4.802   4.850   1.167
 2814SOL     OW13140   0.235   2.924   1.663
 2814SOL    HW113141   0.322   2.879   1.685
 2814SOL    HW213142   0.229   2.936   1.564
 2815SOL     OW13143   0.834   4.922   6.600
 2815SOL    HW113144   0.836   5.007   6.652
 2815SOL    HW213145   0.925   4.881   6.599
 2816SOL     OW13146   3.338   1.551   6.305
 2816SOL    HW113147   3.362   1.624   6.242
 2816SOL    HW213148   3.368   1.463   6.267
 2817SOL     OW13149   1.698   0.267   5.732
 2817SOL    HW113150   1.785   0.302   5.696
 2817SOL    HW213151   1.716   0.197   5.801
 2818SOL     OW13152   5.617   2.369   6.388
 2818SOL    HW113153   5.642   2.305   6.315
 2818SOL    HW213154   5.552   2.436   6.352
 2819SOL     OW13155   1.921   3.974   5.680
 2819SOL    HW113156   1.896   3.945   5.588
 2819SOL    HW213157   1.850   3.946   5.744
 2820SOL     OW13158   1.129   0.833   5.495
 2820SOL    HW113159   1.176   0.921   5.482
 2820SOL    HW213160   1.128   0.783   5.408
 2821SOL     OW13161   1.088   4.395   5.187
 2821SOL    HW113162   1.184   4.379   5.165
 2821SOL    HW213163   1.030   4.341   5.126
 2822SOL     OW13164   1.858   0.198   1.408
 2822SOL    HW113165   1.805   0.248   1.339
 2822SOL    HW213166   1.884   0.261   1.482
 2823SOL     OW13167   5.667   3.699   1.380
 2823SOL    HW113168   0.071   3.741   1.379
 2823SOL    HW213169   5.668   3.617   1.322
 2824SOL     OW13170   2.628   1.040   6.047
 2824SOL    HW113171   2.708   1.056   5.990
 2824SOL    HW213172   2.587   1.128   6.071
 2825SOL     OW13173   1.493   2.991   0.241
 2825SOL    HW113174   1.448   2.935   0.171
 2825SOL    HW213175   1.526   2.931   0.314
 2826SOL     OW13176   1.198   1.265   0.033
 2826SOL    HW113177   1.251   1.287   0.115
 2826SOL    HW213178   1.124   1.331   0.023
 2827SOL     OW13179   4.059   3.458   0.341
 2827SOL    HW113180   4.006   3.436   0.260
 2827SOL    HW213181   4.057   3.380   0.404
 2828SOL     OW13182   3.179   1.305   0.516
 2828SOL    HW113183   3.084   1.318   0.544
 2828SOL    HW213184   3.221   1.234   0.572
 2829SOL     OW13185   1.814   0.079   1.011
 2829SOL    HW113186   1.744   0.150   1.003
 2829SOL    HW213187   1.838   0.047   0.920
 2830SOL     OW13188   3.117   4.203   1.387
 2830SOL    HW113189   3.111   4.113   1.431
 2830SOL    HW213190   3.173   4.264   1.443
 2831SOL     OW13191   0.215   2.324   0.820
 2831SOL    HW113192   0.151   2.248   0.828
 2831SOL    HW213193   0.272   2.328   0.903
 2832SOL     OW13194   5.502   5.435   0.719
 2832SOL    HW113195   5.412   5.464   0.752
 2832SOL    HW213196   5.568   5.508   0.732
 2833SOL     OW13197   1.247   5.259   6.854
 2833SOL    HW113198   1.223   5.238   6.759
 2833SOL    HW213199   1.346   5.270   0.004
 2834SOL     OW13200   2.336   1.879   0.902
 2834SOL    HW113201   2.248   1.902   0.860
 2834SOL    HW213202   2.353   1.941   0.979
 2835SOL     OW13203   2.994   5.400   1.224
 2835SOL    HW113204   3.044   5.485   1.236
 2835SOL    HW213205   3.053   5.333   1.178
 2836SOL     OW13206   3.465   3.018   6.132
 2836SOL    HW113207   3.453   3.109   6.093
 2836SOL    HW213208   3.527   3.022   6.210
 2837SOL     OW13209   4.623   1.407   5.981
 2837SOL    HW113210   4.665   1.330   5.934
 2837SOL    HW213211   4.586   1.471   5.914
 2838SOL     OW13212   1.271   4.288   6.824
 2838SOL    HW113213   1.194   4.326   0.016
 2838SOL    HW213214   1.339   4.253   0.032
 2839SOL     OW13215   0.807   1.357   0.952
 2839SOL    HW113216   0.756   1.440   0.928
 2839SOL    HW213217   0.767   1.278   0.905
 2840SOL     OW13218   0.600   0.093   0.239
 2840SOL    HW113219   0.694   0.092   0.273
 2840SOL    HW213220   0.580   0.182   0.198
 2841SOL     OW13221   3.021   1.939   2.037
 2841SOL    HW113222   3.099   1.938   2.101
 2841SOL    HW213223   3.015   1.851   1.991
 2842SOL     OW13224   0.341   4.473   0.902
 2842SOL    HW113225   0.245   4.466   0.930
 2842SOL    HW213226   0.376   4.563   0.928
 2843SOL     OW13227   0.857   0.782   0.519
 2843SOL    HW113228   0.811   0.856   0.471
 2843SOL    HW213229   0.923   0.821   0.584
 2844SOL     OW13230   4.034   3.270   6.422
 2844SOL    HW113231   4.132   3.290   6.432
 2844SOL    HW213232   3.998   3.238   6.509
 2845SOL     OW13233   1.743   0.829   6.304
 2845SOL    HW113234   1.707   0.912   6.345
 2845SOL    HW213235   1.804   0.852   6.228
 2846SOL     OW13236   3.398   2.726   6.554
 2846SOL    HW113237   3.448   2.645   6.583
 2846SOL    HW213238   3.416   2.801   6.618
 2847SOL     OW13239   0.818   0.046   6.087
 2847SOL    HW113240   0.893   0.016   6.145
 2847SOL    HW213241   0.733   0.046   6.139
 2848SOL     OW13242   4.528   5.403   0.013
 2848SOL    HW113243   4.626   5.408   0.034
 2848SOL    HW213244   4.515   5.406   6.772
 2849SOL     OW13245   3.062   3.076   6.561
 2849SOL    HW113246   3.102   2.999   6.611
 2849SOL    HW213247   3.135   3.132   6.523
 2850SOL     OW13248   2.862   4.962   5.647
 2850SOL    HW113249   2.837   4.866   5.637
 2850SOL    HW213250   2.954   4.977   5.611
 2851SOL     OW13251   4.860   1.124   2.031
 2851SOL    HW113252   4.852   1.121   2.131
 2851SOL    HW213253   4.931   1.061   2.000
 2852SOL     OW13254   2.375   5.460   1.056
 2852SOL    HW113255   2.435   5.498   1.126
 2852SOL    HW213256   2.288   5.432   1.097
 2853SOL     OW13257   2.889   5.115   5.872
 2853SOL    HW113258   2.807   5.172   5.871
 2853SOL    HW213259   2.896   5.064   5.786
 2854SOL     OW13260   0.187   5.440   0.849
 2854SOL    HW113261   0.185   5.359   0.908
 2854SOL    HW213262   0.250   5.507   0.886
 2855SOL     OW13263   4.573   2.459   0.262
 2855SOL    HW113264   4.473   2.450   0.257
 2855SOL    HW213265   4.610   2.387   0.320
 2856SOL     OW13266   3.961   3.582   5.790
 2856SOL    HW113267   4.038   3.644   5.775
 2856SOL    HW213268   3.921   3.557   5.701
 2857SOL     OW13269   3.826   0.994   1.196
 2857SOL    HW113270   3.866   1.004   1.104
 2857SOL    HW213271   3.900   0.997   1.264
 2858SOL     OW13272   2.406   1.183   6.788
 2858SOL    HW113273   2.403   1.193   6.689
 2858SOL    HW213274   2.457   1.101   6.813
 2859SOL     OW13275   0.551   5.454   0.625
 2859SOL    HW113276   0.470   5.506   0.599
 2859SOL    HW213277   0.561   5.455   0.724
 2860SOL     OW13278   2.554   3.927   0.573
 2860SOL    HW113279   2.574   4.025   0.579
 2860SOL    HW213280   2.598   3.880   0.649
 2861SOL     OW13281   5.312   0.760   6.710
 2861SOL    HW113282   5.405   0.759   6.672
 2861SOL    HW213283   5.311   0.711   6.797
 2862SOL     OW13284   4.050   5.309   1.625
 2862SOL    HW113285   4.114   5.250   1.576
 2862SOL    HW213286   4.048   5.285   1.721
 2863SOL     OW13287   4.027   3.103   0.065
 2863SOL    HW113288   4.108   3.101   0.006
 2863SOL    HW213289   4.053   3.081   0.159
 2864SOL     OW13290   3.127   1.678   0.018
 2864SOL    HW113291   3.129   1.762   6.821
 2864SOL    HW213292   3.139   1.700   0.115
 2865SOL     OW13293   1.749   0.158   0.143
 2865SOL    HW113294   1.812   0.122   0.211
 2865SOL    HW213295   1.661   0.177   0.186
 2866SOL     OW13296   1.605   4.918   0.594
 2866SOL    HW113297   1.566   4.827   0.609
 2866SOL    HW213298   1.543   4.987   0.631
 2867SOL     OW13299   2.568   5.583   1.207
 2867SOL    HW113300   2.602   0.036   1.279
 2867SOL    HW213301   2.645   5.550   1.152
 2868SOL     OW13302   0.409   4.330   6.832
 2868SOL    HW113303   0.365   4.378   6.756
 2868SOL    HW213304   0.470   4.394   0.023
 2869SOL     OW13305   4.503   4.735   6.574
 2869SOL    HW113306   4.493   4.812   6.512
 2869SOL    HW213307   4.535   4.767   6.663
 2870SOL     OW13308   1.404   2.957   1.656
 2870SOL    HW113309   1.342   3.035   1.651
 2870SOL    HW213310   1.397   2.915   1.747
 2871SOL     OW13311   4.826   0.055   6.525
 2871SOL    HW113312   4.753   0.003   6.481
 2871SOL    HW213313   4.791   0.144   6.553
 2872SOL     OW13314   1.993   0.427   0.544
 2872SOL    HW113315   1.923   0.426   0.474
 2872SOL    HW213316   1.956   0.392   0.630
 2873SOL     OW13317   1.307   2.685   1.354
 2873SOL    HW113318   1.332   2.654   1.262
 2873SOL    HW213319   1.364   2.764   1.379
 2874SOL     OW13320   3.147   0.792   1.806
 2874SOL    HW113321   3.075   0.841   1.757
 2874SOL    HW213322   3.127   0.695   1.808
 2875SOL     OW13323   0.142   1.707   6.593
 2875SOL    HW113324   0.181   1.617   6.574
 2875SOL    HW213325   0.113   1.712   6.689
 2876SOL     OW13326   4.101   1.213   6.506
 2876SOL    HW113327   4.070   1.274   6.579
 2876SOL    HW213328   4.190   1.244   6.472
 2877SOL     OW13329   2.960   4.513   0.589
 2877SOL    HW113330   2.908   4.542   0.670
 2877SOL    HW213331   3.018   4.435   0.613
 2878SOL     OW13332   4.573   0.085   5.433
 2878SOL    HW113333   4.495   0.116   5.378
 2878SOL    HW213334   4.641   0.041   5.374
 2879SOL     OW13335   2.027   1.990   1.133
 2879SOL    HW113336   2.086   2.067   1.156
 2879SOL    HW213337   2.010   1.935   1.215
 2880SOL     OW13338   4.923   3.969   6.531
 2880SOL    HW113339   4.870   4.054   6.538
 2880SOL    HW213340   4.866   3.892   6.561
 2881SOL     OW13341   5.472   0.821   1.042
 2881SOL    HW113342   5.446   0.770   0.960
 2881SOL    HW213343   5.470   0.919   1.022
 2882SOL     OW13344   4.955   3.327   6.223
 2882SOL    HW113345   4.940   3.421   6.255
 2882SOL    HW213346   5.052   3.304   6.233
 2883SOL     OW13347   0.711   4.742   6.440
 2883SOL    HW113348   0.753   4.809   6.501
 2883SOL    HW213349   0.641   4.787   6.384
 2884SOL     OW13350   1.413   0.825   1.254
 2884SOL    HW113351   1.481   0.780   1.197
 2884SOL    HW213352   1.450   0.838   1.346
 2885SOL     OW13353   3.219   1.615   1.196
 2885SOL    HW113354   3.175   1.624   1.286
 2885SOL    HW213355   3.193   1.692   1.138
 2886SOL     OW13356   0.628   0.016   6.673
 2886SOL    HW113357   0.614   5.550   6.607
 2886SOL    HW213358   0.684   0.088   6.632
 2887SOL     OW13359   2.092   4.461   0.568
 2887SOL    HW113360   2.061   4.388   0.506
 2887SOL    HW213361   2.160   4.425   0.632
 2888SOL     OW13362   0.010   2.372   1.073
 2888SOL    HW113363   0.012   2.414   0.982
 2888SOL    HW213364   5.609   2.393   1.117
 2889SOL     OW13365   5.378   5.181   5.593
 2889SOL    HW113366   5.468   5.144   5.569
 2889SOL    HW213367   5.326   5.198   5.510
 2890SOL     OW13368   2.906   3.128   6.781
 2890SOL    HW113369   2.956   3.108   6.697
 2890SOL    HW213370   2.939   3.068   6.854
 2891SOL     OW13371   0.951   2.965   5.814
 2891SOL    HW113372   0.911   2.901   5.880
 2891SOL    HW213373   0.899   2.963   5.729
 2892SOL     OW13374   1.494   0.441   5.802
 2892SOL    HW113375   1.429   0.446   5.727
 2892SOL    HW213376   1.570   0.381   5.777
 2893SOL     OW13377   3.935   0.837   1.906
 2893SOL    HW113378   3.856   0.811   1.961
 2893SOL    HW213379   4.002   0.763   1.906
 2894SOL     OW13380   4.973   0.435   6.142
 2894SOL    HW113381   4.993   0.397   6.052
 2894SOL    HW213382   4.973   0.535   6.137
 2895SOL     OW13383   3.641   2.001   5.630
 2895SOL    HW113384   3.558   2.033   5.584
 2895SOL    HW213385   3.621   1.915   5.678
 2896SOL     OW13386   4.729   2.401   0.599
 2896SOL    HW113387   4.718   2.328   0.531
 2896SOL    HW213388   4.728   2.362   0.691
 2897SOL     OW13389   0.508   2.537   0.409
 2897SOL    HW113390   0.541   2.572   0.321
 2897SOL    HW213391   0.523   2.606   0.480
 2898SOL     OW13392   3.572   3.913   0.180
 2898SOL    HW113393   3.495   3.976   0.193
 2898SOL    HW213394   3.559   3.833   0.239
 2899SOL     OW13395   5.144   5.328   0.155
 2899SOL    HW113396   5.130   5.241   0.107
 2899SOL    HW213397   5.062   5.352   0.206
 2900SOL     OW13398   5.194   2.007   6.576
 2900SOL    HW113399   5.253   2.018   6.496
 2900SOL    HW213400   5.141   2.091   6.590
 2901SOL     OW13401   3.855   2.643   0.926
 2901SOL    HW113402   3.858   2.546   0.902
 2901SOL    HW213403   3.839   2.697   0.843
 2902SOL     OW13404   5.401   2.042   0.456
 2902SOL    HW113405   5.380   1.991   0.373
 2902SOL    HW213406   5.375   1.987   0.536
 2903SOL     OW13407   5.232   0.620   1.013
 2903SOL    HW113408   5.283   0.637   0.929
 2903SOL    HW213409   5.278   0.548   1.066
 2904SOL     OW13410   1.574   5.309   1.059
 2904SOL    HW113411   1.605   5.282   0.967
 2904SOL    HW213412   1.646   5.363   1.104
 2905SOL     OW13413   4.162   1.567   0.382
 2905SOL    HW113414   4.204   1.648   0.342
 2905SOL    HW213415   4.096   1.528   0.317
 2906SOL     OW13416   3.711   2.109   2.162
 2906SOL    HW113417   3.763   2.194   2.169
 2906SOL    HW213418   3.768   2.032   2.190
 2907SOL     OW13419   4.768   0.154   0.022
 2907SOL    HW113420   4.737   0.184   6.790
 2907SOL    HW213421   4.801   0.232   0.075
 2908SOL     OW13422   1.872   5.345   0.715
 2908SOL    HW113423   1.777   5.322   0.736
 2908SOL    HW213424   1.901   5.294   0.634
 2909SOL     OW13425   4.834   0.489   5.524
 2909SOL    HW113426   4.763   0.421   5.544
 2909SOL    HW213427   4.915   0.442   5.487
 2910SOL     OW13428   2.896   1.844   6.270
 2910SOL    HW113429   2.857   1.753   6.260
 2910SOL    HW213430   2.979   1.840   6.326
 2911SOL     OW13431   2.108   1.127   2.033
 2911SOL    HW113432   2.159   1.076   2.103
 2911SOL    HW213433   2.140   1.222   2.031
 2912SOL     OW13434   5.009   1.311   1.261
 2912SOL    HW113435   4.942   1.272   1.197
 2912SOL    HW213436   4.974   1.397   1.298
 2913SOL     OW13437   0.175   4.061   6.053
 2913SOL    HW113438   0.098   4.086   6.112
 2913SOL    HW213439   0.240   4.137   6.049
 2914SOL     OW13440   2.455   2.202   0.199
 2914SOL    HW113441   2.484   2.245   0.114
 2914SOL    HW213442   2.492   2.109   0.204
 2915SOL     OW13443   1.732   4.438   1.285
 2915SOL    HW113444   1.762   4.421   1.379
 2915SOL    HW213445   1.788   4.384   1.222
 2916SOL     OW13446   0.512   1.316   0.412
 2916SOL    HW113447   0.494   1.223   0.379
 2916SOL    HW213448   0.589   1.314   0.476
 2917SOL     OW13449   1.249   0.673   5.684
 2917SOL    HW113450   1.198   0.727   5.616
 2917SOL    HW213451   1.270   0.583   5.646
 2918SOL     OW13452   1.193   5.463   0.187
 2918SOL    HW113453   1.215   5.398   0.114
 2918SOL    HW213454   1.145   5.416   0.261
 2919SOL     OW13455   3.793   4.784   5.367
 2919SOL    HW113456   3.719   4.740   5.417
 2919SOL    HW213457   3.801   4.743   5.276
 2920SOL     OW13458   3.396   1.932   0.633
 2920SOL    HW113459   3.396   1.834   0.614
 2920SOL    HW213460   3.308   1.959   0.671
 2921SOL     OW13461   2.864   0.201   5.903
 2921SOL    HW113462   2.858   0.101   5.905
 2921SOL    HW213463   2.846   0.237   5.994
 2922SOL     OW13464   1.104   2.540   2.029
 2922SOL    HW113465   1.151   2.460   2.067
 2922SOL    HW213466   1.005   2.526   2.032
 2923SOL     OW13467   1.780   3.581   0.473
 2923SOL    HW113468   1.730   3.494   0.474
 2923SOL    HW213469   1.873   3.566   0.439
 2924SOL     OW13470   2.925   3.386   6.855
 2924SOL    HW113471   2.920   3.292   6.821
 2924SOL    HW213472   2.857   3.442   6.807
 2925SOL     OW13473   4.166   5.157   6.010
 2925SOL    HW113474   4.172   5.063   6.043
 2925SOL    HW213475   4.183   5.220   6.086
 2926SOL     OW13476   1.863   2.636   2.051
 2926SOL    HW113477   1.817   2.547   2.053
 2926SOL    HW213478   1.804   2.704   2.094
 2927SOL     OW13479   2.303   1.332   5.946
 2927SOL    HW113480   2.395   1.317   5.981
 2927SOL    HW213481   2.306   1.345   5.847
 2928SOL     OW13482   1.869   3.132   6.353
 2928SOL    HW113483   1.816   3.141   6.269
 2928SOL    HW213484   1.838   3.200   6.419
 2929SOL     OW13485   4.653   3.107   1.399
 2929SOL    HW113486   4.574   3.125   1.458
 2929SOL    HW213487   4.623   3.100   1.304
 2930SOL     OW13488   4.477   3.541   5.178
 2930SOL    HW113489   4.537   3.608   5.222
 2930SOL    HW213490   4.520   3.451   5.181
 2931SOL     OW13491   1.246   0.052   5.648
 2931SOL    HW113492   1.337   0.089   5.631
 2931SOL    HW213493   1.179   0.126   5.650
 2932SOL     OW13494   4.100   0.507   0.306
 2932SOL    HW113495   4.042   0.531   0.228
 2932SOL    HW213496   4.165   0.581   0.324
 2933SOL     OW13497   0.403   3.530   1.754
 2933SOL    HW113498   0.406   3.589   1.835
 2933SOL    HW213499   0.454   3.446   1.772
 2934SOL     OW13500   2.447   3.449   6.170
 2934SOL    HW113501   2.502   3.365   6.163
 2934SOL    HW213502   2.433   3.471   6.266
 2935SOL     OW13503   5.525   1.262   6.696
 2935SOL    HW113504   5.506   1.360   6.694
 2935SOL    HW213505   5.460   1.214   6.636
 2936SOL     OW13506   3.757   1.743   0.035
 2936SOL    HW113507   3.677   1.727   0.094
 2936SOL    HW213508   3.839   1.753   0.092
 2937SOL     OW13509   0.851   2.196   6.544
 2937SOL    HW113510   0.862   2.185   6.445
 2937SOL    HW213511   0.824   2.291   6.564
 2938SOL     OW13512   0.576   3.539   1.068
 2938SOL    HW113513   0.670   3.520   1.039
 2938SOL    HW213514   0.535   3.607   1.008
 2939SOL     OW13515   0.876   4.245   1.580
 2939SOL    HW113516   0.782   4.231   1.547
 2939SOL    HW213517   0.874   4.306   1.659
 2940SOL     OW13518   2.248   3.322   1.699
 2940SOL    HW113519   2.313   3.265   1.750
 2940SOL    HW213520   2.179   3.358   1.762
 2941SOL     OW13521   4.012   4.982   5.791
 2941SOL    HW113522   3.987   4.932   5.708
 2941SOL    HW213523   4.112   4.986   5.799
 2942SOL     OW13524   4.651   1.551   0.837
 2942SOL    HW113525   4.740   1.525   0.876
 2942SOL    HW213526   4.656   1.645   0.803
 2943SOL     OW13527   3.926   0.010   6.745
 2943SOL    HW113528   3.986   0.064   6.804
 2943SOL    HW213529   3.830   0.032   6.765
 2944SOL     OW13530   3.776   2.603   1.361
 2944SOL    HW113531   3.817   2.516   1.333
 2944SOL    HW213532   3.841   2.654   1.418
 2945SOL     OW13533   0.454   4.946   0.812
 2945SOL    HW113534   0.429   4.895   0.730
 2945SOL    HW213535   0.443   5.044   0.795
 2946SOL     OW13536   3.577   4.392   5.769
 2946SOL    HW113537   3.515   4.418   5.695
 2946SOL    HW213538   3.653   4.338   5.732
 2947SOL     OW13539   1.482   4.896   5.872
 2947SOL    HW113540   1.569   4.908   5.825
 2947SOL    HW213541   1.430   4.982   5.868
 2948SOL     OW13542   4.308   4.604   0.866
 2948SOL    HW113543   4.354   4.693   0.865
 2948SOL    HW213544   4.236   4.604   0.934
 2949SOL     OW13545   2.066   1.161   1.691
 2949SOL    HW113546   2.115   1.245   1.714
 2949SOL    HW213547   1.995   1.144   1.759
 2950SOL     OW13548   0.080   3.636   0.980
 2950SOL    HW113549   0.075   3.575   1.060
 2950SOL    HW213550   0.138   3.714   1.001
 2951SOL     OW13551   5.399   4.218   6.098
 2951SOL    HW113552   5.482   4.178   6.137
 2951SOL    HW213553   5.413   4.317   6.086
 2952SOL     OW13554   5.487   4.817   2.199
 2952SOL    HW113555   5.469   4.916   2.205
 2952SOL    HW213556   5.534   4.787   2.281
 2953SOL     OW13557   3.553   3.695   0.345
 2953SOL    HW113558   3.484   3.633   0.381
 2953SOL    HW213559   3.619   3.716   0.417
 2954SOL     OW13560   4.593   3.533   1.703
 2954SOL    HW113561   4.618   3.623   1.666
 2954SOL    HW213562   4.575   3.541   1.801
 2955SOL     OW13563   0.557   0.032   6.184
 2955SOL    HW113564   0.540   5.542   6.201
 2955SOL    HW213565   0.519   0.057   6.095
 2956SOL     OW13566   0.249   5.208   0.992
 2956SOL    HW113567   0.313   5.199   0.916
 2956SOL    HW213568   0.299   5.210   1.078
 2957SOL     OW13569   2.898   3.804   6.368
 2957SOL    HW113570   2.991   3.826   6.337
 2957SOL    HW213571   2.832   3.849   6.308
 2958SOL     OW13572   2.208   3.000   1.177
 2958SOL    HW113573   2.117   2.964   1.198
 2958SOL    HW213574   2.201   3.097   1.154
 2959SOL     OW13575   2.119   4.846   0.131
 2959SOL    HW113576   2.110   4.748   0.147
 2959SOL    HW213577   2.208   4.866   0.092
 2960SOL     OW13578   3.178   2.264   0.122
 2960SOL    HW113579   3.152   2.347   0.072
 2960SOL    HW213580   3.185   2.188   0.058
 2961SOL     OW13581   3.591   4.529   5.998
 2961SOL    HW113582   3.581   4.477   5.913
 2961SOL    HW213583   3.555   4.621   5.985
 2962SOL     OW13584   4.611   5.054   0.543
 2962SOL    HW113585   4.633   4.997   0.464
 2962SOL    HW213586   4.618   5.150   0.518
 2963SOL     OW13587   2.025   4.604   0.897
 2963SOL    HW113588   1.936   4.643   0.872
 2963SOL    HW213589   2.020   4.504   0.890
 2964SOL     OW13590   3.017   1.905   1.325
 2964SOL    HW113591   2.967   1.933   1.407
 2964SOL    HW213592   2.962   1.838   1.274
 2965SOL     OW13593   2.660   5.219   0.055
 2965SOL    HW113594   2.635   5.292   6.849
 2965SOL    HW213595   2.753   5.234   0.088
 2966SOL     OW13596   4.539   3.446   6.153
 2966SOL    HW113597   4.555   3.503   6.072
 2966SOL    HW213598   4.494   3.501   6.224
 2967SOL     OW13599   2.662   1.596   1.575
 2967SOL    HW113600   2.592   1.626   1.639
 2967SOL    HW213601   2.748   1.642   1.595
 2968SOL     OW13602   2.522   0.027   0.055
 2968SOL    HW113603   2.500   0.107   6.857
 2968SOL    HW213604   2.558   5.561   6.853
 2969SOL     OW13605   0.635   3.379   0.567
 2969SOL    HW113606   0.729   3.412   0.575
 2969SOL    HW213607   0.629   3.317   0.489
 2970SOL     OW13608   3.143   4.843   1.099
 2970SOL    HW113609   3.144   4.784   1.180
 2970SOL    HW213610   3.213   4.914   1.109
 2971SOL     OW13611   3.640   0.022   6.698
 2971SOL    HW113612   3.597   5.560   6.757
 2971SOL    HW213613   3.640   5.596   6.604
 2972SOL     OW13614   5.036   4.897   0.685
 2972SOL    HW113615   5.016   4.817   0.628
 2972SOL    HW213616   4.952   4.947   0.705
 2973SOL     OW13617   1.735   4.705   6.662
 2973SOL    HW113618   1.816   4.669   6.708
 2973SOL    HW213619   1.751   4.704   6.563
 2974SOL     OW13620   1.037   2.998   1.539
 2974SOL    HW113621   1.101   3.070   1.565
 2974SOL    HW213622   0.949   3.038   1.513
 2975SOL     OW13623   1.149   2.297   1.826
 2975SOL    HW113624   1.189   2.219   1.779
 2975SOL    HW213625   1.188   2.304   1.918
 2976SOL     OW13626   4.290   4.841   0.380
 2976SOL    HW113627   4.309   4.882   0.469
 2976SOL    HW213628   4.191   4.835   0.366
 2977SOL     OW13629   2.348   0.291   6.249
 2977SOL    HW113630   2.330   0.366   6.313
 2977SOL    HW213631   2.292   0.304   6.167
 2978SOL     OW13632   1.040   4.047   5.127
 2978SOL    HW113633   1.002   4.124   5.076
 2978SOL    HW213634   1.127   4.019   5.087
 2979SOL     OW13635   5.424   4.517   0.690
 2979SOL    HW113636   5.482   4.443   0.724
 2979SOL    HW213637   5.452   4.541   0.597
 2980SOL     OW13638   4.543   3.069   0.193
 2980SOL    HW113639   4.526   3.164   0.219
 2980SOL    HW213640   4.586   3.021   0.270
 2981SOL     OW13641   4.251   2.866   6.594
 2981SOL    HW113642   4.240   2.786   6.535
 2981SOL    HW213643   4.254   2.837   6.690
 2982SOL     OW13644   0.899   4.269   1.130
 2982SOL    HW113645   0.859   4.308   1.047
 2982SOL    HW213646   0.828   4.219   1.181
 2983SOL     OW13647   1.547   0.389   1.983
 2983SOL    HW113648   1.534   0.485   1.960
 2983SOL    HW213649   1.509   0.371   2.075
 2984SOL     OW13650   5.301   4.796   6.554
 2984SOL    HW113651   5.387   4.829   6.516
 2984SOL    HW213652   5.242   4.874   6.576
 2985SOL     OW13653   5.071   4.103   0.804
 2985SOL    HW113654   5.017   4.019   0.791
 2985SOL    HW213655   5.071   4.156   0.719
 2986SOL     OW13656   4.035   1.060   6.287
 2986SOL    HW113657   4.052   1.116   6.368
 2986SOL    HW213658   3.950   1.009   6.300
 2987SOL     OW13659   2.549   4.414   1.760
 2987SOL    HW113660   2.621   4.431   1.827
 2987SOL    HW213661   2.514   4.321   1.771
 2988SOL     OW13662   0.867   2.263   0.183
 2988SOL    HW113663   0.893   2.322   0.259
 2988SOL    HW213664   0.912   2.296   0.099
 2989SOL     OW13665   1.896   2.826   5.709
 2989SOL    HW113666   1.941   2.915   5.702
 2989SOL    HW213667   1.964   2.753   5.701
 2990SOL     OW13668   4.068   1.874   5.375
 2990SOL    HW113669   4.158   1.916   5.389
 2990SOL    HW213670   4.029   1.906   5.288
 2991SOL     OW13671   4.720   1.110   1.372
 2991SOL    HW113672   4.776   1.036   1.409
 2991SOL    HW213673   4.761   1.144   1.287
 2992SOL     OW13674   1.059   2.472   1.150
 2992SOL    HW113675   1.059   2.567   1.117
 2992SOL    HW213676   1.045   2.471   1.249
 2993SOL     OW13677   0.947   3.083   1.109
 2993SOL    HW113678   0.878   3.135   1.160
 2993SOL    HW213679   0.904   3.002   1.069
 2994SOL     OW13680   3.602   4.846   1.544
 2994SOL    HW113681   3.620   4.750   1.526
 2994SOL    HW213682   3.639   4.871   1.633
 2995SOL     OW13683   2.267   1.009   2.224
 2995SOL    HW113684   2.206   0.938   2.259
 2995SOL    HW213685   2.362   0.982   2.237
 2996SOL     OW13686   4.046   2.218   5.262
 2996SOL    HW113687   4.029   2.128   5.221
 2996SOL    HW213688   4.083   2.279   5.192
 2997SOL     OW13689   2.919   5.440   0.381
 2997SOL    HW113690   2.881   5.521   0.426
 2997SOL    HW213691   2.896   5.359   0.435
 2998SOL     OW13692   0.062   5.482   0.234
 2998SOL    HW113693   0.152   5.444   0.254
 2998SOL    HW213694   0.019   5.514   0.318
 2999SOL     OW13695   1.859   1.617   1.981
 2999SOL    HW113696   1.771   1.605   2.028
 2999SOL    HW213697   1.933   1.605   2.047
 3000SOL     OW13698   0.140   4.902   0.174
 3000SOL    HW113699   0.181   4.928   0.261
 3000SOL    HW213700   0.120   4.984   0.120
 3001SOL     OW13701   0.564   4.722   1.860
 3001SOL    HW113702   0.655   4.762   1.852
 3001SOL    HW213703   0.570   4.632   1.904
 3002SOL     OW13704   0.203   2.603   0.568
 3002SOL    HW113705   0.122   2.619   0.511
 3002SOL    HW213706   0.246   2.517   0.540
 3003SOL     OW13707   4.960   0.466   1.246
 3003SOL    HW113708   4.992   0.423   1.331
 3003SOL    HW213709   4.967   0.565   1.255
 3004SOL     OW13710   4.272   4.288   5.255
 3004SOL    HW113711   4.359   4.328   5.228
 3004SOL    HW213712   4.288   4.205   5.309
 3005SOL     OW13713   2.239   3.952   6.589
 3005SOL    HW113714   2.257   3.998   6.502
 3005SOL    HW213715   2.294   3.993   6.661
 3006SOL     OW13716   2.725   0.743   6.407
 3006SOL    HW113717   2.768   0.806   6.471
 3006SOL    HW213718   2.667   0.678   6.457
 3007SOL     OW13719   5.333   4.477   0.285
 3007SOL    HW113720   5.383   4.442   0.205
 3007SOL    HW213721   5.394   4.535   0.339
 3008SOL     OW13722   5.508   2.476   6.830
 3008SOL    HW113723   5.479   2.421   0.051
 3008SOL    HW213724   5.553   2.416   6.763
 3009SOL     OW13725   1.566   0.440   0.711
 3009SOL    HW113726   1.520   0.371   0.654
 3009SOL    HW213727   1.618   0.502   0.652
 3010SOL     OW13728   2.913   1.121   5.630
 3010SOL    HW113729   3.004   1.114   5.588
 3010SOL    HW213730   2.845   1.139   5.559
 3011SOL     OW13731   0.490   1.860   5.287
 3011SOL    HW113732   0.527   1.768   5.298
 3011SOL    HW213733   0.565   1.923   5.267
 3012SOL     OW13734   4.541   3.812   1.272
 3012SOL    HW113735   4.588   3.892   1.310
 3012SOL    HW213736   4.506   3.835   1.181
 3013SOL     OW13737   1.015   4.657   5.189
 3013SOL    HW113738   0.923   4.668   5.151
 3013SOL    HW213739   1.038   4.560   5.192
 3014SOL     OW13740   1.359   1.709   1.208
 3014SOL    HW113741   1.370   1.620   1.163
 3014SOL    HW213742   1.274   1.709   1.261
 3015SOL     OW13743   4.642   3.773   0.218
 3015SOL    HW113744   4.553   3.773   0.263
 3015SOL    HW213745   4.664   3.867   0.190
 3016SOL     OW13746   1.450   5.125   6.636
 3016SOL    HW113747   1.473   5.192   6.706
 3016SOL    HW213748   1.507   5.044   6.648
 3017SOL     OW13749   4.318   5.553   1.301
 3017SOL    HW113750   4.260   5.606   1.363
 3017SOL    HW213751   4.286   5.458   1.301
 3018SOL     OW13752   4.354   4.320   6.447
 3018SOL    HW113753   4.254   4.311   6.448
 3018SOL    HW213754   4.396   4.230   6.455
 3019SOL     OW13755   3.216   1.408   1.014
 3019SOL    HW113756   3.299   1.353   1.009
 3019SOL    HW213757   3.224   1.473   1.089
 3020SOL     OW13758   5.194   0.228   0.428
 3020SOL    HW113759   5.231   0.192   0.342
 3020SOL    HW213760   5.167   0.323   0.415
 3021SOL     OW13761   3.804   3.098   1.297
 3021SOL    HW113762   3.854   3.059   1.219
 3021SOL    HW213763   3.823   3.043   1.379
 3022SOL     OW13764   3.895   0.819   0.776
 3022SOL    HW113765   3.894   0.889   0.847
 3022SOL    HW213766   3.960   0.845   0.704
 3023SOL     OW13767   4.300   4.269   0.619
 3023SOL    HW113768   4.278   4.353   0.569
 3023SOL    HW213769   4.326   4.293   0.713
 3024SOL     OW13770   4.636   4.816   6.042
 3024SOL    HW113771   4.734   4.834   6.035
 3024SOL    HW213772   4.622   4.726   6.084
 3025SOL     OW13773   4.591   4.320   6.023
 3025SOL    HW113774   4.649   4.349   5.946
 3025SOL    HW213775   4.506   4.281   5.988
 3026SOL     OW13776   5.268   5.076   6.421
 3026SOL    HW113777   5.240   5.024   6.340
 3026SOL    HW213778   5.207   5.053   6.497
 3027SOL     OW13779   3.387   5.380   1.429
 3027SOL    HW113780   3.331   5.297   1.434
 3027SOL    HW213781   3.399   5.418   1.520
 3028SOL     OW13782   3.983   1.437   5.426
 3028SOL    HW113783   4.073   1.453   5.385
 3028SOL    HW213784   3.914   1.435   5.353
 3029SOL     OW13785   0.362   4.192   0.206
 3029SOL    HW113786   0.371   4.235   0.116
 3029SOL    HW213787   0.452   4.188   0.250
 3030SOL     OW13788   1.365   5.582   6.349
 3030SOL    HW113789   1.280   5.582   6.401
 3030SOL    HW213790   1.391   0.069   6.326
 3031SOL     OW13791   5.626   3.928   0.277
 3031SOL    HW113792   0.012   3.861   0.296
 3031SOL    HW213793   5.638   3.965   0.185
 3032SOL     OW13794   3.564   5.294   0.927
 3032SOL    HW113795   3.661   5.317   0.932
 3032SOL    HW213796   3.525   5.295   1.019
 3033SOL     OW13797   4.145   2.495   1.219
 3033SOL    HW113798   4.189   2.432   1.155
 3033SOL    HW213799   4.209   2.519   1.292
 3034SOL     OW13800   4.718   1.609   0.130
 3034SOL    HW113801   4.675   1.573   0.213
 3034SOL    HW213802   4.724   1.536   0.062
 3035SOL     OW13803   1.013   2.006   0.950
 3035SOL    HW113804   0.988   2.091   0.997
 3035SOL    HW213805   0.972   1.929   0.998
 3036SOL     OW13806   4.092   5.352   0.871
 3036SOL    HW113807   4.183   5.335   0.908
 3036SOL    HW213808   4.073   5.286   0.798
 3037SOL     OW13809   0.082   3.006   1.110
 3037SOL    HW113810   0.066   2.919   1.156
 3037SOL    HW213811   0.175   3.039   1.130
 3038SOL     OW13812   1.732   1.291   1.734
 3038SOL    HW113813   1.658   1.344   1.775
 3038SOL    HW213814   1.778   1.237   1.804
 3039SOL     OW13815   4.803   1.312   0.690
 3039SOL    HW113816   4.812   1.287   0.594
 3039SOL    HW213817   4.763   1.403   0.698
 3040SOL     OW13818   5.657   4.568   6.408
 3040SOL    HW113819   0.031   4.600   6.335
 3040SOL    HW213820   0.020   4.576   6.496
 3041SOL     OW13821   3.503   3.232   0.703
 3041SOL    HW113822   3.433   3.178   0.655
 3041SOL    HW213823   3.460   3.285   0.776
 3042SOL     OW13824   2.343   4.415   0.715
 3042SOL    HW113825   2.363   4.439   0.810
 3042SOL    HW213826   2.424   4.429   0.659
 3043SOL     OW13827   3.205   0.370   0.063
 3043SOL    HW113828   3.263   0.372   6.840
 3043SOL    HW213829   3.151   0.454   0.069
 3044SOL     OW13830   4.975   1.639   0.225
 3044SOL    HW113831   4.994   1.568   0.293
 3044SOL    HW213832   4.881   1.630   0.191
 3045SOL     OW13833   2.382   2.926   1.599
 3045SOL    HW113834   2.376   2.898   1.695
 3045SOL    HW213835   2.309   2.992   1.579
 3046SOL     OW13836   1.729   3.126   6.121
 3046SOL    HW113837   1.803   3.107   6.057
 3046SOL    HW213838   1.676   3.205   6.088
 3047SOL     OW13839   1.196   3.969   5.438
 3047SOL    HW113840   1.110   3.934   5.400
 3047SOL    HW213841   1.241   4.027   5.370
 3048SOL     OW13842   3.123   2.242   6.170
 3048SOL    HW113843   3.055   2.283   6.109
 3048SOL    HW213844   3.088   2.245   6.264
 3049SOL     OW13845   4.922   2.342   6.363
 3049SOL    HW113846   4.897   2.245   6.360
 3049SOL    HW213847   4.967   2.368   6.277
 3050SOL     OW13848   1.736   3.932   5.879
 3050SOL    HW113849   1.760   3.877   5.960
 3050SOL    HW213850   1.735   4.029   5.903
 3051SOL     OW13851   3.164   1.747   0.283
 3051SOL    HW113852   3.120   1.798   0.356
 3051SOL    HW213853   3.205   1.664   0.320
 3052SOL     OW13854   3.510   0.505   6.221
 3052SOL    HW113855   3.595   0.462   6.252
 3052SOL    HW213856   3.449   0.518   6.299
 3053SOL     OW13857   3.320   1.573   2.245
 3053SOL    HW113858   3.297   1.488   2.292
 3053SOL    HW213859   3.326   1.647   2.311
 3054SOL     OW13860   5.061   3.785   6.374
 3054SOL    HW113861   5.012   3.859   6.421
 3054SOL    HW213862   5.111   3.822   6.296
 3055SOL     OW13863   0.037   3.262   0.870
 3055SOL    HW113864   5.685   3.265   0.962
 3055SOL    HW213865   5.649   3.273   0.803
 3056SOL     OW13866   0.293   2.142   5.611
 3056SOL    HW113867   0.355   2.069   5.641
 3056SOL    HW213868   0.334   2.231   5.631
 3057SOL     OW13869   0.697   4.672   5.912
 3057SOL    HW113870   0.636   4.751   5.925
 3057SOL    HW213871   0.642   4.589   5.906
 3058SOL     OW13872   5.246   1.523   1.774
 3058SOL    HW113873   5.339   1.491   1.792
 3058SOL    HW213874   5.221   1.594   1.841
 3059SOL     OW13875   3.337   2.639   6.854
 3059SOL    HW113876   3.350   2.736   0.015
 3059SOL    HW213877   3.412   2.605   6.797
 3060SOL     OW13878   4.178   4.520   5.356
 3060SOL    HW113879   4.131   4.572   5.284
 3060SOL    HW213880   4.208   4.432   5.318
 3061SOL     OW13881   2.754   1.817   0.744
 3061SOL    HW113882   2.755   1.770   0.655
 3061SOL    HW213883   2.686   1.891   0.741
 3062SOL     OW13884   5.484   1.469   5.726
 3062SOL    HW113885   5.423   1.390   5.722
 3062SOL    HW213886   5.570   1.448   5.680
 3063SOL     OW13887   3.605   4.067   1.814
 3063SOL    HW113888   3.622   4.139   1.745
 3063SOL    HW213889   3.678   4.069   1.882
 3064SOL     OW13890   5.121   4.823   1.359
 3064SOL    HW113891   5.155   4.915   1.344
 3064SOL    HW213892   5.176   4.778   1.430
 3065SOL     OW13893   1.225   1.764   6.416
 3065SOL    HW113894   1.236   1.781   6.514
 3065SOL    HW213895   1.194   1.670   6.402
 3066SOL     OW13896   3.866   2.203   5.950
 3066SOL    HW113897   3.825   2.210   5.860
 3066SOL    HW213898   3.918   2.286   5.970
 3067SOL     OW13899   1.049   0.073   0.107
 3067SOL    HW113900   1.100   5.601   0.142
 3067SOL    HW213901   0.967   0.087   0.163
 3068SOL     OW13902   4.187   5.533   0.451
 3068SOL    HW113903   4.226   5.579   0.531
 3068SOL    HW213904   4.248   5.459   0.422
 3069SOL     OW13905   0.677   3.959   0.659
 3069SOL    HW113906   0.714   3.867   0.672
 3069SOL    HW213907   0.715   3.999   0.576
 3070SOL     OW13908   0.377   5.284   6.367
 3070SOL    HW113909   0.395   5.266   6.270
 3070SOL    HW213910   0.289   5.331   6.376
 3071SOL     OW13911   4.167   0.825   6.358
 3071SOL    HW113912   4.125   0.907   6.321
 3071SOL    HW213913   4.129   0.744   6.313
 3072SOL     OW13914   0.619   1.104   5.634
 3072SOL    HW113915   0.676   1.085   5.714
 3072SOL    HW213916   0.644   1.042   5.559
 3073SOL     OW13917   4.570   4.816   6.831
 3073SOL    HW113918   4.593   4.909   0.000
 3073SOL    HW213919   4.532   4.767   0.053
 3074SOL     OW13920   5.461   1.091   0.981
 3074SOL    HW113921   5.550   1.081   0.935
 3074SOL    HW213922   5.415   1.173   0.947
 3075SOL     OW13923   0.219   0.928   0.366
 3075SOL    HW113924   0.192   0.878   0.284
 3075SOL    HW213925   0.200   0.872   0.447
 3076SOL     OW13926   0.514   3.550   6.483
 3076SOL    HW113927   0.598   3.535   6.535
 3076SOL    HW213928   0.531   3.536   6.386
 3077SOL     OW13929   3.804   4.105   6.768
 3077SOL    HW113930   3.885   4.103   6.709
 3077SOL    HW213931   3.745   4.181   6.740
 3078SOL     OW13932   3.012   2.553   0.259
 3078SOL    HW113933   3.030   2.472   0.315
 3078SOL    HW213934   3.059   2.544   0.171
 3079SOL     OW13935   0.725   2.636   1.123
 3079SOL    HW113936   0.634   2.676   1.137
 3079SOL    HW213937   0.769   2.623   1.212
 3080SOL     OW13938   5.221   5.555   0.019
 3080SOL    HW113939   5.198   5.470   0.067
 3080SOL    HW213940   5.142   5.586   6.823
 3081SOL     OW13941   3.971   2.679   1.548
 3081SOL    HW113942   3.979   2.584   1.578
 3081SOL    HW213943   4.051   2.731   1.580
 3082SOL     OW13944   2.561   3.514   0.937
 3082SOL    HW113945   2.545   3.504   0.839
 3082SOL    HW213946   2.474   3.513   0.986
 3083SOL     OW13947   0.744   0.723   6.696
 3083SOL    HW113948   0.681   0.761   6.763
 3083SOL    HW213949   0.696   0.705   6.611
 3084SOL     OW13950   1.316   3.128   6.843
 3084SOL    HW113951   1.308   3.166   6.750
 3084SOL    HW213952   1.389   3.176   0.035
 3085SOL     OW13953   4.111   2.486   5.569
 3085SOL    HW113954   4.132   2.550   5.643
 3085SOL    HW213955   4.148   2.522   5.483
 3086SOL     OW13956   1.457   4.896   0.089
 3086SOL    HW113957   1.482   4.930   0.179
 3086SOL    HW213958   1.520   4.934   0.020
 3087SOL     OW13959   5.465   3.203   6.147
 3087SOL    HW113960   5.491   3.107   6.158
 3087SOL    HW213961   5.525   3.247   6.079
 3088SOL     OW13962   2.512   5.165   0.631
 3088SOL    HW113963   2.543   5.229   0.561
 3088SOL    HW213964   2.493   5.214   0.716
 3089SOL     OW13965   3.502   4.099   6.277
 3089SOL    HW113966   3.460   4.125   6.190
 3089SOL    HW213967   3.512   4.180   6.335
 3090SOL     OW13968   3.244   3.244   6.444
 3090SOL    HW113969   3.343   3.244   6.455
 3090SOL    HW213970   3.208   3.336   6.460
 3091SOL     OW13971   0.169   0.361   1.946
 3091SOL    HW113972   0.088   0.347   2.004
 3091SOL    HW213973   0.207   0.451   1.963
 3092SOL     OW13974   3.361   5.014   1.182
 3092SOL    HW113975   3.427   4.949   1.143
 3092SOL    HW213976   3.349   4.995   1.279
 3093SOL     OW13977   1.050   0.004   5.843
 3093SOL    HW113978   1.130   0.005   5.782
 3093SOL    HW213979   1.002   0.091   5.837
 3094SOL     OW13980   2.532   0.740   0.701
 3094SOL    HW113981   2.600   0.667   0.703
 3094SOL    HW213982   2.578   0.828   0.711
 3095SOL     OW13983   1.110   4.958   6.400
 3095SOL    HW113984   1.095   4.885   6.466
 3095SOL    HW213985   1.168   4.925   6.325
 3096SOL     OW13986   1.838   5.162   6.716
 3096SOL    HW113987   1.782   5.239   6.687
 3096SOL    HW213988   1.910   5.146   6.649
 3097SOL     OW13989   3.639   0.359   0.664
 3097SOL    HW113990   3.697   0.436   0.692
 3097SOL    HW213991   3.673   0.321   0.578
 3098SOL     OW13992   5.338   4.531   6.527
 3098SOL    HW113993   5.320   4.629   6.530
 3098SOL    HW213994   5.407   4.508   6.596
 3099SOL     OW13995   0.275   1.283   6.795
 3099SOL    HW113996   0.208   1.258   6.725
 3099SOL    HW213997   0.293   1.204   6.854
 3100SOL     OW13998   1.631   2.460   0.504
 3100SOL    HW113999   1.534   2.451   0.525
 3100SOL    HW214000   1.669   2.370   0.481
 3101SOL     OW14001   4.017   5.287   6.627
 3101SOL    HW114002   4.087   5.217   6.640
 3101SOL    HW214003   4.049   5.353   6.559
 3102SOL     OW14004   4.989   2.327   1.647
 3102SOL    HW114005   4.927   2.375   1.710
 3102SOL    HW214006   4.993   2.231   1.671
 3103SOL     OW14007   2.766   2.029   1.968
 3103SOL    HW114008   2.849   1.980   1.994
 3103SOL    HW214009   2.779   2.127   1.982
 3104SOL     OW14010   1.183   0.677   1.269
 3104SOL    HW114011   1.128   0.701   1.349
 3104SOL    HW214012   1.264   0.735   1.265
 3105SOL     OW14013   0.343   5.555   5.781
 3105SOL    HW114014   0.397   5.602   5.851
 3105SOL    HW214015   0.344   5.457   5.800
 3106SOL     OW14016   2.898   3.554   0.527
 3106SOL    HW114017   2.897   3.649   0.558
 3106SOL    HW214018   2.982   3.536   0.476
 3107SOL     OW14019   1.570   1.459   0.279
 3107SOL    HW114020   1.617   1.469   0.367
 3107SOL    HW214021   1.561   1.549   0.236
 3108SOL     OW14022   4.574   4.011   0.873
 3108SOL    HW114023   4.649   3.992   0.937
 3108SOL    HW214024   4.612   4.046   0.788
 3109SOL     OW14025   3.149   5.209   1.100
 3109SOL    HW114026   3.162   5.208   1.001
 3109SOL    HW214027   3.221   5.154   1.143
 3110SOL     OW14028   0.323   0.272   5.179
 3110SOL    HW114029   0.316   0.180   5.138
 3110SOL    HW214030   0.383   0.268   5.259
 3111SOL     OW14031   2.917   1.989   1.570
 3111SOL    HW114032   2.846   2.058   1.587
 3111SOL    HW214033   2.998   2.010   1.624
 3112SOL     OW14034   3.105   4.288   0.653
 3112SOL    HW114035   3.187   4.280   0.596
 3112SOL    HW214036   3.123   4.252   0.744
 3113SOL     OW14037   1.819   4.528   0.618
 3113SOL    HW114038   1.914   4.503   0.603
 3113SOL    HW214039   1.814   4.597   0.690
 3114SOL     OW14040   3.819   1.862   0.580
 3114SOL    HW114041   3.752   1.803   0.533
 3114SOL    HW214042   3.900   1.809   0.602
 3115SOL     OW14043   4.529   3.570   1.964
 3115SOL    HW114044   4.537   3.669   1.965
 3115SOL    HW214045   4.562   3.533   2.051
 3116SOL     OW14046   4.836   5.128   1.406
 3116SOL    HW114047   4.801   5.052   1.352
 3116SOL    HW214048   4.867   5.201   1.345
 3117SOL     OW14049   3.080   0.692   0.549
 3117SOL    HW114050   3.106   0.607   0.503
 3117SOL    HW214051   2.983   0.709   0.536
 3118SOL     OW14052   1.609   2.960   6.686
 3118SOL    HW114053   1.521   2.916   6.667
 3118SOL    HW214054   1.683   2.901   6.654
 3119SOL     OW14055   2.175   1.403   1.766
 3119SOL    HW114056   2.202   1.396   1.862
 3119SOL    HW214057   2.083   1.442   1.760
 3120SOL     OW14058   1.797   0.059   6.415
 3120SOL    HW114059   1.809   0.156   6.393
 3120SOL    HW214060   1.804   0.047   6.514
 3121SOL     OW14061   3.288   3.690   0.960
 3121SOL    HW114062   3.235   3.622   1.011
 3121SOL    HW214063   3.291   3.664   0.864
 3122SOL     OW14064   4.893   4.148   6.818
 3122SOL    HW114065   4.944   4.230   6.847
 3122SOL    HW214066   4.853   4.164   6.728
 3123SOL     OW14067   1.202   2.756   0.265
 3123SOL    HW114068   1.230   2.802   0.180
 3123SOL    HW214069   1.278   2.701   0.300
 3124SOL     OW14070   5.097   3.726   5.576
 3124SOL    HW114071   5.059   3.801   5.521
 3124SOL    HW214072   5.067   3.639   5.537
 3125SOL     OW14073   3.044   2.204   1.959
 3125SOL    HW114074   3.047   2.111   1.994
 3125SOL    HW214075   2.955   2.245   1.979
 3126SOL     OW14076   4.259   0.875   0.045
 3126SOL    HW114077   4.351   0.840   0.062
 3126SOL    HW214078   4.227   0.842   6.813
 3127SOL     OW14079   2.470   4.986   0.432
 3127SOL    HW114080   2.455   5.032   0.344
 3127SOL    HW214081   2.481   5.055   0.504
 3128SOL     OW14082   5.284   2.017   1.009
 3128SOL    HW114083   5.372   1.994   0.967
 3128SOL    HW214084   5.295   2.016   1.109
 3129SOL     OW14085   3.859   1.398   0.869
 3129SOL    HW114086   3.844   1.496   0.861
 3129SOL    HW214087   3.951   1.376   0.837
 3130SOL     OW14088   2.295   1.935   0.500
 3130SOL    HW114089   2.323   1.851   0.547
 3130SOL    HW214090   2.307   2.013   0.562
 3131SOL     OW14091   4.686   5.037   6.577
 3131SOL    HW114092   4.599   5.073   6.611
 3131SOL    HW214093   4.701   5.068   6.483
 3132SOL     OW14094   1.800   1.820   6.561
 3132SOL    HW114095   1.839   1.820   6.469
 3132SOL    HW214096   1.707   1.781   6.558
 3133SOL     OW14097   0.752   0.997   0.377
 3133SOL    HW114098   0.807   1.050   0.442
 3133SOL    HW214099   0.778   1.020   0.284
 3134SOL     OW14100   1.134   5.560   1.490
 3134SOL    HW114101   1.091   5.600   1.410
 3134SOL    HW214102   1.211   0.009   1.519
 3135SOL     OW14103   0.409   5.173   1.217
 3135SOL    HW114104   0.480   5.134   1.159
 3135SOL    HW214105   0.355   5.099   1.257
 3136SOL     OW14106   5.340   0.272   0.668
 3136SOL    HW114107   5.289   0.234   0.591
 3136SOL    HW214108   5.418   0.325   0.634
 3137SOL     OW14109   3.063   0.534   6.564
 3137SOL    HW114110   2.984   0.506   6.618
 3137SOL    HW214111   3.087   0.460   6.500
 3138SOL     OW14112   1.045   2.404   1.429
 3138SOL    HW114113   1.012   2.426   1.521
 3138SOL    HW214114   1.145   2.400   1.430
 3139SOL     OW14115   1.748   4.699   1.991
 3139SOL    HW114116   1.825   4.635   1.993
 3139SOL    HW214117   1.783   4.792   2.006
 3140SOL     OW14118   0.499   3.279   1.093
 3140SOL    HW114119   0.433   3.263   1.019
 3140SOL    HW214120   0.524   3.375   1.095
 3141SOL     OW14121   4.354   4.028   1.412
 3141SOL    HW114122   4.453   4.015   1.404
 3141SOL    HW214123   4.307   3.968   1.347
 3142SOL     OW14124   5.331   1.101   0.204
 3142SOL    HW114125   5.286   1.014   0.183
 3142SOL    HW214126   5.277   1.177   0.166
 3143SOL     OW14127   0.440   0.071   1.698
 3143SOL    HW114128   0.517   0.018   1.735
 3143SOL    HW214129   0.438   0.161   1.743
 3144SOL     OW14130   5.150   1.102   5.927
 3144SOL    HW114131   5.178   1.068   6.017
 3144SOL    HW214132   5.150   1.027   5.862
 3145SOL     OW14133   1.613   2.575   0.943
 3145SOL    HW114134   1.649   2.535   1.027
 3145SOL    HW214135   1.599   2.503   0.875
 3146SOL     OW14136   4.467   4.864   5.538
 3146SOL    HW114137   4.538   4.879   5.470
 3146SOL    HW214138   4.509   4.843   5.626
 3147SOL     OW14139   5.627   2.300   6.658
 3147SOL    HW114140   0.030   2.257   6.676
 3147SOL    HW214141   5.618   2.319   6.561
 3148SOL     OW14142   3.547   2.533   6.699
 3148SOL    HW114143   3.621   2.573   6.754
 3148SOL    HW214144   3.530   2.439   6.729
 3149SOL     OW14145   5.529   2.688   0.159
 3149SOL    HW114146   5.547   2.615   0.093
 3149SOL    HW214147   5.437   2.724   0.143
 3150SOL     OW14148   0.979   3.749   5.929
 3150SOL    HW114149   1.059   3.792   5.971
 3150SOL    HW214150   1.008   3.687   5.857
 3151SOL     OW14151   1.411   0.561   0.899
 3151SOL    HW114152   1.466   0.570   0.982
 3151SOL    HW214153   1.465   0.513   0.829
 3152SOL     OW14154   4.446   1.122   1.324
 3152SOL    HW114155   4.542   1.130   1.349
 3152SOL    HW214156   4.424   1.188   1.252
 3153SOL     OW14157   3.039   4.743   6.750
 3153SOL    HW114158   3.097   4.817   6.783
 3153SOL    HW214159   3.011   4.686   6.828
 3154SOL     OW14160   4.200   1.595   0.808
 3154SOL    HW114161   4.286   1.570   0.764
 3154SOL    HW214162   4.142   1.643   0.742
 3155SOL     OW14163   2.268   4.634   0.438
 3155SOL    HW114164   2.212   4.569   0.490
 3155SOL    HW214165   2.255   4.726   0.476
 3156SOL     OW14166   1.727   4.717   1.278
 3156SOL    HW114167   1.817   4.750   1.305
 3156SOL    HW214168   1.727   4.617   1.279
 3157SOL     OW14169   2.403   0.731   0.456
 3157SOL    HW114170   2.450   0.725   0.545
 3157SOL    HW214171   2.310   0.696   0.465
 3158SOL     OW14172   2.966   4.417   0.317
 3158SOL    HW114173   2.946   4.319   0.320
 3158SOL    HW214174   2.960   4.455   0.409
 3159SOL     OW14175   2.681   1.716   0.047
 3159SOL    HW114176   2.630   1.678   6.828
 3159SOL    HW214177   2.657   1.667   0.131
 3160SOL     OW14178   0.341   0.644   6.604
 3160SOL    HW114179   0.330   0.546   6.618
 3160SOL    HW214180   0.430   0.662   6.563
 3161SOL     OW14181   2.966   2.862   6.095
 3161SOL    HW114182   2.945   2.764   6.095
 3161SOL    HW214183   3.063   2.876   6.115
 3162SOL     OW14184   5.610   1.568   5.955
 3162SOL    HW114185   5.581   1.664   5.952
 3162SOL    HW214186   5.575   1.519   5.875
 3163SOL     OW14187   2.670   3.477   5.265
 3163SOL    HW114188   2.713   3.537   5.198
 3163SOL    HW214189   2.571   3.495   5.267
 3164SOL     OW14190   2.222   0.351   6.009
 3164SOL    HW114191   2.251   0.399   5.926
 3164SOL    HW214192   2.123   0.363   6.022
 3165SOL     OW14193   5.618   1.004   1.996
 3165SOL    HW114194   5.558   1.064   2.049
 3165SOL    HW214195   5.632   0.919   2.047
 3166SOL     OW14196   5.238   3.763   6.808
 3166SOL    HW114197   5.216   3.726   6.717
 3166SOL    HW214198   5.305   3.837   6.798
 3167SOL     OW14199   4.903   5.293   1.187
 3167SOL    HW114200   4.963   5.218   1.158
 3167SOL    HW214201   4.957   5.377   1.192
 3168SOL     OW14202   3.375   2.735   0.317
 3168SOL    HW114203   3.442   2.800   0.352
 3168SOL    HW214204   3.420   2.648   0.299
 3169SOL     OW14205   4.536   2.588   1.189
 3169SOL    HW114206   4.592   2.505   1.187
 3169SOL    HW214207   4.507   2.611   1.096
 3170SOL     OW14208   2.510   0.129   6.406
 3170SOL    HW114209   2.570   0.188   6.460
 3170SOL    HW214210   2.444   0.185   6.355
 3171SOL     OW14211   1.094   4.797   5.676
 3171SOL    HW114212   1.054   4.804   5.584
 3171SOL    HW214213   1.193   4.790   5.669
 3172SOL     OW14214   2.785   2.418   0.179
 3172SOL    HW114215   2.735   2.410   0.265
 3172SOL    HW214216   2.868   2.472   0.194
 3173SOL     OW14217   5.139   4.279   6.168
 3173SOL    HW114218   5.160   4.371   6.202
 3173SOL    HW214219   5.223   4.235   6.137
 3174SOL     OW14220   2.326   1.451   6.800
 3174SOL    HW114221   2.355   1.356   6.808
 3174SOL    HW214222   2.292   1.484   0.031
 3175SOL     OW14223   1.685   5.226   6.269
 3175SOL    HW114224   1.631   5.224   6.184
 3175SOL    HW214225   1.652   5.300   6.327
 3176SOL     OW14226   4.252   1.093   1.516
 3176SOL    HW114227   4.315   1.109   1.440
 3176SOL    HW214228   4.299   1.042   1.589
 3177SOL     OW14229   0.639   0.936   1.143
 3177SOL    HW114230   0.628   0.837   1.149
 3177SOL    HW214231   0.713   0.965   1.202
 3178SOL     OW14232   1.326   0.420   5.579
 3178SOL    HW114233   1.380   0.336   5.581
 3178SOL    HW214234   1.241   0.403   5.530
 3179SOL     OW14235   4.591   0.148   0.436
 3179SOL    HW114236   4.555   0.169   0.527
 3179SOL    HW214237   4.590   0.049   0.422
 3180SOL     OW14238   3.531   1.865   1.258
 3180SOL    HW114239   3.521   1.766   1.249
 3180SOL    HW214240   3.442   1.906   1.277
 3181SOL     OW14241   3.177   3.946   6.573
 3181SOL    HW114242   3.269   3.947   6.614
 3181SOL    HW214243   3.130   3.862   6.600
 3182SOL     OW14244   5.065   4.700   6.197
 3182SOL    HW114245   5.132   4.629   6.218
 3182SOL    HW214246   5.105   4.790   6.214
 3183SOL     OW14247   3.982   5.193   0.507
 3183SOL    HW114248   4.032   5.236   0.431
 3183SOL    HW214249   3.925   5.262   0.552
 3184SOL     OW14250   1.554   1.832   0.907
 3184SOL    HW114251   1.508   1.880   0.982
 3184SOL    HW214252   1.635   1.786   0.943
 3185SOL     OW14253   3.304   3.460   6.144
 3185SOL    HW114254   3.339   3.538   6.195
 3185SOL    HW214255   3.208   3.445   6.168
 3186SOL     OW14256   0.473   1.440   0.084
 3186SOL    HW114257   0.445   1.485   0.169
 3186SOL    HW214258   0.403   1.374   0.057
 3187SOL     OW14259   3.366   0.610   0.416
 3187SOL    HW114260   3.398   0.585   0.507
 3187SOL    HW214261   3.283   0.560   0.394
 3188SOL     OW14262   5.273   5.461   1.080
 3188SOL    HW114263   5.319   5.379   1.115
 3188SOL    HW214264   5.276   5.461   0.980
 3189SOL     OW14265   3.188   2.688   0.520
 3189SOL    HW114266   3.144   2.776   0.536
 3189SOL    HW214267   3.243   2.693   0.437
 3190SOL     OW14268   5.280   0.346   1.390
 3190SOL    HW114269   5.186   0.345   1.426
 3190SOL    HW214270   5.343   0.316   1.462
 3191SOL     OW14271   1.752   0.830   0.646
 3191SOL    HW114272   1.662   0.866   0.626
 3191SOL    HW214273   1.780   0.857   0.737
 3192SOL     OW14274   4.812   0.878   5.589
 3192SOL    HW114275   4.815   0.816   5.668
 3192SOL    HW214276   4.753   0.838   5.518
 3193SOL     OW14277   4.060   0.329   1.336
 3193SOL    HW114278   4.039   0.416   1.380
 3193SOL    HW214279   4.030   0.331   1.241
 3194SOL     OW14280   1.899   1.359   1.044
 3194SOL    HW114281   1.981   1.404   1.078
 3194SOL    HW214282   1.866   1.294   1.112
 3195SOL     OW14283   3.425   1.733   6.123
 3195SOL    HW114284   3.513   1.693   6.099
 3195SOL    HW214285   3.430   1.833   6.113
 3196SOL     OW14286   5.056   3.249   0.167
 3196SOL    HW114287   4.975   3.192   0.158
 3196SOL    HW214288   5.093   3.269   0.076
 3197SOL     OW14289   0.460   4.715   0.961
 3197SOL    HW114290   0.459   4.733   1.060
 3197SOL    HW214291   0.450   4.801   0.912
 3198SOL     OW14292   3.145   3.137   0.855
 3198SOL    HW114293   3.139   3.230   0.820
 3198SOL    HW214294   3.219   3.132   0.922
 3199SOL     OW14295   2.268   5.297   0.086
 3199SOL    HW114296   2.171   5.305   0.064
 3199SOL    HW214297   2.296   5.377   0.139
 3200SOL     OW14298   0.682   5.312   0.256
 3200SOL    HW114299   0.667   5.376   0.181
 3200SOL    HW214300   0.719   5.362   0.335
 3201SOL     OW14301   1.749   5.478   1.185
 3201SOL    HW114302   1.773   5.558   1.130
 3201SOL    HW214303   1.758   5.501   1.282
 3202SOL     OW14304   5.333   5.286   0.358
 3202SOL    HW114305   5.428   5.280   0.327
 3202SOL    HW214306   5.274   5.307   0.281
 3203SOL     OW14307   1.339   3.627   0.425
 3203SOL    HW114308   1.364   3.545   0.477
 3203SOL    HW214309   1.368   3.708   0.475
 3204SOL     OW14310   2.946   1.382   0.981
 3204SOL    HW114311   2.907   1.469   0.951
 3204SOL    HW214312   3.045   1.392   0.993
 3205SOL     OW14313   0.069   4.522   5.825
 3205SOL    HW114314   0.004   4.583   5.780
 3205SOL    HW214315   0.162   4.557   5.813
 3206SOL     OW14316   4.547   3.943   6.689
 3206SOL    HW114317   4.494   3.862   6.713
 3206SOL    HW214318   4.639   3.915   6.660
 3207SOL     OW14319   1.316   0.857   6.165
 3207SOL    HW114320   1.298   0.950   6.195
 3207SOL    HW214321   1.241   0.825   6.107
 3208SOL     OW14322   5.184   1.067   0.438
 3208SOL    HW114323   5.249   1.075   0.362
 3208SOL    HW214324   5.091   1.058   0.402
 3209SOL     OW14325   2.328   2.155   0.664
 3209SOL    HW114326   2.342   2.223   0.591
 3209SOL    HW214327   2.241   2.173   0.710
 3210SOL     OW14328   3.168   1.820   1.010
 3210SOL    HW114329   3.093   1.880   0.985
 3210SOL    HW214330   3.255   1.868   1.000
 3211SOL     OW14331   0.822   4.810   0.483
 3211SOL    HW114332   0.906   4.807   0.429
 3211SOL    HW214333   0.845   4.808   0.580
 3212SOL     OW14334   2.511   5.329   0.861
 3212SOL    HW114335   2.523   5.391   0.782
 3212SOL    HW214336   2.459   5.376   0.932
 3213SOL     OW14337   5.513   1.677   1.209
 3213SOL    HW114338   5.512   1.761   1.263
 3213SOL    HW214339   5.605   1.637   1.212
 3214SOL     OW14340   3.425   2.303   0.928
 3214SOL    HW114341   3.515   2.260   0.924
 3214SOL    HW214342   3.433   2.395   0.968
 3215SOL     OW14343   0.893   3.465   0.605
 3215SOL    HW114344   0.956   3.505   0.539
 3215SOL    HW214345   0.932   3.381   0.643
 3216SOL     OW14346   2.909   4.146   0.342
 3216SOL    HW114347   2.819   4.143   0.300
 3216SOL    HW214348   2.903   4.119   0.438
 3217SOL     OW14349   4.610   1.570   0.385
 3217SOL    HW114350   4.692   1.576   0.441
 3217SOL    HW214351   4.541   1.633   0.420
 3218SOL     OW14352   4.546   5.518   0.958
 3218SOL    HW114353   4.481   5.585   0.995
 3218SOL    HW214354   4.584   5.463   1.032
 3219SOL     OW14355   3.615   5.148   0.331
 3219SOL    HW114356   3.701   5.097   0.330
 3219SOL    HW214357   3.553   5.107   0.398
 3220SOL     OW14358   5.632   3.304   5.947
 3220SOL    HW114359   5.605   3.396   5.916
 3220SOL    HW214360   5.645   3.245   5.867
 3221SOL     OW14361   5.282   0.522   5.851
 3221SOL    HW114362   5.356   0.576   5.890
 3221SOL    HW214363   5.319   0.456   5.786
 3222SOL     OW14364   0.183   3.652   6.224
 3222SOL    HW114365   0.234   3.706   6.157
 3222SOL    HW214366   0.184   3.556   6.197
 3223SOL     OW14367   5.319   5.537   2.088
 3223SOL    HW114368   5.374   5.457   2.113
 3223SOL    HW214369   5.225   5.524   2.120
 3224SOL     OW14370   1.053   5.338   0.381
 3224SOL    HW114371   0.975   5.280   0.355
 3224SOL    HW214372   1.045   5.364   0.477
 3225SOL     OW14373   5.040   3.347   1.415
 3225SOL    HW114374   5.018   3.439   1.381
 3225SOL    HW214375   5.091   3.356   1.501
 3226SOL     OW14376   4.550   2.138   5.795
 3226SOL    HW114377   4.634   2.091   5.820
 3226SOL    HW214378   4.537   2.134   5.696
 3227SOL     OW14379   0.177   4.141   0.989
 3227SOL    HW114380   0.101   4.117   1.051
 3227SOL    HW214381   0.177   4.240   0.974
 3228SOL     OW14382   5.358   2.518   6.028
 3228SOL    HW114383   5.362   2.422   6.055
 3228SOL    HW214384   5.381   2.575   6.107
 3229SOL     OW14385   5.453   4.325   0.079
 3229SOL    HW114386   5.372   4.268   0.066
 3229SOL    HW214387   5.532   4.266   0.099
 3230SOL     OW14388   2.191   3.681   0.056
 3230SOL    HW114389   2.276   3.641   0.090
 3230SOL    HW214390   2.158   3.750   0.120
 3231SOL     OW14391   3.559   2.468   1.467
 3231SOL    HW114392   3.487   2.456   1.399
 3231SOL    HW214393   3.637   2.513   1.426
 3232SOL     OW14394   0.694   5.190   0.617
 3232SOL    HW114395   0.653   5.111   0.572
 3232SOL    HW214396   0.631   5.267   0.614
 3233SOL     OW14397   3.774   4.791   1.237
 3233SOL    HW114398   3.807   4.867   1.294
 3233SOL    HW214399   3.836   4.777   1.160
 3234SOL     OW14400   5.536   1.256   1.338
 3234SOL    HW114401   5.601   1.264   1.262
 3234SOL    HW214402   5.443   1.272   1.305
 3235SOL     OW14403   1.693   2.468   1.172
 3235SOL    HW114404   1.666   2.490   1.266
 3235SOL    HW214405   1.788   2.437   1.172
 3236SOL     OW14406   1.111   1.653   5.975
 3236SOL    HW114407   1.185   1.715   6.001
 3236SOL    HW214408   1.077   1.605   6.056
 3237SOL     OW14409   1.283   0.796   6.846
 3237SOL    HW114410   1.302   0.705   6.810
 3237SOL    HW214411   1.365   0.852   6.839
 3238SOL     OW14412   4.746   0.870   6.163
 3238SOL    HW114413   4.725   0.938   6.093
 3238SOL    HW214414   4.668   0.809   6.174
 3239SOL     OW14415   1.727   3.846   6.582
 3239SOL    HW114416   1.667   3.878   6.656
 3239SOL    HW214417   1.818   3.884   6.595
 3240SOL     OW14418   1.261   1.421   5.922
 3240SOL    HW114419   1.210   1.338   5.899
 3240SOL    HW214420   1.197   1.496   5.940
 3241SOL     OW14421   0.962   3.199   0.678
 3241SOL    HW114422   0.938   3.139   0.602
 3241SOL    HW214423   0.884   3.208   0.740
 3242SOL     OW14424   0.014   2.928   0.489
 3242SOL    HW114425   0.001   2.947   0.391
 3242SOL    HW214426   0.079   2.993   0.527
 3243SOL     OW14427   1.067   1.647   6.715
 3243SOL    HW114428   1.004   1.642   6.638
 3243SOL    HW214429   1.042   1.577   6.782
 3244SOL     OW14430   1.694   5.389   6.654
 3244SOL    HW114431   1.740   5.475   6.676
 3244SOL    HW214432   1.651   5.396   6.564
 3245SOL     OW14433   1.612   3.609   1.231
 3245SOL    HW114434   1.588   3.547   1.306
 3245SOL    HW214435   1.694   3.574   1.184
 3246SOL     OW14436   2.166   2.405   6.265
 3246SOL    HW114437   2.219   2.441   6.188
 3246SOL    HW214438   2.182   2.461   6.346
 3247SOL     OW14439   3.516   0.562   5.118
 3247SOL    HW114440   3.492   0.505   5.196
 3247SOL    HW214441   3.544   0.504   5.041
 3248SOL     OW14442   3.672   5.415   0.221
 3248SOL    HW114443   3.656   5.332   0.275
 3248SOL    HW214444   3.765   5.447   0.237
 3249SOL     OW14445   3.121   1.032   1.266
 3249SOL    HW114446   3.120   1.067   1.173
 3249SOL    HW214447   3.216   1.023   1.297
 3250SOL     OW14448   0.347   1.075   0.084
 3250SOL    HW114449   0.332   0.985   0.042
 3250SOL    HW214450   0.398   1.063   0.169
 3251SOL     OW14451   5.439   0.364   6.621
 3251SOL    HW114452   5.451   0.398   6.714
 3251SOL    HW214453   5.349   0.390   6.587
 3252SOL     OW14454   3.351   3.373   1.267
 3252SOL    HW114455   3.281   3.305   1.290
 3252SOL    HW214456   3.442   3.332   1.273
 3253SOL     OW14457   5.097   3.691   0.203
 3253SOL    HW114458   5.157   3.701   0.123
 3253SOL    HW214459   5.045   3.775   0.216
 3254SOL     OW14460   3.329   4.274   0.474
 3254SOL    HW114461   3.378   4.301   0.557
 3254SOL    HW214462   3.314   4.355   0.418
 3255SOL     OW14463   1.963   3.985   6.616
 3255SOL    HW114464   1.928   4.059   6.558
 3255SOL    HW214465   2.061   3.975   6.603
 3256SOL     OW14466   5.432   5.297   1.484
 3256SOL    HW114467   5.487   5.353   1.547
 3256SOL    HW214468   5.356   5.255   1.534
 3257SOL     OW14469   0.402   2.221   5.945
 3257SOL    HW114470   0.409   2.320   5.941
 3257SOL    HW214471   0.475   2.180   5.890
 3258SOL     OW14472   4.665   1.803   6.145
 3258SOL    HW114473   4.622   1.782   6.057
 3258SOL    HW214474   4.639   1.895   6.173
 3259SOL     OW14475   1.644   3.133   0.943
 3259SOL    HW114476   1.683   3.076   0.870
 3259SOL    HW214477   1.557   3.094   0.973
 3260SOL     OW14478   0.346   0.048   0.335
 3260SOL    HW114479   0.324   5.558   0.320
 3260SOL    HW214480   0.438   0.066   0.300
 3261SOL     OW14481   1.393   5.335   1.256
 3261SOL    HW114482   1.448   5.318   1.174
 3261SOL    HW214483   1.454   5.351   1.334
 3262SOL     OW14484   1.737   4.948   6.244
 3262SOL    HW114485   1.719   5.044   6.261
 3262SOL    HW214486   1.655   4.904   6.205
 3263SOL     OW14487   1.049   3.063   0.026
 3263SOL    HW114488   1.148   3.078   0.020
 3263SOL    HW214489   1.005   3.146   0.062
 3264SOL     OW14490   3.249   0.663   5.987
 3264SOL    HW114491   3.340   0.697   6.012
 3264SOL    HW214492   3.184   0.739   5.987
 3265SOL     OW14493   5.031   5.533   1.177
 3265SOL    HW114494   5.125   5.516   1.147
 3265SOL    HW214495   5.016   0.024   1.184
 3266SOL     OW14496   3.856   2.380   0.834
 3266SOL    HW114497   3.950   2.353   0.816
 3266SOL    HW214498   3.801   2.369   0.752
 3267SOL     OW14499   2.366   0.092   0.450
 3267SOL    HW114500   2.402   0.104   0.542
 3267SOL    HW214501   2.277   0.137   0.443
 3268SOL     OW14502   5.479   1.841   6.376
 3268SOL    HW114503   5.415   1.915   6.352
 3268SOL    HW214504   5.451   1.799   6.463
 3269SOL     OW14505   3.976   1.398   6.214
 3269SOL    HW114506   4.075   1.392   6.204
 3269SOL    HW214507   3.940   1.311   6.247
 3270SOL     OW14508   4.647   4.035   1.396
 3270SOL    HW114509   4.745   4.028   1.416
 3270SOL    HW214510   4.631   4.119   1.344
 3271SOL     OW14511   1.683   1.580   5.603
 3271SOL    HW114512   1.600   1.546   5.647
 3271SOL    HW214513   1.661   1.660   5.548
 3272SOL     OW14514   0.167   1.249   5.793
 3272SOL    HW114515   0.235   1.206   5.734
 3272SOL    HW214516   0.114   1.315   5.741
 3273SOL     OW14517   0.157   1.515   0.036
 3273SOL    HW114518   0.192   1.437   6.841
 3273SOL    HW214519   0.144   1.487   0.132
 3274SOL     OW14520   0.752   4.372   0.926
 3274SOL    HW114521   0.750   4.467   0.895
 3274SOL    HW214522   0.662   4.345   0.961
 3275SOL     OW14523   0.395   3.790   0.033
 3275SOL    HW114524   0.444   3.850   0.097
 3275SOL    HW214525   0.452   3.774   6.810
 3276SOL     OW14526   1.912   1.150   6.204
 3276SOL    HW114527   1.920   1.054   6.180
 3276SOL    HW214528   1.903   1.205   6.121
 3277SOL     OW14529   0.401   5.106   0.040
 3277SOL    HW114530   0.471   5.156   6.847
 3277SOL    HW214531   0.425   5.104   0.137
 3278SOL     OW14532   2.902   4.878   0.958
 3278SOL    HW114533   2.990   4.872   1.005
 3278SOL    HW214534   2.877   4.789   0.922
 3279SOL     OW14535   5.265   4.710   1.573
 3279SOL    HW114536   5.347   4.737   1.522
 3279SOL    HW214537   5.240   4.782   1.638
 3280SOL     OW14538   2.353   3.013   0.210
 3280SOL    HW114539   2.403   3.096   0.187
 3280SOL    HW214540   2.407   2.957   0.273
 3281SOL     OW14541   3.930   2.770   6.747
 3281SOL    HW114542   3.872   2.807   6.674
 3281SOL    HW214543   4.022   2.809   6.740
 3282SOL     OW14544   3.837   4.877   4.967
 3282SOL    HW114545   3.816   4.794   5.018
 3282SOL    HW214546   3.765   4.894   4.900
 3283SOL     OW14547   0.534   4.571   6.554
 3283SOL    HW114548   0.564   4.476   6.545
 3283SOL    HW214549   0.603   4.632   6.514
 3284SOL     OW14550   4.945   5.279   6.432
 3284SOL    HW114551   4.927   5.314   6.525
 3284SOL    HW214552   4.864   5.233   6.397
 3285SOL     OW14553   5.632   5.584   1.277
 3285SOL    HW114554   5.608   0.071   1.302
 3285SOL    HW214555   5.554   5.540   1.233
 3286SOL     OW14556   1.353   2.963   0.646
 3286SOL    HW114557   1.383   2.898   0.716
 3286SOL    HW214558   1.274   2.926   0.597
 3287SOL     OW14559   3.026   1.105   6.849
 3287SOL    HW114560   2.937   1.118   6.805
 3287SOL    HW214561   3.015   1.047   0.072
 3288SOL     OW14562   1.822   0.020   6.693
 3288SOL    HW114563   1.918   5.599   6.684
 3288SOL    HW214564   1.812   0.077   6.774
 3289SOL     OW14565   5.062   0.343   5.893
 3289SOL    HW114566   5.101   0.251   5.887
 3289SOL    HW214567   5.133   0.411   5.876
 3290SOL     OW14568   2.652   3.194   0.808
 3290SOL    HW114569   2.589   3.204   0.886
 3290SOL    HW214570   2.743   3.169   0.842
 3291SOL     OW14571   0.793   3.191   6.294
 3291SOL    HW114572   0.794   3.287   6.319
 3291SOL    HW214573   0.883   3.165   6.258
 3292SOL     OW14574   0.589   3.069   1.680
 3292SOL    HW114575   0.647   3.077   1.599
 3292SOL    HW214576   0.543   2.980   1.680
 3293SOL     OW14577   3.431   4.364   0.710
 3293SOL    HW114578   3.419   4.463   0.714
 3293SOL    HW214579   3.527   4.343   0.695
 3294SOL     OW14580   1.360   4.774   5.654
 3294SOL    HW114581   1.429   4.756   5.584
 3294SOL    HW214582   1.404   4.811   5.736
 3295SOL     OW14583   3.698   0.513   0.966
 3295SOL    HW114584   3.598   0.505   0.962
 3295SOL    HW214585   3.733   0.543   0.877
 3296SOL     OW14586   2.930   5.420   1.679
 3296SOL    HW114587   3.019   5.449   1.715
 3296SOL    HW214588   2.859   5.437   1.748
 3297SOL     OW14589   4.069   4.271   6.820
 3297SOL    HW114590   4.075   4.194   6.757
 3297SOL    HW214591   4.005   4.339   6.784
 3298SOL     OW14592   5.000   0.061   6.747
 3298SOL    HW114593   4.927   0.085   6.811
 3298SOL    HW214594   4.961   0.039   6.658
 3299SOL     OW14595   5.218   3.086   0.555
 3299SOL    HW114596   5.186   3.081   0.649
 3299SOL    HW214597   5.312   3.052   0.549
 3300SOL     OW14598   4.377   5.200   0.152
 3300SOL    HW114599   4.416   5.261   0.083
 3300SOL    HW214600   4.324   5.128   0.106
 3301SOL     OW14601   5.236   2.197   0.690
 3301SOL    HW114602   5.267   2.281   0.735
 3301SOL    HW214603   5.197   2.220   0.601
 3302SOL     OW14604   1.477   0.193   5.583
 3302SOL    HW114605   1.505   0.162   5.492
 3302SOL    HW214606   1.559   0.206   5.640
 3303SOL     OW14607   3.818   4.645   0.218
 3303SOL    HW114608   3.732   4.682   0.254
 3303SOL    HW214609   3.813   4.545   0.217
 3304SOL     OW14610   4.146   0.300   5.233
 3304SOL    HW114611   4.053   0.329   5.254
 3304SOL    HW214612   4.192   0.372   5.180
 3305SOL     OW14613   1.824   2.961   0.029
 3305SOL    HW114614   1.895   2.985   6.821
 3305SOL    HW214615   1.734   2.971   6.843
   5.68585   5.60685   6.85739
