;
;	File 'topology.top' was generated
;	By user: root (131270)
;	On host: csky004
;	At date: Thu Sep  3 09:11:25 2026
;
;	This is a standalone topology file
;
;	Created by:
;	              :-) GROMACS - gmx pdb2gmx, 2021.4-plumed-2.8.0 (-:
;	
;	Executable:   /home/apps/centos7/gromacs/2021.4/gcc9.1_ompi4.1.2/bin/gmx_mpi
;	Data prefix:  /home/apps/centos7/gromacs/2021.4/gcc9.1_ompi4.1.2
;	Working dir:  /scratch/civil/visitor/satya.visitor/dev_gromacs/102_2L24_peptide
;	Command line:
;	  gmx_mpi pdb2gmx -f 2L24_clean.pdb -o 2L24.gro -p topology.top -ignh
;	Force field was read from the standard GROMACS share directory.
;

; Include forcefield parameters
#include "amber99sb-ildn.ff/forcefield.itp"

[ moleculetype ]
; Name            nrexcl
Protein_chain_A     3

[ atoms ]
;   nr       type  resnr residue  atom   cgnr     charge       mass  typeB    chargeB      massB
; residue   1 ILE rtp NILE q +1.0
     1         N3      1    ILE      N      1     0.0311      14.01
     2          H      1    ILE     H1      2     0.2329      1.008
     3          H      1    ILE     H2      3     0.2329      1.008
     4          H      1    ILE     H3      4     0.2329      1.008
     5         CT      1    ILE     CA      5     0.0257      12.01
     6         HP      1    ILE     HA      6     0.1031      1.008
     7         CT      1    ILE     CB      7     0.1885      12.01
     8         HC      1    ILE     HB      8     0.0213      1.008
     9         CT      1    ILE    CG2      9     -0.372      12.01
    10         HC      1    ILE   HG21     10     0.0947      1.008
    11         HC      1    ILE   HG22     11     0.0947      1.008
    12         HC      1    ILE   HG23     12     0.0947      1.008
    13         CT      1    ILE    CG1     13    -0.0387      12.01
    14         HC      1    ILE   HG11     14     0.0201      1.008
    15         HC      1    ILE   HG12     15     0.0201      1.008
    16         CT      1    ILE     CD     16    -0.0908      12.01
    17         HC      1    ILE    HD1     17     0.0226      1.008
    18         HC      1    ILE    HD2     18     0.0226      1.008
    19         HC      1    ILE    HD3     19     0.0226      1.008
    20          C      1    ILE      C     20     0.6123      12.01
    21          O      1    ILE      O     21    -0.5713         16   ; qtot 1
; residue   2 PHE rtp PHE  q  0.0
    22          N      2    PHE      N     22    -0.4157      14.01
    23          H      2    PHE      H     23     0.2719      1.008
    24         CT      2    PHE     CA     24    -0.0024      12.01
    25         H1      2    PHE     HA     25     0.0978      1.008
    26         CT      2    PHE     CB     26    -0.0343      12.01
    27         HC      2    PHE    HB1     27     0.0295      1.008
    28         HC      2    PHE    HB2     28     0.0295      1.008
    29         CA      2    PHE     CG     29     0.0118      12.01
    30         CA      2    PHE    CD1     30    -0.1256      12.01
    31         HA      2    PHE    HD1     31      0.133      1.008
    32         CA      2    PHE    CE1     32    -0.1704      12.01
    33         HA      2    PHE    HE1     33      0.143      1.008
    34         CA      2    PHE     CZ     34    -0.1072      12.01
    35         HA      2    PHE     HZ     35     0.1297      1.008
    36         CA      2    PHE    CE2     36    -0.1704      12.01
    37         HA      2    PHE    HE2     37      0.143      1.008
    38         CA      2    PHE    CD2     38    -0.1256      12.01
    39         HA      2    PHE    HD2     39      0.133      1.008
    40          C      2    PHE      C     40     0.5973      12.01
    41          O      2    PHE      O     41    -0.5679         16   ; qtot 1
; residue   3 GLY rtp GLY  q  0.0
    42          N      3    GLY      N     42    -0.4157      14.01
    43          H      3    GLY      H     43     0.2719      1.008
    44         CT      3    GLY     CA     44    -0.0252      12.01
    45         H1      3    GLY    HA1     45     0.0698      1.008
    46         H1      3    GLY    HA2     46     0.0698      1.008
    47          C      3    GLY      C     47     0.5973      12.01
    48          O      3    GLY      O     48    -0.5679         16   ; qtot 1
; residue   4 ALA rtp ALA  q  0.0
    49          N      4    ALA      N     49    -0.4157      14.01
    50          H      4    ALA      H     50     0.2719      1.008
    51         CT      4    ALA     CA     51     0.0337      12.01
    52         H1      4    ALA     HA     52     0.0823      1.008
    53         CT      4    ALA     CB     53    -0.1825      12.01
    54         HC      4    ALA    HB1     54     0.0603      1.008
    55         HC      4    ALA    HB2     55     0.0603      1.008
    56         HC      4    ALA    HB3     56     0.0603      1.008
    57          C      4    ALA      C     57     0.5973      12.01
    58          O      4    ALA      O     58    -0.5679         16   ; qtot 1
; residue   5 ILE rtp ILE  q  0.0
    59          N      5    ILE      N     59    -0.4157      14.01
    60          H      5    ILE      H     60     0.2719      1.008
    61         CT      5    ILE     CA     61    -0.0597      12.01
    62         H1      5    ILE     HA     62     0.0869      1.008
    63         CT      5    ILE     CB     63     0.1303      12.01
    64         HC      5    ILE     HB     64     0.0187      1.008
    65         CT      5    ILE    CG2     65    -0.3204      12.01
    66         HC      5    ILE   HG21     66     0.0882      1.008
    67         HC      5    ILE   HG22     67     0.0882      1.008
    68         HC      5    ILE   HG23     68     0.0882      1.008
    69         CT      5    ILE    CG1     69     -0.043      12.01
    70         HC      5    ILE   HG11     70     0.0236      1.008
    71         HC      5    ILE   HG12     71     0.0236      1.008
    72         CT      5    ILE     CD     72     -0.066      12.01
    73         HC      5    ILE    HD1     73     0.0186      1.008
    74         HC      5    ILE    HD2     74     0.0186      1.008
    75         HC      5    ILE    HD3     75     0.0186      1.008
    76          C      5    ILE      C     76     0.5973      12.01
    77          O      5    ILE      O     77    -0.5679         16   ; qtot 1
; residue   6 ALA rtp ALA  q  0.0
    78          N      6    ALA      N     78    -0.4157      14.01
    79          H      6    ALA      H     79     0.2719      1.008
    80         CT      6    ALA     CA     80     0.0337      12.01
    81         H1      6    ALA     HA     81     0.0823      1.008
    82         CT      6    ALA     CB     82    -0.1825      12.01
    83         HC      6    ALA    HB1     83     0.0603      1.008
    84         HC      6    ALA    HB2     84     0.0603      1.008
    85         HC      6    ALA    HB3     85     0.0603      1.008
    86          C      6    ALA      C     86     0.5973      12.01
    87          O      6    ALA      O     87    -0.5679         16   ; qtot 1
; residue   7 GLY rtp GLY  q  0.0
    88          N      7    GLY      N     88    -0.4157      14.01
    89          H      7    GLY      H     89     0.2719      1.008
    90         CT      7    GLY     CA     90    -0.0252      12.01
    91         H1      7    GLY    HA1     91     0.0698      1.008
    92         H1      7    GLY    HA2     92     0.0698      1.008
    93          C      7    GLY      C     93     0.5973      12.01
    94          O      7    GLY      O     94    -0.5679         16   ; qtot 1
; residue   8 PHE rtp PHE  q  0.0
    95          N      8    PHE      N     95    -0.4157      14.01
    96          H      8    PHE      H     96     0.2719      1.008
    97         CT      8    PHE     CA     97    -0.0024      12.01
    98         H1      8    PHE     HA     98     0.0978      1.008
    99         CT      8    PHE     CB     99    -0.0343      12.01
   100         HC      8    PHE    HB1    100     0.0295      1.008
   101         HC      8    PHE    HB2    101     0.0295      1.008
   102         CA      8    PHE     CG    102     0.0118      12.01
   103         CA      8    PHE    CD1    103    -0.1256      12.01
   104         HA      8    PHE    HD1    104      0.133      1.008
   105         CA      8    PHE    CE1    105    -0.1704      12.01
   106         HA      8    PHE    HE1    106      0.143      1.008
   107         CA      8    PHE     CZ    107    -0.1072      12.01
   108         HA      8    PHE     HZ    108     0.1297      1.008
   109         CA      8    PHE    CE2    109    -0.1704      12.01
   110         HA      8    PHE    HE2    110      0.143      1.008
   111         CA      8    PHE    CD2    111    -0.1256      12.01
   112         HA      8    PHE    HD2    112      0.133      1.008
   113          C      8    PHE      C    113     0.5973      12.01
   114          O      8    PHE      O    114    -0.5679         16   ; qtot 1
; residue   9 ILE rtp ILE  q  0.0
   115          N      9    ILE      N    115    -0.4157      14.01
   116          H      9    ILE      H    116     0.2719      1.008
   117         CT      9    ILE     CA    117    -0.0597      12.01
   118         H1      9    ILE     HA    118     0.0869      1.008
   119         CT      9    ILE     CB    119     0.1303      12.01
   120         HC      9    ILE     HB    120     0.0187      1.008
   121         CT      9    ILE    CG2    121    -0.3204      12.01
   122         HC      9    ILE   HG21    122     0.0882      1.008
   123         HC      9    ILE   HG22    123     0.0882      1.008
   124         HC      9    ILE   HG23    124     0.0882      1.008
   125         CT      9    ILE    CG1    125     -0.043      12.01
   126         HC      9    ILE   HG11    126     0.0236      1.008
   127         HC      9    ILE   HG12    127     0.0236      1.008
   128         CT      9    ILE     CD    128     -0.066      12.01
   129         HC      9    ILE    HD1    129     0.0186      1.008
   130         HC      9    ILE    HD2    130     0.0186      1.008
   131         HC      9    ILE    HD3    131     0.0186      1.008
   132          C      9    ILE      C    132     0.5973      12.01
   133          O      9    ILE      O    133    -0.5679         16   ; qtot 1
; residue  10 LYS rtp LYS  q +1.0
   134          N     10    LYS      N    134    -0.3479      14.01
   135          H     10    LYS      H    135     0.2747      1.008
   136         CT     10    LYS     CA    136      -0.24      12.01
   137         H1     10    LYS     HA    137     0.1426      1.008
   138         CT     10    LYS     CB    138    -0.0094      12.01
   139         HC     10    LYS    HB1    139     0.0362      1.008
   140         HC     10    LYS    HB2    140     0.0362      1.008
   141         CT     10    LYS     CG    141     0.0187      12.01
   142         HC     10    LYS    HG1    142     0.0103      1.008
   143         HC     10    LYS    HG2    143     0.0103      1.008
   144         CT     10    LYS     CD    144    -0.0479      12.01
   145         HC     10    LYS    HD1    145     0.0621      1.008
   146         HC     10    LYS    HD2    146     0.0621      1.008
   147         CT     10    LYS     CE    147    -0.0143      12.01
   148         HP     10    LYS    HE1    148     0.1135      1.008
   149         HP     10    LYS    HE2    149     0.1135      1.008
   150         N3     10    LYS     NZ    150    -0.3854      14.01
   151          H     10    LYS    HZ1    151       0.34      1.008
   152          H     10    LYS    HZ2    152       0.34      1.008
   153          H     10    LYS    HZ3    153       0.34      1.008
   154          C     10    LYS      C    154     0.7341      12.01
   155          O     10    LYS      O    155    -0.5894         16   ; qtot 2
; residue  11 ASN rtp ASN  q  0.0
   156          N     11    ASN      N    156    -0.4157      14.01
   157          H     11    ASN      H    157     0.2719      1.008
   158         CT     11    ASN     CA    158     0.0143      12.01
   159         H1     11    ASN     HA    159     0.1048      1.008
   160         CT     11    ASN     CB    160    -0.2041      12.01
   161         HC     11    ASN    HB1    161     0.0797      1.008
   162         HC     11    ASN    HB2    162     0.0797      1.008
   163          C     11    ASN     CG    163      0.713      12.01
   164          O     11    ASN    OD1    164    -0.5931         16
   165          N     11    ASN    ND2    165    -0.9191      14.01
   166          H     11    ASN   HD21    166     0.4196      1.008
   167          H     11    ASN   HD22    167     0.4196      1.008
   168          C     11    ASN      C    168     0.5973      12.01
   169          O     11    ASN      O    169    -0.5679         16   ; qtot 2
; residue  12 ILE rtp ILE  q  0.0
   170          N     12    ILE      N    170    -0.4157      14.01
   171          H     12    ILE      H    171     0.2719      1.008
   172         CT     12    ILE     CA    172    -0.0597      12.01
   173         H1     12    ILE     HA    173     0.0869      1.008
   174         CT     12    ILE     CB    174     0.1303      12.01
   175         HC     12    ILE     HB    175     0.0187      1.008
   176         CT     12    ILE    CG2    176    -0.3204      12.01
   177         HC     12    ILE   HG21    177     0.0882      1.008
   178         HC     12    ILE   HG22    178     0.0882      1.008
   179         HC     12    ILE   HG23    179     0.0882      1.008
   180         CT     12    ILE    CG1    180     -0.043      12.01
   181         HC     12    ILE   HG11    181     0.0236      1.008
   182         HC     12    ILE   HG12    182     0.0236      1.008
   183         CT     12    ILE     CD    183     -0.066      12.01
   184         HC     12    ILE    HD1    184     0.0186      1.008
   185         HC     12    ILE    HD2    185     0.0186      1.008
   186         HC     12    ILE    HD3    186     0.0186      1.008
   187          C     12    ILE      C    187     0.5973      12.01
   188          O     12    ILE      O    188    -0.5679         16   ; qtot 2
; residue  13 TRP rtp TRP  q  0.0
   189          N     13    TRP      N    189    -0.4157      14.01
   190          H     13    TRP      H    190     0.2719      1.008
   191         CT     13    TRP     CA    191    -0.0275      12.01
   192         H1     13    TRP     HA    192     0.1123      1.008
   193         CT     13    TRP     CB    193     -0.005      12.01
   194         HC     13    TRP    HB1    194     0.0339      1.008
   195         HC     13    TRP    HB2    195     0.0339      1.008
   196         C*     13    TRP     CG    196    -0.1415      12.01
   197         CW     13    TRP    CD1    197    -0.1638      12.01
   198         H4     13    TRP    HD1    198     0.2062      1.008
   199         NA     13    TRP    NE1    199    -0.3418      14.01
   200          H     13    TRP    HE1    200     0.3412      1.008
   201         CN     13    TRP    CE2    201      0.138      12.01
   202         CA     13    TRP    CZ2    202    -0.2601      12.01
   203         HA     13    TRP    HZ2    203     0.1572      1.008
   204         CA     13    TRP    CH2    204    -0.1134      12.01
   205         HA     13    TRP    HH2    205     0.1417      1.008
   206         CA     13    TRP    CZ3    206    -0.1972      12.01
   207         HA     13    TRP    HZ3    207     0.1447      1.008
   208         CA     13    TRP    CE3    208    -0.2387      12.01
   209         HA     13    TRP    HE3    209       0.17      1.008
   210         CB     13    TRP    CD2    210     0.1243      12.01
   211          C     13    TRP      C    211     0.5973      12.01
   212          O     13    TRP      O    212    -0.5679         16   ; qtot 2
; residue  14 NH2 rtp NH2  q  0.0
   213          N     14    NH2      N    213     -0.463      14.01
   214          H     14    NH2     H1    214     0.2315      1.008
   215          H     14    NH2     H2    215     0.2315      1.008   ; qtot 2

[ bonds ]
;  ai    aj funct            c0            c1            c2            c3
    1     2     1 
    1     3     1 
    1     4     1 
    1     5     1 
    5     6     1 
    5     7     1 
    5    20     1 
    7     8     1 
    7     9     1 
    7    13     1 
    9    10     1 
    9    11     1 
    9    12     1 
   13    14     1 
   13    15     1 
   13    16     1 
   16    17     1 
   16    18     1 
   16    19     1 
   20    21     1 
   20    22     1 
   22    23     1 
   22    24     1 
   24    25     1 
   24    26     1 
   24    40     1 
   26    27     1 
   26    28     1 
   26    29     1 
   29    30     1 
   29    38     1 
   30    31     1 
   30    32     1 
   32    33     1 
   32    34     1 
   34    35     1 
   34    36     1 
   36    37     1 
   36    38     1 
   38    39     1 
   40    41     1 
   40    42     1 
   42    43     1 
   42    44     1 
   44    45     1 
   44    46     1 
   44    47     1 
   47    48     1 
   47    49     1 
   49    50     1 
   49    51     1 
   51    52     1 
   51    53     1 
   51    57     1 
   53    54     1 
   53    55     1 
   53    56     1 
   57    58     1 
   57    59     1 
   59    60     1 
   59    61     1 
   61    62     1 
   61    63     1 
   61    76     1 
   63    64     1 
   63    65     1 
   63    69     1 
   65    66     1 
   65    67     1 
   65    68     1 
   69    70     1 
   69    71     1 
   69    72     1 
   72    73     1 
   72    74     1 
   72    75     1 
   76    77     1 
   76    78     1 
   78    79     1 
   78    80     1 
   80    81     1 
   80    82     1 
   80    86     1 
   82    83     1 
   82    84     1 
   82    85     1 
   86    87     1 
   86    88     1 
   88    89     1 
   88    90     1 
   90    91     1 
   90    92     1 
   90    93     1 
   93    94     1 
   93    95     1 
   95    96     1 
   95    97     1 
   97    98     1 
   97    99     1 
   97   113     1 
   99   100     1 
   99   101     1 
   99   102     1 
  102   103     1 
  102   111     1 
  103   104     1 
  103   105     1 
  105   106     1 
  105   107     1 
  107   108     1 
  107   109     1 
  109   110     1 
  109   111     1 
  111   112     1 
  113   114     1 
  113   115     1 
  115   116     1 
  115   117     1 
  117   118     1 
  117   119     1 
  117   132     1 
  119   120     1 
  119   121     1 
  119   125     1 
  121   122     1 
  121   123     1 
  121   124     1 
  125   126     1 
  125   127     1 
  125   128     1 
  128   129     1 
  128   130     1 
  128   131     1 
  132   133     1 
  132   134     1 
  134   135     1 
  134   136     1 
  136   137     1 
  136   138     1 
  136   154     1 
  138   139     1 
  138   140     1 
  138   141     1 
  141   142     1 
  141   143     1 
  141   144     1 
  144   145     1 
  144   146     1 
  144   147     1 
  147   148     1 
  147   149     1 
  147   150     1 
  150   151     1 
  150   152     1 
  150   153     1 
  154   155     1 
  154   156     1 
  156   157     1 
  156   158     1 
  158   159     1 
  158   160     1 
  158   168     1 
  160   161     1 
  160   162     1 
  160   163     1 
  163   164     1 
  163   165     1 
  165   166     1 
  165   167     1 
  168   169     1 
  168   170     1 
  170   171     1 
  170   172     1 
  172   173     1 
  172   174     1 
  172   187     1 
  174   175     1 
  174   176     1 
  174   180     1 
  176   177     1 
  176   178     1 
  176   179     1 
  180   181     1 
  180   182     1 
  180   183     1 
  183   184     1 
  183   185     1 
  183   186     1 
  187   188     1 
  187   189     1 
  189   190     1 
  189   191     1 
  191   192     1 
  191   193     1 
  191   211     1 
  193   194     1 
  193   195     1 
  193   196     1 
  196   197     1 
  196   210     1 
  197   198     1 
  197   199     1 
  199   200     1 
  199   201     1 
  201   202     1 
  201   210     1 
  202   203     1 
  202   204     1 
  204   205     1 
  204   206     1 
  206   207     1 
  206   208     1 
  208   209     1 
  208   210     1 
  211   212     1 
  211   213     1 
  213   214     1 
  213   215     1 

[ pairs ]
;  ai    aj funct            c0            c1            c2            c3
    1     8     1 
    1     9     1 
    1    13     1 
    1    21     1 
    1    22     1 
    2     6     1 
    2     7     1 
    2    20     1 
    3     6     1 
    3     7     1 
    3    20     1 
    4     6     1 
    4     7     1 
    4    20     1 
    5    10     1 
    5    11     1 
    5    12     1 
    5    14     1 
    5    15     1 
    5    16     1 
    5    23     1 
    5    24     1 
    6     8     1 
    6     9     1 
    6    13     1 
    6    21     1 
    6    22     1 
    7    17     1 
    7    18     1 
    7    19     1 
    7    21     1 
    7    22     1 
    8    10     1 
    8    11     1 
    8    12     1 
    8    14     1 
    8    15     1 
    8    16     1 
    8    20     1 
    9    14     1 
    9    15     1 
    9    16     1 
    9    20     1 
   10    13     1 
   11    13     1 
   12    13     1 
   13    20     1 
   14    17     1 
   14    18     1 
   14    19     1 
   15    17     1 
   15    18     1 
   15    19     1 
   20    25     1 
   20    26     1 
   20    40     1 
   21    23     1 
   21    24     1 
   22    27     1 
   22    28     1 
   22    29     1 
   22    41     1 
   22    42     1 
   23    25     1 
   23    26     1 
   23    40     1 
   24    30     1 
   24    38     1 
   24    43     1 
   24    44     1 
   25    27     1 
   25    28     1 
   25    29     1 
   25    41     1 
   25    42     1 
   26    31     1 
   26    32     1 
   26    36     1 
   26    39     1 
   26    41     1 
   26    42     1 
   27    30     1 
   27    38     1 
   27    40     1 
   28    30     1 
   28    38     1 
   28    40     1 
   29    33     1 
   29    34     1 
   29    37     1 
   29    40     1 
   30    35     1 
   30    36     1 
   30    39     1 
   31    33     1 
   31    34     1 
   31    38     1 
   32    37     1 
   32    38     1 
   33    35     1 
   33    36     1 
   34    39     1 
   35    37     1 
   35    38     1 
   37    39     1 
   40    45     1 
   40    46     1 
   40    47     1 
   41    43     1 
   41    44     1 
   42    48     1 
   42    49     1 
   43    45     1 
   43    46     1 
   43    47     1 
   44    50     1 
   44    51     1 
   45    48     1 
   45    49     1 
   46    48     1 
   46    49     1 
   47    52     1 
   47    53     1 
   47    57     1 
   48    50     1 
   48    51     1 
   49    54     1 
   49    55     1 
   49    56     1 
   49    58     1 
   49    59     1 
   50    52     1 
   50    53     1 
   50    57     1 
   51    60     1 
   51    61     1 
   52    54     1 
   52    55     1 
   52    56     1 
   52    58     1 
   52    59     1 
   53    58     1 
   53    59     1 
   54    57     1 
   55    57     1 
   56    57     1 
   57    62     1 
   57    63     1 
   57    76     1 
   58    60     1 
   58    61     1 
   59    64     1 
   59    65     1 
   59    69     1 
   59    77     1 
   59    78     1 
   60    62     1 
   60    63     1 
   60    76     1 
   61    66     1 
   61    67     1 
   61    68     1 
   61    70     1 
   61    71     1 
   61    72     1 
   61    79     1 
   61    80     1 
   62    64     1 
   62    65     1 
   62    69     1 
   62    77     1 
   62    78     1 
   63    73     1 
   63    74     1 
   63    75     1 
   63    77     1 
   63    78     1 
   64    66     1 
   64    67     1 
   64    68     1 
   64    70     1 
   64    71     1 
   64    72     1 
   64    76     1 
   65    70     1 
   65    71     1 
   65    72     1 
   65    76     1 
   66    69     1 
   67    69     1 
   68    69     1 
   69    76     1 
   70    73     1 
   70    74     1 
   70    75     1 
   71    73     1 
   71    74     1 
   71    75     1 
   76    81     1 
   76    82     1 
   76    86     1 
   77    79     1 
   77    80     1 
   78    83     1 
   78    84     1 
   78    85     1 
   78    87     1 
   78    88     1 
   79    81     1 
   79    82     1 
   79    86     1 
   80    89     1 
   80    90     1 
   81    83     1 
   81    84     1 
   81    85     1 
   81    87     1 
   81    88     1 
   82    87     1 
   82    88     1 
   83    86     1 
   84    86     1 
   85    86     1 
   86    91     1 
   86    92     1 
   86    93     1 
   87    89     1 
   87    90     1 
   88    94     1 
   88    95     1 
   89    91     1 
   89    92     1 
   89    93     1 
   90    96     1 
   90    97     1 
   91    94     1 
   91    95     1 
   92    94     1 
   92    95     1 
   93    98     1 
   93    99     1 
   93   113     1 
   94    96     1 
   94    97     1 
   95   100     1 
   95   101     1 
   95   102     1 
   95   114     1 
   95   115     1 
   96    98     1 
   96    99     1 
   96   113     1 
   97   103     1 
   97   111     1 
   97   116     1 
   97   117     1 
   98   100     1 
   98   101     1 
   98   102     1 
   98   114     1 
   98   115     1 
   99   104     1 
   99   105     1 
   99   109     1 
   99   112     1 
   99   114     1 
   99   115     1 
  100   103     1 
  100   111     1 
  100   113     1 
  101   103     1 
  101   111     1 
  101   113     1 
  102   106     1 
  102   107     1 
  102   110     1 
  102   113     1 
  103   108     1 
  103   109     1 
  103   112     1 
  104   106     1 
  104   107     1 
  104   111     1 
  105   110     1 
  105   111     1 
  106   108     1 
  106   109     1 
  107   112     1 
  108   110     1 
  108   111     1 
  110   112     1 
  113   118     1 
  113   119     1 
  113   132     1 
  114   116     1 
  114   117     1 
  115   120     1 
  115   121     1 
  115   125     1 
  115   133     1 
  115   134     1 
  116   118     1 
  116   119     1 
  116   132     1 
  117   122     1 
  117   123     1 
  117   124     1 
  117   126     1 
  117   127     1 
  117   128     1 
  117   135     1 
  117   136     1 
  118   120     1 
  118   121     1 
  118   125     1 
  118   133     1 
  118   134     1 
  119   129     1 
  119   130     1 
  119   131     1 
  119   133     1 
  119   134     1 
  120   122     1 
  120   123     1 
  120   124     1 
  120   126     1 
  120   127     1 
  120   128     1 
  120   132     1 
  121   126     1 
  121   127     1 
  121   128     1 
  121   132     1 
  122   125     1 
  123   125     1 
  124   125     1 
  125   132     1 
  126   129     1 
  126   130     1 
  126   131     1 
  127   129     1 
  127   130     1 
  127   131     1 
  132   137     1 
  132   138     1 
  132   154     1 
  133   135     1 
  133   136     1 
  134   139     1 
  134   140     1 
  134   141     1 
  134   155     1 
  134   156     1 
  135   137     1 
  135   138     1 
  135   154     1 
  136   142     1 
  136   143     1 
  136   144     1 
  136   157     1 
  136   158     1 
  137   139     1 
  137   140     1 
  137   141     1 
  137   155     1 
  137   156     1 
  138   145     1 
  138   146     1 
  138   147     1 
  138   155     1 
  138   156     1 
  139   142     1 
  139   143     1 
  139   144     1 
  139   154     1 
  140   142     1 
  140   143     1 
  140   144     1 
  140   154     1 
  141   148     1 
  141   149     1 
  141   150     1 
  141   154     1 
  142   145     1 
  142   146     1 
  142   147     1 
  143   145     1 
  143   146     1 
  143   147     1 
  144   151     1 
  144   152     1 
  144   153     1 
  145   148     1 
  145   149     1 
  145   150     1 
  146   148     1 
  146   149     1 
  146   150     1 
  148   151     1 
  148   152     1 
  148   153     1 
  149   151     1 
  149   152     1 
  149   153     1 
  154   159     1 
  154   160     1 
  154   168     1 
  155   157     1 
  155   158     1 
  156   161     1 
  156   162     1 
  156   163     1 
  156   169     1 
  156   170     1 
  157   159     1 
  157   160     1 
  157   168     1 
  158   164     1 
  158   165     1 
  158   171     1 
  158   172     1 
  159   161     1 
  159   162     1 
  159   163     1 
  159   169     1 
  159   170     1 
  160   166     1 
  160   167     1 
  160   169     1 
  160   170     1 
  161   164     1 
  161   165     1 
  161   168     1 
  162   164     1 
  162   165     1 
  162   168     1 
  163   168     1 
  164   166     1 
  164   167     1 
  168   173     1 
  168   174     1 
  168   187     1 
  169   171     1 
  169   172     1 
  170   175     1 
  170   176     1 
  170   180     1 
  170   188     1 
  170   189     1 
  171   173     1 
  171   174     1 
  171   187     1 
  172   177     1 
  172   178     1 
  172   179     1 
  172   181     1 
  172   182     1 
  172   183     1 
  172   190     1 
  172   191     1 
  173   175     1 
  173   176     1 
  173   180     1 
  173   188     1 
  173   189     1 
  174   184     1 
  174   185     1 
  174   186     1 
  174   188     1 
  174   189     1 
  175   177     1 
  175   178     1 
  175   179     1 
  175   181     1 
  175   182     1 
  175   183     1 
  175   187     1 
  176   181     1 
  176   182     1 
  176   183     1 
  176   187     1 
  177   180     1 
  178   180     1 
  179   180     1 
  180   187     1 
  181   184     1 
  181   185     1 
  181   186     1 
  182   184     1 
  182   185     1 
  182   186     1 
  187   192     1 
  187   193     1 
  187   211     1 
  188   190     1 
  188   191     1 
  189   194     1 
  189   195     1 
  189   196     1 
  189   212     1 
  189   213     1 
  190   192     1 
  190   193     1 
  190   211     1 
  191   197     1 
  191   210     1 
  191   214     1 
  191   215     1 
  192   194     1 
  192   195     1 
  192   196     1 
  192   212     1 
  192   213     1 
  193   198     1 
  193   199     1 
  193   201     1 
  193   208     1 
  193   212     1 
  193   213     1 
  194   197     1 
  194   210     1 
  194   211     1 
  195   197     1 
  195   210     1 
  195   211     1 
  196   200     1 
  196   202     1 
  196   206     1 
  196   209     1 
  196   211     1 
  197   202     1 
  197   208     1 
  198   200     1 
  198   201     1 
  198   210     1 
  199   203     1 
  199   204     1 
  199   208     1 
  200   202     1 
  200   210     1 
  201   205     1 
  201   206     1 
  201   209     1 
  202   207     1 
  202   208     1 
  203   205     1 
  203   206     1 
  203   210     1 
  204   209     1 
  204   210     1 
  205   207     1 
  205   208     1 
  207   209     1 
  207   210     1 
  212   214     1 
  212   215     1 

[ angles ]
;  ai    aj    ak funct            c0            c1            c2            c3
    2     1     3     1 
    2     1     4     1 
    2     1     5     1 
    3     1     4     1 
    3     1     5     1 
    4     1     5     1 
    1     5     6     1 
    1     5     7     1 
    1     5    20     1 
    6     5     7     1 
    6     5    20     1 
    7     5    20     1 
    5     7     8     1 
    5     7     9     1 
    5     7    13     1 
    8     7     9     1 
    8     7    13     1 
    9     7    13     1 
    7     9    10     1 
    7     9    11     1 
    7     9    12     1 
   10     9    11     1 
   10     9    12     1 
   11     9    12     1 
    7    13    14     1 
    7    13    15     1 
    7    13    16     1 
   14    13    15     1 
   14    13    16     1 
   15    13    16     1 
   13    16    17     1 
   13    16    18     1 
   13    16    19     1 
   17    16    18     1 
   17    16    19     1 
   18    16    19     1 
    5    20    21     1 
    5    20    22     1 
   21    20    22     1 
   20    22    23     1 
   20    22    24     1 
   23    22    24     1 
   22    24    25     1 
   22    24    26     1 
   22    24    40     1 
   25    24    26     1 
   25    24    40     1 
   26    24    40     1 
   24    26    27     1 
   24    26    28     1 
   24    26    29     1 
   27    26    28     1 
   27    26    29     1 
   28    26    29     1 
   26    29    30     1 
   26    29    38     1 
   30    29    38     1 
   29    30    31     1 
   29    30    32     1 
   31    30    32     1 
   30    32    33     1 
   30    32    34     1 
   33    32    34     1 
   32    34    35     1 
   32    34    36     1 
   35    34    36     1 
   34    36    37     1 
   34    36    38     1 
   37    36    38     1 
   29    38    36     1 
   29    38    39     1 
   36    38    39     1 
   24    40    41     1 
   24    40    42     1 
   41    40    42     1 
   40    42    43     1 
   40    42    44     1 
   43    42    44     1 
   42    44    45     1 
   42    44    46     1 
   42    44    47     1 
   45    44    46     1 
   45    44    47     1 
   46    44    47     1 
   44    47    48     1 
   44    47    49     1 
   48    47    49     1 
   47    49    50     1 
   47    49    51     1 
   50    49    51     1 
   49    51    52     1 
   49    51    53     1 
   49    51    57     1 
   52    51    53     1 
   52    51    57     1 
   53    51    57     1 
   51    53    54     1 
   51    53    55     1 
   51    53    56     1 
   54    53    55     1 
   54    53    56     1 
   55    53    56     1 
   51    57    58     1 
   51    57    59     1 
   58    57    59     1 
   57    59    60     1 
   57    59    61     1 
   60    59    61     1 
   59    61    62     1 
   59    61    63     1 
   59    61    76     1 
   62    61    63     1 
   62    61    76     1 
   63    61    76     1 
   61    63    64     1 
   61    63    65     1 
   61    63    69     1 
   64    63    65     1 
   64    63    69     1 
   65    63    69     1 
   63    65    66     1 
   63    65    67     1 
   63    65    68     1 
   66    65    67     1 
   66    65    68     1 
   67    65    68     1 
   63    69    70     1 
   63    69    71     1 
   63    69    72     1 
   70    69    71     1 
   70    69    72     1 
   71    69    72     1 
   69    72    73     1 
   69    72    74     1 
   69    72    75     1 
   73    72    74     1 
   73    72    75     1 
   74    72    75     1 
   61    76    77     1 
   61    76    78     1 
   77    76    78     1 
   76    78    79     1 
   76    78    80     1 
   79    78    80     1 
   78    80    81     1 
   78    80    82     1 
   78    80    86     1 
   81    80    82     1 
   81    80    86     1 
   82    80    86     1 
   80    82    83     1 
   80    82    84     1 
   80    82    85     1 
   83    82    84     1 
   83    82    85     1 
   84    82    85     1 
   80    86    87     1 
   80    86    88     1 
   87    86    88     1 
   86    88    89     1 
   86    88    90     1 
   89    88    90     1 
   88    90    91     1 
   88    90    92     1 
   88    90    93     1 
   91    90    92     1 
   91    90    93     1 
   92    90    93     1 
   90    93    94     1 
   90    93    95     1 
   94    93    95     1 
   93    95    96     1 
   93    95    97     1 
   96    95    97     1 
   95    97    98     1 
   95    97    99     1 
   95    97   113     1 
   98    97    99     1 
   98    97   113     1 
   99    97   113     1 
   97    99   100     1 
   97    99   101     1 
   97    99   102     1 
  100    99   101     1 
  100    99   102     1 
  101    99   102     1 
   99   102   103     1 
   99   102   111     1 
  103   102   111     1 
  102   103   104     1 
  102   103   105     1 
  104   103   105     1 
  103   105   106     1 
  103   105   107     1 
  106   105   107     1 
  105   107   108     1 
  105   107   109     1 
  108   107   109     1 
  107   109   110     1 
  107   109   111     1 
  110   109   111     1 
  102   111   109     1 
  102   111   112     1 
  109   111   112     1 
   97   113   114     1 
   97   113   115     1 
  114   113   115     1 
  113   115   116     1 
  113   115   117     1 
  116   115   117     1 
  115   117   118     1 
  115   117   119     1 
  115   117   132     1 
  118   117   119     1 
  118   117   132     1 
  119   117   132     1 
  117   119   120     1 
  117   119   121     1 
  117   119   125     1 
  120   119   121     1 
  120   119   125     1 
  121   119   125     1 
  119   121   122     1 
  119   121   123     1 
  119   121   124     1 
  122   121   123     1 
  122   121   124     1 
  123   121   124     1 
  119   125   126     1 
  119   125   127     1 
  119   125   128     1 
  126   125   127     1 
  126   125   128     1 
  127   125   128     1 
  125   128   129     1 
  125   128   130     1 
  125   128   131     1 
  129   128   130     1 
  129   128   131     1 
  130   128   131     1 
  117   132   133     1 
  117   132   134     1 
  133   132   134     1 
  132   134   135     1 
  132   134   136     1 
  135   134   136     1 
  134   136   137     1 
  134   136   138     1 
  134   136   154     1 
  137   136   138     1 
  137   136   154     1 
  138   136   154     1 
  136   138   139     1 
  136   138   140     1 
  136   138   141     1 
  139   138   140     1 
  139   138   141     1 
  140   138   141     1 
  138   141   142     1 
  138   141   143     1 
  138   141   144     1 
  142   141   143     1 
  142   141   144     1 
  143   141   144     1 
  141   144   145     1 
  141   144   146     1 
  141   144   147     1 
  145   144   146     1 
  145   144   147     1 
  146   144   147     1 
  144   147   148     1 
  144   147   149     1 
  144   147   150     1 
  148   147   149     1 
  148   147   150     1 
  149   147   150     1 
  147   150   151     1 
  147   150   152     1 
  147   150   153     1 
  151   150   152     1 
  151   150   153     1 
  152   150   153     1 
  136   154   155     1 
  136   154   156     1 
  155   154   156     1 
  154   156   157     1 
  154   156   158     1 
  157   156   158     1 
  156   158   159     1 
  156   158   160     1 
  156   158   168     1 
  159   158   160     1 
  159   158   168     1 
  160   158   168     1 
  158   160   161     1 
  158   160   162     1 
  158   160   163     1 
  161   160   162     1 
  161   160   163     1 
  162   160   163     1 
  160   163   164     1 
  160   163   165     1 
  164   163   165     1 
  163   165   166     1 
  163   165   167     1 
  166   165   167     1 
  158   168   169     1 
  158   168   170     1 
  169   168   170     1 
  168   170   171     1 
  168   170   172     1 
  171   170   172     1 
  170   172   173     1 
  170   172   174     1 
  170   172   187     1 
  173   172   174     1 
  173   172   187     1 
  174   172   187     1 
  172   174   175     1 
  172   174   176     1 
  172   174   180     1 
  175   174   176     1 
  175   174   180     1 
  176   174   180     1 
  174   176   177     1 
  174   176   178     1 
  174   176   179     1 
  177   176   178     1 
  177   176   179     1 
  178   176   179     1 
  174   180   181     1 
  174   180   182     1 
  174   180   183     1 
  181   180   182     1 
  181   180   183     1 
  182   180   183     1 
  180   183   184     1 
  180   183   185     1 
  180   183   186     1 
  184   183   185     1 
  184   183   186     1 
  185   183   186     1 
  172   187   188     1 
  172   187   189     1 
  188   187   189     1 
  187   189   190     1 
  187   189   191     1 
  190   189   191     1 
  189   191   192     1 
  189   191   193     1 
  189   191   211     1 
  192   191   193     1 
  192   191   211     1 
  193   191   211     1 
  191   193   194     1 
  191   193   195     1 
  191   193   196     1 
  194   193   195     1 
  194   193   196     1 
  195   193   196     1 
  193   196   197     1 
  193   196   210     1 
  197   196   210     1 
  196   197   198     1 
  196   197   199     1 
  198   197   199     1 
  197   199   200     1 
  197   199   201     1 
  200   199   201     1 
  199   201   202     1 
  199   201   210     1 
  202   201   210     1 
  201   202   203     1 
  201   202   204     1 
  203   202   204     1 
  202   204   205     1 
  202   204   206     1 
  205   204   206     1 
  204   206   207     1 
  204   206   208     1 
  207   206   208     1 
  206   208   209     1 
  206   208   210     1 
  209   208   210     1 
  196   210   201     1 
  196   210   208     1 
  201   210   208     1 
  191   211   212     1 
  191   211   213     1 
  212   211   213     1 
  211   213   214     1 
  211   213   215     1 
  214   213   215     1 

[ dihedrals ]
;  ai    aj    ak    al funct            c0            c1            c2            c3            c4            c5
    2     1     5     6     9 
    2     1     5     7     9 
    2     1     5    20     9 
    3     1     5     6     9 
    3     1     5     7     9 
    3     1     5    20     9 
    4     1     5     6     9 
    4     1     5     7     9 
    4     1     5    20     9 
    1     5     7     9     9    torsion_ILE_N_CA_CB_CG2_mult1
    1     5     7     9     9    torsion_ILE_N_CA_CB_CG2_mult2
    1     5     7     8     9 
    1     5     7    13     9 
    6     5     7     8     9 
    6     5     7     9     9 
    6     5     7    13     9 
   20     5     7     8     9 
   20     5     7     9     9 
   20     5     7    13     9 
    1     5    20    21     9 
    1     5    20    22     9 
    6     5    20    21     9 
    6     5    20    22     9 
    7     5    20    21     9 
    7     5    20    22     9 
    5     7     9    10     9 
    5     7     9    11     9 
    5     7     9    12     9 
    8     7     9    10     9 
    8     7     9    11     9 
    8     7     9    12     9 
   13     7     9    10     9 
   13     7     9    11     9 
   13     7     9    12     9 
    5     7    13    14     9 
    5     7    13    15     9 
    5     7    13    16     9 
    8     7    13    14     9 
    8     7    13    15     9 
    8     7    13    16     9 
    9     7    13    14     9 
    9     7    13    15     9 
    9     7    13    16     9 
    7    13    16    17     9 
    7    13    16    18     9 
    7    13    16    19     9 
   14    13    16    17     9 
   14    13    16    18     9 
   14    13    16    19     9 
   15    13    16    17     9 
   15    13    16    18     9 
   15    13    16    19     9 
    5    20    22    23     9 
    5    20    22    24     9 
   21    20    22    23     9 
   21    20    22    24     9 
   20    22    24    25     9 
   20    22    24    26     9 
   20    22    24    40     9 
   23    22    24    25     9 
   23    22    24    26     9 
   23    22    24    40     9 
   22    24    26    27     9 
   22    24    26    28     9 
   22    24    26    29     9 
   25    24    26    27     9 
   25    24    26    28     9 
   25    24    26    29     9 
   40    24    26    27     9 
   40    24    26    28     9 
   40    24    26    29     9 
   22    24    40    41     9 
   22    24    40    42     9 
   25    24    40    41     9 
   25    24    40    42     9 
   26    24    40    41     9 
   26    24    40    42     9 
   24    26    29    30     9 
   24    26    29    38     9 
   27    26    29    30     9 
   27    26    29    38     9 
   28    26    29    30     9 
   28    26    29    38     9 
   26    29    30    31     9 
   26    29    30    32     9 
   38    29    30    31     9 
   38    29    30    32     9 
   26    29    38    36     9 
   26    29    38    39     9 
   30    29    38    36     9 
   30    29    38    39     9 
   29    30    32    33     9 
   29    30    32    34     9 
   31    30    32    33     9 
   31    30    32    34     9 
   30    32    34    35     9 
   30    32    34    36     9 
   33    32    34    35     9 
   33    32    34    36     9 
   32    34    36    37     9 
   32    34    36    38     9 
   35    34    36    37     9 
   35    34    36    38     9 
   34    36    38    29     9 
   34    36    38    39     9 
   37    36    38    29     9 
   37    36    38    39     9 
   24    40    42    43     9 
   24    40    42    44     9 
   41    40    42    43     9 
   41    40    42    44     9 
   40    42    44    45     9 
   40    42    44    46     9 
   40    42    44    47     9 
   43    42    44    45     9 
   43    42    44    46     9 
   43    42    44    47     9 
   42    44    47    48     9 
   42    44    47    49     9 
   45    44    47    48     9 
   45    44    47    49     9 
   46    44    47    48     9 
   46    44    47    49     9 
   44    47    49    50     9 
   44    47    49    51     9 
   48    47    49    50     9 
   48    47    49    51     9 
   47    49    51    52     9 
   47    49    51    53     9 
   47    49    51    57     9 
   50    49    51    52     9 
   50    49    51    53     9 
   50    49    51    57     9 
   49    51    53    54     9 
   49    51    53    55     9 
   49    51    53    56     9 
   52    51    53    54     9 
   52    51    53    55     9 
   52    51    53    56     9 
   57    51    53    54     9 
   57    51    53    55     9 
   57    51    53    56     9 
   49    51    57    58     9 
   49    51    57    59     9 
   52    51    57    58     9 
   52    51    57    59     9 
   53    51    57    58     9 
   53    51    57    59     9 
   51    57    59    60     9 
   51    57    59    61     9 
   58    57    59    60     9 
   58    57    59    61     9 
   57    59    61    62     9 
   57    59    61    63     9 
   57    59    61    76     9 
   60    59    61    62     9 
   60    59    61    63     9 
   60    59    61    76     9 
   59    61    63    65     9    torsion_ILE_N_CA_CB_CG2_mult1
   59    61    63    65     9    torsion_ILE_N_CA_CB_CG2_mult2
   59    61    63    64     9 
   59    61    63    69     9 
   62    61    63    64     9 
   62    61    63    65     9 
   62    61    63    69     9 
   76    61    63    64     9 
   76    61    63    65     9 
   76    61    63    69     9 
   59    61    76    77     9 
   59    61    76    78     9 
   62    61    76    77     9 
   62    61    76    78     9 
   63    61    76    77     9 
   63    61    76    78     9 
   61    63    65    66     9 
   61    63    65    67     9 
   61    63    65    68     9 
   64    63    65    66     9 
   64    63    65    67     9 
   64    63    65    68     9 
   69    63    65    66     9 
   69    63    65    67     9 
   69    63    65    68     9 
   61    63    69    70     9 
   61    63    69    71     9 
   61    63    69    72     9 
   64    63    69    70     9 
   64    63    69    71     9 
   64    63    69    72     9 
   65    63    69    70     9 
   65    63    69    71     9 
   65    63    69    72     9 
   63    69    72    73     9 
   63    69    72    74     9 
   63    69    72    75     9 
   70    69    72    73     9 
   70    69    72    74     9 
   70    69    72    75     9 
   71    69    72    73     9 
   71    69    72    74     9 
   71    69    72    75     9 
   61    76    78    79     9 
   61    76    78    80     9 
   77    76    78    79     9 
   77    76    78    80     9 
   76    78    80    81     9 
   76    78    80    82     9 
   76    78    80    86     9 
   79    78    80    81     9 
   79    78    80    82     9 
   79    78    80    86     9 
   78    80    82    83     9 
   78    80    82    84     9 
   78    80    82    85     9 
   81    80    82    83     9 
   81    80    82    84     9 
   81    80    82    85     9 
   86    80    82    83     9 
   86    80    82    84     9 
   86    80    82    85     9 
   78    80    86    87     9 
   78    80    86    88     9 
   81    80    86    87     9 
   81    80    86    88     9 
   82    80    86    87     9 
   82    80    86    88     9 
   80    86    88    89     9 
   80    86    88    90     9 
   87    86    88    89     9 
   87    86    88    90     9 
   86    88    90    91     9 
   86    88    90    92     9 
   86    88    90    93     9 
   89    88    90    91     9 
   89    88    90    92     9 
   89    88    90    93     9 
   88    90    93    94     9 
   88    90    93    95     9 
   91    90    93    94     9 
   91    90    93    95     9 
   92    90    93    94     9 
   92    90    93    95     9 
   90    93    95    96     9 
   90    93    95    97     9 
   94    93    95    96     9 
   94    93    95    97     9 
   93    95    97    98     9 
   93    95    97    99     9 
   93    95    97   113     9 
   96    95    97    98     9 
   96    95    97    99     9 
   96    95    97   113     9 
   95    97    99   100     9 
   95    97    99   101     9 
   95    97    99   102     9 
   98    97    99   100     9 
   98    97    99   101     9 
   98    97    99   102     9 
  113    97    99   100     9 
  113    97    99   101     9 
  113    97    99   102     9 
   95    97   113   114     9 
   95    97   113   115     9 
   98    97   113   114     9 
   98    97   113   115     9 
   99    97   113   114     9 
   99    97   113   115     9 
   97    99   102   103     9 
   97    99   102   111     9 
  100    99   102   103     9 
  100    99   102   111     9 
  101    99   102   103     9 
  101    99   102   111     9 
   99   102   103   104     9 
   99   102   103   105     9 
  111   102   103   104     9 
  111   102   103   105     9 
   99   102   111   109     9 
   99   102   111   112     9 
  103   102   111   109     9 
  103   102   111   112     9 
  102   103   105   106     9 
  102   103   105   107     9 
  104   103   105   106     9 
  104   103   105   107     9 
  103   105   107   108     9 
  103   105   107   109     9 
  106   105   107   108     9 
  106   105   107   109     9 
  105   107   109   110     9 
  105   107   109   111     9 
  108   107   109   110     9 
  108   107   109   111     9 
  107   109   111   102     9 
  107   109   111   112     9 
  110   109   111   102     9 
  110   109   111   112     9 
   97   113   115   116     9 
   97   113   115   117     9 
  114   113   115   116     9 
  114   113   115   117     9 
  113   115   117   118     9 
  113   115   117   119     9 
  113   115   117   132     9 
  116   115   117   118     9 
  116   115   117   119     9 
  116   115   117   132     9 
  115   117   119   121     9    torsion_ILE_N_CA_CB_CG2_mult1
  115   117   119   121     9    torsion_ILE_N_CA_CB_CG2_mult2
  115   117   119   120     9 
  115   117   119   125     9 
  118   117   119   120     9 
  118   117   119   121     9 
  118   117   119   125     9 
  132   117   119   120     9 
  132   117   119   121     9 
  132   117   119   125     9 
  115   117   132   133     9 
  115   117   132   134     9 
  118   117   132   133     9 
  118   117   132   134     9 
  119   117   132   133     9 
  119   117   132   134     9 
  117   119   121   122     9 
  117   119   121   123     9 
  117   119   121   124     9 
  120   119   121   122     9 
  120   119   121   123     9 
  120   119   121   124     9 
  125   119   121   122     9 
  125   119   121   123     9 
  125   119   121   124     9 
  117   119   125   126     9 
  117   119   125   127     9 
  117   119   125   128     9 
  120   119   125   126     9 
  120   119   125   127     9 
  120   119   125   128     9 
  121   119   125   126     9 
  121   119   125   127     9 
  121   119   125   128     9 
  119   125   128   129     9 
  119   125   128   130     9 
  119   125   128   131     9 
  126   125   128   129     9 
  126   125   128   130     9 
  126   125   128   131     9 
  127   125   128   129     9 
  127   125   128   130     9 
  127   125   128   131     9 
  117   132   134   135     9 
  117   132   134   136     9 
  133   132   134   135     9 
  133   132   134   136     9 
  132   134   136   137     9 
  132   134   136   138     9 
  132   134   136   154     9 
  135   134   136   137     9 
  135   134   136   138     9 
  135   134   136   154     9 
  134   136   138   139     9 
  134   136   138   140     9 
  134   136   138   141     9 
  137   136   138   139     9 
  137   136   138   140     9 
  137   136   138   141     9 
  154   136   138   139     9 
  154   136   138   140     9 
  154   136   138   141     9 
  134   136   154   155     9 
  134   136   154   156     9 
  137   136   154   155     9 
  137   136   154   156     9 
  138   136   154   155     9 
  138   136   154   156     9 
  136   138   141   142     9 
  136   138   141   143     9 
  136   138   141   144     9 
  139   138   141   142     9 
  139   138   141   143     9 
  139   138   141   144     9 
  140   138   141   142     9 
  140   138   141   143     9 
  140   138   141   144     9 
  138   141   144   145     9 
  138   141   144   146     9 
  138   141   144   147     9 
  142   141   144   145     9 
  142   141   144   146     9 
  142   141   144   147     9 
  143   141   144   145     9 
  143   141   144   146     9 
  143   141   144   147     9 
  141   144   147   148     9 
  141   144   147   149     9 
  141   144   147   150     9 
  145   144   147   148     9 
  145   144   147   149     9 
  145   144   147   150     9 
  146   144   147   148     9 
  146   144   147   149     9 
  146   144   147   150     9 
  144   147   150   151     9 
  144   147   150   152     9 
  144   147   150   153     9 
  148   147   150   151     9 
  148   147   150   152     9 
  148   147   150   153     9 
  149   147   150   151     9 
  149   147   150   152     9 
  149   147   150   153     9 
  136   154   156   157     9 
  136   154   156   158     9 
  155   154   156   157     9 
  155   154   156   158     9 
  154   156   158   159     9 
  154   156   158   160     9 
  154   156   158   168     9 
  157   156   158   159     9 
  157   156   158   160     9 
  157   156   158   168     9 
  168   158   160   163     9    torsion_ASN_C_CA_CB_CG_mult1
  168   158   160   163     9    torsion_ASN_C_CA_CB_CG_mult2
  168   158   160   163     9    torsion_ASN_C_CA_CB_CG_mult3
  168   158   160   163     9    torsion_ASN_C_CA_CB_CG_mult4
  168   158   160   163     9    torsion_ASN_C_CA_CB_CG_mult5
  168   158   160   163     9    torsion_ASN_C_CA_CB_CG_mult6
  156   158   160   161     9 
  156   158   160   162     9 
  156   158   160   163     9 
  159   158   160   161     9 
  159   158   160   162     9 
  159   158   160   163     9 
  168   158   160   161     9 
  168   158   160   162     9 
  156   158   168   169     9 
  156   158   168   170     9 
  159   158   168   169     9 
  159   158   168   170     9 
  160   158   168   169     9 
  160   158   168   170     9 
  158   160   163   165     9    torsion_ASN_CA_CB_CG_ND2_mult1
  158   160   163   165     9    torsion_ASN_CA_CB_CG_ND2_mult2
  158   160   163   165     9    torsion_ASN_CA_CB_CG_ND2_mult3
  158   160   163   165     9    torsion_ASN_CA_CB_CG_ND2_mult4
  158   160   163   165     9    torsion_ASN_CA_CB_CG_ND2_mult5
  158   160   163   165     9    torsion_ASN_CA_CB_CG_ND2_mult6
  158   160   163   164     9 
  161   160   163   164     9 
  161   160   163   165     9 
  162   160   163   164     9 
  162   160   163   165     9 
  160   163   165   166     9 
  160   163   165   167     9 
  164   163   165   166     9 
  164   163   165   167     9 
  158   168   170   171     9 
  158   168   170   172     9 
  169   168   170   171     9 
  169   168   170   172     9 
  168   170   172   173     9 
  168   170   172   174     9 
  168   170   172   187     9 
  171   170   172   173     9 
  171   170   172   174     9 
  171   170   172   187     9 
  170   172   174   176     9    torsion_ILE_N_CA_CB_CG2_mult1
  170   172   174   176     9    torsion_ILE_N_CA_CB_CG2_mult2
  170   172   174   175     9 
  170   172   174   180     9 
  173   172   174   175     9 
  173   172   174   176     9 
  173   172   174   180     9 
  187   172   174   175     9 
  187   172   174   176     9 
  187   172   174   180     9 
  170   172   187   188     9 
  170   172   187   189     9 
  173   172   187   188     9 
  173   172   187   189     9 
  174   172   187   188     9 
  174   172   187   189     9 
  172   174   176   177     9 
  172   174   176   178     9 
  172   174   176   179     9 
  175   174   176   177     9 
  175   174   176   178     9 
  175   174   176   179     9 
  180   174   176   177     9 
  180   174   176   178     9 
  180   174   176   179     9 
  172   174   180   181     9 
  172   174   180   182     9 
  172   174   180   183     9 
  175   174   180   181     9 
  175   174   180   182     9 
  175   174   180   183     9 
  176   174   180   181     9 
  176   174   180   182     9 
  176   174   180   183     9 
  174   180   183   184     9 
  174   180   183   185     9 
  174   180   183   186     9 
  181   180   183   184     9 
  181   180   183   185     9 
  181   180   183   186     9 
  182   180   183   184     9 
  182   180   183   185     9 
  182   180   183   186     9 
  172   187   189   190     9 
  172   187   189   191     9 
  188   187   189   190     9 
  188   187   189   191     9 
  187   189   191   192     9 
  187   189   191   193     9 
  187   189   191   211     9 
  190   189   191   192     9 
  190   189   191   193     9 
  190   189   191   211     9 
  189   191   193   194     9 
  189   191   193   195     9 
  189   191   193   196     9 
  192   191   193   194     9 
  192   191   193   195     9 
  192   191   193   196     9 
  211   191   193   194     9 
  211   191   193   195     9 
  211   191   193   196     9 
  189   191   211   212     9 
  189   191   211   213     9 
  192   191   211   212     9 
  192   191   211   213     9 
  193   191   211   212     9 
  193   191   211   213     9 
  191   193   196   197     9 
  191   193   196   210     9 
  194   193   196   197     9 
  194   193   196   210     9 
  195   193   196   197     9 
  195   193   196   210     9 
  193   196   197   198     9 
  193   196   197   199     9 
  210   196   197   198     9 
  210   196   197   199     9 
  193   196   210   201     9 
  193   196   210   208     9 
  197   196   210   201     9 
  197   196   210   208     9 
  196   197   199   200     9 
  196   197   199   201     9 
  198   197   199   200     9 
  198   197   199   201     9 
  197   199   201   202     9 
  197   199   201   210     9 
  200   199   201   202     9 
  200   199   201   210     9 
  199   201   202   203     9 
  199   201   202   204     9 
  210   201   202   203     9 
  210   201   202   204     9 
  199   201   210   196     9 
  199   201   210   208     9 
  202   201   210   196     9 
  202   201   210   208     9 
  201   202   204   205     9 
  201   202   204   206     9 
  203   202   204   205     9 
  203   202   204   206     9 
  202   204   206   207     9 
  202   204   206   208     9 
  205   204   206   207     9 
  205   204   206   208     9 
  204   206   208   209     9 
  204   206   208   210     9 
  207   206   208   209     9 
  207   206   208   210     9 
  206   208   210   196     9 
  206   208   210   201     9 
  209   208   210   196     9 
  209   208   210   201     9 
  191   211   213   214     9 
  191   211   213   215     9 
  212   211   213   214     9 
  212   211   213   215     9 

[ dihedrals ]
;  ai    aj    ak    al funct            c0            c1            c2            c3
    5    22    20    21     4 
   20    24    22    23     4 
   24    42    40    41     4 
   26    29    38    30     4 
   29    32    30    31     4 
   29    36    38    39     4 
   30    34    32    33     4 
   32    36    34    35     4 
   34    38    36    37     4 
   40    44    42    43     4 
   44    49    47    48     4 
   47    51    49    50     4 
   51    59    57    58     4 
   57    61    59    60     4 
   61    78    76    77     4 
   76    80    78    79     4 
   80    88    86    87     4 
   86    90    88    89     4 
   90    95    93    94     4 
   93    97    95    96     4 
   97   115   113   114     4 
   99   102   111   103     4 
  102   105   103   104     4 
  102   109   111   112     4 
  103   107   105   106     4 
  105   109   107   108     4 
  107   111   109   110     4 
  113   117   115   116     4 
  117   134   132   133     4 
  132   136   134   135     4 
  136   156   154   155     4 
  154   158   156   157     4 
  158   170   168   169     4 
  160   165   163   164     4 
  163   166   165   167     4 
  168   172   170   171     4 
  172   189   187   188     4 
  187   191   189   190     4 
  191   213   211   212     4 
  196   199   197   198     4 
  197   201   199   200     4 
  197   196   193   210     4 
  201   204   202   203     4 
  202   206   204   205     4 
  204   208   206   207     4 
  206   210   208   209     4 
  211   214   213   215     4 

; Include Position restraint file
#ifdef POSRES
#include "posre.itp"
#endif

; Include water topology
#include "amber99sb-ildn.ff/tip3p.itp"

#ifdef POSRES_WATER
; Position restraint for each water oxygen
[ position_restraints ]
;  i funct       fcx        fcy        fcz
   1    1       1000       1000       1000
#endif

; Include topology for ions
#include "amber99sb-ildn.ff/ions.itp"

[ system ]
; Name
HEMAGGLUTININ in water

[ molecules ]
; Compound        #mols
Protein_chain_A     1
SOL         806
CL               2
