LZXY in water
 2640
    1LZXY   H0K    1   1.654   1.499   1.669
    1LZXY   O0A    2   1.631   1.555   1.744
    1LZXY   C09    3   1.532   1.632   1.698
    1LZXY   O0B    4   1.498   1.720   1.774
    1LZXY   C08    5   1.439   1.568   1.596
    1LZXY   C03    6   1.481   1.488   1.490
    1LZXY   O02    7   1.618   1.462   1.467
    1LZXY   C01    8   1.673   1.475   1.340
    1LZXY   O0C    9   1.618   1.467   1.232
    1LZXY   C00   10   1.819   1.475   1.347
    1LZXY   H0D   11   1.854   1.526   1.436
    1LZXY   H0E   12   1.859   1.528   1.261
    1LZXY   H0F   13   1.858   1.373   1.346
    1LZXY   C04   14   1.385   1.423   1.413
    1LZXY   H0G   15   1.418   1.344   1.345
    1LZXY   C05   16   1.249   1.442   1.432
    1LZXY   H0H   17   1.176   1.377   1.382
    1LZXY   C06   18   1.207   1.522   1.534
    1LZXY   H0I   19   1.102   1.522   1.561
    1LZXY   C07   20   1.302   1.576   1.618
    1LZXY   H0J   21   1.267   1.622   1.710
    2SOL     OW   22   0.230   0.655   0.102
    2SOL    HW1   23   0.164   0.607   0.160
    2SOL    HW2   24   0.252   0.599   0.022
    3SOL     OW   25   0.209   0.271   0.999
    3SOL    HW1   26   0.250   0.249   1.087
    3SOL    HW2   27   0.111   0.248   1.001
    4SOL     OW   28   0.009   0.386   0.657
    4SOL    HW1   29   2.924   0.426   0.689
    4SOL    HW2   30   2.988   0.310   0.595
    5SOL     OW   31   0.567   1.279   1.169
    5SOL    HW1   32   0.474   1.274   1.134
    5SOL    HW2   33   0.582   1.370   1.210
    6SOL     OW   34   1.555   1.511   0.702
    6SOL    HW1   35   1.512   1.492   0.791
    6SOL    HW2   36   1.484   1.520   0.632
    7SOL     OW   37   1.131   0.702   0.704
    7SOL    HW1   38   1.185   0.785   0.687
    7SOL    HW2   39   1.079   0.714   0.789
    8SOL     OW   40   1.761   0.597   0.231
    8SOL    HW1   41   1.748   0.583   0.133
    8SOL    HW2   42   1.724   0.519   0.281
    9SOL     OW   43   0.763   1.147   1.033
    9SOL    HW1   44   0.688   1.174   1.094
    9SOL    HW2   45   0.797   1.228   0.984
   10SOL     OW   46   0.856   0.787   1.818
   10SOL    HW1   47   0.849   0.859   1.888
   10SOL    HW2   48   0.883   0.828   1.731
   11SOL     OW   49   0.685   1.009   0.655
   11SOL    HW1   50   0.754   0.991   0.726
   11SOL    HW2   51   0.609   1.060   0.695
   12SOL     OW   52   0.701   1.154   1.807
   12SOL    HW1   53   0.755   1.234   1.832
   12SOL    HW2   54   0.612   1.184   1.771
   13SOL     OW   55   0.328   1.436   1.068
   13SOL    HW1   56   0.260   1.384   1.017
   13SOL    HW2   57   0.388   1.483   1.004
   14SOL     OW   58   0.447   0.399   1.495
   14SOL    HW1   59   0.527   0.340   1.496
   14SOL    HW2   60   0.364   0.344   1.505
   15SOL     OW   61   1.612   0.456   0.735
   15SOL    HW1   62   1.531   0.483   0.682
   15SOL    HW2   63   1.638   0.530   0.797
   16SOL     OW   64   0.222   1.715   0.481
   16SOL    HW1   65   0.245   1.799   0.531
   16SOL    HW2   66   0.287   1.702   0.406
   17SOL     OW   67   1.115   1.328   1.725
   17SOL    HW1   68   1.172   1.319   1.806
   17SOL    HW2   69   1.065   1.243   1.709
   18SOL     OW   70   0.244   1.449   0.533
   18SOL    HW1   71   0.211   1.544   0.528
   18SOL    HW2   72   0.181   1.395   0.587
   19SOL     OW   73   0.253   1.084   0.893
   19SOL    HW1   74   0.255   0.992   0.932
   19SOL    HW2   75   0.192   1.142   0.947
   20SOL     OW   76   0.615   1.791   1.433
   20SOL    HW1   77   0.528   1.770   1.477
   20SOL    HW2   78   0.643   1.884   1.458
   21SOL     OW   79   0.594   0.974   0.147
   21SOL    HW1   80   0.606   1.047   0.080
   21SOL    HW2   81   0.638   1.000   0.233
   22SOL     OW   82   1.548   0.140   1.468
   22SOL    HW1   83   1.584   0.209   1.404
   22SOL    HW2   84   1.616   0.122   1.539
   23SOL     OW   85   0.123   0.631   0.572
   23SOL    HW1   86   0.079   0.547   0.604
   23SOL    HW2   87   0.117   0.701   0.643
   24SOL     OW   88   1.844   1.763   0.338
   24SOL    HW1   89   1.895   1.725   0.415
   24SOL    HW2   90   1.871   1.858   0.324
   25SOL     OW   91   0.016   1.596   0.113
   25SOL    HW1   92   0.020   1.498   0.134
   25SOL    HW2   93   2.994   1.647   0.196
   26SOL     OW   94   1.693   0.923   0.636
   26SOL    HW1   95   1.781   0.878   0.622
   26SOL    HW2   96   1.668   0.975   0.555
   27SOL     OW   97   1.647   1.109   0.434
   27SOL    HW1   98   1.734   1.114   0.384
   27SOL    HW2   99   1.650   1.171   0.512
   28SOL     OW  100   0.122   0.746   1.593
   28SOL    HW1  101   0.221   0.747   1.607
   28SOL    HW2  102   0.088   0.840   1.586
   29SOL     OW  103   0.609   1.379   0.734
   29SOL    HW1  104   0.562   1.292   0.745
   29SOL    HW2  105   0.594   1.413   0.641
   30SOL     OW  106   1.272   1.144   1.453
   30SOL    HW1  107   1.325   1.120   1.371
   30SOL    HW2  108   1.331   1.192   1.517
   31SOL     OW  109   0.818   0.012   0.501
   31SOL    HW1  110   0.850   0.106   0.493
   31SOL    HW2  111   0.718   0.011   0.501
   32SOL     OW  112   0.192   0.963   1.269
   32SOL    HW1  113   0.280   0.920   1.250
   32SOL    HW2  114   0.119   0.913   1.223
   33SOL     OW  115   1.509   1.007   0.208
   33SOL    HW1  116   1.442   0.938   0.237
   33SOL    HW2  117   1.565   1.034   0.286
   34SOL     OW  118   1.161   1.824   1.608
   34SOL    HW1  119   1.193   1.890   1.540
   34SOL    HW2  120   1.178   1.731   1.575
   35SOL     OW  121   0.327   0.253   1.796
   35SOL    HW1  122   0.388   0.330   1.817
   35SOL    HW2  123   0.240   0.266   1.844
   36SOL     OW  124   1.454   1.422   0.936
   36SOL    HW1  125   1.402   1.440   1.020
   36SOL    HW2  126   1.451   1.324   0.917
   37SOL     OW  127   1.664   1.725   0.577
   37SOL    HW1  128   1.634   1.704   0.483
   37SOL    HW2  129   1.634   1.653   0.638
   38SOL     OW  130   0.592   0.723   0.266
   38SOL    HW1  131   0.608   0.805   0.211
   38SOL    HW2  132   0.525   0.742   0.338
   39SOL     OW  133   1.285   0.340   0.931
   39SOL    HW1  134   1.189   0.312   0.935
   39SOL    HW2  135   1.337   0.291   1.001
   40SOL     OW  136   1.585   1.666   0.308
   40SOL    HW1  137   1.677   1.705   0.306
   40SOL    HW2  138   1.555   1.644   0.215
   41SOL     OW  139   0.795   0.613   1.457
   41SOL    HW1  140   0.765   0.595   1.550
   41SOL    HW2  141   0.749   0.549   1.395
   42SOL     OW  142   1.397   0.475   1.677
   42SOL    HW1  143   1.389   0.521   1.766
   42SOL    HW2  144   1.460   0.397   1.686
   43SOL     OW  145   0.958   0.884   1.576
   43SOL    HW1  146   1.017   0.811   1.543
   43SOL    HW2  147   0.910   0.926   1.499
   44SOL     OW  148   0.995   0.418   1.229
   44SOL    HW1  149   0.919   0.439   1.292
   44SOL    HW2  150   0.960   0.363   1.153
   45SOL     OW  151   1.045   0.704   0.426
   45SOL    HW1  152   1.066   0.697   0.523
   45SOL    HW2  153   0.963   0.650   0.405
   46SOL     OW  154   0.102   0.820   0.763
   46SOL    HW1  155   0.185   0.808   0.819
   46SOL    HW2  156   0.039   0.881   0.811
   47SOL     OW  157   0.139   1.835   1.575
   47SOL    HW1  158   0.127   1.810   1.671
   47SOL    HW2  159   0.051   1.863   1.536
   48SOL     OW  160   0.923   0.339   0.220
   48SOL    HW1  161   0.935   0.405   0.146
   48SOL    HW2  162   0.882   0.255   0.184
   49SOL     OW  163   1.714   0.582   1.827
   49SOL    HW1  164   1.675   0.664   1.785
   49SOL    HW2  165   1.732   0.513   1.757
   50SOL     OW  166   1.372   1.142   0.540
   50SOL    HW1  167   1.455   1.122   0.488
   50SOL    HW2  168   1.317   1.210   0.490
   51SOL     OW  169   0.516   0.194   0.914
   51SOL    HW1  170   0.536   0.209   1.011
   51SOL    HW2  171   0.547   0.273   0.861
   52SOL     OW  172   1.008   1.449   0.473
   52SOL    HW1  173   0.963   1.521   0.421
   52SOL    HW2  174   0.999   1.467   0.571
   53SOL     OW  175   0.355   1.803   0.852
   53SOL    HW1  176   0.402   1.716   0.866
   53SOL    HW2  177   0.418   1.879   0.867
   54SOL     OW  178   1.797   1.067   0.869
   54SOL    HW1  179   1.743   1.048   0.787
   54SOL    HW2  180   1.737   1.068   0.948
   55SOL     OW  181   0.322   0.951   0.229
   55SOL    HW1  182   0.419   0.962   0.207
   55SOL    HW2  183   0.292   0.860   0.202
   56SOL     OW  184   1.472   0.738   0.727
   56SOL    HW1  185   1.458   0.685   0.811
   56SOL    HW2  186   1.551   0.798   0.739
   57SOL     OW  187   0.462   1.258   1.733
   57SOL    HW1  188   0.432   1.267   1.637
   57SOL    HW2  189   0.382   1.264   1.793
   58SOL     OW  190   1.110   1.775   0.225
   58SOL    HW1  191   1.048   1.727   0.287
   58SOL    HW2  192   1.144   1.712   0.156
   59SOL     OW  193   0.200   0.297   1.498
   59SOL    HW1  194   0.114   0.345   1.484
   59SOL    HW2  195   0.187   0.222   1.564
   60SOL     OW  196   1.625   1.365   0.083
   60SOL    HW1  197   1.599   1.461   0.076
   60SOL    HW2  198   1.544   1.307   0.076
   61SOL     OW  199   0.468   1.728   0.330
   61SOL    HW1  200   0.497   1.797   0.397
   61SOL    HW2  201   0.537   1.720   0.258
   62SOL     OW  202   1.408   0.106   0.431
   62SOL    HW1  203   1.386   0.077   0.338
   62SOL    HW2  204   1.505   0.128   0.438
   63SOL     OW  205   0.261   1.797   1.233
   63SOL    HW1  206   0.304   1.726   1.288
   63SOL    HW2  207   0.229   1.757   1.147
   64SOL     OW  208   0.937   1.698   0.901
   64SOL    HW1  209   1.020   1.646   0.924
   64SOL    HW2  210   0.888   1.651   0.828
   65SOL     OW  211   0.388   0.692   0.475
   65SOL    HW1  212   0.426   0.601   0.486
   65SOL    HW2  213   0.292   0.693   0.504
   66SOL     OW  214   1.540   0.244   1.735
   66SOL    HW1  215   1.543   0.257   1.834
   66SOL    HW2  216   1.480   0.167   1.714
   67SOL     OW  217   0.611   0.109   0.110
   67SOL    HW1  218   0.710   0.110   0.122
   67SOL    HW2  219   0.589   0.128   0.014
   68SOL     OW  220   0.768   0.269   1.750
   68SOL    HW1  221   0.844   0.207   1.768
   68SOL    HW2  222   0.713   0.280   1.832
   69SOL     OW  223   0.879   1.521   1.189
   69SOL    HW1  224   0.859   1.487   1.097
   69SOL    HW2  225   0.929   1.451   1.240
   70SOL     OW  226   1.346   0.588   1.433
   70SOL    HW1  227   1.373   0.551   1.522
   70SOL    HW2  228   1.378   0.682   1.425
   71SOL     OW  229   0.812   1.399   0.931
   71SOL    HW1  230   0.901   1.394   0.886
   71SOL    HW2  231   0.740   1.395   0.862
   72SOL     OW  232   0.925   0.509   0.901
   72SOL    HW1  233   0.901   0.501   0.805
   72SOL    HW2  234   0.963   0.422   0.933
   73SOL     OW  235   0.538   0.050   0.496
   73SOL    HW1  236   0.449   0.041   0.543
   73SOL    HW2  237   0.538   0.133   0.441
   74SOL     OW  238   1.414   1.207   0.051
   74SOL    HW1  239   1.442   1.128   0.106
   74SOL    HW2  240   1.320   1.232   0.073
   75SOL     OW  241   0.302   0.075   0.194
   75SOL    HW1  242   0.376   0.141   0.180
   75SOL    HW2  243   0.341   2.985   0.213
   76SOL     OW  244   0.943   0.250   0.474
   76SOL    HW1  245   0.909   0.290   0.389
   76SOL    HW2  246   1.043   0.255   0.476
   77SOL     OW  247   1.081   0.677   1.458
   77SOL    HW1  248   1.001   0.617   1.466
   77SOL    HW2  249   1.164   0.622   1.450
   78SOL     OW  250   1.222   1.570   0.795
   78SOL    HW1  251   1.243   1.640   0.726
   78SOL    HW2  252   1.296   1.567   0.863
   79SOL     OW  253   0.464   1.145   0.740
   79SOL    HW1  254   0.390   1.128   0.805
   79SOL    HW2  255   0.430   1.132   0.647
   80SOL     OW  256   1.271   1.796   0.600
   80SOL    HW1  257   1.318   1.859   0.538
   80SOL    HW2  258   1.205   1.846   0.656
   81SOL     OW  259   1.039   0.506   0.027
   81SOL    HW1  260   0.994   0.593   0.006
   81SOL    HW2  261   1.110   0.521   0.096
   82SOL     OW  262   0.082   0.562   1.391
   82SOL    HW1  263   0.174   0.558   1.350
   82SOL    HW2  264   0.082   0.631   1.464
   83SOL     OW  265   0.575   0.218   1.174
   83SOL    HW1  266   0.614   0.153   1.239
   83SOL    HW2  267   0.478   0.232   1.195
   84SOL     OW  268   0.876   0.467   0.638
   84SOL    HW1  269   0.821   0.523   0.576
   84SOL    HW2  270   0.887   0.375   0.599
   85SOL     OW  271   0.999   0.051   0.765
   85SOL    HW1  272   0.959   0.061   0.674
   85SOL    HW2  273   0.981   2.959   0.800
   86SOL     OW  274   1.439   1.160   0.860
   86SOL    HW1  275   1.366   1.091   0.859
   86SOL    HW2  276   1.462   1.185   0.766
   87SOL     OW  277   1.471   0.597   0.985
   87SOL    HW1  278   1.419   0.512   0.988
   87SOL    HW2  279   1.536   0.600   1.061
   88SOL     OW  280   1.847   0.821   0.383
   88SOL    HW1  281   1.904   0.762   0.440
   88SOL    HW2  282   1.817   0.771   0.301
   89SOL     OW  283   0.488   1.403   0.158
   89SOL    HW1  284   0.417   1.374   0.222
   89SOL    HW2  285   0.450   1.409   0.066
   90SOL     OW  286   1.668   1.268   0.653
   90SOL    HW1  287   1.767   1.273   0.660
   90SOL    HW2  288   1.628   1.358   0.673
   91SOL     OW  289   1.408   0.580   0.100
   91SOL    HW1  290   1.333   0.566   0.164
   91SOL    HW2  291   1.469   0.500   0.101
   92SOL     OW  292   0.530   0.265   0.326
   92SOL    HW1  293   0.567   0.204   0.255
   92SOL    HW2  294   0.508   0.354   0.286
   93SOL     OW  295   1.761   1.214   1.585
   93SOL    HW1  296   1.854   1.182   1.567
   93SOL    HW2  297   1.763   1.311   1.610
   94SOL     OW  298   1.123   1.222   1.116
   94SOL    HW1  299   1.045   1.214   1.178
   94SOL    HW2  300   1.090   1.236   1.022
   95SOL     OW  301   1.633   1.103   1.079
   95SOL    HW1  302   1.631   1.180   1.143
   95SOL    HW2  303   1.550   1.104   1.023
   96SOL     OW  304   0.905   0.108   1.393
   96SOL    HW1  305   0.940   0.084   1.302
   96SOL    HW2  306   0.974   0.162   1.441
   97SOL     OW  307   0.975   1.100   1.728
   97SOL    HW1  308   0.879   1.122   1.739
   97SOL    HW2  309   0.985   1.025   1.663
   98SOL     OW  310   0.705   1.058   0.377
   98SOL    HW1  311   0.687   1.051   0.475
   98SOL    HW2  312   0.789   1.010   0.354
   99SOL     OW  313   0.418   0.811   1.250
   99SOL    HW1  314   0.491   0.826   1.316
   99SOL    HW2  315   0.376   0.722   1.266
  100SOL     OW  316   1.272   0.388   1.260
  100SOL    HW1  317   1.304   0.461   1.321
  100SOL    HW2  318   1.174   0.401   1.242
  101SOL     OW  319   0.069   1.569   1.310
  101SOL    HW1  320   0.021   1.656   1.323
  101SOL    HW2  321   0.161   1.575   1.349
  102SOL     OW  322   0.365   1.107   0.492
  102SOL    HW1  323   0.352   1.187   0.433
  102SOL    HW2  324   0.359   1.024   0.436
  103SOL     OW  325   0.557   0.545   0.864
  103SOL    HW1  326   0.575   0.601   0.783
  103SOL    HW2  327   0.619   0.570   0.938
  104SOL     OW  328   1.247   1.348   0.396
  104SOL    HW1  329   1.306   1.424   0.424
  104SOL    HW2  330   1.153   1.367   0.424
  105SOL     OW  331   1.270   1.453   1.135
  105SOL    HW1  332   1.309   1.460   1.227
  105SOL    HW2  333   1.218   1.368   1.127
  106SOL     OW  334   1.584   0.630   0.476
  106SOL    HW1  335   1.539   0.687   0.544
  106SOL    HW2  336   1.632   0.687   0.410
  107SOL     OW  337   0.354   1.522   1.323
  107SOL    HW1  338   0.329   1.480   1.236
  107SOL    HW2  339   0.452   1.538   1.326
  108SOL     OW  340   0.409   0.743   1.600
  108SOL    HW1  341   0.468   0.798   1.541
  108SOL    HW2  342   0.455   0.656   1.621
  109SOL     OW  343   1.597   0.779   1.677
  109SOL    HW1  344   1.505   0.818   1.674
  109SOL    HW2  345   1.653   0.821   1.606
  110SOL     OW  346   1.003   0.107   1.762
  110SOL    HW1  347   1.041   0.196   1.734
  110SOL    HW2  348   1.031   0.037   1.697
  111SOL     OW  349   0.500   0.053   1.749
  111SOL    HW1  350   0.473   2.989   1.677
  111SOL    HW2  351   0.428   0.121   1.762
  112SOL     OW  352   0.582   0.870   1.033
  112SOL    HW1  353   0.614   0.964   1.023
  112SOL    HW2  354   0.520   0.864   1.111
  113SOL     OW  355   1.361   0.857   1.034
  113SOL    HW1  356   1.277   0.856   0.980
  113SOL    HW2  357   1.399   0.764   1.038
  114SOL     OW  358   1.206   0.531   0.274
  114SOL    HW1  359   1.215   0.444   0.324
  114SOL    HW2  360   1.164   0.599   0.334
  115SOL     OW  361   0.322   0.208   1.244
  115SOL    HW1  362   0.287   0.254   1.326
  115SOL    HW2  363   0.275   0.120   1.233
  116SOL     OW  364   0.040   1.305   1.281
  116SOL    HW1  365   0.074   1.254   1.359
  116SOL    HW2  366   0.048   1.403   1.298
  117SOL     OW  367   0.728   0.633   1.061
  117SOL    HW1  368   0.800   0.609   0.996
  117SOL    HW2  369   0.695   0.725   1.041
  118SOL     OW  370   1.730   0.958   1.849
  118SOL    HW1  371   1.682   0.905   1.779
  118SOL    HW2  372   1.670   0.971   1.928
  119SOL     OW  373   0.309   0.065   0.641
  119SOL    HW1  374   0.305   0.160   0.674
  119SOL    HW2  375   0.286   0.003   0.715
  120SOL     OW  376   1.615   0.374   0.369
  120SOL    HW1  377   1.647   0.303   0.433
  120SOL    HW2  378   1.585   0.454   0.421
  121SOL     OW  379   1.024   0.759   0.964
  121SOL    HW1  380   1.029   0.780   1.062
  121SOL    HW2  381   0.995   0.664   0.952
  122SOL     OW  382   0.353   0.913   1.806
  122SOL    HW1  383   0.435   0.938   1.858
  122SOL    HW2  384   0.378   0.850   1.732
  123SOL     OW  385   1.510   0.293   0.127
  123SOL    HW1  386   1.463   0.207   0.143
  123SOL    HW2  387   1.566   0.316   0.207
  124SOL     OW  388   1.296   0.826   0.036
  124SOL    HW1  389   1.336   0.736   0.052
  124SOL    HW2  390   1.322   0.859   2.946
  125SOL     OW  391   1.067   1.333   0.851
  125SOL    HW1  392   1.067   1.256   0.787
  125SOL    HW2  393   1.130   1.403   0.818
  126SOL     OW  394   0.314   0.810   0.947
  126SOL    HW1  395   0.411   0.835   0.944
  126SOL    HW2  396   0.304   0.720   0.989
  127SOL     OW  397   0.337   0.512   1.014
  127SOL    HW1  398   0.292   0.426   0.992
  127SOL    HW2  399   0.415   0.526   0.952
  128SOL     OW  400   1.141   0.385   1.695
  128SOL    HW1  401   1.093   0.441   1.763
  128SOL    HW2  402   1.234   0.419   1.684
  129SOL     OW  403   1.103   0.253   1.474
  129SOL    HW1  404   1.125   0.306   1.556
  129SOL    HW2  405   1.185   0.241   1.418
  130SOL     OW  406   0.007   1.314   0.174
  130SOL    HW1  407   2.911   1.335   0.152
  130SOL    HW2  408   0.011   1.233   0.231
  131SOL     OW  409   0.100   1.802   0.959
  131SOL    HW1  410   0.051   1.734   0.905
  131SOL    HW2  411   0.189   1.819   0.918
  132SOL     OW  412   0.500   1.573   0.904
  132SOL    HW1  413   0.569   1.640   0.930
  132SOL    HW2  414   0.543   1.500   0.850
  133SOL     OW  415   0.992   0.799   1.231
  133SOL    HW1  416   1.044   0.769   1.311
  133SOL    HW2  417   0.900   0.761   1.235
  134SOL     OW  418   0.047   0.559   1.107
  134SOL    HW1  419   0.136   0.525   1.076
  134SOL    HW2  420   0.038   0.544   1.205
  135SOL     OW  421   0.197   0.517   1.720
  135SOL    HW1  422   0.268   0.488   1.657
  135SOL    HW2  423   0.149   0.597   1.683
  136SOL     OW  424   1.378   0.942   1.661
  136SOL    HW1  425   1.392   1.040   1.669
  136SOL    HW2  426   1.367   0.917   1.565
  137SOL     OW  427   0.818   0.576   0.346
  137SOL    HW1  428   0.826   0.493   0.291
  137SOL    HW2  429   0.733   0.623   0.323
  138SOL     OW  430   1.646   0.604   1.192
  138SOL    HW1  431   1.623   0.542   1.267
  138SOL    HW2  432   1.736   0.580   1.155
  139SOL     OW  433   0.279   1.560   1.749
  139SOL    HW1  434   0.221   1.624   1.798
  139SOL    HW2  435   0.249   1.466   1.768
  140SOL     OW  436   0.688   0.460   1.265
  140SOL    HW1  437   0.642   0.376   1.235
  140SOL    HW2  438   0.695   0.524   1.188
  141SOL     OW  439   0.929   1.677   1.466
  141SOL    HW1  440   0.900   1.650   1.374
  141SOL    HW2  441   0.939   1.777   1.470
  142SOL     OW  442   0.443   0.496   0.204
  142SOL    HW1  443   0.518   0.561   0.214
  142SOL    HW2  444   0.357   0.546   0.193
  143SOL     OW  445   0.160   1.139   1.465
  143SOL    HW1  446   0.151   1.089   1.551
  143SOL    HW2  447   0.171   1.074   1.390
  144SOL     OW  448   1.350   1.059   1.210
  144SOL    HW1  449   1.365   0.985   1.144
  144SOL    HW2  450   1.262   1.103   1.190
  145SOL     OW  451   1.305   0.848   0.309
  145SOL    HW1  452   1.223   0.826   0.361
  145SOL    HW2  453   1.286   0.841   0.211
  146SOL     OW  454   1.746   1.750   1.136
  146SOL    HW1  455   1.823   1.775   1.077
  146SOL    HW2  456   1.725   1.653   1.122
  147SOL     OW  457   1.246   1.734   1.121
  147SOL    HW1  458   1.329   1.753   1.068
  147SOL    HW2  459   1.237   1.635   1.134
  148SOL     OW  460   0.092   1.245   1.028
  148SOL    HW1  461   0.078   1.261   1.126
  148SOL    HW2  462   0.005   1.255   0.980
  149SOL     OW  463   0.691   1.664   1.720
  149SOL    HW1  464   0.629   1.743   1.724
  149SOL    HW2  465   0.746   1.670   1.637
  150SOL     OW  466   0.889   0.086   0.139
  150SOL    HW1  467   0.942   0.065   0.056
  150SOL    HW2  468   0.924   0.031   0.214
  151SOL     OW  469   1.717   0.139   0.506
  151SOL    HW1  470   1.792   0.133   0.440
  151SOL    HW2  471   1.718   0.057   0.564
  152SOL     OW  472   1.391   1.570   0.480
  152SOL    HW1  473   1.457   1.597   0.410
  152SOL    HW2  474   1.341   1.650   0.513
  153SOL     OW  475   0.128   1.796   1.845
  153SOL    HW1  476   0.081   1.723   1.894
  153SOL    HW2  477   0.189   1.844   1.908
  154SOL     OW  478   1.279   0.923   0.668
  154SOL    HW1  479   1.353   0.856   0.677
  154SOL    HW2  480   1.312   1.002   0.616
  155SOL     OW  481   0.826   1.275   1.418
  155SOL    HW1  482   0.822   1.312   1.510
  155SOL    HW2  483   0.740   1.294   1.370
  156SOL     OW  484   0.673   1.606   0.157
  156SOL    HW1  485   0.675   1.629   0.060
  156SOL    HW2  486   0.616   1.526   0.172
  157SOL     OW  487   1.671   1.755   1.404
  157SOL    HW1  488   1.694   1.760   1.306
  157SOL    HW2  489   1.628   1.841   1.432
  158SOL     OW  490   1.847   0.160   0.965
  158SOL    HW1  491   1.859   0.074   0.916
  158SOL    HW2  492   1.760   0.201   0.940
  159SOL     OW  493   0.269   0.336   0.743
  159SOL    HW1  494   0.178   0.370   0.720
  159SOL    HW2  495   0.270   0.304   0.838
  160SOL     OW  496   1.203   1.606   0.034
  160SOL    HW1  497   1.199   1.513   0.070
  160SOL    HW2  498   1.146   1.612   2.952
  161SOL     OW  499   0.824   1.009   1.373
  161SOL    HW1  500   0.868   0.995   1.285
  161SOL    HW2  501   0.828   1.105   1.399
  162SOL     OW  502   0.919   0.925   0.304
  162SOL    HW1  503   0.984   0.960   0.235
  162SOL    HW2  504   0.961   0.850   0.354
  163SOL     OW  505   1.491   1.603   0.049
  163SOL    HW1  506   1.393   1.620   0.057
  163SOL    HW2  507   1.523   1.629   2.958
  164SOL     OW  508   0.371   1.300   1.489
  164SOL    HW1  509   0.359   1.385   1.439
  164SOL    HW2  510   0.291   1.241   1.476
  165SOL     OW  511   1.046   1.102   0.707
  165SOL    HW1  512   0.972   1.051   0.750
  165SOL    HW2  513   1.110   1.038   0.663
  166SOL     OW  514   1.016   0.240   0.966
  166SOL    HW1  515   1.009   0.191   0.879
  166SOL    HW2  516   1.017   0.174   1.041
  167SOL     OW  517   0.599   1.490   0.485
  167SOL    HW1  518   0.641   1.433   0.413
  167SOL    HW2  519   0.536   1.555   0.443
  168SOL     OW  520   1.721   0.390   1.380
  168SOL    HW1  521   1.791   0.461   1.378
  168SOL    HW2  522   1.746   0.315   1.319
  169SOL     OW  523   0.260   1.341   0.295
  169SOL    HW1  524   0.168   1.343   0.256
  169SOL    HW2  525   0.260   1.386   0.384
  170SOL     OW  526   0.124   1.014   1.712
  170SOL    HW1  527   0.041   0.979   1.756
  170SOL    HW2  528   0.204   0.976   1.758
  171SOL     OW  529   0.668   0.208   1.493
  171SOL    HW1  530   0.753   0.181   1.448
  171SOL    HW2  531   0.686   0.222   1.591
  172SOL     OW  532   0.071   0.325   0.048
  172SOL    HW1  533   2.973   0.324   0.029
  172SOL    HW2  534   0.112   0.408   0.012
  173SOL     OW  535   1.432   0.855   1.398
  173SOL    HW1  536   1.377   0.916   1.340
  173SOL    HW2  537   1.528   0.861   1.371
  174SOL     OW  538   0.041   0.190   0.293
  174SOL    HW1  539   0.047   0.256   0.218
  174SOL    HW2  540   0.128   0.143   0.302
  175SOL     OW  541   1.185   1.351   0.124
  175SOL    HW1  542   1.088   1.328   0.111
  175SOL    HW2  543   1.208   1.340   0.221
  176SOL     OW  544   0.618   0.834   1.430
  176SOL    HW1  545   0.673   0.916   1.418
  176SOL    HW2  546   0.678   0.755   1.441
  177SOL     OW  547   1.488   1.775   0.973
  177SOL    HW1  548   1.514   1.831   0.894
  177SOL    HW2  549   1.567   1.763   1.034
  178SOL     OW  550   0.716   0.565   1.710
  178SOL    HW1  551   0.750   0.636   1.771
  178SOL    HW2  552   0.764   0.479   1.729
  179SOL     OW  553   1.470   1.208   1.638
  179SOL    HW1  554   1.454   1.215   1.737
  179SOL    HW2  555   1.569   1.204   1.621
  180SOL     OW  556   0.386   1.738   1.563
  180SOL    HW1  557   0.297   1.781   1.552
  180SOL    HW2  558   0.375   1.650   1.609
  181SOL     OW  559   1.676   0.882   1.255
  181SOL    HW1  560   1.662   0.790   1.218
  181SOL    HW2  561   1.663   0.949   1.181
  182SOL     OW  562   1.228   0.316   0.454
  182SOL    HW1  563   1.292   0.240   0.449
  182SOL    HW2  564   1.247   0.371   0.535
  183SOL     OW  565   0.593   0.742   0.660
  183SOL    HW1  566   0.636   0.832   0.649
  183SOL    HW2  567   0.514   0.736   0.600
  184SOL     OW  568   1.764   0.351   1.645
  184SOL    HW1  569   1.746   0.375   1.549
  184SOL    HW2  570   1.681   0.312   1.685
  185SOL     OW  571   1.744   0.931   1.512
  185SOL    HW1  572   1.752   1.029   1.534
  185SOL    HW2  573   1.728   0.921   1.414
  186SOL     OW  574   0.901   1.384   0.059
  186SOL    HW1  575   0.825   1.383   0.124
  186SOL    HW2  576   0.873   1.428   2.974
  187SOL     OW  577   0.658   1.795   0.951
  187SOL    HW1  578   0.630   1.887   0.924
  187SOL    HW2  579   0.757   1.786   0.940
  188SOL     OW  580   0.865   0.964   0.858
  188SOL    HW1  581   0.917   0.888   0.899
  188SOL    HW2  582   0.829   1.023   0.931
  189SOL     OW  583   1.101   1.023   0.094
  189SOL    HW1  584   1.058   1.055   0.009
  189SOL    HW2  585   1.167   0.951   0.072
  190SOL     OW  586   1.848   1.561   0.859
  190SOL    HW1  587   1.782   1.551   0.785
  190SOL    HW2  588   1.863   1.472   0.902
  191SOL     OW  589   0.223   1.305   1.854
  191SOL    HW1  590   0.170   1.226   1.825
  191SOL    HW2  591   0.213   1.318   1.953
  192SOL     OW  592   0.125   1.250   0.662
  192SOL    HW1  593   0.080   1.186   0.724
  192SOL    HW2  594   0.175   1.199   0.592
  193SOL     OW  595   0.676   1.400   1.623
  193SOL    HW1  596   0.596   1.349   1.654
  193SOL    HW2  597   0.674   1.492   1.661
  194SOL     OW  598   1.796   0.178   1.233
  194SOL    HW1  599   1.839   0.100   1.277
  194SOL    HW2  600   1.825   0.183   1.137
  195SOL     OW  601   0.458   0.431   0.541
  195SOL    HW1  602   0.457   0.365   0.465
  195SOL    HW2  603   0.400   0.397   0.615
  196SOL     OW  604   0.329   0.550   1.288
  196SOL    HW1  605   0.386   0.495   1.349
  196SOL    HW2  606   0.351   0.526   1.193
  197SOL     OW  607   0.823   1.579   0.683
  197SOL    HW1  608   0.829   1.619   0.591
  197SOL    HW2  609   0.739   1.524   0.689
  198SOL     OW  610   1.428   0.218   1.125
  198SOL    HW1  611   1.457   0.139   1.180
  198SOL    HW2  612   1.375   0.281   1.182
  199SOL     OW  613   1.009   0.030   1.153
  199SOL    HW1  614   0.933   2.984   1.108
  199SOL    HW2  615   1.092   2.976   1.142
  200SOL     OW  616   0.765   1.329   0.312
  200SOL    HW1  617   0.729   1.236   0.325
  200SOL    HW2  618   0.857   1.335   0.351
  201SOL     OW  619   0.623   1.563   1.284
  201SOL    HW1  620   0.622   1.646   1.339
  201SOL    HW2  621   0.713   1.553   1.241
  202SOL     OW  622   1.352   0.055   0.171
  202SOL    HW1  623   1.414   2.991   0.125
  202SOL    HW2  624   1.259   0.020   0.166
  203SOL     OW  625   1.298   0.460   0.686
  203SOL    HW1  626   1.239   0.541   0.691
  203SOL    HW2  627   1.298   0.414   0.775
  204SOL     OW  628   1.605   0.233   0.887
  204SOL    HW1  629   1.520   0.221   0.939
  204SOL    HW2  630   1.595   0.311   0.825
  205SOL     OW  631   0.066   1.088   0.339
  205SOL    HW1  632   0.151   1.054   0.298
  205SOL    HW2  633   2.997   1.015   0.339
  206SOL     OW  634   0.878   1.651   0.347
  206SOL    HW1  635   0.808   1.625   0.281
  206SOL    HW2  636   0.846   1.730   0.400
  207SOL     OW  637   0.234   0.646   1.971
  207SOL    HW1  638   0.164   0.606   2.031
  207SOL    HW2  639   0.231   0.602   1.882
  208SOL     OW  640   0.233   0.250   2.849
  208SOL    HW1  641   0.255   0.243   2.947
  208SOL    HW2  642   0.135   0.238   2.837
  209SOL     OW  643   0.008   0.384   2.520
  209SOL    HW1  644   2.922   0.425   2.550
  209SOL    HW2  645   2.990   0.309   2.457
  210SOL     OW  646   1.554   1.510   2.566
  210SOL    HW1  647   1.507   1.493   2.653
  210SOL    HW2  648   1.486   1.520   2.494
  211SOL     OW  649   1.132   0.702   2.567
  211SOL    HW1  650   1.186   0.784   2.548
  211SOL    HW2  651   1.079   0.715   2.651
  212SOL     OW  652   1.761   0.607   2.093
  212SOL    HW1  653   1.744   0.599   1.995
  212SOL    HW2  654   1.728   0.525   2.139
  213SOL     OW  655   0.755   1.147   2.889
  213SOL    HW1  656   0.684   1.182   2.951
  213SOL    HW2  657   0.806   1.223   2.849
  214SOL     OW  658   0.685   1.010   2.516
  214SOL    HW1  659   0.754   0.992   2.585
  214SOL    HW2  660   0.608   1.060   2.556
  215SOL     OW  661   0.331   1.453   2.930
  215SOL    HW1  662   0.271   1.387   2.885
  215SOL    HW2  663   0.391   1.494   2.861
  216SOL     OW  664   1.615   0.455   2.592
  216SOL    HW1  665   1.533   0.480   2.541
  216SOL    HW2  666   1.630   0.523   2.664
  217SOL     OW  667   0.224   1.712   2.347
  217SOL    HW1  668   0.246   1.798   2.393
  217SOL    HW2  669   0.280   1.703   2.264
  218SOL     OW  670   0.244   1.446   2.391
  218SOL    HW1  671   0.215   1.542   2.389
  218SOL    HW2  672   0.181   1.393   2.447
  219SOL     OW  673   0.239   1.085   2.749
  219SOL    HW1  674   0.258   0.998   2.795
  219SOL    HW2  675   0.192   1.146   2.813
  220SOL     OW  676   0.592   0.979   1.993
  220SOL    HW1  677   0.630   1.037   1.920
  220SOL    HW2  678   0.636   1.002   2.080
  221SOL     OW  679   0.127   0.629   2.436
  221SOL    HW1  680   0.079   0.546   2.466
  221SOL    HW2  681   0.119   0.700   2.506
  222SOL     OW  682   1.842   1.763   2.202
  222SOL    HW1  683   1.897   1.730   2.278
  222SOL    HW2  684   1.869   1.857   2.179
  223SOL     OW  685   0.029   1.597   1.994
  223SOL    HW1  686   0.020   1.498   2.005
  223SOL    HW2  687   2.980   1.643   2.068
  224SOL     OW  688   1.691   0.921   2.496
  224SOL    HW1  689   1.781   0.879   2.485
  224SOL    HW2  690   1.668   0.974   2.414
  225SOL     OW  691   1.646   1.109   2.294
  225SOL    HW1  692   1.732   1.116   2.243
  225SOL    HW2  693   1.648   1.171   2.372
  226SOL     OW  694   0.607   1.378   2.593
  226SOL    HW1  695   0.560   1.290   2.604
  226SOL    HW2  696   0.593   1.412   2.500
  227SOL     OW  697   0.819   0.010   2.360
  227SOL    HW1  698   0.851   0.104   2.353
  227SOL    HW2  699   0.719   0.009   2.363
  228SOL     OW  700   1.535   0.992   2.057
  228SOL    HW1  701   1.460   0.929   2.078
  228SOL    HW2  702   1.573   1.028   2.142
  229SOL     OW  703   1.439   1.422   2.804
  229SOL    HW1  704   1.415   1.427   2.901
  229SOL    HW2  705   1.448   1.327   2.776
  230SOL     OW  706   1.661   1.727   2.439
  230SOL    HW1  707   1.634   1.703   2.346
  230SOL    HW2  708   1.635   1.653   2.501
  231SOL     OW  709   0.596   0.725   2.126
  231SOL    HW1  710   0.611   0.804   2.066
  231SOL    HW2  711   0.527   0.747   2.195
  232SOL     OW  712   1.293   0.332   2.804
  232SOL    HW1  713   1.194   0.319   2.799
  232SOL    HW2  714   1.328   0.296   2.890
  233SOL     OW  715   1.585   1.667   2.170
  233SOL    HW1  716   1.677   1.706   2.171
  233SOL    HW2  717   1.557   1.647   2.076
  234SOL     OW  718   1.046   0.699   2.291
  234SOL    HW1  719   1.065   0.694   2.389
  234SOL    HW2  720   0.962   0.649   2.270
  235SOL     OW  721   0.102   0.818   2.627
  235SOL    HW1  722   0.186   0.808   2.680
  235SOL    HW2  723   0.043   0.887   2.668
  236SOL     OW  724   0.873   0.353   2.053
  236SOL    HW1  725   0.934   0.412   2.000
  236SOL    HW2  726   0.891   0.257   2.029
  237SOL     OW  727   1.373   1.144   2.403
  237SOL    HW1  728   1.455   1.122   2.351
  237SOL    HW2  729   1.318   1.210   2.352
  238SOL     OW  730   0.544   0.194   2.811
  238SOL    HW1  731   0.518   0.254   2.886
  238SOL    HW2  732   0.560   0.248   2.728
  239SOL     OW  733   1.007   1.447   2.335
  239SOL    HW1  734   0.964   1.521   2.284
  239SOL    HW2  735   0.999   1.465   2.433
  240SOL     OW  736   0.354   1.800   2.712
  240SOL    HW1  737   0.402   1.714   2.728
  240SOL    HW2  738   0.415   1.876   2.730
  241SOL     OW  739   1.801   1.063   2.722
  241SOL    HW1  740   1.742   1.046   2.643
  241SOL    HW2  741   1.746   1.064   2.805
  242SOL     OW  742   0.317   0.949   2.104
  242SOL    HW1  743   0.405   0.980   2.067
  242SOL    HW2  744   0.294   0.860   2.064
  243SOL     OW  745   1.471   0.741   2.589
  243SOL    HW1  746   1.463   0.681   2.669
  243SOL    HW2  747   1.553   0.797   2.597
  244SOL     OW  748   1.116   1.782   2.103
  244SOL    HW1  749   1.043   1.741   2.157
  244SOL    HW2  750   1.140   1.721   2.027
  245SOL     OW  751   1.625   1.379   1.960
  245SOL    HW1  752   1.612   1.462   1.906
  245SOL    HW2  753   1.553   1.313   1.938
  246SOL     OW  754   0.468   1.740   2.182
  246SOL    HW1  755   0.503   1.797   2.256
  246SOL    HW2  756   0.543   1.714   2.122
  247SOL     OW  757   1.408   0.108   2.293
  247SOL    HW1  758   1.388   0.075   2.200
  247SOL    HW2  759   1.505   0.129   2.300
  248SOL     OW  760   0.263   1.798   0.098
  248SOL    HW1  761   0.306   1.728   0.155
  248SOL    HW2  762   0.210   1.754   0.025
  249SOL     OW  763   0.941   1.693   2.760
  249SOL    HW1  764   1.024   1.639   2.769
  249SOL    HW2  765   0.883   1.652   2.689
  250SOL     OW  766   0.389   0.692   2.340
  250SOL    HW1  767   0.427   0.600   2.350
  250SOL    HW2  768   0.292   0.691   2.365
  251SOL     OW  769   0.621   0.124   1.974
  251SOL    HW1  770   0.714   0.087   1.981
  251SOL    HW2  771   0.583   0.101   1.884
  252SOL     OW  772   0.805   1.403   2.784
  252SOL    HW1  773   0.897   1.393   2.745
  252SOL    HW2  774   0.738   1.392   2.711
  253SOL     OW  775   0.920   0.516   2.758
  253SOL    HW1  776   0.900   0.497   2.662
  253SOL    HW2  777   0.956   0.433   2.801
  254SOL     OW  778   0.540   0.058   2.363
  254SOL    HW1  779   0.450   0.043   2.404
  254SOL    HW2  780   0.537   0.136   2.301
  255SOL     OW  781   1.429   1.196   1.904
  255SOL    HW1  782   1.464   1.118   1.956
  255SOL    HW2  783   1.339   1.222   1.939
  256SOL     OW  784   0.294   0.033   2.045
  256SOL    HW1  785   0.343   0.115   2.016
  256SOL    HW2  786   0.359   2.969   2.086
  257SOL     OW  787   0.939   0.250   2.330
  257SOL    HW1  788   0.900   0.295   2.250
  257SOL    HW2  789   1.039   0.259   2.329
  258SOL     OW  790   1.221   1.581   2.667
  258SOL    HW1  791   1.244   1.641   2.591
  258SOL    HW2  792   1.303   1.564   2.721
  259SOL     OW  793   0.461   1.144   2.603
  259SOL    HW1  794   0.386   1.129   2.667
  259SOL    HW2  795   0.428   1.129   2.510
  260SOL     OW  796   1.272   1.796   2.464
  260SOL    HW1  797   1.318   1.858   2.399
  260SOL    HW2  798   1.205   1.847   2.518
  261SOL     OW  799   1.023   0.550   1.882
  261SOL    HW1  800   0.982   0.637   1.857
  261SOL    HW2  801   1.093   0.564   1.952
  262SOL     OW  802   0.875   0.466   2.498
  262SOL    HW1  803   0.822   0.522   2.435
  262SOL    HW2  804   0.887   0.374   2.459
  263SOL     OW  805   0.999   0.047   2.625
  263SOL    HW1  806   0.959   0.056   2.533
  263SOL    HW2  807   0.981   2.955   2.660
  264SOL     OW  808   1.439   1.161   2.715
  264SOL    HW1  809   1.363   1.096   2.715
  264SOL    HW2  810   1.464   1.184   2.621
  265SOL     OW  811   1.489   0.583   2.822
  265SOL    HW1  812   1.421   0.510   2.832
  265SOL    HW2  813   1.519   0.614   2.912
  266SOL     OW  814   1.849   0.820   2.242
  266SOL    HW1  815   1.906   0.766   2.304
  266SOL    HW2  816   1.815   0.761   2.168
  267SOL     OW  817   0.492   1.407   2.028
  267SOL    HW1  818   0.411   1.379   2.080
  267SOL    HW2  819   0.472   1.403   1.930
  268SOL     OW  820   1.668   1.268   2.513
  268SOL    HW1  821   1.767   1.271   2.522
  268SOL    HW2  822   1.629   1.358   2.534
  269SOL     OW  823   1.391   0.573   1.934
  269SOL    HW1  824   1.329   0.553   2.010
  269SOL    HW2  825   1.482   0.538   1.955
  270SOL     OW  826   0.529   0.266   2.184
  270SOL    HW1  827   0.563   0.204   2.113
  270SOL    HW2  828   0.513   0.356   2.145
  271SOL     OW  829   1.648   1.102   2.934
  271SOL    HW1  830   1.654   1.174   0.003
  271SOL    HW2  831   1.559   1.108   2.888
  272SOL     OW  832   0.708   1.055   2.235
  272SOL    HW1  833   0.693   1.047   2.333
  272SOL    HW2  834   0.789   1.003   2.209
  273SOL     OW  835   0.358   1.106   2.355
  273SOL    HW1  836   0.358   1.186   2.296
  273SOL    HW2  837   0.361   1.023   2.299
  274SOL     OW  838   0.552   0.547   2.730
  274SOL    HW1  839   0.572   0.597   2.646
  274SOL    HW2  840   0.619   0.571   2.800
  275SOL     OW  841   1.248   1.349   2.256
  275SOL    HW1  842   1.307   1.425   2.285
  275SOL    HW2  843   1.154   1.367   2.286
  276SOL     OW  844   1.584   0.629   2.337
  276SOL    HW1  845   1.539   0.688   2.404
  276SOL    HW2  846   1.630   0.686   2.269
  277SOL     OW  847   0.577   0.869   2.881
  277SOL    HW1  848   0.622   0.955   2.856
  277SOL    HW2  849   0.539   0.877   2.973
  278SOL     OW  850   1.210   0.533   2.136
  278SOL    HW1  851   1.217   0.447   2.186
  278SOL    HW2  852   1.165   0.601   2.193
  279SOL     OW  853   0.731   0.640   2.917
  279SOL    HW1  854   0.799   0.610   2.850
  279SOL    HW2  855   0.696   0.730   2.889
  280SOL     OW  856   0.310   0.065   2.503
  280SOL    HW1  857   0.304   0.159   2.537
  280SOL    HW2  858   0.284   0.002   2.577
  281SOL     OW  859   1.610   0.373   2.233
  281SOL    HW1  860   1.647   0.304   2.295
  281SOL    HW2  861   1.585   0.455   2.284
  282SOL     OW  862   1.020   0.761   2.820
  282SOL    HW1  863   1.027   0.776   2.919
  282SOL    HW2  864   0.993   0.666   2.803
  283SOL     OW  865   1.533   0.274   1.994
  283SOL    HW1  866   1.467   0.203   2.018
  283SOL    HW2  867   1.568   0.316   2.077
  284SOL     OW  868   1.299   0.829   1.898
  284SOL    HW1  869   1.338   0.737   1.905
  284SOL    HW2  870   1.326   0.870   1.810
  285SOL     OW  871   1.056   1.345   2.699
  285SOL    HW1  872   1.065   1.258   2.651
  285SOL    HW2  873   1.132   1.405   2.675
  286SOL     OW  874   0.313   0.811   2.812
  286SOL    HW1  875   0.410   0.836   2.807
  286SOL    HW2  876   0.304   0.719   2.850
  287SOL     OW  877   0.325   0.516   2.871
  287SOL    HW1  878   0.288   0.426   2.849
  287SOL    HW2  879   0.407   0.532   2.816
  288SOL     OW  880   2.997   1.319   2.044
  288SOL    HW1  881   2.901   1.332   2.021
  288SOL    HW2  882   0.009   1.233   2.094
  289SOL     OW  883   0.096   1.812   2.806
  289SOL    HW1  884   0.052   1.732   2.766
  289SOL    HW2  885   0.190   1.819   2.774
  290SOL     OW  886   0.505   1.575   2.762
  290SOL    HW1  887   0.575   1.641   2.787
  290SOL    HW2  888   0.547   1.500   2.710
  291SOL     OW  889   0.984   0.761   0.087
  291SOL    HW1  890   1.036   0.754   0.172
  291SOL    HW2  891   0.886   0.769   0.109
  292SOL     OW  892   0.814   0.570   2.211
  292SOL    HW1  893   0.822   0.490   2.152
  292SOL    HW2  894   0.735   0.625   2.183
  293SOL     OW  895   0.700   0.448   0.099
  293SOL    HW1  896   0.609   0.407   0.092
  293SOL    HW2  897   0.706   0.525   0.035
  294SOL     OW  898   0.468   0.497   2.052
  294SOL    HW1  899   0.532   0.572   2.068
  294SOL    HW2  900   0.375   0.533   2.046
  295SOL     OW  901   1.305   0.854   2.169
  295SOL    HW1  902   1.224   0.827   2.221
  295SOL    HW2  903   1.288   0.843   2.071
  296SOL     OW  904   1.733   1.763   2.972
  296SOL    HW1  905   1.816   1.793   2.926
  296SOL    HW2  906   1.751   1.678   0.021
  297SOL     OW  907   0.075   1.249   2.899
  297SOL    HW1  908   0.051   1.272   2.993
  297SOL    HW2  909   2.999   1.269   2.839
  298SOL     OW  910   1.720   0.140   2.368
  298SOL    HW1  911   1.789   0.132   2.296
  298SOL    HW2  912   1.720   0.057   2.424
  299SOL     OW  913   1.392   1.570   2.344
  299SOL    HW1  914   1.457   1.596   2.272
  299SOL    HW2  915   1.340   1.650   2.374
  300SOL     OW  916   1.279   0.924   2.529
  300SOL    HW1  917   1.352   0.857   2.540
  300SOL    HW2  918   1.313   1.003   2.477
  301SOL     OW  919   0.672   1.612   2.016
  301SOL    HW1  920   0.682   1.627   1.918
  301SOL    HW2  921   0.618   1.529   2.033
  302SOL     OW  922   1.850   0.163   2.816
  302SOL    HW1  923   1.857   0.072   2.774
  302SOL    HW2  924   1.760   0.202   2.797
  303SOL     OW  925   0.272   0.338   2.603
  303SOL    HW1  926   0.179   0.372   2.583
  303SOL    HW2  927   0.274   0.301   2.695
  304SOL     OW  928   1.167   1.602   1.918
  304SOL    HW1  929   1.191   1.507   1.939
  304SOL    HW2  930   1.129   1.607   1.826
  305SOL     OW  931   0.917   0.910   2.150
  305SOL    HW1  932   0.981   0.945   2.081
  305SOL    HW2  933   0.960   0.834   2.199
  306SOL     OW  934   1.047   1.101   2.570
  306SOL    HW1  935   0.971   1.051   2.611
  306SOL    HW2  936   1.110   1.037   2.526
  307SOL     OW  937   1.011   0.242   2.815
  307SOL    HW1  938   1.007   0.182   2.734
  307SOL    HW2  939   1.044   0.189   2.893
  308SOL     OW  940   0.599   1.488   2.345
  308SOL    HW1  941   0.641   1.433   2.274
  308SOL    HW2  942   0.534   1.552   2.305
  309SOL     OW  943   0.252   1.349   2.146
  309SOL    HW1  944   0.155   1.344   2.124
  309SOL    HW2  945   0.263   1.389   2.237
  310SOL     OW  946   0.093   0.330   1.913
  310SOL    HW1  947   0.005   0.296   1.880
  310SOL    HW2  948   0.116   0.416   1.866
  311SOL     OW  949   0.032   0.213   2.151
  311SOL    HW1  950   0.063   0.267   2.073
  311SOL    HW2  951   0.098   0.140   2.170
  312SOL     OW  952   1.190   1.334   1.988
  312SOL    HW1  953   1.092   1.312   1.981
  312SOL    HW2  954   1.216   1.337   2.084
  313SOL     OW  955   1.503   1.781   2.829
  313SOL    HW1  956   1.519   1.831   2.744
  313SOL    HW2  957   1.585   1.785   2.886
  314SOL     OW  958   1.718   0.854   0.069
  314SOL    HW1  959   1.639   0.800   0.097
  314SOL    HW2  960   1.689   0.948   0.048
  315SOL     OW  961   1.226   0.316   2.316
  315SOL    HW1  962   1.291   0.240   2.312
  315SOL    HW2  963   1.245   0.372   2.397
  316SOL     OW  964   0.591   0.743   2.524
  316SOL    HW1  965   0.637   0.831   2.510
  316SOL    HW2  966   0.514   0.735   2.461
  317SOL     OW  967   0.853   1.365   1.893
  317SOL    HW1  968   0.815   1.388   1.982
  317SOL    HW2  969   0.890   1.447   1.849
  318SOL     OW  970   0.661   1.797   2.822
  318SOL    HW1  971   0.632   1.886   2.786
  318SOL    HW2  972   0.759   1.786   2.805
  319SOL     OW  973   0.862   0.963   2.718
  319SOL    HW1  974   0.916   0.889   2.758
  319SOL    HW2  975   0.830   1.024   2.791
  320SOL     OW  976   1.082   0.988   1.952
  320SOL    HW1  977   1.050   1.036   1.870
  320SOL    HW2  978   1.162   0.931   1.928
  321SOL     OW  979   1.854   1.561   2.714
  321SOL    HW1  980   1.781   1.548   2.647
  321SOL    HW2  981   1.864   1.479   2.770
  322SOL     OW  982   0.123   1.249   2.521
  322SOL    HW1  983   0.086   1.186   2.589
  322SOL    HW2  984   0.181   1.198   2.457
  323SOL     OW  985   1.811   0.192   0.081
  323SOL    HW1  986   1.833   0.108   0.131
  323SOL    HW2  987   1.829   0.178   2.984
  324SOL     OW  988   0.459   0.431   2.400
  324SOL    HW1  989   0.458   0.365   2.325
  324SOL    HW2  990   0.402   0.398   2.475
  325SOL     OW  991   0.818   1.586   2.542
  325SOL    HW1  992   0.828   1.618   2.448
  325SOL    HW2  993   0.739   1.525   2.549
  326SOL     OW  994   0.771   1.332   2.171
  326SOL    HW1  995   0.732   1.240   2.176
  326SOL    HW2  996   0.859   1.333   2.218
  327SOL     OW  997   1.349   0.048   2.031
  327SOL    HW1  998   1.411   2.990   1.977
  327SOL    HW2  999   1.261   0.001   2.040
  328SOL     OW 1000   1.298   0.458   2.550
  328SOL    HW1 1001   1.240   0.540   2.555
  328SOL    HW2 1002   1.299   0.413   2.639
  329SOL     OW 1003   1.601   0.237   2.751
  329SOL    HW1 1004   1.509   0.217   2.784
  329SOL    HW2 1005   1.599   0.313   2.686
  330SOL     OW 1006   0.061   1.083   2.168
  330SOL    HW1 1007   0.154   1.048   2.161
  330SOL    HW2 1008   0.000   1.009   2.198
  331SOL     OW 1009   0.875   1.648   2.211
  331SOL    HW1 1010   0.806   1.626   2.143
  331SOL    HW2 1011   0.847   1.730   2.261
  332SOL     OW 1012   0.230   2.512   0.098
  332SOL    HW1 1013   0.164   2.467   0.157
  332SOL    HW2 1014   0.249   2.455   0.019
  333SOL     OW 1015   0.214   2.137   0.991
  333SOL    HW1 1016   0.251   2.110   1.079
  333SOL    HW2 1017   0.124   2.095   0.978
  334SOL     OW 1018   0.017   2.248   0.642
  334SOL    HW1 1019   2.930   2.284   0.676
  334SOL    HW2 1020   0.001   2.160   0.597
  335SOL     OW 1021   1.134   2.568   0.705
  335SOL    HW1 1022   1.185   2.653   0.690
  335SOL    HW2 1023   1.077   2.577   0.787
  336SOL     OW 1024   1.757   2.460   0.228
  336SOL    HW1 1025   1.749   2.442   0.130
  336SOL    HW2 1026   1.725   2.381   0.280
  337SOL     OW 1027   0.762   0.008   1.030
  337SOL    HW1 1028   0.674   0.032   1.072
  337SOL    HW2 1029   0.791   0.083   0.970
  338SOL     OW 1030   0.861   2.646   1.819
  338SOL    HW1 1031   0.844   2.712   1.892
  338SOL    HW2 1032   0.886   2.695   1.735
  339SOL     OW 1033   0.658   2.848   0.702
  339SOL    HW1 1034   0.754   2.854   0.729
  339SOL    HW2 1035   0.624   2.939   0.677
  340SOL     OW 1036   0.468   2.268   1.491
  340SOL    HW1 1037   0.543   2.202   1.493
  340SOL    HW2 1038   0.381   2.220   1.506
  341SOL     OW 1039   1.614   2.312   0.738
  341SOL    HW1 1040   1.533   2.339   0.686
  341SOL    HW2 1041   1.642   2.388   0.797
  342SOL     OW 1042   0.214   0.308   0.471
  342SOL    HW1 1043   0.224   0.392   0.523
  342SOL    HW2 1044   0.188   0.234   0.533
  343SOL     OW 1045   0.237   2.945   0.879
  343SOL    HW1 1046   0.258   2.859   0.926
  343SOL    HW2 1047   0.196   0.010   0.944
  344SOL     OW 1048   0.616   2.830   0.145
  344SOL    HW1 1049   0.599   2.923   0.112
  344SOL    HW2 1050   0.669   2.835   0.230
  345SOL     OW 1051   1.583   1.993   1.474
  345SOL    HW1 1052   1.585   2.071   1.412
  345SOL    HW2 1053   1.584   2.025   1.568
  346SOL     OW 1054   0.120   2.499   0.568
  346SOL    HW1 1055   0.090   2.408   0.597
  346SOL    HW2 1056   0.114   2.562   0.645
  347SOL     OW 1057   1.698   2.806   0.624
  347SOL    HW1 1058   1.779   2.747   0.632
  347SOL    HW2 1059   1.682   2.828   0.528
  348SOL     OW 1060   0.122   2.608   1.590
  348SOL    HW1 1061   0.221   2.610   1.608
  348SOL    HW2 1062   0.085   2.700   1.599
  349SOL     OW 1063   0.654   0.237   0.685
  349SOL    HW1 1064   0.591   0.171   0.725
  349SOL    HW2 1065   0.604   0.297   0.622
  350SOL     OW 1066   1.300   0.053   1.435
  350SOL    HW1 1067   1.335   2.996   1.361
  350SOL    HW2 1068   1.376   0.103   1.477
  351SOL     OW 1069   0.810   1.863   0.503
  351SOL    HW1 1070   0.855   1.951   0.490
  351SOL    HW2 1071   0.712   1.877   0.514
  352SOL     OW 1072   0.193   2.836   1.257
  352SOL    HW1 1073   0.280   2.788   1.250
  352SOL    HW2 1074   0.119   2.773   1.233
  353SOL     OW 1075   1.524   2.845   0.203
  353SOL    HW1 1076   1.450   2.793   0.243
  353SOL    HW2 1077   1.590   2.870   0.274
  354SOL     OW 1078   0.331   2.112   1.805
  354SOL    HW1 1079   0.388   2.193   1.819
  354SOL    HW2 1080   0.241   2.128   1.846
  355SOL     OW 1081   0.594   2.585   0.268
  355SOL    HW1 1082   0.606   2.665   0.210
  355SOL    HW2 1083   0.524   2.603   0.337
  356SOL     OW 1084   1.281   2.206   0.933
  356SOL    HW1 1085   1.187   2.172   0.936
  356SOL    HW2 1086   1.336   2.155   0.999
  357SOL     OW 1087   0.794   2.475   1.456
  357SOL    HW1 1088   0.766   2.457   1.550
  357SOL    HW2 1089   0.749   2.410   1.394
  358SOL     OW 1090   1.394   2.333   1.677
  358SOL    HW1 1091   1.388   2.381   1.765
  358SOL    HW2 1092   1.461   2.260   1.684
  359SOL     OW 1093   0.962   2.756   1.585
  359SOL    HW1 1094   1.017   2.680   1.551
  359SOL    HW2 1095   0.907   2.793   1.510
  360SOL     OW 1096   0.993   2.275   1.236
  360SOL    HW1 1097   0.912   2.301   1.289
  360SOL    HW2 1098   0.965   2.220   1.158
  361SOL     OW 1099   1.047   2.565   0.424
  361SOL    HW1 1100   1.065   2.561   0.522
  361SOL    HW2 1101   0.963   2.514   0.403
  362SOL     OW 1102   0.101   2.673   0.768
  362SOL    HW1 1103   0.184   2.670   0.824
  362SOL    HW2 1104   0.044   2.749   0.798
  363SOL     OW 1105   0.924   2.197   0.219
  363SOL    HW1 1106   0.931   2.264   0.146
  363SOL    HW2 1107   0.893   2.109   0.182
  364SOL     OW 1108   1.712   2.441   1.827
  364SOL    HW1 1109   1.677   2.525   1.784
  364SOL    HW2 1110   1.733   2.374   1.757
  365SOL     OW 1111   0.545   2.048   0.893
  365SOL    HW1 1112   0.550   2.069   0.990
  365SOL    HW2 1113   0.552   2.132   0.840
  366SOL     OW 1114   1.796   2.910   0.868
  366SOL    HW1 1115   1.739   2.895   0.787
  366SOL    HW2 1116   1.738   2.923   0.948
  367SOL     OW 1117   1.477   2.598   0.726
  367SOL    HW1 1118   1.456   2.543   0.807
  367SOL    HW2 1119   1.552   2.660   0.747
  368SOL     OW 1120   0.229   2.169   1.512
  368SOL    HW1 1121   0.145   2.212   1.478
  368SOL    HW2 1122   0.205   2.087   1.564
  369SOL     OW 1123   1.402   1.968   0.427
  369SOL    HW1 1124   1.387   1.944   0.331
  369SOL    HW2 1125   1.500   1.981   0.443
  370SOL     OW 1126   0.386   2.555   0.477
  370SOL    HW1 1127   0.418   2.460   0.482
  370SOL    HW2 1128   0.289   2.558   0.502
  371SOL     OW 1129   1.539   2.089   1.729
  371SOL    HW1 1130   1.546   2.113   1.826
  371SOL    HW2 1131   1.477   2.011   1.718
  372SOL     OW 1132   0.626   1.986   0.116
  372SOL    HW1 1133   0.722   1.960   0.122
  372SOL    HW2 1134   0.584   1.942   0.037
  373SOL     OW 1135   0.770   2.135   1.752
  373SOL    HW1 1136   0.844   2.069   1.764
  373SOL    HW2 1137   0.711   2.134   1.832
  374SOL     OW 1138   1.344   2.451   1.434
  374SOL    HW1 1139   1.373   2.412   1.521
  374SOL    HW2 1140   1.379   2.544   1.425
  375SOL     OW 1141   0.926   2.371   0.901
  375SOL    HW1 1142   0.900   2.362   0.805
  375SOL    HW2 1143   0.963   2.284   0.934
  376SOL     OW 1144   0.545   1.924   0.507
  376SOL    HW1 1145   0.461   1.924   0.561
  376SOL    HW2 1146   0.547   2.004   0.447
  377SOL     OW 1147   0.940   2.102   0.472
  377SOL    HW1 1148   0.905   2.143   0.388
  377SOL    HW2 1149   1.039   2.111   0.475
  378SOL     OW 1150   1.079   2.543   1.458
  378SOL    HW1 1151   1.000   2.482   1.467
  378SOL    HW2 1152   1.163   2.488   1.452
  379SOL     OW 1153   1.046   2.368   0.025
  379SOL    HW1 1154   0.993   2.451   0.003
  379SOL    HW2 1155   1.109   2.388   0.099
  380SOL     OW 1156   0.086   2.419   1.396
  380SOL    HW1 1157   0.174   2.420   1.350
  380SOL    HW2 1158   0.083   2.491   1.465
  381SOL     OW 1159   0.562   2.086   1.162
  381SOL    HW1 1160   0.604   2.002   1.196
  381SOL    HW2 1161   0.467   2.089   1.191
  382SOL     OW 1162   0.871   2.321   0.639
  382SOL    HW1 1163   0.821   2.383   0.578
  382SOL    HW2 1164   0.891   2.236   0.590
  383SOL     OW 1165   1.015   1.912   0.753
  383SOL    HW1 1166   0.952   1.910   0.675
  383SOL    HW2 1167   0.994   1.834   0.814
  384SOL     OW 1168   1.429   3.000   0.871
  384SOL    HW1 1169   1.358   2.936   0.840
  384SOL    HW2 1170   1.450   0.064   0.798
  385SOL     OW 1171   1.469   2.461   0.986
  385SOL    HW1 1172   1.420   2.374   0.987
  385SOL    HW2 1173   1.536   2.462   1.061
  386SOL     OW 1174   1.836   2.671   0.389
  386SOL    HW1 1175   1.900   2.618   0.445
  386SOL    HW2 1176   1.815   2.619   0.306
  387SOL     OW 1177   1.408   2.442   0.101
  387SOL    HW1 1178   1.333   2.426   0.165
  387SOL    HW2 1179   1.470   2.363   0.102
  388SOL     OW 1180   0.526   2.125   0.326
  388SOL    HW1 1181   0.558   2.067   0.251
  388SOL    HW2 1182   0.507   2.216   0.290
  389SOL     OW 1183   1.783   0.078   1.596
  389SOL    HW1 1184   1.874   0.041   1.577
  389SOL    HW2 1185   1.792   0.172   1.631
  390SOL     OW 1186   1.629   2.958   1.079
  390SOL    HW1 1187   1.647   0.042   1.129
  390SOL    HW2 1188   1.550   2.971   1.019
  391SOL     OW 1189   0.918   1.964   1.399
  391SOL    HW1 1190   0.939   1.937   1.305
  391SOL    HW2 1191   0.999   2.005   1.442
  392SOL     OW 1192   0.415   2.677   1.254
  392SOL    HW1 1193   0.491   2.687   1.319
  392SOL    HW2 1194   0.375   2.586   1.264
  393SOL     OW 1195   1.268   2.244   1.269
  393SOL    HW1 1196   1.303   2.321   1.322
  393SOL    HW2 1197   1.175   2.263   1.239
  394SOL     OW 1198   0.558   2.404   0.863
  394SOL    HW1 1199   0.575   2.461   0.782
  394SOL    HW2 1200   0.620   2.432   0.936
  395SOL     OW 1201   1.580   2.491   0.473
  395SOL    HW1 1202   1.540   2.548   0.544
  395SOL    HW2 1203   1.637   2.547   0.413
  396SOL     OW 1204   0.411   2.603   1.601
  396SOL    HW1 1205   0.470   2.656   1.541
  396SOL    HW2 1206   0.454   2.515   1.623
  397SOL     OW 1207   1.594   2.639   1.676
  397SOL    HW1 1208   1.501   2.676   1.671
  397SOL    HW2 1209   1.651   2.683   1.607
  398SOL     OW 1210   0.996   1.980   1.760
  398SOL    HW1 1211   1.039   2.065   1.728
  398SOL    HW2 1212   1.046   1.902   1.722
  399SOL     OW 1213   0.498   1.908   1.743
  399SOL    HW1 1214   0.460   1.846   1.674
  399SOL    HW2 1215   0.433   1.982   1.762
  400SOL     OW 1216   0.589   2.728   1.039
  400SOL    HW1 1217   0.604   2.823   1.011
  400SOL    HW2 1218   0.519   2.725   1.110
  401SOL     OW 1219   1.353   2.716   1.036
  401SOL    HW1 1220   1.279   2.713   0.968
  401SOL    HW2 1221   1.399   2.627   1.039
  402SOL     OW 1222   1.206   2.394   0.275
  402SOL    HW1 1223   1.214   2.305   0.321
  402SOL    HW2 1224   1.160   2.459   0.336
  403SOL     OW 1225   0.300   2.066   1.241
  403SOL    HW1 1226   0.284   2.103   1.332
  403SOL    HW2 1227   0.284   1.968   1.240
  404SOL     OW 1228   0.055   0.168   1.274
  404SOL    HW1 1229   0.088   0.130   1.360
  404SOL    HW2 1230   0.022   0.262   1.289
  405SOL     OW 1231   0.731   2.495   1.063
  405SOL    HW1 1232   0.800   2.470   0.994
  405SOL    HW2 1233   0.694   2.586   1.041
  406SOL     OW 1234   1.733   2.819   1.845
  406SOL    HW1 1235   1.683   2.765   1.776
  406SOL    HW2 1236   1.676   2.828   1.927
  407SOL     OW 1237   0.300   1.930   0.624
  407SOL    HW1 1238   0.286   2.026   0.650
  407SOL    HW2 1239   0.309   1.875   0.707
  408SOL     OW 1240   1.618   2.234   0.371
  408SOL    HW1 1241   1.643   2.163   0.437
  408SOL    HW2 1242   1.586   2.315   0.420
  409SOL     OW 1243   1.023   2.619   0.968
  409SOL    HW1 1244   1.030   2.637   1.066
  409SOL    HW2 1245   0.996   2.524   0.953
  410SOL     OW 1246   0.354   2.784   1.797
  410SOL    HW1 1247   0.422   2.790   1.870
  410SOL    HW2 1248   0.379   2.711   1.733
  411SOL     OW 1249   1.512   2.157   0.127
  411SOL    HW1 1250   1.467   2.069   0.141
  411SOL    HW2 1251   1.565   2.181   0.209
  412SOL     OW 1252   1.297   2.687   0.038
  412SOL    HW1 1253   1.337   2.596   0.053
  412SOL    HW2 1254   1.323   2.721   2.948
  413SOL     OW 1255   0.315   2.677   0.953
  413SOL    HW1 1256   0.412   2.694   0.938
  413SOL    HW2 1257   0.302   2.584   0.988
  414SOL     OW 1258   0.338   2.376   1.012
  414SOL    HW1 1259   0.292   2.289   0.993
  414SOL    HW2 1260   0.416   2.387   0.950
  415SOL     OW 1261   1.135   2.242   1.680
  415SOL    HW1 1262   1.087   2.299   1.746
  415SOL    HW2 1263   1.230   2.274   1.672
  416SOL     OW 1264   1.162   2.071   1.470
  416SOL    HW1 1265   1.151   2.132   1.548
  416SOL    HW2 1266   1.197   2.122   1.391
  417SOL     OW 1267   0.987   2.669   1.235
  417SOL    HW1 1268   1.042   2.635   1.312
  417SOL    HW2 1269   0.900   2.620   1.232
  418SOL     OW 1270   0.050   2.435   1.113
  418SOL    HW1 1271   0.126   2.384   1.072
  418SOL    HW2 1272   0.034   2.401   1.206
  419SOL     OW 1273   0.199   2.380   1.721
  419SOL    HW1 1274   0.266   2.347   1.655
  419SOL    HW2 1275   0.151   2.459   1.683
  420SOL     OW 1276   1.375   2.807   1.660
  420SOL    HW1 1277   1.409   2.900   1.670
  420SOL    HW2 1278   1.373   2.782   1.563
  421SOL     OW 1279   0.819   2.437   0.346
  421SOL    HW1 1280   0.824   2.354   0.290
  421SOL    HW2 1281   0.735   2.487   0.325
  422SOL     OW 1282   1.646   2.465   1.192
  422SOL    HW1 1283   1.626   2.402   1.267
  422SOL    HW2 1284   1.735   2.444   1.154
  423SOL     OW 1285   0.691   2.319   1.263
  423SOL    HW1 1286   0.641   2.237   1.234
  423SOL    HW2 1287   0.696   2.384   1.187
  424SOL     OW 1288   0.438   2.360   0.210
  424SOL    HW1 1289   0.518   2.420   0.216
  424SOL    HW2 1290   0.357   2.414   0.191
  425SOL     OW 1291   0.162   0.004   1.469
  425SOL    HW1 1292   0.154   2.952   1.554
  425SOL    HW2 1293   0.175   2.941   1.392
  426SOL     OW 1294   1.354   2.908   1.219
  426SOL    HW1 1295   1.365   2.842   1.145
  426SOL    HW2 1296   1.270   2.961   1.205
  427SOL     OW 1297   1.300   2.721   0.310
  427SOL    HW1 1298   1.223   2.682   0.360
  427SOL    HW2 1299   1.290   2.700   0.213
  428SOL     OW 1300   0.898   1.940   0.129
  428SOL    HW1 1301   0.950   1.933   0.044
  428SOL    HW2 1302   0.950   1.897   0.203
  429SOL     OW 1303   1.715   1.999   0.511
  429SOL    HW1 1304   1.798   1.995   0.456
  429SOL    HW2 1305   1.699   1.911   0.556
  430SOL     OW 1306   1.291   2.792   0.680
  430SOL    HW1 1307   1.360   2.719   0.681
  430SOL    HW2 1308   1.307   2.852   0.602
  431SOL     OW 1309   1.840   2.035   0.965
  431SOL    HW1 1310   1.875   1.946   0.938
  431SOL    HW2 1311   1.748   2.048   0.928
  432SOL     OW 1312   0.268   2.181   0.722
  432SOL    HW1 1313   0.183   2.222   0.688
  432SOL    HW2 1314   0.262   2.167   0.821
  433SOL     OW 1315   0.812   2.862   1.371
  433SOL    HW1 1316   0.869   2.835   1.294
  433SOL    HW2 1317   0.835   2.956   1.398
  434SOL     OW 1318   0.906   2.788   0.291
  434SOL    HW1 1319   0.981   2.813   0.230
  434SOL    HW2 1320   0.939   2.722   0.359
  435SOL     OW 1321   1.019   2.100   0.966
  435SOL    HW1 1322   1.011   2.055   0.877
  435SOL    HW2 1323   1.014   2.032   1.039
  436SOL     OW 1324   1.720   2.253   1.380
  436SOL    HW1 1325   1.791   2.323   1.380
  436SOL    HW2 1326   1.748   2.177   1.321
  437SOL     OW 1327   0.115   2.867   1.702
  437SOL    HW1 1328   0.038   2.841   1.761
  437SOL    HW2 1329   0.201   2.850   1.750
  438SOL     OW 1330   0.675   2.060   1.497
  438SOL    HW1 1331   0.760   2.040   1.450
  438SOL    HW2 1332   0.694   2.082   1.592
  439SOL     OW 1333   0.058   2.183   0.050
  439SOL    HW1 1334   2.964   2.193   0.018
  439SOL    HW2 1335   0.115   2.255   0.009
  440SOL     OW 1336   1.434   2.718   1.403
  440SOL    HW1 1337   1.384   2.778   1.339
  440SOL    HW2 1338   1.531   2.719   1.380
  441SOL     OW 1339   0.066   2.055   0.322
  441SOL    HW1 1340   0.050   2.104   0.236
  441SOL    HW2 1341   0.137   1.986   0.307
  442SOL     OW 1342   1.145   0.217   0.099
  442SOL    HW1 1343   1.058   0.235   0.145
  442SOL    HW2 1344   1.220   0.224   0.164
  443SOL     OW 1345   0.615   2.693   1.433
  443SOL    HW1 1346   0.673   2.773   1.416
  443SOL    HW2 1347   0.672   2.612   1.443
  444SOL     OW 1348   0.718   2.427   1.708
  444SOL    HW1 1349   0.750   2.496   1.772
  444SOL    HW2 1350   0.760   2.339   1.730
  445SOL     OW 1351   1.677   2.744   1.254
  445SOL    HW1 1352   1.664   2.652   1.218
  445SOL    HW2 1353   1.661   2.811   1.182
  446SOL     OW 1354   1.224   2.180   0.459
  446SOL    HW1 1355   1.289   2.106   0.445
  446SOL    HW2 1356   1.250   2.233   0.539
  447SOL     OW 1357   0.592   2.591   0.658
  447SOL    HW1 1358   0.626   2.685   0.664
  447SOL    HW2 1359   0.513   2.589   0.596
  448SOL     OW 1360   1.763   2.221   1.647
  448SOL    HW1 1361   1.749   2.234   1.549
  448SOL    HW2 1362   1.692   2.162   1.684
  449SOL     OW 1363   1.736   2.796   1.514
  449SOL    HW1 1364   1.755   2.891   1.538
  449SOL    HW2 1365   1.727   2.787   1.414
  450SOL     OW 1366   0.884   2.829   0.863
  450SOL    HW1 1367   0.921   2.745   0.902
  450SOL    HW2 1368   0.826   2.875   0.931
  451SOL     OW 1369   1.111   2.890   0.083
  451SOL    HW1 1370   1.056   2.894   2.999
  451SOL    HW2 1371   1.172   2.811   0.078
  452SOL     OW 1372   1.810   2.049   1.235
  452SOL    HW1 1373   1.828   1.956   1.266
  452SOL    HW2 1374   1.823   2.054   1.136
  453SOL     OW 1375   0.431   2.292   0.526
  453SOL    HW1 1376   0.462   2.220   0.463
  453SOL    HW2 1377   0.382   2.250   0.603
  454SOL     OW 1378   0.331   2.413   1.287
  454SOL    HW1 1379   0.390   2.359   1.347
  454SOL    HW2 1380   0.348   2.388   1.192
  455SOL     OW 1381   1.432   2.085   1.118
  455SOL    HW1 1382   1.470   2.005   1.165
  455SOL    HW2 1383   1.376   2.138   1.183
  456SOL     OW 1384   1.007   1.885   1.148
  456SOL    HW1 1385   0.945   1.816   1.112
  456SOL    HW2 1386   1.100   1.848   1.150
  457SOL     OW 1387   1.352   1.913   0.164
  457SOL    HW1 1388   1.384   1.866   0.082
  457SOL    HW2 1389   1.262   1.876   0.190
  458SOL     OW 1390   1.299   2.323   0.687
  458SOL    HW1 1391   1.239   2.404   0.692
  458SOL    HW2 1392   1.298   2.276   0.775
  459SOL     OW 1393   1.589   2.073   0.878
  459SOL    HW1 1394   1.518   2.083   0.948
  459SOL    HW2 1395   1.590   2.154   0.821
  460SOL     OW 1396   0.007   2.893   0.285
  460SOL    HW1 1397   0.100   2.921   0.263
  460SOL    HW2 1398   0.006   2.845   0.372
  461SOL     OW 1399   0.225   2.507   1.967
  461SOL    HW1 1400   0.161   2.460   2.028
  461SOL    HW2 1401   0.227   2.460   1.879
  462SOL     OW 1402   0.235   2.125   2.840
  462SOL    HW1 1403   0.271   2.105   2.931
  462SOL    HW2 1404   0.142   2.088   2.832
  463SOL     OW 1405   0.016   2.248   2.503
  463SOL    HW1 1406   2.930   2.283   2.538
  463SOL    HW2 1407   0.001   2.158   2.462
  464SOL     OW 1408   1.134   2.568   2.567
  464SOL    HW1 1409   1.186   2.652   2.551
  464SOL    HW2 1410   1.079   2.578   2.649
  465SOL     OW 1411   1.758   2.468   2.092
  465SOL    HW1 1412   1.743   2.459   1.993
  465SOL    HW2 1413   1.728   2.385   2.138
  466SOL     OW 1414   0.781   0.012   2.882
  466SOL    HW1 1415   0.694   0.022   2.929
  466SOL    HW2 1416   0.799   0.092   2.825
  467SOL     OW 1417   0.659   2.846   2.559
  467SOL    HW1 1418   0.752   2.852   2.594
  467SOL    HW2 1419   0.624   2.939   2.541
  468SOL     OW 1420   1.617   2.312   2.594
  468SOL    HW1 1421   1.534   2.337   2.544
  468SOL    HW2 1422   1.635   2.381   2.664
  469SOL     OW 1423   0.214   0.307   2.334
  469SOL    HW1 1424   0.225   0.392   2.386
  469SOL    HW2 1425   0.189   0.233   2.396
  470SOL     OW 1426   0.235   2.946   2.744
  470SOL    HW1 1427   0.257   2.858   2.786
  470SOL    HW2 1428   0.202   0.010   2.813
  471SOL     OW 1429   0.611   2.825   1.989
  471SOL    HW1 1430   0.601   2.910   1.938
  471SOL    HW2 1431   0.662   2.842   2.073
  472SOL     OW 1432   0.119   2.497   2.429
  472SOL    HW1 1433   0.090   2.407   2.461
  472SOL    HW2 1434   0.117   2.562   2.505
  473SOL     OW 1435   1.698   2.806   2.485
  473SOL    HW1 1436   1.779   2.748   2.495
  473SOL    HW2 1437   1.682   2.826   2.389
  474SOL     OW 1438   0.642   0.244   2.561
  474SOL    HW1 1439   0.589   0.160   2.572
  474SOL    HW2 1440   0.605   0.296   2.484
  475SOL     OW 1441   0.810   1.863   2.364
  475SOL    HW1 1442   0.856   1.950   2.351
  475SOL    HW2 1443   0.712   1.878   2.378
  476SOL     OW 1444   0.208   2.808   0.097
  476SOL    HW1 1445   0.284   2.744   0.104
  476SOL    HW2 1446   0.122   2.758   0.095
  477SOL     OW 1447   1.542   2.838   2.046
  477SOL    HW1 1448   1.464   2.785   2.080
  477SOL    HW2 1449   1.591   2.879   2.124
  478SOL     OW 1450   0.596   2.583   2.127
  478SOL    HW1 1451   0.608   2.662   2.067
  478SOL    HW2 1452   0.527   2.605   2.196
  479SOL     OW 1453   1.294   2.196   2.804
  479SOL    HW1 1454   1.196   2.177   2.799
  479SOL    HW2 1455   1.330   2.160   2.891
  480SOL     OW 1456   1.049   2.561   2.290
  480SOL    HW1 1457   1.064   2.558   2.389
  480SOL    HW2 1458   0.963   2.514   2.268
  481SOL     OW 1459   0.104   2.674   2.628
  481SOL    HW1 1460   0.186   2.669   2.684
  481SOL    HW2 1461   0.044   2.746   2.662
  482SOL     OW 1462   0.880   2.208   2.056
  482SOL    HW1 1463   0.929   2.273   1.998
  482SOL    HW2 1464   0.899   2.115   2.024
  483SOL     OW 1465   0.551   2.049   2.763
  483SOL    HW1 1466   0.523   2.074   2.855
  483SOL    HW2 1467   0.557   2.131   2.706
  484SOL     OW 1468   1.797   2.913   2.729
  484SOL    HW1 1469   1.738   2.894   2.651
  484SOL    HW2 1470   1.742   2.920   2.812
  485SOL     OW 1471   1.475   2.600   2.587
  485SOL    HW1 1472   1.461   2.540   2.665
  485SOL    HW2 1473   1.554   2.659   2.604
  486SOL     OW 1474   1.401   1.968   2.288
  486SOL    HW1 1475   1.385   1.941   2.193
  486SOL    HW2 1476   1.499   1.981   2.303
  487SOL     OW 1477   0.392   2.553   2.340
  487SOL    HW1 1478   0.416   2.456   2.351
  487SOL    HW2 1479   0.295   2.565   2.358
  488SOL     OW 1480   0.623   1.987   1.970
  488SOL    HW1 1481   0.710   1.939   1.985
  488SOL    HW2 1482   0.580   1.952   1.887
  489SOL     OW 1483   0.921   2.378   2.757
  489SOL    HW1 1484   0.899   2.357   2.662
  489SOL    HW2 1485   0.961   2.297   2.801
  490SOL     OW 1486   0.545   1.925   2.369
  490SOL    HW1 1487   0.461   1.924   2.423
  490SOL    HW2 1488   0.546   2.006   2.310
  491SOL     OW 1489   0.294   1.904   2.042
  491SOL    HW1 1490   0.349   1.981   2.009
  491SOL    HW2 1491   0.353   1.837   2.085
  492SOL     OW 1492   0.937   2.102   2.329
  492SOL    HW1 1493   0.898   2.149   2.250
  492SOL    HW2 1494   1.036   2.113   2.328
  493SOL     OW 1495   1.028   2.409   1.879
  493SOL    HW1 1496   0.981   2.494   1.855
  493SOL    HW2 1497   1.093   2.427   1.953
  494SOL     OW 1498   0.870   2.319   2.500
  494SOL    HW1 1499   0.822   2.383   2.439
  494SOL    HW2 1500   0.890   2.235   2.450
  495SOL     OW 1501   1.012   1.910   2.615
  495SOL    HW1 1502   0.953   1.909   2.535
  495SOL    HW2 1503   0.992   1.830   2.672
  496SOL     OW 1504   1.425   0.004   2.735
  496SOL    HW1 1505   1.354   2.941   2.704
  496SOL    HW2 1506   1.452   0.063   2.659
  497SOL     OW 1507   1.488   2.446   2.822
  497SOL    HW1 1508   1.420   2.374   2.834
  497SOL    HW2 1509   1.520   2.477   2.911
  498SOL     OW 1510   1.840   2.671   2.251
  498SOL    HW1 1511   1.902   2.619   2.310
  498SOL    HW2 1512   1.815   2.615   2.172
  499SOL     OW 1513   1.391   2.436   1.935
  499SOL    HW1 1514   1.331   2.414   2.012
  499SOL    HW2 1515   1.483   2.402   1.954
  500SOL     OW 1516   0.529   2.125   2.184
  500SOL    HW1 1517   0.563   2.067   2.110
  500SOL    HW2 1518   0.513   2.217   2.148
  501SOL     OW 1519   1.628   2.965   2.937
  501SOL    HW1 1520   1.640   0.044   2.998
  501SOL    HW2 1521   1.550   2.981   2.878
  502SOL     OW 1522   0.557   2.401   2.726
  502SOL    HW1 1523   0.572   2.459   2.646
  502SOL    HW2 1524   0.617   2.431   2.800
  503SOL     OW 1525   1.579   2.490   2.333
  503SOL    HW1 1526   1.540   2.548   2.405
  503SOL    HW2 1527   1.636   2.546   2.272
  504SOL     OW 1528   0.575   2.726   2.881
  504SOL    HW1 1529   0.621   2.810   2.854
  504SOL    HW2 1530   0.544   2.734   2.976
  505SOL     OW 1531   1.208   2.391   2.135
  505SOL    HW1 1532   1.218   2.307   2.187
  505SOL    HW2 1533   1.162   2.460   2.191
  506SOL     OW 1534   0.322   2.062   0.084
  506SOL    HW1 1535   0.306   2.112   0.170
  506SOL    HW2 1536   0.296   1.966   0.096
  507SOL     OW 1537   0.732   2.502   2.917
  507SOL    HW1 1538   0.798   2.472   2.848
  507SOL    HW2 1539   0.693   2.590   2.890
  508SOL     OW 1540   0.302   1.931   2.486
  508SOL    HW1 1541   0.285   2.026   2.511
  508SOL    HW2 1542   0.306   1.874   2.568
  509SOL     OW 1543   1.613   2.233   2.233
  509SOL    HW1 1544   1.642   2.164   2.299
  509SOL    HW2 1545   1.586   2.317   2.282
  510SOL     OW 1546   1.021   2.621   2.823
  510SOL    HW1 1547   1.029   2.633   2.922
  510SOL    HW2 1548   0.993   2.527   2.803
  511SOL     OW 1549   1.532   2.137   1.991
  511SOL    HW1 1550   1.467   2.064   2.013
  511SOL    HW2 1551   1.566   2.177   2.076
  512SOL     OW 1552   1.297   2.689   1.897
  512SOL    HW1 1553   1.338   2.598   1.906
  512SOL    HW2 1554   1.324   2.729   1.809
  513SOL     OW 1555   0.313   2.674   2.810
  513SOL    HW1 1556   0.411   2.695   2.806
  513SOL    HW2 1557   0.301   2.582   2.848
  514SOL     OW 1558   0.325   2.382   2.866
  514SOL    HW1 1559   0.289   2.289   2.853
  514SOL    HW2 1560   0.408   2.393   2.812
  515SOL     OW 1561   0.988   2.625   0.088
  515SOL    HW1 1562   1.036   2.611   0.175
  515SOL    HW2 1563   0.890   2.632   0.105
  516SOL     OW 1564   0.816   2.431   2.210
  516SOL    HW1 1565   0.820   2.350   2.151
  516SOL    HW2 1566   0.737   2.487   2.185
  517SOL     OW 1567   0.700   2.314   0.105
  517SOL    HW1 1568   0.621   2.255   0.090
  517SOL    HW2 1569   0.701   2.386   0.035
  518SOL     OW 1570   0.467   2.359   2.050
  518SOL    HW1 1571   0.532   2.432   2.070
  518SOL    HW2 1572   0.374   2.396   2.049
  519SOL     OW 1573   1.300   2.724   2.170
  519SOL    HW1 1574   1.223   2.686   2.220
  519SOL    HW2 1575   1.289   2.703   2.072
  520SOL     OW 1576   1.717   2.000   2.373
  520SOL    HW1 1577   1.796   1.992   2.313
  520SOL    HW2 1578   1.701   1.912   2.418
  521SOL     OW 1579   1.292   2.794   2.542
  521SOL    HW1 1580   1.359   2.720   2.544
  521SOL    HW2 1581   1.307   2.851   2.461
  522SOL     OW 1582   1.840   2.038   2.821
  522SOL    HW1 1583   1.875   1.948   2.797
  522SOL    HW2 1584   1.747   2.048   2.788
  523SOL     OW 1585   0.269   2.182   2.579
  523SOL    HW1 1586   0.183   2.223   2.549
  523SOL    HW2 1587   0.267   2.166   2.677
  524SOL     OW 1588   0.908   2.759   2.122
  524SOL    HW1 1589   0.983   2.809   2.079
  524SOL    HW2 1590   0.944   2.703   2.197
  525SOL     OW 1591   1.030   2.103   2.812
  525SOL    HW1 1592   1.016   2.051   2.727
  525SOL    HW2 1593   1.013   2.044   2.890
  526SOL     OW 1594   0.091   2.188   1.916
  526SOL    HW1 1595   0.004   2.154   1.881
  526SOL    HW2 1596   0.113   2.276   1.872
  527SOL     OW 1597   0.069   2.054   2.180
  527SOL    HW1 1598   0.064   2.110   2.098
  527SOL    HW2 1599   0.141   1.985   2.168
  528SOL     OW 1600   1.143   0.247   1.993
  528SOL    HW1 1601   1.091   0.166   1.966
  528SOL    HW2 1602   1.214   0.221   2.058
  529SOL     OW 1603   1.725   2.711   0.058
  529SOL    HW1 1604   1.651   2.657   0.096
  529SOL    HW2 1605   1.696   2.806   0.048
  530SOL     OW 1606   1.222   2.181   2.319
  530SOL    HW1 1607   1.287   2.106   2.305
  530SOL    HW2 1608   1.248   2.233   2.400
  531SOL     OW 1609   0.593   2.590   2.521
  531SOL    HW1 1610   0.628   2.684   2.527
  531SOL    HW2 1611   0.516   2.587   2.458
  532SOL     OW 1612   0.878   2.825   2.721
  532SOL    HW1 1613   0.923   2.745   2.761
  532SOL    HW2 1614   0.839   2.882   2.793
  533SOL     OW 1615   1.098   2.868   1.952
  533SOL    HW1 1616   1.056   2.902   1.868
  533SOL    HW2 1617   1.161   2.793   1.930
  534SOL     OW 1618   1.828   2.055   0.091
  534SOL    HW1 1619   1.803   1.962   0.117
  534SOL    HW2 1620   1.830   2.063   2.992
  535SOL     OW 1621   0.428   2.290   2.382
  535SOL    HW1 1622   0.461   2.216   2.324
  535SOL    HW2 1623   0.382   2.252   2.462
  536SOL     OW 1624   1.353   1.911   2.024
  536SOL    HW1 1625   1.385   1.858   1.946
  536SOL    HW2 1626   1.262   1.880   2.051
  537SOL     OW 1627   1.297   2.320   2.550
  537SOL    HW1 1628   1.240   2.403   2.556
  537SOL    HW2 1629   1.300   2.276   2.639
  538SOL     OW 1630   1.588   2.078   2.740
  538SOL    HW1 1631   1.502   2.086   2.791
  538SOL    HW2 1632   1.597   2.156   2.678
  539SOL     OW 1633   0.023   2.929   2.153
  539SOL    HW1 1634   0.123   2.925   2.148
  539SOL    HW2 1635   2.991   2.867   2.224
  540SOL     OW 1636   2.091   0.634   0.117
  540SOL    HW1 1637   1.995   0.627   0.144
  540SOL    HW2 1638   2.104   0.595   0.027
  541SOL     OW 1639   2.078   0.282   1.004
  541SOL    HW1 1640   2.115   0.251   1.091
  541SOL    HW2 1641   1.988   0.241   0.989
  542SOL     OW 1642   1.865   0.380   0.644
  542SOL    HW1 1643   1.781   0.409   0.688
  542SOL    HW2 1644   1.846   0.303   0.583
  543SOL     OW 1645   2.427   1.278   1.171
  543SOL    HW1 1646   2.336   1.279   1.130
  543SOL    HW2 1647   2.447   1.368   1.210
  544SOL     OW 1648   2.619   1.146   1.030
  544SOL    HW1 1649   2.548   1.176   1.094
  544SOL    HW2 1650   2.662   1.226   0.987
  545SOL     OW 1651   2.717   0.785   1.817
  545SOL    HW1 1652   2.711   0.854   1.888
  545SOL    HW2 1653   2.741   0.828   1.730
  546SOL     OW 1654   2.547   1.010   0.655
  546SOL    HW1 1655   2.613   0.989   0.726
  546SOL    HW2 1656   2.470   1.061   0.694
  547SOL     OW 1657   2.565   1.156   1.809
  547SOL    HW1 1658   2.618   1.237   1.832
  547SOL    HW2 1659   2.476   1.184   1.772
  548SOL     OW 1660   2.190   1.432   1.065
  548SOL    HW1 1661   2.116   1.396   1.008
  548SOL    HW2 1662   2.252   1.486   1.009
  549SOL     OW 1663   2.309   0.399   1.492
  549SOL    HW1 1664   2.389   0.339   1.495
  549SOL    HW2 1665   2.226   0.344   1.504
  550SOL     OW 1666   2.085   1.713   0.477
  550SOL    HW1 1667   2.107   1.792   0.533
  550SOL    HW2 1668   2.155   1.702   0.406
  551SOL     OW 1669   2.981   1.345   1.689
  551SOL    HW1 1670   0.039   1.351   1.771
  551SOL    HW2 1671   2.934   1.256   1.688
  552SOL     OW 1672   2.088   1.441   0.536
  552SOL    HW1 1673   2.076   1.540   0.540
  552SOL    HW2 1674   2.023   1.396   0.597
  553SOL     OW 1675   2.111   1.091   0.892
  553SOL    HW1 1676   2.116   1.000   0.933
  553SOL    HW2 1677   2.053   1.150   0.948
  554SOL     OW 1678   2.478   1.790   1.435
  554SOL    HW1 1679   2.390   1.770   1.477
  554SOL    HW2 1680   2.504   1.884   1.456
  555SOL     OW 1681   2.458   0.975   0.144
  555SOL    HW1 1682   2.473   1.050   0.080
  555SOL    HW2 1683   2.499   0.998   0.233
  556SOL     OW 1684   1.979   0.645   0.564
  556SOL    HW1 1685   1.934   0.558   0.582
  556SOL    HW2 1686   1.972   0.704   0.644
  557SOL     OW 1687   1.877   1.587   0.122
  557SOL    HW1 1688   1.888   1.492   0.150
  557SOL    HW2 1689   1.877   1.646   0.203
  558SOL     OW 1690   1.981   0.741   1.587
  558SOL    HW1 1691   2.078   0.752   1.611
  558SOL    HW2 1692   1.936   0.830   1.590
  559SOL     OW 1693   2.471   1.379   0.733
  559SOL    HW1 1694   2.425   1.291   0.744
  559SOL    HW2 1695   2.457   1.413   0.640
  560SOL     OW 1696   2.681   0.014   0.506
  560SOL    HW1 1697   2.711   0.109   0.494
  560SOL    HW2 1698   2.581   0.010   0.502
  561SOL     OW 1699   2.054   0.975   1.257
  561SOL    HW1 1700   2.143   0.930   1.251
  561SOL    HW2 1701   1.982   0.909   1.238
  562SOL     OW 1702   2.186   0.254   1.799
  562SOL    HW1 1703   2.245   0.332   1.818
  562SOL    HW2 1704   2.096   0.269   1.841
  563SOL     OW 1705   2.455   0.724   0.266
  563SOL    HW1 1706   2.468   0.806   0.210
  563SOL    HW2 1707   2.386   0.742   0.336
  564SOL     OW 1708   2.651   0.622   1.456
  564SOL    HW1 1709   2.627   0.599   1.550
  564SOL    HW2 1710   2.612   0.555   1.393
  565SOL     OW 1711   2.833   0.884   1.572
  565SOL    HW1 1712   2.867   0.794   1.544
  565SOL    HW2 1713   2.780   0.924   1.498
  566SOL     OW 1714   2.845   0.381   1.259
  566SOL    HW1 1715   2.772   0.439   1.294
  566SOL    HW2 1716   2.834   0.369   1.160
  567SOL     OW 1717   2.892   0.711   0.413
  567SOL    HW1 1718   2.932   0.701   0.504
  567SOL    HW2 1719   2.814   0.650   0.404
  568SOL     OW 1720   1.952   0.820   0.774
  568SOL    HW1 1721   2.039   0.807   0.822
  568SOL    HW2 1722   1.906   0.901   0.811
  569SOL     OW 1723   1.992   1.840   1.577
  569SOL    HW1 1724   1.988   1.816   1.674
  569SOL    HW2 1725   1.900   1.843   1.539
  570SOL     OW 1726   2.783   0.341   0.217
  570SOL    HW1 1727   2.776   0.404   0.141
  570SOL    HW2 1728   2.767   0.247   0.185
  571SOL     OW 1729   2.379   0.194   0.913
  571SOL    HW1 1730   2.398   0.210   1.010
  571SOL    HW2 1731   2.406   0.275   0.860
  572SOL     OW 1732   2.861   1.446   0.470
  572SOL    HW1 1733   2.825   1.525   0.421
  572SOL    HW2 1734   2.867   1.466   0.568
  573SOL     OW 1735   2.216   1.804   0.854
  573SOL    HW1 1736   2.262   1.716   0.866
  573SOL    HW2 1737   2.282   1.878   0.869
  574SOL     OW 1738   2.182   0.951   0.241
  574SOL    HW1 1739   2.271   0.973   0.200
  574SOL    HW2 1740   2.151   0.863   0.206
  575SOL     OW 1741   2.323   1.258   1.733
  575SOL    HW1 1742   2.294   1.267   1.638
  575SOL    HW2 1743   2.243   1.261   1.793
  576SOL     OW 1744   2.063   0.294   1.498
  576SOL    HW1 1745   1.977   0.345   1.489
  576SOL    HW2 1746   2.053   0.225   1.571
  577SOL     OW 1747   2.329   1.729   0.330
  577SOL    HW1 1748   2.359   1.797   0.396
  577SOL    HW2 1749   2.398   1.718   0.259
  578SOL     OW 1750   2.121   1.794   1.233
  578SOL    HW1 1751   2.156   1.723   1.294
  578SOL    HW2 1752   2.097   1.753   1.145
  579SOL     OW 1753   2.801   1.696   0.900
  579SOL    HW1 1754   2.869   1.630   0.933
  579SOL    HW2 1755   2.748   1.655   0.826
  580SOL     OW 1756   2.251   0.692   0.478
  580SOL    HW1 1757   2.288   0.599   0.488
  580SOL    HW2 1758   2.154   0.691   0.502
  581SOL     OW 1759   2.474   0.109   0.110
  581SOL    HW1 1760   2.574   0.111   0.123
  581SOL    HW2 1761   2.452   0.126   0.014
  582SOL     OW 1762   2.636   0.274   1.753
  582SOL    HW1 1763   2.705   0.204   1.772
  582SOL    HW2 1764   2.572   0.277   1.830
  583SOL     OW 1765   2.743   1.516   1.192
  583SOL    HW1 1766   2.720   1.483   1.100
  583SOL    HW2 1767   2.806   1.452   1.235
  584SOL     OW 1768   2.669   1.404   0.933
  584SOL    HW1 1769   2.759   1.392   0.890
  584SOL    HW2 1770   2.598   1.396   0.862
  585SOL     OW 1771   2.784   0.505   0.903
  585SOL    HW1 1772   2.754   0.495   0.808
  585SOL    HW2 1773   2.828   0.421   0.933
  586SOL     OW 1774   2.399   0.051   0.497
  586SOL    HW1 1775   2.311   0.041   0.543
  586SOL    HW2 1776   2.399   0.135   0.442
  587SOL     OW 1777   0.315   1.157   0.046
  587SOL    HW1 1778   0.315   1.093   0.123
  587SOL    HW2 1779   0.241   1.224   0.059
  588SOL     OW 1780   2.163   0.079   0.189
  588SOL    HW1 1781   2.241   0.142   0.183
  588SOL    HW2 1782   2.196   2.988   0.213
  589SOL     OW 1783   2.817   0.247   0.470
  589SOL    HW1 1784   2.767   0.293   0.396
  589SOL    HW2 1785   2.901   0.207   0.433
  590SOL     OW 1786   0.081   1.577   0.799
  590SOL    HW1 1787   0.107   1.623   0.714
  590SOL    HW2 1788   0.164   1.554   0.850
  591SOL     OW 1789   2.325   1.145   0.738
  591SOL    HW1 1790   2.252   1.128   0.804
  591SOL    HW2 1791   2.291   1.130   0.646
  592SOL     OW 1792   2.891   0.516   0.021
  592SOL    HW1 1793   2.843   0.600   2.996
  592SOL    HW2 1794   2.948   0.532   0.101
  593SOL     OW 1795   1.938   0.558   1.389
  593SOL    HW1 1796   2.032   0.551   1.356
  593SOL    HW2 1797   1.932   0.630   1.459
  594SOL     OW 1798   2.428   0.219   1.176
  594SOL    HW1 1799   2.468   0.153   1.240
  594SOL    HW2 1800   2.332   0.233   1.198
  595SOL     OW 1801   2.744   0.466   0.635
  595SOL    HW1 1802   2.679   0.524   0.585
  595SOL    HW2 1803   2.744   0.374   0.596
  596SOL     OW 1804   2.862   0.052   0.761
  596SOL    HW1 1805   2.820   0.057   0.671
  596SOL    HW2 1806   2.841   2.963   0.802
  597SOL     OW 1807   2.351   1.398   0.156
  597SOL    HW1 1808   2.280   1.372   0.221
  597SOL    HW2 1809   2.311   1.409   0.065
  598SOL     OW 1810   2.394   0.265   0.325
  598SOL    HW1 1811   2.431   0.205   0.254
  598SOL    HW2 1812   2.369   0.353   0.286
  599SOL     OW 1813   2.779   0.110   1.401
  599SOL    HW1 1814   2.807   0.092   1.307
  599SOL    HW2 1815   2.847   0.169   1.445
  600SOL     OW 1816   2.840   1.108   1.726
  600SOL    HW1 1817   2.743   1.133   1.739
  600SOL    HW2 1818   2.847   1.037   1.656
  601SOL     OW 1819   2.565   1.058   0.377
  601SOL    HW1 1820   2.548   1.051   0.475
  601SOL    HW2 1821   2.652   1.013   0.355
  602SOL     OW 1822   2.276   0.813   1.254
  602SOL    HW1 1823   2.352   0.827   1.317
  602SOL    HW2 1824   2.237   0.722   1.268
  603SOL     OW 1825   2.221   1.106   0.492
  603SOL    HW1 1826   2.219   1.187   0.433
  603SOL    HW2 1827   2.219   1.024   0.435
  604SOL     OW 1828   2.419   0.546   0.865
  604SOL    HW1 1829   2.437   0.602   0.784
  604SOL    HW2 1830   2.483   0.571   0.937
  605SOL     OW 1831   2.218   1.513   1.322
  605SOL    HW1 1832   2.195   1.477   1.231
  605SOL    HW2 1833   2.315   1.535   1.326
  606SOL     OW 1834   2.273   0.746   1.601
  606SOL    HW1 1835   2.335   0.797   1.541
  606SOL    HW2 1836   2.313   0.656   1.620
  607SOL     OW 1837   2.869   0.114   1.760
  607SOL    HW1 1838   2.896   0.197   1.712
  607SOL    HW2 1839   2.906   0.034   1.713
  608SOL     OW 1840   2.363   0.056   1.748
  608SOL    HW1 1841   2.334   2.987   1.681
  608SOL    HW2 1842   2.289   0.122   1.762
  609SOL     OW 1843   2.440   0.872   1.031
  609SOL    HW1 1844   2.480   0.963   1.024
  609SOL    HW2 1845   2.381   0.867   1.112
  610SOL     OW 1846   0.064   0.533   0.274
  610SOL    HW1 1847   0.086   0.445   0.317
  610SOL    HW2 1848   0.030   0.596   0.344
  611SOL     OW 1849   2.163   0.204   1.246
  611SOL    HW1 1850   2.133   0.245   1.332
  611SOL    HW2 1851   2.139   0.107   1.245
  612SOL     OW 1852   2.590   0.633   1.061
  612SOL    HW1 1853   2.667   0.610   1.000
  612SOL    HW2 1854   2.559   0.726   1.041
  613SOL     OW 1855   2.169   0.058   0.640
  613SOL    HW1 1856   2.169   0.156   0.663
  613SOL    HW2 1857   2.151   0.005   0.723
  614SOL     OW 1858   2.866   0.768   0.972
  614SOL    HW1 1859   2.897   0.779   1.066
  614SOL    HW2 1860   2.868   0.671   0.947
  615SOL     OW 1861   2.834   1.566   1.702
  615SOL    HW1 1862   2.824   1.611   1.613
  615SOL    HW2 1863   2.892   1.486   1.692
  616SOL     OW 1864   2.214   0.914   1.805
  616SOL    HW1 1865   2.296   0.938   1.856
  616SOL    HW2 1866   2.238   0.851   1.731
  617SOL     OW 1867   2.908   1.343   0.836
  617SOL    HW1 1868   2.909   1.261   0.779
  617SOL    HW2 1869   2.983   1.403   0.809
  618SOL     OW 1870   2.175   0.811   0.947
  618SOL    HW1 1871   2.272   0.838   0.944
  618SOL    HW2 1872   2.168   0.719   0.986
  619SOL     OW 1873   2.198   0.520   1.011
  619SOL    HW1 1874   2.155   0.430   0.996
  619SOL    HW2 1875   2.276   0.530   0.951
  620SOL     OW 1876   2.967   0.372   1.666
  620SOL    HW1 1877   2.914   0.438   1.719
  620SOL    HW2 1878   0.062   0.402   1.660
  621SOL     OW 1879   1.869   1.319   0.186
  621SOL    HW1 1880   1.775   1.337   0.158
  621SOL    HW2 1881   1.874   1.229   0.230
  622SOL     OW 1882   1.954   1.793   0.935
  622SOL    HW1 1883   1.915   1.710   0.896
  622SOL    HW2 1884   2.048   1.804   0.903
  623SOL     OW 1885   2.363   1.573   0.907
  623SOL    HW1 1886   2.432   1.641   0.931
  623SOL    HW2 1887   2.405   1.501   0.852
  624SOL     OW 1888   2.862   0.799   1.248
  624SOL    HW1 1889   2.911   0.741   1.313
  624SOL    HW2 1890   2.770   0.763   1.235
  625SOL     OW 1891   1.899   0.541   1.117
  625SOL    HW1 1892   1.982   0.522   1.066
  625SOL    HW2 1893   1.921   0.554   1.214
  626SOL     OW 1894   2.052   0.519   1.725
  626SOL    HW1 1895   2.111   0.476   1.656
  626SOL    HW2 1896   1.999   0.592   1.682
  627SOL     OW 1897   2.675   0.572   0.347
  627SOL    HW1 1898   2.684   0.489   0.291
  627SOL    HW2 1899   2.591   0.620   0.322
  628SOL     OW 1900   2.133   1.556   1.743
  628SOL    HW1 1901   2.083   1.624   1.796
  628SOL    HW2 1902   2.109   1.465   1.775
  629SOL     OW 1903   2.550   0.461   1.265
  629SOL    HW1 1904   2.505   0.377   1.236
  629SOL    HW2 1905   2.556   0.524   1.187
  630SOL     OW 1906   2.800   1.688   1.461
  630SOL    HW1 1907   2.767   1.640   1.380
  630SOL    HW2 1908   2.783   1.786   1.451
  631SOL     OW 1909   2.309   0.495   0.205
  631SOL    HW1 1910   2.381   0.564   0.217
  631SOL    HW2 1911   2.222   0.540   0.188
  632SOL     OW 1912   2.008   1.135   1.471
  632SOL    HW1 1913   2.023   1.081   1.553
  632SOL    HW2 1914   2.028   1.080   1.390
  633SOL     OW 1915   1.936   1.271   1.019
  633SOL    HW1 1916   1.943   1.251   1.117
  633SOL    HW2 1917   1.869   1.210   0.978
  634SOL     OW 1918   2.541   1.664   1.724
  634SOL    HW1 1919   2.485   1.747   1.722
  634SOL    HW2 1920   2.606   1.667   1.648
  635SOL     OW 1921   2.763   0.085   0.138
  635SOL    HW1 1922   2.810   0.052   0.057
  635SOL    HW2 1923   2.807   0.047   0.220
  636SOL     OW 1924   1.997   1.792   1.845
  636SOL    HW1 1925   1.942   1.724   1.894
  636SOL    HW2 1926   2.051   1.844   1.911
  637SOL     OW 1927   2.682   1.268   1.427
  637SOL    HW1 1928   2.675   1.314   1.515
  637SOL    HW2 1929   2.605   1.296   1.369
  638SOL     OW 1930   2.531   1.609   0.158
  638SOL    HW1 1931   2.539   1.629   0.061
  638SOL    HW2 1932   2.477   1.525   0.170
  639SOL     OW 1933   2.135   0.347   0.752
  639SOL    HW1 1934   2.043   0.370   0.720
  639SOL    HW2 1935   2.130   0.311   0.845
  640SOL     OW 1936   2.688   1.007   1.375
  640SOL    HW1 1937   2.733   0.995   1.287
  640SOL    HW2 1938   2.690   1.104   1.400
  641SOL     OW 1939   2.788   0.936   0.308
  641SOL    HW1 1940   2.838   0.953   0.223
  641SOL    HW2 1941   2.821   0.851   0.349
  642SOL     OW 1942   2.227   1.296   1.491
  642SOL    HW1 1943   2.222   1.381   1.438
  642SOL    HW2 1944   2.145   1.242   1.474
  643SOL     OW 1945   2.909   1.085   0.722
  643SOL    HW1 1946   2.830   1.039   0.762
  643SOL    HW2 1947   2.941   1.033   0.642
  644SOL     OW 1948   2.877   0.237   0.969
  644SOL    HW1 1949   2.873   0.188   0.882
  644SOL    HW2 1950   2.872   0.172   1.044
  645SOL     OW 1951   2.457   1.486   0.484
  645SOL    HW1 1952   2.504   1.433   0.414
  645SOL    HW2 1953   2.401   1.557   0.441
  646SOL     OW 1954   2.125   1.340   0.296
  646SOL    HW1 1955   2.036   1.342   0.251
  646SOL    HW2 1956   2.120   1.385   0.385
  647SOL     OW 1957   1.973   1.016   1.723
  647SOL    HW1 1958   1.892   0.992   1.777
  647SOL    HW2 1959   2.055   0.979   1.768
  648SOL     OW 1960   2.531   0.207   1.492
  648SOL    HW1 1961   2.616   0.183   1.447
  648SOL    HW2 1962   2.547   0.219   1.590
  649SOL     OW 1963   1.916   0.194   0.327
  649SOL    HW1 1964   1.890   0.242   0.243
  649SOL    HW2 1965   2.005   0.149   0.314
  650SOL     OW 1966   2.479   0.836   1.430
  650SOL    HW1 1967   2.535   0.917   1.416
  650SOL    HW2 1968   2.538   0.755   1.439
  651SOL     OW 1969   2.579   0.564   1.708
  651SOL    HW1 1970   2.610   0.634   1.773
  651SOL    HW2 1971   2.623   0.477   1.730
  652SOL     OW 1972   2.246   1.740   1.563
  652SOL    HW1 1973   2.157   1.783   1.551
  652SOL    HW2 1974   2.235   1.651   1.607
  653SOL     OW 1975   2.457   0.742   0.660
  653SOL    HW1 1976   2.498   0.833   0.650
  653SOL    HW2 1977   2.377   0.735   0.599
  654SOL     OW 1978   2.761   1.378   0.061
  654SOL    HW1 1979   2.685   1.384   0.125
  654SOL    HW2 1980   2.742   1.435   2.981
  655SOL     OW 1981   2.521   1.796   0.951
  655SOL    HW1 1982   2.492   1.888   0.925
  655SOL    HW2 1983   2.619   1.787   0.939
  656SOL     OW 1984   2.718   0.960   0.859
  656SOL    HW1 1985   2.770   0.885   0.900
  656SOL    HW2 1986   2.687   1.022   0.931
  657SOL     OW 1987   2.959   1.018   0.074
  657SOL    HW1 1988   2.921   1.053   2.989
  657SOL    HW2 1989   0.018   0.940   0.055
  658SOL     OW 1990   2.084   1.305   1.853
  658SOL    HW1 1991   2.017   1.236   1.826
  658SOL    HW2 1992   2.076   1.323   1.951
  659SOL     OW 1993   1.945   1.238   0.662
  659SOL    HW1 1994   1.943   1.183   0.746
  659SOL    HW2 1995   2.016   1.203   0.601
  660SOL     OW 1996   2.538   1.401   1.625
  660SOL    HW1 1997   2.457   1.350   1.656
  660SOL    HW2 1998   2.536   1.493   1.664
  661SOL     OW 1999   2.332   0.431   0.545
  661SOL    HW1 2000   2.324   0.370   0.466
  661SOL    HW2 2001   2.264   0.404   0.614
  662SOL     OW 2002   2.186   0.548   1.288
  662SOL    HW1 2003   2.244   0.496   1.350
  662SOL    HW2 2004   2.211   0.526   1.193
  663SOL     OW 2005   2.681   1.584   0.683
  663SOL    HW1 2006   2.693   1.613   0.588
  663SOL    HW2 2007   2.601   1.524   0.690
  664SOL     OW 2008   2.854   0.022   1.151
  664SOL    HW1 2009   2.809   2.950   1.098
  664SOL    HW2 2010   2.950   2.997   1.165
  665SOL     OW 2011   2.628   1.329   0.312
  665SOL    HW1 2012   2.595   1.236   0.327
  665SOL    HW2 2013   2.718   1.340   0.356
  666SOL     OW 2014   2.485   1.563   1.284
  666SOL    HW1 2015   2.484   1.647   1.338
  666SOL    HW2 2016   2.575   1.552   1.242
  667SOL     OW 2017   1.903   1.075   0.304
  667SOL    HW1 2018   2.002   1.072   0.286
  667SOL    HW2 2019   1.871   0.984   0.328
  668SOL     OW 2020   2.734   1.649   0.349
  668SOL    HW1 2021   2.665   1.628   0.280
  668SOL    HW2 2022   2.707   1.731   0.399
  669SOL     OW 2023   2.092   0.623   1.982
  669SOL    HW1 2024   1.999   0.624   2.019
  669SOL    HW2 2025   2.089   0.594   1.886
  670SOL     OW 2026   2.085   0.276   2.873
  670SOL    HW1 2027   2.110   0.243   2.964
  670SOL    HW2 2028   1.994   0.241   2.849
  671SOL     OW 2029   1.866   0.380   2.506
  671SOL    HW1 2030   1.782   0.412   2.549
  671SOL    HW2 2031   1.845   0.303   2.445
  672SOL     OW 2032   2.618   1.148   2.888
  672SOL    HW1 2033   2.551   1.182   2.955
  672SOL    HW2 2034   2.665   1.226   2.847
  673SOL     OW 2035   2.547   1.010   2.515
  673SOL    HW1 2036   2.613   0.989   2.588
  673SOL    HW2 2037   2.470   1.061   2.553
  674SOL     OW 2038   2.205   1.432   2.928
  674SOL    HW1 2039   2.121   1.398   2.885
  674SOL    HW2 2040   2.255   1.489   2.863
  675SOL     OW 2041   2.085   1.711   2.340
  675SOL    HW1 2042   2.108   1.792   2.395
  675SOL    HW2 2043   2.148   1.703   2.264
  676SOL     OW 2044   2.091   1.439   2.396
  676SOL    HW1 2045   2.077   1.538   2.400
  676SOL    HW2 2046   2.025   1.394   2.457
  677SOL     OW 2047   2.115   1.091   2.756
  677SOL    HW1 2048   2.112   0.999   2.794
  677SOL    HW2 2049   2.054   1.151   2.808
  678SOL     OW 2050   2.457   0.978   1.992
  678SOL    HW1 2051   2.493   1.037   1.921
  678SOL    HW2 2052   2.497   1.003   2.080
  679SOL     OW 2053   1.980   0.646   2.427
  679SOL    HW1 2054   1.933   0.559   2.444
  679SOL    HW2 2055   1.972   0.704   2.507
  680SOL     OW 2056   1.883   1.597   1.987
  680SOL    HW1 2057   1.876   1.499   2.008
  680SOL    HW2 2058   1.865   1.649   2.070
  681SOL     OW 2059   2.469   1.378   2.592
  681SOL    HW1 2060   2.421   1.291   2.603
  681SOL    HW2 2061   2.455   1.412   2.499
  682SOL     OW 2062   2.682   0.013   2.364
  682SOL    HW1 2063   2.711   0.108   2.355
  682SOL    HW2 2064   2.582   0.009   2.365
  683SOL     OW 2065   2.458   0.726   2.127
  683SOL    HW1 2066   2.470   0.805   2.066
  683SOL    HW2 2067   2.388   0.747   2.194
  684SOL     OW 2068   2.892   0.707   2.281
  684SOL    HW1 2069   2.926   0.696   2.375
  684SOL    HW2 2070   2.812   0.648   2.268
  685SOL     OW 2071   1.952   0.821   2.636
  685SOL    HW1 2072   2.038   0.807   2.685
  685SOL    HW2 2073   1.904   0.901   2.673
  686SOL     OW 2074   2.736   0.347   2.054
  686SOL    HW1 2075   2.790   0.411   1.999
  686SOL    HW2 2076   2.765   0.253   2.034
  687SOL     OW 2077   2.405   0.195   2.809
  687SOL    HW1 2078   2.378   0.252   2.887
  687SOL    HW2 2079   2.414   0.253   2.728
  688SOL     OW 2080   2.861   1.444   2.333
  688SOL    HW1 2081   2.824   1.523   2.284
  688SOL    HW2 2082   2.869   1.466   2.430
  689SOL     OW 2083   2.216   1.802   2.714
  689SOL    HW1 2084   2.262   1.714   2.728
  689SOL    HW2 2085   2.282   1.876   2.729
  690SOL     OW 2086   2.186   0.951   2.108
  690SOL    HW1 2087   2.272   0.978   2.065
  690SOL    HW2 2088   2.151   0.868   2.065
  691SOL     OW 2089   2.330   1.739   2.183
  691SOL    HW1 2090   2.365   1.798   2.256
  691SOL    HW2 2091   2.404   1.712   2.122
  692SOL     OW 2092   2.124   1.799   0.100
  692SOL    HW1 2093   2.170   1.731   0.157
  692SOL    HW2 2094   2.081   1.754   0.022
  693SOL     OW 2095   2.796   1.698   2.761
  693SOL    HW1 2096   2.866   1.638   2.799
  693SOL    HW2 2097   2.750   1.651   2.685
  694SOL     OW 2098   2.252   0.691   2.342
  694SOL    HW1 2099   2.288   0.598   2.351
  694SOL    HW2 2100   2.154   0.692   2.364
  695SOL     OW 2101   2.484   0.124   1.973
  695SOL    HW1 2102   2.576   0.087   1.981
  695SOL    HW2 2103   2.445   0.100   1.884
  696SOL     OW 2104   2.662   1.403   2.784
  696SOL    HW1 2105   2.754   1.395   2.745
  696SOL    HW2 2106   2.595   1.394   2.710
  697SOL     OW 2107   2.783   0.515   2.756
  697SOL    HW1 2108   2.754   0.494   2.662
  697SOL    HW2 2109   2.818   0.432   2.799
  698SOL     OW 2110   2.402   0.058   2.362
  698SOL    HW1 2111   2.313   0.043   2.404
  698SOL    HW2 2112   2.397   0.137   2.301
  699SOL     OW 2113   2.154   0.036   2.056
  699SOL    HW1 2114   2.197   0.115   2.013
  699SOL    HW2 2115   2.225   2.970   2.083
  700SOL     OW 2116   2.813   0.250   2.327
  700SOL    HW1 2117   2.754   0.289   2.256
  700SOL    HW2 2118   2.896   0.214   2.284
  701SOL     OW 2119   0.082   1.574   2.661
  701SOL    HW1 2120   0.108   1.625   2.580
  701SOL    HW2 2121   0.162   1.556   2.717
  702SOL     OW 2122   2.326   1.144   2.600
  702SOL    HW1 2123   2.253   1.129   2.667
  702SOL    HW2 2124   2.291   1.128   2.508
  703SOL     OW 2125   2.889   0.553   1.875
  703SOL    HW1 2126   2.839   0.637   1.853
  703SOL    HW2 2127   2.944   0.567   1.957
  704SOL     OW 2128   2.744   0.466   2.495
  704SOL    HW1 2129   2.679   0.524   2.445
  704SOL    HW2 2130   2.744   0.374   2.454
  705SOL     OW 2131   2.860   0.051   2.621
  705SOL    HW1 2132   2.818   0.052   2.530
  705SOL    HW2 2133   2.844   2.962   2.665
  706SOL     OW 2134   2.355   1.407   2.028
  706SOL    HW1 2135   2.274   1.378   2.080
  706SOL    HW2 2136   2.334   1.401   1.930
  707SOL     OW 2137   2.395   0.267   2.184
  707SOL    HW1 2138   2.425   0.204   2.112
  707SOL    HW2 2139   2.374   0.356   2.144
  708SOL     OW 2140   2.569   1.056   2.234
  708SOL    HW1 2141   2.552   1.048   2.332
  708SOL    HW2 2142   2.651   1.004   2.210
  709SOL     OW 2143   2.222   1.105   2.354
  709SOL    HW1 2144   2.222   1.186   2.296
  709SOL    HW2 2145   2.220   1.023   2.297
  710SOL     OW 2146   2.418   0.543   2.728
  710SOL    HW1 2147   2.435   0.598   2.646
  710SOL    HW2 2148   2.481   0.573   2.801
  711SOL     OW 2149   2.438   0.869   2.880
  711SOL    HW1 2150   2.485   0.953   2.856
  711SOL    HW2 2151   2.403   0.875   2.973
  712SOL     OW 2152   0.057   0.531   2.136
  712SOL    HW1 2153   0.085   0.447   2.184
  712SOL    HW2 2154   0.024   0.598   2.203
  713SOL     OW 2155   2.594   0.643   2.917
  713SOL    HW1 2156   2.662   0.613   2.849
  713SOL    HW2 2157   2.557   0.731   2.890
  714SOL     OW 2158   2.173   0.059   2.504
  714SOL    HW1 2159   2.165   0.156   2.527
  714SOL    HW2 2160   2.150   0.004   2.585
  715SOL     OW 2161   2.872   0.773   2.829
  715SOL    HW1 2162   2.887   0.774   2.928
  715SOL    HW2 2163   2.864   0.678   2.798
  716SOL     OW 2164   2.909   1.342   2.698
  716SOL    HW1 2165   2.911   1.262   2.638
  716SOL    HW2 2166   2.981   1.406   2.671
  717SOL     OW 2167   2.174   0.810   2.812
  717SOL    HW1 2168   2.270   0.836   2.806
  717SOL    HW2 2169   2.166   0.717   2.846
  718SOL     OW 2170   2.189   0.527   2.868
  718SOL    HW1 2171   2.146   0.437   2.861
  718SOL    HW2 2172   2.270   0.530   2.810
  719SOL     OW 2173   1.865   1.322   2.057
  719SOL    HW1 2174   1.773   1.340   2.024
  719SOL    HW2 2175   1.871   1.228   2.090
  720SOL     OW 2176   1.954   1.797   2.794
  720SOL    HW1 2177   1.915   1.711   2.760
  720SOL    HW2 2178   2.049   1.804   2.765
  721SOL     OW 2179   2.367   1.576   2.765
  721SOL    HW1 2180   2.438   1.643   2.787
  721SOL    HW2 2181   2.407   1.501   2.713
  722SOL     OW 2182   2.852   0.764   0.100
  722SOL    HW1 2183   2.896   0.748   0.188
  722SOL    HW2 2184   2.753   0.769   0.112
  723SOL     OW 2185   2.672   0.567   2.210
  723SOL    HW1 2186   2.678   0.485   2.152
  723SOL    HW2 2187   2.593   0.622   2.183
  724SOL     OW 2188   2.565   0.446   0.094
  724SOL    HW1 2189   2.472   0.409   0.098
  724SOL    HW2 2190   2.566   0.525   0.032
  725SOL     OW 2191   2.331   0.497   2.054
  725SOL    HW1 2192   2.392   0.575   2.070
  725SOL    HW2 2193   2.237   0.530   2.042
  726SOL     OW 2194   1.943   1.267   2.884
  726SOL    HW1 2195   1.934   1.273   2.983
  726SOL    HW2 2196   1.867   1.212   2.848
  727SOL     OW 2197   2.533   1.614   2.016
  727SOL    HW1 2198   2.545   1.627   1.917
  727SOL    HW2 2199   2.480   1.530   2.032
  728SOL     OW 2200   2.133   0.338   2.613
  728SOL    HW1 2201   2.043   0.370   2.583
  728SOL    HW2 2202   2.128   0.309   2.709
  729SOL     OW 2203   2.784   0.918   2.155
  729SOL    HW1 2204   2.836   0.936   2.071
  729SOL    HW2 2205   2.819   0.835   2.198
  730SOL     OW 2206   2.909   1.082   2.585
  730SOL    HW1 2207   2.827   1.037   2.621
  730SOL    HW2 2208   2.940   1.034   2.503
  731SOL     OW 2209   2.878   0.235   2.824
  731SOL    HW1 2210   2.872   0.191   2.734
  731SOL    HW2 2211   2.883   0.164   2.895
  732SOL     OW 2212   2.458   1.486   2.345
  732SOL    HW1 2213   2.504   1.433   2.273
  732SOL    HW2 2214   2.398   1.554   2.303
  733SOL     OW 2215   2.116   1.349   2.148
  733SOL    HW1 2216   2.020   1.345   2.122
  733SOL    HW2 2217   2.124   1.388   2.240
  734SOL     OW 2218   1.940   0.341   1.898
  734SOL    HW1 2219   1.848   0.311   1.872
  734SOL    HW2 2220   1.968   0.418   1.840
  735SOL     OW 2221   1.906   0.200   2.164
  735SOL    HW1 2222   1.918   0.270   2.093
  735SOL    HW2 2223   1.984   0.137   2.162
  736SOL     OW 2224   2.456   0.742   2.523
  736SOL    HW1 2225   2.498   0.832   2.510
  736SOL    HW2 2226   2.377   0.733   2.462
  737SOL     OW 2227   2.729   1.369   1.894
  737SOL    HW1 2228   2.677   1.397   1.975
  737SOL    HW2 2229   2.751   1.451   1.840
  738SOL     OW 2230   2.524   1.798   2.822
  738SOL    HW1 2231   2.496   1.887   2.786
  738SOL    HW2 2232   2.622   1.785   2.805
  739SOL     OW 2233   2.714   0.959   2.721
  739SOL    HW1 2234   2.771   0.887   2.761
  739SOL    HW2 2235   2.687   1.023   2.792
  740SOL     OW 2236   2.932   0.957   1.933
  740SOL    HW1 2237   2.907   1.035   1.876
  740SOL    HW2 2238   0.031   0.955   1.945
  741SOL     OW 2239   1.945   1.238   2.524
  741SOL    HW1 2240   1.940   1.184   2.608
  741SOL    HW2 2241   2.017   1.201   2.465
  742SOL     OW 2242   2.327   0.429   2.404
  742SOL    HW1 2243   2.322   0.367   2.325
  742SOL    HW2 2244   2.261   0.400   2.473
  743SOL     OW 2245   2.681   1.585   2.542
  743SOL    HW1 2246   2.693   1.613   2.447
  743SOL    HW2 2247   2.600   1.526   2.549
  744SOL     OW 2248   2.634   1.332   2.171
  744SOL    HW1 2249   2.597   1.239   2.179
  744SOL    HW2 2250   2.720   1.338   2.222
  745SOL     OW 2251   1.906   1.074   2.166
  745SOL    HW1 2252   2.004   1.069   2.148
  745SOL    HW2 2253   1.872   0.983   2.191
  746SOL     OW 2254   2.734   1.646   2.211
  746SOL    HW1 2255   2.665   1.627   2.141
  746SOL    HW2 2256   2.710   1.731   2.259
  747SOL     OW 2257   2.089   2.497   0.112
  747SOL    HW1 2258   1.995   2.480   0.142
  747SOL    HW2 2259   2.104   2.452   0.024
  748SOL     OW 2260   2.085   2.140   0.992
  748SOL    HW1 2261   2.119   2.111   1.081
  748SOL    HW2 2262   1.992   2.106   0.979
  749SOL     OW 2263   1.870   2.244   0.637
  749SOL    HW1 2264   1.785   2.270   0.682
  749SOL    HW2 2265   1.856   2.160   0.585
  750SOL     OW 2266   2.608   0.002   1.020
  750SOL    HW1 2267   2.530   0.036   1.074
  750SOL    HW2 2268   2.653   0.079   0.975
  751SOL     OW 2269   2.715   2.645   1.816
  751SOL    HW1 2270   2.715   2.707   1.894
  751SOL    HW2 2271   2.747   2.695   1.735
  752SOL     OW 2272   2.520   2.847   0.701
  752SOL    HW1 2273   2.616   2.854   0.730
  752SOL    HW2 2274   2.485   2.938   0.679
  753SOL     OW 2275   2.306   2.260   1.494
  753SOL    HW1 2276   2.387   2.201   1.495
  753SOL    HW2 2277   2.224   2.203   1.503
  754SOL     OW 2278   2.103   0.301   0.486
  754SOL    HW1 2279   2.070   0.393   0.508
  754SOL    HW2 2280   2.040   0.233   0.525
  755SOL     OW 2281   2.108   2.948   0.883
  755SOL    HW1 2282   2.122   2.858   0.923
  755SOL    HW2 2283   2.060   0.007   0.948
  756SOL     OW 2284   2.477   2.829   0.145
  756SOL    HW1 2285   2.462   2.922   0.111
  756SOL    HW2 2286   2.534   2.833   0.228
  757SOL     OW 2287   1.976   2.511   0.562
  757SOL    HW1 2288   1.946   2.417   0.579
  757SOL    HW2 2289   1.969   2.564   0.646
  758SOL     OW 2290   1.981   2.604   1.586
  758SOL    HW1 2291   2.077   2.611   1.612
  758SOL    HW2 2292   1.937   2.693   1.597
  759SOL     OW 2293   2.517   0.241   0.682
  759SOL    HW1 2294   2.459   0.173   0.726
  759SOL    HW2 2295   2.461   0.299   0.622
  760SOL     OW 2296   2.672   1.865   0.502
  760SOL    HW1 2297   2.716   1.954   0.491
  760SOL    HW2 2298   2.574   1.877   0.515
  761SOL     OW 2299   2.058   2.840   1.256
  761SOL    HW1 2300   2.144   2.789   1.250
  761SOL    HW2 2301   1.982   2.779   1.237
  762SOL     OW 2302   2.190   2.114   1.807
  762SOL    HW1 2303   2.246   2.196   1.817
  762SOL    HW2 2304   2.097   2.132   1.840
  763SOL     OW 2305   2.456   2.583   0.268
  763SOL    HW1 2306   2.470   2.664   0.211
  763SOL    HW2 2307   2.387   2.604   0.337
  764SOL     OW 2308   2.650   2.484   1.455
  764SOL    HW1 2309   2.627   2.461   1.549
  764SOL    HW2 2310   2.611   2.416   1.393
  765SOL     OW 2311   2.830   2.749   1.577
  765SOL    HW1 2312   2.866   2.660   1.550
  765SOL    HW2 2313   2.774   2.786   1.504
  766SOL     OW 2314   2.846   2.244   1.256
  766SOL    HW1 2315   2.771   2.297   1.293
  766SOL    HW2 2316   2.832   2.227   1.159
  767SOL     OW 2317   2.891   2.576   0.414
  767SOL    HW1 2318   2.932   2.564   0.504
  767SOL    HW2 2319   2.813   2.514   0.404
  768SOL     OW 2320   1.948   2.682   0.777
  768SOL    HW1 2321   2.037   2.668   0.820
  768SOL    HW2 2322   1.907   2.767   0.812
  769SOL     OW 2323   2.788   2.197   0.216
  769SOL    HW1 2324   2.784   2.269   0.147
  769SOL    HW2 2325   2.755   2.111   0.177
  770SOL     OW 2326   2.407   2.048   0.893
  770SOL    HW1 2327   2.412   2.069   0.991
  770SOL    HW2 2328   2.414   2.134   0.841
  771SOL     OW 2329   2.062   2.148   1.500
  771SOL    HW1 2330   1.978   2.201   1.488
  771SOL    HW2 2331   2.049   2.082   1.574
  772SOL     OW 2332   2.247   2.555   0.478
  772SOL    HW1 2333   2.280   2.460   0.482
  772SOL    HW2 2334   2.150   2.558   0.501
  773SOL     OW 2335   2.486   1.984   0.115
  773SOL    HW1 2336   2.583   1.962   0.121
  773SOL    HW2 2337   2.447   1.941   0.034
  774SOL     OW 2338   2.635   2.139   1.755
  774SOL    HW1 2339   2.706   2.070   1.769
  774SOL    HW2 2340   2.567   2.133   1.828
  775SOL     OW 2341   2.785   2.367   0.902
  775SOL    HW1 2342   2.756   2.357   0.807
  775SOL    HW2 2343   2.827   2.282   0.933
  776SOL     OW 2344   2.406   1.923   0.506
  776SOL    HW1 2345   2.324   1.924   0.563
  776SOL    HW2 2346   2.407   2.004   0.448
  777SOL     OW 2347   2.805   2.100   0.468
  777SOL    HW1 2348   2.763   2.149   0.392
  777SOL    HW2 2349   2.898   2.074   0.443
  778SOL     OW 2350   2.882   2.386   0.029
  778SOL    HW1 2351   2.843   2.472   2.998
  778SOL    HW2 2352   2.947   2.403   0.103
  779SOL     OW 2353   1.938   2.420   1.389
  779SOL    HW1 2354   2.032   2.413   1.355
  779SOL    HW2 2355   1.933   2.491   1.459
  780SOL     OW 2356   2.424   2.086   1.162
  780SOL    HW1 2357   2.467   2.002   1.196
  780SOL    HW2 2358   2.329   2.089   1.193
  781SOL     OW 2359   2.741   2.320   0.636
  781SOL    HW1 2360   2.684   2.385   0.585
  781SOL    HW2 2361   2.747   2.234   0.585
  782SOL     OW 2362   2.860   1.921   0.755
  782SOL    HW1 2363   2.808   1.905   0.672
  782SOL    HW2 2364   2.854   1.840   0.814
  783SOL     OW 2365   2.385   2.123   0.325
  783SOL    HW1 2366   2.421   2.067   0.251
  783SOL    HW2 2367   2.369   2.216   0.291
  784SOL     OW 2368   2.761   1.950   1.394
  784SOL    HW1 2369   2.783   1.931   1.299
  784SOL    HW2 2370   2.838   1.998   1.437
  785SOL     OW 2371   2.276   2.676   1.255
  785SOL    HW1 2372   2.352   2.687   1.318
  785SOL    HW2 2373   2.236   2.585   1.265
  786SOL     OW 2374   2.420   2.404   0.863
  786SOL    HW1 2375   2.436   2.462   0.783
  786SOL    HW2 2376   2.483   2.430   0.936
  787SOL     OW 2377   2.275   2.606   1.602
  787SOL    HW1 2378   2.337   2.655   1.541
  787SOL    HW2 2379   2.312   2.515   1.622
  788SOL     OW 2380   2.859   1.985   1.769
  788SOL    HW1 2381   2.895   2.051   1.703
  788SOL    HW2 2382   2.902   1.896   1.753
  789SOL     OW 2383   2.359   1.910   1.744
  789SOL    HW1 2384   2.322   1.848   1.674
  789SOL    HW2 2385   2.294   1.983   1.762
  790SOL     OW 2386   2.448   2.729   1.037
  790SOL    HW1 2387   2.470   2.824   1.013
  790SOL    HW2 2388   2.381   2.727   1.110
  791SOL     OW 2389   0.063   2.399   0.275
  791SOL    HW1 2390   0.083   2.312   0.321
  791SOL    HW2 2391   0.029   2.465   0.341
  792SOL     OW 2392   2.164   2.065   1.243
  792SOL    HW1 2393   2.130   2.103   1.329
  792SOL    HW2 2394   2.147   1.967   1.240
  793SOL     OW 2395   2.590   2.493   1.061
  793SOL    HW1 2396   2.667   2.472   1.000
  793SOL    HW2 2397   2.557   2.586   1.042
  794SOL     OW 2398   2.161   1.928   0.625
  794SOL    HW1 2399   2.147   2.024   0.649
  794SOL    HW2 2400   2.170   1.873   0.708
  795SOL     OW 2401   2.859   2.627   0.980
  795SOL    HW1 2402   2.905   2.631   1.069
  795SOL    HW2 2403   2.864   2.533   0.944
  796SOL     OW 2404   2.221   2.785   1.798
  796SOL    HW1 2405   2.290   2.787   1.870
  796SOL    HW2 2406   2.242   2.713   1.732
  797SOL     OW 2407   2.176   2.674   0.950
  797SOL    HW1 2408   2.273   2.697   0.938
  797SOL    HW2 2409   2.168   2.581   0.986
  798SOL     OW 2410   2.196   2.381   1.009
  798SOL    HW1 2411   2.156   2.291   0.995
  798SOL    HW2 2412   2.277   2.391   0.950
  799SOL     OW 2413   2.972   2.242   1.666
  799SOL    HW1 2414   2.916   2.304   1.722
  799SOL    HW2 2415   0.067   2.273   1.667
  800SOL     OW 2416   2.982   2.061   1.474
  800SOL    HW1 2417   2.971   2.135   1.541
  800SOL    HW2 2418   2.997   2.100   1.384
  801SOL     OW 2419   2.857   2.669   1.257
  801SOL    HW1 2420   2.912   2.607   1.312
  801SOL    HW2 2421   2.772   2.624   1.230
  802SOL     OW 2422   1.898   2.408   1.116
  802SOL    HW1 2423   1.981   2.382   1.066
  802SOL    HW2 2424   1.920   2.415   1.214
  803SOL     OW 2425   2.053   2.381   1.723
  803SOL    HW1 2426   2.111   2.338   1.654
  803SOL    HW2 2427   1.997   2.452   1.681
  804SOL     OW 2428   2.672   2.429   0.352
  804SOL    HW1 2429   2.680   2.353   0.287
  804SOL    HW2 2430   2.594   2.486   0.327
  805SOL     OW 2431   2.550   2.321   1.265
  805SOL    HW1 2432   2.504   2.237   1.235
  805SOL    HW2 2433   2.556   2.384   1.188
  806SOL     OW 2434   2.304   2.358   0.212
  806SOL    HW1 2435   2.380   2.422   0.218
  806SOL    HW2 2436   2.220   2.408   0.188
  807SOL     OW 2437   2.016   2.994   1.473
  807SOL    HW1 2438   2.025   2.938   1.556
  807SOL    HW2 2439   2.034   2.938   1.393
  808SOL     OW 2440   2.761   1.939   0.128
  808SOL    HW1 2441   2.815   1.918   0.047
  808SOL    HW2 2442   2.806   1.899   0.209
  809SOL     OW 2443   2.127   2.180   0.720
  809SOL    HW1 2444   2.041   2.220   0.688
  809SOL    HW2 2445   2.124   2.168   0.819
  810SOL     OW 2446   2.673   2.867   1.373
  810SOL    HW1 2447   2.730   2.837   1.296
  810SOL    HW2 2448   2.700   2.959   1.401
  811SOL     OW 2449   2.752   2.779   0.292
  811SOL    HW1 2450   2.829   2.829   0.252
  811SOL    HW2 2451   2.786   2.711   0.357
  812SOL     OW 2452   2.879   2.100   0.967
  812SOL    HW1 2453   2.874   2.053   0.879
  812SOL    HW2 2454   2.869   2.034   1.041
  813SOL     OW 2455   1.973   2.865   1.713
  813SOL    HW1 2456   1.893   2.856   1.772
  813SOL    HW2 2457   2.055   2.843   1.765
  814SOL     OW 2458   2.532   2.061   1.498
  814SOL    HW1 2459   2.616   2.041   1.448
  814SOL    HW2 2460   2.554   2.085   1.592
  815SOL     OW 2461   1.938   2.021   0.337
  815SOL    HW1 2462   1.902   2.078   0.263
  815SOL    HW2 2463   2.030   1.991   0.315
  816SOL     OW 2464   2.476   2.695   1.432
  816SOL    HW1 2465   2.535   2.775   1.416
  816SOL    HW2 2466   2.533   2.613   1.441
  817SOL     OW 2467   2.579   2.425   1.706
  817SOL    HW1 2468   2.609   2.496   1.770
  817SOL    HW2 2469   2.621   2.338   1.731
  818SOL     OW 2470   2.454   2.591   0.657
  818SOL    HW1 2471   2.489   2.684   0.665
  818SOL    HW2 2472   2.376   2.589   0.595
  819SOL     OW 2473   2.747   2.834   0.862
  819SOL    HW1 2474   2.780   2.748   0.900
  819SOL    HW2 2475   2.683   2.876   0.926
  820SOL     OW 2476   2.293   2.292   0.527
  820SOL    HW1 2477   2.323   2.220   0.463
  820SOL    HW2 2478   2.244   2.250   0.603
  821SOL     OW 2479   2.187   2.411   1.287
  821SOL    HW1 2480   2.243   2.357   1.350
  821SOL    HW2 2481   2.210   2.387   1.193
  822SOL     OW 2482   2.865   1.883   1.149
  822SOL    HW1 2483   2.805   1.814   1.108
  822SOL    HW2 2484   2.960   1.860   1.131
  823SOL     OW 2485   1.877   2.918   0.305
  823SOL    HW1 2486   1.967   2.927   0.263
  823SOL    HW2 2487   1.866   2.825   0.339
  824SOL     OW 2488   2.093   2.471   1.982
  824SOL    HW1 2489   2.002   2.492   2.018
  824SOL    HW2 2490   2.086   2.452   1.884
  825SOL     OW 2491   2.088   2.139   2.848
  825SOL    HW1 2492   2.121   2.114   2.939
  825SOL    HW2 2493   1.994   2.106   2.836
  826SOL     OW 2494   1.870   2.244   2.497
  826SOL    HW1 2495   1.786   2.272   2.542
  826SOL    HW2 2496   1.855   2.158   2.448
  827SOL     OW 2497   2.641   0.013   2.881
  827SOL    HW1 2498   2.558   0.022   2.936
  827SOL    HW2 2499   2.652   0.094   2.824
  828SOL     OW 2500   2.521   2.845   2.556
  828SOL    HW1 2501   2.613   2.850   2.595
  828SOL    HW2 2502   2.484   2.937   2.544
  829SOL     OW 2503   2.095   0.296   2.343
  829SOL    HW1 2504   2.068   0.390   2.367
  829SOL    HW2 2505   2.038   0.231   2.393
  830SOL     OW 2506   2.111   2.951   2.749
  830SOL    HW1 2507   2.122   2.858   2.785
  830SOL    HW2 2508   2.057   0.006   2.812
  831SOL     OW 2509   2.469   2.825   1.991
  831SOL    HW1 2510   2.464   2.909   1.937
  831SOL    HW2 2511   2.526   2.841   2.072
  832SOL     OW 2512   1.977   2.511   2.425
  832SOL    HW1 2513   1.946   2.417   2.441
  832SOL    HW2 2514   1.970   2.564   2.509
  833SOL     OW 2515   2.509   0.246   2.556
  833SOL    HW1 2516   2.457   0.163   2.576
  833SOL    HW2 2517   2.461   0.298   2.485
  834SOL     OW 2518   2.671   1.864   2.363
  834SOL    HW1 2519   2.716   1.953   2.353
  834SOL    HW2 2520   2.573   1.878   2.378
  835SOL     OW 2521   2.062   2.810   0.110
  835SOL    HW1 2522   2.139   2.747   0.106
  835SOL    HW2 2523   1.976   2.760   0.095
  836SOL     OW 2524   2.459   2.584   2.128
  836SOL    HW1 2525   2.471   2.661   2.066
  836SOL    HW2 2526   2.389   2.606   2.196
  837SOL     OW 2527   2.896   2.575   2.277
  837SOL    HW1 2528   2.931   2.565   2.371
  837SOL    HW2 2529   2.814   2.519   2.266
  838SOL     OW 2530   1.948   2.683   2.639
  838SOL    HW1 2531   2.036   2.667   2.683
  838SOL    HW2 2532   1.906   2.766   2.676
  839SOL     OW 2533   2.745   2.206   2.061
  839SOL    HW1 2534   2.787   2.273   2.000
  839SOL    HW2 2535   2.752   2.115   2.020
  840SOL     OW 2536   2.412   2.050   2.761
  840SOL    HW1 2537   2.387   2.075   2.855
  840SOL    HW2 2538   2.418   2.132   2.705
  841SOL     OW 2539   2.248   2.554   2.340
  841SOL    HW1 2540   2.280   2.460   2.347
  841SOL    HW2 2541   2.150   2.558   2.363
  842SOL     OW 2542   2.488   1.988   1.968
  842SOL    HW1 2543   2.570   1.933   1.986
  842SOL    HW2 2544   2.441   1.953   1.887
  843SOL     OW 2545   2.785   2.374   2.756
  843SOL    HW1 2546   2.757   2.355   2.662
  843SOL    HW2 2547   2.818   2.290   2.799
  844SOL     OW 2548   2.407   1.925   2.368
  844SOL    HW1 2549   2.323   1.924   2.424
  844SOL    HW2 2550   2.407   2.006   2.310
  845SOL     OW 2551   2.156   1.907   2.045
  845SOL    HW1 2552   2.209   1.981   2.005
  845SOL    HW2 2553   2.217   1.839   2.086
  846SOL     OW 2554   2.802   2.102   2.325
  846SOL    HW1 2555   2.757   2.150   2.250
  846SOL    HW2 2556   2.895   2.077   2.297
  847SOL     OW 2557   2.889   2.415   1.875
  847SOL    HW1 2558   2.839   2.499   1.852
  847SOL    HW2 2559   2.942   2.430   1.958
  848SOL     OW 2560   2.740   2.319   2.496
  848SOL    HW1 2561   2.683   2.384   2.447
  848SOL    HW2 2562   2.746   2.234   2.445
  849SOL     OW 2563   2.858   1.922   2.614
  849SOL    HW1 2564   2.805   1.901   2.531
  849SOL    HW2 2565   2.856   1.843   2.675
  850SOL     OW 2566   2.392   2.125   2.184
  850SOL    HW1 2567   2.426   2.067   2.110
  850SOL    HW2 2568   2.373   2.217   2.149
  851SOL     OW 2569   2.421   2.400   2.724
  851SOL    HW1 2570   2.434   2.459   2.645
  851SOL    HW2 2571   2.479   2.431   2.800
  852SOL     OW 2572   2.434   2.728   2.882
  852SOL    HW1 2573   2.486   2.810   2.856
  852SOL    HW2 2574   2.408   2.735   2.978
  853SOL     OW 2575   0.056   2.391   2.138
  853SOL    HW1 2576   0.092   2.312   2.188
  853SOL    HW2 2577   0.021   2.458   2.203
  854SOL     OW 2578   2.163   2.068   0.091
  854SOL    HW1 2579   2.176   2.110   0.180
  854SOL    HW2 2580   2.150   1.970   0.101
  855SOL     OW 2581   2.591   2.500   2.915
  855SOL    HW1 2582   2.663   2.474   2.851
  855SOL    HW2 2583   2.557   2.591   2.892
  856SOL     OW 2584   2.162   1.929   2.486
  856SOL    HW1 2585   2.146   2.024   2.511
  856SOL    HW2 2586   2.167   1.873   2.569
  857SOL     OW 2587   2.868   2.631   2.826
  857SOL    HW1 2588   2.896   2.640   2.922
  857SOL    HW2 2589   2.866   2.534   2.801
  858SOL     OW 2590   2.173   2.672   2.811
  858SOL    HW1 2591   2.270   2.698   2.808
  858SOL    HW2 2592   2.165   2.578   2.844
  859SOL     OW 2593   2.187   2.390   2.864
  859SOL    HW1 2594   2.147   2.299   2.859
  859SOL    HW2 2595   2.271   2.393   2.810
  860SOL     OW 2596   2.877   2.647   0.093
  860SOL    HW1 2597   2.917   2.632   0.183
  860SOL    HW2 2598   2.778   2.657   0.102
  861SOL     OW 2599   2.675   2.429   2.211
  861SOL    HW1 2600   2.678   2.348   2.153
  861SOL    HW2 2601   2.597   2.486   2.185
  862SOL     OW 2602   2.564   2.312   0.104
  862SOL    HW1 2603   2.482   2.256   0.090
  862SOL    HW2 2604   2.566   2.385   0.036
  863SOL     OW 2605   2.332   2.357   2.054
  863SOL    HW1 2606   2.392   2.435   2.073
  863SOL    HW2 2607   2.238   2.389   2.041
  864SOL     OW 2608   0.169   2.703   2.170
  864SOL    HW1 2609   0.094   2.656   2.216
  864SOL    HW2 2610   0.189   2.658   2.083
  865SOL     OW 2611   2.127   2.181   2.580
  865SOL    HW1 2612   2.041   2.220   2.549
  865SOL    HW2 2613   2.124   2.169   2.680
  866SOL     OW 2614   2.765   2.762   2.122
  866SOL    HW1 2615   2.840   2.813   2.080
  866SOL    HW2 2616   2.801   2.700   2.192
  867SOL     OW 2617   2.878   2.099   2.823
  867SOL    HW1 2618   2.873   2.057   2.732
  867SOL    HW2 2619   2.891   2.027   2.892
  868SOL     OW 2620   1.939   2.199   1.895
  868SOL    HW1 2621   1.847   2.174   1.865
  868SOL    HW2 2622   1.971   2.279   1.844
  869SOL     OW 2623   1.933   2.021   2.176
  869SOL    HW1 2624   1.914   2.105   2.126
  869SOL    HW2 2625   2.022   1.985   2.149
  870SOL     OW 2626   2.455   2.590   2.518
  870SOL    HW1 2627   2.490   2.683   2.525
  870SOL    HW2 2628   2.376   2.589   2.458
  871SOL     OW 2629   2.738   2.830   2.718
  871SOL    HW1 2630   2.783   2.749   2.756
  871SOL    HW2 2631   2.700   2.885   2.792
  872SOL     OW 2632   2.943   2.828   1.901
  872SOL    HW1 2633   2.914   2.924   1.902
  872SOL    HW2 2634   0.018   2.815   1.965
  873SOL     OW 2635   2.294   2.291   2.386
  873SOL    HW1 2636   2.322   2.218   2.324
  873SOL    HW2 2637   2.244   2.252   2.463
  874SOL     OW 2638   1.888   2.917   2.168
  874SOL    HW1 2639   1.980   2.932   2.132
  874SOL    HW2 2640   1.878   2.822   2.196
   3.00000   3.00000   3.00000
