neopentane in water
 2648
    1G008   H12    1   1.621   1.584   1.343
    1G008    C5    2   1.613   1.495   1.405
    1G008   H10    3   1.705   1.486   1.461
    1G008   H11    4   1.606   1.408   1.341
    1G008    C2    5   1.495   1.503   1.499
    1G008    C1    6   1.505   1.626   1.586
    1G008    H1    7   1.597   1.623   1.645
    1G008    H2    8   1.509   1.717   1.526
    1G008    H3    9   1.420   1.634   1.653
    1G008    C3   10   1.491   1.381   1.586
    1G008    H4   11   1.400   1.376   1.645
    1G008    H5   12   1.499   1.290   1.527
    1G008    H6   13   1.575   1.380   1.655
    1G008    C4   14   1.370   1.513   1.413
    1G008    H7   15   1.370   1.604   1.355
    1G008    H8   16   1.364   1.429   1.344
    1G008    H9   17   1.280   1.511   1.475
    2SOL     OW   18   0.234   0.657   0.104
    2SOL    HW1   19   0.166   0.609   0.160
    2SOL    HW2   20   0.254   0.603   0.023
    3SOL     OW   21   0.206   0.271   1.001
    3SOL    HW1   22   0.246   0.248   1.089
    3SOL    HW2   23   0.107   0.254   1.004
    4SOL     OW   24   0.009   0.389   0.659
    4SOL    HW1   25   2.923   0.431   0.689
    4SOL    HW2   26   2.989   0.314   0.596
    5SOL     OW   27   0.567   1.282   1.173
    5SOL    HW1   28   0.474   1.276   1.137
    5SOL    HW2   29   0.582   1.374   1.211
    6SOL     OW   30   1.554   1.509   0.706
    6SOL    HW1   31   1.509   1.495   0.794
    6SOL    HW2   32   1.485   1.519   0.634
    7SOL     OW   33   1.131   0.702   0.702
    7SOL    HW1   34   1.184   0.785   0.686
    7SOL    HW2   35   1.080   0.711   0.787
    8SOL     OW   36   1.763   0.595   0.231
    8SOL    HW1   37   1.747   0.583   0.133
    8SOL    HW2   38   1.724   0.517   0.281
    9SOL     OW   39   0.755   1.145   1.032
    9SOL    HW1   40   0.684   1.176   1.095
    9SOL    HW2   41   0.797   1.224   0.987
   10SOL     OW   42   0.859   0.783   1.818
   10SOL    HW1   43   0.851   0.854   1.888
   10SOL    HW2   44   0.886   0.825   1.731
   11SOL     OW   45   0.684   1.007   0.654
   11SOL    HW1   46   0.754   0.991   0.724
   11SOL    HW2   47   0.608   1.058   0.693
   12SOL     OW   48   0.705   1.155   1.810
   12SOL    HW1   49   0.759   1.235   1.836
   12SOL    HW2   50   0.617   1.184   1.773
   13SOL     OW   51   0.327   1.434   1.069
   13SOL    HW1   52   0.260   1.378   1.020
   13SOL    HW2   53   0.386   1.481   1.003
   14SOL     OW   54   0.450   0.401   1.493
   14SOL    HW1   55   0.529   0.340   1.495
   14SOL    HW2   56   0.366   0.347   1.505
   15SOL     OW   57   1.612   0.457   0.736
   15SOL    HW1   58   1.532   0.481   0.681
   15SOL    HW2   59   1.633   0.533   0.799
   16SOL     OW   60   0.220   1.716   0.480
   16SOL    HW1   61   0.241   1.801   0.530
   16SOL    HW2   62   0.290   1.702   0.410
   17SOL     OW   63   1.133   1.337   1.696
   17SOL    HW1   64   1.178   1.338   1.786
   17SOL    HW2   65   1.077   1.255   1.687
   18SOL     OW   66   0.248   1.452   0.532
   18SOL    HW1   67   0.213   1.545   0.526
   18SOL    HW2   68   0.186   1.397   0.588
   19SOL     OW   69   0.258   1.083   0.897
   19SOL    HW1   70   0.257   0.990   0.932
   19SOL    HW2   71   0.194   1.140   0.949
   20SOL     OW   72   0.615   1.792   1.433
   20SOL    HW1   73   0.528   1.769   1.477
   20SOL    HW2   74   0.640   1.886   1.457
   21SOL     OW   75   0.591   0.975   0.151
   21SOL    HW1   76   0.601   1.047   0.083
   21SOL    HW2   77   0.634   1.003   0.237
   22SOL     OW   78   1.550   0.144   1.467
   22SOL    HW1   79   1.585   0.216   1.406
   22SOL    HW2   80   1.623   0.115   1.529
   23SOL     OW   81   0.120   0.631   0.572
   23SOL    HW1   82   0.080   0.546   0.607
   23SOL    HW2   83   0.117   0.701   0.643
   24SOL     OW   84   1.845   1.761   0.336
   24SOL    HW1   85   1.900   1.722   0.410
   24SOL    HW2   86   1.869   1.857   0.323
   25SOL     OW   87   0.018   1.597   0.114
   25SOL    HW1   88   0.021   1.498   0.131
   25SOL    HW2   89   2.992   1.644   0.198
   26SOL     OW   90   1.691   0.922   0.639
   26SOL    HW1   91   1.779   0.876   0.624
   26SOL    HW2   92   1.667   0.975   0.558
   27SOL     OW   93   1.648   1.109   0.433
   27SOL    HW1   94   1.736   1.112   0.385
   27SOL    HW2   95   1.650   1.172   0.511
   28SOL     OW   96   0.127   0.747   1.592
   28SOL    HW1   97   0.226   0.752   1.597
   28SOL    HW2   98   0.089   0.839   1.589
   29SOL     OW   99   0.609   1.382   0.734
   29SOL    HW1  100   0.562   1.295   0.746
   29SOL    HW2  101   0.595   1.415   0.641
   30SOL     OW  102   1.268   1.208   1.432
   30SOL    HW1  103   1.316   1.149   1.368
   30SOL    HW2  104   1.331   1.236   1.505
   31SOL     OW  105   0.818   0.014   0.508
   31SOL    HW1  106   0.852   0.107   0.495
   31SOL    HW2  107   0.718   0.014   0.499
   32SOL     OW  108   0.190   0.959   1.272
   32SOL    HW1  109   0.278   0.917   1.252
   32SOL    HW2  110   0.118   0.914   1.219
   33SOL     OW  111   1.507   1.007   0.212
   33SOL    HW1  112   1.438   0.943   0.246
   33SOL    HW2  113   1.564   1.038   0.288
   34SOL     OW  114   1.191   1.806   1.621
   34SOL    HW1  115   1.201   1.870   1.544
   34SOL    HW2  116   1.178   1.713   1.585
   35SOL     OW  117   0.330   0.253   1.798
   35SOL    HW1  118   0.389   0.330   1.819
   35SOL    HW2  119   0.242   0.263   1.845
   36SOL     OW  120   1.460   1.414   0.965
   36SOL    HW1  121   1.390   1.420   1.036
   36SOL    HW2  122   1.454   1.324   0.921
   37SOL     OW  123   1.660   1.730   0.577
   37SOL    HW1  124   1.635   1.707   0.483
   37SOL    HW2  125   1.633   1.656   0.638
   38SOL     OW  126   0.592   0.721   0.268
   38SOL    HW1  127   0.604   0.805   0.215
   38SOL    HW2  128   0.525   0.736   0.341
   39SOL     OW  129   1.285   0.340   0.930
   39SOL    HW1  130   1.188   0.315   0.935
   39SOL    HW2  131   1.336   0.291   1.001
   40SOL     OW  132   1.586   1.667   0.309
   40SOL    HW1  133   1.679   1.703   0.305
   40SOL    HW2  134   1.555   1.645   0.216
   41SOL     OW  135   0.793   0.614   1.456
   41SOL    HW1  136   0.765   0.594   1.550
   41SOL    HW2  137   0.749   0.550   1.393
   42SOL     OW  138   1.396   0.476   1.678
   42SOL    HW1  139   1.392   0.523   1.766
   42SOL    HW2  140   1.457   0.397   1.686
   43SOL     OW  141   0.959   0.887   1.578
   43SOL    HW1  142   1.016   0.812   1.545
   43SOL    HW2  143   0.907   0.927   1.502
   44SOL     OW  144   0.996   0.418   1.227
   44SOL    HW1  145   0.920   0.438   1.289
   44SOL    HW2  146   0.963   0.365   1.149
   45SOL     OW  147   1.046   0.705   0.425
   45SOL    HW1  148   1.067   0.697   0.523
   45SOL    HW2  149   0.964   0.652   0.405
   46SOL     OW  150   0.104   0.819   0.763
   46SOL    HW1  151   0.186   0.812   0.820
   46SOL    HW2  152   0.036   0.875   0.810
   47SOL     OW  153   0.140   1.840   1.575
   47SOL    HW1  154   0.128   1.814   1.671
   47SOL    HW2  155   0.053   1.868   1.536
   48SOL     OW  156   0.925   0.338   0.221
   48SOL    HW1  157   0.938   0.403   0.146
   48SOL    HW2  158   0.880   0.256   0.186
   49SOL     OW  159   1.711   0.580   1.827
   49SOL    HW1  160   1.673   0.660   1.782
   49SOL    HW2  161   1.735   0.512   1.757
   50SOL     OW  162   1.375   1.142   0.539
   50SOL    HW1  163   1.458   1.124   0.487
   50SOL    HW2  164   1.319   1.209   0.490
   51SOL     OW  165   0.515   0.198   0.915
   51SOL    HW1  166   0.537   0.210   1.012
   51SOL    HW2  167   0.549   0.276   0.863
   52SOL     OW  168   1.006   1.448   0.472
   52SOL    HW1  169   0.963   1.521   0.420
   52SOL    HW2  170   0.991   1.464   0.570
   53SOL     OW  171   0.356   1.806   0.855
   53SOL    HW1  172   0.402   1.718   0.867
   53SOL    HW2  173   0.420   1.880   0.872
   54SOL     OW  174   1.797   1.062   0.866
   54SOL    HW1  175   1.743   1.044   0.784
   54SOL    HW2  176   1.737   1.064   0.946
   55SOL     OW  177   0.322   0.949   0.231
   55SOL    HW1  178   0.419   0.960   0.208
   55SOL    HW2  179   0.291   0.858   0.203
   56SOL     OW  180   1.475   0.740   0.727
   56SOL    HW1  181   1.461   0.690   0.812
   56SOL    HW2  182   1.555   0.800   0.736
   57SOL     OW  183   0.463   1.258   1.732
   57SOL    HW1  184   0.435   1.267   1.636
   57SOL    HW2  185   0.382   1.265   1.791
   58SOL     OW  186   1.110   1.774   0.225
   58SOL    HW1  187   1.047   1.727   0.286
   58SOL    HW2  188   1.145   1.709   0.157
   59SOL     OW  189   0.201   0.298   1.498
   59SOL    HW1  190   0.115   0.346   1.484
   59SOL    HW2  191   0.186   0.219   1.557
   60SOL     OW  192   1.624   1.363   0.084
   60SOL    HW1  193   1.599   1.459   0.077
   60SOL    HW2  194   1.542   1.306   0.078
   61SOL     OW  195   0.468   1.725   0.332
   61SOL    HW1  196   0.497   1.797   0.395
   61SOL    HW2  197   0.536   1.712   0.260
   62SOL     OW  198   1.409   0.107   0.433
   62SOL    HW1  199   1.389   0.079   0.339
   62SOL    HW2  200   1.507   0.128   0.440
   63SOL     OW  201   0.264   1.798   1.232
   63SOL    HW1  202   0.305   1.725   1.286
   63SOL    HW2  203   0.226   1.760   1.148
   64SOL     OW  204   0.936   1.699   0.899
   64SOL    HW1  205   1.017   1.647   0.926
   64SOL    HW2  206   0.887   1.650   0.827
   65SOL     OW  207   0.390   0.689   0.475
   65SOL    HW1  208   0.426   0.597   0.490
   65SOL    HW2  209   0.294   0.692   0.501
   66SOL     OW  210   1.538   0.249   1.737
   66SOL    HW1  211   1.540   0.258   1.837
   66SOL    HW2  212   1.481   0.170   1.712
   67SOL     OW  213   0.610   0.108   0.105
   67SOL    HW1  214   0.709   0.109   0.120
   67SOL    HW2  215   0.590   0.139   0.012
   68SOL     OW  216   0.766   0.270   1.750
   68SOL    HW1  217   0.844   0.209   1.763
   68SOL    HW2  218   0.716   0.278   1.836
   69SOL     OW  219   0.881   1.518   1.191
   69SOL    HW1  220   0.859   1.482   1.101
   69SOL    HW2  221   0.949   1.460   1.235
   70SOL     OW  222   1.346   0.589   1.434
   70SOL    HW1  223   1.373   0.552   1.522
   70SOL    HW2  224   1.377   0.683   1.425
   71SOL     OW  225   0.814   1.398   0.933
   71SOL    HW1  226   0.904   1.388   0.889
   71SOL    HW2  227   0.742   1.394   0.864
   72SOL     OW  228   0.926   0.509   0.901
   72SOL    HW1  229   0.902   0.503   0.805
   72SOL    HW2  230   0.962   0.421   0.933
   73SOL     OW  231   0.538   0.048   0.496
   73SOL    HW1  232   0.450   0.039   0.542
   73SOL    HW2  233   0.537   0.130   0.439
   74SOL     OW  234   1.411   1.207   0.052
   74SOL    HW1  235   1.437   1.128   0.108
   74SOL    HW2  236   1.318   1.236   0.075
   75SOL     OW  237   0.300   0.080   0.197
   75SOL    HW1  238   0.379   0.141   0.192
   75SOL    HW2  239   0.332   2.986   0.207
   76SOL     OW  240   0.947   0.252   0.474
   76SOL    HW1  241   0.916   0.291   0.388
   76SOL    HW2  242   1.046   0.259   0.481
   77SOL     OW  243   1.081   0.678   1.459
   77SOL    HW1  244   1.002   0.617   1.466
   77SOL    HW2  245   1.164   0.624   1.452
   78SOL     OW  246   1.228   1.570   0.795
   78SOL    HW1  247   1.237   1.639   0.723
   78SOL    HW2  248   1.302   1.581   0.861
   79SOL     OW  249   0.465   1.146   0.738
   79SOL    HW1  250   0.392   1.128   0.804
   79SOL    HW2  251   0.430   1.134   0.645
   80SOL     OW  252   1.269   1.795   0.603
   80SOL    HW1  253   1.318   1.857   0.542
   80SOL    HW2  254   1.201   1.846   0.655
   81SOL     OW  255   1.040   0.501   0.032
   81SOL    HW1  256   0.997   0.589   0.015
   81SOL    HW2  257   1.113   0.511   0.100
   82SOL     OW  258   0.083   0.565   1.391
   82SOL    HW1  259   0.175   0.558   1.351
   82SOL    HW2  260   0.084   0.632   1.465
   83SOL     OW  261   0.578   0.214   1.178
   83SOL    HW1  262   0.620   0.161   1.252
   83SOL    HW2  263   0.480   0.226   1.198
   84SOL     OW  264   0.876   0.469   0.638
   84SOL    HW1  265   0.820   0.524   0.575
   84SOL    HW2  266   0.888   0.377   0.600
   85SOL     OW  267   0.997   0.054   0.764
   85SOL    HW1  268   0.960   0.066   0.672
   85SOL    HW2  269   0.976   2.962   0.797
   86SOL     OW  270   1.438   1.165   0.857
   86SOL    HW1  271   1.366   1.096   0.862
   86SOL    HW2  272   1.465   1.180   0.762
   87SOL     OW  273   1.470   0.600   0.982
   87SOL    HW1  274   1.415   0.516   0.985
   87SOL    HW2  275   1.534   0.600   1.059
   88SOL     OW  276   1.846   0.818   0.382
   88SOL    HW1  277   1.903   0.761   0.441
   88SOL    HW2  278   1.817   0.765   0.302
   89SOL     OW  279   0.487   1.405   0.155
   89SOL    HW1  280   0.420   1.375   0.222
   89SOL    HW2  281   0.444   1.414   0.065
   90SOL     OW  282   1.669   1.267   0.651
   90SOL    HW1  283   1.768   1.268   0.660
   90SOL    HW2  284   1.632   1.358   0.670
   91SOL     OW  285   1.411   0.577   0.101
   91SOL    HW1  286   1.336   0.568   0.166
   91SOL    HW2  287   1.465   0.493   0.101
   92SOL     OW  288   0.529   0.263   0.324
   92SOL    HW1  289   0.570   0.206   0.253
   92SOL    HW2  290   0.503   0.352   0.285
   93SOL     OW  291   1.772   1.213   1.577
   93SOL    HW1  292   1.868   1.189   1.564
   93SOL    HW2  293   1.765   1.307   1.610
   94SOL     OW  294   1.058   1.347   1.328
   94SOL    HW1  295   0.976   1.322   1.379
   94SOL    HW2  296   1.138   1.310   1.374
   95SOL     OW  297   1.124   1.196   1.106
   95SOL    HW1  298   1.086   1.248   1.183
   95SOL    HW2  299   1.089   1.233   1.020
   96SOL     OW  300   1.632   1.097   1.077
   96SOL    HW1  301   1.636   1.166   1.150
   96SOL    HW2  302   1.548   1.108   1.025
   97SOL     OW  303   0.902   0.111   1.388
   97SOL    HW1  304   0.939   0.087   1.298
   97SOL    HW2  305   0.969   0.166   1.438
   98SOL     OW  306   0.980   1.111   1.723
   98SOL    HW1  307   0.884   1.130   1.743
   98SOL    HW2  308   0.986   1.031   1.663
   99SOL     OW  309   0.705   1.060   0.379
   99SOL    HW1  310   0.687   1.050   0.477
   99SOL    HW2  311   0.789   1.012   0.356
  100SOL     OW  312   0.420   0.811   1.250
  100SOL    HW1  313   0.492   0.826   1.318
  100SOL    HW2  314   0.379   0.721   1.264
  101SOL     OW  315   1.271   0.389   1.261
  101SOL    HW1  316   1.304   0.462   1.321
  101SOL    HW2  317   1.173   0.400   1.245
  102SOL     OW  318   0.069   1.570   1.309
  102SOL    HW1  319   0.022   1.656   1.332
  102SOL    HW2  320   0.161   1.572   1.347
  103SOL     OW  321   0.362   1.111   0.489
  103SOL    HW1  322   0.350   1.189   0.429
  103SOL    HW2  323   0.357   1.026   0.435
  104SOL     OW  324   0.554   0.546   0.863
  104SOL    HW1  325   0.572   0.602   0.782
  104SOL    HW2  326   0.619   0.569   0.935
  105SOL     OW  327   1.247   1.349   0.397
  105SOL    HW1  328   1.307   1.424   0.424
  105SOL    HW2  329   1.153   1.370   0.426
  106SOL     OW  330   1.583   0.627   0.477
  106SOL    HW1  331   1.536   0.683   0.545
  106SOL    HW2  332   1.632   0.686   0.413
  107SOL     OW  333   0.353   1.525   1.321
  107SOL    HW1  334   0.328   1.484   1.233
  107SOL    HW2  335   0.452   1.539   1.325
  108SOL     OW  336   0.410   0.741   1.600
  108SOL    HW1  337   0.468   0.796   1.540
  108SOL    HW2  338   0.457   0.655   1.622
  109SOL     OW  339   1.599   0.779   1.677
  109SOL    HW1  340   1.507   0.817   1.675
  109SOL    HW2  341   1.655   0.824   1.607
  110SOL     OW  342   1.004   0.110   1.762
  110SOL    HW1  343   1.047   0.198   1.738
  110SOL    HW2  344   1.026   0.042   1.692
  111SOL     OW  345   0.501   0.053   1.750
  111SOL    HW1  346   0.474   2.987   1.680
  111SOL    HW2  347   0.429   0.121   1.761
  112SOL     OW  348   0.583   0.870   1.033
  112SOL    HW1  349   0.616   0.965   1.024
  112SOL    HW2  350   0.522   0.864   1.112
  113SOL     OW  351   1.362   0.858   1.033
  113SOL    HW1  352   1.275   0.858   0.985
  113SOL    HW2  353   1.401   0.766   1.033
  114SOL     OW  354   1.204   0.530   0.273
  114SOL    HW1  355   1.215   0.445   0.324
  114SOL    HW2  356   1.160   0.598   0.332
  115SOL     OW  357   0.323   0.208   1.246
  115SOL    HW1  358   0.289   0.256   1.327
  115SOL    HW2  359   0.275   0.121   1.236
  116SOL     OW  360   0.038   1.305   1.281
  116SOL    HW1  361   0.072   1.253   1.359
  116SOL    HW2  362   0.047   1.403   1.299
  117SOL     OW  363   0.727   0.632   1.060
  117SOL    HW1  364   0.801   0.609   0.997
  117SOL    HW2  365   0.694   0.724   1.039
  118SOL     OW  366   1.734   0.956   1.852
  118SOL    HW1  367   1.686   0.903   1.782
  118SOL    HW2  368   1.673   0.973   1.929
  119SOL     OW  369   0.309   0.070   0.643
  119SOL    HW1  370   0.306   0.163   0.680
  119SOL    HW2  371   0.284   0.005   0.715
  120SOL     OW  372   1.618   0.376   0.368
  120SOL    HW1  373   1.649   0.304   0.431
  120SOL    HW2  374   1.588   0.456   0.420
  121SOL     OW  375   1.025   0.757   0.963
  121SOL    HW1  376   1.027   0.780   1.060
  121SOL    HW2  377   0.996   0.662   0.951
  122SOL     OW  378   0.993   1.567   1.708
  122SOL    HW1  379   0.966   1.609   1.621
  122SOL    HW2  380   1.036   1.478   1.689
  123SOL     OW  381   1.879   1.511   1.616
  123SOL    HW1  382   1.886   1.538   1.519
  123SOL    HW2  383   1.965   1.534   1.662
  124SOL     OW  384   0.355   0.914   1.806
  124SOL    HW1  385   0.436   0.937   1.859
  124SOL    HW2  386   0.380   0.849   1.734
  125SOL     OW  387   1.503   0.298   0.128
  125SOL    HW1  388   1.459   0.209   0.141
  125SOL    HW2  389   1.562   0.318   0.206
  126SOL     OW  390   1.294   0.824   0.036
  126SOL    HW1  391   1.336   0.734   0.052
  126SOL    HW2  392   1.322   0.857   2.946
  127SOL     OW  393   1.067   1.336   0.850
  127SOL    HW1  394   1.066   1.256   0.790
  127SOL    HW2  395   1.130   1.405   0.814
  128SOL     OW  396   0.313   0.808   0.946
  128SOL    HW1  397   0.410   0.833   0.943
  128SOL    HW2  398   0.303   0.718   0.987
  129SOL     OW  399   0.335   0.513   1.015
  129SOL    HW1  400   0.291   0.426   0.994
  129SOL    HW2  401   0.413   0.527   0.954
  130SOL     OW  402   1.141   0.385   1.700
  130SOL    HW1  403   1.092   0.440   1.767
  130SOL    HW2  404   1.234   0.420   1.689
  131SOL     OW  405   1.100   0.255   1.475
  131SOL    HW1  406   1.121   0.309   1.557
  131SOL    HW2  407   1.184   0.239   1.424
  132SOL     OW  408   0.008   1.313   0.171
  132SOL    HW1  409   2.913   1.334   0.147
  132SOL    HW2  410   0.011   1.234   0.232
  133SOL     OW  411   0.101   1.803   0.965
  133SOL    HW1  412   0.053   1.736   0.909
  133SOL    HW2  413   0.192   1.821   0.925
  134SOL     OW  414   0.498   1.573   0.903
  134SOL    HW1  415   0.567   1.639   0.932
  134SOL    HW2  416   0.541   1.503   0.847
  135SOL     OW  417   0.990   0.796   1.229
  135SOL    HW1  418   1.043   0.768   1.309
  135SOL    HW2  419   0.897   0.760   1.237
  136SOL     OW  420   0.046   0.557   1.107
  136SOL    HW1  421   0.138   0.531   1.077
  136SOL    HW2  422   0.038   0.543   1.206
  137SOL     OW  423   0.195   0.518   1.721
  137SOL    HW1  424   0.268   0.487   1.660
  137SOL    HW2  425   0.152   0.600   1.682
  138SOL     OW  426   1.378   0.942   1.666
  138SOL    HW1  427   1.399   1.038   1.684
  138SOL    HW2  428   1.378   0.927   1.567
  139SOL     OW  429   0.819   0.578   0.347
  139SOL    HW1  430   0.826   0.494   0.293
  139SOL    HW2  431   0.734   0.625   0.323
  140SOL     OW  432   1.645   0.604   1.190
  140SOL    HW1  433   1.624   0.543   1.266
  140SOL    HW2  434   1.735   0.581   1.152
  141SOL     OW  435   0.283   1.559   1.749
  141SOL    HW1  436   0.223   1.625   1.794
  141SOL    HW2  437   0.253   1.466   1.769
  142SOL     OW  438   0.691   0.459   1.263
  142SOL    HW1  439   0.645   0.375   1.233
  142SOL    HW2  440   0.696   0.523   1.187
  143SOL     OW  441   0.934   1.684   1.467
  143SOL    HW1  442   0.906   1.641   1.381
  143SOL    HW2  443   0.927   1.783   1.458
  144SOL     OW  444   0.446   0.495   0.203
  144SOL    HW1  445   0.518   0.563   0.219
  144SOL    HW2  446   0.358   0.543   0.191
  145SOL     OW  447   0.160   1.140   1.465
  145SOL    HW1  448   0.146   1.093   1.553
  145SOL    HW2  449   0.171   1.072   1.393
  146SOL     OW  450   1.337   1.053   1.217
  146SOL    HW1  451   1.359   0.982   1.151
  146SOL    HW2  452   1.255   1.103   1.187
  147SOL     OW  453   1.306   0.850   0.309
  147SOL    HW1  454   1.226   0.824   0.363
  147SOL    HW2  455   1.285   0.839   0.212
  148SOL     OW  456   1.762   1.750   1.141
  148SOL    HW1  457   1.831   1.777   1.073
  148SOL    HW2  458   1.739   1.654   1.129
  149SOL     OW  459   1.242   1.737   1.116
  149SOL    HW1  460   1.329   1.751   1.069
  149SOL    HW2  461   1.239   1.646   1.155
  150SOL     OW  462   0.092   1.247   1.027
  150SOL    HW1  463   0.077   1.261   1.125
  150SOL    HW2  464   0.007   1.263   0.977
  151SOL     OW  465   0.682   1.666   1.724
  151SOL    HW1  466   0.621   1.746   1.727
  151SOL    HW2  467   0.743   1.674   1.645
  152SOL     OW  468   0.881   0.084   0.144
  152SOL    HW1  469   0.935   0.066   0.062
  152SOL    HW2  470   0.915   0.028   0.219
  153SOL     OW  471   1.714   0.140   0.503
  153SOL    HW1  472   1.788   0.138   0.436
  153SOL    HW2  473   1.722   0.061   0.564
  154SOL     OW  474   1.393   1.570   0.483
  154SOL    HW1  475   1.458   1.599   0.412
  154SOL    HW2  476   1.341   1.650   0.514
  155SOL     OW  477   0.127   1.794   1.845
  155SOL    HW1  478   0.079   1.721   1.894
  155SOL    HW2  479   0.187   1.843   1.908
  156SOL     OW  480   1.280   0.924   0.666
  156SOL    HW1  481   1.354   0.858   0.678
  156SOL    HW2  482   1.313   1.003   0.615
  157SOL     OW  483   0.817   1.275   1.432
  157SOL    HW1  484   0.792   1.314   1.520
  157SOL    HW2  485   0.744   1.290   1.366
  158SOL     OW  486   0.671   1.607   0.159
  158SOL    HW1  487   0.676   1.631   0.062
  158SOL    HW2  488   0.614   1.526   0.171
  159SOL     OW  489   1.848   0.158   0.964
  159SOL    HW1  490   1.857   0.070   0.917
  159SOL    HW2  491   1.762   0.201   0.938
  160SOL     OW  492   0.268   0.334   0.742
  160SOL    HW1  493   0.176   0.367   0.722
  160SOL    HW2  494   0.272   0.302   0.836
  161SOL     OW  495   1.206   1.604   0.035
  161SOL    HW1  496   1.199   1.510   0.070
  161SOL    HW2  497   1.151   1.612   2.952
  162SOL     OW  498   0.824   1.009   1.373
  162SOL    HW1  499   0.872   0.997   1.286
  162SOL    HW2  500   0.826   1.105   1.400
  163SOL     OW  501   0.922   0.928   0.304
  163SOL    HW1  502   0.987   0.964   0.238
  163SOL    HW2  503   0.965   0.854   0.357
  164SOL     OW  504   1.487   1.602   0.050
  164SOL    HW1  505   1.388   1.613   0.057
  164SOL    HW2  506   1.519   1.636   2.962
  165SOL     OW  507   0.372   1.302   1.489
  165SOL    HW1  508   0.359   1.386   1.436
  165SOL    HW2  509   0.292   1.243   1.476
  166SOL     OW  510   1.048   1.104   0.708
  166SOL    HW1  511   0.974   1.053   0.752
  166SOL    HW2  512   1.114   1.040   0.668
  167SOL     OW  513   1.018   0.241   0.965
  167SOL    HW1  514   1.010   0.191   0.879
  167SOL    HW2  515   1.020   0.176   1.042
  168SOL     OW  516   0.601   1.490   0.484
  168SOL    HW1  517   0.644   1.434   0.412
  168SOL    HW2  518   0.535   1.553   0.442
  169SOL     OW  519   1.723   0.391   1.379
  169SOL    HW1  520   1.795   0.461   1.377
  169SOL    HW2  521   1.747   0.316   1.317
  170SOL     OW  522   0.263   1.337   0.296
  170SOL    HW1  523   0.171   1.340   0.255
  170SOL    HW2  524   0.261   1.384   0.384
  171SOL     OW  525   0.125   1.016   1.711
  171SOL    HW1  526   0.043   0.977   1.754
  171SOL    HW2  527   0.207   0.977   1.755
  172SOL     OW  528   0.667   0.210   1.494
  172SOL    HW1  529   0.751   0.180   1.448
  172SOL    HW2  530   0.686   0.226   1.591
  173SOL     OW  531   0.070   0.320   0.052
  173SOL    HW1  532   2.973   0.328   0.032
  173SOL    HW2  533   0.117   0.402   0.020
  174SOL     OW  534   1.431   0.862   1.402
  174SOL    HW1  535   1.377   0.919   1.340
  174SOL    HW2  536   1.526   0.861   1.372
  175SOL     OW  537   0.037   0.187   0.289
  175SOL    HW1  538   0.040   0.249   0.211
  175SOL    HW2  539   0.127   0.145   0.303
  176SOL     OW  540   1.184   1.350   0.126
  176SOL    HW1  541   1.086   1.334   0.111
  176SOL    HW2  542   1.205   1.339   0.223
  177SOL     OW  543   0.619   0.833   1.431
  177SOL    HW1  544   0.675   0.914   1.417
  177SOL    HW2  545   0.679   0.753   1.442
  178SOL     OW  546   1.490   1.769   0.979
  178SOL    HW1  547   1.509   1.829   0.901
  178SOL    HW2  548   1.572   1.760   1.035
  179SOL     OW  549   0.717   0.565   1.709
  179SOL    HW1  550   0.754   0.636   1.768
  179SOL    HW2  551   0.759   0.477   1.732
  180SOL     OW  552   0.387   1.737   1.563
  180SOL    HW1  553   0.298   1.781   1.550
  180SOL    HW2  554   0.374   1.651   1.613
  181SOL     OW  555   1.673   0.880   1.255
  181SOL    HW1  556   1.664   0.788   1.219
  181SOL    HW2  557   1.663   0.947   1.181
  182SOL     OW  558   1.228   0.316   0.456
  182SOL    HW1  559   1.291   0.238   0.451
  182SOL    HW2  560   1.249   0.371   0.536
  183SOL     OW  561   0.593   0.741   0.662
  183SOL    HW1  562   0.634   0.832   0.653
  183SOL    HW2  563   0.515   0.734   0.599
  184SOL     OW  564   1.762   0.352   1.645
  184SOL    HW1  565   1.745   0.376   1.550
  184SOL    HW2  566   1.679   0.315   1.685
  185SOL     OW  567   1.743   0.936   1.513
  185SOL    HW1  568   1.748   1.033   1.536
  185SOL    HW2  569   1.729   0.925   1.415
  186SOL     OW  570   0.905   1.387   0.061
  186SOL    HW1  571   0.831   1.382   0.128
  186SOL    HW2  572   0.869   1.418   2.973
  187SOL     OW  573   0.659   1.794   0.949
  187SOL    HW1  574   0.633   1.887   0.923
  187SOL    HW2  575   0.758   1.784   0.938
  188SOL     OW  576   0.867   0.965   0.858
  188SOL    HW1  577   0.919   0.890   0.898
  188SOL    HW2  578   0.829   1.022   0.931
  189SOL     OW  579   1.100   1.021   0.097
  189SOL    HW1  580   1.059   1.059   0.014
  189SOL    HW2  581   1.168   0.953   0.072
  190SOL     OW  582   1.857   1.558   0.845
  190SOL    HW1  583   1.780   1.548   0.783
  190SOL    HW2  584   1.851   1.490   0.918
  191SOL     OW  585   0.223   1.304   1.853
  191SOL    HW1  586   0.174   1.221   1.825
  191SOL    HW2  587   0.214   1.315   1.952
  192SOL     OW  588   0.128   1.250   0.661
  192SOL    HW1  589   0.079   1.185   0.720
  192SOL    HW2  590   0.179   1.199   0.592
  193SOL     OW  591   0.679   1.402   1.629
  193SOL    HW1  592   0.597   1.351   1.655
  193SOL    HW2  593   0.674   1.495   1.666
  194SOL     OW  594   1.792   0.175   1.233
  194SOL    HW1  595   1.841   0.101   1.279
  194SOL    HW2  596   1.822   0.180   1.137
  195SOL     OW  597   0.460   0.431   0.545
  195SOL    HW1  598   0.457   0.365   0.469
  195SOL    HW2  599   0.403   0.398   0.620
  196SOL     OW  600   1.704   1.490   1.096
  196SOL    HW1  601   1.619   1.456   1.057
  196SOL    HW2  602   1.732   1.430   1.171
  197SOL     OW  603   0.332   0.551   1.288
  197SOL    HW1  604   0.390   0.498   1.349
  197SOL    HW2  605   0.351   0.526   1.193
  198SOL     OW  606   0.825   1.579   0.680
  198SOL    HW1  607   0.824   1.625   0.592
  198SOL    HW2  608   0.743   1.521   0.688
  199SOL     OW  609   1.427   0.218   1.127
  199SOL    HW1  610   1.453   0.138   1.182
  199SOL    HW2  611   1.375   0.282   1.183
  200SOL     OW  612   1.010   0.029   1.150
  200SOL    HW1  613   0.928   2.992   1.106
  200SOL    HW2  614   1.086   2.966   1.137
  201SOL     OW  615   0.766   1.327   0.313
  201SOL    HW1  616   0.731   1.235   0.329
  201SOL    HW2  617   0.856   1.336   0.355
  202SOL     OW  618   0.625   1.561   1.285
  202SOL    HW1  619   0.623   1.646   1.338
  202SOL    HW2  620   0.715   1.549   1.243
  203SOL     OW  621   1.355   0.055   0.169
  203SOL    HW1  622   1.418   2.983   0.140
  203SOL    HW2  623   1.261   0.024   0.156
  204SOL     OW  624   1.296   0.461   0.684
  204SOL    HW1  625   1.239   0.543   0.689
  204SOL    HW2  626   1.295   0.415   0.773
  205SOL     OW  627   1.604   0.233   0.887
  205SOL    HW1  628   1.522   0.225   0.944
  205SOL    HW2  629   1.596   0.312   0.827
  206SOL     OW  630   0.069   1.090   0.341
  206SOL    HW1  631   0.152   1.050   0.301
  206SOL    HW2  632   2.996   1.021   0.339
  207SOL     OW  633   0.879   1.654   0.346
  207SOL    HW1  634   0.808   1.627   0.281
  207SOL    HW2  635   0.848   1.732   0.400
  208SOL     OW  636   0.238   0.644   1.973
  208SOL    HW1  637   0.167   0.606   2.033
  208SOL    HW2  638   0.229   0.605   1.882
  209SOL     OW  639   0.234   0.250   2.850
  209SOL    HW1  640   0.253   0.235   2.947
  209SOL    HW2  641   0.135   0.240   2.833
  210SOL     OW  642   0.008   0.388   2.522
  210SOL    HW1  643   2.921   0.428   2.550
  210SOL    HW2  644   2.992   0.313   2.459
  211SOL     OW  645   1.555   1.509   2.567
  211SOL    HW1  646   1.509   1.491   2.654
  211SOL    HW2  647   1.486   1.519   2.495
  212SOL     OW  648   1.133   0.701   2.564
  212SOL    HW1  649   1.186   0.784   2.546
  212SOL    HW2  650   1.081   0.713   2.649
  213SOL     OW  651   1.762   0.606   2.092
  213SOL    HW1  652   1.744   0.600   1.993
  213SOL    HW2  653   1.729   0.524   2.137
  214SOL     OW  654   0.752   1.147   2.891
  214SOL    HW1  655   0.681   1.185   2.952
  214SOL    HW2  656   0.803   1.221   2.849
  215SOL     OW  657   0.684   1.008   2.513
  215SOL    HW1  658   0.754   0.991   2.583
  215SOL    HW2  659   0.608   1.059   2.554
  216SOL     OW  660   0.331   1.452   2.930
  216SOL    HW1  661   0.273   1.384   2.886
  216SOL    HW2  662   0.391   1.494   2.862
  217SOL     OW  663   1.615   0.457   2.594
  217SOL    HW1  664   1.536   0.478   2.537
  217SOL    HW2  665   1.621   0.523   2.669
  218SOL     OW  666   0.222   1.712   2.347
  218SOL    HW1  667   0.242   1.799   2.393
  218SOL    HW2  668   0.281   1.703   2.266
  219SOL     OW  669   0.249   1.447   2.389
  219SOL    HW1  670   0.219   1.543   2.387
  219SOL    HW2  671   0.187   1.394   2.447
  220SOL     OW  672   0.240   1.085   2.751
  220SOL    HW1  673   0.258   0.996   2.794
  220SOL    HW2  674   0.191   1.143   2.816
  221SOL     OW  675   0.589   0.982   1.995
  221SOL    HW1  676   0.631   1.035   1.921
  221SOL    HW2  677   0.631   1.007   2.082
  222SOL     OW  678   0.125   0.627   2.436
  222SOL    HW1  679   0.081   0.544   2.470
  222SOL    HW2  680   0.120   0.699   2.506
  223SOL     OW  681   1.842   1.762   2.200
  223SOL    HW1  682   1.901   1.728   2.273
  223SOL    HW2  683   1.867   1.856   2.177
  224SOL     OW  684   0.027   1.596   1.997
  224SOL    HW1  685   0.021   1.497   2.006
  224SOL    HW2  686   2.977   1.640   2.071
  225SOL     OW  687   1.690   0.920   2.499
  225SOL    HW1  688   1.779   0.876   2.485
  225SOL    HW2  689   1.667   0.974   2.418
  226SOL     OW  690   1.646   1.109   2.294
  226SOL    HW1  691   1.733   1.114   2.244
  226SOL    HW2  692   1.648   1.172   2.371
  227SOL     OW  693   0.607   1.380   2.593
  227SOL    HW1  694   0.559   1.293   2.605
  227SOL    HW2  695   0.594   1.413   2.499
  228SOL     OW  696   0.819   0.012   2.367
  228SOL    HW1  697   0.854   0.104   2.351
  228SOL    HW2  698   0.719   0.013   2.360
  229SOL     OW  699   1.534   0.992   2.060
  229SOL    HW1  700   1.459   0.930   2.085
  229SOL    HW2  701   1.574   1.031   2.143
  230SOL     OW  702   1.434   1.422   2.801
  230SOL    HW1  703   1.417   1.429   2.899
  230SOL    HW2  704   1.442   1.326   2.775
  231SOL     OW  705   1.658   1.731   2.440
  231SOL    HW1  706   1.635   1.707   2.346
  231SOL    HW2  707   1.633   1.657   2.501
  232SOL     OW  708   0.597   0.724   2.127
  232SOL    HW1  709   0.608   0.805   2.069
  232SOL    HW2  710   0.528   0.743   2.197
  233SOL     OW  711   1.293   0.335   2.806
  233SOL    HW1  712   1.195   0.322   2.798
  233SOL    HW2  713   1.324   0.299   2.895
  234SOL     OW  714   1.585   1.668   2.172
  234SOL    HW1  715   1.678   1.704   2.170
  234SOL    HW2  716   1.554   1.649   2.079
  235SOL     OW  717   1.046   0.699   2.290
  235SOL    HW1  718   1.066   0.693   2.388
  235SOL    HW2  719   0.962   0.649   2.270
  236SOL     OW  720   0.105   0.817   2.626
  236SOL    HW1  721   0.188   0.812   2.682
  236SOL    HW2  722   0.041   0.882   2.667
  237SOL     OW  723   0.872   0.356   2.051
  237SOL    HW1  724   0.933   0.416   2.000
  237SOL    HW2  725   0.897   0.260   2.034
  238SOL     OW  726   1.375   1.144   2.402
  238SOL    HW1  727   1.457   1.123   2.349
  238SOL    HW2  728   1.319   1.210   2.351
  239SOL     OW  729   0.553   0.199   2.827
  239SOL    HW1  730   0.507   0.269   2.881
  239SOL    HW2  731   0.573   0.234   2.736
  240SOL     OW  732   1.005   1.445   2.334
  240SOL    HW1  733   0.964   1.521   2.284
  240SOL    HW2  734   0.996   1.461   2.432
  241SOL     OW  735   0.355   1.801   2.714
  241SOL    HW1  736   0.402   1.715   2.729
  241SOL    HW2  737   0.417   1.877   2.736
  242SOL     OW  738   1.803   1.061   2.720
  242SOL    HW1  739   1.745   1.042   2.641
  242SOL    HW2  740   1.748   1.063   2.803
  243SOL     OW  741   0.316   0.948   2.106
  243SOL    HW1  742   0.404   0.979   2.068
  243SOL    HW2  743   0.293   0.859   2.066
  244SOL     OW  744   1.474   0.745   2.588
  244SOL    HW1  745   1.468   0.686   2.669
  244SOL    HW2  746   1.558   0.799   2.593
  245SOL     OW  747   1.120   1.774   2.092
  245SOL    HW1  748   1.045   1.733   2.144
  245SOL    HW2  749   1.145   1.714   2.016
  246SOL     OW  750   1.626   1.376   1.950
  246SOL    HW1  751   1.585   1.466   1.940
  246SOL    HW2  752   1.560   1.306   1.923
  247SOL     OW  753   0.468   1.739   2.181
  247SOL    HW1  754   0.504   1.798   2.253
  247SOL    HW2  755   0.542   1.708   2.122
  248SOL     OW  756   1.409   0.110   2.293
  248SOL    HW1  757   1.390   0.076   2.201
  248SOL    HW2  758   1.507   0.130   2.302
  249SOL     OW  759   0.264   1.799   0.098
  249SOL    HW1  760   0.306   1.729   0.156
  249SOL    HW2  761   0.204   1.755   0.031
  250SOL     OW  762   0.941   1.692   2.757
  250SOL    HW1  763   1.027   1.640   2.764
  250SOL    HW2  764   0.883   1.650   2.687
  251SOL     OW  765   0.391   0.690   2.339
  251SOL    HW1  766   0.428   0.598   2.352
  251SOL    HW2  767   0.294   0.691   2.363
  252SOL     OW  768   0.624   0.122   1.974
  252SOL    HW1  769   0.717   0.084   1.978
  252SOL    HW2  770   0.584   0.101   1.885
  253SOL     OW  771   0.807   1.398   2.787
  253SOL    HW1  772   0.898   1.390   2.748
  253SOL    HW2  773   0.739   1.391   2.714
  254SOL     OW  774   0.920   0.517   2.758
  254SOL    HW1  775   0.900   0.499   2.662
  254SOL    HW2  776   0.954   0.433   2.801
  255SOL     OW  777   0.542   0.059   2.365
  255SOL    HW1  778   0.451   0.042   2.404
  255SOL    HW2  779   0.536   0.134   2.299
  256SOL     OW  780   1.428   1.191   1.898
  256SOL    HW1  781   1.464   1.116   1.953
  256SOL    HW2  782   1.339   1.220   1.934
  257SOL     OW  783   0.292   0.032   2.051
  257SOL    HW1  784   0.340   0.114   2.018
  257SOL    HW2  785   0.358   2.968   2.089
  258SOL     OW  786   0.941   0.252   2.326
  258SOL    HW1  787   0.904   0.300   2.246
  258SOL    HW2  788   1.040   0.264   2.328
  259SOL     OW  789   1.220   1.583   2.670
  259SOL    HW1  790   1.243   1.643   2.594
  259SOL    HW2  791   1.303   1.560   2.720
  260SOL     OW  792   0.461   1.145   2.601
  260SOL    HW1  793   0.387   1.129   2.667
  260SOL    HW2  794   0.427   1.130   2.508
  261SOL     OW  795   1.271   1.795   2.465
  261SOL    HW1  796   1.318   1.857   2.403
  261SOL    HW2  797   1.202   1.846   2.517
  262SOL     OW  798   1.022   0.549   1.885
  262SOL    HW1  799   0.980   0.637   1.862
  262SOL    HW2  800   1.092   0.563   1.955
  263SOL     OW  801   0.874   0.467   2.497
  263SOL    HW1  802   0.821   0.522   2.432
  263SOL    HW2  803   0.888   0.376   2.459
  264SOL     OW  804   0.997   0.049   2.623
  264SOL    HW1  805   0.961   0.060   2.530
  264SOL    HW2  806   0.977   2.956   2.656
  265SOL     OW  807   1.440   1.161   2.713
  265SOL    HW1  808   1.362   1.098   2.712
  265SOL    HW2  809   1.469   1.180   2.619
  266SOL     OW  810   1.488   0.584   2.819
  266SOL    HW1  811   1.420   0.511   2.825
  266SOL    HW2  812   1.513   0.614   2.911
  267SOL     OW  813   1.849   0.817   2.242
  267SOL    HW1  814   1.907   0.765   2.305
  267SOL    HW2  815   1.814   0.757   2.170
  268SOL     OW  816   0.491   1.410   2.026
  268SOL    HW1  817   0.411   1.383   2.078
  268SOL    HW2  818   0.472   1.402   1.928
  269SOL     OW  819   1.669   1.267   2.511
  269SOL    HW1  820   1.768   1.269   2.521
  269SOL    HW2  821   1.631   1.357   2.532
  270SOL     OW  822   1.391   0.573   1.934
  270SOL    HW1  823   1.329   0.553   2.009
  270SOL    HW2  824   1.483   0.540   1.957
  271SOL     OW  825   0.528   0.265   2.182
  271SOL    HW1  826   0.566   0.206   2.111
  271SOL    HW2  827   0.508   0.355   2.143
  272SOL     OW  828   1.649   1.104   2.933
  272SOL    HW1  829   1.655   1.175   0.003
  272SOL    HW2  830   1.561   1.110   2.887
  273SOL     OW  831   0.708   1.056   2.234
  273SOL    HW1  832   0.693   1.046   2.333
  273SOL    HW2  833   0.789   1.003   2.208
  274SOL     OW  834   0.354   1.108   2.353
  274SOL    HW1  835   0.357   1.188   2.293
  274SOL    HW2  836   0.358   1.025   2.298
  275SOL     OW  837   0.547   0.550   2.731
  275SOL    HW1  838   0.567   0.598   2.646
  275SOL    HW2  839   0.619   0.569   2.798
  276SOL     OW  840   1.247   1.350   2.254
  276SOL    HW1  841   1.308   1.424   2.283
  276SOL    HW2  842   1.154   1.369   2.285
  277SOL     OW  843   1.583   0.627   2.338
  277SOL    HW1  844   1.535   0.684   2.405
  277SOL    HW2  845   1.629   0.685   2.271
  278SOL     OW  846   0.578   0.871   2.880
  278SOL    HW1  847   0.622   0.956   2.852
  278SOL    HW2  848   0.546   0.880   2.974
  279SOL     OW  849   1.209   0.534   2.134
  279SOL    HW1  850   1.216   0.447   2.184
  279SOL    HW2  851   1.162   0.601   2.191
  280SOL     OW  852   0.731   0.641   2.915
  280SOL    HW1  853   0.800   0.610   2.851
  280SOL    HW2  854   0.694   0.729   2.885
  281SOL     OW  855   0.309   0.069   2.506
  281SOL    HW1  856   0.304   0.162   2.543
  281SOL    HW2  857   0.282   0.004   2.577
  282SOL     OW  858   1.611   0.375   2.232
  282SOL    HW1  859   1.650   0.307   2.294
  282SOL    HW2  860   1.588   0.458   2.284
  283SOL     OW  861   1.019   0.760   2.818
  283SOL    HW1  862   1.024   0.774   2.917
  283SOL    HW2  863   0.991   0.666   2.799
  284SOL     OW  864   1.531   0.272   1.997
  284SOL    HW1  865   1.463   0.203   2.021
  284SOL    HW2  866   1.567   0.314   2.080
  285SOL     OW  867   1.295   0.827   1.897
  285SOL    HW1  868   1.336   0.736   1.904
  285SOL    HW2  869   1.324   0.869   1.811
  286SOL     OW  870   1.053   1.348   2.695
  286SOL    HW1  871   1.064   1.260   2.648
  286SOL    HW2  872   1.131   1.406   2.675
  287SOL     OW  873   0.313   0.811   2.810
  287SOL    HW1  874   0.410   0.834   2.807
  287SOL    HW2  875   0.302   0.718   2.847
  288SOL     OW  876   0.322   0.518   2.873
  288SOL    HW1  877   0.285   0.427   2.851
  288SOL    HW2  878   0.404   0.535   2.818
  289SOL     OW  879   2.995   1.318   2.044
  289SOL    HW1  880   2.899   1.327   2.015
  289SOL    HW2  881   0.007   1.233   2.094
  290SOL     OW  882   0.097   1.815   2.809
  290SOL    HW1  883   0.054   1.735   2.768
  290SOL    HW2  884   0.192   1.822   2.778
  291SOL     OW  885   0.505   1.575   2.761
  291SOL    HW1  886   0.575   1.642   2.787
  291SOL    HW2  887   0.546   1.503   2.706
  292SOL     OW  888   0.979   0.756   0.085
  292SOL    HW1  889   1.034   0.753   0.168
  292SOL    HW2  890   0.883   0.771   0.109
  293SOL     OW  891   0.814   0.571   2.214
  293SOL    HW1  892   0.822   0.492   2.153
  293SOL    HW2  893   0.737   0.627   2.185
  294SOL     OW  894   0.698   0.442   0.091
  294SOL    HW1  895   0.601   0.420   0.097
  294SOL    HW2  896   0.711   0.522   0.032
  295SOL     OW  897   0.466   0.497   2.052
  295SOL    HW1  898   0.532   0.570   2.070
  295SOL    HW2  899   0.375   0.536   2.041
  296SOL     OW  900   1.307   0.856   2.168
  296SOL    HW1  901   1.227   0.827   2.222
  296SOL    HW2  902   1.288   0.842   2.071
  297SOL     OW  903   1.736   1.764   2.971
  297SOL    HW1  904   1.814   1.794   2.917
  297SOL    HW2  905   1.760   1.684   0.025
  298SOL     OW  906   0.074   1.250   2.901
  298SOL    HW1  907   0.047   1.274   2.995
  298SOL    HW2  908   0.002   1.278   2.838
  299SOL     OW  909   1.719   0.142   2.364
  299SOL    HW1  910   1.785   0.137   2.290
  299SOL    HW2  911   1.727   0.061   2.422
  300SOL     OW  912   1.392   1.570   2.345
  300SOL    HW1  913   1.457   1.597   2.275
  300SOL    HW2  914   1.340   1.649   2.376
  301SOL     OW  915   1.279   0.926   2.529
  301SOL    HW1  916   1.353   0.859   2.541
  301SOL    HW2  917   1.313   1.004   2.476
  302SOL     OW  918   0.672   1.613   2.017
  302SOL    HW1  919   0.683   1.629   1.918
  302SOL    HW2  920   0.616   1.532   2.031
  303SOL     OW  921   1.851   0.161   2.813
  303SOL    HW1  922   1.855   0.070   2.772
  303SOL    HW2  923   1.762   0.203   2.794
  304SOL     OW  924   0.271   0.335   2.600
  304SOL    HW1  925   0.178   0.369   2.584
  304SOL    HW2  926   0.277   0.300   2.693
  305SOL     OW  927   1.207   1.605   1.891
  305SOL    HW1  928   1.201   1.512   1.927
  305SOL    HW2  929   1.137   1.617   1.820
  306SOL     OW  930   0.917   0.910   2.149
  306SOL    HW1  931   0.980   0.945   2.080
  306SOL    HW2  932   0.961   0.836   2.200
  307SOL     OW  933   1.493   1.624   1.912
  307SOL    HW1  934   1.393   1.619   1.905
  307SOL    HW2  935   1.533   1.630   1.821
  308SOL     OW  936   1.050   1.103   2.572
  308SOL    HW1  937   0.974   1.052   2.612
  308SOL    HW2  938   1.115   1.039   2.530
  309SOL     OW  939   1.017   0.245   2.811
  309SOL    HW1  940   1.010   0.179   2.737
  309SOL    HW2  941   1.048   0.199   2.894
  310SOL     OW  942   0.601   1.488   2.344
  310SOL    HW1  943   0.645   1.434   2.272
  310SOL    HW2  944   0.532   1.547   2.303
  311SOL     OW  945   0.252   1.347   2.145
  311SOL    HW1  946   0.154   1.342   2.123
  311SOL    HW2  947   0.263   1.388   2.236
  312SOL     OW  948   0.096   0.328   1.912
  312SOL    HW1  949   0.009   0.293   1.878
  312SOL    HW2  950   0.117   0.415   1.867
  313SOL     OW  951   0.022   0.215   2.145
  313SOL    HW1  952   0.062   0.267   2.069
  313SOL    HW2  953   0.083   0.139   2.168
  314SOL     OW  954   1.182   1.344   1.981
  314SOL    HW1  955   1.087   1.314   1.976
  314SOL    HW2  956   1.213   1.341   2.077
  315SOL     OW  957   1.505   1.782   2.830
  315SOL    HW1  958   1.516   1.833   2.745
  315SOL    HW2  959   1.590   1.787   2.883
  316SOL     OW  960   1.716   0.850   0.063
  316SOL    HW1  961   1.637   0.805   0.105
  316SOL    HW2  962   1.693   0.945   0.042
  317SOL     OW  963   1.225   0.315   2.318
  317SOL    HW1  964   1.290   0.239   2.314
  317SOL    HW2  965   1.246   0.372   2.398
  318SOL     OW  966   0.591   0.742   2.525
  318SOL    HW1  967   0.635   0.831   2.513
  318SOL    HW2  968   0.515   0.733   2.460
  319SOL     OW  969   0.865   1.368   1.893
  319SOL    HW1  970   0.819   1.391   1.980
  319SOL    HW2  971   0.884   1.452   1.843
  320SOL     OW  972   0.663   1.796   2.821
  320SOL    HW1  973   0.635   1.886   2.788
  320SOL    HW2  974   0.761   1.783   2.805
  321SOL     OW  975   0.862   0.965   2.718
  321SOL    HW1  976   0.916   0.889   2.756
  321SOL    HW2  977   0.830   1.023   2.792
  322SOL     OW  978   1.080   0.988   1.948
  322SOL    HW1  979   1.052   1.040   1.868
  322SOL    HW2  980   1.159   0.932   1.926
  323SOL     OW  981   1.853   1.559   2.714
  323SOL    HW1  982   1.778   1.546   2.649
  323SOL    HW2  983   1.865   1.477   2.769
  324SOL     OW  984   0.127   1.247   2.519
  324SOL    HW1  985   0.089   1.185   2.587
  324SOL    HW2  986   0.187   1.197   2.458
  325SOL     OW  987   1.809   0.188   0.080
  325SOL    HW1  988   1.834   0.105   0.129
  325SOL    HW2  989   1.829   0.177   2.983
  326SOL     OW  990   0.461   0.432   2.403
  326SOL    HW1  991   0.458   0.365   2.328
  326SOL    HW2  992   0.406   0.398   2.479
  327SOL     OW  993   0.818   1.586   2.540
  327SOL    HW1  994   0.824   1.624   2.448
  327SOL    HW2  995   0.740   1.524   2.546
  328SOL     OW  996   0.771   1.331   2.173
  328SOL    HW1  997   0.735   1.238   2.178
  328SOL    HW2  998   0.858   1.336   2.222
  329SOL     OW  999   1.347   0.047   2.029
  329SOL    HW1 1000   1.416   2.986   1.989
  329SOL    HW2 1001   1.260   2.998   2.037
  330SOL     OW 1002   1.296   0.458   2.549
  330SOL    HW1 1003   1.240   0.540   2.554
  330SOL    HW2 1004   1.296   0.413   2.638
  331SOL     OW 1005   1.600   0.237   2.750
  331SOL    HW1 1006   1.507   0.221   2.783
  331SOL    HW2 1007   1.601   0.314   2.687
  332SOL     OW 1008   0.064   1.082   2.163
  332SOL    HW1 1009   0.157   1.044   2.161
  332SOL    HW2 1010   0.001   1.013   2.199
  333SOL     OW 1011   0.878   1.651   2.209
  333SOL    HW1 1012   0.807   1.628   2.142
  333SOL    HW2 1013   0.850   1.732   2.261
  334SOL     OW 1014   0.235   2.512   0.099
  334SOL    HW1 1015   0.166   2.468   0.155
  334SOL    HW2 1016   0.252   2.457   0.017
  335SOL     OW 1017   0.212   2.137   0.991
  335SOL    HW1 1018   0.248   2.107   1.079
  335SOL    HW2 1019   0.121   2.098   0.977
  336SOL     OW 1020   0.017   2.249   0.643
  336SOL    HW1 1021   2.929   2.288   0.672
  336SOL    HW2 1022   0.002   2.162   0.598
  337SOL     OW 1023   1.134   2.569   0.702
  337SOL    HW1 1024   1.184   2.655   0.690
  337SOL    HW2 1025   1.078   2.575   0.785
  338SOL     OW 1026   1.758   2.457   0.227
  338SOL    HW1 1027   1.749   2.439   0.129
  338SOL    HW2 1028   1.724   2.379   0.278
  339SOL     OW 1029   0.760   0.010   1.030
  339SOL    HW1 1030   0.673   0.036   1.071
  339SOL    HW2 1031   0.788   0.080   0.964
  340SOL     OW 1032   0.865   2.641   1.820
  340SOL    HW1 1033   0.844   2.704   1.895
  340SOL    HW2 1034   0.889   2.692   1.738
  341SOL     OW 1035   0.654   2.850   0.710
  341SOL    HW1 1036   0.752   2.853   0.728
  341SOL    HW2 1037   0.626   2.935   0.665
  342SOL     OW 1038   0.472   2.270   1.488
  342SOL    HW1 1039   0.547   2.204   1.490
  342SOL    HW2 1040   0.385   2.222   1.505
  343SOL     OW 1041   1.614   2.311   0.740
  343SOL    HW1 1042   1.534   2.336   0.685
  343SOL    HW2 1043   1.639   2.388   0.799
  344SOL     OW 1044   0.212   0.313   0.464
  344SOL    HW1 1045   0.227   0.393   0.522
  344SOL    HW2 1046   0.197   0.233   0.522
  345SOL     OW 1047   0.235   2.943   0.878
  345SOL    HW1 1048   0.259   2.857   0.923
  345SOL    HW2 1049   0.200   0.008   0.945
  346SOL     OW 1050   0.616   2.832   0.149
  346SOL    HW1 1051   0.596   2.926   0.123
  346SOL    HW2 1052   0.678   2.832   0.228
  347SOL     OW 1053   1.591   1.979   1.475
  347SOL    HW1 1054   1.595   2.054   1.408
  347SOL    HW2 1055   1.589   2.018   1.567
  348SOL     OW 1056   0.116   2.499   0.567
  348SOL    HW1 1057   0.092   2.407   0.599
  348SOL    HW2 1058   0.114   2.563   0.644
  349SOL     OW 1059   1.700   2.806   0.625
  349SOL    HW1 1060   1.781   2.748   0.635
  349SOL    HW2 1061   1.684   2.824   0.528
  350SOL     OW 1062   0.126   2.608   1.589
  350SOL    HW1 1063   0.226   2.614   1.597
  350SOL    HW2 1064   0.086   2.698   1.606
  351SOL     OW 1065   0.657   0.241   0.685
  351SOL    HW1 1066   0.592   0.173   0.721
  351SOL    HW2 1067   0.609   0.303   0.623
  352SOL     OW 1068   1.303   0.052   1.440
  352SOL    HW1 1069   1.329   2.990   1.366
  352SOL    HW2 1070   1.384   0.103   1.470
  353SOL     OW 1071   0.812   1.864   0.505
  353SOL    HW1 1072   0.857   1.952   0.490
  353SOL    HW2 1073   0.713   1.878   0.515
  354SOL     OW 1074   0.192   2.835   1.257
  354SOL    HW1 1075   0.279   2.787   1.250
  354SOL    HW2 1076   0.118   2.773   1.231
  355SOL     OW 1077   1.523   2.844   0.206
  355SOL    HW1 1078   1.449   2.795   0.252
  355SOL    HW2 1079   1.594   2.867   0.273
  356SOL     OW 1080   0.335   2.112   1.809
  356SOL    HW1 1081   0.390   2.194   1.823
  356SOL    HW2 1082   0.244   2.125   1.849
  357SOL     OW 1083   0.594   2.583   0.271
  357SOL    HW1 1084   0.601   2.665   0.214
  357SOL    HW2 1085   0.523   2.597   0.340
  358SOL     OW 1086   1.280   2.208   0.933
  358SOL    HW1 1087   1.185   2.175   0.937
  358SOL    HW2 1088   1.336   2.157   0.998
  359SOL     OW 1089   0.793   2.475   1.455
  359SOL    HW1 1090   0.766   2.456   1.549
  359SOL    HW2 1091   0.749   2.410   1.393
  360SOL     OW 1092   1.393   2.333   1.678
  360SOL    HW1 1093   1.390   2.381   1.766
  360SOL    HW2 1094   1.461   2.260   1.683
  361SOL     OW 1095   0.960   2.756   1.588
  361SOL    HW1 1096   1.016   2.682   1.552
  361SOL    HW2 1097   0.904   2.794   1.514
  362SOL     OW 1098   0.993   2.274   1.235
  362SOL    HW1 1099   0.911   2.300   1.285
  362SOL    HW2 1100   0.968   2.220   1.155
  363SOL     OW 1101   1.048   2.566   0.424
  363SOL    HW1 1102   1.066   2.561   0.522
  363SOL    HW2 1103   0.964   2.516   0.403
  364SOL     OW 1104   0.104   2.672   0.768
  364SOL    HW1 1105   0.185   2.673   0.827
  364SOL    HW2 1106   0.043   2.746   0.795
  365SOL     OW 1107   0.925   2.195   0.221
  365SOL    HW1 1108   0.936   2.262   0.147
  365SOL    HW2 1109   0.895   2.108   0.184
  366SOL     OW 1110   1.710   2.439   1.826
  366SOL    HW1 1111   1.672   2.520   1.780
  366SOL    HW2 1112   1.736   2.371   1.757
  367SOL     OW 1113   0.545   2.045   0.894
  367SOL    HW1 1114   0.551   2.070   0.991
  367SOL    HW2 1115   0.551   2.128   0.838
  368SOL     OW 1116   1.796   2.907   0.868
  368SOL    HW1 1117   1.741   2.890   0.786
  368SOL    HW2 1118   1.735   2.918   0.946
  369SOL     OW 1119   1.481   2.600   0.726
  369SOL    HW1 1120   1.459   2.546   0.807
  369SOL    HW2 1121   1.557   2.662   0.747
  370SOL     OW 1122   0.231   2.167   1.510
  370SOL    HW1 1123   0.149   2.214   1.476
  370SOL    HW2 1124   0.205   2.084   1.559
  371SOL     OW 1125   1.403   1.967   0.428
  371SOL    HW1 1126   1.389   1.945   0.331
  371SOL    HW2 1127   1.500   1.980   0.446
  372SOL     OW 1128   0.388   2.552   0.476
  372SOL    HW1 1129   0.416   2.457   0.484
  372SOL    HW2 1130   0.291   2.561   0.499
  373SOL     OW 1131   1.539   2.089   1.729
  373SOL    HW1 1132   1.545   2.111   1.826
  373SOL    HW2 1133   1.468   2.020   1.714
  374SOL     OW 1134   0.627   1.984   0.117
  374SOL    HW1 1135   0.724   1.962   0.121
  374SOL    HW2 1136   0.585   1.936   0.040
  375SOL     OW 1137   0.769   2.137   1.753
  375SOL    HW1 1138   0.845   2.072   1.758
  375SOL    HW2 1139   0.711   2.128   1.835
  376SOL     OW 1140   1.342   2.451   1.434
  376SOL    HW1 1141   1.372   2.413   1.522
  376SOL    HW2 1142   1.378   2.543   1.424
  377SOL     OW 1143   0.927   2.371   0.900
  377SOL    HW1 1144   0.901   2.363   0.804
  377SOL    HW2 1145   0.962   2.283   0.933
  378SOL     OW 1146   0.545   1.924   0.504
  378SOL    HW1 1147   0.462   1.924   0.559
  378SOL    HW2 1148   0.546   2.004   0.445
  379SOL     OW 1149   0.943   2.103   0.473
  379SOL    HW1 1150   0.912   2.143   0.387
  379SOL    HW2 1151   1.043   2.114   0.480
  380SOL     OW 1152   1.079   2.544   1.458
  380SOL    HW1 1153   1.001   2.483   1.467
  380SOL    HW2 1154   1.163   2.491   1.453
  381SOL     OW 1155   1.047   2.361   0.028
  381SOL    HW1 1156   0.997   2.445   0.011
  381SOL    HW2 1157   1.112   2.376   0.103
  382SOL     OW 1158   0.089   2.417   1.399
  382SOL    HW1 1159   0.177   2.420   1.351
  382SOL    HW2 1160   0.086   2.490   1.467
  383SOL     OW 1161   0.561   2.086   1.165
  383SOL    HW1 1162   0.605   2.003   1.198
  383SOL    HW2 1163   0.465   2.088   1.193
  384SOL     OW 1164   0.870   2.322   0.638
  384SOL    HW1 1165   0.819   2.383   0.578
  384SOL    HW2 1166   0.892   2.237   0.590
  385SOL     OW 1167   1.016   1.912   0.751
  385SOL    HW1 1168   0.954   1.913   0.673
  385SOL    HW2 1169   0.993   1.835   0.811
  386SOL     OW 1170   1.429   2.994   0.873
  386SOL    HW1 1171   1.359   2.933   0.836
  386SOL    HW2 1172   1.452   0.063   0.805
  387SOL     OW 1173   1.468   2.463   0.983
  387SOL    HW1 1174   1.416   2.377   0.984
  387SOL    HW2 1175   1.534   2.462   1.059
  388SOL     OW 1176   1.833   2.666   0.389
  388SOL    HW1 1177   1.897   2.617   0.448
  388SOL    HW2 1178   1.813   2.611   0.308
  389SOL     OW 1179   1.410   2.438   0.102
  389SOL    HW1 1180   1.335   2.428   0.167
  389SOL    HW2 1181   1.466   2.356   0.103
  390SOL     OW 1182   0.523   2.126   0.324
  390SOL    HW1 1183   0.560   2.069   0.250
  390SOL    HW2 1184   0.501   2.216   0.288
  391SOL     OW 1185   1.782   0.079   1.592
  391SOL    HW1 1186   1.873   0.041   1.573
  391SOL    HW2 1187   1.791   0.170   1.633
  392SOL     OW 1188   1.627   2.956   1.077
  392SOL    HW1 1189   1.648   0.041   1.125
  392SOL    HW2 1190   1.549   2.971   1.017
  393SOL     OW 1191   0.920   1.960   1.399
  393SOL    HW1 1192   0.940   1.938   1.303
  393SOL    HW2 1193   1.000   2.004   1.440
  394SOL     OW 1194   0.416   2.677   1.254
  394SOL    HW1 1195   0.490   2.688   1.320
  394SOL    HW2 1196   0.376   2.586   1.262
  395SOL     OW 1197   1.266   2.242   1.272
  395SOL    HW1 1198   1.303   2.320   1.323
  395SOL    HW2 1199   1.172   2.261   1.244
  396SOL     OW 1200   0.556   2.404   0.863
  396SOL    HW1 1201   0.572   2.460   0.781
  396SOL    HW2 1202   0.621   2.430   0.934
  397SOL     OW 1203   1.579   2.488   0.474
  397SOL    HW1 1204   1.537   2.543   0.547
  397SOL    HW2 1205   1.638   2.546   0.418
  398SOL     OW 1206   0.411   2.600   1.602
  398SOL    HW1 1207   0.470   2.653   1.541
  398SOL    HW2 1208   0.455   2.513   1.623
  399SOL     OW 1209   1.597   2.639   1.678
  399SOL    HW1 1210   1.504   2.677   1.674
  399SOL    HW2 1211   1.654   2.683   1.608
  400SOL     OW 1212   0.997   1.981   1.755
  400SOL    HW1 1213   1.047   2.062   1.726
  400SOL    HW2 1214   1.049   1.899   1.729
  401SOL     OW 1215   0.497   1.905   1.744
  401SOL    HW1 1216   0.458   1.844   1.675
  401SOL    HW2 1217   0.435   1.981   1.761
  402SOL     OW 1218   0.591   2.727   1.040
  402SOL    HW1 1219   0.601   2.822   1.007
  402SOL    HW2 1220   0.521   2.724   1.111
  403SOL     OW 1221   1.350   2.713   1.033
  403SOL    HW1 1222   1.276   2.711   0.966
  403SOL    HW2 1223   1.398   2.625   1.034
  404SOL     OW 1224   1.203   2.394   0.274
  404SOL    HW1 1225   1.212   2.305   0.319
  404SOL    HW2 1226   1.156   2.458   0.334
  405SOL     OW 1227   0.300   2.065   1.242
  405SOL    HW1 1228   0.283   2.101   1.334
  405SOL    HW2 1229   0.285   1.966   1.241
  406SOL     OW 1230   0.054   0.169   1.271
  406SOL    HW1 1231   0.086   0.131   1.358
  406SOL    HW2 1232   0.011   0.258   1.288
  407SOL     OW 1233   0.731   2.494   1.061
  407SOL    HW1 1234   0.801   2.471   0.994
  407SOL    HW2 1235   0.693   2.584   1.041
  408SOL     OW 1236   1.733   2.819   1.843
  408SOL    HW1 1237   1.685   2.759   1.779
  408SOL    HW2 1238   1.677   2.830   1.926
  409SOL     OW 1239   0.301   1.930   0.625
  409SOL    HW1 1240   0.285   2.026   0.649
  409SOL    HW2 1241   0.311   1.876   0.708
  410SOL     OW 1242   1.620   2.236   0.370
  410SOL    HW1 1243   1.646   2.165   0.435
  410SOL    HW2 1244   1.589   2.317   0.419
  411SOL     OW 1245   1.025   2.616   0.967
  411SOL    HW1 1246   1.028   2.635   1.065
  411SOL    HW2 1247   0.997   2.521   0.953
  412SOL     OW 1248   0.357   2.786   1.795
  412SOL    HW1 1249   0.420   2.788   1.872
  412SOL    HW2 1250   0.381   2.711   1.734
  413SOL     OW 1251   1.506   2.162   0.128
  413SOL    HW1 1252   1.463   2.073   0.139
  413SOL    HW2 1253   1.562   2.182   0.209
  414SOL     OW 1254   1.296   2.684   0.038
  414SOL    HW1 1255   1.337   2.594   0.052
  414SOL    HW2 1256   1.323   2.719   2.949
  415SOL     OW 1257   0.314   2.676   0.951
  415SOL    HW1 1258   0.412   2.691   0.934
  415SOL    HW2 1259   0.300   2.584   0.987
  416SOL     OW 1260   0.337   2.377   1.013
  416SOL    HW1 1261   0.292   2.289   0.994
  416SOL    HW2 1262   0.415   2.388   0.952
  417SOL     OW 1263   1.135   2.240   1.683
  417SOL    HW1 1264   1.084   2.297   1.747
  417SOL    HW2 1265   1.229   2.274   1.675
  418SOL     OW 1266   1.160   2.068   1.472
  418SOL    HW1 1267   1.149   2.131   1.549
  418SOL    HW2 1268   1.199   2.118   1.394
  419SOL     OW 1269   0.983   2.669   1.234
  419SOL    HW1 1270   1.039   2.637   1.310
  419SOL    HW2 1271   0.897   2.618   1.232
  420SOL     OW 1272   0.049   2.438   1.116
  420SOL    HW1 1273   0.125   2.390   1.072
  420SOL    HW2 1274   0.033   2.399   1.206
  421SOL     OW 1275   0.197   2.381   1.722
  421SOL    HW1 1276   0.266   2.345   1.658
  421SOL    HW2 1277   0.155   2.462   1.683
  422SOL     OW 1278   1.377   2.805   1.660
  422SOL    HW1 1279   1.405   2.900   1.667
  422SOL    HW2 1280   1.372   2.778   1.564
  423SOL     OW 1281   0.820   2.439   0.347
  423SOL    HW1 1282   0.824   2.356   0.292
  423SOL    HW2 1283   0.736   2.489   0.326
  424SOL     OW 1284   1.645   2.466   1.190
  424SOL    HW1 1285   1.627   2.403   1.266
  424SOL    HW2 1286   1.735   2.446   1.152
  425SOL     OW 1287   0.696   2.316   1.261
  425SOL    HW1 1288   0.643   2.236   1.233
  425SOL    HW2 1289   0.698   2.382   1.186
  426SOL     OW 1290   0.439   2.359   0.211
  426SOL    HW1 1291   0.518   2.419   0.220
  426SOL    HW2 1292   0.358   2.414   0.189
  427SOL     OW 1293   0.160   0.006   1.469
  427SOL    HW1 1294   0.149   2.954   1.554
  427SOL    HW2 1295   0.175   2.942   1.394
  428SOL     OW 1296   1.349   2.906   1.220
  428SOL    HW1 1297   1.364   2.840   1.146
  428SOL    HW2 1298   1.272   2.966   1.197
  429SOL     OW 1299   1.299   2.722   0.311
  429SOL    HW1 1300   1.224   2.680   0.361
  429SOL    HW2 1301   1.290   2.700   0.214
  430SOL     OW 1302   0.898   1.939   0.128
  430SOL    HW1 1303   0.946   1.925   0.042
  430SOL    HW2 1304   0.949   1.895   0.202
  431SOL     OW 1305   1.713   2.001   0.509
  431SOL    HW1 1306   1.797   1.998   0.454
  431SOL    HW2 1307   1.699   1.913   0.554
  432SOL     OW 1308   1.293   2.793   0.682
  432SOL    HW1 1309   1.363   2.722   0.682
  432SOL    HW2 1310   1.305   2.851   0.601
  433SOL     OW 1311   1.840   2.035   0.965
  433SOL    HW1 1312   1.875   1.944   0.939
  433SOL    HW2 1313   1.748   2.047   0.926
  434SOL     OW 1314   0.267   2.180   0.722
  434SOL    HW1 1315   0.181   2.220   0.690
  434SOL    HW2 1316   0.263   2.166   0.821
  435SOL     OW 1317   0.813   2.861   1.373
  435SOL    HW1 1318   0.871   2.828   1.299
  435SOL    HW2 1319   0.836   2.956   1.394
  436SOL     OW 1320   0.904   2.791   0.288
  436SOL    HW1 1321   0.982   2.817   0.231
  436SOL    HW2 1322   0.935   2.731   0.362
  437SOL     OW 1323   1.019   2.101   0.966
  437SOL    HW1 1324   1.013   2.055   0.877
  437SOL    HW2 1325   1.015   2.033   1.039
  438SOL     OW 1326   1.723   2.255   1.379
  438SOL    HW1 1327   1.795   2.324   1.379
  438SOL    HW2 1328   1.750   2.178   1.321
  439SOL     OW 1329   0.117   2.866   1.698
  439SOL    HW1 1330   0.042   2.844   1.760
  439SOL    HW2 1331   0.204   2.850   1.744
  440SOL     OW 1332   0.677   2.060   1.498
  440SOL    HW1 1333   0.763   2.038   1.451
  440SOL    HW2 1334   0.696   2.085   1.593
  441SOL     OW 1335   0.055   2.176   0.054
  441SOL    HW1 1336   2.962   2.200   0.026
  441SOL    HW2 1337   0.120   2.241   0.016
  442SOL     OW 1338   1.433   2.717   1.403
  442SOL    HW1 1339   1.385   2.778   1.339
  442SOL    HW2 1340   1.530   2.717   1.380
  443SOL     OW 1341   0.064   2.059   0.321
  443SOL    HW1 1342   0.048   2.103   0.232
  443SOL    HW2 1343   0.131   1.986   0.310
  444SOL     OW 1344   1.141   0.214   0.095
  444SOL    HW1 1345   1.061   0.249   0.145
  444SOL    HW2 1346   1.222   0.221   0.153
  445SOL     OW 1347   0.615   2.691   1.434
  445SOL    HW1 1348   0.673   2.770   1.417
  445SOL    HW2 1349   0.672   2.609   1.445
  446SOL     OW 1350   0.719   2.426   1.707
  446SOL    HW1 1351   0.755   2.496   1.769
  446SOL    HW2 1352   0.754   2.337   1.733
  447SOL     OW 1353   1.677   2.744   1.254
  447SOL    HW1 1354   1.666   2.651   1.218
  447SOL    HW2 1355   1.658   2.811   1.182
  448SOL     OW 1356   1.223   2.179   0.461
  448SOL    HW1 1357   1.289   2.105   0.446
  448SOL    HW2 1358   1.251   2.233   0.540
  449SOL     OW 1359   0.591   2.589   0.661
  449SOL    HW1 1360   0.621   2.684   0.672
  449SOL    HW2 1361   0.516   2.585   0.595
  450SOL     OW 1362   1.761   2.224   1.648
  450SOL    HW1 1363   1.747   2.237   1.550
  450SOL    HW2 1364   1.689   2.164   1.684
  451SOL     OW 1365   1.737   2.796   1.513
  451SOL    HW1 1366   1.753   2.891   1.538
  451SOL    HW2 1367   1.728   2.788   1.414
  452SOL     OW 1368   0.889   2.830   0.864
  452SOL    HW1 1369   0.926   2.745   0.901
  452SOL    HW2 1370   0.826   2.871   0.931
  453SOL     OW 1371   1.111   2.888   0.084
  453SOL    HW1 1372   1.057   2.893   3.000
  453SOL    HW2 1373   1.175   2.812   0.077
  454SOL     OW 1374   1.810   2.047   1.236
  454SOL    HW1 1375   1.810   1.951   1.262
  454SOL    HW2 1376   1.823   2.055   1.137
  455SOL     OW 1377   0.432   2.292   0.527
  455SOL    HW1 1378   0.464   2.221   0.465
  455SOL    HW2 1379   0.382   2.250   0.603
  456SOL     OW 1380   0.334   2.415   1.288
  456SOL    HW1 1381   0.396   2.362   1.346
  456SOL    HW2 1382   0.348   2.389   1.192
  457SOL     OW 1383   1.432   2.086   1.118
  457SOL    HW1 1384   1.471   2.006   1.165
  457SOL    HW2 1385   1.376   2.138   1.183
  458SOL     OW 1386   1.006   1.884   1.146
  458SOL    HW1 1387   0.944   1.816   1.108
  458SOL    HW2 1388   1.100   1.848   1.146
  459SOL     OW 1389   1.352   1.913   0.163
  459SOL    HW1 1390   1.385   1.864   0.082
  459SOL    HW2 1391   1.263   1.877   0.189
  460SOL     OW 1392   1.298   2.325   0.686
  460SOL    HW1 1393   1.240   2.406   0.690
  460SOL    HW2 1394   1.295   2.278   0.774
  461SOL     OW 1395   1.587   2.070   0.878
  461SOL    HW1 1396   1.521   2.084   0.952
  461SOL    HW2 1397   1.589   2.152   0.820
  462SOL     OW 1398   0.001   2.887   0.284
  462SOL    HW1 1399   0.091   2.918   0.254
  462SOL    HW2 1400   0.009   2.847   0.375
  463SOL     OW 1401   0.228   2.504   1.970
  463SOL    HW1 1402   0.161   2.458   2.029
  463SOL    HW2 1403   0.225   2.464   1.879
  464SOL     OW 1404   0.235   2.125   2.839
  464SOL    HW1 1405   0.272   2.101   2.928
  464SOL    HW2 1406   0.143   2.087   2.830
  465SOL     OW 1407   0.016   2.249   2.504
  465SOL    HW1 1408   2.929   2.286   2.534
  465SOL    HW2 1409   0.002   2.158   2.464
  466SOL     OW 1410   1.135   2.569   2.564
  466SOL    HW1 1411   1.186   2.654   2.551
  466SOL    HW2 1412   1.080   2.577   2.647
  467SOL     OW 1413   1.759   2.467   2.090
  467SOL    HW1 1414   1.743   2.458   1.991
  467SOL    HW2 1415   1.728   2.384   2.136
  468SOL     OW 1416   0.783   0.012   2.878
  468SOL    HW1 1417   0.694   0.021   2.924
  468SOL    HW2 1418   0.800   0.092   2.821
  469SOL     OW 1419   0.654   2.847   2.568
  469SOL    HW1 1420   0.750   2.849   2.594
  469SOL    HW2 1421   0.628   2.935   2.529
  470SOL     OW 1422   1.618   2.312   2.595
  470SOL    HW1 1423   1.537   2.334   2.541
  470SOL    HW2 1424   1.628   2.379   2.669
  471SOL     OW 1425   0.210   0.311   2.327
  471SOL    HW1 1426   0.229   0.391   2.384
  471SOL    HW2 1427   0.199   0.231   2.385
  472SOL     OW 1428   0.234   2.944   2.743
  472SOL    HW1 1429   0.258   2.855   2.782
  472SOL    HW2 1430   0.208   0.007   2.817
  473SOL     OW 1431   0.609   2.824   1.992
  473SOL    HW1 1432   0.597   2.909   1.941
  473SOL    HW2 1433   0.667   2.841   2.071
  474SOL     OW 1434   0.117   2.497   2.428
  474SOL    HW1 1435   0.092   2.407   2.462
  474SOL    HW2 1436   0.118   2.562   2.504
  475SOL     OW 1437   1.700   2.806   2.487
  475SOL    HW1 1438   1.781   2.749   2.498
  475SOL    HW2 1439   1.684   2.822   2.389
  476SOL     OW 1440   0.631   0.246   2.569
  476SOL    HW1 1441   0.591   0.156   2.554
  476SOL    HW2 1442   0.611   0.305   2.490
  477SOL     OW 1443   0.811   1.864   2.365
  477SOL    HW1 1444   0.857   1.951   2.349
  477SOL    HW2 1445   0.713   1.879   2.378
  478SOL     OW 1446   0.212   2.805   0.101
  478SOL    HW1 1447   0.282   2.733   0.100
  478SOL    HW2 1448   0.122   2.764   0.093
  479SOL     OW 1449   1.540   2.841   2.047
  479SOL    HW1 1450   1.466   2.785   2.086
  479SOL    HW2 1451   1.597   2.876   2.121
  480SOL     OW 1452   0.596   2.581   2.129
  480SOL    HW1 1453   0.604   2.661   2.069
  480SOL    HW2 1454   0.528   2.600   2.199
  481SOL     OW 1455   1.296   2.197   2.807
  481SOL    HW1 1456   1.199   2.179   2.799
  481SOL    HW2 1457   1.329   2.166   2.897
  482SOL     OW 1458   1.050   2.561   2.289
  482SOL    HW1 1459   1.066   2.558   2.388
  482SOL    HW2 1460   0.964   2.514   2.268
  483SOL     OW 1461   0.107   2.673   2.627
  483SOL    HW1 1462   0.188   2.672   2.686
  483SOL    HW2 1463   0.042   2.740   2.661
  484SOL     OW 1464   0.885   2.209   2.056
  484SOL    HW1 1465   0.930   2.275   1.996
  484SOL    HW2 1466   0.901   2.117   2.023
  485SOL     OW 1467   0.550   2.047   2.766
  485SOL    HW1 1468   0.518   2.077   2.856
  485SOL    HW2 1469   0.559   2.125   2.705
  486SOL     OW 1470   1.797   2.909   2.729
  486SOL    HW1 1471   1.740   2.890   2.649
  486SOL    HW2 1472   1.739   2.916   2.810
  487SOL     OW 1473   1.481   2.603   2.585
  487SOL    HW1 1474   1.465   2.543   2.664
  487SOL    HW2 1475   1.559   2.661   2.603
  488SOL     OW 1476   1.402   1.968   2.291
  488SOL    HW1 1477   1.387   1.943   2.195
  488SOL    HW2 1478   1.500   1.979   2.307
  489SOL     OW 1479   0.395   2.551   2.337
  489SOL    HW1 1480   0.414   2.454   2.351
  489SOL    HW2 1481   0.298   2.568   2.355
  490SOL     OW 1482   0.627   1.986   1.968
  490SOL    HW1 1483   0.709   1.931   1.985
  490SOL    HW2 1484   0.580   1.951   1.887
  491SOL     OW 1485   0.922   2.379   2.757
  491SOL    HW1 1486   0.900   2.358   2.661
  491SOL    HW2 1487   0.960   2.298   2.800
  492SOL     OW 1488   0.546   1.925   2.366
  492SOL    HW1 1489   0.462   1.924   2.421
  492SOL    HW2 1490   0.546   2.006   2.307
  493SOL     OW 1491   0.292   1.905   2.042
  493SOL    HW1 1492   0.348   1.981   2.008
  493SOL    HW2 1493   0.352   1.838   2.087
  494SOL     OW 1494   0.939   2.104   2.326
  494SOL    HW1 1495   0.901   2.151   2.245
  494SOL    HW2 1496   1.038   2.118   2.329
  495SOL     OW 1497   1.025   2.407   1.882
  495SOL    HW1 1498   0.978   2.493   1.858
  495SOL    HW2 1499   1.092   2.425   1.954
  496SOL     OW 1500   0.869   2.319   2.499
  496SOL    HW1 1501   0.820   2.382   2.439
  496SOL    HW2 1502   0.891   2.235   2.449
  497SOL     OW 1503   1.012   1.909   2.613
  497SOL    HW1 1504   0.953   1.909   2.532
  497SOL    HW2 1505   0.992   1.829   2.669
  498SOL     OW 1506   1.424   3.000   2.736
  498SOL    HW1 1507   1.353   2.938   2.701
  498SOL    HW2 1508   1.453   0.061   2.663
  499SOL     OW 1509   1.486   2.447   2.819
  499SOL    HW1 1510   1.418   2.375   2.827
  499SOL    HW2 1511   1.515   2.477   2.910
  500SOL     OW 1512   1.839   2.667   2.251
  500SOL    HW1 1513   1.900   2.617   2.312
  500SOL    HW2 1514   1.813   2.607   2.175
  501SOL     OW 1515   1.391   2.435   1.934
  501SOL    HW1 1516   1.330   2.413   2.010
  501SOL    HW2 1517   1.484   2.404   1.956
  502SOL     OW 1518   0.529   2.126   2.181
  502SOL    HW1 1519   0.567   2.069   2.108
  502SOL    HW2 1520   0.509   2.217   2.145
  503SOL     OW 1521   1.627   2.966   2.936
  503SOL    HW1 1522   1.639   0.046   2.995
  503SOL    HW2 1523   1.549   2.981   2.875
  504SOL     OW 1524   0.554   2.401   2.726
  504SOL    HW1 1525   0.569   2.458   2.645
  504SOL    HW2 1526   0.617   2.429   2.799
  505SOL     OW 1527   1.578   2.487   2.334
  505SOL    HW1 1528   1.537   2.543   2.406
  505SOL    HW2 1529   1.636   2.545   2.277
  506SOL     OW 1530   0.576   2.726   2.883
  506SOL    HW1 1531   0.619   2.808   2.845
  506SOL    HW2 1532   0.555   2.741   2.979
  507SOL     OW 1533   1.206   2.391   2.133
  507SOL    HW1 1534   1.217   2.307   2.187
  507SOL    HW2 1535   1.159   2.460   2.189
  508SOL     OW 1536   0.326   2.061   0.081
  508SOL    HW1 1537   0.314   2.111   0.167
  508SOL    HW2 1538   0.301   1.965   0.094
  509SOL     OW 1539   0.730   2.501   2.914
  509SOL    HW1 1540   0.799   2.474   2.847
  509SOL    HW2 1541   0.691   2.589   2.887
  510SOL     OW 1542   0.302   1.930   2.485
  510SOL    HW1 1543   0.284   2.026   2.510
  510SOL    HW2 1544   0.309   1.876   2.569
  511SOL     OW 1545   1.616   2.235   2.232
  511SOL    HW1 1546   1.644   2.166   2.298
  511SOL    HW2 1547   1.589   2.318   2.280
  512SOL     OW 1548   1.022   2.618   2.821
  512SOL    HW1 1549   1.027   2.630   2.921
  512SOL    HW2 1550   0.992   2.525   2.800
  513SOL     OW 1551   1.531   2.134   1.992
  513SOL    HW1 1552   1.462   2.065   2.015
  513SOL    HW2 1553   1.566   2.175   2.076
  514SOL     OW 1554   1.295   2.688   1.895
  514SOL    HW1 1555   1.335   2.597   1.904
  514SOL    HW2 1556   1.323   2.729   1.809
  515SOL     OW 1557   0.313   2.673   2.808
  515SOL    HW1 1558   0.411   2.694   2.807
  515SOL    HW2 1559   0.299   2.582   2.845
  516SOL     OW 1560   0.322   2.383   2.867
  516SOL    HW1 1561   0.287   2.291   2.853
  516SOL    HW2 1562   0.405   2.396   2.813
  517SOL     OW 1563   0.984   2.619   0.087
  517SOL    HW1 1564   1.033   2.608   0.173
  517SOL    HW2 1565   0.887   2.634   0.106
  518SOL     OW 1566   0.817   2.432   2.214
  518SOL    HW1 1567   0.821   2.352   2.154
  518SOL    HW2 1568   0.739   2.489   2.188
  519SOL     OW 1569   0.701   2.313   0.102
  519SOL    HW1 1570   0.618   2.259   0.090
  519SOL    HW2 1571   0.704   2.386   0.034
  520SOL     OW 1572   0.465   2.358   2.050
  520SOL    HW1 1573   0.531   2.430   2.072
  520SOL    HW2 1574   0.373   2.398   2.044
  521SOL     OW 1575   1.301   2.725   2.168
  521SOL    HW1 1576   1.226   2.686   2.221
  521SOL    HW2 1577   1.288   2.704   2.071
  522SOL     OW 1578   1.717   2.002   2.370
  522SOL    HW1 1579   1.795   1.994   2.309
  522SOL    HW2 1580   1.701   1.914   2.415
  523SOL     OW 1581   1.294   2.795   2.543
  523SOL    HW1 1582   1.363   2.723   2.546
  523SOL    HW2 1583   1.306   2.849   2.460
  524SOL     OW 1584   1.841   2.039   2.820
  524SOL    HW1 1585   1.876   1.948   2.797
  524SOL    HW2 1586   1.747   2.048   2.787
  525SOL     OW 1587   0.269   2.181   2.577
  525SOL    HW1 1588   0.182   2.221   2.550
  525SOL    HW2 1589   0.269   2.165   2.676
  526SOL     OW 1590   0.907   2.758   2.115
  526SOL    HW1 1591   0.983   2.810   2.076
  526SOL    HW2 1592   0.939   2.706   2.194
  527SOL     OW 1593   1.034   2.107   2.806
  527SOL    HW1 1594   1.020   2.049   2.725
  527SOL    HW2 1595   1.012   2.055   2.888
  528SOL     OW 1596   0.092   2.184   1.918
  528SOL    HW1 1597   0.007   2.148   1.881
  528SOL    HW2 1598   0.112   2.273   1.877
  529SOL     OW 1599   0.067   2.058   2.177
  529SOL    HW1 1600   0.066   2.111   2.093
  529SOL    HW2 1601   0.137   1.986   2.171
  530SOL     OW 1602   1.133   0.245   2.001
  530SOL    HW1 1603   1.098   0.162   1.956
  530SOL    HW2 1604   1.215   0.222   2.053
  531SOL     OW 1605   1.727   2.709   0.053
  531SOL    HW1 1606   1.656   2.659   0.102
  531SOL    HW2 1607   1.698   2.804   0.040
  532SOL     OW 1608   1.221   2.180   2.320
  532SOL    HW1 1609   1.286   2.105   2.307
  532SOL    HW2 1610   1.247   2.233   2.401
  533SOL     OW 1611   0.593   2.587   2.523
  533SOL    HW1 1612   0.623   2.682   2.535
  533SOL    HW2 1613   0.518   2.582   2.457
  534SOL     OW 1614   0.883   2.824   2.719
  534SOL    HW1 1615   0.928   2.744   2.759
  534SOL    HW2 1616   0.844   2.881   2.791
  535SOL     OW 1617   1.103   2.873   1.953
  535SOL    HW1 1618   1.056   2.905   1.870
  535SOL    HW2 1619   1.163   2.796   1.930
  536SOL     OW 1620   1.826   2.053   0.093
  536SOL    HW1 1621   1.796   1.960   0.112
  536SOL    HW2 1622   1.831   2.067   2.994
  537SOL     OW 1623   0.428   2.290   2.382
  537SOL    HW1 1624   0.463   2.217   2.325
  537SOL    HW2 1625   0.381   2.251   2.461
  538SOL     OW 1626   1.349   1.915   2.027
  538SOL    HW1 1627   1.384   1.859   1.952
  538SOL    HW2 1628   1.260   1.882   2.055
  539SOL     OW 1629   1.296   2.321   2.549
  539SOL    HW1 1630   1.240   2.404   2.555
  539SOL    HW2 1631   1.298   2.276   2.639
  540SOL     OW 1632   1.586   2.077   2.738
  540SOL    HW1 1633   1.500   2.087   2.787
  540SOL    HW2 1634   1.599   2.155   2.676
  541SOL     OW 1635   0.020   2.930   2.155
  541SOL    HW1 1636   0.119   2.923   2.143
  541SOL    HW2 1637   2.991   2.872   2.230
  542SOL     OW 1638   2.092   0.633   0.120
  542SOL    HW1 1639   1.994   0.628   0.141
  542SOL    HW2 1640   2.107   0.599   0.027
  543SOL     OW 1641   2.078   0.284   1.007
  543SOL    HW1 1642   2.113   0.251   1.094
  543SOL    HW2 1643   1.989   0.242   0.989
  544SOL     OW 1644   1.865   0.382   0.642
  544SOL    HW1 1645   1.780   0.411   0.687
  544SOL    HW2 1646   1.845   0.304   0.582
  545SOL     OW 1647   2.427   1.281   1.173
  545SOL    HW1 1648   2.336   1.281   1.131
  545SOL    HW2 1649   2.446   1.372   1.210
  546SOL     OW 1650   2.616   1.145   1.032
  546SOL    HW1 1651   2.546   1.176   1.096
  546SOL    HW2 1652   2.660   1.225   0.989
  547SOL     OW 1653   2.719   0.780   1.815
  547SOL    HW1 1654   2.712   0.849   1.888
  547SOL    HW2 1655   2.744   0.825   1.729
  548SOL     OW 1656   2.546   1.007   0.653
  548SOL    HW1 1657   2.613   0.989   0.725
  548SOL    HW2 1658   2.469   1.059   0.691
  549SOL     OW 1659   2.568   1.156   1.811
  549SOL    HW1 1660   2.620   1.237   1.837
  549SOL    HW2 1661   2.479   1.184   1.773
  550SOL     OW 1662   2.190   1.431   1.067
  550SOL    HW1 1663   2.115   1.390   1.014
  550SOL    HW2 1664   2.249   1.483   1.005
  551SOL     OW 1665   2.311   0.400   1.489
  551SOL    HW1 1666   2.391   0.340   1.493
  551SOL    HW2 1667   2.228   0.346   1.503
  552SOL     OW 1668   2.085   1.714   0.475
  552SOL    HW1 1669   2.104   1.793   0.533
  552SOL    HW2 1670   2.159   1.701   0.410
  553SOL     OW 1671   2.979   1.346   1.692
  553SOL    HW1 1672   0.043   1.349   1.769
  553SOL    HW2 1673   2.933   1.258   1.691
  554SOL     OW 1674   2.085   1.442   0.536
  554SOL    HW1 1675   2.076   1.542   0.541
  554SOL    HW2 1676   2.024   1.399   0.602
  555SOL     OW 1677   2.116   1.089   0.893
  555SOL    HW1 1678   2.117   0.997   0.933
  555SOL    HW2 1679   2.058   1.149   0.948
  556SOL     OW 1680   2.475   1.792   1.433
  556SOL    HW1 1681   2.388   1.770   1.478
  556SOL    HW2 1682   2.502   1.886   1.455
  557SOL     OW 1683   2.455   0.976   0.148
  557SOL    HW1 1684   2.473   1.049   0.082
  557SOL    HW2 1685   2.493   1.002   0.237
  558SOL     OW 1686   1.978   0.647   0.564
  558SOL    HW1 1687   1.933   0.559   0.584
  558SOL    HW2 1688   1.972   0.706   0.644
  559SOL     OW 1689   1.873   1.587   0.123
  559SOL    HW1 1690   1.888   1.492   0.149
  559SOL    HW2 1691   1.878   1.645   0.205
  560SOL     OW 1692   1.982   0.742   1.586
  560SOL    HW1 1693   2.079   0.758   1.602
  560SOL    HW2 1694   1.932   0.829   1.593
  561SOL     OW 1695   2.471   1.383   0.734
  561SOL    HW1 1696   2.425   1.295   0.746
  561SOL    HW2 1697   2.457   1.415   0.640
  562SOL     OW 1698   2.681   0.016   0.513
  562SOL    HW1 1699   2.713   0.109   0.496
  562SOL    HW2 1700   2.582   0.013   0.501
  563SOL     OW 1701   2.055   0.970   1.263
  563SOL    HW1 1702   2.143   0.924   1.252
  563SOL    HW2 1703   1.982   0.909   1.231
  564SOL     OW 1704   2.187   0.254   1.802
  564SOL    HW1 1705   2.244   0.333   1.822
  564SOL    HW2 1706   2.096   0.267   1.843
  565SOL     OW 1707   2.454   0.722   0.267
  565SOL    HW1 1708   2.464   0.806   0.214
  565SOL    HW2 1709   2.386   0.736   0.340
  566SOL     OW 1710   2.650   0.624   1.455
  566SOL    HW1 1711   2.626   0.599   1.548
  566SOL    HW2 1712   2.611   0.557   1.391
  567SOL     OW 1713   2.832   0.883   1.572
  567SOL    HW1 1714   2.861   0.791   1.544
  567SOL    HW2 1715   2.779   0.925   1.498
  568SOL     OW 1716   2.846   0.377   1.260
  568SOL    HW1 1717   2.771   0.433   1.294
  568SOL    HW2 1718   2.840   0.371   1.160
  569SOL     OW 1719   2.892   0.713   0.409
  569SOL    HW1 1720   2.935   0.700   0.499
  569SOL    HW2 1721   2.813   0.652   0.402
  570SOL     OW 1722   1.953   0.822   0.775
  570SOL    HW1 1723   2.039   0.809   0.824
  570SOL    HW2 1724   1.905   0.903   0.810
  571SOL     OW 1725   1.993   1.843   1.578
  571SOL    HW1 1726   1.989   1.820   1.675
  571SOL    HW2 1727   1.900   1.846   1.541
  572SOL     OW 1728   2.781   0.342   0.218
  572SOL    HW1 1729   2.772   0.403   0.139
  572SOL    HW2 1730   2.771   0.247   0.189
  573SOL     OW 1731   2.379   0.198   0.913
  573SOL    HW1 1732   2.398   0.211   1.010
  573SOL    HW2 1733   2.406   0.280   0.862
  574SOL     OW 1734   2.857   1.443   0.468
  574SOL    HW1 1735   2.824   1.524   0.419
  574SOL    HW2 1736   2.864   1.463   0.565
  575SOL     OW 1737   2.217   1.806   0.857
  575SOL    HW1 1738   2.262   1.717   0.868
  575SOL    HW2 1739   2.284   1.879   0.874
  576SOL     OW 1740   2.182   0.952   0.242
  576SOL    HW1 1741   2.271   0.971   0.201
  576SOL    HW2 1742   2.149   0.863   0.209
  577SOL     OW 1743   2.325   1.260   1.734
  577SOL    HW1 1744   2.297   1.267   1.638
  577SOL    HW2 1745   2.243   1.260   1.792
  578SOL     OW 1746   2.063   0.294   1.498
  578SOL    HW1 1747   1.978   0.346   1.492
  578SOL    HW2 1748   2.053   0.222   1.567
  579SOL     OW 1749   2.329   1.725   0.331
  579SOL    HW1 1750   2.360   1.797   0.394
  579SOL    HW2 1751   2.398   1.710   0.261
  580SOL     OW 1752   2.120   1.793   1.232
  580SOL    HW1 1753   2.172   1.726   1.284
  580SOL    HW2 1754   2.100   1.756   1.141
  581SOL     OW 1755   2.799   1.696   0.900
  581SOL    HW1 1756   2.866   1.630   0.935
  581SOL    HW2 1757   2.749   1.655   0.824
  582SOL     OW 1758   2.254   0.688   0.477
  582SOL    HW1 1759   2.289   0.596   0.493
  582SOL    HW2 1760   2.157   0.691   0.500
  583SOL     OW 1761   2.476   0.106   0.105
  583SOL    HW1 1762   2.574   0.112   0.121
  583SOL    HW2 1763   2.455   0.139   0.013
  584SOL     OW 1764   2.634   0.276   1.754
  584SOL    HW1 1765   2.706   0.208   1.767
  584SOL    HW2 1766   2.573   0.275   1.834
  585SOL     OW 1767   2.740   1.514   1.192
  585SOL    HW1 1768   2.718   1.482   1.100
  585SOL    HW2 1769   2.805   1.452   1.234
  586SOL     OW 1770   2.670   1.403   0.935
  586SOL    HW1 1771   2.759   1.389   0.892
  586SOL    HW2 1772   2.598   1.396   0.866
  587SOL     OW 1773   2.784   0.504   0.903
  587SOL    HW1 1774   2.754   0.495   0.808
  587SOL    HW2 1775   2.828   0.419   0.933
  588SOL     OW 1776   2.399   0.048   0.496
  588SOL    HW1 1777   2.311   0.037   0.542
  588SOL    HW2 1778   2.398   0.132   0.440
  589SOL     OW 1779   0.319   1.153   0.046
  589SOL    HW1 1780   0.312   1.090   0.123
  589SOL    HW2 1781   0.249   1.224   0.056
  590SOL     OW 1782   2.161   0.085   0.188
  590SOL    HW1 1783   2.243   0.143   0.196
  590SOL    HW2 1784   2.186   2.990   0.206
  591SOL     OW 1785   2.823   0.246   0.467
  591SOL    HW1 1786   2.775   0.298   0.396
  591SOL    HW2 1787   2.905   0.205   0.428
  592SOL     OW 1788   0.081   1.578   0.799
  592SOL    HW1 1789   0.105   1.620   0.711
  592SOL    HW2 1790   0.164   1.551   0.847
  593SOL     OW 1791   2.326   1.146   0.736
  593SOL    HW1 1792   2.255   1.128   0.803
  593SOL    HW2 1793   2.290   1.132   0.644
  594SOL     OW 1794   2.889   0.510   0.024
  594SOL    HW1 1795   2.841   0.595   0.002
  594SOL    HW2 1796   2.945   0.524   0.105
  595SOL     OW 1797   1.939   0.558   1.390
  595SOL    HW1 1798   2.034   0.551   1.358
  595SOL    HW2 1799   1.933   0.630   1.459
  596SOL     OW 1800   2.427   0.216   1.180
  596SOL    HW1 1801   2.470   0.161   1.252
  596SOL    HW2 1802   2.330   0.228   1.201
  597SOL     OW 1803   2.743   0.468   0.635
  597SOL    HW1 1804   2.677   0.525   0.586
  597SOL    HW2 1805   2.741   0.375   0.599
  598SOL     OW 1806   2.860   0.055   0.760
  598SOL    HW1 1807   2.820   0.062   0.668
  598SOL    HW2 1808   2.837   2.967   0.800
  599SOL     OW 1809   2.350   1.400   0.153
  599SOL    HW1 1810   2.282   1.372   0.220
  599SOL    HW2 1811   2.306   1.410   0.063
  600SOL     OW 1812   2.393   0.263   0.322
  600SOL    HW1 1813   2.435   0.207   0.251
  600SOL    HW2 1814   2.364   0.350   0.284
  601SOL     OW 1815   2.778   0.113   1.400
  601SOL    HW1 1816   2.806   0.095   1.306
  601SOL    HW2 1817   2.842   0.176   1.443
  602SOL     OW 1818   2.838   1.108   1.727
  602SOL    HW1 1819   2.743   1.133   1.741
  602SOL    HW2 1820   2.844   1.037   1.657
  603SOL     OW 1821   2.566   1.059   0.379
  603SOL    HW1 1822   2.547   1.049   0.477
  603SOL    HW2 1823   2.653   1.017   0.357
  604SOL     OW 1824   2.279   0.812   1.253
  604SOL    HW1 1825   2.353   0.827   1.319
  604SOL    HW2 1826   2.239   0.721   1.267
  605SOL     OW 1827   1.930   1.572   1.344
  605SOL    HW1 1828   1.891   1.651   1.297
  605SOL    HW2 1829   2.029   1.579   1.343
  606SOL     OW 1830   2.219   1.109   0.489
  606SOL    HW1 1831   2.216   1.189   0.430
  606SOL    HW2 1832   2.215   1.026   0.432
  607SOL     OW 1833   2.418   0.547   0.864
  607SOL    HW1 1834   2.435   0.602   0.783
  607SOL    HW2 1835   2.484   0.570   0.935
  608SOL     OW 1836   2.213   1.523   1.317
  608SOL    HW1 1837   2.194   1.480   1.229
  608SOL    HW2 1838   2.311   1.539   1.327
  609SOL     OW 1839   2.274   0.745   1.601
  609SOL    HW1 1840   2.336   0.796   1.540
  609SOL    HW2 1841   2.313   0.655   1.620
  610SOL     OW 1842   2.868   0.118   1.759
  610SOL    HW1 1843   2.900   0.200   1.711
  610SOL    HW2 1844   2.904   0.037   1.713
  611SOL     OW 1845   2.364   0.056   1.749
  611SOL    HW1 1846   2.334   2.985   1.685
  611SOL    HW2 1847   2.290   0.123   1.761
  612SOL     OW 1848   2.441   0.872   1.032
  612SOL    HW1 1849   2.480   0.964   1.026
  612SOL    HW2 1850   2.383   0.866   1.113
  613SOL     OW 1851   0.064   0.532   0.272
  613SOL    HW1 1852   0.087   0.445   0.314
  613SOL    HW2 1853   0.028   0.595   0.341
  614SOL     OW 1854   2.161   0.200   1.249
  614SOL    HW1 1855   2.130   0.243   1.334
  614SOL    HW2 1856   2.140   0.102   1.252
  615SOL     OW 1857   1.895   1.311   1.276
  615SOL    HW1 1858   1.930   1.250   1.347
  615SOL    HW2 1859   1.909   1.406   1.304
  616SOL     OW 1860   2.590   0.634   1.060
  616SOL    HW1 1861   2.668   0.612   1.001
  616SOL    HW2 1862   2.557   0.726   1.039
  617SOL     OW 1863   2.169   0.061   0.643
  617SOL    HW1 1864   2.171   0.158   0.666
  617SOL    HW2 1865   2.151   0.007   0.725
  618SOL     OW 1866   2.866   0.768   0.971
  618SOL    HW1 1867   2.895   0.779   1.066
  618SOL    HW2 1868   2.869   0.672   0.946
  619SOL     OW 1869   2.830   1.567   1.701
  619SOL    HW1 1870   2.824   1.612   1.612
  619SOL    HW2 1871   2.890   1.486   1.694
  620SOL     OW 1872   2.216   0.914   1.806
  620SOL    HW1 1873   2.299   0.938   1.857
  620SOL    HW2 1874   2.239   0.851   1.732
  621SOL     OW 1875   2.908   1.343   0.835
  621SOL    HW1 1876   2.909   1.261   0.778
  621SOL    HW2 1877   2.981   1.404   0.806
  622SOL     OW 1878   2.175   0.808   0.946
  622SOL    HW1 1879   2.271   0.836   0.943
  622SOL    HW2 1880   2.168   0.716   0.983
  623SOL     OW 1881   2.197   0.523   1.013
  623SOL    HW1 1882   2.155   0.433   0.999
  623SOL    HW2 1883   2.276   0.533   0.952
  624SOL     OW 1884   2.964   0.369   1.667
  624SOL    HW1 1885   2.907   0.434   1.716
  624SOL    HW2 1886   0.058   0.402   1.663
  625SOL     OW 1887   1.871   1.316   0.182
  625SOL    HW1 1888   1.777   1.335   0.155
  625SOL    HW2 1889   1.875   1.228   0.230
  626SOL     OW 1890   1.954   1.791   0.936
  626SOL    HW1 1891   1.918   1.707   0.894
  626SOL    HW2 1892   2.049   1.804   0.905
  627SOL     OW 1893   2.362   1.574   0.907
  627SOL    HW1 1894   2.431   1.641   0.932
  627SOL    HW2 1895   2.403   1.504   0.848
  628SOL     OW 1896   2.862   0.796   1.249
  628SOL    HW1 1897   2.914   0.735   1.308
  628SOL    HW2 1898   2.769   0.761   1.238
  629SOL     OW 1899   1.898   0.542   1.117
  629SOL    HW1 1900   1.981   0.525   1.065
  629SOL    HW2 1901   1.922   0.553   1.214
  630SOL     OW 1902   2.051   0.520   1.725
  630SOL    HW1 1903   2.110   0.476   1.658
  630SOL    HW2 1904   2.003   0.596   1.682
  631SOL     OW 1905   2.674   0.572   0.349
  631SOL    HW1 1906   2.683   0.489   0.293
  631SOL    HW2 1907   2.590   0.620   0.323
  632SOL     OW 1908   2.121   1.554   1.739
  632SOL    HW1 1909   2.088   1.624   1.803
  632SOL    HW2 1910   2.111   1.464   1.780
  633SOL     OW 1911   2.554   0.461   1.263
  633SOL    HW1 1912   2.507   0.377   1.234
  633SOL    HW2 1913   2.558   0.524   1.186
  634SOL     OW 1914   2.800   1.690   1.460
  634SOL    HW1 1915   2.768   1.635   1.382
  634SOL    HW2 1916   2.776   1.786   1.445
  635SOL     OW 1917   2.313   0.494   0.203
  635SOL    HW1 1918   2.379   0.567   0.222
  635SOL    HW2 1919   2.223   0.535   0.186
  636SOL     OW 1920   2.016   1.135   1.470
  636SOL    HW1 1921   2.019   1.082   1.555
  636SOL    HW2 1922   2.033   1.074   1.392
  637SOL     OW 1923   1.945   1.266   1.013
  637SOL    HW1 1924   1.931   1.276   1.112
  637SOL    HW2 1925   1.874   1.207   0.976
  638SOL     OW 1926   2.538   1.665   1.727
  638SOL    HW1 1927   2.484   1.749   1.723
  638SOL    HW2 1928   2.608   1.668   1.656
  639SOL     OW 1929   2.762   0.085   0.142
  639SOL    HW1 1930   2.800   0.043   0.060
  639SOL    HW2 1931   2.807   0.047   0.223
  640SOL     OW 1932   1.999   1.792   1.845
  640SOL    HW1 1933   1.943   1.724   1.893
  640SOL    HW2 1934   2.051   1.845   1.912
  641SOL     OW 1935   2.679   1.270   1.427
  641SOL    HW1 1936   2.669   1.316   1.515
  641SOL    HW2 1937   2.604   1.296   1.366
  642SOL     OW 1938   2.528   1.609   0.160
  642SOL    HW1 1939   2.540   1.631   0.063
  642SOL    HW2 1940   2.474   1.525   0.169
  643SOL     OW 1941   2.135   0.347   0.751
  643SOL    HW1 1942   2.042   0.370   0.722
  643SOL    HW2 1943   2.132   0.312   0.845
  644SOL     OW 1944   2.689   1.008   1.376
  644SOL    HW1 1945   2.736   0.994   1.289
  644SOL    HW2 1946   2.689   1.105   1.399
  645SOL     OW 1947   2.794   0.943   0.309
  645SOL    HW1 1948   2.839   0.957   0.221
  645SOL    HW2 1949   2.824   0.857   0.350
  646SOL     OW 1950   2.230   1.301   1.490
  646SOL    HW1 1951   2.220   1.384   1.434
  646SOL    HW2 1952   2.151   1.242   1.476
  647SOL     OW 1953   2.913   1.085   0.723
  647SOL    HW1 1954   2.834   1.040   0.766
  647SOL    HW2 1955   2.938   1.036   0.639
  648SOL     OW 1956   2.879   0.237   0.970
  648SOL    HW1 1957   2.875   0.187   0.883
  648SOL    HW2 1958   2.871   0.172   1.046
  649SOL     OW 1959   2.459   1.486   0.483
  649SOL    HW1 1960   2.507   1.434   0.413
  649SOL    HW2 1961   2.400   1.554   0.439
  650SOL     OW 1962   2.128   1.336   0.298
  650SOL    HW1 1963   2.041   1.339   0.250
  650SOL    HW2 1964   2.118   1.381   0.387
  651SOL     OW 1965   1.976   1.017   1.720
  651SOL    HW1 1966   1.894   0.997   1.773
  651SOL    HW2 1967   2.056   0.980   1.767
  652SOL     OW 1968   2.530   0.210   1.492
  652SOL    HW1 1969   2.615   0.182   1.448
  652SOL    HW2 1970   2.547   0.224   1.590
  653SOL     OW 1971   1.913   0.196   0.328
  653SOL    HW1 1972   1.882   0.238   0.243
  653SOL    HW2 1973   2.003   0.157   0.315
  654SOL     OW 1974   2.480   0.836   1.431
  654SOL    HW1 1975   2.536   0.917   1.417
  654SOL    HW2 1976   2.538   0.755   1.440
  655SOL     OW 1977   2.580   0.563   1.706
  655SOL    HW1 1978   2.614   0.633   1.769
  655SOL    HW2 1979   2.617   0.474   1.733
  656SOL     OW 1980   2.244   1.739   1.563
  656SOL    HW1 1981   2.156   1.784   1.552
  656SOL    HW2 1982   2.231   1.651   1.609
  657SOL     OW 1983   2.457   0.741   0.661
  657SOL    HW1 1984   2.496   0.832   0.653
  657SOL    HW2 1985   2.379   0.732   0.598
  658SOL     OW 1986   2.764   1.380   0.064
  658SOL    HW1 1987   2.690   1.383   0.131
  658SOL    HW2 1988   2.736   1.427   2.981
  659SOL     OW 1989   2.522   1.796   0.950
  659SOL    HW1 1990   2.495   1.888   0.923
  659SOL    HW2 1991   2.620   1.784   0.936
  660SOL     OW 1992   2.718   0.962   0.859
  660SOL    HW1 1993   2.768   0.885   0.899
  660SOL    HW2 1994   2.684   1.022   0.931
  661SOL     OW 1995   2.956   1.017   0.075
  661SOL    HW1 1996   2.924   1.059   2.990
  661SOL    HW2 1997   0.018   0.942   0.053
  662SOL     OW 1998   2.088   1.305   1.856
  662SOL    HW1 1999   2.016   1.244   1.822
  662SOL    HW2 2000   2.074   1.320   1.954
  663SOL     OW 2001   1.944   1.235   0.662
  663SOL    HW1 2002   1.946   1.184   0.749
  663SOL    HW2 2003   2.016   1.200   0.602
  664SOL     OW 2004   2.539   1.403   1.627
  664SOL    HW1 2005   2.458   1.352   1.656
  664SOL    HW2 2006   2.536   1.495   1.667
  665SOL     OW 2007   2.337   0.431   0.550
  665SOL    HW1 2008   2.327   0.371   0.470
  665SOL    HW2 2009   2.269   0.407   0.619
  666SOL     OW 2010   2.188   0.550   1.289
  666SOL    HW1 2011   2.248   0.498   1.350
  666SOL    HW2 2012   2.210   0.528   1.194
  667SOL     OW 2013   2.682   1.585   0.682
  667SOL    HW1 2014   2.688   1.618   0.588
  667SOL    HW2 2015   2.604   1.523   0.689
  668SOL     OW 2016   2.852   0.021   1.150
  668SOL    HW1 2017   2.811   2.948   1.095
  668SOL    HW2 2018   2.949   3.000   1.166
  669SOL     OW 2019   2.629   1.329   0.315
  669SOL    HW1 2020   2.598   1.235   0.331
  669SOL    HW2 2021   2.717   1.343   0.360
  670SOL     OW 2022   2.485   1.562   1.285
  670SOL    HW1 2023   2.485   1.646   1.339
  670SOL    HW2 2024   2.575   1.548   1.244
  671SOL     OW 2025   1.904   1.074   0.305
  671SOL    HW1 2026   2.002   1.072   0.286
  671SOL    HW2 2027   1.873   0.981   0.328
  672SOL     OW 2028   2.735   1.652   0.348
  672SOL    HW1 2029   2.665   1.630   0.280
  672SOL    HW2 2030   2.708   1.733   0.400
  673SOL     OW 2031   2.091   0.621   1.983
  673SOL    HW1 2032   1.999   0.624   2.022
  673SOL    HW2 2033   2.086   0.595   1.887
  674SOL     OW 2034   2.085   0.277   2.878
  674SOL    HW1 2035   2.108   0.239   2.968
  674SOL    HW2 2036   1.996   0.242   2.849
  675SOL     OW 2037   1.865   0.382   2.503
  675SOL    HW1 2038   1.781   0.414   2.547
  675SOL    HW2 2039   1.844   0.304   2.445
  676SOL     OW 2040   2.614   1.149   2.891
  676SOL    HW1 2041   2.549   1.185   2.957
  676SOL    HW2 2042   2.662   1.224   2.846
  677SOL     OW 2043   2.546   1.008   2.512
  677SOL    HW1 2044   2.612   0.989   2.586
  677SOL    HW2 2045   2.469   1.059   2.550
  678SOL     OW 2046   2.205   1.432   2.928
  678SOL    HW1 2047   2.122   1.396   2.886
  678SOL    HW2 2048   2.254   1.488   2.862
  679SOL     OW 2049   2.084   1.712   2.339
  679SOL    HW1 2050   2.105   1.793   2.394
  679SOL    HW2 2051   2.152   1.703   2.266
  680SOL     OW 2052   2.092   1.440   2.397
  680SOL    HW1 2053   2.078   1.539   2.400
  680SOL    HW2 2054   2.028   1.396   2.460
  681SOL     OW 2055   2.118   1.092   2.759
  681SOL    HW1 2056   2.112   0.998   2.794
  681SOL    HW2 2057   2.056   1.150   2.811
  682SOL     OW 2058   2.455   0.980   1.994
  682SOL    HW1 2059   2.495   1.036   1.921
  682SOL    HW2 2060   2.493   1.008   2.082
  683SOL     OW 2061   1.979   0.647   2.427
  683SOL    HW1 2062   1.932   0.560   2.445
  683SOL    HW2 2063   1.972   0.706   2.507
  684SOL     OW 2064   1.886   1.597   1.988
  684SOL    HW1 2065   1.874   1.500   2.005
  684SOL    HW2 2066   1.866   1.648   2.071
  685SOL     OW 2067   2.468   1.381   2.592
  685SOL    HW1 2068   2.420   1.294   2.604
  685SOL    HW2 2069   2.455   1.414   2.499
  686SOL     OW 2070   2.682   0.015   2.373
  686SOL    HW1 2071   2.715   0.108   2.354
  686SOL    HW2 2072   2.583   0.012   2.362
  687SOL     OW 2073   2.458   0.726   2.127
  687SOL    HW1 2074   2.467   0.806   2.068
  687SOL    HW2 2075   2.388   0.742   2.197
  688SOL     OW 2076   2.891   0.707   2.281
  688SOL    HW1 2077   2.928   0.693   2.372
  688SOL    HW2 2078   2.811   0.648   2.268
  689SOL     OW 2079   1.953   0.822   2.636
  689SOL    HW1 2080   2.037   0.809   2.688
  689SOL    HW2 2081   1.903   0.901   2.672
  690SOL     OW 2082   2.738   0.348   2.052
  690SOL    HW1 2083   2.790   0.412   1.996
  690SOL    HW2 2084   2.772   0.256   2.038
  691SOL     OW 2085   2.413   0.202   2.823
  691SOL    HW1 2086   2.365   0.266   2.883
  691SOL    HW2 2087   2.427   0.244   2.734
  692SOL     OW 2088   2.857   1.441   2.330
  692SOL    HW1 2089   2.823   1.521   2.282
  692SOL    HW2 2090   2.868   1.463   2.428
  693SOL     OW 2091   2.217   1.804   2.717
  693SOL    HW1 2092   2.262   1.715   2.730
  693SOL    HW2 2093   2.283   1.877   2.735
  694SOL     OW 2094   2.187   0.953   2.111
  694SOL    HW1 2095   2.272   0.978   2.065
  694SOL    HW2 2096   2.149   0.870   2.068
  695SOL     OW 2097   2.330   1.738   2.182
  695SOL    HW1 2098   2.367   1.799   2.253
  695SOL    HW2 2099   2.404   1.707   2.122
  696SOL     OW 2100   2.125   1.800   0.102
  696SOL    HW1 2101   2.172   1.733   0.159
  696SOL    HW2 2102   2.079   1.754   0.026
  697SOL     OW 2103   2.794   1.699   2.760
  697SOL    HW1 2104   2.862   1.639   2.802
  697SOL    HW2 2105   2.751   1.651   2.683
  698SOL     OW 2106   2.255   0.688   2.342
  698SOL    HW1 2107   2.289   0.595   2.354
  698SOL    HW2 2108   2.157   0.691   2.362
  699SOL     OW 2109   2.487   0.123   1.972
  699SOL    HW1 2110   2.579   0.084   1.978
  699SOL    HW2 2111   2.446   0.100   1.884
  700SOL     OW 2112   2.663   1.400   2.787
  700SOL    HW1 2113   2.755   1.392   2.747
  700SOL    HW2 2114   2.595   1.394   2.714
  701SOL     OW 2115   2.783   0.518   2.755
  701SOL    HW1 2116   2.754   0.496   2.662
  701SOL    HW2 2117   2.816   0.435   2.800
  702SOL     OW 2118   2.403   0.058   2.362
  702SOL    HW1 2119   2.314   0.041   2.404
  702SOL    HW2 2120   2.397   0.135   2.299
  703SOL     OW 2121   2.151   0.034   2.060
  703SOL    HW1 2122   2.191   0.114   2.016
  703SOL    HW2 2123   2.224   2.971   2.087
  704SOL     OW 2124   2.813   0.250   2.321
  704SOL    HW1 2125   2.756   0.296   2.254
  704SOL    HW2 2126   2.897   0.218   2.277
  705SOL     OW 2127   0.081   1.573   2.661
  705SOL    HW1 2128   0.108   1.622   2.578
  705SOL    HW2 2129   0.163   1.553   2.716
  706SOL     OW 2130   2.327   1.145   2.598
  706SOL    HW1 2131   2.255   1.129   2.666
  706SOL    HW2 2132   2.290   1.129   2.507
  707SOL     OW 2133   2.885   0.552   1.878
  707SOL    HW1 2134   2.837   0.636   1.856
  707SOL    HW2 2135   2.942   0.566   1.959
  708SOL     OW 2136   2.743   0.467   2.494
  708SOL    HW1 2137   2.677   0.524   2.444
  708SOL    HW2 2138   2.744   0.375   2.454
  709SOL     OW 2139   2.857   0.053   2.617
  709SOL    HW1 2140   2.818   0.055   2.526
  709SOL    HW2 2141   2.839   2.965   2.660
  710SOL     OW 2142   2.353   1.412   2.025
  710SOL    HW1 2143   2.274   1.382   2.079
  710SOL    HW2 2144   2.337   1.392   1.928
  711SOL     OW 2145   2.396   0.267   2.182
  711SOL    HW1 2146   2.429   0.207   2.110
  711SOL    HW2 2147   2.371   0.356   2.142
  712SOL     OW 2148   2.570   1.057   2.234
  712SOL    HW1 2149   2.552   1.046   2.332
  712SOL    HW2 2150   2.652   1.006   2.209
  713SOL     OW 2151   2.219   1.106   2.352
  713SOL    HW1 2152   2.220   1.188   2.294
  713SOL    HW2 2153   2.216   1.025   2.295
  714SOL     OW 2154   2.414   0.546   2.729
  714SOL    HW1 2155   2.432   0.598   2.646
  714SOL    HW2 2156   2.481   0.571   2.799
  715SOL     OW 2157   2.439   0.870   2.879
  715SOL    HW1 2158   2.485   0.954   2.851
  715SOL    HW2 2159   2.410   0.878   2.975
  716SOL     OW 2160   0.056   0.532   2.135
  716SOL    HW1 2161   0.085   0.449   2.182
  716SOL    HW2 2162   0.019   0.597   2.201
  717SOL     OW 2163   2.596   0.645   2.916
  717SOL    HW1 2164   2.664   0.615   2.849
  717SOL    HW2 2165   2.555   0.731   2.886
  718SOL     OW 2166   2.174   0.061   2.508
  718SOL    HW1 2167   2.166   0.158   2.532
  718SOL    HW2 2168   2.151   0.006   2.588
  719SOL     OW 2169   2.872   0.774   2.829
  719SOL    HW1 2170   2.883   0.773   2.929
  719SOL    HW2 2171   2.864   0.680   2.796
  720SOL     OW 2172   2.909   1.342   2.697
  720SOL    HW1 2173   2.912   1.262   2.637
  720SOL    HW2 2174   2.979   1.408   2.668
  721SOL     OW 2175   2.173   0.809   2.810
  721SOL    HW1 2176   2.269   0.835   2.806
  721SOL    HW2 2177   2.164   0.715   2.841
  722SOL     OW 2178   2.185   0.532   2.869
  722SOL    HW1 2179   2.144   0.441   2.865
  722SOL    HW2 2180   2.267   0.534   2.812
  723SOL     OW 2181   1.864   1.321   2.057
  723SOL    HW1 2182   1.774   1.338   2.017
  723SOL    HW2 2183   1.868   1.227   2.091
  724SOL     OW 2184   1.953   1.795   2.794
  724SOL    HW1 2185   1.916   1.709   2.760
  724SOL    HW2 2186   2.049   1.803   2.767
  725SOL     OW 2187   2.367   1.578   2.765
  725SOL    HW1 2188   2.438   1.644   2.788
  725SOL    HW2 2189   2.406   1.505   2.709
  726SOL     OW 2190   2.848   0.760   0.101
  726SOL    HW1 2191   2.893   0.743   0.189
  726SOL    HW2 2192   2.749   0.769   0.116
  727SOL     OW 2193   2.671   0.566   2.213
  727SOL    HW1 2194   2.676   0.486   2.154
  727SOL    HW2 2195   2.593   0.623   2.184
  728SOL     OW 2196   2.561   0.440   0.084
  728SOL    HW1 2197   2.464   0.424   0.104
  728SOL    HW2 2198   2.570   0.523   0.028
  729SOL     OW 2199   2.329   0.497   2.053
  729SOL    HW1 2200   2.390   0.574   2.072
  729SOL    HW2 2201   2.236   0.531   2.039
  730SOL     OW 2202   1.943   1.268   2.885
  730SOL    HW1 2203   1.932   1.277   2.984
  730SOL    HW2 2204   1.868   1.212   2.848
  731SOL     OW 2205   2.532   1.615   2.016
  731SOL    HW1 2206   2.545   1.629   1.918
  731SOL    HW2 2207   2.477   1.533   2.030
  732SOL     OW 2208   2.132   0.334   2.613
  732SOL    HW1 2209   2.042   0.368   2.585
  732SOL    HW2 2210   2.129   0.309   2.710
  733SOL     OW 2211   2.787   0.921   2.155
  733SOL    HW1 2212   2.837   0.934   2.069
  733SOL    HW2 2213   2.820   0.838   2.200
  734SOL     OW 2214   2.912   1.081   2.587
  734SOL    HW1 2215   2.830   1.037   2.625
  734SOL    HW2 2216   2.937   1.036   2.501
  735SOL     OW 2217   2.882   0.235   2.820
  735SOL    HW1 2218   2.873   0.188   2.733
  735SOL    HW2 2219   2.882   0.168   2.895
  736SOL     OW 2220   2.460   1.486   2.343
  736SOL    HW1 2221   2.507   1.433   2.272
  736SOL    HW2 2222   2.396   1.550   2.301
  737SOL     OW 2223   2.116   1.349   2.149
  737SOL    HW1 2224   2.020   1.344   2.122
  737SOL    HW2 2225   2.123   1.387   2.241
  738SOL     OW 2226   1.941   0.338   1.898
  738SOL    HW1 2227   1.848   0.311   1.873
  738SOL    HW2 2228   1.969   0.415   1.842
  739SOL     OW 2229   1.901   0.204   2.160
  739SOL    HW1 2230   1.916   0.271   2.087
  739SOL    HW2 2231   1.976   0.138   2.161
  740SOL     OW 2232   2.456   0.741   2.524
  740SOL    HW1 2233   2.496   0.832   2.513
  740SOL    HW2 2234   2.379   0.730   2.462
  741SOL     OW 2235   2.729   1.369   1.897
  741SOL    HW1 2236   2.678   1.398   1.978
  741SOL    HW2 2237   2.749   1.448   1.840
  742SOL     OW 2238   2.526   1.798   2.822
  742SOL    HW1 2239   2.500   1.888   2.787
  742SOL    HW2 2240   2.624   1.782   2.804
  743SOL     OW 2241   2.713   0.960   2.721
  743SOL    HW1 2242   2.769   0.887   2.760
  743SOL    HW2 2243   2.685   1.024   2.793
  744SOL     OW 2244   2.934   0.954   1.930
  744SOL    HW1 2245   2.904   1.032   1.875
  744SOL    HW2 2246   0.031   0.964   1.953
  745SOL     OW 2247   1.945   1.237   2.526
  745SOL    HW1 2248   1.940   1.182   2.609
  745SOL    HW2 2249   2.015   1.198   2.465
  746SOL     OW 2250   2.332   0.428   2.408
  746SOL    HW1 2251   2.323   0.369   2.328
  746SOL    HW2 2252   2.264   0.401   2.477
  747SOL     OW 2253   2.682   1.584   2.540
  747SOL    HW1 2254   2.690   1.618   2.446
  747SOL    HW2 2255   2.602   1.524   2.547
  748SOL     OW 2256   2.634   1.332   2.174
  748SOL    HW1 2257   2.601   1.238   2.182
  748SOL    HW2 2258   2.719   1.342   2.226
  749SOL     OW 2259   1.906   1.072   2.167
  749SOL    HW1 2260   2.004   1.068   2.147
  749SOL    HW2 2261   1.874   0.981   2.192
  750SOL     OW 2262   2.734   1.648   2.210
  750SOL    HW1 2263   2.665   1.630   2.141
  750SOL    HW2 2264   2.712   1.733   2.259
  751SOL     OW 2265   2.089   2.496   0.112
  751SOL    HW1 2266   1.995   2.478   0.139
  751SOL    HW2 2267   2.107   2.455   0.023
  752SOL     OW 2268   2.085   2.142   0.993
  752SOL    HW1 2269   2.118   2.110   1.082
  752SOL    HW2 2270   1.991   2.108   0.978
  753SOL     OW 2271   1.869   2.246   0.636
  753SOL    HW1 2272   1.783   2.271   0.680
  753SOL    HW2 2273   1.856   2.162   0.583
  754SOL     OW 2274   2.601   0.002   1.019
  754SOL    HW1 2275   2.524   0.040   1.070
  754SOL    HW2 2276   2.649   0.075   0.970
  755SOL     OW 2277   2.719   2.640   1.817
  755SOL    HW1 2278   2.717   2.700   1.897
  755SOL    HW2 2279   2.750   2.692   1.737
  756SOL     OW 2280   2.517   2.847   0.708
  756SOL    HW1 2281   2.615   2.853   0.728
  756SOL    HW2 2282   2.486   2.934   0.669
  757SOL     OW 2283   2.307   2.260   1.492
  757SOL    HW1 2284   2.388   2.201   1.493
  757SOL    HW2 2285   2.225   2.204   1.501
  758SOL     OW 2286   2.108   0.303   0.479
  758SOL    HW1 2287   2.069   0.392   0.502
  758SOL    HW2 2288   2.047   0.231   0.511
  759SOL     OW 2289   2.108   2.946   0.883
  759SOL    HW1 2290   2.124   2.855   0.920
  759SOL    HW2 2291   2.063   0.003   0.951
  760SOL     OW 2292   2.479   2.831   0.149
  760SOL    HW1 2293   2.459   2.926   0.124
  760SOL    HW2 2294   2.544   2.828   0.224
  761SOL     OW 2295   1.975   2.512   0.563
  761SOL    HW1 2296   1.947   2.418   0.580
  761SOL    HW2 2297   1.968   2.565   0.647
  762SOL     OW 2298   1.983   2.604   1.585
  762SOL    HW1 2299   2.081   2.616   1.602
  762SOL    HW2 2300   1.936   2.691   1.602
  763SOL     OW 2301   2.521   0.246   0.679
  763SOL    HW1 2302   2.463   0.177   0.724
  763SOL    HW2 2303   2.464   0.306   0.624
  764SOL     OW 2304   2.673   1.866   0.504
  764SOL    HW1 2305   2.716   1.955   0.490
  764SOL    HW2 2306   2.574   1.878   0.516
  765SOL     OW 2307   2.058   2.841   1.256
  765SOL    HW1 2308   2.143   2.789   1.250
  765SOL    HW2 2309   1.981   2.781   1.234
  766SOL     OW 2310   2.192   2.113   1.811
  766SOL    HW1 2311   2.245   2.197   1.821
  766SOL    HW2 2312   2.098   2.129   1.842
  767SOL     OW 2313   2.455   2.582   0.271
  767SOL    HW1 2314   2.466   2.663   0.214
  767SOL    HW2 2315   2.385   2.599   0.340
  768SOL     OW 2316   2.648   2.485   1.453
  768SOL    HW1 2317   2.626   2.460   1.548
  768SOL    HW2 2318   2.610   2.417   1.391
  769SOL     OW 2319   2.827   2.747   1.579
  769SOL    HW1 2320   2.861   2.657   1.550
  769SOL    HW2 2321   2.772   2.787   1.507
  770SOL     OW 2322   2.848   2.240   1.256
  770SOL    HW1 2323   2.769   2.291   1.292
  770SOL    HW2 2324   2.837   2.227   1.158
  771SOL     OW 2325   2.889   2.578   0.412
  771SOL    HW1 2326   2.935   2.562   0.499
  771SOL    HW2 2327   2.812   2.515   0.403
  772SOL     OW 2328   1.948   2.683   0.777
  772SOL    HW1 2329   2.036   2.669   0.822
  772SOL    HW2 2330   1.906   2.768   0.812
  773SOL     OW 2331   2.787   2.196   0.217
  773SOL    HW1 2332   2.785   2.267   0.148
  773SOL    HW2 2333   2.759   2.109   0.177
  774SOL     OW 2334   2.408   2.046   0.894
  774SOL    HW1 2335   2.412   2.070   0.991
  774SOL    HW2 2336   2.413   2.129   0.839
  775SOL     OW 2337   2.062   2.147   1.501
  775SOL    HW1 2338   1.978   2.199   1.488
  775SOL    HW2 2339   2.048   2.078   1.571
  776SOL     OW 2340   2.249   2.553   0.477
  776SOL    HW1 2341   2.278   2.457   0.484
  776SOL    HW2 2342   2.152   2.560   0.498
  777SOL     OW 2343   2.487   1.982   0.116
  777SOL    HW1 2344   2.585   1.964   0.120
  777SOL    HW2 2345   2.449   1.935   0.036
  778SOL     OW 2346   2.631   2.141   1.756
  778SOL    HW1 2347   2.706   2.075   1.765
  778SOL    HW2 2348   2.566   2.128   1.831
  779SOL     OW 2349   2.786   2.365   0.902
  779SOL    HW1 2350   2.757   2.357   0.807
  779SOL    HW2 2351   2.827   2.279   0.932
  780SOL     OW 2352   2.406   1.924   0.504
  780SOL    HW1 2353   2.324   1.924   0.561
  780SOL    HW2 2354   2.406   2.004   0.445
  781SOL     OW 2355   2.809   2.099   0.466
  781SOL    HW1 2356   2.769   2.151   0.390
  781SOL    HW2 2357   2.902   2.071   0.440
  782SOL     OW 2358   2.881   2.380   0.034
  782SOL    HW1 2359   2.841   2.467   0.005
  782SOL    HW2 2360   2.945   2.396   0.109
  783SOL     OW 2361   1.940   2.420   1.389
  783SOL    HW1 2362   2.035   2.413   1.357
  783SOL    HW2 2363   1.934   2.492   1.459
  784SOL     OW 2364   2.423   2.086   1.165
  784SOL    HW1 2365   2.468   2.003   1.198
  784SOL    HW2 2366   2.328   2.087   1.195
  785SOL     OW 2367   2.741   2.320   0.635
  785SOL    HW1 2368   2.684   2.384   0.585
  785SOL    HW2 2369   2.748   2.234   0.584
  786SOL     OW 2370   2.857   1.922   0.756
  786SOL    HW1 2371   2.807   1.907   0.670
  786SOL    HW2 2372   2.851   1.841   0.813
  787SOL     OW 2373   2.382   2.123   0.322
  787SOL    HW1 2374   2.423   2.068   0.249
  787SOL    HW2 2375   2.364   2.215   0.288
  788SOL     OW 2376   2.757   1.950   1.390
  788SOL    HW1 2377   2.780   1.930   1.295
  788SOL    HW2 2378   2.834   1.996   1.434
  789SOL     OW 2379   2.276   2.677   1.255
  789SOL    HW1 2380   2.352   2.688   1.320
  789SOL    HW2 2381   2.237   2.585   1.264
  790SOL     OW 2382   2.419   2.404   0.862
  790SOL    HW1 2383   2.433   2.461   0.782
  790SOL    HW2 2384   2.484   2.429   0.934
  791SOL     OW 2385   2.275   2.604   1.602
  791SOL    HW1 2386   2.337   2.652   1.541
  791SOL    HW2 2387   2.312   2.513   1.622
  792SOL     OW 2388   2.858   1.989   1.770
  792SOL    HW1 2389   2.899   2.051   1.704
  792SOL    HW2 2390   2.900   1.898   1.762
  793SOL     OW 2391   2.358   1.907   1.745
  793SOL    HW1 2392   2.319   1.847   1.675
  793SOL    HW2 2393   2.295   1.983   1.762
  794SOL     OW 2394   2.450   2.728   1.037
  794SOL    HW1 2395   2.470   2.823   1.012
  794SOL    HW2 2396   2.383   2.727   1.111
  795SOL     OW 2397   0.062   2.399   0.272
  795SOL    HW1 2398   0.081   2.313   0.318
  795SOL    HW2 2399   0.028   2.466   0.338
  796SOL     OW 2400   2.163   2.063   1.244
  796SOL    HW1 2401   2.127   2.101   1.330
  796SOL    HW2 2402   2.145   1.965   1.241
  797SOL     OW 2403   2.590   2.492   1.060
  797SOL    HW1 2404   2.668   2.474   1.001
  797SOL    HW2 2405   2.555   2.585   1.042
  798SOL     OW 2406   2.161   1.928   0.625
  798SOL    HW1 2407   2.145   2.023   0.649
  798SOL    HW2 2408   2.171   1.874   0.709
  799SOL     OW 2409   2.858   2.624   0.980
  799SOL    HW1 2410   2.906   2.627   1.068
  799SOL    HW2 2411   2.863   2.532   0.942
  800SOL     OW 2412   2.223   2.786   1.798
  800SOL    HW1 2413   2.290   2.783   1.873
  800SOL    HW2 2414   2.243   2.713   1.733
  801SOL     OW 2415   2.176   2.673   0.947
  801SOL    HW1 2416   2.272   2.695   0.934
  801SOL    HW2 2417   2.167   2.580   0.984
  802SOL     OW 2418   2.195   2.384   1.010
  802SOL    HW1 2419   2.156   2.293   0.996
  802SOL    HW2 2420   2.276   2.394   0.951
  803SOL     OW 2421   2.968   2.242   1.668
  803SOL    HW1 2422   2.909   2.303   1.722
  803SOL    HW2 2423   0.062   2.276   1.670
  804SOL     OW 2424   2.977   2.064   1.472
  804SOL    HW1 2425   2.966   2.138   1.539
  804SOL    HW2 2426   2.984   2.103   1.381
  805SOL     OW 2427   2.856   2.668   1.260
  805SOL    HW1 2428   2.913   2.603   1.309
  805SOL    HW2 2429   2.772   2.623   1.231
  806SOL     OW 2430   1.898   2.409   1.117
  806SOL    HW1 2431   1.980   2.386   1.064
  806SOL    HW2 2432   1.921   2.414   1.214
  807SOL     OW 2433   2.053   2.381   1.724
  807SOL    HW1 2434   2.111   2.337   1.655
  807SOL    HW2 2435   2.001   2.455   1.681
  808SOL     OW 2436   2.671   2.428   0.354
  808SOL    HW1 2437   2.678   2.353   0.289
  808SOL    HW2 2438   2.594   2.487   0.330
  809SOL     OW 2439   2.554   2.319   1.263
  809SOL    HW1 2440   2.505   2.236   1.234
  809SOL    HW2 2441   2.558   2.384   1.187
  810SOL     OW 2442   2.304   2.357   0.211
  810SOL    HW1 2443   2.379   2.422   0.222
  810SOL    HW2 2444   2.220   2.406   0.187
  811SOL     OW 2445   2.017   2.993   1.475
  811SOL    HW1 2446   2.022   2.937   1.558
  811SOL    HW2 2447   2.035   2.936   1.395
  812SOL     OW 2448   2.761   1.937   0.128
  812SOL    HW1 2449   2.813   1.910   0.047
  812SOL    HW2 2450   2.802   1.896   0.210
  813SOL     OW 2451   2.125   2.179   0.719
  813SOL    HW1 2452   2.038   2.218   0.689
  813SOL    HW2 2453   2.124   2.167   0.818
  814SOL     OW 2454   2.674   2.867   1.375
  814SOL    HW1 2455   2.732   2.832   1.301
  814SOL    HW2 2456   2.701   2.960   1.397
  815SOL     OW 2457   2.746   2.782   0.290
  815SOL    HW1 2458   2.826   2.835   0.261
  815SOL    HW2 2459   2.773   2.713   0.357
  816SOL     OW 2460   2.880   2.101   0.968
  816SOL    HW1 2461   2.875   2.054   0.880
  816SOL    HW2 2462   2.869   2.035   1.042
  817SOL     OW 2463   1.974   2.865   1.711
  817SOL    HW1 2464   1.894   2.857   1.770
  817SOL    HW2 2465   2.056   2.843   1.764
  818SOL     OW 2466   2.531   2.062   1.500
  818SOL    HW1 2467   2.615   2.039   1.449
  818SOL    HW2 2468   2.556   2.090   1.593
  819SOL     OW 2469   1.935   2.020   0.339
  819SOL    HW1 2470   1.900   2.070   0.260
  819SOL    HW2 2471   2.030   1.993   0.322
  820SOL     OW 2472   2.476   2.694   1.433
  820SOL    HW1 2473   2.535   2.774   1.416
  820SOL    HW2 2474   2.533   2.613   1.442
  821SOL     OW 2475   2.580   2.425   1.705
  821SOL    HW1 2476   2.614   2.496   1.766
  821SOL    HW2 2477   2.615   2.336   1.735
  822SOL     OW 2478   2.454   2.588   0.660
  822SOL    HW1 2479   2.484   2.683   0.672
  822SOL    HW2 2480   2.379   2.585   0.594
  823SOL     OW 2481   2.752   2.836   0.864
  823SOL    HW1 2482   2.783   2.749   0.900
  823SOL    HW2 2483   2.681   2.874   0.924
  824SOL     OW 2484   2.294   2.292   0.529
  824SOL    HW1 2485   2.324   2.221   0.465
  824SOL    HW2 2486   2.243   2.250   0.603
  825SOL     OW 2487   2.189   2.413   1.288
  825SOL    HW1 2488   2.247   2.359   1.350
  825SOL    HW2 2489   2.210   2.388   1.193
  826SOL     OW 2490   2.866   1.880   1.146
  826SOL    HW1 2491   2.807   1.811   1.104
  826SOL    HW2 2492   2.961   1.860   1.125
  827SOL     OW 2493   1.873   2.915   0.303
  827SOL    HW1 2494   1.961   2.924   0.257
  827SOL    HW2 2495   1.863   2.822   0.339
  828SOL     OW 2496   2.092   2.468   1.983
  828SOL    HW1 2497   2.003   2.492   2.020
  828SOL    HW2 2498   2.084   2.451   1.885
  829SOL     OW 2499   2.088   2.141   2.847
  829SOL    HW1 2500   2.120   2.114   2.938
  829SOL    HW2 2501   1.994   2.109   2.834
  830SOL     OW 2502   1.869   2.246   2.495
  830SOL    HW1 2503   1.784   2.275   2.539
  830SOL    HW2 2504   1.854   2.159   2.448
  831SOL     OW 2505   2.644   0.016   2.880
  831SOL    HW1 2506   2.560   0.019   2.934
  831SOL    HW2 2507   2.648   0.095   2.819
  832SOL     OW 2508   2.516   2.844   2.564
  832SOL    HW1 2509   2.611   2.847   2.596
  832SOL    HW2 2510   2.487   2.934   2.533
  833SOL     OW 2511   2.099   0.298   2.336
  833SOL    HW1 2512   2.064   0.388   2.361
  833SOL    HW2 2513   2.044   0.228   2.382
  834SOL     OW 2514   2.112   2.949   2.749
  834SOL    HW1 2515   2.125   2.856   2.782
  834SOL    HW2 2516   2.059   0.001   2.816
  835SOL     OW 2517   2.467   2.825   1.994
  835SOL    HW1 2518   2.461   2.908   1.940
  835SOL    HW2 2519   2.530   2.839   2.070
  836SOL     OW 2520   1.976   2.512   2.426
  836SOL    HW1 2521   1.947   2.418   2.443
  836SOL    HW2 2522   1.969   2.565   2.510
  837SOL     OW 2523   2.504   0.249   2.561
  837SOL    HW1 2524   2.458   0.160   2.561
  837SOL    HW2 2525   2.464   0.308   2.491
  838SOL     OW 2526   2.673   1.865   2.364
  838SOL    HW1 2527   2.717   1.954   2.351
  838SOL    HW2 2528   2.575   1.879   2.378
  839SOL     OW 2529   2.062   2.807   0.114
  839SOL    HW1 2530   2.135   2.739   0.105
  839SOL    HW2 2531   1.974   2.764   0.092
  840SOL     OW 2532   2.459   2.582   2.129
  840SOL    HW1 2533   2.467   2.661   2.068
  840SOL    HW2 2534   2.389   2.601   2.199
  841SOL     OW 2535   2.895   2.577   2.275
  841SOL    HW1 2536   2.933   2.565   2.367
  841SOL    HW2 2537   2.813   2.520   2.265
  842SOL     OW 2538   1.948   2.685   2.639
  842SOL    HW1 2539   2.035   2.668   2.686
  842SOL    HW2 2540   1.905   2.767   2.676
  843SOL     OW 2541   2.748   2.207   2.060
  843SOL    HW1 2542   2.788   2.275   1.997
  843SOL    HW2 2543   2.752   2.117   2.018
  844SOL     OW 2544   2.410   2.047   2.764
  844SOL    HW1 2545   2.383   2.078   2.855
  844SOL    HW2 2546   2.419   2.126   2.704
  845SOL     OW 2547   2.249   2.552   2.338
  845SOL    HW1 2548   2.278   2.457   2.348
  845SOL    HW2 2549   2.152   2.560   2.360
  846SOL     OW 2550   2.492   1.987   1.966
  846SOL    HW1 2551   2.568   1.925   1.987
  846SOL    HW2 2552   2.441   1.953   1.887
  847SOL     OW 2553   2.785   2.375   2.756
  847SOL    HW1 2554   2.758   2.355   2.662
  847SOL    HW2 2555   2.817   2.291   2.800
  848SOL     OW 2556   2.407   1.925   2.366
  848SOL    HW1 2557   2.324   1.924   2.422
  848SOL    HW2 2558   2.406   2.007   2.308
  849SOL     OW 2559   2.155   1.908   2.046
  849SOL    HW1 2560   2.209   1.982   2.005
  849SOL    HW2 2561   2.217   1.842   2.088
  850SOL     OW 2562   2.805   2.102   2.319
  850SOL    HW1 2563   2.761   2.152   2.244
  850SOL    HW2 2564   2.897   2.075   2.291
  851SOL     OW 2565   2.885   2.414   1.879
  851SOL    HW1 2566   2.835   2.498   1.855
  851SOL    HW2 2567   2.940   2.430   1.960
  852SOL     OW 2568   2.741   2.318   2.495
  852SOL    HW1 2569   2.682   2.383   2.447
  852SOL    HW2 2570   2.746   2.233   2.443
  853SOL     OW 2571   2.855   1.923   2.611
  853SOL    HW1 2572   2.803   1.901   2.528
  853SOL    HW2 2573   2.853   1.845   2.674
  854SOL     OW 2574   2.392   2.126   2.181
  854SOL    HW1 2575   2.429   2.069   2.108
  854SOL    HW2 2576   2.370   2.216   2.146
  855SOL     OW 2577   2.418   2.399   2.724
  855SOL    HW1 2578   2.431   2.457   2.644
  855SOL    HW2 2579   2.479   2.429   2.797
  856SOL     OW 2580   2.435   2.728   2.883
  856SOL    HW1 2581   2.484   2.808   2.847
  856SOL    HW2 2582   2.419   2.741   2.981
  857SOL     OW 2583   0.054   2.392   2.137
  857SOL    HW1 2584   0.090   2.313   2.188
  857SOL    HW2 2585   0.013   2.457   2.201
  858SOL     OW 2586   2.163   2.068   0.090
  858SOL    HW1 2587   2.186   2.109   0.178
  858SOL    HW2 2588   2.152   1.969   0.101
  859SOL     OW 2589   2.591   2.500   2.913
  859SOL    HW1 2590   2.665   2.476   2.849
  859SOL    HW2 2591   2.554   2.590   2.888
  860SOL     OW 2592   2.162   1.928   2.486
  860SOL    HW1 2593   2.144   2.023   2.509
  860SOL    HW2 2594   2.169   1.874   2.570
  861SOL     OW 2595   2.871   2.630   2.825
  861SOL    HW1 2596   2.895   2.637   2.922
  861SOL    HW2 2597   2.865   2.534   2.799
  862SOL     OW 2598   2.173   2.671   2.808
  862SOL    HW1 2599   2.269   2.697   2.809
  862SOL    HW2 2600   2.164   2.576   2.839
  863SOL     OW 2601   2.184   2.394   2.864
  863SOL    HW1 2602   2.145   2.302   2.859
  863SOL    HW2 2603   2.269   2.397   2.811
  864SOL     OW 2604   2.878   2.645   0.093
  864SOL    HW1 2605   2.922   2.635   0.182
  864SOL    HW2 2606   2.781   2.667   0.106
  865SOL     OW 2607   2.675   2.430   2.215
  865SOL    HW1 2608   2.678   2.349   2.156
  865SOL    HW2 2609   2.597   2.487   2.188
  866SOL     OW 2610   2.565   2.311   0.101
  866SOL    HW1 2611   2.478   2.262   0.091
  866SOL    HW2 2612   2.569   2.385   0.034
  867SOL     OW 2613   2.330   2.356   2.053
  867SOL    HW1 2614   2.390   2.433   2.075
  867SOL    HW2 2615   2.238   2.389   2.038
  868SOL     OW 2616   0.167   2.701   2.164
  868SOL    HW1 2617   0.100   2.650   2.217
  868SOL    HW2 2618   0.198   2.646   2.086
  869SOL     OW 2619   2.126   2.180   2.578
  869SOL    HW1 2620   2.038   2.219   2.549
  869SOL    HW2 2621   2.125   2.169   2.678
  870SOL     OW 2622   2.762   2.762   2.115
  870SOL    HW1 2623   2.838   2.816   2.079
  870SOL    HW2 2624   2.795   2.701   2.187
  871SOL     OW 2625   2.878   2.100   2.819
  871SOL    HW1 2626   2.871   2.055   2.731
  871SOL    HW2 2627   2.898   2.033   2.890
  872SOL     OW 2628   1.940   2.196   1.894
  872SOL    HW1 2629   1.848   2.173   1.864
  872SOL    HW2 2630   1.973   2.276   1.845
  873SOL     OW 2631   1.932   2.020   2.175
  873SOL    HW1 2632   1.914   2.105   2.124
  873SOL    HW2 2633   2.020   1.983   2.147
  874SOL     OW 2634   2.455   2.585   2.520
  874SOL    HW1 2635   2.485   2.680   2.532
  874SOL    HW2 2636   2.378   2.583   2.456
  875SOL     OW 2637   2.742   2.831   2.716
  875SOL    HW1 2638   2.786   2.750   2.754
  875SOL    HW2 2639   2.705   2.886   2.790
  876SOL     OW 2640   2.946   2.834   1.900
  876SOL    HW1 2641   2.912   2.928   1.906
  876SOL    HW2 2642   0.014   2.818   1.971
  877SOL     OW 2643   2.295   2.291   2.387
  877SOL    HW1 2644   2.323   2.219   2.325
  877SOL    HW2 2645   2.243   2.252   2.463
  878SOL     OW 2646   1.888   2.917   2.172
  878SOL    HW1 2647   1.976   2.932   2.129
  878SOL    HW2 2648   1.879   2.821   2.197
   3.00000   3.00000   3.00000
