Protein in water
16090
    1LYS      N    1   2.624   1.210   2.621
    1LYS     H1    2   2.578   1.128   2.586
    1LYS     H2    3   2.709   1.223   2.569
    1LYS     H3    4   2.648   1.195   2.717
    1LYS     CA    5   2.536   1.327   2.609
    1LYS     CB    6   2.416   1.305   2.703
    1LYS     CG    7   2.298   1.401   2.680
    1LYS     CD    8   2.192   1.387   2.789
    1LYS     CE    9   2.243   1.433   2.925
    1LYS     NZ   10   2.232   1.328   3.028
    1LYS    HZ1   11   2.285   1.356   3.109
    1LYS    HZ2   12   2.135   1.318   3.055
    1LYS    HZ3   13   2.265   1.241   2.993
    1LYS      C   14   2.611   1.453   2.654
    1LYS      O   15   2.702   1.443   2.735
    2GLU      N   16   2.568   1.569   2.604
    2GLU      H   17   2.519   1.571   2.515
    2GLU     CA   18   2.607   1.702   2.656
    2GLU     CB   19   2.524   1.807   2.583
    2GLU     CG   20   2.564   1.951   2.618
    2GLU     CD   21   2.456   2.054   2.582
    2GLU    OE1   22   2.336   2.025   2.595
    2GLU    OE2   23   2.494   2.164   2.540
    2GLU      C   24   2.577   1.712   2.808
    2GLU      O   25   2.472   1.670   2.856
    3THR      N   26   2.676   1.764   2.880
    3THR      H   27   2.764   1.788   2.838
    3THR     CA   28   2.668   1.792   3.025
    3THR     CB   29   2.806   1.788   3.090
    3THR    OG1   30   2.896   1.877   3.020
    3THR    HG1   31   2.985   1.828   2.999
    3THR    CG2   32   2.857   1.644   3.100
    3THR      C   33   2.602   1.927   3.059
    3THR      O   34   2.581   2.012   2.972
    4ALA      N   35   2.563   1.942   3.185
    4ALA      H   36   2.559   1.865   3.249
    4ALA     CA   37   2.513   2.071   3.239
    4ALA     CB   38   2.466   2.051   3.383
    4ALA      C   39   2.618   2.184   3.233
    4ALA      O   40   2.582   2.299   3.209
    5ALA      N   41   2.744   2.147   3.255
    5ALA      H   42   2.763   2.074   3.321
    5ALA     CA   43   2.862   2.231   3.225
    5ALA     CB   44   2.988   2.147   3.252
    5ALA      C   45   2.865   2.288   3.082
    5ALA      O   46   2.837   2.407   3.065
    6ALA      N   47   2.864   2.199   2.983
    6ALA      H   48   2.884   2.102   3.000
    6ALA     CA   49   2.860   2.238   2.840
    6ALA     CB   50   2.867   2.113   2.754
    6ALA      C   51   2.738   2.324   2.800
    6ALA      O   52   2.754   2.432   2.743
    7LYS      N   53   2.621   2.286   2.852
    7LYS      H   54   2.610   2.194   2.891
    7LYS     CA   55   2.496   2.363   2.832
    7LYS     CB   56   2.377   2.283   2.887
    7LYS     CG   57   2.249   2.312   2.808
    7LYS     CD   58   2.136   2.216   2.846
    7LYS     CE   59   2.023   2.225   2.744
    7LYS     NZ   60   1.917   2.125   2.763
    7LYS    HZ1   61   1.845   2.140   2.695
    7LYS    HZ2   62   1.953   2.032   2.752
    7LYS    HZ3   63   1.876   2.133   2.854
    7LYS      C   64   2.498   2.505   2.891
    7LYS      O   65   2.437   2.596   2.834
    8PHE      N   66   2.567   2.524   3.003
    8PHE      H   67   2.616   2.449   3.050
    8PHE     CA   68   2.588   2.658   3.062
    8PHE     CB   69   2.649   2.647   3.203
    8PHE     CG   70   2.668   2.781   3.273
    8PHE    CD1   71   2.562   2.840   3.341
    8PHE    HD1   72   2.474   2.780   3.366
    8PHE    CD2   73   2.787   2.853   3.258
    8PHE    HD2   74   2.876   2.803   3.218
    8PHE    CE1   75   2.571   2.971   3.386
    8PHE    HE1   76   2.484   3.019   3.430
    8PHE    CE2   77   2.797   2.983   3.305
    8PHE    HE2   78   2.891   3.037   3.294
    8PHE     CZ   79   2.689   3.043   3.368
    8PHE     HZ   80   2.696   3.146   3.403
    8PHE      C   81   2.675   2.745   2.970
    8PHE      O   82   2.621   2.838   2.910
    9GLU      N   83   2.793   2.692   2.934
    9GLU      H   84   2.826   2.606   2.974
    9GLU     CA   85   2.888   2.761   2.844
    9GLU     CB   86   3.011   2.675   2.814
    9GLU     CG   87   3.097   2.633   2.934
    9GLU     CD   88   3.221   2.554   2.888
    9GLU    OE1   89   3.316   2.545   2.968
    9GLU    OE2   90   3.219   2.493   2.779
    9GLU      C   91   2.826   2.801   2.709
    9GLU      O   92   2.801   2.919   2.687
   10ARG      N   93   2.770   2.701   2.640
   10ARG      H   94   2.776   2.606   2.674
   10ARG     CA   95   2.710   2.717   2.506
   10ARG     CB   96   2.664   2.578   2.457
   10ARG     CG   97   2.613   2.579   2.313
   10ARG     CD   98   2.578   2.440   2.259
   10ARG     NE   99   2.470   2.376   2.337
   10ARG     HE  100   2.502   2.303   2.400
   10ARG     CZ  101   2.339   2.400   2.334
   10ARG    NH1  102   2.259   2.328   2.412
   10ARG   HH11  103   2.298   2.256   2.471
   10ARG   HH12  104   2.160   2.349   2.416
   10ARG    NH2  105   2.284   2.496   2.259
   10ARG   HH21  106   2.340   2.558   2.204
   10ARG   HH22  107   2.184   2.504   2.252
   10ARG      C  108   2.596   2.820   2.496
   10ARG      O  109   2.589   2.894   2.398
   11GLN      N  110   2.509   2.824   2.597
   11GLN      H  111   2.516   2.761   2.675
   11GLN     CA  112   2.396   2.920   2.602
   11GLN     CB  113   2.274   2.860   2.671
   11GLN     CG  114   2.210   2.741   2.599
   11GLN     CD  115   2.064   2.719   2.640
   11GLN    OE1  116   1.980   2.677   2.562
   11GLN    NE2  117   2.032   2.732   2.767
   11GLN   HE21  118   2.103   2.737   2.839
   11GLN   HE22  119   1.941   2.772   2.788
   11GLN      C  120   2.426   3.056   2.669
   11GLN      O  121   2.369   3.159   2.629
   12HIS      N  122   2.511   3.056   2.771
   12HIS      H  123   2.553   2.971   2.806
   12HIS     CA  124   2.530   3.174   2.858
   12HIS     CB  125   2.502   3.137   3.004
   12HIS     CG  126   2.360   3.084   3.026
   12HIS    ND1  127   2.247   3.127   2.970
   12HIS    CD2  128   2.330   2.985   3.109
   12HIS    HD2  129   2.402   2.925   3.165
   12HIS    CE1  130   2.148   3.054   3.022
   12HIS    HE1  131   2.043   3.059   2.993
   12HIS    NE2  132   2.199   2.968   3.109
   12HIS    HE2  133   2.147   2.913   3.175
   12HIS      C  134   2.664   3.247   2.852
   12HIS      O  135   2.674   3.362   2.897
   13MET      N  136   2.768   3.182   2.801
   13MET      H  137   2.760   3.092   2.755
   13MET     CA  138   2.902   3.242   2.796
   13MET     CB  139   3.007   3.148   2.855
   13MET     CG  140   3.014   3.155   3.008
   13MET     SD  141   3.076   3.315   3.072
   13MET     CE  142   3.234   3.324   2.989
   13MET      C  143   2.948   3.287   2.657
   13MET      O  144   2.922   3.221   2.556
   14ASP      N  145   2.997   3.410   2.655
   14ASP      H  146   2.960   3.482   2.713
   14ASP     CA  147   3.094   3.455   2.554
   14ASP     CB  148   3.035   3.557   2.456
   14ASP     CG  149   3.133   3.593   2.343
   14ASP    OD1  150   3.219   3.508   2.311
   14ASP    OD2  151   3.126   3.708   2.294
   14ASP      C  152   3.216   3.514   2.625
   14ASP      O  153   3.205   3.582   2.727
   15SER      N  154   3.331   3.465   2.580
   15SER      H  155   3.329   3.402   2.502
   15SER     CA  156   3.463   3.515   2.624
   15SER     CB  157   3.545   3.406   2.694
   15SER     OG  158   3.512   3.397   2.834
   15SER     HG  159   3.525   3.302   2.864
   15SER      C  160   3.547   3.581   2.514
   15SER      O  161   3.666   3.603   2.535
   16SER      N  162   3.488   3.608   2.397
   16SER      H  163   3.392   3.582   2.374
   16SER     CA  164   3.560   3.678   2.288
   16SER     CB  165   3.547   3.609   2.151
   16SER     OG  166   3.416   3.628   2.097
   16SER     HG  167   3.398   3.557   2.024
   16SER      C  168   3.530   3.828   2.273
   16SER      O  169   3.623   3.904   2.246
   17THR      N  170   3.405   3.872   2.290
   17THR      H  171   3.326   3.809   2.291
   17THR     CA  172   3.377   4.018   2.290
   17THR     CB  173   3.247   4.053   2.215
   17THR    OG1  174   3.255   4.191   2.173
   17THR    HG1  175   3.164   4.238   2.189
   17THR    CG2  176   3.120   4.027   2.296
   17THR      C  177   3.384   4.084   2.429
   17THR      O  178   3.417   4.019   2.528
   18SER      N  179   3.387   4.217   2.427
   18SER      H  180   3.392   4.266   2.339
   18SER     CA  181   3.372   4.303   2.547
   18SER     CB  182   3.462   4.427   2.539
   18SER     OG  183   3.431   4.503   2.421
   18SER     HG  184   3.516   4.513   2.364
   18SER      C  185   3.228   4.350   2.572
   18SER      O  186   3.195   4.393   2.682
   19ALA      N  187   3.154   4.363   2.461
   19ALA      H  188   3.197   4.359   2.371
   19ALA     CA  189   3.009   4.391   2.450
   19ALA     CB  190   2.976   4.535   2.488
   19ALA      C  191   2.965   4.368   2.304
   19ALA     O1  192   3.053   4.357   2.215
   19ALA     O2  193   2.843   4.360   2.279
   20SOL     OW  194   0.171   0.560   0.055
   20SOL    HW1  195   0.095   0.595   0.109
   20SOL    HW2  196   0.174   0.607   5.484
   21SOL     OW  197   0.194   0.263   0.991
   21SOL    HW1  198   0.232   0.246   1.082
   21SOL    HW2  199   0.155   0.179   0.954
   22SOL     OW  200   0.001   0.452   0.598
   22SOL    HW1  201   5.441   0.513   0.582
   22SOL    HW2  202   5.499   0.362   0.560
   23SOL     OW  203   0.601   1.336   1.225
   23SOL    HW1  204   0.515   1.335   1.174
   23SOL    HW2  205   0.625   1.430   1.249
   24SOL     OW  206   1.592   1.523   0.701
   24SOL    HW1  207   1.540   1.488   0.778
   24SOL    HW2  208   1.531   1.543   0.625
   25SOL     OW  209   1.139   0.713   0.677
   25SOL    HW1  210   1.191   0.797   0.661
   25SOL    HW2  211   1.088   0.720   0.762
   26SOL     OW  212   1.791   0.627   0.170
   26SOL    HW1  213   1.744   0.703   0.124
   26SOL    HW2  214   1.723   0.561   0.202
   27SOL     OW  215   0.725   1.133   1.061
   27SOL    HW1  216   0.673   1.171   1.137
   27SOL    HW2  217   0.762   1.208   1.006
   28SOL     OW  218   0.897   0.734   1.834
   28SOL    HW1  219   0.891   0.799   1.909
   28SOL    HW2  220   0.912   0.784   1.748
   29SOL     OW  221   0.695   0.967   0.665
   29SOL    HW1  222   0.767   0.968   0.734
   29SOL    HW2  223   0.625   1.034   0.689
   30SOL     OW  224   0.727   1.159   1.850
   30SOL    HW1  225   0.784   1.230   1.892
   30SOL    HW2  226   0.651   1.202   1.802
   31SOL     OW  227   0.368   1.406   1.086
   31SOL    HW1  228   0.293   1.348   1.054
   31SOL    HW2  229   0.401   1.462   1.010
   32SOL     OW  230   1.442   1.506   1.381
   32SOL    HW1  231   1.501   1.587   1.392
   32SOL    HW2  232   1.363   1.514   1.441
   33SOL     OW  233   0.463   0.439   1.473
   33SOL    HW1  234   0.547   0.384   1.477
   33SOL    HW2  235   0.384   0.380   1.489
   34SOL     OW  236   1.577   0.449   0.763
   34SOL    HW1  237   1.505   0.449   0.694
   34SOL    HW2  238   1.560   0.521   0.829
   35SOL     OW  239   0.268   1.707   0.469
   35SOL    HW1  240   0.270   1.790   0.524
   35SOL    HW2  241   0.341   1.710   0.401
   36SOL     OW  242   1.129   1.342   1.705
   36SOL    HW1  243   1.189   1.331   1.785
   36SOL    HW2  244   1.072   1.261   1.695
   37SOL     OW  245   0.234   1.443   0.516
   37SOL    HW1  246   0.241   1.543   0.511
   37SOL    HW2  247   0.184   1.417   0.598
   38SOL     OW  248   0.351   1.071   0.940
   38SOL    HW1  249   0.339   0.974   0.963
   38SOL    HW2  250   0.283   1.126   0.988
   39SOL     OW  251   0.563   1.855   1.388
   39SOL    HW1  252   0.491   1.821   1.448
   39SOL    HW2  253   0.614   1.928   1.434
   40SOL     OW  254   0.599   0.963   0.191
   40SOL    HW1  255   0.656   0.985   0.112
   40SOL    HW2  256   0.642   0.996   0.275
   41SOL     OW  257   1.639   0.078   1.505
   41SOL    HW1  258   1.668   0.118   1.417
   41SOL    HW2  259   1.598   0.149   1.562
   42SOL     OW  260   0.129   0.702   0.564
   42SOL    HW1  261   0.100   0.608   0.581
   42SOL    HW2  262   0.139   0.750   0.651
   43SOL     OW  263   1.873   1.724   0.285
   43SOL    HW1  264   1.947   1.711   0.352
   43SOL    HW2  265   1.871   1.819   0.255
   44SOL     OW  266   0.049   1.565   0.178
   44SOL    HW1  267   0.052   1.466   0.189
   44SOL    HW2  268   0.132   1.605   0.219
   45SOL     OW  269   1.709   0.932   0.670
   45SOL    HW1  270   1.800   0.891   0.668
   45SOL    HW2  271   1.695   0.987   0.588
   46SOL     OW  272   1.684   1.110   0.453
   46SOL    HW1  273   1.766   1.095   0.397
   46SOL    HW2  274   1.702   1.182   0.519
   47SOL     OW  275   0.142   0.732   1.580
   47SOL    HW1  276   0.240   0.752   1.580
   47SOL    HW2  277   0.091   0.815   1.560
   48SOL     OW  278   0.623   1.399   0.719
   48SOL    HW1  279   0.584   1.307   0.731
   48SOL    HW2  280   0.608   1.429   0.625
   49SOL     OW  281   1.254   1.217   1.421
   49SOL    HW1  282   1.273   1.145   1.354
   49SOL    HW2  283   1.323   1.214   1.493
   50SOL     OW  284   0.813   0.044   0.547
   50SOL    HW1  285   0.863   0.122   0.508
   50SOL    HW2  286   0.719   0.045   0.514
   51SOL     OW  287   0.205   0.959   1.316
   51SOL    HW1  288   0.293   0.917   1.291
   51SOL    HW2  289   0.133   0.924   1.256
   52SOL     OW  290   1.535   1.017   0.237
   52SOL    HW1  291   1.459   0.960   0.270
   52SOL    HW2  292   1.584   1.054   0.315
   53SOL     OW  293   1.197   1.812   1.632
   53SOL    HW1  294   1.190   1.881   1.561
   53SOL    HW2  295   1.202   1.721   1.591
   54SOL     OW  296   0.326   0.250   1.909
   54SOL    HW1  297   0.376   0.331   1.938
   54SOL    HW2  298   0.228   0.270   1.906
   55SOL     OW  299   1.453   1.424   0.915
   55SOL    HW1  300   1.400   1.447   0.996
   55SOL    HW2  301   1.440   1.327   0.893
   56SOL     OW  302   1.635   1.861   0.529
   56SOL    HW1  303   1.629   1.796   0.454
   56SOL    HW2  304   1.652   1.812   0.615
   57SOL     OW  305   0.573   0.681   0.257
   57SOL    HW1  306   0.594   0.772   0.222
   57SOL    HW2  307   0.506   0.688   0.331
   58SOL     OW  308   1.274   0.393   0.938
   58SOL    HW1  309   1.178   0.366   0.936
   58SOL    HW2  310   1.326   0.330   0.995
   59SOL     OW  311   1.603   1.684   0.323
   59SOL    HW1  312   1.702   1.680   0.311
   59SOL    HW2  313   1.559   1.675   0.233
   60SOL     OW  314   0.809   0.595   1.438
   60SOL    HW1  315   0.783   0.564   1.530
   60SOL    HW2  316   0.784   0.526   1.371
   61SOL     OW  317   1.386   0.483   1.665
   61SOL    HW1  318   1.392   0.528   1.754
   61SOL    HW2  319   1.439   0.399   1.666
   62SOL     OW  320   0.943   0.878   1.596
   62SOL    HW1  321   1.002   0.815   1.544
   62SOL    HW2  322   0.886   0.930   1.532
   63SOL     OW  323   1.018   0.399   1.178
   63SOL    HW1  324   0.924   0.416   1.208
   63SOL    HW2  325   1.019   0.332   1.104
   64SOL     OW  326   1.048   0.688   0.414
   64SOL    HW1  327   1.074   0.690   0.510
   64SOL    HW2  328   0.961   0.639   0.404
   65SOL     OW  329   0.130   0.860   0.792
   65SOL    HW1  330   0.210   0.827   0.842
   65SOL    HW2  331   0.102   0.949   0.828
   66SOL     OW  332   0.124   1.885   1.618
   66SOL    HW1  333   0.115   1.830   1.701
   66SOL    HW2  334   0.034   1.899   1.577
   67SOL     OW  335   0.879   0.322   0.218
   67SOL    HW1  336   0.918   0.391   0.157
   67SOL    HW2  337   0.882   0.232   0.173
   68SOL     OW  338   1.679   0.582   1.839
   68SOL    HW1  339   1.661   0.664   1.785
   68SOL    HW2  340   1.704   0.506   1.779
   69SOL     OW  341   1.416   1.169   0.573
   69SOL    HW1  342   1.501   1.159   0.521
   69SOL    HW2  343   1.357   1.235   0.528
   70SOL     OW  344   0.536   0.223   0.945
   70SOL    HW1  345   0.558   0.233   1.042
   70SOL    HW2  346   0.546   0.312   0.899
   71SOL     OW  347   0.998   1.465   0.485
   71SOL    HW1  348   0.980   1.536   0.417
   71SOL    HW2  349   0.957   1.491   0.573
   72SOL     OW  350   0.377   1.824   0.875
   72SOL    HW1  351   0.415   1.732   0.881
   72SOL    HW2  352   0.448   1.891   0.896
   73SOL     OW  353   1.795   1.044   0.911
   73SOL    HW1  354   1.752   1.028   0.823
   73SOL    HW2  355   1.725   1.061   0.981
   74SOL     OW  356   1.199   1.536   1.516
   74SOL    HW1  357   1.188   1.467   1.587
   74SOL    HW2  358   1.137   1.516   1.440
   75SOL     OW  359   0.352   0.957   0.339
   75SOL    HW1  360   0.433   0.975   0.284
   75SOL    HW2  361   0.361   0.867   0.383
   76SOL     OW  362   1.492   0.771   0.717
   76SOL    HW1  363   1.487   0.727   0.806
   76SOL    HW2  364   1.573   0.830   0.714
   77SOL     OW  365   0.509   1.290   1.733
   77SOL    HW1  366   0.493   1.293   1.635
   77SOL    HW2  367   0.422   1.282   1.782
   78SOL     OW  368   1.135   1.778   0.208
   78SOL    HW1  369   1.063   1.741   0.268
   78SOL    HW2  370   1.168   1.705   0.148
   79SOL     OW  371   0.223   0.306   1.495
   79SOL    HW1  372   0.150   0.370   1.471
   79SOL    HW2  373   0.185   0.233   1.552
   80SOL     OW  374   1.631   1.374   0.127
   80SOL    HW1  375   1.593   1.467   0.119
   80SOL    HW2  376   1.565   1.308   0.092
   81SOL     OW  377   0.491   1.724   0.302
   81SOL    HW1  378   0.527   1.795   0.362
   81SOL    HW2  379   0.565   1.689   0.243
   82SOL     OW  380   1.449   0.137   0.421
   82SOL    HW1  381   1.441   0.118   0.323
   82SOL    HW2  382   1.542   0.165   0.442
   83SOL     OW  383   0.234   1.795   1.233
   83SOL    HW1  384   0.292   1.723   1.271
   83SOL    HW2  385   0.206   1.769   1.141
   84SOL     OW  386   0.962   1.697   0.889
   84SOL    HW1  387   1.053   1.657   0.900
   84SOL    HW2  388   0.912   1.648   0.817
   85SOL     OW  389   0.382   0.692   0.459
   85SOL    HW1  390   0.406   0.596   0.473
   85SOL    HW2  391   0.289   0.708   0.491
   86SOL     OW  392   1.503   0.231   1.707
   86SOL    HW1  393   1.516   0.254   1.804
   86SOL    HW2  394   1.430   0.164   1.698
   87SOL     OW  395   0.592   0.117   0.086
   87SOL    HW1  396   0.609   0.020   0.104
   87SOL    HW2  397   0.494   0.133   0.077
   88SOL     OW  398   0.746   0.262   1.753
   88SOL    HW1  399   0.838   0.223   1.749
   88SOL    HW2  400   0.694   0.219   1.827
   89SOL     OW  401   0.868   1.522   1.170
   89SOL    HW1  402   0.844   1.470   1.088
   89SOL    HW2  403   0.935   1.470   1.224
   90SOL     OW  404   1.316   0.598   1.427
   90SOL    HW1  405   1.349   0.566   1.516
   90SOL    HW2  406   1.351   0.690   1.410
   91SOL     OW  407   0.810   1.365   0.937
   91SOL    HW1  408   0.904   1.367   0.902
   91SOL    HW2  409   0.746   1.383   0.862
   92SOL     OW  410   0.926   0.511   0.877
   92SOL    HW1  411   0.907   0.501   0.780
   92SOL    HW2  412   0.936   0.421   0.919
   93SOL     OW  413   0.548   0.040   0.453
   93SOL    HW1  414   0.474   0.043   0.519
   93SOL    HW2  415   0.550   0.125   0.401
   94SOL     OW  416   1.430   1.202   0.055
   94SOL    HW1  417   1.462   1.126   0.111
   94SOL    HW2  418   1.345   1.239   0.094
   95SOL     OW  419   0.266   5.497   0.245
   95SOL    HW1  420   0.302   0.051   0.185
   95SOL    HW2  421   0.332   5.477   0.317
   96SOL     OW  422   0.975   0.252   0.462
   96SOL    HW1  423   0.939   0.278   0.372
   96SOL    HW2  424   1.074   0.268   0.464
   97SOL     OW  425   1.061   0.706   1.420
   97SOL    HW1  426   0.983   0.644   1.430
   97SOL    HW2  427   1.146   0.653   1.421
   98SOL     OW  428   1.218   1.587   0.798
   98SOL    HW1  429   1.230   1.658   0.728
   98SOL    HW2  430   1.307   1.562   0.836
   99SOL     OW  431   0.500   1.152   0.729
   99SOL    HW1  432   0.455   1.124   0.814
   99SOL    HW2  433   0.434   1.154   0.655
  100SOL     OW  434   1.247   1.800   0.612
  100SOL    HW1  435   1.295   1.864   0.552
  100SOL    HW2  436   1.169   1.845   0.655
  101SOL     OW  437   0.993   0.504   0.058
  101SOL    HW1  438   0.949   0.593   0.045
  101SOL    HW2  439   1.074   0.516   0.115
  102SOL     OW  440   0.079   0.537   1.398
  102SOL    HW1  441   0.162   0.541   1.342
  102SOL    HW2  442   0.083   0.608   1.468
  103SOL     OW  443   0.557   0.249   1.224
  103SOL    HW1  444   0.598   0.230   1.313
  103SOL    HW2  445   0.459   0.226   1.227
  104SOL     OW  446   0.880   0.464   0.616
  104SOL    HW1  447   0.830   0.513   0.545
  104SOL    HW2  448   0.915   0.378   0.577
  105SOL     OW  449   0.993   0.042   0.764
  105SOL    HW1  450   0.930   0.066   0.690
  105SOL    HW2  451   0.995   5.459   0.775
  106SOL     OW  452   1.421   1.155   0.860
  106SOL    HW1  453   1.344   1.093   0.879
  106SOL    HW2  454   1.434   1.161   0.761
  107SOL     OW  455   1.456   0.621   0.956
  107SOL    HW1  456   1.386   0.550   0.961
  107SOL    HW2  457   1.516   0.615   1.036
  108SOL     OW  458   1.820   0.790   0.387
  108SOL    HW1  459   1.876   0.746   0.458
  108SOL    HW2  460   1.818   0.732   0.306
  109SOL     OW  461   0.523   1.402   0.145
  109SOL    HW1  462   0.439   1.391   0.197
  109SOL    HW2  463   0.521   1.343   0.065
  110SOL     OW  464   1.735   1.290   0.641
  110SOL    HW1  465   1.830   1.292   0.670
  110SOL    HW2  466   1.692   1.378   0.660
  111SOL     OW  467   1.343   0.533   0.022
  111SOL    HW1  468   1.287   0.526   0.104
  111SOL    HW2  469   1.416   0.465   0.025
  112SOL     OW  470   0.547   0.278   0.312
  112SOL    HW1  471   0.596   0.227   0.241
  112SOL    HW2  472   0.495   0.352   0.270
  113SOL     OW  473   1.742   1.233   1.525
  113SOL    HW1  474   1.833   1.195   1.508
  113SOL    HW2  475   1.751   1.325   1.564
  114SOL     OW  476   1.033   1.359   1.340
  114SOL    HW1  477   0.947   1.330   1.382
  114SOL    HW2  478   1.109   1.308   1.380
  115SOL     OW  479   1.619   1.642   1.675
  115SOL    HW1  480   1.596   1.681   1.585
  115SOL    HW2  481   1.697   1.580   1.665
  116SOL     OW  482   1.149   1.263   1.108
  116SOL    HW1  483   1.089   1.293   1.181
  116SOL    HW2  484   1.112   1.292   1.020
  117SOL     OW  485   1.591   1.095   1.086
  117SOL    HW1  486   1.586   1.164   1.158
  117SOL    HW2  487   1.523   1.116   1.015
  118SOL     OW  488   0.908   0.138   1.369
  118SOL    HW1  489   0.932   0.087   1.286
  118SOL    HW2  490   0.991   0.166   1.416
  119SOL     OW  491   0.976   1.113   1.729
  119SOL    HW1  492   0.885   1.130   1.765
  119SOL    HW2  493   0.976   1.029   1.675
  120SOL     OW  494   0.752   1.042   0.403
  120SOL    HW1  495   0.737   1.012   0.497
  120SOL    HW2  496   0.826   0.988   0.362
  121SOL     OW  497   0.435   0.819   1.260
  121SOL    HW1  498   0.507   0.821   1.329
  121SOL    HW2  499   0.389   0.730   1.263
  122SOL     OW  500   1.261   0.370   1.291
  122SOL    HW1  501   1.290   0.454   1.337
  122SOL    HW2  502   1.172   0.385   1.248
  123SOL     OW  503   0.103   1.535   1.370
  123SOL    HW1  504   0.058   1.616   1.332
  123SOL    HW2  505   0.202   1.548   1.370
  124SOL     OW  506   0.306   1.160   0.535
  124SOL    HW1  507   0.302   1.250   0.491
  124SOL    HW2  508   0.319   1.090   0.464
  125SOL     OW  509   0.547   0.496   0.858
  125SOL    HW1  510   0.548   0.552   0.775
  125SOL    HW2  511   0.611   0.534   0.925
  126SOL     OW  512   1.257   1.366   0.454
  126SOL    HW1  513   1.315   1.445   0.471
  126SOL    HW2  514   1.162   1.391   0.472
  127SOL     OW  515   1.318   1.478   1.140
  127SOL    HW1  516   1.362   1.486   1.229
  127SOL    HW2  517   1.258   1.398   1.139
  128SOL     OW  518   1.591   0.647   0.482
  128SOL    HW1  519   1.537   0.684   0.557
  128SOL    HW2  520   1.656   0.716   0.450
  129SOL     OW  521   0.373   1.554   1.312
  129SOL    HW1  522   0.363   1.499   1.229
  129SOL    HW2  523   0.469   1.578   1.325
  130SOL     OW  524   0.430   0.719   1.597
  130SOL    HW1  525   0.502   0.768   1.548
  130SOL    HW2  526   0.444   0.621   1.588
  131SOL     OW  527   1.633   0.805   1.695
  131SOL    HW1  528   1.539   0.840   1.683
  131SOL    HW2  529   1.688   0.833   1.617
  132SOL     OW  530   0.988   0.143   1.756
  132SOL    HW1  531   1.047   0.223   1.748
  132SOL    HW2  532   1.031   0.065   1.711
  133SOL     OW  533   0.471   0.031   1.781
  133SOL    HW1  534   0.425   5.459   1.779
  133SOL    HW2  535   0.403   0.103   1.792
  134SOL     OW  536   0.597   0.876   1.042
  134SOL    HW1  537   0.633   0.970   1.039
  134SOL    HW2  538   0.537   0.867   1.122
  135SOL     OW  539   1.289   0.851   1.000
  135SOL    HW1  540   1.197   0.820   0.976
  135SOL    HW2  541   1.354   0.776   0.985
  136SOL     OW  542   1.192   0.514   0.254
  136SOL    HW1  543   1.218   0.437   0.313
  136SOL    HW2  544   1.148   0.585   0.309
  137SOL     OW  545   0.287   0.189   1.248
  137SOL    HW1  546   0.263   0.231   1.336
  137SOL    HW2  547   0.265   0.092   1.251
  138SOL     OW  548   0.050   1.282   1.297
  138SOL    HW1  549   0.100   1.226   1.363
  138SOL    HW2  550   0.063   1.379   1.318
  139SOL     OW  551   0.716   0.630   1.026
  139SOL    HW1  552   0.793   0.616   0.963
  139SOL    HW2  553   0.683   0.724   1.019
  140SOL     OW  554   1.760   0.977   1.870
  140SOL    HW1  555   1.718   0.907   1.812
  140SOL    HW2  556   1.698   1.001   1.944
  141SOL     OW  557   0.340   0.082   0.623
  141SOL    HW1  558   0.296   0.170   0.641
  141SOL    HW2  559   0.363   0.038   0.710
  142SOL     OW  560   1.628   0.439   0.309
  142SOL    HW1  561   1.661   0.362   0.363
  142SOL    HW2  562   1.601   0.513   0.371
  143SOL     OW  563   1.029   0.752   0.952
  143SOL    HW1  564   1.002   0.773   1.046
  143SOL    HW2  565   1.001   0.658   0.929
  144SOL     OW  566   0.988   1.570   1.772
  144SOL    HW1  567   0.952   1.628   1.698
  144SOL    HW2  568   1.022   1.485   1.733
  145SOL     OW  569   1.835   1.487   1.593
  145SOL    HW1  570   1.854   1.513   1.498
  145SOL    HW2  571   1.918   1.498   1.647
  146SOL     OW  572   0.395   0.903   1.810
  146SOL    HW1  573   0.473   0.913   1.871
  146SOL    HW2  574   0.415   0.831   1.743
  147SOL     OW  575   1.528   0.336   0.075
  147SOL    HW1  576   1.486   0.249   0.097
  147SOL    HW2  577   1.566   0.377   0.159
  148SOL     OW  578   1.338   0.805   0.033
  148SOL    HW1  579   1.340   0.705   0.028
  148SOL    HW2  580   1.407   0.843   5.490
  149SOL     OW  581   1.070   1.362   0.862
  149SOL    HW1  582   1.089   1.278   0.811
  149SOL    HW2  583   1.124   1.437   0.824
  150SOL     OW  584   0.340   0.784   0.947
  150SOL    HW1  585   0.438   0.804   0.949
  150SOL    HW2  586   0.325   0.688   0.971
  151SOL     OW  587   0.318   0.508   1.001
  151SOL    HW1  588   0.264   0.425   0.994
  151SOL    HW2  589   0.400   0.500   0.944
  152SOL     OW  590   1.140   0.368   1.702
  152SOL    HW1  591   1.091   0.418   1.773
  152SOL    HW2  592   1.226   0.415   1.682
  153SOL     OW  593   1.154   0.202   1.483
  153SOL    HW1  594   1.143   0.264   1.561
  153SOL    HW2  595   1.200   0.250   1.409
  154SOL     OW  596   0.022   1.282   0.214
  154SOL    HW1  597   5.442   1.291   0.237
  154SOL    HW2  598   0.048   1.186   0.218
  155SOL     OW  599   0.136   1.740   0.981
  155SOL    HW1  600   0.099   1.670   0.919
  155SOL    HW2  601   0.216   1.783   0.938
  156SOL     OW  602   0.498   1.571   0.901
  156SOL    HW1  603   0.572   1.633   0.929
  156SOL    HW2  604   0.532   1.508   0.831
  157SOL     OW  605   0.927   0.803   1.199
  157SOL    HW1  606   0.987   0.781   1.276
  157SOL    HW2  607   0.841   0.754   1.209
  158SOL     OW  608   5.461   0.635   1.162
  158SOL    HW1  609   5.517   0.601   1.087
  158SOL    HW2  610   5.491   0.593   1.248
  159SOL     OW  611   0.180   0.515   1.753
  159SOL    HW1  612   0.233   0.451   1.697
  159SOL    HW2  613   0.154   0.594   1.697
  160SOL     OW  614   1.393   0.925   1.638
  160SOL    HW1  615   1.410   1.023   1.637
  160SOL    HW2  616   1.379   0.892   1.545
  161SOL     OW  617   0.806   0.558   0.359
  161SOL    HW1  618   0.818   0.470   0.314
  161SOL    HW2  619   0.724   0.603   0.323
  162SOL     OW  620   1.638   0.603   1.164
  162SOL    HW1  621   1.625   0.548   1.247
  162SOL    HW2  622   1.734   0.598   1.136
  163SOL     OW  623   0.291   1.553   1.711
  163SOL    HW1  624   0.226   1.610   1.761
  163SOL    HW2  625   0.281   1.458   1.739
  164SOL     OW  626   0.750   0.444   1.220
  164SOL    HW1  627   0.681   0.372   1.217
  164SOL    HW2  628   0.730   0.512   1.149
  165SOL     OW  629   0.864   1.714   1.548
  165SOL    HW1  630   0.821   1.646   1.489
  165SOL    HW2  631   0.891   1.793   1.493
  166SOL     OW  632   0.413   0.465   0.157
  166SOL    HW1  633   0.479   0.539   0.174
  166SOL    HW2  634   0.328   0.504   0.122
  167SOL     OW  635   0.178   1.149   1.504
  167SOL    HW1  636   0.185   1.112   1.597
  167SOL    HW2  637   0.193   1.075   1.438
  168SOL     OW  638   1.274   1.036   1.200
  168SOL    HW1  639   1.283   0.967   1.128
  168SOL    HW2  640   1.229   1.117   1.164
  169SOL     OW  641   1.325   0.858   0.305
  169SOL    HW1  642   1.248   0.815   0.352
  169SOL    HW2  643   1.323   0.833   0.208
  170SOL     OW  644   1.761   1.709   1.156
  170SOL    HW1  645   1.833   1.737   1.091
  170SOL    HW2  646   1.729   1.617   1.131
  171SOL     OW  647   1.268   1.751   1.104
  171SOL    HW1  648   1.359   1.787   1.083
  171SOL    HW2  649   1.273   1.652   1.117
  172SOL     OW  650   0.152   1.226   1.047
  172SOL    HW1  651   0.111   1.247   1.136
  172SOL    HW2  652   0.079   1.207   0.981
  173SOL     OW  653   0.693   1.718   1.762
  173SOL    HW1  654   0.621   1.787   1.756
  173SOL    HW2  655   0.760   1.734   1.690
  174SOL     OW  656   0.935   0.098   0.066
  174SOL    HW1  657   0.881   0.017   0.042
  174SOL    HW2  658   1.021   0.069   0.108
  175SOL     OW  659   1.724   0.216   0.458
  175SOL    HW1  660   1.772   0.180   0.378
  175SOL    HW2  661   1.741   0.157   0.537
  176SOL     OW  662   1.411   1.592   0.505
  176SOL    HW1  663   1.472   1.624   0.433
  176SOL    HW2  664   1.349   1.667   0.531
  177SOL     OW  665   0.114   1.722   1.844
  177SOL    HW1  666   0.063   1.657   1.901
  177SOL    HW2  667   0.173   1.778   1.902
  178SOL     OW  668   1.289   0.940   0.652
  178SOL    HW1  669   1.363   0.876   0.673
  178SOL    HW2  670   1.327   1.020   0.606
  179SOL     OW  671   0.782   1.289   1.431
  179SOL    HW1  672   0.761   1.346   1.510
  179SOL    HW2  673   0.709   1.299   1.363
  180SOL     OW  674   0.701   1.609   0.160
  180SOL    HW1  675   0.759   1.609   0.078
  180SOL    HW2  676   0.640   1.530   0.157
  181SOL     OW  677   1.608   1.727   1.399
  181SOL    HW1  678   1.661   1.721   1.314
  181SOL    HW2  679   1.601   1.822   1.428
  182SOL     OW  680   1.837   0.088   0.941
  182SOL    HW1  681   1.824   0.003   0.889
  182SOL    HW2  682   1.756   0.145   0.931
  183SOL     OW  683   0.231   0.325   0.706
  183SOL    HW1  684   0.151   0.377   0.676
  183SOL    HW2  685   0.226   0.310   0.805
  184SOL     OW  686   1.235   1.572   0.048
  184SOL    HW1  687   1.230   1.483   0.095
  184SOL    HW2  688   1.191   1.565   5.476
  185SOL     OW  689   0.814   1.017   1.398
  185SOL    HW1  690   0.856   1.002   1.308
  185SOL    HW2  691   0.803   1.115   1.413
  186SOL     OW  692   0.933   0.889   0.263
  186SOL    HW1  693   0.997   0.925   0.196
  186SOL    HW2  694   0.980   0.822   0.322
  187SOL     OW  695   1.491   1.661   0.072
  187SOL    HW1  696   1.398   1.627   0.064
  187SOL    HW2  697   1.537   1.655   5.501
  188SOL     OW  698   0.405   1.317   1.486
  188SOL    HW1  699   0.391   1.400   1.433
  188SOL    HW2  700   0.322   1.261   1.484
  189SOL     OW  701   1.596   1.293   1.288
  189SOL    HW1  702   1.654   1.262   1.363
  189SOL    HW2  703   1.531   1.361   1.322
  190SOL     OW  704   1.100   1.112   0.762
  190SOL    HW1  705   1.018   1.065   0.793
  190SOL    HW2  706   1.160   1.047   0.715
  191SOL     OW  707   1.025   0.218   0.974
  191SOL    HW1  708   1.016   0.173   0.885
  191SOL    HW2  709   1.019   0.149   1.046
  192SOL     OW  710   0.609   1.484   0.463
  192SOL    HW1  711   0.666   1.426   0.406
  192SOL    HW2  712   0.546   1.537   0.405
  193SOL     OW  713   1.739   0.416   1.392
  193SOL    HW1  714   1.827   0.463   1.386
  193SOL    HW2  715   1.745   0.329   1.344
  194SOL     OW  716   0.284   1.354   0.270
  194SOL    HW1  717   0.196   1.320   0.236
  194SOL    HW2  718   0.272   1.396   0.359
  195SOL     OW  719   0.172   1.046   1.760
  195SOL    HW1  720   0.092   1.000   1.798
  195SOL    HW2  721   0.254   0.994   1.780
  196SOL     OW  722   0.680   0.251   1.478
  196SOL    HW1  723   0.761   0.211   1.435
  196SOL    HW2  724   0.694   0.257   1.577
  197SOL     OW  725   0.074   0.298   0.046
  197SOL    HW1  726   0.005   0.300   5.491
  197SOL    HW2  727   0.114   0.389   0.056
  198SOL     OW  728   1.397   0.857   1.374
  198SOL    HW1  729   1.337   0.916   1.319
  198SOL    HW2  730   1.490   0.860   1.337
  199SOL     OW  731   0.026   0.112   0.253
  199SOL    HW1  732   0.033   0.179   0.179
  199SOL    HW2  733   0.110   0.058   0.257
  200SOL     OW  734   1.217   1.330   0.178
  200SOL    HW1  735   1.118   1.331   0.159
  200SOL    HW2  736   1.232   1.329   0.276
  201SOL     OW  737   0.638   0.812   1.440
  201SOL    HW1  738   0.692   0.896   1.432
  201SOL    HW2  739   0.700   0.733   1.445
  202SOL     OW  740   1.524   1.841   1.054
  202SOL    HW1  741   1.551   1.897   0.975
  202SOL    HW2  742   1.606   1.798   1.092
  203SOL     OW  743   0.743   0.534   1.691
  203SOL    HW1  744   0.786   0.594   1.759
  203SOL    HW2  745   0.742   0.440   1.727
  204SOL     OW  746   1.466   1.189   1.619
  204SOL    HW1  747   1.454   1.210   1.716
  204SOL    HW2  748   1.560   1.208   1.592
  205SOL     OW  749   0.373   1.777   1.573
  205SOL    HW1  750   0.283   1.819   1.569
  205SOL    HW2  751   0.364   1.684   1.609
  206SOL     OW  752   1.642   0.873   1.249
  206SOL    HW1  753   1.644   0.784   1.203
  206SOL    HW2  754   1.627   0.945   1.182
  207SOL     OW  755   1.244   0.321   0.454
  207SOL    HW1  756   1.315   0.251   0.445
  207SOL    HW2  757   1.265   0.378   0.534
  208SOL     OW  758   0.564   0.716   0.680
  208SOL    HW1  759   0.617   0.801   0.677
  208SOL    HW2  760   0.502   0.712   0.602
  209SOL     OW  761   1.734   0.374   1.665
  209SOL    HW1  762   1.735   0.397   1.568
  209SOL    HW2  763   1.656   0.315   1.684
  210SOL     OW  764   1.769   0.920   1.489
  210SOL    HW1  765   1.753   1.017   1.510
  210SOL    HW2  766   1.730   0.899   1.399
  211SOL     OW  767   0.955   1.381   0.124
  211SOL    HW1  768   0.883   1.359   0.191
  211SOL    HW2  769   0.918   1.444   0.056
  212SOL     OW  770   0.688   1.761   0.943
  212SOL    HW1  771   0.668   1.858   0.932
  212SOL    HW2  772   0.787   1.747   0.936
  213SOL     OW  773   0.882   0.979   0.871
  213SOL    HW1  774   0.931   0.898   0.904
  213SOL    HW2  775   0.833   1.021   0.948
  214SOL     OW  776   1.098   0.939   0.056
  214SOL    HW1  777   1.053   0.936   5.484
  214SOL    HW2  778   1.191   0.902   0.047
  215SOL     OW  779   1.815   1.564   0.857
  215SOL    HW1  780   1.745   1.558   0.786
  215SOL    HW2  781   1.789   1.507   0.934
  216SOL     OW  782   0.258   1.298   1.830
  216SOL    HW1  783   0.216   1.211   1.805
  216SOL    HW2  784   0.241   1.316   1.927
  217SOL     OW  785   0.121   1.286   0.719
  217SOL    HW1  786   0.061   1.223   0.769
  217SOL    HW2  787   0.188   1.234   0.667
  218SOL     OW  788   0.711   1.454   1.643
  218SOL    HW1  789   0.636   1.399   1.679
  218SOL    HW2  790   0.709   1.545   1.685
  219SOL     OW  791   1.746   0.175   1.256
  219SOL    HW1  792   1.774   0.080   1.245
  219SOL    HW2  793   1.731   0.217   1.167
  220SOL     OW  794   0.422   0.433   0.519
  220SOL    HW1  795   0.475   0.365   0.469
  220SOL    HW2  796   0.368   0.388   0.590
  221SOL     OW  797   1.679   1.460   1.078
  221SOL    HW1  798   1.601   1.448   1.017
  221SOL    HW2  799   1.673   1.395   1.154
  222SOL     OW  800   0.321   0.567   1.270
  222SOL    HW1  801   0.386   0.519   1.329
  222SOL    HW2  802   0.331   0.536   1.176
  223SOL     OW  803   0.830   1.590   0.677
  223SOL    HW1  804   0.802   1.666   0.618
  223SOL    HW2  805   0.755   1.526   0.687
  224SOL     OW  806   1.396   0.217   1.111
  224SOL    HW1  807   1.362   0.123   1.116
  224SOL    HW2  808   1.358   0.271   1.186
  225SOL     OW  809   1.025   5.514   1.150
  225SOL    HW1  810   0.975   5.428   1.149
  225SOL    HW2  811   1.122   5.498   1.130
  226SOL     OW  812   0.799   1.314   0.349
  226SOL    HW1  813   0.781   1.218   0.369
  226SOL    HW2  814   0.877   1.345   0.405
  227SOL     OW  815   0.645   1.605   1.301
  227SOL    HW1  816   0.629   1.702   1.321
  227SOL    HW2  817   0.729   1.595   1.248
  228SOL     OW  818   1.416   0.095   0.149
  228SOL    HW1  819   1.463   0.015   0.112
  228SOL    HW2  820   1.318   0.076   0.156
  229SOL     OW  821   1.299   0.478   0.675
  229SOL    HW1  822   1.247   0.563   0.666
  229SOL    HW2  823   1.289   0.442   0.768
  230SOL     OW  824   1.605   0.230   0.933
  230SOL    HW1  825   1.532   0.237   1.002
  230SOL    HW2  826   1.597   0.307   0.869
  231SOL     OW  827   0.097   1.017   0.239
  231SOL    HW1  828   0.193   1.009   0.267
  231SOL    HW2  829   0.043   0.946   0.283
  232SOL     OW  830   0.908   1.684   0.338
  232SOL    HW1  831   0.833   1.656   0.278
  232SOL    HW2  832   0.875   1.753   0.403
  233SOL     OW  833   0.222   0.635   2.001
  233SOL    HW1  834   0.132   0.628   2.043
  233SOL    HW2  835   0.216   0.606   1.906
  234SOL     OW  836   0.196   0.256   2.851
  234SOL    HW1  837   0.233   0.239   2.943
  234SOL    HW2  838   0.157   0.171   2.816
  235SOL     OW  839   0.007   0.444   2.468
  235SOL    HW1  840   5.448   0.507   2.452
  235SOL    HW2  841   5.500   0.354   2.432
  236SOL     OW  842   0.595   1.332   3.088
  236SOL    HW1  843   0.508   1.330   3.039
  236SOL    HW2  844   0.617   1.427   3.112
  237SOL     OW  845   1.560   1.559   2.564
  237SOL    HW1  846   1.519   1.509   2.640
  237SOL    HW2  847   1.495   1.563   2.488
  238SOL     OW  848   1.143   0.708   2.539
  238SOL    HW1  849   1.189   0.795   2.522
  238SOL    HW2  850   1.086   0.716   2.621
  239SOL     OW  851   1.782   0.607   2.087
  239SOL    HW1  852   1.751   0.609   1.992
  239SOL    HW2  853   1.734   0.536   2.137
  240SOL     OW  854   0.727   1.139   2.924
  240SOL    HW1  855   0.672   1.175   3.000
  240SOL    HW2  856   0.766   1.215   2.872
  241SOL     OW  857   0.894   0.733   3.706
  241SOL    HW1  858   0.881   0.795   3.784
  241SOL    HW2  859   0.909   0.786   3.623
  242SOL     OW  860   0.697   0.970   2.526
  242SOL    HW1  861   0.770   0.975   2.594
  242SOL    HW2  862   0.624   1.034   2.550
  243SOL     OW  863   0.721   1.160   3.710
  243SOL    HW1  864   0.777   1.230   3.755
  243SOL    HW2  865   0.645   1.203   3.662
  244SOL     OW  866   0.362   1.403   2.948
  244SOL    HW1  867   0.287   1.346   2.914
  244SOL    HW2  868   0.398   1.459   2.874
  245SOL     OW  869   1.455   1.512   3.241
  245SOL    HW1  870   1.510   1.594   3.256
  245SOL    HW2  871   1.373   1.516   3.298
  246SOL     OW  872   0.463   0.440   3.335
  246SOL    HW1  873   0.546   0.385   3.339
  246SOL    HW2  874   0.383   0.381   3.352
  247SOL     OW  875   1.575   0.446   2.616
  247SOL    HW1  876   1.499   0.440   2.553
  247SOL    HW2  877   1.558   0.519   2.683
  248SOL     OW  878   0.291   1.684   2.339
  248SOL    HW1  879   0.286   1.764   2.400
  248SOL    HW2  880   0.349   1.705   2.261
  249SOL     OW  881   1.119   1.352   3.568
  249SOL    HW1  882   1.174   1.338   3.650
  249SOL    HW2  883   1.061   1.272   3.552
  250SOL     OW  884   0.271   1.415   2.353
  250SOL    HW1  885   0.273   1.515   2.356
  250SOL    HW2  886   0.220   1.380   2.432
  251SOL     OW  887   0.345   1.069   2.793
  251SOL    HW1  888   0.338   0.975   2.826
  251SOL    HW2  889   0.279   1.126   2.842
  252SOL     OW  890   0.566   1.850   3.253
  252SOL    HW1  891   0.494   1.818   3.314
  252SOL    HW2  892   0.618   1.923   3.297
  253SOL     OW  893   0.591   0.986   2.029
  253SOL    HW1  894   0.637   1.038   1.957
  253SOL    HW2  895   0.631   1.010   2.118
  254SOL     OW  896   1.616   0.077   3.354
  254SOL    HW1  897   1.652   0.114   3.269
  254SOL    HW2  898   1.588   0.152   3.414
  255SOL     OW  899   0.149   0.696   2.436
  255SOL    HW1  900   0.122   0.601   2.454
  255SOL    HW2  901   0.157   0.746   2.522
  256SOL     OW  902   1.858   1.748   2.184
  256SOL    HW1  903   1.935   1.732   2.246
  256SOL    HW2  904   1.864   1.840   2.146
  257SOL     OW  905   5.497   1.548   2.000
  257SOL    HW1  906   5.490   1.449   2.006
  257SOL    HW2  907   5.437   1.590   2.068
  258SOL     OW  908   1.696   0.942   2.489
  258SOL    HW1  909   1.743   0.877   2.430
  258SOL    HW2  910   1.661   1.018   2.434
  259SOL     OW  911   1.657   1.140   2.291
  259SOL    HW1  912   1.743   1.111   2.248
  259SOL    HW2  913   1.671   1.224   2.343
  260SOL     OW  914   0.141   0.731   3.441
  260SOL    HW1  915   0.238   0.752   3.442
  260SOL    HW2  916   0.089   0.815   3.421
  261SOL     OW  917   0.619   1.391   2.587
  261SOL    HW1  918   0.580   1.300   2.599
  261SOL    HW2  919   0.600   1.424   2.495
  262SOL     OW  920   1.252   1.217   3.279
  262SOL    HW1  921   1.277   1.146   3.213
  262SOL    HW2  922   1.313   1.212   3.358
  263SOL     OW  923   0.825   0.060   2.410
  263SOL    HW1  924   0.873   0.135   2.363
  263SOL    HW2  925   0.731   0.056   2.377
  264SOL     OW  926   0.206   0.959   3.175
  264SOL    HW1  927   0.293   0.916   3.151
  264SOL    HW2  928   0.133   0.919   3.119
  265SOL     OW  929   1.544   1.026   2.063
  265SOL    HW1  930   1.484   0.950   2.091
  265SOL    HW2  931   1.579   1.072   2.144
  266SOL     OW  932   1.301   1.869   3.498
  266SOL    HW1  933   1.246   1.925   3.436
  266SOL    HW2  934   1.287   1.772   3.477
  267SOL     OW  935   0.327   0.249   3.770
  267SOL    HW1  936   0.376   0.330   3.800
  267SOL    HW2  937   0.229   0.269   3.767
  268SOL     OW  938   1.478   1.407   2.779
  268SOL    HW1  939   1.414   1.437   2.849
  268SOL    HW2  940   1.455   1.314   2.750
  269SOL     OW  941   1.622   1.821   2.409
  269SOL    HW1  942   1.615   1.768   2.324
  269SOL    HW2  943   1.617   1.760   2.487
  270SOL     OW  944   0.597   0.708   2.126
  270SOL    HW1  945   0.601   0.801   2.088
  270SOL    HW2  946   0.529   0.705   2.200
  271SOL     OW  947   1.274   0.391   2.802
  271SOL    HW1  948   1.179   0.360   2.801
  271SOL    HW2  949   1.328   0.330   2.860
  272SOL     OW  950   1.593   1.673   2.179
  272SOL    HW1  951   1.692   1.687   2.175
  272SOL    HW2  952   1.557   1.662   2.086
  273SOL     OW  953   0.813   0.594   3.303
  273SOL    HW1  954   0.787   0.562   3.394
  273SOL    HW2  955   0.786   0.526   3.235
  274SOL     OW  956   1.387   0.489   3.527
  274SOL    HW1  957   1.392   0.533   3.617
  274SOL    HW2  958   1.439   0.403   3.529
  275SOL     OW  959   0.942   0.877   3.465
  275SOL    HW1  960   1.002   0.815   3.415
  275SOL    HW2  961   0.883   0.926   3.401
  276SOL     OW  962   1.019   0.403   3.043
  276SOL    HW1  963   0.925   0.419   3.072
  276SOL    HW2  964   1.020   0.337   2.968
  277SOL     OW  965   1.065   0.693   2.273
  277SOL    HW1  966   1.087   0.690   2.370
  277SOL    HW2  967   0.976   0.649   2.258
  278SOL     OW  968   0.134   0.859   2.662
  278SOL    HW1  969   0.213   0.826   2.713
  278SOL    HW2  970   0.109   0.950   2.694
  279SOL     OW  971   0.128   1.886   3.481
  279SOL    HW1  972   0.117   1.833   3.565
  279SOL    HW2  973   0.038   1.903   3.440
  280SOL     OW  974   0.860   0.346   2.065
  280SOL    HW1  975   0.918   0.393   1.998
  280SOL    HW2  976   0.804   0.278   2.018
  281SOL     OW  977   1.683   0.585   3.692
  281SOL    HW1  978   1.668   0.670   3.642
  281SOL    HW2  979   1.705   0.512   3.628
  282SOL     OW  980   1.400   1.170   2.415
  282SOL    HW1  981   1.485   1.165   2.363
  282SOL    HW2  982   1.337   1.233   2.371
  283SOL     OW  983   0.537   0.222   2.807
  283SOL    HW1  984   0.558   0.232   2.904
  283SOL    HW2  985   0.548   0.311   2.761
  284SOL     OW  986   0.989   1.463   2.333
  284SOL    HW1  987   0.972   1.538   2.269
  284SOL    HW2  988   0.951   1.485   2.422
  285SOL     OW  989   0.378   1.821   2.745
  285SOL    HW1  990   0.416   1.729   2.753
  285SOL    HW2  991   0.449   1.888   2.766
  286SOL     OW  992   1.805   1.045   2.720
  286SOL    HW1  993   1.762   1.007   2.638
  286SOL    HW2  994   1.735   1.062   2.789
  287SOL     OW  995   1.226   1.553   3.387
  287SOL    HW1  996   1.201   1.474   3.444
  287SOL    HW2  997   1.143   1.594   3.350
  288SOL     OW  998   0.320   0.958   2.127
  288SOL    HW1  999   0.408   0.985   2.087
  288SOL    HW2 1000   0.301   0.863   2.104
  289SOL     OW 1001   1.488   0.770   2.564
  289SOL    HW1 1002   1.487   0.725   2.653
  289SOL    HW2 1003   1.571   0.825   2.555
  290SOL     OW 1004   0.505   1.295   3.597
  290SOL    HW1 1005   0.490   1.299   3.498
  290SOL    HW2 1006   0.417   1.285   3.643
  291SOL     OW 1007   1.159   1.758   2.109
  291SOL    HW1 1008   1.066   1.739   2.141
  291SOL    HW2 1009   1.183   1.692   2.037
  292SOL     OW 1010   0.223   0.307   3.358
  292SOL    HW1 1011   0.150   0.370   3.333
  292SOL    HW2 1012   0.186   0.233   3.415
  293SOL     OW 1013   1.641   1.381   1.959
  293SOL    HW1 1014   1.614   1.476   1.943
  293SOL    HW2 1015   1.566   1.321   1.932
  294SOL     OW 1016   0.480   1.760   2.152
  294SOL    HW1 1017   0.520   1.814   2.226
  294SOL    HW2 1018   0.552   1.709   2.105
  295SOL     OW 1019   1.456   0.134   2.291
  295SOL    HW1 1020   1.439   0.102   2.198
  295SOL    HW2 1021   1.553   0.151   2.304
  296SOL     OW 1022   0.229   1.797   3.099
  296SOL    HW1 1023   0.284   1.722   3.136
  296SOL    HW2 1024   0.199   1.774   3.007
  297SOL     OW 1025   0.942   1.694   2.736
  297SOL    HW1 1026   1.034   1.654   2.742
  297SOL    HW2 1027   0.891   1.648   2.663
  298SOL     OW 1028   0.409   0.672   2.326
  298SOL    HW1 1029   0.417   0.573   2.337
  298SOL    HW2 1030   0.317   0.702   2.352
  299SOL     OW 1031   1.505   0.238   3.565
  299SOL    HW1 1032   1.520   0.256   3.662
  299SOL    HW2 1033   1.435   0.168   3.555
  300SOL     OW 1034   0.652   0.111   1.967
  300SOL    HW1 1035   0.697   0.029   1.999
  300SOL    HW2 1036   0.578   0.086   1.904
  301SOL     OW 1037   0.748   0.261   3.617
  301SOL    HW1 1038   0.840   0.222   3.614
  301SOL    HW2 1039   0.696   0.216   3.690
  302SOL     OW 1040   0.878   1.522   3.050
  302SOL    HW1 1041   0.848   1.485   2.962
  302SOL    HW2 1042   0.934   1.453   3.097
  303SOL     OW 1043   1.318   0.602   3.288
  303SOL    HW1 1044   1.350   0.571   3.377
  303SOL    HW2 1045   1.356   0.692   3.268
  304SOL     OW 1046   0.813   1.376   2.805
  304SOL    HW1 1047   0.906   1.376   2.768
  304SOL    HW2 1048   0.747   1.385   2.730
  305SOL     OW 1049   0.928   0.517   2.736
  305SOL    HW1 1050   0.912   0.505   2.638
  305SOL    HW2 1051   0.937   0.428   2.779
  306SOL     OW 1052   0.560   0.034   2.317
  306SOL    HW1 1053   0.483   0.031   2.382
  306SOL    HW2 1054   0.552   0.116   2.261
  307SOL     OW 1055   1.427   1.215   1.896
  307SOL    HW1 1056   1.465   1.138   1.948
  307SOL    HW2 1057   1.340   1.243   1.936
  308SOL     OW 1058   0.279   0.030   2.074
  308SOL    HW1 1059   0.315   0.110   2.028
  308SOL    HW2 1060   0.349   5.509   2.134
  309SOL     OW 1061   0.975   0.264   2.302
  309SOL    HW1 1062   0.939   0.292   2.213
  309SOL    HW2 1063   1.074   0.273   2.302
  310SOL     OW 1064   1.061   0.709   3.285
  310SOL    HW1 1065   0.983   0.647   3.295
  310SOL    HW2 1066   1.146   0.656   3.284
  311SOL     OW 1067   1.204   1.611   2.678
  311SOL    HW1 1068   1.225   1.666   2.597
  311SOL    HW2 1069   1.240   1.657   2.760
  312SOL     OW 1070   0.494   1.146   2.582
  312SOL    HW1 1071   0.444   1.120   2.664
  312SOL    HW2 1072   0.435   1.136   2.502
  313SOL     OW 1073   1.240   1.800   2.474
  313SOL    HW1 1074   1.292   1.864   2.419
  313SOL    HW2 1075   1.157   1.845   2.509
  314SOL     OW 1076   1.025   0.502   1.909
  314SOL    HW1 1077   0.986   0.590   1.885
  314SOL    HW2 1078   1.095   0.514   1.979
  315SOL     OW 1079   0.080   0.537   3.258
  315SOL    HW1 1080   0.163   0.542   3.203
  315SOL    HW2 1081   0.083   0.608   3.329
  316SOL     OW 1082   0.557   0.250   3.087
  316SOL    HW1 1083   0.598   0.231   3.176
  316SOL    HW2 1084   0.460   0.226   3.089
  317SOL     OW 1085   0.891   0.468   2.473
  317SOL    HW1 1086   0.843   0.524   2.405
  317SOL    HW2 1087   0.923   0.384   2.430
  318SOL     OW 1088   0.988   0.048   2.633
  318SOL    HW1 1089   0.931   0.073   2.555
  318SOL    HW2 1090   0.983   5.466   2.647
  319SOL     OW 1091   1.423   1.146   2.706
  319SOL    HW1 1092   1.344   1.090   2.732
  319SOL    HW2 1093   1.424   1.158   2.607
  320SOL     OW 1094   1.459   0.622   2.810
  320SOL    HW1 1095   1.388   0.552   2.817
  320SOL    HW2 1096   1.519   0.618   2.890
  321SOL     OW 1097   1.817   0.797   2.285
  321SOL    HW1 1098   1.885   0.746   2.337
  321SOL    HW2 1099   1.785   0.741   2.209
  322SOL     OW 1100   0.495   1.431   2.005
  322SOL    HW1 1101   0.404   1.409   2.039
  322SOL    HW2 1102   0.506   1.394   1.912
  323SOL     OW 1103   1.704   1.343   2.455
  323SOL    HW1 1104   1.790   1.324   2.502
  323SOL    HW2 1105   1.663   1.426   2.494
  324SOL     OW 1106   1.396   0.579   1.919
  324SOL    HW1 1107   1.342   0.545   1.996
  324SOL    HW2 1108   1.492   0.556   1.934
  325SOL     OW 1109   0.526   0.256   2.161
  325SOL    HW1 1110   0.577   0.206   2.091
  325SOL    HW2 1111   0.495   0.343   2.124
  326SOL     OW 1112   1.714   1.214   3.445
  326SOL    HW1 1113   1.727   1.171   3.535
  326SOL    HW2 1114   1.762   1.302   3.443
  327SOL     OW 1115   1.018   1.330   3.189
  327SOL    HW1 1116   0.935   1.307   3.241
  327SOL    HW2 1117   1.098   1.296   3.238
  328SOL     OW 1118   1.634   1.639   3.532
  328SOL    HW1 1119   1.614   1.680   3.443
  328SOL    HW2 1120   1.701   1.565   3.522
  329SOL     OW 1121   1.159   1.265   2.964
  329SOL    HW1 1122   1.095   1.284   3.039
  329SOL    HW2 1123   1.118   1.294   2.878
  330SOL     OW 1124   1.614   1.098   2.918
  330SOL    HW1 1125   1.601   1.161   2.995
  330SOL    HW2 1126   1.539   1.110   2.853
  331SOL     OW 1127   0.908   0.140   3.232
  331SOL    HW1 1128   0.931   0.088   3.150
  331SOL    HW2 1129   0.991   0.169   3.279
  332SOL     OW 1130   0.968   1.121   3.583
  332SOL    HW1 1131   0.876   1.136   3.619
  332SOL    HW2 1132   0.971   1.034   3.534
  333SOL     OW 1133   0.731   1.051   2.260
  333SOL    HW1 1134   0.714   1.021   2.354
  333SOL    HW2 1135   0.810   1.001   2.223
  334SOL     OW 1136   0.437   0.818   3.122
  334SOL    HW1 1137   0.508   0.819   3.192
  334SOL    HW2 1138   0.390   0.730   3.123
  335SOL     OW 1139   1.263   0.373   3.153
  335SOL    HW1 1140   1.292   0.457   3.199
  335SOL    HW2 1141   1.174   0.388   3.110
  336SOL     OW 1142   0.097   1.522   3.250
  336SOL    HW1 1143   0.042   1.605   3.261
  336SOL    HW2 1144   0.193   1.547   3.237
  337SOL     OW 1145   0.321   1.130   2.366
  337SOL    HW1 1146   0.320   1.223   2.329
  337SOL    HW2 1147   0.321   1.064   2.290
  338SOL     OW 1148   0.551   0.497   2.724
  338SOL    HW1 1149   0.554   0.552   2.641
  338SOL    HW2 1150   0.614   0.535   2.791
  339SOL     OW 1151   1.241   1.361   2.280
  339SOL    HW1 1152   1.301   1.438   2.301
  339SOL    HW2 1153   1.147   1.385   2.304
  340SOL     OW 1154   1.330   1.477   2.999
  340SOL    HW1 1155   1.372   1.484   3.090
  340SOL    HW2 1156   1.267   1.399   2.997
  341SOL     OW 1157   1.492   0.641   2.313
  341SOL    HW1 1158   1.485   0.678   2.405
  341SOL    HW2 1159   1.451   0.705   2.248
  342SOL     OW 1160   0.363   1.555   3.172
  342SOL    HW1 1161   0.351   1.499   3.090
  342SOL    HW2 1162   0.460   1.580   3.182
  343SOL     OW 1163   0.428   0.717   3.458
  343SOL    HW1 1164   0.501   0.765   3.410
  343SOL    HW2 1165   0.440   0.618   3.448
  344SOL     OW 1166   1.643   0.815   3.550
  344SOL    HW1 1167   1.548   0.840   3.534
  344SOL    HW2 1168   1.698   0.843   3.471
  345SOL     OW 1169   0.991   0.144   3.621
  345SOL    HW1 1170   1.050   0.225   3.612
  345SOL    HW2 1171   1.033   0.067   3.574
  346SOL     OW 1172   0.472   0.030   3.643
  346SOL    HW1 1173   0.425   5.458   3.642
  346SOL    HW2 1174   0.404   0.102   3.655
  347SOL     OW 1175   0.600   0.879   2.907
  347SOL    HW1 1176   0.635   0.973   2.903
  347SOL    HW2 1177   0.540   0.869   2.985
  348SOL     OW 1178   1.292   0.854   2.851
  348SOL    HW1 1179   1.198   0.825   2.833
  348SOL    HW2 1180   1.354   0.777   2.835
  349SOL     OW 1181   1.209   0.516   2.117
  349SOL    HW1 1182   1.231   0.438   2.176
  349SOL    HW2 1183   1.166   0.588   2.172
  350SOL     OW 1184   0.287   0.187   3.111
  350SOL    HW1 1185   0.263   0.230   3.198
  350SOL    HW2 1186   0.266   0.090   3.115
  351SOL     OW 1187   0.051   1.277   3.152
  351SOL    HW1 1188   0.102   1.219   3.216
  351SOL    HW2 1189   0.063   1.373   3.179
  352SOL     OW 1190   0.721   0.633   2.890
  352SOL    HW1 1191   0.794   0.619   2.824
  352SOL    HW2 1192   0.686   0.726   2.882
  353SOL     OW 1193   1.717   1.037   3.695
  353SOL    HW1 1194   1.694   0.949   3.654
  353SOL    HW2 1195   1.666   1.048   3.781
  354SOL     OW 1196   0.343   0.067   2.482
  354SOL    HW1 1197   0.296   0.154   2.499
  354SOL    HW2 1198   0.368   0.026   2.569
  355SOL     OW 1199   1.613   0.424   2.198
  355SOL    HW1 1200   1.642   0.353   2.263
  355SOL    HW2 1201   1.563   0.495   2.247
  356SOL     OW 1202   1.029   0.758   2.814
  356SOL    HW1 1203   1.002   0.778   2.908
  356SOL    HW2 1204   1.001   0.665   2.791
  357SOL     OW 1205   0.998   1.602   3.583
  357SOL    HW1 1206   0.982   1.635   3.490
  357SOL    HW2 1207   1.016   1.504   3.581
  358SOL     OW 1208   1.849   1.465   3.429
  358SOL    HW1 1209   1.866   1.510   3.341
  358SOL    HW2 1210   1.929   1.476   3.488
  359SOL     OW 1211   0.395   0.903   3.668
  359SOL    HW1 1212   0.473   0.912   3.730
  359SOL    HW2 1213   0.414   0.830   3.602
  360SOL     OW 1214   1.530   0.295   1.967
  360SOL    HW1 1215   1.476   0.217   2.000
  360SOL    HW2 1216   1.568   0.345   2.044
  361SOL     OW 1217   1.304   0.830   1.879
  361SOL    HW1 1218   1.335   0.735   1.885
  361SOL    HW2 1219   1.332   0.868   1.791
  362SOL     OW 1220   1.072   1.367   2.721
  362SOL    HW1 1221   1.094   1.284   2.670
  362SOL    HW2 1222   1.129   1.443   2.689
  363SOL     OW 1223   0.344   0.781   2.814
  363SOL    HW1 1224   0.442   0.801   2.814
  363SOL    HW2 1225   0.329   0.684   2.837
  364SOL     OW 1226   0.319   0.503   2.863
  364SOL    HW1 1227   0.265   0.419   2.854
  364SOL    HW2 1228   0.401   0.496   2.806
  365SOL     OW 1229   1.141   0.371   3.565
  365SOL    HW1 1230   1.092   0.419   3.637
  365SOL    HW2 1231   1.227   0.419   3.545
  366SOL     OW 1232   1.154   0.206   3.345
  366SOL    HW1 1233   1.143   0.268   3.423
  366SOL    HW2 1234   1.201   0.254   3.271
  367SOL     OW 1235   5.473   1.273   2.034
  367SOL    HW1 1236   5.381   1.266   1.998
  367SOL    HW2 1237   5.503   1.184   2.068
  368SOL     OW 1238   0.132   1.753   2.845
  368SOL    HW1 1239   0.092   1.686   2.782
  368SOL    HW2 1240   0.216   1.790   2.805
  369SOL     OW 1241   0.497   1.568   2.768
  369SOL    HW1 1242   0.570   1.629   2.797
  369SOL    HW2 1243   0.532   1.504   2.700
  370SOL     OW 1244   0.929   0.805   3.063
  370SOL    HW1 1245   0.987   0.783   3.141
  370SOL    HW2 1246   0.843   0.754   3.069
  371SOL     OW 1247   5.463   0.637   3.024
  371SOL    HW1 1248   5.517   0.601   2.947
  371SOL    HW2 1249   5.494   0.594   3.109
  372SOL     OW 1250   0.181   0.514   3.614
  372SOL    HW1 1251   0.229   0.448   3.557
  372SOL    HW2 1252   0.153   0.593   3.559
  373SOL     OW 1253   1.396   0.916   3.490
  373SOL    HW1 1254   1.401   1.016   3.495
  373SOL    HW2 1255   1.386   0.887   3.395
  374SOL     OW 1256   0.822   0.576   2.220
  374SOL    HW1 1257   0.827   0.491   2.168
  374SOL    HW2 1258   0.744   0.630   2.189
  375SOL     OW 1259   1.644   0.612   3.020
  375SOL    HW1 1260   1.632   0.552   3.100
  375SOL    HW2 1261   1.739   0.608   2.989
  376SOL     OW 1262   0.290   1.555   3.577
  376SOL    HW1 1263   0.224   1.611   3.628
  376SOL    HW2 1264   0.278   1.459   3.604
  377SOL     OW 1265   0.750   0.446   3.083
  377SOL    HW1 1266   0.681   0.374   3.079
  377SOL    HW2 1267   0.731   0.514   3.012
  378SOL     OW 1268   0.978   1.670   3.312
  378SOL    HW1 1269   0.937   1.613   3.241
  378SOL    HW2 1270   0.960   1.766   3.292
  379SOL     OW 1271   0.448   0.485   2.029
  379SOL    HW1 1272   0.523   0.548   2.047
  379SOL    HW2 1273   0.362   0.535   2.028
  380SOL     OW 1274   0.179   1.148   3.365
  380SOL    HW1 1275   0.185   1.111   3.458
  380SOL    HW2 1276   0.195   1.074   3.299
  381SOL     OW 1277   1.291   1.041   3.052
  381SOL    HW1 1278   1.293   0.971   2.980
  381SOL    HW2 1279   1.243   1.122   3.019
  382SOL     OW 1280   1.355   0.832   2.152
  382SOL    HW1 1281   1.270   0.831   2.206
  382SOL    HW2 1282   1.332   0.830   2.055
  383SOL     OW 1283   1.741   1.716   3.019
  383SOL    HW1 1284   1.808   1.758   2.958
  383SOL    HW2 1285   1.719   1.624   2.987
  384SOL     OW 1286   1.273   1.733   2.917
  384SOL    HW1 1287   1.361   1.782   2.915
  384SOL    HW2 1288   1.287   1.642   2.957
  385SOL     OW 1289   0.149   1.230   2.898
  385SOL    HW1 1290   0.108   1.249   2.987
  385SOL    HW2 1291   0.077   1.203   2.833
  386SOL     OW 1292   0.712   1.714   3.635
  386SOL    HW1 1293   0.647   1.787   3.614
  386SOL    HW2 1294   0.803   1.741   3.603
  387SOL     OW 1295   1.738   0.201   2.326
  387SOL    HW1 1296   1.795   0.206   2.245
  387SOL    HW2 1297   1.757   0.116   2.375
  388SOL     OW 1298   1.389   1.586   2.351
  388SOL    HW1 1299   1.452   1.616   2.279
  388SOL    HW2 1300   1.325   1.660   2.373
  389SOL     OW 1301   0.111   1.724   3.708
  389SOL    HW1 1302   0.062   1.658   3.765
  389SOL    HW2 1303   0.170   1.781   3.766
  390SOL     OW 1304   1.284   0.938   2.498
  390SOL    HW1 1305   1.359   0.876   2.522
  390SOL    HW2 1306   1.321   1.020   2.455
  391SOL     OW 1307   0.771   1.283   3.301
  391SOL    HW1 1308   0.756   1.344   3.379
  391SOL    HW2 1309   0.697   1.295   3.235
  392SOL     OW 1310   0.686   1.628   2.021
  392SOL    HW1 1311   0.698   1.657   1.926
  392SOL    HW2 1312   0.625   1.549   2.024
  393SOL     OW 1313   1.614   1.742   3.267
  393SOL    HW1 1314   1.658   1.733   3.178
  393SOL    HW2 1315   1.600   1.838   3.288
  394SOL     OW 1316   1.837   0.083   2.800
  394SOL    HW1 1317   1.822   5.515   2.749
  394SOL    HW2 1318   1.758   0.143   2.789
  395SOL     OW 1319   0.230   0.307   2.568
  395SOL    HW1 1320   0.153   0.364   2.541
  395SOL    HW2 1321   0.229   0.294   2.667
  396SOL     OW 1322   1.228   1.578   1.914
  396SOL    HW1 1323   1.220   1.484   1.949
  396SOL    HW2 1324   1.151   1.597   1.854
  397SOL     OW 1325   0.812   1.014   3.265
  397SOL    HW1 1326   0.855   1.001   3.176
  397SOL    HW2 1327   0.797   1.111   3.282
  398SOL     OW 1328   0.939   0.913   2.158
  398SOL    HW1 1329   0.994   0.947   2.082
  398SOL    HW2 1330   0.986   0.837   2.202
  399SOL     OW 1331   1.495   1.653   1.921
  399SOL    HW1 1332   1.400   1.626   1.909
  399SOL    HW2 1333   1.540   1.658   1.831
  400SOL     OW 1334   0.402   1.321   3.348
  400SOL    HW1 1335   0.385   1.404   3.294
  400SOL    HW2 1336   0.321   1.263   3.347
  401SOL     OW 1337   1.619   1.299   3.164
  401SOL    HW1 1338   1.653   1.252   3.246
  401SOL    HW2 1339   1.551   1.367   3.191
  402SOL     OW 1340   1.107   1.115   2.624
  402SOL    HW1 1341   1.022   1.073   2.656
  402SOL    HW2 1342   1.160   1.048   2.571
  403SOL     OW 1343   1.028   0.221   2.840
  403SOL    HW1 1344   1.016   0.177   2.751
  403SOL    HW2 1345   1.022   0.153   2.913
  404SOL     OW 1346   0.591   1.476   2.333
  404SOL    HW1 1347   0.651   1.426   2.271
  404SOL    HW2 1348   0.500   1.484   2.293
  405SOL     OW 1349   1.745   0.418   3.242
  405SOL    HW1 1350   1.833   0.464   3.233
  405SOL    HW2 1351   1.748   0.330   3.195
  406SOL     OW 1352   0.225   1.348   2.095
  406SOL    HW1 1353   0.127   1.330   2.082
  406SOL    HW2 1354   0.242   1.379   2.188
  407SOL     OW 1355   0.171   1.046   3.621
  407SOL    HW1 1356   0.092   1.000   3.660
  407SOL    HW2 1357   0.254   0.994   3.641
  408SOL     OW 1358   0.680   0.252   3.341
  408SOL    HW1 1359   0.761   0.212   3.298
  408SOL    HW2 1360   0.694   0.258   3.440
  409SOL     OW 1361   0.051   0.320   1.915
  409SOL    HW1 1362   5.469   0.312   1.909
  409SOL    HW2 1363   0.082   0.397   1.860
  410SOL     OW 1364   1.409   0.857   3.225
  410SOL    HW1 1365   1.350   0.917   3.170
  410SOL    HW2 1366   1.502   0.862   3.189
  411SOL     OW 1367   0.020   0.114   2.118
  411SOL    HW1 1368   0.019   0.187   2.050
  411SOL    HW2 1369   0.111   0.073   2.123
  412SOL     OW 1370   1.187   1.319   2.002
  412SOL    HW1 1371   1.089   1.305   1.988
  412SOL    HW2 1372   1.207   1.320   2.100
  413SOL     OW 1373   0.638   0.808   3.304
  413SOL    HW1 1374   0.692   0.892   3.297
  413SOL    HW2 1375   0.700   0.729   3.309
  414SOL     OW 1376   1.521   1.856   2.908
  414SOL    HW1 1377   1.556   1.907   2.830
  414SOL    HW2 1378   1.595   1.799   2.947
  415SOL     OW 1379   0.747   0.532   3.556
  415SOL    HW1 1380   0.788   0.593   3.625
  415SOL    HW2 1381   0.744   0.439   3.591
  416SOL     OW 1382   1.437   1.187   3.489
  416SOL    HW1 1383   1.419   1.205   3.586
  416SOL    HW2 1384   1.533   1.207   3.468
  417SOL     OW 1385   0.377   1.776   3.441
  417SOL    HW1 1386   0.288   1.821   3.436
  417SOL    HW2 1387   0.366   1.684   3.477
  418SOL     OW 1388   1.657   0.882   3.101
  418SOL    HW1 1389   1.655   0.789   3.063
  418SOL    HW2 1390   1.644   0.948   3.028
  419SOL     OW 1391   1.250   0.320   2.311
  419SOL    HW1 1392   1.318   0.248   2.305
  419SOL    HW2 1393   1.266   0.375   2.393
  420SOL     OW 1394   0.577   0.712   2.544
  420SOL    HW1 1395   0.625   0.800   2.539
  420SOL    HW2 1396   0.520   0.700   2.463
  421SOL     OW 1397   1.737   0.377   3.515
  421SOL    HW1 1398   1.737   0.401   3.418
  421SOL    HW2 1399   1.657   0.320   3.536
  422SOL     OW 1400   1.784   0.933   3.343
  422SOL    HW1 1401   1.773   1.030   3.364
  422SOL    HW2 1402   1.742   0.914   3.255
  423SOL     OW 1403   0.901   1.354   1.955
  423SOL    HW1 1404   0.851   1.360   2.042
  423SOL    HW2 1405   0.905   1.444   1.913
  424SOL     OW 1406   0.683   1.760   2.813
  424SOL    HW1 1407   0.662   1.857   2.800
  424SOL    HW2 1408   0.780   1.745   2.793
  425SOL     OW 1409   0.885   0.988   2.733
  425SOL    HW1 1410   0.931   0.905   2.765
  425SOL    HW2 1411   0.834   1.028   2.809
  426SOL     OW 1412   1.087   0.982   1.946
  426SOL    HW1 1413   1.057   1.039   1.869
  426SOL    HW2 1414   1.166   0.928   1.918
  427SOL     OW 1415   1.777   1.611   2.724
  427SOL    HW1 1416   1.706   1.600   2.655
  427SOL    HW2 1417   1.767   1.539   2.794
  428SOL     OW 1418   0.254   1.298   3.693
  428SOL    HW1 1419   0.212   1.211   3.668
  428SOL    HW2 1420   0.238   1.316   3.791
  429SOL     OW 1421   0.142   1.262   2.549
  429SOL    HW1 1422   0.080   1.213   2.610
  429SOL    HW2 1423   0.199   1.196   2.500
  430SOL     OW 1424   0.717   1.452   3.515
  430SOL    HW1 1425   0.636   1.405   3.549
  430SOL    HW2 1426   0.716   1.547   3.548
  431SOL     OW 1427   1.737   0.173   3.113
  431SOL    HW1 1428   1.773   0.081   3.103
  431SOL    HW2 1429   1.703   0.205   3.025
  432SOL     OW 1430   0.412   0.408   2.375
  432SOL    HW1 1431   0.456   0.338   2.320
  432SOL    HW2 1432   0.360   0.364   2.449
  433SOL     OW 1433   1.690   1.458   2.944
  433SOL    HW1 1434   1.615   1.437   2.881
  433SOL    HW2 1435   1.684   1.398   3.024
  434SOL     OW 1436   0.321   0.567   3.131
  434SOL    HW1 1437   0.386   0.519   3.190
  434SOL    HW2 1438   0.331   0.534   3.037
  435SOL     OW 1439   0.817   1.580   2.526
  435SOL    HW1 1440   0.780   1.642   2.457
  435SOL    HW2 1441   0.748   1.510   2.548
  436SOL     OW 1442   1.402   0.219   2.976
  436SOL    HW1 1443   1.369   0.125   2.982
  436SOL    HW2 1444   1.363   0.273   3.050
  437SOL     OW 1445   1.023   5.515   3.014
  437SOL    HW1 1446   0.972   5.429   3.012
  437SOL    HW2 1447   1.120   5.497   2.993
  438SOL     OW 1448   0.783   1.321   2.204
  438SOL    HW1 1449   0.763   1.225   2.223
  438SOL    HW2 1450   0.862   1.350   2.259
  439SOL     OW 1451   0.636   1.601   3.154
  439SOL    HW1 1452   0.624   1.696   3.184
  439SOL    HW2 1453   0.726   1.590   3.113
  440SOL     OW 1454   1.389   0.070   2.030
  440SOL    HW1 1455   1.428   5.511   1.978
  440SOL    HW2 1456   1.293   0.051   2.049
  441SOL     OW 1457   1.297   0.472   2.538
  441SOL    HW1 1458   1.244   0.556   2.528
  441SOL    HW2 1459   1.285   0.436   2.631
  442SOL     OW 1460   1.608   0.232   2.794
  442SOL    HW1 1461   1.533   0.239   2.861
  442SOL    HW2 1462   1.599   0.304   2.726
  443SOL     OW 1463   0.047   1.029   2.122
  443SOL    HW1 1464   0.146   1.025   2.113
  443SOL    HW2 1465   0.015   0.952   2.176
  444SOL     OW 1466   0.902   1.683   2.189
  444SOL    HW1 1467   0.824   1.661   2.130
  444SOL    HW2 1468   0.876   1.756   2.252
  445SOL     OW 1469   0.224   0.636   3.862
  445SOL    HW1 1470   0.134   0.629   3.905
  445SOL    HW2 1471   0.218   0.606   3.767
  446SOL     OW 1472   0.192   0.256   4.703
  446SOL    HW1 1473   0.240   0.235   4.788
  446SOL    HW2 1474   0.150   0.172   4.667
  447SOL     OW 1475   0.005   0.445   4.327
  447SOL    HW1 1476   5.447   0.508   4.313
  447SOL    HW2 1477   5.498   0.355   4.292
  448SOL     OW 1478   0.572   1.324   4.945
  448SOL    HW1 1479   0.490   1.330   4.888
  448SOL    HW2 1480   0.594   1.414   4.982
  449SOL     OW 1481   1.588   1.532   4.414
  449SOL    HW1 1482   1.544   1.492   4.495
  449SOL    HW2 1483   1.520   1.543   4.341
  450SOL     OW 1484   1.146   0.707   4.399
  450SOL    HW1 1485   1.195   0.793   4.383
  450SOL    HW2 1486   1.091   0.715   4.482
  451SOL     OW 1487   1.806   0.577   3.932
  451SOL    HW1 1488   1.767   0.587   3.840
  451SOL    HW2 1489   1.757   0.505   3.981
  452SOL     OW 1490   0.718   1.138   4.777
  452SOL    HW1 1491   0.654   1.172   4.846
  452SOL    HW2 1492   0.763   1.216   4.733
  453SOL     OW 1493   0.849   0.740   0.034
  453SOL    HW1 1494   0.866   0.789   0.120
  453SOL    HW2 1495   0.884   0.794   5.475
  454SOL     OW 1496   0.702   0.965   4.384
  454SOL    HW1 1497   0.774   0.970   4.453
  454SOL    HW2 1498   0.629   1.029   4.406
  455SOL     OW 1499   0.356   1.419   4.802
  455SOL    HW1 1500   0.282   1.365   4.762
  455SOL    HW2 1501   0.398   1.475   4.730
  456SOL     OW 1502   1.432   1.518   5.095
  456SOL    HW1 1503   1.498   1.592   5.103
  456SOL    HW2 1504   1.357   1.532   5.159
  457SOL     OW 1505   0.469   0.420   5.161
  457SOL    HW1 1506   0.547   0.359   5.178
  457SOL    HW2 1507   0.384   0.373   5.184
  458SOL     OW 1508   1.581   0.448   4.491
  458SOL    HW1 1509   1.505   0.443   4.427
  458SOL    HW2 1510   1.567   0.524   4.554
  459SOL     OW 1511   0.286   1.686   4.196
  459SOL    HW1 1512   0.281   1.766   4.256
  459SOL    HW2 1513   0.346   1.706   4.119
  460SOL     OW 1514   0.291   1.417   4.215
  460SOL    HW1 1515   0.281   1.516   4.217
  460SOL    HW2 1516   0.237   1.376   4.289
  461SOL     OW 1517   0.350   1.079   4.652
  461SOL    HW1 1518   0.335   0.987   4.689
  461SOL    HW2 1519   0.282   1.141   4.690
  462SOL     OW 1520   0.581   1.839   5.133
  462SOL    HW1 1521   0.503   1.816   5.190
  462SOL    HW2 1522   0.630   1.917   5.172
  463SOL     OW 1523   0.589   0.984   3.887
  463SOL    HW1 1524   0.634   1.036   3.815
  463SOL    HW2 1525   0.630   1.006   3.976
  464SOL     OW 1526   1.729   0.072   5.245
  464SOL    HW1 1527   1.725   0.106   5.151
  464SOL    HW2 1528   1.715   0.148   5.308
  465SOL     OW 1529   0.149   0.697   4.298
  465SOL    HW1 1530   0.121   0.603   4.317
  465SOL    HW2 1531   0.155   0.748   4.384
  466SOL     OW 1532   1.858   1.735   4.036
  466SOL    HW1 1533   1.934   1.722   4.100
  466SOL    HW2 1534   1.858   1.829   4.003
  467SOL     OW 1535   5.497   1.549   3.864
  467SOL    HW1 1536   5.492   1.449   3.871
  467SOL    HW2 1537   5.436   1.590   3.932
  468SOL     OW 1538   1.706   0.940   4.393
  468SOL    HW1 1539   1.798   0.901   4.391
  468SOL    HW2 1540   1.691   0.992   4.309
  469SOL     OW 1541   1.677   1.116   4.168
  469SOL    HW1 1542   1.757   1.089   4.115
  469SOL    HW2 1543   1.700   1.194   4.226
  470SOL     OW 1544   0.164   0.707   5.337
  470SOL    HW1 1545   0.260   0.732   5.327
  470SOL    HW2 1546   0.107   0.787   5.318
  471SOL     OW 1547   0.627   1.387   4.453
  471SOL    HW1 1548   0.589   1.295   4.464
  471SOL    HW2 1549   0.605   1.422   4.362
  472SOL     OW 1550   1.234   1.232   5.181
  472SOL    HW1 1551   1.261   1.165   5.112
  472SOL    HW2 1552   1.282   1.213   5.267
  473SOL     OW 1553   0.834   0.056   4.274
  473SOL    HW1 1554   0.880   0.133   4.229
  473SOL    HW2 1555   0.739   0.051   4.244
  474SOL     OW 1556   0.198   0.954   5.046
  474SOL    HW1 1557   0.285   0.915   5.016
  474SOL    HW2 1558   0.123   0.908   4.999
  475SOL     OW 1559   1.545   1.049   3.928
  475SOL    HW1 1560   1.476   0.980   3.949
  475SOL    HW2 1561   1.590   1.078   4.012
  476SOL     OW 1562   1.109   1.812   5.366
  476SOL    HW1 1563   1.137   1.894   5.316
  476SOL    HW2 1564   1.150   1.731   5.324
  477SOL     OW 1565   0.333   0.202   0.087
  477SOL    HW1 1566   0.369   0.293   0.111
  477SOL    HW2 1567   0.240   0.212   0.050
  478SOL     OW 1568   1.480   1.411   4.634
  478SOL    HW1 1569   1.417   1.444   4.705
  478SOL    HW2 1570   1.455   1.317   4.610
  479SOL     OW 1571   1.628   1.835   4.263
  479SOL    HW1 1572   1.619   1.775   4.183
  479SOL    HW2 1573   1.637   1.779   4.345
  480SOL     OW 1574   0.596   0.706   3.988
  480SOL    HW1 1575   0.600   0.798   3.948
  480SOL    HW2 1576   0.528   0.704   4.061
  481SOL     OW 1577   1.276   0.394   4.670
  481SOL    HW1 1578   1.182   0.361   4.662
  481SOL    HW2 1579   1.325   0.340   4.739
  482SOL     OW 1580   1.591   1.672   4.039
  482SOL    HW1 1581   1.691   1.681   4.035
  482SOL    HW2 1582   1.555   1.660   3.946
  483SOL     OW 1583   0.802   0.583   5.174
  483SOL    HW1 1584   0.756   0.557   5.259
  483SOL    HW2 1585   0.780   0.517   5.102
  484SOL     OW 1586   0.960   0.884   5.341
  484SOL    HW1 1587   1.008   0.816   5.286
  484SOL    HW2 1588   0.907   0.944   5.281
  485SOL     OW 1589   1.028   0.388   4.923
  485SOL    HW1 1590   0.932   0.408   4.945
  485SOL    HW2 1591   1.033   0.335   4.838
  486SOL     OW 1592   1.062   0.693   4.133
  486SOL    HW1 1593   1.087   0.693   4.230
  486SOL    HW2 1594   0.973   0.649   4.122
  487SOL     OW 1595   0.130   0.863   4.522
  487SOL    HW1 1596   0.209   0.831   4.574
  487SOL    HW2 1597   0.100   0.951   4.558
  488SOL     OW 1598   0.143   1.926   5.336
  488SOL    HW1 1599   0.130   1.890   5.428
  488SOL    HW2 1600   0.054   1.930   5.289
  489SOL     OW 1601   0.862   0.346   3.929
  489SOL    HW1 1602   0.920   0.393   3.863
  489SOL    HW2 1603   0.805   0.279   3.881
  490SOL     OW 1604   1.409   1.167   4.281
  490SOL    HW1 1605   1.496   1.156   4.234
  490SOL    HW2 1606   1.351   1.230   4.230
  491SOL     OW 1607   0.538   0.225   4.656
  491SOL    HW1 1608   0.563   0.231   4.752
  491SOL    HW2 1609   0.546   0.316   4.614
  492SOL     OW 1610   0.990   1.461   4.194
  492SOL    HW1 1611   0.974   1.537   4.131
  492SOL    HW2 1612   0.954   1.485   4.285
  493SOL     OW 1613   0.387   1.823   4.595
  493SOL    HW1 1614   0.425   1.731   4.605
  493SOL    HW2 1615   0.456   1.890   4.622
  494SOL     OW 1616   1.794   1.058   4.629
  494SOL    HW1 1617   1.748   1.035   4.543
  494SOL    HW2 1618   1.726   1.072   4.701
  495SOL     OW 1619   1.185   1.539   5.249
  495SOL    HW1 1620   1.190   1.440   5.236
  495SOL    HW2 1621   1.103   1.575   5.205
  496SOL     OW 1622   0.321   0.948   3.984
  496SOL    HW1 1623   0.408   0.975   3.943
  496SOL    HW2 1624   0.300   0.854   3.960
  497SOL     OW 1625   1.493   0.772   4.442
  497SOL    HW1 1626   1.484   0.731   4.532
  497SOL    HW2 1627   1.572   0.832   4.440
  498SOL     OW 1628   0.484   1.241   5.438
  498SOL    HW1 1629   0.415   1.283   5.379
  498SOL    HW2 1630   0.463   1.144   5.450
  499SOL     OW 1631   1.146   1.775   3.939
  499SOL    HW1 1632   1.061   1.749   3.986
  499SOL    HW2 1633   1.171   1.705   3.874
  500SOL     OW 1634   0.226   0.296   5.181
  500SOL    HW1 1635   0.151   0.361   5.188
  500SOL    HW2 1636   0.202   0.212   5.231
  501SOL     OW 1637   1.619   1.383   3.795
  501SOL    HW1 1638   1.590   1.479   3.791
  501SOL    HW2 1639   1.540   1.324   3.779
  502SOL     OW 1640   0.480   1.763   4.013
  502SOL    HW1 1641   0.519   1.816   4.087
  502SOL    HW2 1642   0.550   1.704   3.973
  503SOL     OW 1643   1.430   0.106   4.162
  503SOL    HW1 1644   1.412   0.089   4.065
  503SOL    HW2 1645   1.528   0.124   4.174
  504SOL     OW 1646   0.251   1.789   4.942
  504SOL    HW1 1647   0.287   1.706   4.985
  504SOL    HW2 1648   0.213   1.765   4.852
  505SOL     OW 1649   0.948   1.697   4.599
  505SOL    HW1 1650   1.040   1.658   4.605
  505SOL    HW2 1651   0.897   1.650   4.527
  506SOL     OW 1652   0.408   0.672   4.188
  506SOL    HW1 1653   0.416   0.573   4.198
  506SOL    HW2 1654   0.316   0.702   4.214
  507SOL     OW 1655   0.653   0.107   3.829
  507SOL    HW1 1656   0.699   0.025   3.861
  507SOL    HW2 1657   0.579   0.083   3.766
  508SOL     OW 1658   0.745   0.278   5.449
  508SOL    HW1 1659   0.839   0.254   5.472
  508SOL    HW2 1660   0.682   0.226   5.506
  509SOL     OW 1661   0.859   1.514   4.920
  509SOL    HW1 1662   0.834   1.483   4.828
  509SOL    HW2 1663   0.921   1.446   4.962
  510SOL     OW 1664   1.298   0.582   5.221
  510SOL    HW1 1665   1.322   0.574   5.318
  510SOL    HW2 1666   1.337   0.666   5.184
  511SOL     OW 1667   0.815   1.376   4.670
  511SOL    HW1 1668   0.909   1.375   4.635
  511SOL    HW2 1669   0.751   1.384   4.594
  512SOL     OW 1670   0.933   0.516   4.602
  512SOL    HW1 1671   0.915   0.505   4.504
  512SOL    HW2 1672   0.945   0.426   4.644
  513SOL     OW 1673   0.568   0.033   4.184
  513SOL    HW1 1674   0.491   0.032   4.247
  513SOL    HW2 1675   0.561   0.114   4.125
  514SOL     OW 1676   1.402   1.217   3.761
  514SOL    HW1 1677   1.446   1.149   3.819
  514SOL    HW2 1678   1.316   1.246   3.803
  515SOL     OW 1679   0.279   0.030   3.937
  515SOL    HW1 1680   0.315   0.110   3.890
  515SOL    HW2 1681   0.348   5.510   3.999
  516SOL     OW 1682   0.975   0.266   4.168
  516SOL    HW1 1683   0.938   0.292   4.079
  516SOL    HW2 1684   1.074   0.276   4.167
  517SOL     OW 1685   1.051   0.698   5.162
  517SOL    HW1 1686   0.970   0.640   5.173
  517SOL    HW2 1687   1.133   0.644   5.181
  518SOL     OW 1688   1.205   1.609   4.538
  518SOL    HW1 1689   1.228   1.661   4.456
  518SOL    HW2 1690   1.244   1.654   4.618
  519SOL     OW 1691   0.500   1.142   4.438
  519SOL    HW1 1692   0.449   1.120   4.520
  519SOL    HW2 1693   0.441   1.131   4.358
  520SOL     OW 1694   1.243   1.795   4.330
  520SOL    HW1 1695   1.295   1.860   4.275
  520SOL    HW2 1696   1.164   1.841   4.370
  521SOL     OW 1697   1.028   0.502   3.775
  521SOL    HW1 1698   0.986   0.590   3.753
  521SOL    HW2 1699   1.098   0.515   3.845
  522SOL     OW 1700   0.093   0.552   5.116
  522SOL    HW1 1701   0.180   0.560   5.067
  522SOL    HW2 1702   0.100   0.602   5.202
  523SOL     OW 1703   0.567   0.238   4.931
  523SOL    HW1 1704   0.604   0.221   5.022
  523SOL    HW2 1705   0.469   0.219   4.931
  524SOL     OW 1706   0.890   0.468   4.339
  524SOL    HW1 1707   0.841   0.525   4.273
  524SOL    HW2 1708   0.922   0.385   4.295
  525SOL     OW 1709   1.002   0.030   4.496
  525SOL    HW1 1710   0.954   0.060   4.412
  525SOL    HW2 1711   0.955   5.469   4.535
  526SOL     OW 1712   1.414   1.152   4.573
  526SOL    HW1 1713   1.334   1.097   4.598
  526SOL    HW2 1714   1.422   1.157   4.474
  527SOL     OW 1715   1.456   0.625   4.682
  527SOL    HW1 1716   1.386   0.554   4.686
  527SOL    HW2 1717   1.517   0.616   4.761
  528SOL     OW 1718   1.804   0.782   4.108
  528SOL    HW1 1719   1.872   0.755   4.177
  528SOL    HW2 1720   1.800   0.714   4.036
  529SOL     OW 1721   0.497   1.423   3.866
  529SOL    HW1 1722   0.406   1.403   3.902
  529SOL    HW2 1723   0.505   1.387   3.773
  530SOL     OW 1724   1.749   1.314   4.331
  530SOL    HW1 1725   1.842   1.315   4.369
  530SOL    HW2 1726   1.700   1.396   4.362
  531SOL     OW 1727   1.395   0.584   3.782
  531SOL    HW1 1728   1.343   0.552   3.861
  531SOL    HW2 1729   1.493   0.568   3.798
  532SOL     OW 1730   0.529   0.253   4.023
  532SOL    HW1 1731   0.579   0.203   3.952
  532SOL    HW2 1732   0.497   0.340   3.985
  533SOL     OW 1733   1.760   1.239   5.214
  533SOL    HW1 1734   1.852   1.202   5.216
  533SOL    HW2 1735   1.756   1.322   5.270
  534SOL     OW 1736   1.012   1.321   5.046
  534SOL    HW1 1737   0.924   1.293   5.086
  534SOL    HW2 1738   1.086   1.288   5.104
  535SOL     OW 1739   1.160   1.261   4.828
  535SOL    HW1 1740   1.093   1.282   4.900
  535SOL    HW2 1741   1.122   1.289   4.739
  536SOL     OW 1742   1.586   1.100   4.802
  536SOL    HW1 1743   1.580   1.169   4.874
  536SOL    HW2 1744   1.517   1.119   4.732
  537SOL     OW 1745   0.904   0.107   5.095
  537SOL    HW1 1746   0.938   0.075   5.007
  537SOL    HW2 1747   0.981   0.127   5.156
  538SOL     OW 1748   0.735   1.041   4.117
  538SOL    HW1 1749   0.722   1.010   4.211
  538SOL    HW2 1750   0.809   0.988   4.075
  539SOL     OW 1751   0.438   0.829   4.984
  539SOL    HW1 1752   0.512   0.829   5.051
  539SOL    HW2 1753   0.395   0.738   4.982
  540SOL     OW 1754   1.248   0.347   5.078
  540SOL    HW1 1755   1.275   0.429   5.128
  540SOL    HW2 1756   1.167   0.367   5.023
  541SOL     OW 1757   0.061   1.525   5.124
  541SOL    HW1 1758   5.508   1.594   5.138
  541SOL    HW2 1759   0.151   1.569   5.116
  542SOL     OW 1760   0.330   1.121   4.217
  542SOL    HW1 1761   0.331   1.212   4.176
  542SOL    HW2 1762   0.327   1.052   4.144
  543SOL     OW 1763   0.549   0.503   4.590
  543SOL    HW1 1764   0.554   0.560   4.508
  543SOL    HW2 1765   0.613   0.538   4.658
  544SOL     OW 1766   1.245   1.362   4.140
  544SOL    HW1 1767   1.306   1.437   4.166
  544SOL    HW2 1768   1.152   1.384   4.168
  545SOL     OW 1769   1.324   1.479   4.849
  545SOL    HW1 1770   1.365   1.490   4.939
  545SOL    HW2 1771   1.267   1.397   4.848
  546SOL     OW 1772   1.589   0.629   4.218
  546SOL    HW1 1773   1.537   0.670   4.293
  546SOL    HW2 1774   1.649   0.699   4.178
  547SOL     OW 1775   0.345   1.542   5.044
  547SOL    HW1 1776   0.335   1.492   4.958
  547SOL    HW2 1777   0.441   1.567   5.057
  548SOL     OW 1778   0.451   0.735   5.343
  548SOL    HW1 1779   0.511   0.770   5.271
  548SOL    HW2 1780   0.487   0.648   5.377
  549SOL     OW 1781   1.525   0.860   5.355
  549SOL    HW1 1782   1.457   0.844   5.284
  549SOL    HW2 1783   1.607   0.900   5.314
  550SOL     OW 1784   0.598   0.877   4.764
  550SOL    HW1 1785   0.632   0.971   4.756
  550SOL    HW2 1786   0.539   0.870   4.844
  551SOL     OW 1787   1.291   0.856   4.742
  551SOL    HW1 1788   1.199   0.828   4.714
  551SOL    HW2 1789   1.356   0.782   4.724
  552SOL     OW 1790   1.214   0.518   3.984
  552SOL    HW1 1791   1.233   0.439   4.043
  552SOL    HW2 1792   1.167   0.589   4.037
  553SOL     OW 1793   0.297   0.176   4.947
  553SOL    HW1 1794   0.271   0.224   5.031
  553SOL    HW2 1795   0.280   0.078   4.958
  554SOL     OW 1796   0.081   1.290   4.990
  554SOL    HW1 1797   0.108   1.225   5.061
  554SOL    HW2 1798   0.067   1.380   5.031
  555SOL     OW 1799   0.726   0.634   4.757
  555SOL    HW1 1800   0.798   0.619   4.689
  555SOL    HW2 1801   0.688   0.726   4.746
  556SOL     OW 1802   1.682   0.854   0.067
  556SOL    HW1 1803   1.631   0.851   5.498
  556SOL    HW2 1804   1.637   0.918   0.130
  557SOL     OW 1805   0.349   0.070   4.343
  557SOL    HW1 1806   0.300   0.157   4.358
  557SOL    HW2 1807   0.369   0.028   4.431
  558SOL     OW 1808   1.631   0.409   4.062
  558SOL    HW1 1809   1.641   0.324   4.114
  558SOL    HW2 1810   1.598   0.482   4.122
  559SOL     OW 1811   1.032   0.759   4.681
  559SOL    HW1 1812   1.006   0.778   4.776
  559SOL    HW2 1813   1.005   0.666   4.657
  560SOL     OW 1814   0.857   1.562   5.448
  560SOL    HW1 1815   0.907   1.618   5.381
  560SOL    HW2 1816   0.788   1.507   5.401
  561SOL     OW 1817   1.802   1.479   5.340
  561SOL    HW1 1818   1.850   1.520   5.263
  561SOL    HW2 1819   1.845   1.509   5.426
  562SOL     OW 1820   0.423   0.967   5.489
  562SOL    HW1 1821   0.473   0.956   0.058
  562SOL    HW2 1822   0.432   0.884   5.434
  563SOL     OW 1823   1.535   0.288   3.828
  563SOL    HW1 1824   1.477   0.214   3.861
  563SOL    HW2 1825   1.574   0.338   3.905
  564SOL     OW 1826   1.285   0.826   3.724
  564SOL    HW1 1827   1.321   0.734   3.741
  564SOL    HW2 1828   1.319   0.859   3.636
  565SOL     OW 1829   1.074   1.364   4.585
  565SOL    HW1 1830   1.095   1.283   4.531
  565SOL    HW2 1831   1.131   1.440   4.554
  566SOL     OW 1832   0.339   0.786   4.675
  566SOL    HW1 1833   0.437   0.805   4.676
  566SOL    HW2 1834   0.324   0.689   4.697
  567SOL     OW 1835   0.312   0.506   4.721
  567SOL    HW1 1836   0.259   0.421   4.710
  567SOL    HW2 1837   0.396   0.499   4.667
  568SOL     OW 1838   1.126   0.160   5.255
  568SOL    HW1 1839   1.117   0.211   5.341
  568SOL    HW2 1840   1.179   0.213   5.190
  569SOL     OW 1841   5.477   1.273   3.900
  569SOL    HW1 1842   5.383   1.267   3.867
  569SOL    HW2 1843   5.507   1.183   3.931
  570SOL     OW 1844   0.139   1.759   4.688
  570SOL    HW1 1845   0.101   1.687   4.630
  570SOL    HW2 1846   0.225   1.792   4.650
  571SOL     OW 1847   0.503   1.571   4.624
  571SOL    HW1 1848   0.576   1.631   4.654
  571SOL    HW2 1849   0.539   1.503   4.560
  572SOL     OW 1850   0.935   0.799   4.933
  572SOL    HW1 1851   0.990   0.772   5.012
  572SOL    HW2 1852   0.850   0.747   4.932
  573SOL     OW 1853   5.473   0.626   4.882
  573SOL    HW1 1854   0.014   0.590   4.810
  573SOL    HW2 1855   5.505   0.593   4.971
  574SOL     OW 1856   0.820   0.575   4.086
  574SOL    HW1 1857   0.826   0.490   4.034
  574SOL    HW2 1858   0.742   0.629   4.054
  575SOL     OW 1859   1.638   0.600   4.888
  575SOL    HW1 1860   1.626   0.550   4.974
  575SOL    HW2 1861   1.735   0.601   4.863
  576SOL     OW 1862   0.256   1.577   5.444
  576SOL    HW1 1863   0.183   1.566   5.511
  576SOL    HW2 1864   0.267   1.492   5.392
  577SOL     OW 1865   0.757   0.440   4.944
  577SOL    HW1 1866   0.688   0.368   4.935
  577SOL    HW2 1867   0.739   0.511   4.876
  578SOL     OW 1868   0.959   1.657   5.144
  578SOL    HW1 1869   0.920   1.615   5.062
  578SOL    HW2 1870   0.946   1.756   5.141
  579SOL     OW 1871   0.449   0.482   3.891
  579SOL    HW1 1872   0.524   0.545   3.910
  579SOL    HW2 1873   0.362   0.533   3.890
  580SOL     OW 1874   0.151   1.145   5.226
  580SOL    HW1 1875   0.155   1.110   5.320
  580SOL    HW2 1876   0.175   1.072   5.162
  581SOL     OW 1877   1.268   1.039   4.951
  581SOL    HW1 1878   1.285   0.968   4.883
  581SOL    HW2 1879   1.232   1.121   4.906
  582SOL     OW 1880   1.342   0.879   3.990
  582SOL    HW1 1881   1.276   0.844   4.056
  582SOL    HW2 1882   1.311   0.860   3.897
  583SOL     OW 1883   1.761   1.699   4.879
  583SOL    HW1 1884   1.836   1.734   4.822
  583SOL    HW2 1885   1.738   1.606   4.851
  584SOL     OW 1886   1.271   1.736   4.777
  584SOL    HW1 1887   1.359   1.783   4.780
  584SOL    HW2 1888   1.281   1.643   4.813
  585SOL     OW 1889   0.150   1.251   4.732
  585SOL    HW1 1890   0.118   1.267   4.826
  585SOL    HW2 1891   0.077   1.208   4.679
  586SOL     OW 1892   1.704   0.158   4.163
  586SOL    HW1 1893   1.772   0.173   4.091
  586SOL    HW2 1894   1.748   0.112   4.241
  587SOL     OW 1895   1.397   1.582   4.217
  587SOL    HW1 1896   1.459   1.616   4.146
  587SOL    HW2 1897   1.337   1.656   4.247
  588SOL     OW 1898   1.289   0.936   4.365
  588SOL    HW1 1899   1.364   0.875   4.391
  588SOL    HW2 1900   1.327   1.018   4.321
  589SOL     OW 1901   0.762   1.260   5.130
  589SOL    HW1 1902   0.737   1.314   5.210
  589SOL    HW2 1903   0.692   1.271   5.059
  590SOL     OW 1904   0.685   1.619   3.889
  590SOL    HW1 1905   0.695   1.651   3.795
  590SOL    HW2 1906   0.623   1.541   3.892
  591SOL     OW 1907   1.606   1.727   5.106
  591SOL    HW1 1908   1.665   1.720   5.025
  591SOL    HW2 1909   1.638   1.802   5.164
  592SOL     OW 1910   1.833   0.094   4.672
  592SOL    HW1 1911   1.817   0.010   4.620
  592SOL    HW2 1912   1.752   0.152   4.668
  593SOL     OW 1913   0.230   0.309   4.424
  593SOL    HW1 1914   0.153   0.366   4.396
  593SOL    HW2 1915   0.228   0.295   4.523
  594SOL     OW 1916   1.222   1.588   3.756
  594SOL    HW1 1917   1.209   1.498   3.798
  594SOL    HW2 1918   1.150   1.603   3.687
  595SOL     OW 1919   0.832   1.000   5.127
  595SOL    HW1 1920   0.878   0.976   5.042
  595SOL    HW2 1921   0.808   1.097   5.126
  596SOL     OW 1922   0.929   0.897   3.993
  596SOL    HW1 1923   0.989   0.943   3.927
  596SOL    HW2 1924   0.982   0.829   4.044
  597SOL     OW 1925   1.494   1.651   3.775
  597SOL    HW1 1926   1.398   1.628   3.759
  597SOL    HW2 1927   1.542   1.657   3.688
  598SOL     OW 1928   0.311   1.367   5.266
  598SOL    HW1 1929   0.318   1.428   5.188
  598SOL    HW2 1930   0.247   1.293   5.244
  599SOL     OW 1931   1.594   1.301   5.003
  599SOL    HW1 1932   1.655   1.272   5.077
  599SOL    HW2 1933   1.531   1.370   5.038
  600SOL     OW 1934   1.106   1.114   4.481
  600SOL    HW1 1935   1.022   1.070   4.514
  600SOL    HW2 1936   1.161   1.047   4.431
  601SOL     OW 1937   1.032   0.228   4.695
  601SOL    HW1 1938   1.026   0.184   4.605
  601SOL    HW2 1939   1.021   0.160   4.767
  602SOL     OW 1940   0.581   1.470   4.202
  602SOL    HW1 1941   0.636   1.420   4.135
  602SOL    HW2 1942   0.484   1.457   4.182
  603SOL     OW 1943   1.724   0.429   5.119
  603SOL    HW1 1944   1.812   0.475   5.127
  603SOL    HW2 1945   1.737   0.339   5.077
  604SOL     OW 1946   0.229   1.346   3.960
  604SOL    HW1 1947   0.131   1.329   3.951
  604SOL    HW2 1948   0.248   1.380   4.052
  605SOL     OW 1949   0.162   1.045   5.478
  605SOL    HW1 1950   0.121   1.035   0.051
  605SOL    HW2 1951   0.258   1.016   5.481
  606SOL     OW 1952   0.676   0.225   5.188
  606SOL    HW1 1953   0.756   0.181   5.149
  606SOL    HW2 1954   0.694   0.249   5.283
  607SOL     OW 1955   0.051   0.319   3.776
  607SOL    HW1 1956   5.469   0.312   3.770
  607SOL    HW2 1957   0.082   0.397   3.722
  608SOL     OW 1958   1.385   0.830   5.118
  608SOL    HW1 1959   1.318   0.895   5.081
  608SOL    HW2 1960   1.471   0.839   5.069
  609SOL     OW 1961   0.020   0.114   3.980
  609SOL    HW1 1962   0.019   0.187   3.911
  609SOL    HW2 1963   0.111   0.073   3.984
  610SOL     OW 1964   1.171   1.338   3.864
  610SOL    HW1 1965   1.073   1.322   3.855
  610SOL    HW2 1966   1.197   1.335   3.961
  611SOL     OW 1967   0.644   0.808   5.160
  611SOL    HW1 1968   0.705   0.887   5.155
  611SOL    HW2 1969   0.698   0.724   5.166
  612SOL     OW 1970   1.521   1.847   4.785
  612SOL    HW1 1971   1.553   1.907   4.711
  612SOL    HW2 1972   1.599   1.797   4.824
  613SOL     OW 1973   0.682   0.551   5.419
  613SOL    HW1 1974   0.735   0.612   5.478
  613SOL    HW2 1975   0.702   0.456   5.443
  614SOL     OW 1976   0.374   1.777   5.298
  614SOL    HW1 1977   0.301   1.845   5.296
  614SOL    HW2 1978   0.348   1.700   5.356
  615SOL     OW 1979   1.612   0.874   4.966
  615SOL    HW1 1980   1.627   0.786   4.921
  615SOL    HW2 1981   1.603   0.946   4.897
  616SOL     OW 1982   1.249   0.319   4.179
  616SOL    HW1 1983   1.308   0.238   4.178
  616SOL    HW2 1984   1.269   0.373   4.260
  617SOL     OW 1985   0.578   0.710   4.405
  617SOL    HW1 1986   0.627   0.797   4.399
  617SOL    HW2 1987   0.520   0.699   4.325
  618SOL     OW 1988   1.704   0.310   5.381
  618SOL    HW1 1989   1.689   0.370   5.303
  618SOL    HW2 1990   1.634   0.327   5.451
  619SOL     OW 1991   1.719   0.966   5.203
  619SOL    HW1 1992   1.723   1.066   5.206
  619SOL    HW2 1993   1.691   0.935   5.112
  620SOL     OW 1994   0.884   1.358   3.828
  620SOL    HW1 1995   0.840   1.347   3.917
  620SOL    HW2 1996   0.864   1.448   3.791
  621SOL     OW 1997   0.689   1.760   4.673
  621SOL    HW1 1998   0.667   1.857   4.661
  621SOL    HW2 1999   0.786   1.745   4.655
  622SOL     OW 2000   0.885   0.985   4.593
  622SOL    HW1 2001   0.934   0.905   4.628
  622SOL    HW2 2002   0.832   1.027   4.667
  623SOL     OW 2003   1.086   0.998   3.800
  623SOL    HW1 2004   1.051   1.052   3.724
  623SOL    HW2 2005   1.158   0.936   3.767
  624SOL     OW 2006   1.814   1.574   4.570
  624SOL    HW1 2007   1.741   1.568   4.502
  624SOL    HW2 2008   1.793   1.514   4.647
  625SOL     OW 2009   0.149   1.251   4.394
  625SOL    HW1 2010   0.089   1.204   4.459
  625SOL    HW2 2011   0.204   1.183   4.345
  626SOL     OW 2012   0.659   1.421   5.325
  626SOL    HW1 2013   0.601   1.356   5.374
  626SOL    HW2 2014   0.601   1.486   5.275
  627SOL     OW 2015   1.758   0.183   4.985
  627SOL    HW1 2016   1.785   0.088   4.968
  627SOL    HW2 2017   1.743   0.230   4.898
  628SOL     OW 2018   0.413   0.408   4.234
  628SOL    HW1 2019   0.458   0.336   4.180
  628SOL    HW2 2020   0.359   0.365   4.307
  629SOL     OW 2021   1.700   1.449   4.790
  629SOL    HW1 2022   1.622   1.434   4.730
  629SOL    HW2 2023   1.692   1.390   4.870
  630SOL     OW 2024   0.333   0.578   4.986
  630SOL    HW1 2025   0.392   0.522   5.043
  630SOL    HW2 2026   0.333   0.542   4.892
  631SOL     OW 2027   0.821   1.580   4.391
  631SOL    HW1 2028   0.780   1.644   4.325
  631SOL    HW2 2029   0.754   1.509   4.414
  632SOL     OW 2030   1.387   0.231   4.861
  632SOL    HW1 2031   1.356   0.136   4.858
  632SOL    HW2 2032   1.355   0.273   4.946
  633SOL     OW 2033   1.021   0.001   4.864
  633SOL    HW1 2034   0.972   5.432   4.864
  633SOL    HW2 2035   1.118   5.502   4.844
  634SOL     OW 2036   0.779   1.314   4.075
  634SOL    HW1 2037   0.762   1.217   4.093
  634SOL    HW2 2038   0.857   1.344   4.130
  635SOL     OW 2039   0.622   1.581   5.049
  635SOL    HW1 2040   0.613   1.677   5.076
  635SOL    HW2 2041   0.709   1.568   5.001
  636SOL     OW 2042   1.389   0.067   3.893
  636SOL    HW1 2043   1.425   5.510   3.837
  636SOL    HW2 2044   1.290   0.054   3.904
  637SOL     OW 2045   1.304   0.471   4.404
  637SOL    HW1 2046   1.252   0.556   4.392
  637SOL    HW2 2047   1.293   0.438   4.497
  638SOL     OW 2048   1.601   0.239   4.678
  638SOL    HW1 2049   1.530   0.251   4.747
  638SOL    HW2 2050   1.594   0.312   4.610
  639SOL     OW 2051   0.049   1.026   3.981
  639SOL    HW1 2052   0.149   1.019   3.971
  639SOL    HW2 2053   0.016   0.951   4.037
  640SOL     OW 2054   0.905   1.683   4.050
  640SOL    HW1 2055   0.824   1.658   3.997
  640SOL    HW2 2056   0.881   1.755   4.115
  641SOL     OW 2057   0.181   2.440   0.061
  641SOL    HW1 2058   0.100   2.463   0.114
  641SOL    HW2 2059   0.182   2.492   5.493
  642SOL     OW 2060   0.164   2.141   0.984
  642SOL    HW1 2061   0.206   2.107   1.069
  642SOL    HW2 2062   0.067   2.117   0.983
  643SOL     OW 2063   0.004   2.303   0.598
  643SOL    HW1 2064   5.443   2.362   0.581
  643SOL    HW2 2065   5.509   2.215   0.553
  644SOL     OW 2066   0.601   3.196   1.222
  644SOL    HW1 2067   0.515   3.195   1.171
  644SOL    HW2 2068   0.625   3.290   1.245
  645SOL     OW 2069   1.594   3.375   0.704
  645SOL    HW1 2070   1.543   3.339   0.782
  645SOL    HW2 2071   1.530   3.396   0.630
  646SOL     OW 2072   1.133   2.580   0.675
  646SOL    HW1 2073   1.185   2.664   0.658
  646SOL    HW2 2074   1.085   2.588   0.762
  647SOL     OW 2075   1.789   2.481   0.170
  647SOL    HW1 2076   1.741   2.557   0.126
  647SOL    HW2 2077   1.723   2.413   0.202
  648SOL     OW 2078   0.728   2.987   1.064
  648SOL    HW1 2079   0.671   3.024   1.137
  648SOL    HW2 2080   0.765   3.063   1.009
  649SOL     OW 2081   0.903   2.592   1.811
  649SOL    HW1 2082   0.929   2.658   1.882
  649SOL    HW2 2083   0.910   2.636   1.721
  650SOL     OW 2084   0.698   2.824   0.667
  650SOL    HW1 2085   0.771   2.827   0.735
  650SOL    HW2 2086   0.629   2.892   0.690
  651SOL     OW 2087   0.724   3.021   1.847
  651SOL    HW1 2088   0.783   3.091   1.888
  651SOL    HW2 2089   0.648   3.065   1.800
  652SOL     OW 2090   0.367   3.267   1.084
  652SOL    HW1 2091   0.294   3.207   1.051
  652SOL    HW2 2092   0.400   3.323   1.009
  653SOL     OW 2093   1.442   3.372   1.378
  653SOL    HW1 2094   1.500   3.453   1.391
  653SOL    HW2 2095   1.363   3.378   1.439
  654SOL     OW 2096   0.458   2.231   1.441
  654SOL    HW1 2097   0.541   2.177   1.458
  654SOL    HW2 2098   0.380   2.185   1.482
  655SOL     OW 2099   1.581   2.306   0.744
  655SOL    HW1 2100   1.514   2.313   0.670
  655SOL    HW2 2101   1.562   2.375   0.813
  656SOL     OW 2102   0.271   3.554   0.474
  656SOL    HW1 2103   0.271   3.639   0.528
  656SOL    HW2 2104   0.343   3.559   0.404
  657SOL     OW 2105   1.124   3.202   1.703
  657SOL    HW1 2106   1.179   3.191   1.786
  657SOL    HW2 2107   1.068   3.120   1.689
  658SOL     OW 2108   0.241   3.286   0.519
  658SOL    HW1 2109   0.245   3.386   0.519
  658SOL    HW2 2110   0.185   3.256   0.597
  659SOL     OW 2111   0.359   2.925   0.945
  659SOL    HW1 2112   0.341   2.829   0.965
  659SOL    HW2 2113   0.289   2.981   0.989
  660SOL     OW 2114   0.563   3.718   1.384
  660SOL    HW1 2115   0.491   3.684   1.445
  660SOL    HW2 2116   0.614   3.790   1.430
  661SOL     OW 2117   0.598   2.837   0.195
  661SOL    HW1 2118   0.648   2.873   0.116
  661SOL    HW2 2119   0.644   2.864   0.279
  662SOL     OW 2120   1.610   1.983   1.485
  662SOL    HW1 2121   1.656   2.063   1.446
  662SOL    HW2 2122   1.554   2.012   1.562
  663SOL     OW 2123   0.130   2.556   0.565
  663SOL    HW1 2124   0.101   2.461   0.580
  663SOL    HW2 2125   0.138   2.603   0.653
  664SOL     OW 2126   1.876   3.584   0.288
  664SOL    HW1 2127   1.950   3.571   0.353
  664SOL    HW2 2128   1.874   3.679   0.258
  665SOL     OW 2129   0.043   3.427   0.185
  665SOL    HW1 2130   0.045   3.327   0.193
  665SOL    HW2 2131   0.127   3.465   0.225
  666SOL     OW 2132   1.709   2.792   0.669
  666SOL    HW1 2133   1.802   2.756   0.671
  666SOL    HW2 2134   1.697   2.848   0.586
  667SOL     OW 2135   1.683   2.971   0.450
  667SOL    HW1 2136   1.765   2.957   0.394
  667SOL    HW2 2137   1.703   3.040   0.520
  668SOL     OW 2138   0.157   2.608   1.579
  668SOL    HW1 2139   0.254   2.633   1.582
  668SOL    HW2 2140   0.102   2.690   1.560
  669SOL     OW 2141   0.623   3.259   0.721
  669SOL    HW1 2142   0.585   3.167   0.734
  669SOL    HW2 2143   0.607   3.288   0.626
  670SOL     OW 2144   1.253   3.075   1.418
  670SOL    HW1 2145   1.272   3.003   1.352
  670SOL    HW2 2146   1.321   3.072   1.491
  671SOL     OW 2147   0.823   1.875   0.523
  671SOL    HW1 2148   0.873   1.958   0.500
  671SOL    HW2 2149   0.725   1.891   0.515
  672SOL     OW 2150   0.206   2.812   1.319
  672SOL    HW1 2151   0.291   2.765   1.295
  672SOL    HW2 2152   0.133   2.781   1.259
  673SOL     OW 2153   1.532   2.878   0.235
  673SOL    HW1 2154   1.456   2.822   0.268
  673SOL    HW2 2155   1.582   2.916   0.313
  674SOL     OW 2156   1.174   3.664   1.628
  674SOL    HW1 2157   1.182   3.736   1.559
  674SOL    HW2 2158   1.188   3.575   1.585
  675SOL     OW 2159   0.346   2.120   1.894
  675SOL    HW1 2160   0.393   2.198   1.935
  675SOL    HW2 2161   0.248   2.138   1.888
  676SOL     OW 2162   1.476   3.264   0.924
  676SOL    HW1 2163   1.411   3.297   0.992
  676SOL    HW2 2164   1.453   3.170   0.899
  677SOL     OW 2165   1.634   3.725   0.531
  677SOL    HW1 2166   1.629   3.658   0.457
  677SOL    HW2 2167   1.651   3.677   0.617
  678SOL     OW 2168   0.581   2.553   0.263
  678SOL    HW1 2169   0.601   2.645   0.229
  678SOL    HW2 2170   0.513   2.559   0.336
  679SOL     OW 2171   1.280   2.261   0.936
  679SOL    HW1 2172   1.188   2.223   0.935
  679SOL    HW2 2173   1.338   2.206   0.996
  680SOL     OW 2174   1.605   3.545   0.326
  680SOL    HW1 2175   1.704   3.541   0.315
  680SOL    HW2 2176   1.561   3.536   0.237
  681SOL     OW 2177   0.799   2.438   1.434
  681SOL    HW1 2178   0.768   2.415   1.527
  681SOL    HW2 2179   0.770   2.366   1.371
  682SOL     OW 2180   1.385   2.332   1.661
  682SOL    HW1 2181   1.391   2.380   1.748
  682SOL    HW2 2182   1.427   2.241   1.670
  683SOL     OW 2183   0.943   2.738   1.577
  683SOL    HW1 2184   1.000   2.673   1.527
  683SOL    HW2 2185   0.889   2.792   1.512
  684SOL     OW 2186   1.006   2.237   1.192
  684SOL    HW1 2187   0.910   2.247   1.219
  684SOL    HW2 2188   1.011   2.192   1.103
  685SOL     OW 2189   1.044   2.546   0.413
  685SOL    HW1 2190   1.070   2.552   0.509
  685SOL    HW2 2191   0.958   2.495   0.405
  686SOL     OW 2192   0.128   2.712   0.794
  686SOL    HW1 2193   0.210   2.682   0.843
  686SOL    HW2 2194   0.094   2.797   0.833
  687SOL     OW 2195   0.123   3.746   1.616
  687SOL    HW1 2196   0.113   3.692   1.700
  687SOL    HW2 2197   0.033   3.761   1.575
  688SOL     OW 2198   0.894   2.153   0.220
  688SOL    HW1 2199   0.928   2.228   0.162
  688SOL    HW2 2200   0.898   2.067   0.170
  689SOL     OW 2201   1.671   2.430   1.842
  689SOL    HW1 2202   1.658   2.512   1.786
  689SOL    HW2 2203   1.691   2.352   1.783
  690SOL     OW 2204   1.415   3.031   0.570
  690SOL    HW1 2205   1.501   3.022   0.519
  690SOL    HW2 2206   1.357   3.098   0.525
  691SOL     OW 2207   0.575   2.021   0.923
  691SOL    HW1 2208   0.568   2.039   1.021
  691SOL    HW2 2209   0.574   2.108   0.873
  692SOL     OW 2210   0.997   3.327   0.485
  692SOL    HW1 2211   0.980   3.400   0.419
  692SOL    HW2 2212   0.956   3.352   0.573
  693SOL     OW 2213   0.377   3.688   0.875
  693SOL    HW1 2214   0.414   3.595   0.881
  693SOL    HW2 2215   0.450   3.754   0.895
  694SOL     OW 2216   1.795   2.908   0.914
  694SOL    HW1 2217   1.752   2.899   0.824
  694SOL    HW2 2218   1.725   2.923   0.983
  695SOL     OW 2219   1.196   3.395   1.512
  695SOL    HW1 2220   1.187   3.327   1.585
  695SOL    HW2 2221   1.136   3.369   1.436
  696SOL     OW 2222   0.348   2.820   0.330
  696SOL    HW1 2223   0.432   2.840   0.280
  696SOL    HW2 2224   0.357   2.732   0.377
  697SOL     OW 2225   1.490   2.633   0.702
  697SOL    HW1 2226   1.484   2.585   0.790
  697SOL    HW2 2227   1.572   2.691   0.702
  698SOL     OW 2228   0.506   3.154   1.734
  698SOL    HW1 2229   0.491   3.155   1.635
  698SOL    HW2 2230   0.419   3.147   1.781
  699SOL     OW 2231   1.136   3.642   0.207
  699SOL    HW1 2232   1.065   3.606   0.267
  699SOL    HW2 2233   1.171   3.569   0.149
  700SOL     OW 2234   0.209   2.129   1.520
  700SOL    HW1 2235   0.131   2.189   1.540
  700SOL    HW2 2236   0.192   2.039   1.559
  701SOL     OW 2237   1.630   3.235   0.124
  701SOL    HW1 2238   1.592   3.328   0.120
  701SOL    HW2 2239   1.563   3.170   0.088
  702SOL     OW 2240   0.490   3.584   0.303
  702SOL    HW1 2241   0.526   3.656   0.364
  702SOL    HW2 2242   0.564   3.551   0.245
  703SOL     OW 2243   1.394   1.965   0.445
  703SOL    HW1 2244   1.393   1.950   0.346
  703SOL    HW2 2245   1.484   1.943   0.482
  704SOL     OW 2246   0.249   3.654   1.246
  704SOL    HW1 2247   0.300   3.574   1.275
  704SOL    HW2 2248   0.209   3.637   1.156
  705SOL     OW 2249   0.947   3.559   0.889
  705SOL    HW1 2250   1.038   3.518   0.897
  705SOL    HW2 2251   0.896   3.514   0.816
  706SOL     OW 2252   0.383   2.558   0.460
  706SOL    HW1 2253   0.407   2.461   0.471
  706SOL    HW2 2254   0.290   2.573   0.492
  707SOL     OW 2255   1.472   2.069   1.714
  707SOL    HW1 2256   1.488   2.089   1.811
  707SOL    HW2 2257   1.398   2.003   1.705
  708SOL     OW 2258   0.666   1.996   0.094
  708SOL    HW1 2259   0.744   1.935   0.081
  708SOL    HW2 2260   0.586   1.957   0.047
  709SOL     OW 2261   0.777   2.131   1.751
  709SOL    HW1 2262   0.864   2.081   1.748
  709SOL    HW2 2263   0.718   2.091   1.821
  710SOL     OW 2264   0.868   3.381   1.170
  710SOL    HW1 2265   0.845   3.328   1.088
  710SOL    HW2 2266   0.934   3.330   1.225
  711SOL     OW 2267   1.313   2.450   1.424
  711SOL    HW1 2268   1.347   2.418   1.512
  711SOL    HW2 2269   1.347   2.543   1.407
  712SOL     OW 2270   0.814   3.221   0.938
  712SOL    HW1 2271   0.907   3.226   0.904
  712SOL    HW2 2272   0.750   3.239   0.863
  713SOL     OW 2273   0.924   2.364   0.881
  713SOL    HW1 2274   0.899   2.357   0.784
  713SOL    HW2 2275   0.953   2.275   0.914
  714SOL     OW 2276   0.558   1.929   0.473
  714SOL    HW1 2277   0.479   1.928   0.533
  714SOL    HW2 2278   0.555   2.011   0.416
  715SOL     OW 2279   1.428   3.064   0.052
  715SOL    HW1 2280   1.461   2.988   0.109
  715SOL    HW2 2281   1.344   3.101   0.091
  716SOL     OW 2282   0.282   1.856   0.165
  716SOL    HW1 2283   0.322   1.934   0.117
  716SOL    HW2 2284   0.354   1.799   0.203
  717SOL     OW 2285   0.968   2.102   0.473
  717SOL    HW1 2286   0.935   2.121   0.380
  717SOL    HW2 2287   1.065   2.124   0.478
  718SOL     OW 2288   1.054   2.551   1.414
  718SOL    HW1 2289   0.978   2.486   1.425
  718SOL    HW2 2290   1.141   2.502   1.417
  719SOL     OW 2291   1.207   3.474   0.820
  719SOL    HW1 2292   1.232   3.525   0.738
  719SOL    HW2 2293   1.246   3.519   0.901
  720SOL     OW 2294   0.506   3.010   0.734
  720SOL    HW1 2295   0.460   2.982   0.819
  720SOL    HW2 2296   0.441   3.011   0.659
  721SOL     OW 2297   1.250   3.662   0.611
  721SOL    HW1 2298   1.296   3.727   0.551
  721SOL    HW2 2299   1.170   3.705   0.652
  722SOL     OW 2300   0.972   2.351   0.052
  722SOL    HW1 2301   0.931   2.441   0.039
  722SOL    HW2 2302   1.056   2.359   0.106
  723SOL     OW 2303   0.071   2.442   1.375
  723SOL    HW1 2304   0.159   2.419   1.332
  723SOL    HW2 2305   0.087   2.506   1.450
  724SOL     OW 2306   0.542   2.057   1.191
  724SOL    HW1 2307   0.564   1.977   1.247
  724SOL    HW2 2308   0.446   2.082   1.205
  725SOL     OW 2309   0.871   2.318   0.620
  725SOL    HW1 2310   0.824   2.369   0.548
  725SOL    HW2 2311   0.906   2.232   0.581
  726SOL     OW 2312   1.020   1.914   0.734
  726SOL    HW1 2313   0.952   1.913   0.661
  726SOL    HW2 2314   1.001   1.840   0.798
  727SOL     OW 2315   1.425   3.001   0.859
  727SOL    HW1 2316   1.354   2.934   0.877
  727SOL    HW2 2317   1.435   3.014   0.761
  728SOL     OW 2318   1.456   2.487   0.937
  728SOL    HW1 2319   1.388   2.414   0.947
  728SOL    HW2 2320   1.519   2.485   1.014
  729SOL     OW 2321   1.822   2.647   0.385
  729SOL    HW1 2322   1.876   2.605   0.457
  729SOL    HW2 2323   1.820   2.587   0.305
  730SOL     OW 2324   0.522   3.269   0.145
  730SOL    HW1 2325   0.435   3.261   0.194
  730SOL    HW2 2326   0.521   3.211   0.064
  731SOL     OW 2327   1.739   3.138   0.649
  731SOL    HW1 2328   1.835   3.137   0.677
  731SOL    HW2 2329   1.699   3.228   0.669
  732SOL     OW 2330   1.339   2.375   0.030
  732SOL    HW1 2331   1.278   2.372   0.109
  732SOL    HW2 2332   1.407   2.302   0.037
  733SOL     OW 2333   0.552   2.145   0.304
  733SOL    HW1 2334   0.604   2.093   0.237
  733SOL    HW2 2335   0.499   2.216   0.258
  734SOL     OW 2336   1.733   3.104   1.538
  734SOL    HW1 2337   1.824   3.064   1.528
  734SOL    HW2 2338   1.742   3.198   1.573
  735SOL     OW 2339   1.032   3.219   1.340
  735SOL    HW1 2340   0.946   3.189   1.381
  735SOL    HW2 2341   1.107   3.167   1.379
  736SOL     OW 2342   1.614   3.516   1.673
  736SOL    HW1 2343   1.595   3.552   1.582
  736SOL    HW2 2344   1.692   3.454   1.669
  737SOL     OW 2345   1.150   3.122   1.109
  737SOL    HW1 2346   1.090   3.153   1.182
  737SOL    HW2 2347   1.115   3.154   1.020
  738SOL     OW 2348   1.592   2.958   1.091
  738SOL    HW1 2349   1.585   3.028   1.162
  738SOL    HW2 2350   1.525   2.976   1.019
  739SOL     OW 2351   0.930   1.934   1.382
  739SOL    HW1 2352   0.948   1.914   1.286
  739SOL    HW2 2353   1.010   1.977   1.423
  740SOL     OW 2354   0.968   2.973   1.717
  740SOL    HW1 2355   0.876   2.989   1.752
  740SOL    HW2 2356   0.969   2.890   1.662
  741SOL     OW 2357   0.756   2.902   0.405
  741SOL    HW1 2358   0.742   2.871   0.499
  741SOL    HW2 2359   0.828   2.847   0.363
  742SOL     OW 2360   0.430   2.663   1.264
  742SOL    HW1 2361   0.506   2.668   1.330
  742SOL    HW2 2362   0.390   2.572   1.268
  743SOL     OW 2363   1.257   2.221   1.290
  743SOL    HW1 2364   1.284   2.306   1.335
  743SOL    HW2 2365   1.164   2.230   1.253
  744SOL     OW 2366   0.103   3.388   1.388
  744SOL    HW1 2367   0.052   3.473   1.402
  744SOL    HW2 2368   0.201   3.409   1.378
  745SOL     OW 2369   0.320   3.013   0.534
  745SOL    HW1 2370   0.308   3.108   0.503
  745SOL    HW2 2371   0.327   2.953   0.455
  746SOL     OW 2372   0.547   2.343   0.854
  746SOL    HW1 2373   0.549   2.405   0.777
  746SOL    HW2 2374   0.610   2.375   0.925
  747SOL     OW 2375   1.256   3.229   0.449
  747SOL    HW1 2376   1.315   3.307   0.469
  747SOL    HW2 2377   1.161   3.253   0.469
  748SOL     OW 2378   1.320   3.337   1.137
  748SOL    HW1 2379   1.365   3.345   1.226
  748SOL    HW2 2380   1.263   3.255   1.137
  749SOL     OW 2381   1.590   2.503   0.472
  749SOL    HW1 2382   1.535   2.543   0.546
  749SOL    HW2 2383   1.658   2.570   0.442
  750SOL     OW 2384   0.372   3.410   1.313
  750SOL    HW1 2385   0.361   3.357   1.229
  750SOL    HW2 2386   0.468   3.435   1.324
  751SOL     OW 2387   0.462   2.596   1.629
  751SOL    HW1 2388   0.519   2.634   1.557
  751SOL    HW2 2389   0.504   2.512   1.665
  752SOL     OW 2390   1.631   2.656   1.697
  752SOL    HW1 2391   1.538   2.693   1.685
  752SOL    HW2 2392   1.689   2.687   1.621
  753SOL     OW 2393   1.007   1.985   1.759
  753SOL    HW1 2394   1.064   2.067   1.746
  753SOL    HW2 2395   1.060   1.904   1.734
  754SOL     OW 2396   0.498   1.922   1.771
  754SOL    HW1 2397   0.452   1.872   1.698
  754SOL    HW2 2398   0.441   1.998   1.801
  755SOL     OW 2399   0.605   2.717   1.052
  755SOL    HW1 2400   0.637   2.812   1.046
  755SOL    HW2 2401   0.539   2.709   1.126
  756SOL     OW 2402   1.287   2.713   0.989
  756SOL    HW1 2403   1.195   2.680   0.969
  756SOL    HW2 2404   1.353   2.641   0.970
  757SOL     OW 2405   1.172   2.363   0.249
  757SOL    HW1 2406   1.199   2.289   0.311
  757SOL    HW2 2407   1.134   2.439   0.301
  758SOL     OW 2408   0.264   2.064   1.237
  758SOL    HW1 2409   0.241   2.101   1.327
  758SOL    HW2 2410   0.262   1.964   1.240
  759SOL     OW 2411   0.055   3.143   1.294
  759SOL    HW1 2412   0.103   3.084   1.359
  759SOL    HW2 2413   0.069   3.238   1.320
  760SOL     OW 2414   0.713   2.462   1.039
  760SOL    HW1 2415   0.792   2.448   0.980
  760SOL    HW2 2416   0.682   2.557   1.032
  761SOL     OW 2417   1.751   2.832   1.878
  761SOL    HW1 2418   1.710   2.761   1.821
  761SOL    HW2 2419   1.686   2.859   1.949
  762SOL     OW 2420   0.330   1.931   0.627
  762SOL    HW1 2421   0.289   2.021   0.642
  762SOL    HW2 2422   0.341   1.884   0.715
  763SOL     OW 2423   1.628   2.290   0.304
  763SOL    HW1 2424   1.677   2.220   0.356
  763SOL    HW2 2425   1.600   2.364   0.365
  764SOL     OW 2426   1.027   2.608   0.946
  764SOL    HW1 2427   1.000   2.629   1.040
  764SOL    HW2 2428   0.998   2.515   0.923
  765SOL     OW 2429   0.982   3.429   1.770
  765SOL    HW1 2430   0.951   3.490   1.696
  765SOL    HW2 2431   1.017   3.344   1.731
  766SOL     OW 2432   1.832   3.358   1.598
  766SOL    HW1 2433   1.853   3.383   1.504
  766SOL    HW2 2434   1.914   3.366   1.654
  767SOL     OW 2435   0.397   2.781   1.824
  767SOL    HW1 2436   0.473   2.797   1.888
  767SOL    HW2 2437   0.425   2.712   1.757
  768SOL     OW 2438   1.511   2.163   0.087
  768SOL    HW1 2439   1.465   2.079   0.115
  768SOL    HW2 2440   1.552   2.207   0.167
  769SOL     OW 2441   1.334   2.648   0.033
  769SOL    HW1 2442   1.338   2.549   0.030
  769SOL    HW2 2443   1.403   2.686   5.489
  770SOL     OW 2444   1.075   3.229   0.865
  770SOL    HW1 2445   1.095   3.148   0.810
  770SOL    HW2 2446   1.133   3.305   0.833
  771SOL     OW 2447   0.343   2.639   0.946
  771SOL    HW1 2448   0.441   2.657   0.943
  771SOL    HW2 2449   0.326   2.544   0.973
  772SOL     OW 2450   0.320   2.365   1.002
  772SOL    HW1 2451   0.258   2.288   0.991
  772SOL    HW2 2452   0.400   2.352   0.944
  773SOL     OW 2453   1.137   2.219   1.697
  773SOL    HW1 2454   1.087   2.269   1.768
  773SOL    HW2 2455   1.223   2.267   1.677
  774SOL     OW 2456   1.161   2.046   1.482
  774SOL    HW1 2457   1.144   2.108   1.558
  774SOL    HW2 2458   1.205   2.097   1.407
  775SOL     OW 2459   0.017   3.142   0.215
  775SOL    HW1 2460   5.438   3.151   0.243
  775SOL    HW2 2461   0.044   3.046   0.219
  776SOL     OW 2462   0.138   3.629   0.997
  776SOL    HW1 2463   0.090   3.566   0.936
  776SOL    HW2 2464   0.221   3.663   0.952
  777SOL     OW 2465   0.496   3.434   0.901
  777SOL    HW1 2466   0.569   3.496   0.930
  777SOL    HW2 2467   0.532   3.370   0.832
  778SOL     OW 2468   0.925   2.653   1.193
  778SOL    HW1 2469   0.983   2.629   1.271
  778SOL    HW2 2470   0.836   2.607   1.203
  779SOL     OW 2471   5.438   2.500   1.145
  779SOL    HW1 2472   5.498   2.472   1.070
  779SOL    HW2 2473   5.478   2.472   1.232
  780SOL     OW 2474   0.205   2.392   1.748
  780SOL    HW1 2475   0.270   2.336   1.695
  780SOL    HW2 2476   0.176   2.470   1.693
  781SOL     OW 2477   1.394   2.780   1.632
  781SOL    HW1 2478   1.411   2.878   1.632
  781SOL    HW2 2479   1.381   2.748   1.538
  782SOL     OW 2480   0.805   2.410   0.359
  782SOL    HW1 2481   0.808   2.320   0.317
  782SOL    HW2 2482   0.727   2.461   0.324
  783SOL     OW 2483   1.636   2.475   1.143
  783SOL    HW1 2484   1.610   2.411   1.215
  783SOL    HW2 2485   1.734   2.468   1.126
  784SOL     OW 2486   0.287   3.417   1.706
  784SOL    HW1 2487   0.224   3.474   1.759
  784SOL    HW2 2488   0.279   3.322   1.735
  785SOL     OW 2489   0.732   2.265   1.229
  785SOL    HW1 2490   0.664   2.192   1.223
  785SOL    HW2 2491   0.713   2.335   1.160
  786SOL     OW 2492   0.859   3.576   1.545
  786SOL    HW1 2493   0.818   3.508   1.484
  786SOL    HW2 2494   0.890   3.654   1.490
  787SOL     OW 2495   0.429   2.341   0.151
  787SOL    HW1 2496   0.490   2.416   0.175
  787SOL    HW2 2497   0.340   2.378   0.123
  788SOL     OW 2498   0.178   3.007   1.502
  788SOL    HW1 2499   0.185   2.973   1.596
  788SOL    HW2 2500   0.194   2.932   1.438
  789SOL     OW 2501   1.271   2.892   1.197
  789SOL    HW1 2502   1.281   2.826   1.123
  789SOL    HW2 2503   1.227   2.975   1.163
  790SOL     OW 2504   1.325   2.716   0.302
  790SOL    HW1 2505   1.248   2.676   0.351
  790SOL    HW2 2506   1.323   2.687   0.206
  791SOL     OW 2507   1.755   3.563   1.156
  791SOL    HW1 2508   1.827   3.596   1.095
  791SOL    HW2 2509   1.730   3.469   1.131
  792SOL     OW 2510   1.275   3.596   1.062
  792SOL    HW1 2511   1.364   3.641   1.065
  792SOL    HW2 2512   1.284   3.503   1.098
  793SOL     OW 2513   0.156   3.083   1.043
  793SOL    HW1 2514   0.116   3.105   1.132
  793SOL    HW2 2515   0.083   3.068   0.976
  794SOL     OW 2516   0.692   3.580   1.761
  794SOL    HW1 2517   0.620   3.650   1.755
  794SOL    HW2 2518   0.759   3.594   1.688
  795SOL     OW 2519   0.943   1.917   0.062
  795SOL    HW1 2520   0.972   1.891   5.488
  795SOL    HW2 2521   1.005   1.877   0.129
  796SOL     OW 2522   1.767   2.091   0.443
  796SOL    HW1 2523   1.825   2.059   0.368
  796SOL    HW2 2524   1.719   2.013   0.483
  797SOL     OW 2525   1.411   3.451   0.507
  797SOL    HW1 2526   1.475   3.484   0.437
  797SOL    HW2 2527   1.351   3.526   0.535
  798SOL     OW 2528   0.113   3.585   1.844
  798SOL    HW1 2529   0.064   3.519   1.900
  798SOL    HW2 2530   0.174   3.639   1.902
  799SOL     OW 2531   1.286   2.804   0.647
  799SOL    HW1 2532   1.360   2.738   0.665
  799SOL    HW2 2533   1.324   2.885   0.604
  800SOL     OW 2534   0.780   3.149   1.428
  800SOL    HW1 2535   0.759   3.206   1.508
  800SOL    HW2 2536   0.707   3.159   1.360
  801SOL     OW 2537   0.703   3.473   0.161
  801SOL    HW1 2538   0.760   3.473   0.079
  801SOL    HW2 2539   0.640   3.395   0.158
  802SOL     OW 2540   1.605   3.598   1.398
  802SOL    HW1 2541   1.661   3.588   1.316
  802SOL    HW2 2542   1.592   3.695   1.419
  803SOL     OW 2543   1.843   2.012   0.969
  803SOL    HW1 2544   1.875   1.921   0.943
  803SOL    HW2 2545   1.754   2.030   0.927
  804SOL     OW 2546   0.234   2.179   0.704
  804SOL    HW1 2547   0.155   2.229   0.668
  804SOL    HW2 2548   0.221   2.163   0.802
  805SOL     OW 2549   1.239   3.436   0.050
  805SOL    HW1 2550   1.232   3.347   0.093
  805SOL    HW2 2551   1.193   3.434   5.479
  806SOL     OW 2552   0.811   2.878   1.384
  806SOL    HW1 2553   0.849   2.868   1.292
  806SOL    HW2 2554   0.800   2.975   1.405
  807SOL     OW 2555   0.930   2.745   0.260
  807SOL    HW1 2556   0.995   2.779   0.192
  807SOL    HW2 2557   0.976   2.679   0.319
  808SOL     OW 2558   1.496   3.523   0.075
  808SOL    HW1 2559   1.402   3.490   0.066
  808SOL    HW2 2560   1.542   3.517   5.503
  809SOL     OW 2561   0.405   3.176   1.485
  809SOL    HW1 2562   0.390   3.259   1.431
  809SOL    HW2 2563   0.321   3.120   1.483
  810SOL     OW 2564   1.595   3.154   1.294
  810SOL    HW1 2565   1.652   3.125   1.371
  810SOL    HW2 2566   1.531   3.225   1.323
  811SOL     OW 2567   1.098   2.980   0.758
  811SOL    HW1 2568   1.017   2.932   0.792
  811SOL    HW2 2569   1.159   2.914   0.713
  812SOL     OW 2570   1.036   2.100   0.949
  812SOL    HW1 2571   1.034   2.060   0.858
  812SOL    HW2 2572   1.034   2.027   1.017
  813SOL     OW 2573   0.609   3.344   0.464
  813SOL    HW1 2574   0.667   3.285   0.407
  813SOL    HW2 2575   0.546   3.394   0.405
  814SOL     OW 2576   1.786   2.209   1.423
  814SOL    HW1 2577   1.841   2.291   1.407
  814SOL    HW2 2578   1.802   2.143   1.351
  815SOL     OW 2579   0.278   3.226   0.261
  815SOL    HW1 2580   0.190   3.187   0.231
  815SOL    HW2 2581   0.270   3.255   0.356
  816SOL     OW 2582   0.170   2.911   1.760
  816SOL    HW1 2583   0.092   2.864   1.800
  816SOL    HW2 2584   0.254   2.863   1.786
  817SOL     OW 2585   0.699   2.064   1.494
  817SOL    HW1 2586   0.782   2.034   1.447
  817SOL    HW2 2587   0.722   2.094   1.586
  818SOL     OW 2588   0.100   2.181   0.010
  818SOL    HW1 2589   0.033   2.185   5.453
  818SOL    HW2 2590   0.131   2.273   0.032
  819SOL     OW 2591   1.394   2.710   1.368
  819SOL    HW1 2592   1.334   2.770   1.315
  819SOL    HW2 2593   1.488   2.717   1.334
  820SOL     OW 2594   0.070   2.018   0.234
  820SOL    HW1 2595   0.071   2.080   0.156
  820SOL    HW2 2596   0.140   1.947   0.222
  821SOL     OW 2597   1.216   3.193   0.174
  821SOL    HW1 2598   1.117   3.194   0.156
  821SOL    HW2 2599   1.232   3.192   0.272
  822SOL     OW 2600   0.642   2.667   1.432
  822SOL    HW1 2601   0.697   2.750   1.421
  822SOL    HW2 2602   0.703   2.587   1.435
  823SOL     OW 2603   1.526   3.706   1.063
  823SOL    HW1 2604   1.555   3.759   0.983
  823SOL    HW2 2605   1.605   3.658   1.102
  824SOL     OW 2606   0.724   2.401   1.695
  824SOL    HW1 2607   0.779   2.464   1.750
  824SOL    HW2 2608   0.744   2.307   1.723
  825SOL     OW 2609   1.461   3.045   1.617
  825SOL    HW1 2610   1.446   3.065   1.713
  825SOL    HW2 2611   1.555   3.069   1.592
  826SOL     OW 2612   0.374   3.641   1.572
  826SOL    HW1 2613   0.284   3.683   1.566
  826SOL    HW2 2614   0.365   3.547   1.607
  827SOL     OW 2615   1.642   2.736   1.250
  827SOL    HW1 2616   1.645   2.651   1.198
  827SOL    HW2 2617   1.628   2.813   1.188
  828SOL     OW 2618   1.230   2.186   0.458
  828SOL    HW1 2619   1.293   2.108   0.455
  828SOL    HW2 2620   1.256   2.246   0.534
  829SOL     OW 2621   0.563   2.574   0.687
  829SOL    HW1 2622   0.618   2.658   0.683
  829SOL    HW2 2623   0.500   2.572   0.609
  830SOL     OW 2624   1.722   2.203   1.691
  830SOL    HW1 2625   1.744   2.209   1.594
  830SOL    HW2 2626   1.640   2.147   1.703
  831SOL     OW 2627   1.767   2.775   1.492
  831SOL    HW1 2628   1.758   2.872   1.514
  831SOL    HW2 2629   1.728   2.758   1.402
  832SOL     OW 2630   0.953   3.241   0.123
  832SOL    HW1 2631   0.883   3.219   0.191
  832SOL    HW2 2632   0.916   3.306   0.056
  833SOL     OW 2633   0.682   3.626   0.949
  833SOL    HW1 2634   0.663   3.723   0.935
  833SOL    HW2 2635   0.780   3.609   0.940
  834SOL     OW 2636   0.884   2.840   0.871
  834SOL    HW1 2637   0.931   2.757   0.902
  834SOL    HW2 2638   0.835   2.881   0.948
  835SOL     OW 2639   1.098   2.790   0.052
  835SOL    HW1 2640   1.054   2.791   5.480
  835SOL    HW2 2641   1.189   2.750   0.045
  836SOL     OW 2642   1.819   3.420   0.854
  836SOL    HW1 2643   1.745   3.413   0.786
  836SOL    HW2 2644   1.798   3.361   0.932
  837SOL     OW 2645   0.255   3.164   1.828
  837SOL    HW1 2646   0.213   3.077   1.803
  837SOL    HW2 2647   0.239   3.182   1.925
  838SOL     OW 2648   0.119   3.114   0.702
  838SOL    HW1 2649   0.063   3.055   0.761
  838SOL    HW2 2650   0.189   3.059   0.657
  839SOL     OW 2651   0.709   3.315   1.639
  839SOL    HW1 2652   0.633   3.261   1.677
  839SOL    HW2 2653   0.711   3.405   1.682
  840SOL     OW 2654   1.826   2.017   1.242
  840SOL    HW1 2655   1.847   1.921   1.264
  840SOL    HW2 2656   1.830   2.030   1.143
  841SOL     OW 2657   0.423   2.297   0.514
  841SOL    HW1 2658   0.472   2.231   0.458
  841SOL    HW2 2659   0.371   2.249   0.585
  842SOL     OW 2660   1.696   3.309   1.080
  842SOL    HW1 2661   1.618   3.292   1.020
  842SOL    HW2 2662   1.691   3.247   1.159
  843SOL     OW 2663   0.326   2.408   1.275
  843SOL    HW1 2664   0.382   2.345   1.330
  843SOL    HW2 2665   0.333   2.382   1.179
  844SOL     OW 2666   0.824   3.453   0.675
  844SOL    HW1 2667   0.794   3.524   0.612
  844SOL    HW2 2668   0.750   3.386   0.686
  845SOL     OW 2669   1.424   2.105   1.109
  845SOL    HW1 2670   1.441   2.008   1.126
  845SOL    HW2 2671   1.370   2.143   1.184
  846SOL     OW 2672   1.023   1.874   1.116
  846SOL    HW1 2673   0.969   1.807   1.065
  846SOL    HW2 2674   1.117   1.840   1.124
  847SOL     OW 2675   0.801   3.175   0.350
  847SOL    HW1 2676   0.784   3.078   0.371
  847SOL    HW2 2677   0.878   3.208   0.405
  848SOL     OW 2678   0.643   3.467   1.298
  848SOL    HW1 2679   0.628   3.564   1.316
  848SOL    HW2 2680   0.728   3.456   1.245
  849SOL     OW 2681   1.382   1.913   0.173
  849SOL    HW1 2682   1.434   1.839   0.132
  849SOL    HW2 2683   1.286   1.885   0.183
  850SOL     OW 2684   1.292   2.345   0.671
  850SOL    HW1 2685   1.241   2.431   0.665
  850SOL    HW2 2686   1.289   2.312   0.766
  851SOL     OW 2687   1.588   2.066   0.890
  851SOL    HW1 2688   1.531   2.092   0.967
  851SOL    HW2 2689   1.589   2.140   0.822
  852SOL     OW 2690   0.089   2.875   0.238
  852SOL    HW1 2691   0.185   2.869   0.264
  852SOL    HW2 2692   0.037   2.801   0.282
  853SOL     OW 2693   0.910   3.547   0.339
  853SOL    HW1 2694   0.835   3.520   0.279
  853SOL    HW2 2695   0.877   3.616   0.403
  854SOL     OW 2696   0.220   2.488   2.008
  854SOL    HW1 2697   0.128   2.477   2.044
  854SOL    HW2 2698   0.221   2.468   1.910
  855SOL     OW 2699   0.166   2.139   2.850
  855SOL    HW1 2700   0.207   2.106   2.935
  855SOL    HW2 2701   0.068   2.120   2.851
  856SOL     OW 2702   5.517   2.288   2.470
  856SOL    HW1 2703   5.443   2.352   2.451
  856SOL    HW2 2704   5.498   2.200   2.427
  857SOL     OW 2705   0.599   3.195   3.088
  857SOL    HW1 2706   0.513   3.195   3.036
  857SOL    HW2 2707   0.624   3.289   3.110
  858SOL     OW 2708   1.601   3.379   2.563
  858SOL    HW1 2709   1.542   3.364   2.642
  858SOL    HW2 2710   1.546   3.399   2.482
  859SOL     OW 2711   1.134   2.580   2.542
  859SOL    HW1 2712   1.189   2.661   2.525
  859SOL    HW2 2713   1.081   2.592   2.626
  860SOL     OW 2714   1.819   2.420   2.067
  860SOL    HW1 2715   1.774   2.436   1.979
  860SOL    HW2 2716   1.766   2.353   2.120
  861SOL     OW 2717   0.725   2.987   2.928
  861SOL    HW1 2718   0.669   3.023   3.003
  861SOL    HW2 2719   0.760   3.062   2.873
  862SOL     OW 2720   0.900   2.593   3.680
  862SOL    HW1 2721   0.915   2.658   3.755
  862SOL    HW2 2722   0.912   2.639   3.592
  863SOL     OW 2723   0.690   2.828   2.529
  863SOL    HW1 2724   0.766   2.834   2.594
  863SOL    HW2 2725   0.621   2.896   2.553
  864SOL     OW 2726   0.726   3.022   3.709
  864SOL    HW1 2727   0.784   3.092   3.750
  864SOL    HW2 2728   0.649   3.066   3.662
  865SOL     OW 2729   0.367   3.265   2.947
  865SOL    HW1 2730   0.293   3.206   2.912
  865SOL    HW2 2731   0.403   3.321   2.873
  866SOL     OW 2732   1.450   3.368   3.254
  866SOL    HW1 2733   1.510   3.448   3.266
  866SOL    HW2 2734   1.370   3.378   3.314
  867SOL     OW 2735   0.461   2.232   3.305
  867SOL    HW1 2736   0.542   2.177   3.322
  867SOL    HW2 2737   0.382   2.188   3.348
  868SOL     OW 2738   1.542   2.304   2.602
  868SOL    HW1 2739   1.464   2.303   2.539
  868SOL    HW2 2740   1.530   2.378   2.669
  869SOL     OW 2741   0.288   3.542   2.341
  869SOL    HW1 2742   0.286   3.621   2.402
  869SOL    HW2 2743   0.347   3.563   2.262
  870SOL     OW 2744   1.125   3.204   3.571
  870SOL    HW1 2745   1.177   3.192   3.656
  870SOL    HW2 2746   1.070   3.122   3.555
  871SOL     OW 2747   0.261   3.271   2.354
  871SOL    HW1 2748   0.266   3.370   2.360
  871SOL    HW2 2749   0.208   3.235   2.431
  872SOL     OW 2750   0.352   2.926   2.795
  872SOL    HW1 2751   0.342   2.830   2.823
  872SOL    HW2 2752   0.285   2.982   2.843
  873SOL     OW 2753   0.563   3.718   3.249
  873SOL    HW1 2754   0.490   3.685   3.309
  873SOL    HW2 2755   0.614   3.791   3.295
  874SOL     OW 2756   0.589   2.854   2.031
  874SOL    HW1 2757   0.638   2.903   1.959
  874SOL    HW2 2758   0.628   2.877   2.120
  875SOL     OW 2759   1.602   2.011   3.313
  875SOL    HW1 2760   1.640   2.099   3.285
  875SOL    HW2 2761   1.551   2.023   3.398
  876SOL     OW 2762   0.143   2.548   2.436
  876SOL    HW1 2763   0.120   2.452   2.455
  876SOL    HW2 2764   0.152   2.598   2.521
  877SOL     OW 2765   1.868   3.603   2.182
  877SOL    HW1 2766   1.946   3.579   2.239
  877SOL    HW2 2767   1.878   3.697   2.149
  878SOL     OW 2768   5.495   3.408   1.995
  878SOL    HW1 2769   5.491   3.309   2.003
  878SOL    HW2 2770   5.437   3.450   2.065
  879SOL     OW 2771   1.730   2.787   2.551
  879SOL    HW1 2772   1.823   2.753   2.542
  879SOL    HW2 2773   1.711   2.852   2.477
  880SOL     OW 2774   1.637   2.978   2.310
  880SOL    HW1 2775   1.726   2.955   2.269
  880SOL    HW2 2776   1.652   3.039   2.388
  881SOL     OW 2777   0.155   2.608   3.440
  881SOL    HW1 2778   0.252   2.633   3.444
  881SOL    HW2 2779   0.101   2.690   3.421
  882SOL     OW 2780   0.624   3.258   2.582
  882SOL    HW1 2781   0.583   3.168   2.593
  882SOL    HW2 2782   0.608   3.292   2.489
  883SOL     OW 2783   1.239   3.074   3.288
  883SOL    HW1 2784   1.258   3.002   3.222
  883SOL    HW2 2785   1.307   3.070   3.362
  884SOL     OW 2786   0.834   1.885   2.365
  884SOL    HW1 2787   0.879   1.969   2.336
  884SOL    HW2 2788   0.735   1.901   2.370
  885SOL     OW 2789   0.207   2.812   3.181
  885SOL    HW1 2790   0.293   2.765   3.157
  885SOL    HW2 2791   0.134   2.780   3.120
  886SOL     OW 2792   1.539   2.894   2.063
  886SOL    HW1 2793   1.467   2.827   2.083
  886SOL    HW2 2794   1.576   2.930   2.148
  887SOL     OW 2795   1.186   3.670   3.495
  887SOL    HW1 2796   1.186   3.740   3.424
  887SOL    HW2 2797   1.197   3.579   3.454
  888SOL     OW 2798   0.349   2.119   3.754
  888SOL    HW1 2799   0.395   2.199   3.794
  888SOL    HW2 2800   0.251   2.137   3.749
  889SOL     OW 2801   1.434   3.315   2.773
  889SOL    HW1 2802   1.386   3.327   2.859
  889SOL    HW2 2803   1.439   3.217   2.751
  890SOL     OW 2804   1.642   3.715   2.397
  890SOL    HW1 2805   1.630   3.651   2.321
  890SOL    HW2 2806   1.668   3.664   2.479
  891SOL     OW 2807   0.597   2.572   2.130
  891SOL    HW1 2808   0.603   2.664   2.091
  891SOL    HW2 2809   0.529   2.571   2.203
  892SOL     OW 2810   1.275   2.256   2.799
  892SOL    HW1 2811   1.186   2.211   2.800
  892SOL    HW2 2812   1.338   2.206   2.859
  893SOL     OW 2813   1.600   3.543   2.182
  893SOL    HW1 2814   1.700   3.553   2.177
  893SOL    HW2 2815   1.563   3.530   2.090
  894SOL     OW 2816   0.802   2.437   3.292
  894SOL    HW1 2817   0.774   2.413   3.386
  894SOL    HW2 2818   0.774   2.364   3.230
  895SOL     OW 2819   1.389   2.323   3.532
  895SOL    HW1 2820   1.394   2.370   3.620
  895SOL    HW2 2821   1.430   2.232   3.540
  896SOL     OW 2822   0.946   2.737   3.445
  896SOL    HW1 2823   1.002   2.671   3.395
  896SOL    HW2 2824   0.891   2.790   3.380
  897SOL     OW 2825   1.009   2.227   3.050
  897SOL    HW1 2826   0.913   2.240   3.078
  897SOL    HW2 2827   1.012   2.186   2.959
  898SOL     OW 2828   1.063   2.555   2.274
  898SOL    HW1 2829   1.084   2.560   2.371
  898SOL    HW2 2830   0.975   2.511   2.260
  899SOL     OW 2831   0.133   2.713   2.661
  899SOL    HW1 2832   0.214   2.683   2.711
  899SOL    HW2 2833   0.103   2.802   2.696
  900SOL     OW 2834   0.122   3.747   3.479
  900SOL    HW1 2835   0.112   3.694   3.563
  900SOL    HW2 2836   0.032   3.763   3.438
  901SOL     OW 2837   0.855   2.209   2.064
  901SOL    HW1 2838   0.913   2.254   1.996
  901SOL    HW2 2839   0.797   2.141   2.020
  902SOL     OW 2840   1.681   2.436   3.684
  902SOL    HW1 2841   1.667   2.520   3.631
  902SOL    HW2 2842   1.700   2.360   3.621
  903SOL     OW 2843   1.371   3.019   2.381
  903SOL    HW1 2844   1.461   3.007   2.339
  903SOL    HW2 2845   1.322   3.093   2.334
  904SOL     OW 2846   0.576   2.020   2.788
  904SOL    HW1 2847   0.569   2.038   2.886
  904SOL    HW2 2848   0.573   2.106   2.738
  905SOL     OW 2849   0.993   3.331   2.331
  905SOL    HW1 2850   0.972   3.407   2.269
  905SOL    HW2 2851   0.961   3.354   2.423
  906SOL     OW 2852   0.381   3.680   2.747
  906SOL    HW1 2853   0.418   3.587   2.753
  906SOL    HW2 2854   0.454   3.746   2.766
  907SOL     OW 2855   1.788   2.875   2.808
  907SOL    HW1 2856   1.761   2.855   2.714
  907SOL    HW2 2857   1.707   2.896   2.862
  908SOL     OW 2858   1.200   3.397   3.382
  908SOL    HW1 2859   1.189   3.327   3.452
  908SOL    HW2 2860   1.140   3.377   3.305
  909SOL     OW 2861   0.316   2.827   2.134
  909SOL    HW1 2862   0.402   2.856   2.092
  909SOL    HW2 2863   0.300   2.730   2.115
  910SOL     OW 2864   1.504   2.634   2.566
  910SOL    HW1 2865   1.487   2.591   2.654
  910SOL    HW2 2866   1.587   2.689   2.571
  911SOL     OW 2867   0.506   3.154   3.596
  911SOL    HW1 2868   0.491   3.156   3.497
  911SOL    HW2 2869   0.418   3.147   3.644
  912SOL     OW 2870   1.151   3.630   2.093
  912SOL    HW1 2871   1.061   3.608   2.131
  912SOL    HW2 2872   1.177   3.562   2.025
  913SOL     OW 2873   0.210   2.136   3.391
  913SOL    HW1 2874   0.127   2.190   3.405
  913SOL    HW2 2875   0.196   2.044   3.427
  914SOL     OW 2876   1.609   3.253   1.966
  914SOL    HW1 2877   1.579   3.347   1.950
  914SOL    HW2 2878   1.539   3.190   1.932
  915SOL     OW 2879   0.480   3.618   2.155
  915SOL    HW1 2880   0.520   3.673   2.229
  915SOL    HW2 2881   0.552   3.570   2.106
  916SOL     OW 2882   1.400   1.964   2.321
  916SOL    HW1 2883   1.399   1.941   2.224
  916SOL    HW2 2884   1.485   1.931   2.362
  917SOL     OW 2885   0.244   3.654   3.108
  917SOL    HW1 2886   0.296   3.574   3.138
  917SOL    HW2 2887   0.205   3.638   3.018
  918SOL     OW 2888   0.960   3.560   2.746
  918SOL    HW1 2889   1.052   3.522   2.759
  918SOL    HW2 2890   0.914   3.510   2.673
  919SOL     OW 2891   0.407   2.536   2.328
  919SOL    HW1 2892   0.413   2.437   2.339
  919SOL    HW2 2893   0.315   2.567   2.353
  920SOL     OW 2894   1.490   2.064   3.567
  920SOL    HW1 2895   1.504   2.078   3.665
  920SOL    HW2 2896   1.423   1.991   3.553
  921SOL     OW 2897   0.678   1.985   1.971
  921SOL    HW1 2898   0.744   1.911   1.987
  921SOL    HW2 2899   0.607   1.953   1.908
  922SOL     OW 2900   0.782   2.126   3.614
  922SOL    HW1 2901   0.870   2.077   3.614
  922SOL    HW2 2902   0.724   2.089   3.686
  923SOL     OW 2903   0.863   3.381   3.033
  923SOL    HW1 2904   0.840   3.328   2.952
  923SOL    HW2 2905   0.930   3.332   3.088
  924SOL     OW 2906   1.313   2.442   3.295
  924SOL    HW1 2907   1.348   2.411   3.383
  924SOL    HW2 2908   1.341   2.536   3.278
  925SOL     OW 2909   0.807   3.220   2.802
  925SOL    HW1 2910   0.901   3.222   2.769
  925SOL    HW2 2911   0.745   3.237   2.726
  926SOL     OW 2912   0.920   2.361   2.737
  926SOL    HW1 2913   0.899   2.355   2.639
  926SOL    HW2 2914   0.951   2.272   2.769
  927SOL     OW 2915   0.565   1.928   2.353
  927SOL    HW1 2916   0.485   1.921   2.413
  927SOL    HW2 2917   0.555   2.008   2.294
  928SOL     OW 2918   1.415   3.071   1.889
  928SOL    HW1 2919   1.458   3.001   1.946
  928SOL    HW2 2920   1.328   3.099   1.931
  929SOL     OW 2921   0.277   1.873   2.008
  929SOL    HW1 2922   0.313   1.958   1.970
  929SOL    HW2 2923   0.348   1.825   2.058
  930SOL     OW 2924   0.964   2.114   2.296
  930SOL    HW1 2925   0.926   2.149   2.211
  930SOL    HW2 2926   1.062   2.132   2.299
  931SOL     OW 2927   1.055   2.549   3.282
  931SOL    HW1 2928   0.977   2.487   3.289
  931SOL    HW2 2929   1.140   2.496   3.285
  932SOL     OW 2930   1.211   3.443   2.656
  932SOL    HW1 2931   1.227   3.515   2.588
  932SOL    HW2 2932   1.299   3.411   2.691
  933SOL     OW 2933   0.497   3.014   2.585
  933SOL    HW1 2934   0.448   2.986   2.667
  933SOL    HW2 2935   0.438   3.004   2.505
  934SOL     OW 2936   1.248   3.656   2.478
  934SOL    HW1 2937   1.300   3.720   2.421
  934SOL    HW2 2938   1.169   3.703   2.517
  935SOL     OW 2939   1.023   2.358   1.902
  935SOL    HW1 2940   0.985   2.446   1.873
  935SOL    HW2 2941   1.093   2.373   1.972
  936SOL     OW 2942   0.072   2.441   3.237
  936SOL    HW1 2943   0.160   2.418   3.195
  936SOL    HW2 2944   0.087   2.505   3.312
  937SOL     OW 2945   0.544   2.055   3.057
  937SOL    HW1 2946   0.567   1.974   3.112
  937SOL    HW2 2947   0.448   2.079   3.070
  938SOL     OW 2948   0.879   2.316   2.472
  938SOL    HW1 2949   0.838   2.378   2.405
  938SOL    HW2 2950   0.910   2.233   2.426
  939SOL     OW 2951   1.008   1.914   2.585
  939SOL    HW1 2952   0.946   1.913   2.506
  939SOL    HW2 2953   0.983   1.840   2.648
  940SOL     OW 2954   1.467   3.050   2.698
  940SOL    HW1 2955   1.391   3.013   2.644
  940SOL    HW2 2956   1.547   3.063   2.638
  941SOL     OW 2957   1.449   2.484   2.800
  941SOL    HW1 2958   1.378   2.414   2.809
  941SOL    HW2 2959   1.506   2.486   2.882
  942SOL     OW 2960   1.848   2.623   2.247
  942SOL    HW1 2961   1.910   2.579   2.311
  942SOL    HW2 2962   1.834   2.563   2.167
  943SOL     OW 2963   0.494   3.293   2.007
  943SOL    HW1 2964   0.403   3.270   2.041
  943SOL    HW2 2965   0.506   3.253   1.916
  944SOL     OW 2966   1.687   3.114   2.540
  944SOL    HW1 2967   1.784   3.093   2.535
  944SOL    HW2 2968   1.674   3.213   2.540
  945SOL     OW 2969   1.391   2.439   1.910
  945SOL    HW1 2970   1.341   2.410   1.992
  945SOL    HW2 2971   1.489   2.429   1.927
  946SOL     OW 2972   0.535   2.124   2.168
  946SOL    HW1 2973   0.587   2.072   2.101
  946SOL    HW2 2974   0.502   2.209   2.127
  947SOL     OW 2975   1.715   3.067   3.474
  947SOL    HW1 2976   1.728   3.034   3.568
  947SOL    HW2 2977   1.761   3.156   3.464
  948SOL     OW 2978   1.026   3.222   3.206
  948SOL    HW1 2979   0.939   3.192   3.246
  948SOL    HW2 2980   1.101   3.170   3.246
  949SOL     OW 2981   1.638   3.482   3.543
  949SOL    HW1 2982   1.622   3.525   3.455
  949SOL    HW2 2983   1.713   3.416   3.536
  950SOL     OW 2984   1.148   3.124   2.977
  950SOL    HW1 2985   1.086   3.156   3.049
  950SOL    HW2 2986   1.113   3.153   2.888
  951SOL     OW 2987   1.569   2.958   2.945
  951SOL    HW1 2988   1.567   3.034   3.011
  951SOL    HW2 2989   1.515   2.982   2.865
  952SOL     OW 2990   0.941   1.935   3.233
  952SOL    HW1 2991   0.960   1.924   3.135
  952SOL    HW2 2992   1.018   1.980   3.277
  953SOL     OW 2993   0.971   2.974   3.580
  953SOL    HW1 2994   0.879   2.991   3.615
  953SOL    HW2 2995   0.971   2.891   3.525
  954SOL     OW 2996   0.727   2.915   2.264
  954SOL    HW1 2997   0.707   2.885   2.357
  954SOL    HW2 2998   0.809   2.869   2.230
  955SOL     OW 2999   0.433   2.663   3.128
  955SOL    HW1 3000   0.507   2.668   3.195
  955SOL    HW2 3001   0.391   2.572   3.131
  956SOL     OW 3002   1.260   2.221   3.149
  956SOL    HW1 3003   1.283   2.305   3.198
  956SOL    HW2 3004   1.168   2.229   3.111
  957SOL     OW 3005   0.100   3.386   3.249
  957SOL    HW1 3006   0.048   3.470   3.263
  957SOL    HW2 3007   0.197   3.408   3.239
  958SOL     OW 3008   0.327   2.992   2.368
  958SOL    HW1 3009   0.319   3.086   2.337
  958SOL    HW2 3010   0.324   2.930   2.289
  959SOL     OW 3011   0.548   2.343   2.719
  959SOL    HW1 3012   0.552   2.406   2.641
  959SOL    HW2 3013   0.610   2.374   2.791
  960SOL     OW 3014   1.245   3.241   2.261
  960SOL    HW1 3015   1.311   3.309   2.293
  960SOL    HW2 3016   1.153   3.265   2.293
  961SOL     OW 3017   1.315   3.342   3.014
  961SOL    HW1 3018   1.364   3.348   3.101
  961SOL    HW2 3019   1.260   3.258   3.014
  962SOL     OW 3020   1.615   2.488   2.348
  962SOL    HW1 3021   1.558   2.534   2.417
  962SOL    HW2 3022   1.681   2.552   2.310
  963SOL     OW 3023   0.369   3.411   3.175
  963SOL    HW1 3024   0.359   3.357   3.092
  963SOL    HW2 3025   0.465   3.436   3.186
  964SOL     OW 3026   0.450   2.602   3.486
  964SOL    HW1 3027   0.515   2.637   3.418
  964SOL    HW2 3028   0.480   2.513   3.518
  965SOL     OW 3029   1.641   2.670   3.543
  965SOL    HW1 3030   1.545   2.697   3.538
  965SOL    HW2 3031   1.691   2.711   3.467
  966SOL     OW 3032   1.014   1.984   3.626
  966SOL    HW1 3033   1.068   2.065   3.606
  966SOL    HW2 3034   1.075   1.907   3.643
  967SOL     OW 3035   0.509   1.923   3.635
  967SOL    HW1 3036   0.462   1.869   3.565
  967SOL    HW2 3037   0.449   1.998   3.664
  968SOL     OW 3038   0.607   2.717   2.917
  968SOL    HW1 3039   0.640   2.811   2.911
  968SOL    HW2 3040   0.541   2.709   2.991
  969SOL     OW 3041   1.273   2.694   2.882
  969SOL    HW1 3042   1.183   2.670   2.847
  969SOL    HW2 3043   1.341   2.629   2.846
  970SOL     OW 3044   1.205   2.380   2.113
  970SOL    HW1 3045   1.222   2.301   2.171
  970SOL    HW2 3046   1.163   2.453   2.168
  971SOL     OW 3047   0.269   2.065   3.102
  971SOL    HW1 3048   0.240   2.105   3.189
  971SOL    HW2 3049   0.259   1.966   3.105
  972SOL     OW 3050   0.055   3.141   3.153
  972SOL    HW1 3051   0.103   3.081   3.217
  972SOL    HW2 3052   0.067   3.236   3.179
  973SOL     OW 3053   0.715   2.461   2.903
  973SOL    HW1 3054   0.791   2.446   2.839
  973SOL    HW2 3055   0.684   2.556   2.896
  974SOL     OW 3056   1.723   2.882   3.710
  974SOL    HW1 3057   1.696   2.797   3.664
  974SOL    HW2 3058   1.668   2.894   3.792
  975SOL     OW 3059   0.329   1.915   2.495
  975SOL    HW1 3060   0.284   2.004   2.507
  975SOL    HW2 3061   0.342   1.872   2.584
  976SOL     OW 3062   1.628   2.259   2.194
  976SOL    HW1 3063   1.665   2.185   2.250
  976SOL    HW2 3064   1.608   2.338   2.251
  977SOL     OW 3065   1.016   2.608   2.805
  977SOL    HW1 3066   0.990   2.627   2.899
  977SOL    HW2 3067   0.988   2.515   2.780
  978SOL     OW 3068   0.985   3.433   3.634
  978SOL    HW1 3069   0.952   3.491   3.560
  978SOL    HW2 3070   1.019   3.347   3.596
  979SOL     OW 3071   1.857   3.314   3.450
  979SOL    HW1 3072   1.875   3.347   3.357
  979SOL    HW2 3073   1.935   3.337   3.509
  980SOL     OW 3074   0.395   2.784   3.687
  980SOL    HW1 3075   0.472   2.798   3.750
  980SOL    HW2 3076   0.421   2.717   3.617
  981SOL     OW 3077   1.515   2.122   1.975
  981SOL    HW1 3078   1.467   2.045   2.015
  981SOL    HW2 3079   1.555   2.178   2.047
  982SOL     OW 3080   1.276   2.679   1.857
  982SOL    HW1 3081   1.315   2.588   1.870
  982SOL    HW2 3082   1.313   2.721   1.775
  983SOL     OW 3083   1.068   3.219   2.730
  983SOL    HW1 3084   1.088   3.137   2.678
  983SOL    HW2 3085   1.118   3.297   2.691
  984SOL     OW 3086   0.346   2.640   2.813
  984SOL    HW1 3087   0.445   2.657   2.809
  984SOL    HW2 3088   0.330   2.544   2.838
  985SOL     OW 3089   0.321   2.365   2.865
  985SOL    HW1 3090   0.258   2.287   2.855
  985SOL    HW2 3091   0.401   2.352   2.806
  986SOL     OW 3092   1.135   2.222   3.559
  986SOL    HW1 3093   1.084   2.271   3.629
  986SOL    HW2 3094   1.223   2.266   3.544
  987SOL     OW 3095   1.163   2.053   3.344
  987SOL    HW1 3096   1.142   2.116   3.419
  987SOL    HW2 3097   1.206   2.104   3.269
  988SOL     OW 3098   5.474   3.133   2.033
  988SOL    HW1 3099   5.380   3.129   2.000
  988SOL    HW2 3100   5.501   3.043   2.069
  989SOL     OW 3101   0.135   3.631   2.858
  989SOL    HW1 3102   0.086   3.569   2.796
  989SOL    HW2 3103   0.221   3.659   2.816
  990SOL     OW 3104   0.502   3.429   2.767
  990SOL    HW1 3105   0.576   3.490   2.794
  990SOL    HW2 3106   0.535   3.366   2.696
  991SOL     OW 3107   0.926   2.647   3.057
  991SOL    HW1 3108   0.986   2.627   3.134
  991SOL    HW2 3109   0.839   2.600   3.070
  992SOL     OW 3110   5.440   2.502   3.007
  992SOL    HW1 3111   5.498   2.472   2.932
  992SOL    HW2 3112   5.480   2.472   3.094
  993SOL     OW 3113   0.203   2.389   3.606
  993SOL    HW1 3114   0.251   2.324   3.547
  993SOL    HW2 3115   0.175   2.469   3.552
  994SOL     OW 3116   1.392   2.774   3.501
  994SOL    HW1 3117   1.400   2.874   3.502
  994SOL    HW2 3118   1.372   2.743   3.408
  995SOL     OW 3119   0.821   2.437   2.223
  995SOL    HW1 3120   0.826   2.354   2.167
  995SOL    HW2 3121   0.743   2.492   2.193
  996SOL     OW 3122   1.617   2.482   3.018
  996SOL    HW1 3123   1.593   2.420   3.094
  996SOL    HW2 3124   1.713   2.470   2.995
  997SOL     OW 3125   0.287   3.418   3.570
  997SOL    HW1 3126   0.223   3.474   3.623
  997SOL    HW2 3127   0.278   3.323   3.598
  998SOL     OW 3128   0.737   2.261   3.090
  998SOL    HW1 3129   0.668   2.189   3.085
  998SOL    HW2 3130   0.717   2.332   3.022
  999SOL     OW 3131   0.863   3.577   3.409
  999SOL    HW1 3132   0.823   3.508   3.348
  999SOL    HW2 3133   0.891   3.656   3.355
 1000SOL     OW 3134   0.453   2.347   2.031
 1000SOL    HW1 3135   0.526   2.414   2.050
 1000SOL    HW2 3136   0.365   2.394   2.033
 1001SOL     OW 3137   0.178   3.007   3.363
 1001SOL    HW1 3138   0.183   2.973   3.457
 1001SOL    HW2 3139   0.195   2.932   3.299
 1002SOL     OW 3140   1.255   2.889   3.072
 1002SOL    HW1 3141   1.265   2.820   3.001
 1002SOL    HW2 3142   1.219   2.973   3.032
 1003SOL     OW 3143   1.331   2.729   2.124
 1003SOL    HW1 3144   1.259   2.699   2.187
 1003SOL    HW2 3145   1.302   2.711   2.030
 1004SOL     OW 3146   1.801   3.584   3.051
 1004SOL    HW1 3147   1.861   3.611   2.976
 1004SOL    HW2 3148   1.740   3.511   3.020
 1005SOL     OW 3149   1.255   3.611   2.971
 1005SOL    HW1 3150   1.342   3.649   2.940
 1005SOL    HW2 3151   1.265   3.514   2.989
 1006SOL     OW 3152   0.155   3.085   2.901
 1006SOL    HW1 3153   0.113   3.106   2.989
 1006SOL    HW2 3154   0.083   3.063   2.835
 1007SOL     OW 3155   0.692   3.580   3.623
 1007SOL    HW1 3156   0.621   3.650   3.617
 1007SOL    HW2 3157   0.760   3.595   3.550
 1008SOL     OW 3158   1.759   2.054   2.328
 1008SOL    HW1 3159   1.817   2.036   2.249
 1008SOL    HW2 3160   1.719   1.967   2.359
 1009SOL     OW 3161   1.414   3.446   2.363
 1009SOL    HW1 3162   1.474   3.480   2.291
 1009SOL    HW2 3163   1.351   3.518   2.391
 1010SOL     OW 3164   0.111   3.585   3.707
 1010SOL    HW1 3165   0.062   3.519   3.765
 1010SOL    HW2 3166   0.171   3.641   3.765
 1011SOL     OW 3167   1.290   2.798   2.509
 1011SOL    HW1 3168   1.371   2.741   2.524
 1011SOL    HW2 3169   1.315   2.876   2.452
 1012SOL     OW 3170   0.776   3.146   3.295
 1012SOL    HW1 3171   0.757   3.205   3.373
 1012SOL    HW2 3172   0.704   3.157   3.227
 1013SOL     OW 3173   0.684   3.491   2.019
 1013SOL    HW1 3174   0.697   3.519   1.924
 1013SOL    HW2 3175   0.624   3.411   2.022
 1014SOL     OW 3176   1.625   3.584   3.281
 1014SOL    HW1 3177   1.690   3.580   3.204
 1014SOL    HW2 3178   1.604   3.679   3.302
 1015SOL     OW 3179   0.225   2.160   2.571
 1015SOL    HW1 3180   0.147   2.212   2.536
 1015SOL    HW2 3181   0.216   2.148   2.670
 1016SOL     OW 3182   1.226   3.443   1.908
 1016SOL    HW1 3183   1.218   3.350   1.943
 1016SOL    HW2 3184   1.150   3.463   1.847
 1017SOL     OW 3185   0.813   2.876   3.251
 1017SOL    HW1 3186   0.852   2.867   3.159
 1017SOL    HW2 3187   0.800   2.973   3.272
 1018SOL     OW 3188   0.942   2.785   2.173
 1018SOL    HW1 3189   0.981   2.803   2.083
 1018SOL    HW2 3190   0.989   2.706   2.214
 1019SOL     OW 3191   1.493   3.519   1.922
 1019SOL    HW1 3192   1.397   3.493   1.909
 1019SOL    HW2 3193   1.538   3.526   1.833
 1020SOL     OW 3194   0.403   3.177   3.348
 1020SOL    HW1 3195   0.389   3.260   3.294
 1020SOL    HW2 3196   0.321   3.121   3.345
 1021SOL     OW 3197   1.592   3.171   3.120
 1021SOL    HW1 3198   1.686   3.162   3.152
 1021SOL    HW2 3199   1.539   3.225   3.185
 1022SOL     OW 3200   1.103   2.975   2.621
 1022SOL    HW1 3201   1.020   2.929   2.652
 1022SOL    HW2 3202   1.164   2.909   2.578
 1023SOL     OW 3203   1.038   2.096   2.804
 1023SOL    HW1 3204   1.029   2.059   2.711
 1023SOL    HW2 3205   1.036   2.020   2.870
 1024SOL     OW 3206   0.600   3.346   2.328
 1024SOL    HW1 3207   0.662   3.292   2.270
 1024SOL    HW2 3208   0.514   3.361   2.280
 1025SOL     OW 3209   1.760   2.253   3.252
 1025SOL    HW1 3210   1.825   2.329   3.255
 1025SOL    HW2 3211   1.773   2.203   3.166
 1026SOL     OW 3212   0.223   3.209   2.094
 1026SOL    HW1 3213   0.126   3.190   2.081
 1026SOL    HW2 3214   0.239   3.238   2.188
 1027SOL     OW 3215   0.168   2.912   3.621
 1027SOL    HW1 3216   0.089   2.865   3.661
 1027SOL    HW2 3217   0.251   2.864   3.648
 1028SOL     OW 3218   0.707   2.058   3.355
 1028SOL    HW1 3219   0.790   2.029   3.308
 1028SOL    HW2 3220   0.730   2.090   3.447
 1029SOL     OW 3221   0.074   2.187   1.893
 1029SOL    HW1 3222   5.493   2.175   1.879
 1029SOL    HW2 3223   0.105   2.268   1.844
 1030SOL     OW 3224   1.379   2.704   3.239
 1030SOL    HW1 3225   1.314   2.761   3.188
 1030SOL    HW2 3226   1.471   2.718   3.202
 1031SOL     OW 3227   0.062   2.011   2.112
 1031SOL    HW1 3228   0.061   2.083   2.042
 1031SOL    HW2 3229   0.137   1.947   2.092
 1032SOL     OW 3230   1.180   3.183   1.994
 1032SOL    HW1 3231   1.081   3.172   1.985
 1032SOL    HW2 3232   1.204   3.192   2.090
 1033SOL     OW 3233   0.644   2.665   3.298
 1033SOL    HW1 3234   0.698   2.748   3.287
 1033SOL    HW2 3235   0.704   2.585   3.299
 1034SOL     OW 3236   1.503   3.704   2.894
 1034SOL    HW1 3237   1.534   3.759   2.817
 1034SOL    HW2 3238   1.576   3.640   2.920
 1035SOL     OW 3239   0.737   2.395   3.552
 1035SOL    HW1 3240   0.785   2.459   3.612
 1035SOL    HW2 3241   0.754   2.302   3.583
 1036SOL     OW 3242   1.437   3.043   3.491
 1036SOL    HW1 3243   1.419   3.064   3.587
 1036SOL    HW2 3244   1.532   3.066   3.469
 1037SOL     OW 3245   0.373   3.641   3.435
 1037SOL    HW1 3246   0.282   3.684   3.429
 1037SOL    HW2 3247   0.364   3.548   3.471
 1038SOL     OW 3248   1.623   2.748   3.119
 1038SOL    HW1 3249   1.624   2.660   3.071
 1038SOL    HW2 3250   1.600   2.821   3.055
 1039SOL     OW 3251   1.231   2.182   2.309
 1039SOL    HW1 3252   1.294   2.105   2.312
 1039SOL    HW2 3253   1.245   2.240   2.390
 1040SOL     OW 3254   0.574   2.570   2.550
 1040SOL    HW1 3255   0.622   2.657   2.546
 1040SOL    HW2 3256   0.516   2.560   2.469
 1041SOL     OW 3257   1.734   2.205   3.526
 1041SOL    HW1 3258   1.737   2.226   3.428
 1041SOL    HW2 3259   1.654   2.150   3.546
 1042SOL     OW 3260   1.768   2.824   3.343
 1042SOL    HW1 3261   1.736   2.911   3.380
 1042SOL    HW2 3262   1.717   2.801   3.260
 1043SOL     OW 3263   0.896   3.215   1.953
 1043SOL    HW1 3264   0.851   3.221   2.041
 1043SOL    HW2 3265   0.902   3.305   1.911
 1044SOL     OW 3266   0.691   3.618   2.807
 1044SOL    HW1 3267   0.671   3.716   2.796
 1044SOL    HW2 3268   0.789   3.603   2.795
 1045SOL     OW 3269   0.882   2.844   2.730
 1045SOL    HW1 3270   0.926   2.759   2.759
 1045SOL    HW2 3271   0.833   2.884   2.808
 1046SOL     OW 3272   1.047   2.809   1.926
 1046SOL    HW1 3273   1.027   2.882   1.861
 1046SOL    HW2 3274   1.133   2.764   1.900
 1047SOL     OW 3275   1.836   3.390   2.728
 1047SOL    HW1 3276   1.765   3.393   2.658
 1047SOL    HW2 3277   1.829   3.304   2.779
 1048SOL     OW 3278   0.254   3.164   3.690
 1048SOL    HW1 3279   0.211   3.077   3.664
 1048SOL    HW2 3280   0.238   3.182   3.787
 1049SOL     OW 3281   0.136   3.106   2.541
 1049SOL    HW1 3282   0.079   3.060   2.608
 1049SOL    HW2 3283   0.197   3.040   2.497
 1050SOL     OW 3284   0.710   3.315   3.505
 1050SOL    HW1 3285   0.633   3.262   3.541
 1050SOL    HW2 3286   0.710   3.406   3.546
 1051SOL     OW 3287   1.805   2.087   3.034
 1051SOL    HW1 3288   1.886   2.050   3.080
 1051SOL    HW2 3289   1.730   2.021   3.039
 1052SOL     OW 3290   0.403   2.272   2.377
 1052SOL    HW1 3291   0.448   2.204   2.318
 1052SOL    HW2 3292   0.353   2.225   2.450
 1053SOL     OW 3293   1.625   3.401   2.964
 1053SOL    HW1 3294   1.571   3.389   2.881
 1053SOL    HW2 3295   1.615   3.320   3.022
 1054SOL     OW 3296   0.328   2.408   3.138
 1054SOL    HW1 3297   0.384   2.345   3.193
 1054SOL    HW2 3298   0.333   2.382   3.042
 1055SOL     OW 3299   0.831   3.447   2.535
 1055SOL    HW1 3300   0.799   3.518   2.473
 1055SOL    HW2 3301   0.758   3.381   2.551
 1056SOL     OW 3302   1.438   2.116   2.975
 1056SOL    HW1 3303   1.443   2.016   2.980
 1056SOL    HW2 3304   1.380   2.151   3.048
 1057SOL     OW 3305   1.031   1.867   2.965
 1057SOL    HW1 3306   0.965   1.803   2.927
 1057SOL    HW2 3307   1.123   1.827   2.961
 1058SOL     OW 3308   0.788   3.184   2.206
 1058SOL    HW1 3309   0.766   3.089   2.227
 1058SOL    HW2 3310   0.868   3.213   2.260
 1059SOL     OW 3311   0.640   3.467   3.162
 1059SOL    HW1 3312   0.626   3.564   3.182
 1059SOL    HW2 3313   0.724   3.456   3.109
 1060SOL     OW 3314   1.391   1.890   2.057
 1060SOL    HW1 3315   1.440   1.821   2.003
 1060SOL    HW2 3316   1.298   1.857   2.074
 1061SOL     OW 3317   1.269   2.336   2.533
 1061SOL    HW1 3318   1.221   2.423   2.526
 1061SOL    HW2 3319   1.267   2.304   2.628
 1062SOL     OW 3320   1.616   2.095   2.766
 1062SOL    HW1 3321   1.560   2.114   2.846
 1062SOL    HW2 3322   1.589   2.156   2.692
 1063SOL     OW 3323   0.035   2.883   2.124
 1063SOL    HW1 3324   0.135   2.886   2.119
 1063SOL    HW2 3325   0.007   2.800   2.172
 1064SOL     OW 3326   0.900   3.547   2.187
 1064SOL    HW1 3327   0.822   3.525   2.129
 1064SOL    HW2 3328   0.874   3.618   2.253
 1065SOL     OW 3329   0.220   2.487   3.865
 1065SOL    HW1 3330   0.128   2.477   3.902
 1065SOL    HW2 3331   0.219   2.466   3.767
 1066SOL     OW 3332   0.188   2.117   4.701
 1066SOL    HW1 3333   0.234   2.094   4.786
 1066SOL    HW2 3334   0.109   2.058   4.689
 1067SOL     OW 3335   5.508   2.276   4.332
 1067SOL    HW1 3336   5.439   2.344   4.310
 1067SOL    HW2 3337   5.484   2.189   4.291
 1068SOL     OW 3338   0.571   3.184   4.946
 1068SOL    HW1 3339   0.489   3.190   4.888
 1068SOL    HW2 3340   0.593   3.275   4.982
 1069SOL     OW 3341   1.592   3.390   4.414
 1069SOL    HW1 3342   1.546   3.354   4.495
 1069SOL    HW2 3343   1.525   3.403   4.341
 1070SOL     OW 3344   1.141   2.577   4.404
 1070SOL    HW1 3345   1.192   2.660   4.382
 1070SOL    HW2 3346   1.092   2.589   4.490
 1071SOL     OW 3347   1.795   2.424   3.927
 1071SOL    HW1 3348   1.757   2.435   3.835
 1071SOL    HW2 3349   1.739   2.359   3.978
 1072SOL     OW 3350   0.717   2.995   4.777
 1072SOL    HW1 3351   0.652   3.028   4.846
 1072SOL    HW2 3352   0.760   3.073   4.732
 1073SOL     OW 3353   0.848   2.597   0.029
 1073SOL    HW1 3354   0.863   2.645   0.115
 1073SOL    HW2 3355   0.885   2.651   5.471
 1074SOL     OW 3356   0.696   2.831   4.389
 1074SOL    HW1 3357   0.772   2.837   4.455
 1074SOL    HW2 3358   0.626   2.898   4.414
 1075SOL     OW 3359   0.355   3.278   4.802
 1075SOL    HW1 3360   0.283   3.221   4.762
 1075SOL    HW2 3361   0.396   3.333   4.729
 1076SOL     OW 3362   1.435   3.378   5.094
 1076SOL    HW1 3363   1.501   3.453   5.103
 1076SOL    HW2 3364   1.359   3.391   5.157
 1077SOL     OW 3365   0.492   2.241   5.150
 1077SOL    HW1 3366   0.569   2.180   5.166
 1077SOL    HW2 3367   0.408   2.200   5.185
 1078SOL     OW 3368   1.579   2.309   4.476
 1078SOL    HW1 3369   1.505   2.314   4.409
 1078SOL    HW2 3370   1.565   2.378   4.547
 1079SOL     OW 3371   0.292   3.543   4.199
 1079SOL    HW1 3372   0.286   3.623   4.259
 1079SOL    HW2 3373   0.349   3.564   4.120
 1080SOL     OW 3374   0.263   3.274   4.215
 1080SOL    HW1 3375   0.268   3.373   4.218
 1080SOL    HW2 3376   0.209   3.241   4.292
 1081SOL     OW 3377   0.359   2.931   4.661
 1081SOL    HW1 3378   0.340   2.837   4.688
 1081SOL    HW2 3379   0.288   2.992   4.697
 1082SOL     OW 3380   0.580   3.703   5.130
 1082SOL    HW1 3381   0.501   3.679   5.188
 1082SOL    HW2 3382   0.629   3.780   5.170
 1083SOL     OW 3383   0.590   2.854   3.891
 1083SOL    HW1 3384   0.639   2.903   3.819
 1083SOL    HW2 3385   0.628   2.877   3.980
 1084SOL     OW 3386   1.721   1.948   5.229
 1084SOL    HW1 3387   1.749   1.987   5.141
 1084SOL    HW2 3388   1.699   2.022   5.293
 1085SOL     OW 3389   0.142   2.550   4.297
 1085SOL    HW1 3390   0.125   2.454   4.320
 1085SOL    HW2 3391   0.148   2.604   4.381
 1086SOL     OW 3392   1.860   3.611   4.043
 1086SOL    HW1 3393   1.939   3.599   4.105
 1086SOL    HW2 3394   1.861   3.703   4.005
 1087SOL     OW 3395   5.495   3.409   3.862
 1087SOL    HW1 3396   5.491   3.310   3.868
 1087SOL    HW2 3397   5.434   3.449   3.930
 1088SOL     OW 3398   1.707   2.798   4.390
 1088SOL    HW1 3399   1.800   2.761   4.391
 1088SOL    HW2 3400   1.694   2.852   4.307
 1089SOL     OW 3401   1.679   2.971   4.167
 1089SOL    HW1 3402   1.760   2.946   4.115
 1089SOL    HW2 3403   1.700   3.047   4.228
 1090SOL     OW 3404   0.170   2.586   5.343
 1090SOL    HW1 3405   0.266   2.611   5.331
 1090SOL    HW2 3406   0.112   2.666   5.325
 1091SOL     OW 3407   0.625   3.256   4.446
 1091SOL    HW1 3408   0.586   3.165   4.457
 1091SOL    HW2 3409   0.606   3.289   4.353
 1092SOL     OW 3410   1.233   3.103   5.186
 1092SOL    HW1 3411   1.262   3.037   5.117
 1092SOL    HW2 3412   1.279   3.083   5.273
 1093SOL     OW 3413   0.838   1.886   4.227
 1093SOL    HW1 3414   0.884   1.970   4.200
 1093SOL    HW2 3415   0.739   1.902   4.232
 1094SOL     OW 3416   0.195   2.807   5.051
 1094SOL    HW1 3417   0.277   2.760   5.016
 1094SOL    HW2 3418   0.114   2.771   5.004
 1095SOL     OW 3419   1.544   2.900   3.931
 1095SOL    HW1 3420   1.471   2.835   3.954
 1095SOL    HW2 3421   1.590   2.930   4.015
 1096SOL     OW 3422   1.113   3.663   5.363
 1096SOL    HW1 3423   1.141   3.746   5.315
 1096SOL    HW2 3424   1.152   3.583   5.317
 1097SOL     OW 3425   0.363   2.087   0.041
 1097SOL    HW1 3426   0.405   2.172   0.073
 1097SOL    HW2 3427   0.269   2.106   0.012
 1098SOL     OW 3428   1.481   3.277   4.637
 1098SOL    HW1 3429   1.418   3.310   4.707
 1098SOL    HW2 3430   1.455   3.184   4.610
 1099SOL     OW 3431   1.633   3.702   4.266
 1099SOL    HW1 3432   1.623   3.642   4.186
 1099SOL    HW2 3433   1.645   3.647   4.348
 1100SOL     OW 3434   0.596   2.572   3.991
 1100SOL    HW1 3435   0.603   2.664   3.952
 1100SOL    HW2 3436   0.529   2.572   4.065
 1101SOL     OW 3437   1.284   2.263   4.665
 1101SOL    HW1 3438   1.192   2.224   4.658
 1101SOL    HW2 3439   1.337   2.211   4.731
 1102SOL     OW 3440   1.597   3.538   4.044
 1102SOL    HW1 3441   1.695   3.552   4.040
 1102SOL    HW2 3442   1.561   3.523   3.951
 1103SOL     OW 3443   0.789   2.434   5.172
 1103SOL    HW1 3444   0.735   2.417   5.254
 1103SOL    HW2 3445   0.770   2.364   5.104
 1104SOL     OW 3446   0.958   2.741   5.336
 1104SOL    HW1 3447   1.003   2.672   5.280
 1104SOL    HW2 3448   0.906   2.803   5.277
 1105SOL     OW 3449   1.025   2.238   4.918
 1105SOL    HW1 3450   0.929   2.251   4.944
 1105SOL    HW2 3451   1.029   2.198   4.826
 1106SOL     OW 3452   1.060   2.554   4.138
 1106SOL    HW1 3453   1.083   2.556   4.235
 1106SOL    HW2 3454   0.971   2.510   4.126
 1107SOL     OW 3455   0.128   2.721   4.517
 1107SOL    HW1 3456   0.208   2.690   4.568
 1107SOL    HW2 3457   0.097   2.809   4.555
 1108SOL     OW 3458   0.142   3.788   5.335
 1108SOL    HW1 3459   0.130   3.749   5.426
 1108SOL    HW2 3460   0.053   3.793   5.289
 1109SOL     OW 3461   0.856   2.207   3.931
 1109SOL    HW1 3462   0.912   2.251   3.861
 1109SOL    HW2 3463   0.798   2.138   3.888
 1110SOL     OW 3464   1.410   3.030   4.277
 1110SOL    HW1 3465   1.497   3.020   4.230
 1110SOL    HW2 3466   1.352   3.095   4.227
 1111SOL     OW 3467   0.584   2.018   4.649
 1111SOL    HW1 3468   0.585   2.034   4.748
 1111SOL    HW2 3469   0.579   2.105   4.601
 1112SOL     OW 3470   0.993   3.325   4.195
 1112SOL    HW1 3471   0.975   3.400   4.132
 1112SOL    HW2 3472   0.959   3.349   4.286
 1113SOL     OW 3473   0.386   3.683   4.596
 1113SOL    HW1 3474   0.424   3.591   4.606
 1113SOL    HW2 3475   0.455   3.751   4.622
 1114SOL     OW 3476   1.793   2.915   4.631
 1114SOL    HW1 3477   1.749   2.897   4.543
 1114SOL    HW2 3478   1.723   2.930   4.701
 1115SOL     OW 3479   1.187   3.398   5.243
 1115SOL    HW1 3480   1.194   3.299   5.231
 1115SOL    HW2 3481   1.104   3.432   5.198
 1116SOL     OW 3482   0.316   2.827   3.998
 1116SOL    HW1 3483   0.401   2.856   3.953
 1116SOL    HW2 3484   0.300   2.730   3.979
 1117SOL     OW 3485   1.494   2.631   4.434
 1117SOL    HW1 3486   1.488   2.589   4.525
 1117SOL    HW2 3487   1.574   2.692   4.432
 1118SOL     OW 3488   0.484   3.110   5.437
 1118SOL    HW1 3489   0.415   3.151   5.377
 1118SOL    HW2 3490   0.462   3.014   5.452
 1119SOL     OW 3491   1.155   3.626   3.959
 1119SOL    HW1 3492   1.065   3.604   3.995
 1119SOL    HW2 3493   1.181   3.559   3.889
 1120SOL     OW 3494   0.239   2.144   5.199
 1120SOL    HW1 3495   0.171   2.217   5.207
 1120SOL    HW2 3496   0.210   2.066   5.255
 1121SOL     OW 3497   1.621   3.239   3.815
 1121SOL    HW1 3498   1.597   3.335   3.803
 1121SOL    HW2 3499   1.543   3.182   3.791
 1122SOL     OW 3500   0.481   3.620   4.013
 1122SOL    HW1 3501   0.521   3.675   4.086
 1122SOL    HW2 3502   0.553   3.570   3.965
 1123SOL     OW 3503   1.398   1.962   4.175
 1123SOL    HW1 3504   1.398   1.939   4.078
 1123SOL    HW2 3505   1.486   1.934   4.216
 1124SOL     OW 3506   0.247   3.650   4.939
 1124SOL    HW1 3507   0.285   3.569   4.984
 1124SOL    HW2 3508   0.211   3.625   4.850
 1125SOL     OW 3509   0.948   3.561   4.603
 1125SOL    HW1 3510   1.040   3.523   4.609
 1125SOL    HW2 3511   0.898   3.515   4.529
 1126SOL     OW 3512   0.407   2.541   4.191
 1126SOL    HW1 3513   0.414   2.442   4.202
 1126SOL    HW2 3514   0.314   2.570   4.215
 1127SOL     OW 3515   0.680   1.987   3.839
 1127SOL    HW1 3516   0.734   1.909   3.872
 1127SOL    HW2 3517   0.612   1.955   3.774
 1128SOL     OW 3518   0.770   2.196   5.448
 1128SOL    HW1 3519   0.852   2.241   5.484
 1128SOL    HW2 3520   0.734   2.132   5.515
 1129SOL     OW 3521   0.855   3.371   4.919
 1129SOL    HW1 3522   0.830   3.341   4.827
 1129SOL    HW2 3523   0.916   3.304   4.961
 1130SOL     OW 3524   1.295   2.450   5.206
 1130SOL    HW1 3525   1.325   2.439   5.301
 1130SOL    HW2 3526   1.330   2.536   5.169
 1131SOL     OW 3527   0.812   3.234   4.667
 1131SOL    HW1 3528   0.906   3.235   4.633
 1131SOL    HW2 3529   0.748   3.245   4.591
 1132SOL     OW 3530   0.926   2.372   4.600
 1132SOL    HW1 3531   0.904   2.365   4.503
 1132SOL    HW2 3532   0.957   2.284   4.635
 1133SOL     OW 3533   0.568   1.930   4.212
 1133SOL    HW1 3534   0.488   1.922   4.271
 1133SOL    HW2 3535   0.558   2.011   4.154
 1134SOL     OW 3536   1.406   3.073   3.763
 1134SOL    HW1 3537   1.450   3.004   3.822
 1134SOL    HW2 3538   1.321   3.104   3.806
 1135SOL     OW 3539   0.275   1.876   3.870
 1135SOL    HW1 3540   0.311   1.961   3.832
 1135SOL    HW2 3541   0.347   1.828   3.920
 1136SOL     OW 3542   0.969   2.116   4.164
 1136SOL    HW1 3543   0.932   2.150   4.078
 1136SOL    HW2 3544   1.067   2.135   4.169
 1137SOL     OW 3545   1.040   2.552   5.157
 1137SOL    HW1 3546   0.961   2.492   5.168
 1137SOL    HW2 3547   1.124   2.500   5.172
 1138SOL     OW 3548   1.205   3.472   4.542
 1138SOL    HW1 3549   1.228   3.523   4.459
 1138SOL    HW2 3550   1.245   3.517   4.622
 1139SOL     OW 3551   0.499   3.012   4.445
 1139SOL    HW1 3552   0.452   2.985   4.529
 1139SOL    HW2 3553   0.437   3.002   4.367
 1140SOL     OW 3554   1.244   3.657   4.335
 1140SOL    HW1 3555   1.297   3.721   4.279
 1140SOL    HW2 3556   1.164   3.704   4.372
 1141SOL     OW 3557   1.021   2.358   3.767
 1141SOL    HW1 3558   0.982   2.446   3.739
 1141SOL    HW2 3559   1.089   2.372   3.838
 1142SOL     OW 3560   0.097   2.400   5.155
 1142SOL    HW1 3561   0.178   2.398   5.096
 1142SOL    HW2 3562   0.111   2.467   5.228
 1143SOL     OW 3563   0.574   2.049   4.919
 1143SOL    HW1 3564   0.601   1.972   4.978
 1143SOL    HW2 3565   0.476   2.066   4.929
 1144SOL     OW 3566   0.880   2.319   4.338
 1144SOL    HW1 3567   0.837   2.378   4.269
 1144SOL    HW2 3568   0.913   2.236   4.294
 1145SOL     OW 3569   1.016   1.916   4.447
 1145SOL    HW1 3570   0.953   1.914   4.370
 1145SOL    HW2 3571   0.991   1.843   4.512
 1146SOL     OW 3572   1.408   3.022   4.569
 1146SOL    HW1 3573   1.316   2.987   4.586
 1146SOL    HW2 3574   1.426   3.024   4.471
 1147SOL     OW 3575   1.466   2.487   4.676
 1147SOL    HW1 3576   1.396   2.416   4.684
 1147SOL    HW2 3577   1.529   2.479   4.754
 1148SOL     OW 3578   1.810   2.634   4.099
 1148SOL    HW1 3579   1.869   2.602   4.173
 1148SOL    HW2 3580   1.805   2.564   4.028
 1149SOL     OW 3581   0.495   3.292   3.867
 1149SOL    HW1 3582   0.404   3.270   3.901
 1149SOL    HW2 3583   0.506   3.254   3.775
 1150SOL     OW 3584   1.741   3.161   4.342
 1150SOL    HW1 3585   1.836   3.161   4.375
 1150SOL    HW2 3586   1.697   3.247   4.368
 1151SOL     OW 3587   1.391   2.432   3.782
 1151SOL    HW1 3588   1.333   2.406   3.860
 1151SOL    HW2 3589   1.487   2.423   3.808
 1152SOL     OW 3590   0.535   2.129   4.031
 1152SOL    HW1 3591   0.587   2.077   3.963
 1152SOL    HW2 3592   0.501   2.214   3.989
 1153SOL     OW 3593   1.755   3.098   5.219
 1153SOL    HW1 3594   1.848   3.061   5.217
 1153SOL    HW2 3595   1.753   3.181   5.274
 1154SOL     OW 3596   1.008   3.180   5.046
 1154SOL    HW1 3597   0.921   3.152   5.086
 1154SOL    HW2 3598   1.083   3.151   5.106
 1155SOL     OW 3599   1.159   3.125   4.828
 1155SOL    HW1 3600   1.092   3.143   4.901
 1155SOL    HW2 3601   1.121   3.153   4.740
 1156SOL     OW 3602   1.582   2.961   4.800
 1156SOL    HW1 3603   1.578   3.030   4.872
 1156SOL    HW2 3604   1.512   2.980   4.731
 1157SOL     OW 3605   0.948   1.940   5.096
 1157SOL    HW1 3606   0.973   1.932   4.999
 1157SOL    HW2 3607   1.022   1.983   5.146
 1158SOL     OW 3608   0.727   2.914   4.124
 1158SOL    HW1 3609   0.710   2.885   4.218
 1158SOL    HW2 3610   0.807   2.865   4.088
 1159SOL     OW 3611   0.423   2.664   4.980
 1159SOL    HW1 3612   0.503   2.671   5.040
 1159SOL    HW2 3613   0.383   2.573   4.987
 1160SOL     OW 3614   1.263   2.224   5.047
 1160SOL    HW1 3615   1.283   2.308   5.099
 1160SOL    HW2 3616   1.176   2.236   4.999
 1161SOL     OW 3617   0.060   3.386   5.122
 1161SOL    HW1 3618   5.507   3.456   5.137
 1161SOL    HW2 3619   0.149   3.430   5.113
 1162SOL     OW 3620   0.321   2.995   4.233
 1162SOL    HW1 3621   0.318   3.089   4.199
 1162SOL    HW2 3622   0.320   2.931   4.155
 1163SOL     OW 3623   0.539   2.367   4.595
 1163SOL    HW1 3624   0.546   2.429   4.516
 1163SOL    HW2 3625   0.607   2.392   4.663
 1164SOL     OW 3626   1.247   3.226   4.140
 1164SOL    HW1 3627   1.309   3.300   4.164
 1164SOL    HW2 3628   1.154   3.249   4.168
 1165SOL     OW 3629   1.322   3.343   4.850
 1165SOL    HW1 3630   1.366   3.353   4.939
 1165SOL    HW2 3631   1.265   3.261   4.849
 1166SOL     OW 3632   1.581   2.493   4.202
 1166SOL    HW1 3633   1.533   2.533   4.280
 1166SOL    HW2 3634   1.647   2.558   4.165
 1167SOL     OW 3635   0.342   3.404   5.043
 1167SOL    HW1 3636   0.333   3.354   4.957
 1167SOL    HW2 3637   0.438   3.429   5.056
 1168SOL     OW 3638   0.452   2.619   5.336
 1168SOL    HW1 3639   0.504   2.650   5.257
 1168SOL    HW2 3640   0.499   2.542   5.379
 1169SOL     OW 3641   1.519   2.712   5.354
 1169SOL    HW1 3642   1.450   2.704   5.282
 1169SOL    HW2 3643   1.602   2.753   5.317
 1170SOL     OW 3644   0.604   2.723   4.770
 1170SOL    HW1 3645   0.633   2.818   4.763
 1170SOL    HW2 3646   0.534   2.714   4.842
 1171SOL     OW 3647   1.289   2.707   4.753
 1171SOL    HW1 3648   1.199   2.680   4.718
 1171SOL    HW2 3649   1.358   2.640   4.727
 1172SOL     OW 3650   1.202   2.379   3.979
 1172SOL    HW1 3651   1.222   2.302   4.039
 1172SOL    HW2 3652   1.158   2.452   4.033
 1173SOL     OW 3653   0.300   2.054   4.945
 1173SOL    HW1 3654   0.275   2.093   5.033
 1173SOL    HW2 3655   0.283   1.956   4.946
 1174SOL     OW 3656   0.079   3.149   4.993
 1174SOL    HW1 3657   0.109   3.087   5.065
 1174SOL    HW2 3658   0.065   3.240   5.031
 1175SOL     OW 3659   0.725   2.474   4.769
 1175SOL    HW1 3660   0.797   2.458   4.702
 1175SOL    HW2 3661   0.689   2.567   4.758
 1176SOL     OW 3662   1.673   2.705   0.070
 1176SOL    HW1 3663   1.623   2.704   5.500
 1176SOL    HW2 3664   1.630   2.772   0.131
 1177SOL     OW 3665   0.330   1.918   4.349
 1177SOL    HW1 3666   0.285   2.006   4.362
 1177SOL    HW2 3667   0.347   1.875   4.438
 1178SOL     OW 3668   1.615   2.261   4.056
 1178SOL    HW1 3669   1.660   2.192   4.114
 1178SOL    HW2 3670   1.587   2.339   4.112
 1179SOL     OW 3671   1.029   2.616   4.673
 1179SOL    HW1 3672   1.004   2.635   4.768
 1179SOL    HW2 3673   0.999   2.524   4.649
 1180SOL     OW 3674   0.857   3.427   5.449
 1180SOL    HW1 3675   0.910   3.481   5.384
 1180SOL    HW2 3676   0.789   3.373   5.400
 1181SOL     OW 3677   1.802   3.339   5.340
 1181SOL    HW1 3678   1.848   3.382   5.263
 1181SOL    HW2 3679   1.844   3.370   5.426
 1182SOL     OW 3680   0.422   2.841   5.493
 1182SOL    HW1 3681   0.470   2.825   0.062
 1182SOL    HW2 3682   0.432   2.761   5.434
 1183SOL     OW 3683   1.528   2.114   3.832
 1183SOL    HW1 3684   1.475   2.037   3.868
 1183SOL    HW2 3685   1.558   2.172   3.908
 1184SOL     OW 3686   1.279   2.675   3.729
 1184SOL    HW1 3687   1.317   2.584   3.743
 1184SOL    HW2 3688   1.316   2.715   3.645
 1185SOL     OW 3689   1.072   3.227   4.585
 1185SOL    HW1 3690   1.099   3.145   4.535
 1185SOL    HW2 3691   1.129   3.304   4.556
 1186SOL     OW 3692   0.338   2.642   4.668
 1186SOL    HW1 3693   0.437   2.655   4.658
 1186SOL    HW2 3694   0.320   2.549   4.699
 1187SOL     OW 3695   0.305   2.366   4.729
 1187SOL    HW1 3696   0.253   2.281   4.717
 1187SOL    HW2 3697   0.389   2.362   4.676
 1188SOL     OW 3698   1.159   2.054   5.238
 1188SOL    HW1 3699   1.158   2.110   5.321
 1188SOL    HW2 3700   1.207   2.104   5.165
 1189SOL     OW 3701   5.474   3.133   3.896
 1189SOL    HW1 3702   5.380   3.129   3.862
 1189SOL    HW2 3703   5.501   3.043   3.931
 1190SOL     OW 3704   0.137   3.616   4.685
 1190SOL    HW1 3705   0.101   3.544   4.625
 1190SOL    HW2 3706   0.224   3.650   4.647
 1191SOL     OW 3707   0.502   3.431   4.624
 1191SOL    HW1 3708   0.575   3.492   4.656
 1191SOL    HW2 3709   0.538   3.367   4.557
 1192SOL     OW 3710   0.931   2.654   4.924
 1192SOL    HW1 3711   0.983   2.628   5.005
 1192SOL    HW2 3712   0.845   2.603   4.922
 1193SOL     OW 3713   5.493   2.487   4.904
 1193SOL    HW1 3714   0.037   2.447   4.836
 1193SOL    HW2 3715   5.515   2.450   4.995
 1194SOL     OW 3716   0.817   2.435   4.088
 1194SOL    HW1 3717   0.823   2.352   4.033
 1194SOL    HW2 3718   0.741   2.491   4.056
 1195SOL     OW 3719   1.653   2.469   4.882
 1195SOL    HW1 3720   1.641   2.411   4.962
 1195SOL    HW2 3721   1.750   2.481   4.862
 1196SOL     OW 3722   0.255   3.440   5.441
 1196SOL    HW1 3723   0.186   3.427   5.512
 1196SOL    HW2 3724   0.266   3.355   5.389
 1197SOL     OW 3725   0.753   2.270   4.953
 1197SOL    HW1 3726   0.686   2.196   4.947
 1197SOL    HW2 3727   0.729   2.341   4.886
 1198SOL     OW 3728   0.960   3.515   5.139
 1198SOL    HW1 3729   0.919   3.474   5.058
 1198SOL    HW2 3730   0.946   3.614   5.137
 1199SOL     OW 3731   0.454   2.350   3.891
 1199SOL    HW1 3732   0.525   2.417   3.911
 1199SOL    HW2 3733   0.365   2.395   3.891
 1200SOL     OW 3734   0.153   3.005   5.225
 1200SOL    HW1 3735   0.155   2.971   5.319
 1200SOL    HW2 3736   0.176   2.931   5.162
 1201SOL     OW 3737   1.265   2.901   4.951
 1201SOL    HW1 3738   1.280   2.829   4.884
 1201SOL    HW2 3739   1.231   2.983   4.905
 1202SOL     OW 3740   1.334   2.739   3.993
 1202SOL    HW1 3741   1.267   2.706   4.060
 1202SOL    HW2 3742   1.304   2.716   3.901
 1203SOL     OW 3743   1.762   3.562   4.879
 1203SOL    HW1 3744   1.837   3.597   4.822
 1203SOL    HW2 3745   1.740   3.469   4.851
 1204SOL     OW 3746   1.271   3.601   4.780
 1204SOL    HW1 3747   1.360   3.648   4.782
 1204SOL    HW2 3748   1.281   3.509   4.816
 1205SOL     OW 3749   0.155   3.097   4.739
 1205SOL    HW1 3750   0.122   3.118   4.831
 1205SOL    HW2 3751   0.079   3.062   4.683
 1206SOL     OW 3752   1.764   2.070   4.191
 1206SOL    HW1 3753   1.820   2.045   4.112
 1206SOL    HW2 3754   1.720   1.988   4.228
 1207SOL     OW 3755   1.401   3.444   4.218
 1207SOL    HW1 3756   1.463   3.479   4.148
 1207SOL    HW2 3757   1.339   3.518   4.247
 1208SOL     OW 3758   1.292   2.798   4.358
 1208SOL    HW1 3759   1.366   2.737   4.384
 1208SOL    HW2 3760   1.329   2.880   4.315
 1209SOL     OW 3761   0.759   3.118   5.131
 1209SOL    HW1 3762   0.736   3.174   5.211
 1209SOL    HW2 3763   0.689   3.130   5.061
 1210SOL     OW 3764   0.686   3.489   3.881
 1210SOL    HW1 3765   0.699   3.518   3.786
 1210SOL    HW2 3766   0.625   3.410   3.884
 1211SOL     OW 3767   1.607   3.588   5.106
 1211SOL    HW1 3768   1.665   3.582   5.025
 1211SOL    HW2 3769   1.640   3.662   5.164
 1212SOL     OW 3770   1.834   2.010   4.733
 1212SOL    HW1 3771   1.868   1.921   4.702
 1212SOL    HW2 3772   1.749   2.032   4.685
 1213SOL     OW 3773   0.227   2.163   4.424
 1213SOL    HW1 3774   0.143   2.209   4.394
 1213SOL    HW2 3775   0.225   2.151   4.523
 1214SOL     OW 3776   1.231   3.441   3.771
 1214SOL    HW1 3777   1.219   3.350   3.810
 1214SOL    HW2 3778   1.155   3.462   3.710
 1215SOL     OW 3779   0.831   2.859   5.121
 1215SOL    HW1 3780   0.878   2.839   5.035
 1215SOL    HW2 3781   0.806   2.956   5.124
 1216SOL     OW 3782   0.935   2.777   4.028
 1216SOL    HW1 3783   0.981   2.801   3.942
 1216SOL    HW2 3784   0.984   2.700   4.070
 1217SOL     OW 3785   1.500   3.511   3.783
 1217SOL    HW1 3786   1.404   3.487   3.768
 1217SOL    HW2 3787   1.549   3.511   3.696
 1218SOL     OW 3788   0.310   3.230   5.265
 1218SOL    HW1 3789   0.316   3.291   5.186
 1218SOL    HW2 3790   0.248   3.154   5.243
 1219SOL     OW 3791   1.594   3.160   5.003
 1219SOL    HW1 3792   1.653   3.130   5.078
 1219SOL    HW2 3793   1.532   3.231   5.037
 1220SOL     OW 3794   1.121   2.971   4.497
 1220SOL    HW1 3795   1.034   2.932   4.525
 1220SOL    HW2 3796   1.170   2.907   4.438
 1221SOL     OW 3797   1.041   2.108   4.665
 1221SOL    HW1 3798   1.035   2.071   4.573
 1221SOL    HW2 3799   1.040   2.033   4.731
 1222SOL     OW 3800   0.597   3.345   4.193
 1222SOL    HW1 3801   0.657   3.291   4.133
 1222SOL    HW2 3802   0.510   3.360   4.147
 1223SOL     OW 3803   1.734   2.297   5.110
 1223SOL    HW1 3804   1.818   2.347   5.130
 1223SOL    HW2 3805   1.757   2.210   5.066
 1224SOL     OW 3806   0.224   3.209   3.955
 1224SOL    HW1 3807   0.126   3.190   3.942
 1224SOL    HW2 3808   0.240   3.239   4.049
 1225SOL     OW 3809   0.158   2.907   5.478
 1225SOL    HW1 3810   0.114   2.894   0.049
 1225SOL    HW2 3811   0.255   2.883   5.485
 1226SOL     OW 3812   0.717   2.064   5.211
 1226SOL    HW1 3813   0.800   2.030   5.168
 1226SOL    HW2 3814   0.740   2.113   5.295
 1227SOL     OW 3815   0.074   2.185   3.757
 1227SOL    HW1 3816   5.494   2.169   3.743
 1227SOL    HW2 3817   0.102   2.267   3.708
 1228SOL     OW 3818   1.381   2.698   5.114
 1228SOL    HW1 3819   1.318   2.765   5.076
 1228SOL    HW2 3820   1.469   2.704   5.067
 1229SOL     OW 3821   0.064   2.018   3.983
 1229SOL    HW1 3822   0.064   2.088   3.912
 1229SOL    HW2 3823   0.136   1.951   3.963
 1230SOL     OW 3824   1.176   3.187   3.867
 1230SOL    HW1 3825   1.077   3.177   3.856
 1230SOL    HW2 3826   1.199   3.189   3.965
 1231SOL     OW 3827   0.641   2.666   5.139
 1231SOL    HW1 3828   0.704   2.744   5.138
 1231SOL    HW2 3829   0.694   2.582   5.151
 1232SOL     OW 3830   1.522   3.711   4.784
 1232SOL    HW1 3831   1.554   3.769   4.709
 1232SOL    HW2 3832   1.600   3.661   4.822
 1233SOL     OW 3833   0.652   2.445   5.420
 1233SOL    HW1 3834   0.716   2.502   5.473
 1233SOL    HW2 3835   0.672   2.348   5.437
 1234SOL     OW 3836   0.373   3.639   5.295
 1234SOL    HW1 3837   0.300   3.707   5.294
 1234SOL    HW2 3838   0.347   3.562   5.352
 1235SOL     OW 3839   1.612   2.737   4.967
 1235SOL    HW1 3840   1.630   2.649   4.922
 1235SOL    HW2 3841   1.602   2.808   4.898
 1236SOL     OW 3842   1.237   2.187   4.178
 1236SOL    HW1 3843   1.297   2.107   4.177
 1236SOL    HW2 3844   1.259   2.244   4.257
 1237SOL     OW 3845   0.569   2.580   4.415
 1237SOL    HW1 3846   0.621   2.665   4.408
 1237SOL    HW2 3847   0.514   2.567   4.333
 1238SOL     OW 3848   1.692   2.172   5.390
 1238SOL    HW1 3849   1.670   2.240   5.321
 1238SOL    HW2 3850   1.622   2.174   5.462
 1239SOL     OW 3851   1.714   2.824   5.209
 1239SOL    HW1 3852   1.718   2.924   5.213
 1239SOL    HW2 3853   1.689   2.795   5.117
 1240SOL     OW 3854   0.896   3.217   3.817
 1240SOL    HW1 3855   0.847   3.224   3.905
 1240SOL    HW2 3856   0.900   3.307   3.775
 1241SOL     OW 3857   0.688   3.620   4.676
 1241SOL    HW1 3858   0.666   3.716   4.664
 1241SOL    HW2 3859   0.786   3.605   4.659
 1242SOL     OW 3860   0.888   2.850   4.593
 1242SOL    HW1 3861   0.932   2.766   4.625
 1242SOL    HW2 3862   0.833   2.889   4.667
 1243SOL     OW 3863   1.055   2.817   3.791
 1243SOL    HW1 3864   1.035   2.887   3.722
 1243SOL    HW2 3865   1.138   2.768   3.765
 1244SOL     OW 3866   1.816   3.436   4.570
 1244SOL    HW1 3867   1.744   3.428   4.501
 1244SOL    HW2 3868   1.796   3.375   4.647
 1245SOL     OW 3869   0.132   3.119   4.408
 1245SOL    HW1 3870   0.072   3.067   4.469
 1245SOL    HW2 3871   0.193   3.056   4.360
 1246SOL     OW 3872   0.661   3.287   5.322
 1246SOL    HW1 3873   0.601   3.225   5.371
 1246SOL    HW2 3874   0.606   3.350   5.267
 1247SOL     OW 3875   1.834   2.058   5.004
 1247SOL    HW1 3876   1.929   2.041   5.030
 1247SOL    HW2 3877   1.823   2.043   4.906
 1248SOL     OW 3878   0.405   2.276   4.238
 1248SOL    HW1 3879   0.449   2.209   4.179
 1248SOL    HW2 3880   0.351   2.230   4.308
 1249SOL     OW 3881   1.702   3.311   4.792
 1249SOL    HW1 3882   1.624   3.297   4.732
 1249SOL    HW2 3883   1.695   3.250   4.871
 1250SOL     OW 3884   0.326   2.407   5.002
 1250SOL    HW1 3885   0.393   2.351   5.050
 1250SOL    HW2 3886   0.324   2.382   4.905
 1251SOL     OW 3887   0.824   3.447   4.391
 1251SOL    HW1 3888   0.791   3.512   4.323
 1251SOL    HW2 3889   0.754   3.378   4.409
 1252SOL     OW 3890   1.417   2.110   4.847
 1252SOL    HW1 3891   1.436   2.013   4.863
 1252SOL    HW2 3892   1.372   2.149   4.928
 1253SOL     OW 3893   1.036   1.879   4.826
 1253SOL    HW1 3894   0.968   1.817   4.787
 1253SOL    HW2 3895   1.126   1.837   4.820
 1254SOL     OW 3896   0.785   3.184   4.069
 1254SOL    HW1 3897   0.763   3.089   4.088
 1254SOL    HW2 3898   0.865   3.212   4.123
 1255SOL     OW 3899   0.620   3.443   5.051
 1255SOL    HW1 3900   0.612   3.539   5.076
 1255SOL    HW2 3901   0.706   3.428   5.002
 1256SOL     OW 3902   1.390   1.889   3.910
 1256SOL    HW1 3903   1.438   1.817   3.860
 1256SOL    HW2 3904   1.295   1.863   3.922
 1257SOL     OW 3905   1.296   2.342   4.398
 1257SOL    HW1 3906   1.244   2.427   4.391
 1257SOL    HW2 3907   1.293   2.310   4.493
 1258SOL     OW 3908   1.590   2.075   4.631
 1258SOL    HW1 3909   1.529   2.102   4.706
 1258SOL    HW2 3910   1.591   2.147   4.561
 1259SOL     OW 3911   0.036   2.883   3.985
 1259SOL    HW1 3912   0.136   2.885   3.980
 1259SOL    HW2 3913   0.007   2.801   4.034
 1260SOL     OW 3914   0.903   3.543   4.050
 1260SOL    HW1 3915   0.826   3.522   3.991
 1260SOL    HW2 3916   0.878   3.617   4.113
 1261SOL     OW 3917   0.181   4.301   0.062
 1261SOL    HW1 3918   0.099   4.324   0.115
 1261SOL    HW2 3919   0.182   4.354   5.494
 1262SOL     OW 3920   0.168   3.995   0.981
 1262SOL    HW1 3921   0.207   3.962   1.067
 1262SOL    HW2 3922   0.074   3.961   0.972
 1263SOL     OW 3923   0.004   4.164   0.599
 1263SOL    HW1 3924   5.442   4.222   0.580
 1263SOL    HW2 3925   5.508   4.075   0.554
 1264SOL     OW 3926   0.587   5.024   1.212
 1264SOL    HW1 3927   0.499   5.031   1.165
 1264SOL    HW2 3928   0.612   5.114   1.249
 1265SOL     OW 3929   1.588   5.226   0.683
 1265SOL    HW1 3930   1.525   5.197   0.755
 1265SOL    HW2 3931   1.536   5.267   0.608
 1266SOL     OW 3932   1.137   4.443   0.676
 1266SOL    HW1 3933   1.190   4.527   0.658
 1266SOL    HW2 3934   1.089   4.452   0.763
 1267SOL     OW 3935   1.787   4.348   0.167
 1267SOL    HW1 3936   1.739   4.424   0.123
 1267SOL    HW2 3937   1.721   4.281   0.199
 1268SOL     OW 3938   0.727   4.852   1.040
 1268SOL    HW1 3939   0.669   4.888   1.113
 1268SOL    HW2 3940   0.768   4.928   0.990
 1269SOL     OW 3941   0.886   4.449   1.847
 1269SOL    HW1 3942   0.882   4.509   1.928
 1269SOL    HW2 3943   0.905   4.504   1.766
 1270SOL     OW 3944   0.690   4.680   0.661
 1270SOL    HW1 3945   0.763   4.682   0.729
 1270SOL    HW2 3946   0.624   4.752   0.681
 1271SOL     OW 3947   0.712   4.875   1.843
 1271SOL    HW1 3948   0.762   4.948   1.890
 1271SOL    HW2 3949   0.641   4.915   1.786
 1272SOL     OW 3950   0.363   5.125   1.080
 1272SOL    HW1 3951   0.290   5.068   1.043
 1272SOL    HW2 3952   0.406   5.176   1.006
 1273SOL     OW 3953   1.436   5.208   1.418
 1273SOL    HW1 3954   1.493   5.262   1.480
 1273SOL    HW2 3955   1.343   5.202   1.455
 1274SOL     OW 3956   0.457   4.089   1.434
 1274SOL    HW1 3957   0.540   4.038   1.454
 1274SOL    HW2 3958   0.380   4.048   1.483
 1275SOL     OW 3959   1.581   4.167   0.745
 1275SOL    HW1 3960   1.510   4.173   0.676
 1275SOL    HW2 3961   1.565   4.235   0.816
 1276SOL     OW 3962   1.120   5.048   1.729
 1276SOL    HW1 3963   1.173   5.036   1.813
 1276SOL    HW2 3964   1.060   4.970   1.715
 1277SOL     OW 3965   0.187   5.216   0.551
 1277SOL    HW1 3966   0.153   5.295   0.601
 1277SOL    HW2 3967   0.164   5.132   0.600
 1278SOL     OW 3968   0.354   4.789   0.921
 1278SOL    HW1 3969   0.341   4.693   0.947
 1278SOL    HW2 3970   0.286   4.845   0.968
 1279SOL     OW 3971   0.593   4.687   0.187
 1279SOL    HW1 3972   0.652   4.709   0.109
 1279SOL    HW2 3973   0.638   4.717   0.271
 1280SOL     OW 3974   1.587   3.862   1.462
 1280SOL    HW1 3975   1.640   3.935   1.419
 1280SOL    HW2 3976   1.549   3.895   1.548
 1281SOL     OW 3977   0.128   4.415   0.562
 1281SOL    HW1 3978   0.099   4.321   0.577
 1281SOL    HW2 3979   0.137   4.462   0.650
 1282SOL     OW 3980   0.141   5.287   0.097
 1282SOL    HW1 3981   0.107   5.207   0.145
 1282SOL    HW2 3982   0.180   5.352   0.162
 1283SOL     OW 3983   1.710   4.654   0.665
 1283SOL    HW1 3984   1.802   4.615   0.668
 1283SOL    HW2 3985   1.700   4.709   0.583
 1284SOL     OW 3986   1.686   4.835   0.450
 1284SOL    HW1 3987   1.766   4.819   0.392
 1284SOL    HW2 3988   1.708   4.904   0.519
 1285SOL     OW 3989   0.151   4.469   1.582
 1285SOL    HW1 3990   0.247   4.497   1.582
 1285SOL    HW2 3991   0.093   4.549   1.565
 1286SOL     OW 3992   0.636   5.119   0.717
 1286SOL    HW1 3993   0.593   5.029   0.718
 1286SOL    HW2 3994   0.623   5.161   0.627
 1287SOL     OW 3995   1.252   4.922   1.421
 1287SOL    HW1 3996   1.273   4.851   1.354
 1287SOL    HW2 3997   1.323   4.923   1.491
 1288SOL     OW 3998   0.824   3.739   0.521
 1288SOL    HW1 3999   0.873   3.823   0.499
 1288SOL    HW2 4000   0.725   3.754   0.514
 1289SOL     OW 4001   0.203   4.675   1.323
 1289SOL    HW1 4002   0.289   4.630   1.298
 1289SOL    HW2 4003   0.128   4.638   1.268
 1290SOL     OW 4004   1.534   4.747   0.234
 1290SOL    HW1 4005   1.458   4.689   0.265
 1290SOL    HW2 4006   1.584   4.782   0.313
 1291SOL     OW 4007   1.114   5.470   1.602
 1291SOL    HW1 4008   1.136   0.032   1.545
 1291SOL    HW2 4009   1.149   5.387   1.559
 1292SOL     OW 4010   0.345   3.981   1.892
 1292SOL    HW1 4011   0.390   4.060   1.935
 1292SOL    HW2 4012   0.247   3.998   1.887
 1293SOL     OW 4013   1.450   5.147   0.917
 1293SOL    HW1 4014   1.407   5.169   1.005
 1293SOL    HW2 4015   1.438   5.049   0.898
 1294SOL     OW 4016   0.581   4.408   0.263
 1294SOL    HW1 4017   0.597   4.500   0.226
 1294SOL    HW2 4018   0.513   4.413   0.336
 1295SOL     OW 4019   1.282   4.123   0.939
 1295SOL    HW1 4020   1.190   4.083   0.937
 1295SOL    HW2 4021   1.340   4.069   1.000
 1296SOL     OW 4022   1.647   5.423   0.287
 1296SOL    HW1 4023   1.726   5.484   0.274
 1296SOL    HW2 4024   1.613   5.394   0.198
 1297SOL     OW 4025   0.799   4.289   1.440
 1297SOL    HW1 4026   0.767   4.268   1.533
 1297SOL    HW2 4027   0.770   4.217   1.378
 1298SOL     OW 4028   1.383   4.194   1.665
 1298SOL    HW1 4029   1.385   4.245   1.752
 1298SOL    HW2 4030   1.432   4.108   1.676
 1299SOL     OW 4031   0.940   4.586   1.606
 1299SOL    HW1 4032   0.999   4.520   1.560
 1299SOL    HW2 4033   0.885   4.636   1.538
 1300SOL     OW 4034   1.005   4.101   1.190
 1300SOL    HW1 4035   0.909   4.108   1.217
 1300SOL    HW2 4036   1.012   4.054   1.102
 1301SOL     OW 4037   1.043   4.408   0.414
 1301SOL    HW1 4038   1.071   4.414   0.510
 1301SOL    HW2 4039   0.958   4.357   0.406
 1302SOL     OW 4040   0.128   4.571   0.791
 1302SOL    HW1 4041   0.209   4.541   0.841
 1302SOL    HW2 4042   0.095   4.657   0.829
 1303SOL     OW 4043   0.110   0.107   1.641
 1303SOL    HW1 4044   0.128   0.053   1.723
 1303SOL    HW2 4045   0.023   0.078   1.600
 1304SOL     OW 4046   0.895   4.016   0.221
 1304SOL    HW1 4047   0.928   4.089   0.163
 1304SOL    HW2 4048   0.898   3.929   0.171
 1305SOL     OW 4049   1.655   4.291   1.832
 1305SOL    HW1 4050   1.646   4.375   1.779
 1305SOL    HW2 4051   1.688   4.217   1.773
 1306SOL     OW 4052   1.423   4.900   0.572
 1306SOL    HW1 4053   1.509   4.883   0.523
 1306SOL    HW2 4054   1.374   4.975   0.528
 1307SOL     OW 4055   0.574   3.887   0.922
 1307SOL    HW1 4056   0.563   3.903   1.021
 1307SOL    HW2 4057   0.573   3.974   0.874
 1308SOL     OW 4058   1.032   5.185   0.460
 1308SOL    HW1 4059   0.995   5.208   0.370
 1308SOL    HW2 4060   0.981   5.233   0.531
 1309SOL     OW 4061   0.405   5.512   0.875
 1309SOL    HW1 4062   0.458   5.429   0.893
 1309SOL    HW2 4063   0.459   0.075   0.901
 1310SOL     OW 4064   1.797   4.773   0.906
 1310SOL    HW1 4065   1.752   4.758   0.818
 1310SOL    HW2 4066   1.728   4.788   0.976
 1311SOL     OW 4067   1.177   5.216   1.516
 1311SOL    HW1 4068   1.170   5.153   1.594
 1311SOL    HW2 4069   1.122   5.181   1.440
 1312SOL     OW 4070   0.346   4.666   0.326
 1312SOL    HW1 4071   0.429   4.684   0.274
 1312SOL    HW2 4072   0.353   4.577   0.370
 1313SOL     OW 4073   1.491   4.496   0.705
 1313SOL    HW1 4074   1.487   4.447   0.792
 1313SOL    HW2 4075   1.573   4.553   0.702
 1314SOL     OW 4076   0.520   5.012   1.709
 1314SOL    HW1 4077   0.476   5.019   1.620
 1314SOL    HW2 4078   0.451   5.019   1.781
 1315SOL     OW 4079   1.159   5.513   0.195
 1315SOL    HW1 4080   1.139   5.490   0.290
 1315SOL    HW2 4081   1.192   5.432   0.147
 1316SOL     OW 4082   0.210   3.991   1.523
 1316SOL    HW1 4083   0.135   4.052   1.547
 1316SOL    HW2 4084   0.192   3.900   1.561
 1317SOL     OW 4085   1.653   5.105   0.098
 1317SOL    HW1 4086   1.617   5.198   0.087
 1317SOL    HW2 4087   1.581   5.039   0.075
 1318SOL     OW 4088   1.394   3.829   0.444
 1318SOL    HW1 4089   1.395   3.813   0.345
 1318SOL    HW2 4090   1.484   3.806   0.482
 1319SOL     OW 4091   0.381   4.412   0.458
 1319SOL    HW1 4092   0.405   4.316   0.470
 1319SOL    HW2 4093   0.288   4.427   0.490
 1320SOL     OW 4094   1.490   3.939   1.716
 1320SOL    HW1 4095   1.502   3.961   1.813
 1320SOL    HW2 4096   1.425   3.864   1.706
 1321SOL     OW 4097   0.666   3.857   0.094
 1321SOL    HW1 4098   0.745   3.798   0.083
 1321SOL    HW2 4099   0.587   3.817   0.047
 1322SOL     OW 4100   0.771   3.995   1.750
 1322SOL    HW1 4101   0.858   3.946   1.746
 1322SOL    HW2 4102   0.714   3.955   1.821
 1323SOL     OW 4103   0.897   5.254   1.167
 1323SOL    HW1 4104   0.866   5.206   1.085
 1323SOL    HW2 4105   0.951   5.193   1.223
 1324SOL     OW 4106   1.309   4.312   1.429
 1324SOL    HW1 4107   1.345   4.277   1.517
 1324SOL    HW2 4108   1.347   4.403   1.412
 1325SOL     OW 4109   0.815   5.104   0.935
 1325SOL    HW1 4110   0.910   5.097   0.905
 1325SOL    HW2 4111   0.755   5.111   0.855
 1326SOL     OW 4112   0.923   4.228   0.882
 1326SOL    HW1 4113   0.899   4.221   0.785
 1326SOL    HW2 4114   0.955   4.139   0.915
 1327SOL     OW 4115   0.558   3.789   0.473
 1327SOL    HW1 4116   0.478   3.787   0.533
 1327SOL    HW2 4117   0.554   3.871   0.416
 1328SOL     OW 4118   1.436   4.941   0.058
 1328SOL    HW1 4119   1.466   4.864   0.114
 1328SOL    HW2 4120   1.351   4.978   0.096
 1329SOL     OW 4121   0.280   3.717   0.168
 1329SOL    HW1 4122   0.321   3.794   0.119
 1329SOL    HW2 4123   0.353   3.660   0.207
 1330SOL     OW 4124   0.969   3.966   0.474
 1330SOL    HW1 4125   0.936   3.984   0.381
 1330SOL    HW2 4126   1.067   3.988   0.480
 1331SOL     OW 4127   1.051   4.410   1.426
 1331SOL    HW1 4128   0.976   4.343   1.435
 1331SOL    HW2 4129   1.138   4.361   1.427
 1332SOL     OW 4130   1.234   5.288   0.801
 1332SOL    HW1 4131   1.239   5.388   0.798
 1332SOL    HW2 4132   1.319   5.252   0.837
 1333SOL     OW 4133   0.503   4.876   0.711
 1333SOL    HW1 4134   0.454   4.847   0.794
 1333SOL    HW2 4135   0.439   4.880   0.634
 1334SOL     OW 4136   0.972   4.213   0.053
 1334SOL    HW1 4137   0.931   4.303   0.039
 1334SOL    HW2 4138   1.055   4.222   0.107
 1335SOL     OW 4139   0.071   4.303   1.376
 1335SOL    HW1 4140   0.159   4.281   1.333
 1335SOL    HW2 4141   0.086   4.365   1.453
 1336SOL     OW 4142   0.532   3.919   1.190
 1336SOL    HW1 4143   0.555   3.838   1.244
 1336SOL    HW2 4144   0.438   3.948   1.210
 1337SOL     OW 4145   0.871   4.181   0.621
 1337SOL    HW1 4146   0.824   4.232   0.549
 1337SOL    HW2 4147   0.907   4.095   0.583
 1338SOL     OW 4148   1.020   3.773   0.733
 1338SOL    HW1 4149   0.953   3.774   0.658
 1338SOL    HW2 4150   0.997   3.701   0.798
 1339SOL     OW 4151   1.422   4.877   0.858
 1339SOL    HW1 4152   1.352   4.808   0.876
 1339SOL    HW2 4153   1.434   4.887   0.759
 1340SOL     OW 4154   1.462   4.346   0.941
 1340SOL    HW1 4155   1.394   4.274   0.951
 1340SOL    HW2 4156   1.526   4.343   1.018
 1341SOL     OW 4157   1.821   4.515   0.382
 1341SOL    HW1 4158   1.874   4.471   0.454
 1341SOL    HW2 4159   1.818   4.455   0.302
 1342SOL     OW 4160   0.502   5.145   0.162
 1342SOL    HW1 4161   0.428   5.128   0.228
 1342SOL    HW2 4162   0.489   5.085   0.082
 1343SOL     OW 4163   1.750   5.007   0.641
 1343SOL    HW1 4164   1.846   5.025   0.664
 1343SOL    HW2 4165   1.697   5.091   0.655
 1344SOL     OW 4166   1.339   4.238   0.032
 1344SOL    HW1 4167   1.278   4.234   0.111
 1344SOL    HW2 4168   1.406   4.164   0.038
 1345SOL     OW 4169   0.550   4.004   0.304
 1345SOL    HW1 4170   0.604   3.953   0.236
 1345SOL    HW2 4171   0.497   4.075   0.257
 1346SOL     OW 4172   1.737   4.947   1.516
 1346SOL    HW1 4173   1.830   4.912   1.503
 1346SOL    HW2 4174   1.742   5.042   1.547
 1347SOL     OW 4175   1.033   5.060   1.331
 1347SOL    HW1 4176   0.945   5.026   1.362
 1347SOL    HW2 4177   1.106   5.005   1.371
 1348SOL     OW 4178   1.576   5.355   1.618
 1348SOL    HW1 4179   1.594   5.444   1.576
 1348SOL    HW2 4180   1.657   5.297   1.610
 1349SOL     OW 4181   1.170   4.985   1.104
 1349SOL    HW1 4182   1.104   5.009   1.175
 1349SOL    HW2 4183   1.134   5.011   1.015
 1350SOL     OW 4184   1.592   4.823   1.081
 1350SOL    HW1 4185   1.589   4.895   1.150
 1350SOL    HW2 4186   1.526   4.843   1.009
 1351SOL     OW 4187   0.932   3.795   1.379
 1351SOL    HW1 4188   0.952   3.775   1.284
 1351SOL    HW2 4189   1.011   3.837   1.422
 1352SOL     OW 4190   0.961   4.825   1.734
 1352SOL    HW1 4191   0.868   4.843   1.767
 1352SOL    HW2 4192   0.963   4.739   1.683
 1353SOL     OW 4193   0.746   4.752   0.399
 1353SOL    HW1 4194   0.732   4.722   0.494
 1353SOL    HW2 4195   0.822   4.700   0.359
 1354SOL     OW 4196   0.428   4.527   1.263
 1354SOL    HW1 4197   0.505   4.529   1.328
 1354SOL    HW2 4198   0.386   4.436   1.264
 1355SOL     OW 4199   1.255   4.084   1.292
 1355SOL    HW1 4200   1.282   4.168   1.339
 1355SOL    HW2 4201   1.163   4.094   1.254
 1356SOL     OW 4202   0.107   5.280   1.341
 1356SOL    HW1 4203   0.069   5.353   1.284
 1356SOL    HW2 4204   0.206   5.290   1.345
 1357SOL     OW 4205   0.319   4.878   0.505
 1357SOL    HW1 4206   0.320   4.959   0.446
 1357SOL    HW2 4207   0.325   4.796   0.448
 1358SOL     OW 4208   0.547   4.204   0.860
 1358SOL    HW1 4209   0.550   4.265   0.781
 1358SOL    HW2 4210   0.611   4.236   0.929
 1359SOL     OW 4211   1.298   5.118   0.447
 1359SOL    HW1 4212   1.352   5.201   0.458
 1359SOL    HW2 4213   1.202   5.137   0.467
 1360SOL     OW 4214   1.336   5.199   1.160
 1360SOL    HW1 4215   1.376   5.203   1.252
 1360SOL    HW2 4216   1.279   5.117   1.153
 1361SOL     OW 4217   1.589   4.369   0.470
 1361SOL    HW1 4218   1.536   4.406   0.546
 1361SOL    HW2 4219   1.656   4.437   0.440
 1362SOL     OW 4220   0.379   5.269   1.309
 1362SOL    HW1 4221   0.367   5.222   1.222
 1362SOL    HW2 4222   0.476   5.292   1.322
 1363SOL     OW 4223   0.471   4.444   1.635
 1363SOL    HW1 4224   0.521   4.482   1.557
 1363SOL    HW2 4225   0.523   4.368   1.674
 1364SOL     OW 4226   1.623   4.523   1.695
 1364SOL    HW1 4227   1.529   4.557   1.689
 1364SOL    HW2 4228   1.676   4.556   1.617
 1365SOL     OW 4229   0.998   3.847   1.754
 1365SOL    HW1 4230   1.059   3.926   1.745
 1365SOL    HW2 4231   1.048   3.764   1.728
 1366SOL     OW 4232   0.499   3.785   1.770
 1366SOL    HW1 4233   0.453   3.735   1.697
 1366SOL    HW2 4234   0.441   3.861   1.801
 1367SOL     OW 4235   0.601   4.580   1.046
 1367SOL    HW1 4236   0.634   4.674   1.037
 1367SOL    HW2 4237   0.538   4.575   1.124
 1368SOL     OW 4238   1.290   4.571   0.991
 1368SOL    HW1 4239   1.198   4.537   0.970
 1368SOL    HW2 4240   1.357   4.498   0.972
 1369SOL     OW 4241   1.171   4.225   0.250
 1369SOL    HW1 4242   1.199   4.152   0.312
 1369SOL    HW2 4243   1.133   4.301   0.303
 1370SOL     OW 4244   0.242   3.922   1.247
 1370SOL    HW1 4245   0.239   3.959   1.341
 1370SOL    HW2 4246   0.251   3.823   1.251
 1371SOL     OW 4247   0.066   5.021   1.279
 1371SOL    HW1 4248   0.106   4.965   1.352
 1371SOL    HW2 4249   0.081   5.118   1.300
 1372SOL     OW 4250   0.716   4.326   1.043
 1372SOL    HW1 4251   0.793   4.311   0.981
 1372SOL    HW2 4252   0.683   4.420   1.032
 1373SOL     OW 4253   1.761   4.698   1.862
 1373SOL    HW1 4254   1.716   4.627   1.808
 1373SOL    HW2 4255   1.707   4.717   1.944
 1374SOL     OW 4256   0.328   3.787   0.625
 1374SOL    HW1 4257   0.287   3.877   0.638
 1374SOL    HW2 4258   0.340   3.743   0.713
 1375SOL     OW 4259   1.628   4.154   0.303
 1375SOL    HW1 4260   1.677   4.084   0.355
 1375SOL    HW2 4261   1.601   4.228   0.365
 1376SOL     OW 4262   1.029   4.470   0.949
 1376SOL    HW1 4263   1.004   4.490   1.044
 1376SOL    HW2 4264   0.999   4.378   0.925
 1377SOL     OW 4265   1.004   5.296   1.790
 1377SOL    HW1 4266   1.030   5.362   1.719
 1377SOL    HW2 4267   1.013   5.203   1.755
 1378SOL     OW 4268   1.801   5.210   1.569
 1378SOL    HW1 4269   1.845   5.238   1.483
 1378SOL    HW2 4270   1.868   5.213   1.643
 1379SOL     OW 4271   0.396   4.645   1.807
 1379SOL    HW1 4272   0.467   4.662   1.875
 1379SOL    HW2 4273   0.425   4.571   1.746
 1380SOL     OW 4274   1.511   4.026   0.087
 1380SOL    HW1 4275   1.467   3.941   0.115
 1380SOL    HW2 4276   1.553   4.070   0.167
 1381SOL     OW 4277   1.333   4.511   0.031
 1381SOL    HW1 4278   1.337   4.411   0.030
 1381SOL    HW2 4279   1.403   4.547   5.487
 1382SOL     OW 4280   1.074   5.074   0.864
 1382SOL    HW1 4281   1.084   4.994   0.804
 1382SOL    HW2 4282   1.124   5.151   0.826
 1383SOL     OW 4283   0.342   4.501   0.945
 1383SOL    HW1 4284   0.441   4.519   0.947
 1383SOL    HW2 4285   0.324   4.407   0.970
 1384SOL     OW 4286   0.317   4.226   1.001
 1384SOL    HW1 4287   0.256   4.148   0.989
 1384SOL    HW2 4288   0.399   4.213   0.945
 1385SOL     OW 4289   1.137   4.079   1.699
 1385SOL    HW1 4290   1.088   4.128   1.771
 1385SOL    HW2 4291   1.223   4.125   1.681
 1386SOL     OW 4292   1.162   3.906   1.482
 1386SOL    HW1 4293   1.146   3.967   1.560
 1386SOL    HW2 4294   1.207   3.958   1.409
 1387SOL     OW 4295   0.049   5.026   0.222
 1387SOL    HW1 4296   5.476   5.048   0.259
 1387SOL    HW2 4297   0.059   4.926   0.218
 1388SOL     OW 4298   0.138   0.001   0.917
 1388SOL    HW1 4299   0.093   5.448   0.862
 1388SOL    HW2 4300   0.237   5.514   0.903
 1389SOL     OW 4301   0.540   5.275   0.922
 1389SOL    HW1 4302   0.619   5.279   0.983
 1389SOL    HW2 4303   0.564   5.224   0.839
 1390SOL     OW 4304   0.928   4.509   1.200
 1390SOL    HW1 4305   0.985   4.484   1.279
 1390SOL    HW2 4306   0.845   4.454   1.201
 1391SOL     OW 4307   5.441   4.368   1.145
 1391SOL    HW1 4308   5.499   4.335   1.070
 1391SOL    HW2 4309   5.479   4.337   1.232
 1392SOL     OW 4310   0.207   4.265   1.763
 1392SOL    HW1 4311   0.282   4.216   1.718
 1392SOL    HW2 4312   0.172   4.336   1.703
 1393SOL     OW 4313   1.382   4.644   1.636
 1393SOL    HW1 4314   1.406   4.741   1.634
 1393SOL    HW2 4315   1.374   4.610   1.543
 1394SOL     OW 4316   0.806   4.271   0.360
 1394SOL    HW1 4317   0.811   4.180   0.318
 1394SOL    HW2 4318   0.727   4.320   0.324
 1395SOL     OW 4319   1.646   4.334   1.146
 1395SOL    HW1 4320   1.628   4.267   1.218
 1395SOL    HW2 4321   1.744   4.338   1.128
 1396SOL     OW 4322   0.348   5.300   1.804
 1396SOL    HW1 4323   0.262   5.350   1.808
 1396SOL    HW2 4324   0.330   5.201   1.801
 1397SOL     OW 4325   0.731   4.123   1.229
 1397SOL    HW1 4326   0.661   4.052   1.222
 1397SOL    HW2 4327   0.713   4.195   1.162
 1398SOL     OW 4328   0.427   4.199   0.150
 1398SOL    HW1 4329   0.489   4.273   0.174
 1398SOL    HW2 4330   0.339   4.237   0.122
 1399SOL     OW 4331   0.165   4.880   1.496
 1399SOL    HW1 4332   0.180   4.853   1.591
 1399SOL    HW2 4333   0.183   4.801   1.436
 1400SOL     OW 4334   1.275   4.749   1.198
 1400SOL    HW1 4335   1.285   4.682   1.124
 1400SOL    HW2 4336   1.239   4.834   1.160
 1401SOL     OW 4337   1.328   4.583   0.299
 1401SOL    HW1 4338   1.255   4.539   0.352
 1401SOL    HW2 4339   1.325   4.552   0.204
 1402SOL     OW 4340   1.814   5.438   1.164
 1402SOL    HW1 4341   1.837   5.492   1.083
 1402SOL    HW2 4342   1.759   5.359   1.138
 1403SOL     OW 4343   1.301   5.465   1.088
 1403SOL    HW1 4344   1.369   5.474   1.016
 1403SOL    HW2 4345   1.304   5.372   1.125
 1404SOL     OW 4346   0.154   4.947   1.028
 1404SOL    HW1 4347   0.117   4.971   1.117
 1404SOL    HW2 4348   0.081   4.912   0.969
 1405SOL     OW 4349   0.712   5.423   1.711
 1405SOL    HW1 4350   0.625   5.472   1.718
 1405SOL    HW2 4351   0.785   5.487   1.692
 1406SOL     OW 4352   0.942   3.779   0.062
 1406SOL    HW1 4353   0.968   3.752   5.486
 1406SOL    HW2 4354   1.007   3.739   0.127
 1407SOL     OW 4355   1.766   3.954   0.441
 1407SOL    HW1 4356   1.825   3.921   0.368
 1407SOL    HW2 4357   1.718   3.876   0.483
 1408SOL     OW 4358   1.455   5.355   0.474
 1408SOL    HW1 4359   1.530   5.362   0.407
 1408SOL    HW2 4360   1.418   5.446   0.491
 1409SOL     OW 4361   0.132   5.453   1.859
 1409SOL    HW1 4362   0.068   5.380   1.883
 1409SOL    HW2 4363   0.177   5.486   1.942
 1410SOL     OW 4364   1.290   4.669   0.643
 1410SOL    HW1 4365   1.363   4.604   0.663
 1410SOL    HW2 4366   1.328   4.751   0.601
 1411SOL     OW 4367   0.783   4.981   1.404
 1411SOL    HW1 4368   0.762   5.043   1.480
 1411SOL    HW2 4369   0.707   4.982   1.338
 1412SOL     OW 4370   0.645   5.372   0.122
 1412SOL    HW1 4371   0.725   5.345   0.069
 1412SOL    HW2 4372   0.588   5.292   0.141
 1413SOL     OW 4373   1.839   3.872   0.976
 1413SOL    HW1 4374   1.871   3.780   0.951
 1413SOL    HW2 4375   1.750   3.889   0.933
 1414SOL     OW 4376   0.235   4.038   0.702
 1414SOL    HW1 4377   0.155   4.088   0.667
 1414SOL    HW2 4378   0.224   4.021   0.799
 1415SOL     OW 4379   1.261   5.311   0.040
 1415SOL    HW1 4380   1.246   5.220   0.077
 1415SOL    HW2 4381   1.195   5.328   5.483
 1416SOL     OW 4382   0.823   4.712   1.392
 1416SOL    HW1 4383   0.869   4.687   1.307
 1416SOL    HW2 4384   0.813   4.811   1.398
 1417SOL     OW 4385   0.931   4.605   0.256
 1417SOL    HW1 4386   0.997   4.641   0.190
 1417SOL    HW2 4387   0.977   4.540   0.317
 1418SOL     OW 4388   1.529   5.366   0.043
 1418SOL    HW1 4389   1.433   5.339   0.036
 1418SOL    HW2 4390   1.569   5.369   5.468
 1419SOL     OW 4391   0.385   5.051   1.483
 1419SOL    HW1 4392   0.375   5.131   1.424
 1419SOL    HW2 4393   0.303   4.995   1.476
 1420SOL     OW 4394   1.598   5.024   1.280
 1420SOL    HW1 4395   1.661   4.986   1.347
 1420SOL    HW2 4396   1.534   5.085   1.325
 1421SOL     OW 4397   1.086   4.834   0.739
 1421SOL    HW1 4398   1.008   4.782   0.773
 1421SOL    HW2 4399   1.152   4.771   0.698
 1422SOL     OW 4400   1.039   3.962   0.949
 1422SOL    HW1 4401   1.035   3.923   0.857
 1422SOL    HW2 4402   1.039   3.888   1.016
 1423SOL     OW 4403   0.628   5.237   0.474
 1423SOL    HW1 4404   0.660   5.176   0.402
 1423SOL    HW2 4405   0.601   5.325   0.435
 1424SOL     OW 4406   1.774   4.094   1.404
 1424SOL    HW1 4407   1.842   4.166   1.401
 1424SOL    HW2 4408   1.802   4.019   1.344
 1425SOL     OW 4409   0.290   5.092   0.333
 1425SOL    HW1 4410   0.207   5.069   0.283
 1425SOL    HW2 4411   0.266   5.153   0.409
 1426SOL     OW 4412   0.181   4.802   1.762
 1426SOL    HW1 4413   0.102   4.761   1.807
 1426SOL    HW2 4414   0.262   4.744   1.778
 1427SOL     OW 4415   0.700   3.927   1.491
 1427SOL    HW1 4416   0.783   3.896   1.446
 1427SOL    HW2 4417   0.721   3.955   1.585
 1428SOL     OW 4418   0.098   4.043   0.010
 1428SOL    HW1 4419   0.032   4.048   5.453
 1428SOL    HW2 4420   0.130   4.135   0.032
 1429SOL     OW 4421   1.395   4.570   1.373
 1429SOL    HW1 4422   1.335   4.627   1.318
 1429SOL    HW2 4423   1.488   4.575   1.337
 1430SOL     OW 4424   0.070   3.882   0.235
 1430SOL    HW1 4425   0.071   3.942   0.156
 1430SOL    HW2 4426   0.139   3.810   0.223
 1431SOL     OW 4427   1.221   5.076   0.177
 1431SOL    HW1 4428   1.122   5.089   0.178
 1431SOL    HW2 4429   1.256   5.077   0.271
 1432SOL     OW 4430   0.640   4.515   1.429
 1432SOL    HW1 4431   0.699   4.596   1.422
 1432SOL    HW2 4432   0.698   4.433   1.433
 1433SOL     OW 4433   1.504   5.488   0.907
 1433SOL    HW1 4434   1.532   0.066   0.905
 1433SOL    HW2 4435   1.583   5.429   0.887
 1434SOL     OW 4436   0.716   4.265   1.704
 1434SOL    HW1 4437   0.770   4.326   1.762
 1434SOL    HW2 4438   0.736   4.170   1.727
 1435SOL     OW 4439   1.470   4.904   1.615
 1435SOL    HW1 4440   1.469   4.924   1.713
 1435SOL    HW2 4441   1.561   4.921   1.578
 1436SOL     OW 4442   1.637   4.599   1.244
 1436SOL    HW1 4443   1.644   4.512   1.195
 1436SOL    HW2 4444   1.624   4.674   1.178
 1437SOL     OW 4445   1.232   4.049   0.460
 1437SOL    HW1 4446   1.294   3.971   0.455
 1437SOL    HW2 4447   1.258   4.108   0.536
 1438SOL     OW 4448   0.560   4.429   0.687
 1438SOL    HW1 4449   0.612   4.514   0.682
 1438SOL    HW2 4450   0.497   4.424   0.609
 1439SOL     OW 4451   1.735   4.076   1.676
 1439SOL    HW1 4452   1.748   4.085   1.578
 1439SOL    HW2 4453   1.658   4.015   1.695
 1440SOL     OW 4454   1.749   4.647   1.489
 1440SOL    HW1 4455   1.737   4.745   1.508
 1440SOL    HW2 4456   1.715   4.627   1.397
 1441SOL     OW 4457   0.957   5.163   0.180
 1441SOL    HW1 4458   0.886   5.107   0.222
 1441SOL    HW2 4459   0.919   5.212   0.102
 1442SOL     OW 4460   0.880   4.693   0.861
 1442SOL    HW1 4461   0.929   4.614   0.898
 1442SOL    HW2 4462   0.831   4.739   0.935
 1443SOL     OW 4463   1.098   4.655   0.049
 1443SOL    HW1 4464   1.054   4.653   5.476
 1443SOL    HW2 4465   1.188   4.613   0.042
 1444SOL     OW 4466   1.753   5.360   0.853
 1444SOL    HW1 4467   1.714   5.315   0.773
 1444SOL    HW2 4468   1.760   5.294   0.928
 1445SOL     OW 4469   0.296   5.033   1.869
 1445SOL    HW1 4470   0.247   4.955   1.831
 1445SOL    HW2 4471   0.280   5.038   1.968
 1446SOL     OW 4472   0.132   4.985   0.688
 1446SOL    HW1 4473   0.082   4.922   0.746
 1446SOL    HW2 4474   0.198   4.934   0.632
 1447SOL     OW 4475   0.705   5.178   1.585
 1447SOL    HW1 4476   0.642   5.120   1.637
 1447SOL    HW2 4477   0.717   5.264   1.634
 1448SOL     OW 4478   1.839   3.881   1.251
 1448SOL    HW1 4479   1.903   3.807   1.275
 1448SOL    HW2 4480   1.832   3.887   1.151
 1449SOL     OW 4481   0.424   4.154   0.514
 1449SOL    HW1 4482   0.473   4.088   0.457
 1449SOL    HW2 4483   0.371   4.105   0.583
 1450SOL     OW 4484   1.681   5.206   1.075
 1450SOL    HW1 4485   1.603   5.189   1.015
 1450SOL    HW2 4486   1.681   5.140   1.150
 1451SOL     OW 4487   0.325   4.271   1.273
 1451SOL    HW1 4488   0.381   4.208   1.327
 1451SOL    HW2 4489   0.330   4.245   1.177
 1452SOL     OW 4490   0.872   5.312   0.643
 1452SOL    HW1 4491   0.848   5.402   0.607
 1452SOL    HW2 4492   0.789   5.257   0.654
 1453SOL     OW 4493   1.427   3.969   1.113
 1453SOL    HW1 4494   1.451   3.874   1.133
 1453SOL    HW2 4495   1.372   4.007   1.188
 1454SOL     OW 4496   1.033   3.731   1.111
 1454SOL    HW1 4497   0.972   3.667   1.065
 1454SOL    HW2 4498   1.126   3.695   1.110
 1455SOL     OW 4499   0.802   5.023   0.362
 1455SOL    HW1 4500   0.771   4.929   0.372
 1455SOL    HW2 4501   0.876   5.041   0.427
 1456SOL     OW 4502   0.658   5.265   1.324
 1456SOL    HW1 4503   0.677   5.246   1.420
 1456SOL    HW2 4504   0.743   5.289   1.277
 1457SOL     OW 4505   1.384   3.776   0.173
 1457SOL    HW1 4506   1.437   3.701   0.133
 1457SOL    HW2 4507   1.288   3.748   0.182
 1458SOL     OW 4508   1.295   4.207   0.674
 1458SOL    HW1 4509   1.244   4.293   0.667
 1458SOL    HW2 4510   1.291   4.174   0.768
 1459SOL     OW 4511   1.587   3.927   0.891
 1459SOL    HW1 4512   1.529   3.954   0.968
 1459SOL    HW2 4513   1.588   4.000   0.823
 1460SOL     OW 4514   0.088   4.743   0.231
 1460SOL    HW1 4515   0.184   4.731   0.254
 1460SOL    HW2 4516   0.034   4.671   0.275
 1461SOL     OW 4517   0.225   4.382   2.016
 1461SOL    HW1 4518   0.134   4.360   2.052
 1461SOL    HW2 4519   0.229   4.358   1.919
 1462SOL     OW 4520   0.173   3.986   2.847
 1462SOL    HW1 4521   0.212   3.960   2.935
 1462SOL    HW2 4522   0.083   3.944   2.836
 1463SOL     OW 4523   0.005   4.155   2.471
 1463SOL    HW1 4524   5.445   4.215   2.452
 1463SOL    HW2 4525   5.507   4.066   2.428
 1464SOL     OW 4526   0.586   5.025   3.077
 1464SOL    HW1 4527   0.498   5.032   3.030
 1464SOL    HW2 4528   0.612   5.114   3.113
 1465SOL     OW 4529   1.593   5.217   2.545
 1465SOL    HW1 4530   1.534   5.188   2.620
 1465SOL    HW2 4531   1.537   5.249   2.469
 1466SOL     OW 4532   1.124   4.455   2.535
 1466SOL    HW1 4533   1.180   4.537   2.519
 1466SOL    HW2 4534   1.076   4.464   2.623
 1467SOL     OW 4535   1.790   4.285   2.064
 1467SOL    HW1 4536   1.747   4.295   1.974
 1467SOL    HW2 4537   1.740   4.216   2.117
 1468SOL     OW 4538   0.723   4.853   2.903
 1468SOL    HW1 4539   0.666   4.889   2.977
 1468SOL    HW2 4540   0.763   4.929   2.852
 1469SOL     OW 4541   0.886   4.450   3.705
 1469SOL    HW1 4542   0.879   4.510   3.784
 1469SOL    HW2 4543   0.906   4.504   3.623
 1470SOL     OW 4544   0.694   4.684   2.506
 1470SOL    HW1 4545   0.763   4.691   2.578
 1470SOL    HW2 4546   0.620   4.749   2.523
 1471SOL     OW 4547   0.716   4.875   3.707
 1471SOL    HW1 4548   0.766   4.948   3.754
 1471SOL    HW2 4549   0.644   4.916   3.650
 1472SOL     OW 4550   0.363   5.125   2.946
 1472SOL    HW1 4551   0.289   5.070   2.906
 1472SOL    HW2 4552   0.408   5.177   2.873
 1473SOL     OW 4553   1.436   5.209   3.280
 1473SOL    HW1 4554   1.493   5.262   3.342
 1473SOL    HW2 4555   1.343   5.204   3.316
 1474SOL     OW 4556   0.459   4.090   3.299
 1474SOL    HW1 4557   0.542   4.039   3.318
 1474SOL    HW2 4558   0.382   4.048   3.347
 1475SOL     OW 4559   1.598   4.181   2.600
 1475SOL    HW1 4560   1.582   4.221   2.510
 1475SOL    HW2 4561   1.554   4.238   2.669
 1476SOL     OW 4562   1.120   5.051   3.589
 1476SOL    HW1 4563   1.170   5.039   3.674
 1476SOL    HW2 4564   1.060   4.972   3.574
 1477SOL     OW 4565   0.195   5.194   2.379
 1477SOL    HW1 4566   0.178   5.279   2.429
 1477SOL    HW2 4567   0.173   5.116   2.437
 1478SOL     OW 4568   0.340   4.786   2.764
 1478SOL    HW1 4569   0.338   4.693   2.802
 1478SOL    HW2 4570   0.281   4.845   2.818
 1479SOL     OW 4571   0.582   4.705   2.023
 1479SOL    HW1 4572   0.627   4.757   1.950
 1479SOL    HW2 4573   0.625   4.728   2.111
 1480SOL     OW 4574   1.595   3.845   3.348
 1480SOL    HW1 4575   1.645   3.920   3.304
 1480SOL    HW2 4576   1.544   3.879   3.426
 1481SOL     OW 4577   0.143   4.408   2.431
 1481SOL    HW1 4578   0.119   4.312   2.450
 1481SOL    HW2 4579   0.152   4.457   2.518
 1482SOL     OW 4580   5.484   5.243   1.922
 1482SOL    HW1 4581   5.504   5.149   1.948
 1482SOL    HW2 4582   5.435   5.288   1.997
 1483SOL     OW 4583   1.703   4.650   2.533
 1483SOL    HW1 4584   1.794   4.612   2.545
 1483SOL    HW2 4585   1.698   4.698   2.445
 1484SOL     OW 4586   1.684   4.825   2.308
 1484SOL    HW1 4587   1.766   4.797   2.258
 1484SOL    HW2 4588   1.708   4.892   2.377
 1485SOL     OW 4589   0.151   4.471   3.445
 1485SOL    HW1 4590   0.246   4.500   3.444
 1485SOL    HW2 4591   0.092   4.550   3.426
 1486SOL     OW 4592   0.614   5.097   2.594
 1486SOL    HW1 4593   0.570   5.008   2.580
 1486SOL    HW2 4594   0.617   5.146   2.507
 1487SOL     OW 4595   1.251   4.923   3.279
 1487SOL    HW1 4596   1.271   4.851   3.212
 1487SOL    HW2 4597   1.322   4.923   3.350
 1488SOL     OW 4598   0.835   3.742   2.374
 1488SOL    HW1 4599   0.881   3.825   2.345
 1488SOL    HW2 4600   0.736   3.758   2.377
 1489SOL     OW 4601   0.204   4.675   3.185
 1489SOL    HW1 4602   0.290   4.630   3.160
 1489SOL    HW2 4603   0.130   4.639   3.128
 1490SOL     OW 4604   1.566   4.749   2.069
 1490SOL    HW1 4605   1.489   4.688   2.088
 1490SOL    HW2 4606   1.607   4.779   2.155
 1491SOL     OW 4607   1.115   5.473   3.462
 1491SOL    HW1 4608   1.137   0.035   3.405
 1491SOL    HW2 4609   1.150   5.390   3.419
 1492SOL     OW 4610   0.346   3.982   3.755
 1492SOL    HW1 4611   0.391   4.061   3.797
 1492SOL    HW2 4612   0.247   3.999   3.749
 1493SOL     OW 4613   1.454   5.144   2.779
 1493SOL    HW1 4614   1.409   5.166   2.865
 1493SOL    HW2 4615   1.441   5.047   2.758
 1494SOL     OW 4616   0.596   4.427   2.126
 1494SOL    HW1 4617   0.600   4.518   2.085
 1494SOL    HW2 4618   0.529   4.427   2.200
 1495SOL     OW 4619   1.275   4.126   2.797
 1495SOL    HW1 4620   1.184   4.085   2.792
 1495SOL    HW2 4621   1.333   4.071   2.857
 1496SOL     OW 4622   1.607   5.382   2.136
 1496SOL    HW1 4623   1.705   5.368   2.124
 1496SOL    HW2 4624   1.561   5.378   2.047
 1497SOL     OW 4625   0.800   4.288   3.303
 1497SOL    HW1 4626   0.767   4.267   3.395
 1497SOL    HW2 4627   0.772   4.216   3.240
 1498SOL     OW 4628   1.382   4.197   3.527
 1498SOL    HW1 4629   1.386   4.248   3.613
 1498SOL    HW2 4630   1.427   4.109   3.537
 1499SOL     OW 4631   0.941   4.587   3.464
 1499SOL    HW1 4632   1.000   4.521   3.418
 1499SOL    HW2 4633   0.886   4.636   3.396
 1500SOL     OW 4634   1.007   4.102   3.050
 1500SOL    HW1 4635   0.911   4.107   3.078
 1500SOL    HW2 4636   1.014   4.056   2.962
 1501SOL     OW 4637   1.055   4.426   2.267
 1501SOL    HW1 4638   1.077   4.433   2.364
 1501SOL    HW2 4639   0.969   4.376   2.256
 1502SOL     OW 4640   0.131   4.568   2.658
 1502SOL    HW1 4641   0.212   4.538   2.708
 1502SOL    HW2 4642   0.104   4.659   2.691
 1503SOL     OW 4643   0.111   0.107   3.504
 1503SOL    HW1 4644   0.129   0.052   3.586
 1503SOL    HW2 4645   0.025   0.078   3.462
 1504SOL     OW 4646   0.856   4.065   2.067
 1504SOL    HW1 4647   0.916   4.108   2.000
 1504SOL    HW2 4648   0.802   3.994   2.023
 1505SOL     OW 4649   1.657   4.289   3.699
 1505SOL    HW1 4650   1.648   4.371   3.643
 1505SOL    HW2 4651   1.684   4.212   3.642
 1506SOL     OW 4652   1.425   4.894   2.425
 1506SOL    HW1 4653   1.510   4.873   2.377
 1506SOL    HW2 4654   1.373   4.962   2.373
 1507SOL     OW 4655   0.580   3.877   2.787
 1507SOL    HW1 4656   0.569   3.897   2.884
 1507SOL    HW2 4657   0.581   3.963   2.735
 1508SOL     OW 4658   1.023   5.185   2.317
 1508SOL    HW1 4659   1.023   5.256   2.246
 1508SOL    HW2 4660   0.981   5.222   2.400
 1509SOL     OW 4661   0.408   5.509   2.737
 1509SOL    HW1 4662   0.461   5.427   2.757
 1509SOL    HW2 4663   0.461   0.073   2.762
 1510SOL     OW 4664   1.795   4.783   2.769
 1510SOL    HW1 4665   1.750   4.771   2.680
 1510SOL    HW2 4666   1.725   4.793   2.840
 1511SOL     OW 4667   1.176   5.218   3.375
 1511SOL    HW1 4668   1.169   5.156   3.453
 1511SOL    HW2 4669   1.121   5.183   3.300
 1512SOL     OW 4670   0.314   4.645   2.117
 1512SOL    HW1 4671   0.404   4.673   2.081
 1512SOL    HW2 4672   0.294   4.552   2.087
 1513SOL     OW 4673   1.480   4.501   2.570
 1513SOL    HW1 4674   1.476   4.449   2.656
 1513SOL    HW2 4675   1.564   4.555   2.568
 1514SOL     OW 4676   0.522   5.013   3.575
 1514SOL    HW1 4677   0.478   5.020   3.486
 1514SOL    HW2 4678   0.453   5.019   3.647
 1515SOL     OW 4679   1.136   5.496   2.067
 1515SOL    HW1 4680   1.043   5.517   2.038
 1515SOL    HW2 4681   1.165   5.409   2.027
 1516SOL     OW 4682   0.210   3.991   3.385
 1516SOL    HW1 4683   0.135   4.053   3.409
 1516SOL    HW2 4684   0.191   3.900   3.423
 1517SOL     OW 4685   1.669   5.123   1.940
 1517SOL    HW1 4686   1.622   5.209   1.921
 1517SOL    HW2 4687   1.608   5.047   1.918
 1518SOL     OW 4688   1.399   3.825   2.321
 1518SOL    HW1 4689   1.398   3.802   2.223
 1518SOL    HW2 4690   1.490   3.804   2.359
 1519SOL     OW 4691   0.408   4.393   2.327
 1519SOL    HW1 4692   0.413   4.294   2.338
 1519SOL    HW2 4693   0.316   4.425   2.347
 1520SOL     OW 4694   1.472   3.937   3.583
 1520SOL    HW1 4695   1.487   3.959   3.680
 1520SOL    HW2 4696   1.399   3.869   3.576
 1521SOL     OW 4697   0.680   3.845   1.971
 1521SOL    HW1 4698   0.746   3.772   1.986
 1521SOL    HW2 4699   0.609   3.813   1.908
 1522SOL     OW 4700   0.774   3.994   3.614
 1522SOL    HW1 4701   0.861   3.945   3.610
 1522SOL    HW2 4702   0.717   3.953   3.685
 1523SOL     OW 4703   0.894   5.255   3.028
 1523SOL    HW1 4704   0.862   5.207   2.946
 1523SOL    HW2 4705   0.950   5.193   3.084
 1524SOL     OW 4706   1.310   4.311   3.288
 1524SOL    HW1 4707   1.345   4.278   3.376
 1524SOL    HW2 4708   1.346   4.402   3.270
 1525SOL     OW 4709   0.809   5.105   2.798
 1525SOL    HW1 4710   0.903   5.100   2.765
 1525SOL    HW2 4711   0.746   5.106   2.720
 1526SOL     OW 4712   0.920   4.227   2.737
 1526SOL    HW1 4713   0.899   4.220   2.640
 1526SOL    HW2 4714   0.952   4.138   2.771
 1527SOL     OW 4715   0.566   3.788   2.353
 1527SOL    HW1 4716   0.486   3.781   2.413
 1527SOL    HW2 4717   0.555   3.867   2.293
 1528SOL     OW 4718   1.472   4.935   1.891
 1528SOL    HW1 4719   1.510   4.860   1.946
 1528SOL    HW2 4720   1.386   4.966   1.932
 1529SOL     OW 4721   0.279   3.732   2.007
 1529SOL    HW1 4722   0.317   3.817   1.970
 1529SOL    HW2 4723   0.350   3.684   2.059
 1530SOL     OW 4724   0.964   3.971   2.303
 1530SOL    HW1 4725   0.928   4.005   2.216
 1530SOL    HW2 4726   1.062   3.989   2.307
 1531SOL     OW 4727   1.051   4.409   3.285
 1531SOL    HW1 4728   0.976   4.344   3.294
 1531SOL    HW2 4729   1.138   4.361   3.284
 1532SOL     OW 4730   1.235   5.284   2.661
 1532SOL    HW1 4731   1.237   5.384   2.666
 1532SOL    HW2 4732   1.322   5.248   2.696
 1533SOL     OW 4733   0.483   4.858   2.545
 1533SOL    HW1 4734   0.432   4.833   2.627
 1533SOL    HW2 4735   0.423   4.856   2.465
 1534SOL     OW 4736   1.024   4.216   1.908
 1534SOL    HW1 4737   0.980   4.304   1.887
 1534SOL    HW2 4738   1.094   4.230   1.978
 1535SOL     OW 4739   0.074   4.298   3.245
 1535SOL    HW1 4740   0.162   4.277   3.201
 1535SOL    HW2 4741   0.089   4.362   3.320
 1536SOL     OW 4742   0.536   3.919   3.052
 1536SOL    HW1 4743   0.559   3.839   3.108
 1536SOL    HW2 4744   0.442   3.947   3.071
 1537SOL     OW 4745   0.876   4.178   2.474
 1537SOL    HW1 4746   0.838   4.237   2.403
 1537SOL    HW2 4747   0.910   4.094   2.432
 1538SOL     OW 4748   1.017   3.777   2.590
 1538SOL    HW1 4749   0.954   3.772   2.513
 1538SOL    HW2 4750   0.998   3.703   2.655
 1539SOL     OW 4751   1.424   4.877   2.715
 1539SOL    HW1 4752   1.351   4.810   2.732
 1539SOL    HW2 4753   1.439   4.885   2.616
 1540SOL     OW 4754   1.455   4.343   2.796
 1540SOL    HW1 4755   1.387   4.270   2.806
 1540SOL    HW2 4756   1.519   4.340   2.872
 1541SOL     OW 4757   1.794   4.487   2.245
 1541SOL    HW1 4758   1.862   4.459   2.313
 1541SOL    HW2 4759   1.793   4.421   2.170
 1542SOL     OW 4760   0.479   5.252   2.045
 1542SOL    HW1 4761   0.423   5.187   2.096
 1542SOL    HW2 4762   0.436   5.272   1.957
 1543SOL     OW 4763   1.751   4.991   2.501
 1543SOL    HW1 4764   1.848   4.995   2.527
 1543SOL    HW2 4765   1.709   5.080   2.519
 1544SOL     OW 4766   1.381   4.310   1.913
 1544SOL    HW1 4767   1.334   4.275   1.994
 1544SOL    HW2 4768   1.479   4.295   1.923
 1545SOL     OW 4769   0.532   3.983   2.166
 1545SOL    HW1 4770   0.587   3.933   2.100
 1545SOL    HW2 4771   0.498   4.068   2.125
 1546SOL     OW 4772   1.734   4.956   3.388
 1546SOL    HW1 4773   1.826   4.919   3.376
 1546SOL    HW2 4774   1.740   5.051   3.420
 1547SOL     OW 4775   1.033   5.061   3.191
 1547SOL    HW1 4776   0.944   5.027   3.223
 1547SOL    HW2 4777   1.106   5.006   3.231
 1548SOL     OW 4778   1.575   5.357   3.482
 1548SOL    HW1 4779   1.587   5.444   3.435
 1548SOL    HW2 4780   1.659   5.303   3.477
 1549SOL     OW 4781   1.166   4.983   2.963
 1549SOL    HW1 4782   1.101   5.008   3.036
 1549SOL    HW2 4783   1.129   5.010   2.875
 1550SOL     OW 4784   1.590   4.823   2.945
 1550SOL    HW1 4785   1.585   4.895   3.015
 1550SOL    HW2 4786   1.523   4.842   2.873
 1551SOL     OW 4787   0.928   3.798   3.245
 1551SOL    HW1 4788   0.945   3.779   3.148
 1551SOL    HW2 4789   1.010   3.839   3.285
 1552SOL     OW 4790   0.962   4.827   3.592
 1552SOL    HW1 4791   0.869   4.843   3.625
 1552SOL    HW2 4792   0.964   4.741   3.540
 1553SOL     OW 4793   0.743   4.760   2.242
 1553SOL    HW1 4794   0.729   4.727   2.335
 1553SOL    HW2 4795   0.814   4.705   2.197
 1554SOL     OW 4796   0.430   4.527   3.127
 1554SOL    HW1 4797   0.506   4.528   3.191
 1554SOL    HW2 4798   0.388   4.436   3.127
 1555SOL     OW 4799   1.257   4.080   3.154
 1555SOL    HW1 4800   1.284   4.165   3.199
 1555SOL    HW2 4801   1.165   4.091   3.115
 1556SOL     OW 4802   0.107   5.281   3.202
 1556SOL    HW1 4803   0.070   5.354   3.144
 1556SOL    HW2 4804   0.206   5.290   3.208
 1557SOL     OW 4805   0.302   4.848   2.327
 1557SOL    HW1 4806   0.293   4.926   2.266
 1557SOL    HW2 4807   0.308   4.764   2.273
 1558SOL     OW 4808   0.545   4.216   2.726
 1558SOL    HW1 4809   0.551   4.279   2.648
 1558SOL    HW2 4810   0.611   4.243   2.796
 1559SOL     OW 4811   1.283   5.091   2.281
 1559SOL    HW1 4812   1.341   5.171   2.300
 1559SOL    HW2 4813   1.188   5.112   2.307
 1560SOL     OW 4814   1.335   5.195   3.020
 1560SOL    HW1 4815   1.376   5.200   3.112
 1560SOL    HW2 4816   1.278   5.113   3.013
 1561SOL     OW 4817   1.581   4.340   2.367
 1561SOL    HW1 4818   1.522   4.397   2.425
 1561SOL    HW2 4819   1.649   4.398   2.322
 1562SOL     OW 4820   0.379   5.270   3.175
 1562SOL    HW1 4821   0.367   5.222   3.088
 1562SOL    HW2 4822   0.476   5.292   3.187
 1563SOL     OW 4823   0.472   4.444   3.497
 1563SOL    HW1 4824   0.522   4.481   3.419
 1563SOL    HW2 4825   0.522   4.366   3.535
 1564SOL     OW 4826   1.624   4.517   3.556
 1564SOL    HW1 4827   1.531   4.553   3.548
 1564SOL    HW2 4828   1.679   4.549   3.479
 1565SOL     OW 4829   1.003   3.848   3.620
 1565SOL    HW1 4830   1.061   3.929   3.609
 1565SOL    HW2 4831   1.054   3.766   3.595
 1566SOL     OW 4832   0.499   3.785   3.633
 1566SOL    HW1 4833   0.452   3.735   3.560
 1566SOL    HW2 4834   0.441   3.861   3.663
 1567SOL     OW 4835   0.603   4.581   2.910
 1567SOL    HW1 4836   0.637   4.675   2.902
 1567SOL    HW2 4837   0.540   4.575   2.988
 1568SOL     OW 4838   1.283   4.567   2.852
 1568SOL    HW1 4839   1.191   4.535   2.830
 1568SOL    HW2 4840   1.349   4.494   2.832
 1569SOL     OW 4841   1.203   4.243   2.119
 1569SOL    HW1 4842   1.222   4.164   2.178
 1569SOL    HW2 4843   1.158   4.315   2.173
 1570SOL     OW 4844   0.248   3.922   3.110
 1570SOL    HW1 4845   0.241   3.959   3.202
 1570SOL    HW2 4846   0.256   3.822   3.114
 1571SOL     OW 4847   0.067   5.022   3.140
 1571SOL    HW1 4848   0.108   4.966   3.212
 1571SOL    HW2 4849   0.081   5.118   3.161
 1572SOL     OW 4850   0.722   4.328   2.908
 1572SOL    HW1 4851   0.795   4.310   2.842
 1572SOL    HW2 4852   0.688   4.421   2.895
 1573SOL     OW 4853   1.758   4.693   3.725
 1573SOL    HW1 4854   1.713   4.622   3.672
 1573SOL    HW2 4855   1.702   4.717   3.804
 1574SOL     OW 4856   0.330   3.773   2.496
 1574SOL    HW1 4857   0.285   3.862   2.509
 1574SOL    HW2 4858   0.344   3.730   2.585
 1575SOL     OW 4859   1.616   4.120   2.201
 1575SOL    HW1 4860   1.670   4.054   2.252
 1575SOL    HW2 4861   1.585   4.193   2.262
 1576SOL     OW 4862   1.020   4.473   2.805
 1576SOL    HW1 4863   0.997   4.491   2.900
 1576SOL    HW2 4864   0.993   4.380   2.781
 1577SOL     OW 4865   1.009   5.300   3.652
 1577SOL    HW1 4866   1.033   5.365   3.580
 1577SOL    HW2 4867   1.016   5.207   3.617
 1578SOL     OW 4868   1.807   5.219   3.443
 1578SOL    HW1 4869   1.848   5.247   3.356
 1578SOL    HW2 4870   1.877   5.223   3.515
 1579SOL     OW 4871   0.398   4.646   3.668
 1579SOL    HW1 4872   0.470   4.662   3.735
 1579SOL    HW2 4873   0.426   4.571   3.607
 1580SOL     OW 4874   1.508   3.991   1.979
 1580SOL    HW1 4875   1.461   3.910   2.014
 1580SOL    HW2 4876   1.546   4.043   2.055
 1581SOL     OW 4877   1.271   4.556   1.870
 1581SOL    HW1 4878   1.303   4.462   1.882
 1581SOL    HW2 4879   1.304   4.592   1.783
 1582SOL     OW 4880   1.068   5.076   2.725
 1582SOL    HW1 4881   1.079   4.996   2.666
 1582SOL    HW2 4882   1.122   5.152   2.689
 1583SOL     OW 4883   0.345   4.500   2.811
 1583SOL    HW1 4884   0.444   4.517   2.811
 1583SOL    HW2 4885   0.327   4.405   2.837
 1584SOL     OW 4886   0.314   4.224   2.866
 1584SOL    HW1 4887   0.256   4.144   2.853
 1584SOL    HW2 4888   0.396   4.215   2.809
 1585SOL     OW 4889   1.136   4.081   3.560
 1585SOL    HW1 4890   1.087   4.130   3.633
 1585SOL    HW2 4891   1.222   4.128   3.541
 1586SOL     OW 4892   1.161   3.907   3.345
 1586SOL    HW1 4893   1.144   3.970   3.422
 1586SOL    HW2 4894   1.206   3.956   3.271
 1587SOL     OW 4895   5.501   4.985   2.051
 1587SOL    HW1 4896   5.403   4.995   2.065
 1587SOL    HW2 4897   0.011   4.891   2.067
 1588SOL     OW 4898   0.140   5.510   2.773
 1588SOL    HW1 4899   0.098   5.440   2.715
 1588SOL    HW2 4900   0.239   5.508   2.761
 1589SOL     OW 4901   0.540   5.273   2.788
 1589SOL    HW1 4902   0.623   5.280   2.844
 1589SOL    HW2 4903   0.558   5.214   2.710
 1590SOL     OW 4904   0.927   4.508   3.059
 1590SOL    HW1 4905   0.984   4.484   3.138
 1590SOL    HW2 4906   0.846   4.449   3.057
 1591SOL     OW 4907   5.452   4.370   3.013
 1591SOL    HW1 4908   5.510   4.338   2.938
 1591SOL    HW2 4909   5.488   4.336   3.100
 1592SOL     OW 4910   0.207   4.266   3.625
 1592SOL    HW1 4911   0.282   4.218   3.579
 1592SOL    HW2 4912   0.172   4.338   3.565
 1593SOL     OW 4913   1.385   4.642   3.496
 1593SOL    HW1 4914   1.407   4.739   3.493
 1593SOL    HW2 4915   1.376   4.607   3.403
 1594SOL     OW 4916   0.819   4.294   2.222
 1594SOL    HW1 4917   0.826   4.210   2.169
 1594SOL    HW2 4918   0.741   4.347   2.190
 1595SOL     OW 4919   1.638   4.335   3.001
 1595SOL    HW1 4920   1.614   4.265   3.068
 1595SOL    HW2 4921   1.737   4.337   2.989
 1596SOL     OW 4922   0.348   5.299   3.668
 1596SOL    HW1 4923   0.262   5.349   3.671
 1596SOL    HW2 4924   0.330   5.201   3.666
 1597SOL     OW 4925   0.734   4.123   3.092
 1597SOL    HW1 4926   0.664   4.052   3.083
 1597SOL    HW2 4927   0.717   4.195   3.025
 1598SOL     OW 4928   0.445   4.208   2.030
 1598SOL    HW1 4929   0.522   4.270   2.048
 1598SOL    HW2 4930   0.359   4.259   2.039
 1599SOL     OW 4931   0.167   4.880   3.357
 1599SOL    HW1 4932   0.181   4.853   3.452
 1599SOL    HW2 4933   0.184   4.801   3.298
 1600SOL     OW 4934   1.271   4.747   3.058
 1600SOL    HW1 4935   1.280   4.679   2.985
 1600SOL    HW2 4936   1.235   4.832   3.019
 1601SOL     OW 4937   1.345   4.601   2.133
 1601SOL    HW1 4938   1.284   4.559   2.199
 1601SOL    HW2 4939   1.313   4.581   2.040
 1602SOL     OW 4940   1.817   5.437   3.026
 1602SOL    HW1 4941   1.840   5.489   2.944
 1602SOL    HW2 4942   1.762   5.357   3.001
 1603SOL     OW 4943   1.298   5.462   2.951
 1603SOL    HW1 4944   1.369   5.472   2.882
 1603SOL    HW2 4945   1.300   5.368   2.987
 1604SOL     OW 4946   0.154   4.951   2.886
 1604SOL    HW1 4947   0.116   4.973   2.976
 1604SOL    HW2 4948   0.082   4.915   2.827
 1605SOL     OW 4949   0.712   5.422   3.574
 1605SOL    HW1 4950   0.625   5.471   3.580
 1605SOL    HW2 4951   0.785   5.486   3.552
 1606SOL     OW 4952   1.783   3.942   2.324
 1606SOL    HW1 4953   1.842   3.916   2.247
 1606SOL    HW2 4954   1.736   3.861   2.359
 1607SOL     OW 4955   1.437   5.320   2.338
 1607SOL    HW1 4956   1.503   5.338   2.265
 1607SOL    HW2 4957   1.389   5.405   2.360
 1608SOL     OW 4958   0.132   5.453   3.722
 1608SOL    HW1 4959   0.068   5.380   3.746
 1608SOL    HW2 4960   0.177   5.486   3.805
 1609SOL     OW 4961   1.284   4.673   2.502
 1609SOL    HW1 4962   1.355   4.607   2.526
 1609SOL    HW2 4963   1.327   4.754   2.460
 1610SOL     OW 4964   0.783   4.981   3.266
 1610SOL    HW1 4965   0.763   5.042   3.343
 1610SOL    HW2 4966   0.707   4.982   3.201
 1611SOL     OW 4967   0.727   5.362   1.987
 1611SOL    HW1 4968   0.731   5.364   1.887
 1611SOL    HW2 4969   0.644   5.314   2.016
 1612SOL     OW 4970   1.822   3.894   2.826
 1612SOL    HW1 4971   1.853   3.802   2.806
 1612SOL    HW2 4972   1.734   3.910   2.783
 1613SOL     OW 4973   0.229   4.020   2.570
 1613SOL    HW1 4974   0.151   4.074   2.538
 1613SOL    HW2 4975   0.223   4.007   2.669
 1614SOL     OW 4976   1.228   5.270   1.940
 1614SOL    HW1 4977   1.232   5.176   1.976
 1614SOL    HW2 4978   1.147   5.280   1.883
 1615SOL     OW 4979   0.823   4.711   3.251
 1615SOL    HW1 4980   0.868   4.687   3.165
 1615SOL    HW2 4981   0.813   4.811   3.257
 1616SOL     OW 4982   0.934   4.614   2.099
 1616SOL    HW1 4983   0.998   4.677   2.056
 1616SOL    HW2 4984   0.983   4.551   2.158
 1617SOL     OW 4985   1.486   5.355   1.886
 1617SOL    HW1 4986   1.393   5.319   1.896
 1617SOL    HW2 4987   1.511   5.358   1.790
 1618SOL     OW 4988   0.385   5.052   3.350
 1618SOL    HW1 4989   0.377   5.132   3.290
 1618SOL    HW2 4990   0.304   4.995   3.341
 1619SOL     OW 4991   1.596   5.023   3.143
 1619SOL    HW1 4992   1.663   4.989   3.209
 1619SOL    HW2 4993   1.532   5.084   3.190
 1620SOL     OW 4994   1.084   4.838   2.600
 1620SOL    HW1 4995   1.005   4.786   2.633
 1620SOL    HW2 4996   1.149   4.775   2.558
 1621SOL     OW 4997   1.034   3.964   2.807
 1621SOL    HW1 4998   1.033   3.924   2.715
 1621SOL    HW2 4999   1.029   3.890   2.875
 1622SOL     OW 5000   0.640   5.232   2.358
 1622SOL    HW1 5001   0.678   5.170   2.290
 1622SOL    HW2 5002   0.602   5.313   2.312
 1623SOL     OW 5003   1.777   4.062   3.280
 1623SOL    HW1 5004   1.841   4.137   3.269
 1623SOL    HW2 5005   1.794   3.992   3.210
 1624SOL     OW 5006   0.234   5.066   2.143
 1624SOL    HW1 5007   0.141   5.043   2.114
 1624SOL    HW2 5008   0.229   5.124   2.225
 1625SOL     OW 5009   0.183   4.802   3.623
 1625SOL    HW1 5010   0.103   4.760   3.666
 1625SOL    HW2 5011   0.263   4.745   3.639
 1626SOL     OW 5012   0.699   3.928   3.356
 1626SOL    HW1 5013   0.781   3.897   3.310
 1626SOL    HW2 5014   0.721   3.956   3.449
 1627SOL     OW 5015   0.074   4.051   1.896
 1627SOL    HW1 5016   5.493   4.040   1.881
 1627SOL    HW2 5017   0.106   4.135   1.852
 1628SOL     OW 5018   1.395   4.569   3.232
 1628SOL    HW1 5019   1.334   4.626   3.177
 1628SOL    HW2 5020   1.488   4.575   3.196
 1629SOL     OW 5021   0.062   3.866   2.109
 1629SOL    HW1 5022   0.060   3.939   2.041
 1629SOL    HW2 5023   0.138   3.803   2.089
 1630SOL     OW 5024   1.235   5.005   2.017
 1630SOL    HW1 5025   1.185   4.919   2.009
 1630SOL    HW2 5026   1.253   5.024   2.114
 1631SOL     OW 5027   0.642   4.514   3.292
 1631SOL    HW1 5028   0.700   4.595   3.283
 1631SOL    HW2 5029   0.700   4.432   3.296
 1632SOL     OW 5030   1.509   5.487   2.780
 1632SOL    HW1 5031   1.538   0.065   2.773
 1632SOL    HW2 5032   1.586   5.427   2.759
 1633SOL     OW 5033   0.716   4.263   3.566
 1633SOL    HW1 5034   0.771   4.325   3.622
 1633SOL    HW2 5035   0.738   4.169   3.590
 1634SOL     OW 5036   1.465   4.903   3.473
 1634SOL    HW1 5037   1.459   4.921   3.571
 1634SOL    HW2 5038   1.558   4.923   3.441
 1635SOL     OW 5039   1.638   4.599   3.105
 1635SOL    HW1 5040   1.643   4.512   3.055
 1635SOL    HW2 5041   1.624   4.674   3.041
 1636SOL     OW 5042   1.230   4.045   2.313
 1636SOL    HW1 5043   1.294   3.968   2.317
 1636SOL    HW2 5044   1.244   4.104   2.393
 1637SOL     OW 5045   0.571   4.432   2.549
 1637SOL    HW1 5046   0.623   4.517   2.538
 1637SOL    HW2 5047   0.514   4.418   2.468
 1638SOL     OW 5048   1.724   4.065   3.550
 1638SOL    HW1 5049   1.745   4.066   3.452
 1638SOL    HW2 5050   1.644   4.007   3.567
 1639SOL     OW 5051   1.755   4.637   3.350
 1639SOL    HW1 5052   1.747   4.735   3.371
 1639SOL    HW2 5053   1.720   4.620   3.258
 1640SOL     OW 5054   0.844   5.084   1.956
 1640SOL    HW1 5055   0.822   5.073   2.053
 1640SOL    HW2 5056   0.857   5.180   1.935
 1641SOL     OW 5057   0.874   4.698   2.718
 1641SOL    HW1 5058   0.921   4.618   2.752
 1641SOL    HW2 5059   0.824   4.743   2.792
 1642SOL     OW 5060   1.113   4.766   1.951
 1642SOL    HW1 5061   1.055   4.793   1.874
 1642SOL    HW2 5062   1.173   4.691   1.923
 1643SOL     OW 5063   1.754   5.355   2.714
 1643SOL    HW1 5064   1.713   5.310   2.635
 1643SOL    HW2 5065   1.762   5.290   2.789
 1644SOL     OW 5066   0.297   5.033   3.734
 1644SOL    HW1 5067   0.248   4.955   3.696
 1644SOL    HW2 5068   0.281   5.037   3.833
 1645SOL     OW 5069   0.139   4.972   2.529
 1645SOL    HW1 5070   0.090   4.916   2.596
 1645SOL    HW2 5071   0.194   4.914   2.470
 1646SOL     OW 5072   0.707   5.177   3.449
 1646SOL    HW1 5073   0.644   5.119   3.500
 1646SOL    HW2 5074   0.719   5.264   3.497
 1647SOL     OW 5075   1.806   3.866   3.099
 1647SOL    HW1 5076   1.810   3.766   3.106
 1647SOL    HW2 5077   1.815   3.893   3.003
 1648SOL     OW 5078   0.400   4.130   2.373
 1648SOL    HW1 5079   0.446   4.062   2.316
 1648SOL    HW2 5080   0.351   4.083   2.447
 1649SOL     OW 5081   1.683   5.205   2.939
 1649SOL    HW1 5082   1.604   5.187   2.879
 1649SOL    HW2 5083   1.683   5.139   3.014
 1650SOL     OW 5084   0.326   4.271   3.137
 1650SOL    HW1 5085   0.383   4.208   3.191
 1650SOL    HW2 5086   0.329   4.244   3.041
 1651SOL     OW 5087   0.863   5.322   2.496
 1651SOL    HW1 5088   0.859   5.418   2.469
 1651SOL    HW2 5089   0.779   5.275   2.468
 1652SOL     OW 5090   1.421   3.969   2.965
 1652SOL    HW1 5091   1.441   3.872   2.977
 1652SOL    HW2 5092   1.370   4.003   3.044
 1653SOL     OW 5093   1.014   3.740   2.977
 1653SOL    HW1 5094   0.958   3.674   2.927
 1653SOL    HW2 5095   1.107   3.704   2.987
 1654SOL     OW 5096   0.792   5.039   2.222
 1654SOL    HW1 5097   0.773   4.941   2.234
 1654SOL    HW2 5098   0.879   5.062   2.266
 1655SOL     OW 5099   0.658   5.266   3.188
 1655SOL    HW1 5100   0.678   5.246   3.284
 1655SOL    HW2 5101   0.742   5.288   3.140
 1656SOL     OW 5102   1.389   3.755   2.055
 1656SOL    HW1 5103   1.439   3.683   2.006
 1656SOL    HW2 5104   1.294   3.725   2.069
 1657SOL     OW 5105   1.256   4.208   2.529
 1657SOL    HW1 5106   1.209   4.296   2.528
 1657SOL    HW2 5107   1.271   4.179   2.624
 1658SOL     OW 5108   1.571   3.934   2.734
 1658SOL    HW1 5109   1.516   3.961   2.812
 1658SOL    HW2 5110   1.577   4.010   2.669
 1659SOL     OW 5111   0.049   4.725   2.108
 1659SOL    HW1 5112   0.148   4.713   2.099
 1659SOL    HW2 5113   0.011   4.650   2.164
 1660SOL     OW 5114   0.225   4.382   3.878
 1660SOL    HW1 5115   0.135   4.359   3.915
 1660SOL    HW2 5116   0.228   4.357   3.781
 1661SOL     OW 5117   0.187   3.979   4.702
 1661SOL    HW1 5118   0.234   3.955   4.787
 1661SOL    HW2 5119   0.108   3.919   4.690
 1662SOL     OW 5120   5.516   4.148   4.333
 1662SOL    HW1 5121   5.440   4.211   4.313
 1662SOL    HW2 5122   5.497   4.059   4.291
 1663SOL     OW 5123   0.586   5.049   4.942
 1663SOL    HW1 5124   0.501   5.049   4.889
 1663SOL    HW2 5125   0.607   5.141   4.972
 1664SOL     OW 5126   1.602   5.223   4.403
 1664SOL    HW1 5127   1.548   5.192   4.482
 1664SOL    HW2 5128   1.540   5.251   4.330
 1665SOL     OW 5129   1.134   4.449   4.400
 1665SOL    HW1 5130   1.188   4.531   4.383
 1665SOL    HW2 5131   1.085   4.459   4.487
 1666SOL     OW 5132   1.794   4.290   3.931
 1666SOL    HW1 5133   1.752   4.298   3.841
 1666SOL    HW2 5134   1.744   4.222   3.985
 1667SOL     OW 5135   0.724   4.864   4.772
 1667SOL    HW1 5136   0.666   4.900   4.845
 1667SOL    HW2 5137   0.763   4.939   4.720
 1668SOL     OW 5138   0.848   4.461   0.026
 1668SOL    HW1 5139   0.866   4.507   0.113
 1668SOL    HW2 5140   0.885   4.515   5.468
 1669SOL     OW 5141   0.699   4.687   4.375
 1669SOL    HW1 5142   0.768   4.697   4.447
 1669SOL    HW2 5143   0.625   4.752   4.391
 1670SOL     OW 5144   0.364   5.124   4.798
 1670SOL    HW1 5145   0.290   5.070   4.757
 1670SOL    HW2 5146   0.408   5.179   4.727
 1671SOL     OW 5147   1.475   5.231   5.083
 1671SOL    HW1 5148   1.548   5.284   5.126
 1671SOL    HW2 5149   1.391   5.241   5.137
 1672SOL     OW 5150   0.493   4.104   5.151
 1672SOL    HW1 5151   0.570   4.042   5.167
 1672SOL    HW2 5152   0.409   4.062   5.185
 1673SOL     OW 5153   1.592   4.174   4.475
 1673SOL    HW1 5154   1.542   4.193   4.390
 1673SOL    HW2 5155   1.563   4.239   4.545
 1674SOL     OW 5156   0.187   5.184   4.251
 1674SOL    HW1 5157   0.159   5.263   4.307
 1674SOL    HW2 5158   0.168   5.100   4.301
 1675SOL     OW 5159   0.344   4.788   4.625
 1675SOL    HW1 5160   0.338   4.695   4.662
 1675SOL    HW2 5161   0.282   4.848   4.675
 1676SOL     OW 5162   0.584   4.705   3.885
 1676SOL    HW1 5163   0.630   4.757   3.813
 1676SOL    HW2 5164   0.624   4.728   3.973
 1677SOL     OW 5165   1.724   3.808   5.230
 1677SOL    HW1 5166   1.752   3.847   5.142
 1677SOL    HW2 5167   1.702   3.882   5.293
 1678SOL     OW 5168   0.142   4.405   4.295
 1678SOL    HW1 5169   0.119   4.310   4.314
 1678SOL    HW2 5170   0.147   4.456   4.380
 1679SOL     OW 5171   5.485   5.243   3.786
 1679SOL    HW1 5172   5.506   5.149   3.811
 1679SOL    HW2 5173   5.435   5.287   3.861
 1680SOL     OW 5174   1.707   4.650   4.386
 1680SOL    HW1 5175   1.799   4.612   4.392
 1680SOL    HW2 5176   1.698   4.701   4.300
 1681SOL     OW 5177   1.681   4.832   4.167
 1681SOL    HW1 5178   1.763   4.809   4.114
 1681SOL    HW2 5179   1.704   4.898   4.239
 1682SOL     OW 5180   0.171   4.447   5.345
 1682SOL    HW1 5181   0.267   4.475   5.332
 1682SOL    HW2 5182   0.111   4.525   5.326
 1683SOL     OW 5183   0.617   5.099   4.455
 1683SOL    HW1 5184   0.573   5.010   4.443
 1683SOL    HW2 5185   0.617   5.148   4.368
 1684SOL     OW 5186   1.224   4.924   5.174
 1684SOL    HW1 5187   1.246   4.862   5.098
 1684SOL    HW2 5188   1.262   4.887   5.259
 1685SOL     OW 5189   0.837   3.745   4.229
 1685SOL    HW1 5190   0.883   3.829   4.201
 1685SOL    HW2 5191   0.738   3.761   4.232
 1686SOL     OW 5192   0.192   4.681   5.032
 1686SOL    HW1 5193   0.275   4.631   5.005
 1686SOL    HW2 5194   0.112   4.634   4.995
 1687SOL     OW 5195   1.560   4.749   3.929
 1687SOL    HW1 5196   1.484   4.687   3.952
 1687SOL    HW2 5197   1.602   4.783   4.013
 1688SOL     OW 5198   1.094   5.402   5.347
 1688SOL    HW1 5199   1.102   5.496   5.316
 1688SOL    HW2 5200   1.144   5.341   5.285
 1689SOL     OW 5201   0.360   3.947   0.040
 1689SOL    HW1 5202   0.402   4.031   0.073
 1689SOL    HW2 5203   0.266   3.965   0.011
 1690SOL     OW 5204   1.495   5.135   4.645
 1690SOL    HW1 5205   1.429   5.168   4.712
 1690SOL    HW2 5206   1.471   5.041   4.619
 1691SOL     OW 5207   0.597   4.428   3.991
 1691SOL    HW1 5208   0.601   4.519   3.949
 1691SOL    HW2 5209   0.530   4.429   4.065
 1692SOL     OW 5210   1.284   4.128   4.665
 1692SOL    HW1 5211   1.192   4.088   4.655
 1692SOL    HW2 5212   1.337   4.073   4.730
 1693SOL     OW 5213   1.626   5.401   3.989
 1693SOL    HW1 5214   1.653   5.497   3.998
 1693SOL    HW2 5215   1.579   5.387   3.902
 1694SOL     OW 5216   0.785   4.304   5.169
 1694SOL    HW1 5217   0.731   4.287   5.251
 1694SOL    HW2 5218   0.767   4.232   5.102
 1695SOL     OW 5219   0.956   4.608   5.333
 1695SOL    HW1 5220   0.999   4.538   5.276
 1695SOL    HW2 5221   0.905   4.672   5.276
 1696SOL     OW 5222   1.024   4.100   4.918
 1696SOL    HW1 5223   0.928   4.112   4.944
 1696SOL    HW2 5224   1.029   4.062   4.826
 1697SOL     OW 5225   1.058   4.425   4.131
 1697SOL    HW1 5226   1.082   4.431   4.228
 1697SOL    HW2 5227   0.971   4.377   4.121
 1698SOL     OW 5228   0.124   4.570   4.518
 1698SOL    HW1 5229   0.206   4.541   4.567
 1698SOL    HW2 5230   0.090   4.655   4.557
 1699SOL     OW 5231   0.162   0.056   5.285
 1699SOL    HW1 5232   0.193   5.484   5.318
 1699SOL    HW2 5233   0.062   0.056   5.277
 1700SOL     OW 5234   0.858   4.067   3.930
 1700SOL    HW1 5235   0.917   4.110   3.862
 1700SOL    HW2 5236   0.803   3.996   3.886
 1701SOL     OW 5237   1.422   4.892   4.280
 1701SOL    HW1 5238   1.508   4.874   4.232
 1701SOL    HW2 5239   1.370   4.962   4.231
 1702SOL     OW 5240   0.583   3.878   4.650
 1702SOL    HW1 5241   0.584   3.895   4.748
 1702SOL    HW2 5242   0.580   3.965   4.601
 1703SOL     OW 5243   1.019   5.185   4.184
 1703SOL    HW1 5244   1.012   5.253   4.111
 1703SOL    HW2 5245   0.978   5.221   4.268
 1704SOL     OW 5246   0.403   5.511   4.601
 1704SOL    HW1 5247   0.458   5.430   4.619
 1704SOL    HW2 5248   0.458   0.076   4.621
 1705SOL     OW 5249   1.800   4.778   4.623
 1705SOL    HW1 5250   1.757   4.771   4.533
 1705SOL    HW2 5251   1.728   4.784   4.693
 1706SOL     OW 5252   1.219   5.211   5.191
 1706SOL    HW1 5253   1.245   5.118   5.218
 1706SOL    HW2 5254   1.145   5.207   5.124
 1707SOL     OW 5255   0.315   4.643   3.975
 1707SOL    HW1 5256   0.404   4.670   3.938
 1707SOL    HW2 5257   0.293   4.550   3.946
 1708SOL     OW 5258   1.488   4.498   4.441
 1708SOL    HW1 5259   1.487   4.451   4.529
 1708SOL    HW2 5260   1.571   4.554   4.434
 1709SOL     OW 5261   0.475   4.989   5.447
 1709SOL    HW1 5262   0.412   5.026   5.379
 1709SOL    HW2 5263   0.458   4.891   5.458
 1710SOL     OW 5264   1.131   5.506   3.913
 1710SOL    HW1 5265   1.039   0.008   3.878
 1710SOL    HW2 5266   1.160   5.415   3.883
 1711SOL     OW 5267   0.240   4.006   5.199
 1711SOL    HW1 5268   0.172   4.079   5.207
 1711SOL    HW2 5269   0.211   3.928   5.255
 1712SOL     OW 5270   1.655   5.100   3.802
 1712SOL    HW1 5271   1.622   5.193   3.784
 1712SOL    HW2 5272   1.584   5.034   3.778
 1713SOL     OW 5273   1.400   3.826   4.181
 1713SOL    HW1 5274   1.399   3.802   4.084
 1713SOL    HW2 5275   1.488   3.800   4.221
 1714SOL     OW 5276   0.410   4.396   4.194
 1714SOL    HW1 5277   0.416   4.297   4.205
 1714SOL    HW2 5278   0.317   4.426   4.212
 1715SOL     OW 5279   0.680   3.845   3.833
 1715SOL    HW1 5280   0.746   3.772   3.848
 1715SOL    HW2 5281   0.609   3.813   3.770
 1716SOL     OW 5282   0.768   4.060   5.448
 1716SOL    HW1 5283   0.850   4.103   5.485
 1716SOL    HW2 5284   0.732   3.995   5.515
 1717SOL     OW 5285   0.887   5.264   4.886
 1717SOL    HW1 5286   0.857   5.214   4.805
 1717SOL    HW2 5287   0.935   5.201   4.948
 1718SOL     OW 5288   1.292   4.310   5.205
 1718SOL    HW1 5289   1.322   4.299   5.299
 1718SOL    HW2 5290   1.328   4.395   5.168
 1719SOL     OW 5291   0.812   5.109   4.659
 1719SOL    HW1 5292   0.907   5.105   4.628
 1719SOL    HW2 5293   0.751   5.109   4.579
 1720SOL     OW 5294   0.925   4.234   4.600
 1720SOL    HW1 5295   0.903   4.227   4.503
 1720SOL    HW2 5296   0.957   4.146   4.634
 1721SOL     OW 5297   0.568   3.789   4.211
 1721SOL    HW1 5298   0.487   3.782   4.270
 1721SOL    HW2 5299   0.558   3.869   4.151
 1722SOL     OW 5300   1.451   4.925   3.749
 1722SOL    HW1 5301   1.493   4.853   3.804
 1722SOL    HW2 5302   1.367   4.956   3.794
 1723SOL     OW 5303   0.277   3.735   3.869
 1723SOL    HW1 5304   0.315   3.820   3.832
 1723SOL    HW2 5305   0.349   3.686   3.920
 1724SOL     OW 5306   0.968   3.975   4.166
 1724SOL    HW1 5307   0.932   4.009   4.079
 1724SOL    HW2 5308   1.066   3.994   4.170
 1725SOL     OW 5309   1.037   4.417   5.157
 1725SOL    HW1 5310   0.958   4.357   5.166
 1725SOL    HW2 5311   1.121   4.364   5.170
 1726SOL     OW 5312   1.195   5.330   4.520
 1726SOL    HW1 5313   1.141   5.410   4.493
 1726SOL    HW2 5314   1.281   5.360   4.560
 1727SOL     OW 5315   0.487   4.860   4.406
 1727SOL    HW1 5316   0.435   4.835   4.488
 1727SOL    HW2 5317   0.428   4.855   4.326
 1728SOL     OW 5318   1.024   4.218   3.770
 1728SOL    HW1 5319   0.981   4.305   3.748
 1728SOL    HW2 5320   1.095   4.232   3.840
 1729SOL     OW 5321   0.100   4.262   5.155
 1729SOL    HW1 5322   0.182   4.261   5.097
 1729SOL    HW2 5323   0.113   4.328   5.229
 1730SOL     OW 5324   0.574   3.911   4.919
 1730SOL    HW1 5325   0.600   3.834   4.977
 1730SOL    HW2 5326   0.476   3.928   4.928
 1731SOL     OW 5327   0.880   4.181   4.337
 1731SOL    HW1 5328   0.840   4.240   4.266
 1731SOL    HW2 5329   0.913   4.097   4.295
 1732SOL     OW 5330   1.015   3.779   4.449
 1732SOL    HW1 5331   0.953   3.776   4.370
 1732SOL    HW2 5332   0.990   3.706   4.513
 1733SOL     OW 5333   1.423   4.881   4.569
 1733SOL    HW1 5334   1.337   4.833   4.586
 1733SOL    HW2 5335   1.439   4.886   4.471
 1734SOL     OW 5336   1.467   4.345   4.676
 1734SOL    HW1 5337   1.397   4.273   4.682
 1734SOL    HW2 5338   1.530   4.336   4.753
 1735SOL     OW 5339   1.806   4.500   4.104
 1735SOL    HW1 5340   1.871   4.467   4.173
 1735SOL    HW2 5341   1.800   4.433   4.030
 1736SOL     OW 5342   0.480   5.252   3.909
 1736SOL    HW1 5343   0.423   5.188   3.960
 1736SOL    HW2 5344   0.436   5.272   3.821
 1737SOL     OW 5345   1.754   4.992   4.365
 1737SOL    HW1 5346   1.851   4.996   4.388
 1737SOL    HW2 5347   1.712   5.082   4.381
 1738SOL     OW 5348   1.383   4.311   3.776
 1738SOL    HW1 5349   1.336   4.275   3.857
 1738SOL    HW2 5350   1.482   4.296   3.785
 1739SOL     OW 5351   0.534   3.986   4.027
 1739SOL    HW1 5352   0.588   3.935   3.960
 1739SOL    HW2 5353   0.500   4.070   3.985
 1740SOL     OW 5354   1.748   4.958   5.222
 1740SOL    HW1 5355   1.842   4.925   5.223
 1740SOL    HW2 5356   1.742   5.045   5.271
 1741SOL     OW 5357   1.012   5.067   5.057
 1741SOL    HW1 5358   0.921   5.045   5.092
 1741SOL    HW2 5359   1.080   5.011   5.105
 1742SOL     OW 5360   1.157   4.988   4.837
 1742SOL    HW1 5361   1.089   5.014   4.905
 1742SOL    HW2 5362   1.126   5.016   4.746
 1743SOL     OW 5363   1.588   4.809   4.792
 1743SOL    HW1 5364   1.585   4.878   4.864
 1743SOL    HW2 5365   1.523   4.833   4.720
 1744SOL     OW 5366   0.947   3.800   5.096
 1744SOL    HW1 5367   0.971   3.792   5.000
 1744SOL    HW2 5368   1.023   3.840   5.147
 1745SOL     OW 5369   0.739   4.760   4.108
 1745SOL    HW1 5370   0.727   4.727   4.202
 1745SOL    HW2 5371   0.811   4.706   4.064
 1746SOL     OW 5372   0.423   4.532   4.979
 1746SOL    HW1 5373   0.502   4.541   5.039
 1746SOL    HW2 5374   0.385   4.440   4.987
 1747SOL     OW 5375   1.261   4.082   5.048
 1747SOL    HW1 5376   1.282   4.166   5.100
 1747SOL    HW2 5377   1.174   4.093   5.000
 1748SOL     OW 5378   0.081   5.291   5.066
 1748SOL    HW1 5379   0.047   5.362   5.004
 1748SOL    HW2 5380   0.181   5.296   5.070
 1749SOL     OW 5381   0.311   4.841   4.184
 1749SOL    HW1 5382   0.300   4.922   4.126
 1749SOL    HW2 5383   0.315   4.759   4.127
 1750SOL     OW 5384   0.537   4.230   4.599
 1750SOL    HW1 5385   0.544   4.291   4.521
 1750SOL    HW2 5386   0.607   4.254   4.667
 1751SOL     OW 5387   1.280   5.095   4.143
 1751SOL    HW1 5388   1.340   5.174   4.159
 1751SOL    HW2 5389   1.187   5.118   4.171
 1752SOL     OW 5390   1.329   5.203   4.853
 1752SOL    HW1 5391   1.386   5.207   4.935
 1752SOL    HW2 5392   1.274   5.120   4.855
 1753SOL     OW 5393   1.584   4.351   4.220
 1753SOL    HW1 5394   1.532   4.400   4.290
 1753SOL    HW2 5395   1.650   4.413   4.178
 1754SOL     OW 5396   0.354   5.254   5.035
 1754SOL    HW1 5397   0.346   5.207   4.947
 1754SOL    HW2 5398   0.447   5.290   5.045
 1755SOL     OW 5399   0.453   4.488   5.336
 1755SOL    HW1 5400   0.505   4.519   5.257
 1755SOL    HW2 5401   0.498   4.409   5.377
 1756SOL     OW 5402   1.517   4.575   5.353
 1756SOL    HW1 5403   1.449   4.564   5.280
 1756SOL    HW2 5404   1.601   4.614   5.314
 1757SOL     OW 5405   0.610   4.588   4.771
 1757SOL    HW1 5406   0.637   4.684   4.764
 1757SOL    HW2 5407   0.535   4.580   4.838
 1758SOL     OW 5408   1.287   4.565   4.748
 1758SOL    HW1 5409   1.198   4.536   4.712
 1758SOL    HW2 5410   1.356   4.497   4.723
 1759SOL     OW 5411   1.204   4.244   3.982
 1759SOL    HW1 5412   1.224   4.166   4.041
 1759SOL    HW2 5413   1.160   4.315   4.035
 1760SOL     OW 5414   0.300   3.915   4.945
 1760SOL    HW1 5415   0.275   3.954   5.034
 1760SOL    HW2 5416   0.282   3.817   4.946
 1761SOL     OW 5417   0.056   5.036   4.978
 1761SOL    HW1 5418   0.078   4.971   5.051
 1761SOL    HW2 5419   0.062   5.129   5.014
 1762SOL     OW 5420   0.725   4.337   4.770
 1762SOL    HW1 5421   0.797   4.319   4.703
 1762SOL    HW2 5422   0.691   4.430   4.758
 1763SOL     OW 5423   1.677   4.577   0.066
 1763SOL    HW1 5424   1.625   4.573   5.497
 1763SOL    HW2 5425   1.634   4.642   0.128
 1764SOL     OW 5426   0.330   3.777   4.349
 1764SOL    HW1 5427   0.284   3.865   4.362
 1764SOL    HW2 5428   0.347   3.735   4.438
 1765SOL     OW 5429   1.617   4.124   4.065
 1765SOL    HW1 5430   1.665   4.056   4.120
 1765SOL    HW2 5431   1.590   4.201   4.123
 1766SOL     OW 5432   1.026   4.479   4.671
 1766SOL    HW1 5433   1.000   4.499   4.766
 1766SOL    HW2 5434   0.997   4.386   4.648
 1767SOL     OW 5435   0.865   5.309   5.479
 1767SOL    HW1 5436   0.942   5.343   5.425
 1767SOL    HW2 5437   0.804   5.256   5.420
 1768SOL     OW 5438   1.784   5.216   5.324
 1768SOL    HW1 5439   1.839   5.251   5.249
 1768SOL    HW2 5440   1.829   5.236   5.411
 1769SOL     OW 5441   0.420   4.714   5.487
 1769SOL    HW1 5442   0.467   4.698   0.056
 1769SOL    HW2 5443   0.430   4.633   5.428
 1770SOL     OW 5444   1.507   3.991   3.844
 1770SOL    HW1 5445   1.463   3.909   3.881
 1770SOL    HW2 5446   1.546   4.044   3.920
 1771SOL     OW 5447   1.273   4.557   3.731
 1771SOL    HW1 5448   1.306   4.463   3.743
 1771SOL    HW2 5449   1.306   4.592   3.644
 1772SOL     OW 5450   1.077   5.088   4.595
 1772SOL    HW1 5451   1.095   5.009   4.537
 1772SOL    HW2 5452   1.122   5.169   4.557
 1773SOL     OW 5453   0.341   4.502   4.663
 1773SOL    HW1 5454   0.439   4.509   4.642
 1773SOL    HW2 5455   0.321   4.411   4.699
 1774SOL     OW 5456   0.303   4.227   4.732
 1774SOL    HW1 5457   0.251   4.143   4.719
 1774SOL    HW2 5458   0.388   4.223   4.680
 1775SOL     OW 5459   1.160   3.909   5.239
 1775SOL    HW1 5460   1.163   3.962   5.323
 1775SOL    HW2 5461   1.207   3.959   5.166
 1776SOL     OW 5462   5.505   4.986   3.916
 1776SOL    HW1 5463   5.407   4.996   3.935
 1776SOL    HW2 5464   0.014   4.890   3.930
 1777SOL     OW 5465   0.134   5.510   4.632
 1777SOL    HW1 5466   0.095   5.439   4.573
 1777SOL    HW2 5467   0.234   5.509   4.624
 1778SOL     OW 5468   0.542   5.278   4.647
 1778SOL    HW1 5469   0.623   5.283   4.706
 1778SOL    HW2 5470   0.561   5.218   4.570
 1779SOL     OW 5471   0.929   4.520   4.923
 1779SOL    HW1 5472   0.981   4.494   5.005
 1779SOL    HW2 5473   0.843   4.468   4.921
 1780SOL     OW 5474   5.497   4.344   4.903
 1780SOL    HW1 5475   0.041   4.305   4.835
 1780SOL    HW2 5476   0.003   4.307   4.993
 1781SOL     OW 5477   0.821   4.296   4.086
 1781SOL    HW1 5478   0.828   4.212   4.032
 1781SOL    HW2 5479   0.742   4.349   4.054
 1782SOL     OW 5480   1.653   4.327   4.883
 1782SOL    HW1 5481   1.643   4.267   4.963
 1782SOL    HW2 5482   1.750   4.340   4.863
 1783SOL     OW 5483   0.268   5.330   5.377
 1783SOL    HW1 5484   0.222   5.321   5.465
 1783SOL    HW2 5485   0.274   5.240   5.334
 1784SOL     OW 5486   0.752   4.133   4.954
 1784SOL    HW1 5487   0.686   4.058   4.947
 1784SOL    HW2 5488   0.729   4.203   4.887
 1785SOL     OW 5489   0.446   4.210   3.892
 1785SOL    HW1 5490   0.522   4.272   3.911
 1785SOL    HW2 5491   0.360   4.260   3.900
 1786SOL     OW 5492   0.140   4.876   5.208
 1786SOL    HW1 5493   0.148   4.840   5.301
 1786SOL    HW2 5494   0.165   4.805   5.143
 1787SOL     OW 5495   1.255   4.754   4.947
 1787SOL    HW1 5496   1.273   4.683   4.879
 1787SOL    HW2 5497   1.224   4.837   4.901
 1788SOL     OW 5498   1.341   4.600   3.996
 1788SOL    HW1 5499   1.280   4.555   4.061
 1788SOL    HW2 5500   1.310   4.581   3.902
 1789SOL     OW 5501   1.825   5.445   4.896
 1789SOL    HW1 5502   1.846   5.500   4.815
 1789SOL    HW2 5503   1.781   5.359   4.868
 1790SOL     OW 5504   1.293   5.472   4.809
 1790SOL    HW1 5505   1.365   5.489   4.741
 1790SOL    HW2 5506   1.293   5.375   4.834
 1791SOL     OW 5507   0.153   4.959   4.733
 1791SOL    HW1 5508   0.116   4.984   4.822
 1791SOL    HW2 5509   0.082   4.916   4.678
 1792SOL     OW 5510   1.771   3.935   4.193
 1792SOL    HW1 5511   1.825   3.914   4.111
 1792SOL    HW2 5512   1.728   3.852   4.227
 1793SOL     OW 5513   1.447   5.321   4.189
 1793SOL    HW1 5514   1.517   5.332   4.119
 1793SOL    HW2 5515   1.406   5.410   4.210
 1794SOL     OW 5516   1.291   4.668   4.366
 1794SOL    HW1 5517   1.363   4.605   4.393
 1794SOL    HW2 5518   1.331   4.748   4.321
 1795SOL     OW 5519   0.763   5.005   5.145
 1795SOL    HW1 5520   0.734   5.060   5.223
 1795SOL    HW2 5521   0.694   5.010   5.073
 1796SOL     OW 5522   0.729   5.357   3.848
 1796SOL    HW1 5523   0.732   5.362   3.748
 1796SOL    HW2 5524   0.645   5.311   3.877
 1797SOL     OW 5525   1.833   3.872   4.734
 1797SOL    HW1 5526   1.868   3.784   4.702
 1797SOL    HW2 5527   1.749   3.894   4.684
 1798SOL     OW 5528   0.229   4.022   4.425
 1798SOL    HW1 5529   0.147   4.072   4.396
 1798SOL    HW2 5530   0.226   4.010   4.525
 1799SOL     OW 5531   1.231   5.271   3.803
 1799SOL    HW1 5532   1.232   5.178   3.840
 1799SOL    HW2 5533   1.151   5.283   3.744
 1800SOL     OW 5534   0.828   4.739   5.126
 1800SOL    HW1 5535   0.872   4.722   5.038
 1800SOL    HW2 5536   0.806   4.837   5.134
 1801SOL     OW 5537   0.932   4.617   3.969
 1801SOL    HW1 5538   0.996   4.677   3.921
 1801SOL    HW2 5539   0.983   4.553   4.026
 1802SOL     OW 5540   1.488   5.360   3.751
 1802SOL    HW1 5541   1.397   5.321   3.760
 1802SOL    HW2 5542   1.514   5.360   3.654
 1803SOL     OW 5543   0.312   5.087   5.251
 1803SOL    HW1 5544   0.330   5.141   5.168
 1803SOL    HW2 5545   0.246   5.014   5.230
 1804SOL     OW 5546   1.593   4.997   4.994
 1804SOL    HW1 5547   1.654   4.971   5.069
 1804SOL    HW2 5548   1.544   5.081   5.018
 1805SOL     OW 5549   1.105   4.841   4.481
 1805SOL    HW1 5550   1.020   4.796   4.510
 1805SOL    HW2 5551   1.162   4.776   4.431
 1806SOL     OW 5552   1.041   3.972   4.665
 1806SOL    HW1 5553   1.035   3.934   4.572
 1806SOL    HW2 5554   1.040   3.897   4.731
 1807SOL     OW 5555   0.638   5.236   4.219
 1807SOL    HW1 5556   0.674   5.174   4.150
 1807SOL    HW2 5557   0.602   5.319   4.175
 1808SOL     OW 5558   1.735   4.157   5.112
 1808SOL    HW1 5559   1.819   4.208   5.132
 1808SOL    HW2 5560   1.758   4.070   5.068
 1809SOL     OW 5561   0.236   5.067   4.011
 1809SOL    HW1 5562   0.144   5.043   3.980
 1809SOL    HW2 5563   0.230   5.122   4.094
 1810SOL     OW 5564   0.155   4.773   5.462
 1810SOL    HW1 5565   0.110   4.763   0.033
 1810SOL    HW2 5566   0.252   4.753   5.471
 1811SOL     OW 5567   0.717   3.926   5.212
 1811SOL    HW1 5568   0.800   3.891   5.169
 1811SOL    HW2 5569   0.740   3.975   5.295
 1812SOL     OW 5570   0.075   4.052   3.758
 1812SOL    HW1 5571   5.495   4.038   3.740
 1812SOL    HW2 5572   0.105   4.136   3.713
 1813SOL     OW 5573   1.380   4.557   5.112
 1813SOL    HW1 5574   1.315   4.620   5.069
 1813SOL    HW2 5575   1.468   4.563   5.065
 1814SOL     OW 5576   0.064   3.873   3.976
 1814SOL    HW1 5577   0.062   3.946   3.907
 1814SOL    HW2 5578   0.138   3.809   3.955
 1815SOL     OW 5579   1.224   5.006   3.882
 1815SOL    HW1 5580   1.172   4.921   3.874
 1815SOL    HW2 5581   1.243   5.025   3.978
 1816SOL     OW 5582   0.642   4.540   5.139
 1816SOL    HW1 5583   0.704   4.618   5.139
 1816SOL    HW2 5584   0.695   4.455   5.148
 1817SOL     OW 5585   1.500   5.500   4.637
 1817SOL    HW1 5586   1.532   0.077   4.641
 1817SOL    HW2 5587   1.578   5.439   4.617
 1818SOL     OW 5588   0.651   4.309   5.418
 1818SOL    HW1 5589   0.716   4.365   5.471
 1818SOL    HW2 5590   0.670   4.213   5.435
 1819SOL     OW 5591   0.523   5.400   5.282
 1819SOL    HW1 5592   0.545   5.496   5.302
 1819SOL    HW2 5593   0.431   5.379   5.314
 1820SOL     OW 5594   1.611   4.593   4.966
 1820SOL    HW1 5595   1.630   4.504   4.924
 1820SOL    HW2 5596   1.604   4.663   4.895
 1821SOL     OW 5597   1.235   4.048   4.180
 1821SOL    HW1 5598   1.297   3.970   4.180
 1821SOL    HW2 5599   1.255   4.107   4.258
 1822SOL     OW 5600   0.563   4.443   4.421
 1822SOL    HW1 5601   0.620   4.524   4.409
 1822SOL    HW2 5602   0.510   4.426   4.338
 1823SOL     OW 5603   1.693   4.032   5.390
 1823SOL    HW1 5604   1.673   4.099   5.318
 1823SOL    HW2 5605   1.622   4.036   5.460
 1824SOL     OW 5606   1.714   4.682   5.207
 1824SOL    HW1 5607   1.716   4.782   5.211
 1824SOL    HW2 5608   1.689   4.653   5.115
 1825SOL     OW 5609   0.848   5.082   3.822
 1825SOL    HW1 5610   0.824   5.070   3.918
 1825SOL    HW2 5611   0.857   5.180   3.802
 1826SOL     OW 5612   0.881   4.709   4.586
 1826SOL    HW1 5613   0.928   4.627   4.619
 1826SOL    HW2 5614   0.830   4.751   4.661
 1827SOL     OW 5615   1.108   4.762   3.812
 1827SOL    HW1 5616   1.053   4.791   3.734
 1827SOL    HW2 5617   1.170   4.689   3.784
 1828SOL     OW 5618   1.747   5.370   4.580
 1828SOL    HW1 5619   1.712   5.322   4.499
 1828SOL    HW2 5620   1.758   5.305   4.655
 1829SOL     OW 5621   0.138   4.950   4.381
 1829SOL    HW1 5622   0.098   4.893   4.453
 1829SOL    HW2 5623   0.196   4.893   4.323
 1830SOL     OW 5624   0.664   5.169   5.346
 1830SOL    HW1 5625   0.606   5.102   5.393
 1830SOL    HW2 5626   0.611   5.250   5.324
 1831SOL     OW 5627   1.836   3.920   5.005
 1831SOL    HW1 5628   1.931   3.903   5.029
 1831SOL    HW2 5629   1.823   3.904   4.907
 1832SOL     OW 5630   0.405   4.132   4.236
 1832SOL    HW1 5631   0.449   4.064   4.177
 1832SOL    HW2 5632   0.352   4.085   4.307
 1833SOL     OW 5633   1.723   5.203   4.799
 1833SOL    HW1 5634   1.641   5.171   4.752
 1833SOL    HW2 5635   1.757   5.131   4.859
 1834SOL     OW 5636   0.330   4.273   5.004
 1834SOL    HW1 5637   0.397   4.215   5.051
 1834SOL    HW2 5638   0.326   4.246   4.907
 1835SOL     OW 5639   0.858   5.318   4.365
 1835SOL    HW1 5640   0.858   5.413   4.336
 1835SOL    HW2 5641   0.774   5.274   4.333
 1836SOL     OW 5642   1.416   3.972   4.845
 1836SOL    HW1 5643   1.438   3.876   4.859
 1836SOL    HW2 5644   1.371   4.009   4.927
 1837SOL     OW 5645   1.035   3.743   4.826
 1837SOL    HW1 5646   0.969   3.681   4.783
 1837SOL    HW2 5647   1.126   3.702   4.822
 1838SOL     OW 5648   0.790   5.038   4.086
 1838SOL    HW1 5649   0.769   4.941   4.098
 1838SOL    HW2 5650   0.875   5.059   4.133
 1839SOL     OW 5651   0.633   5.304   5.033
 1839SOL    HW1 5652   0.621   5.353   5.120
 1839SOL    HW2 5653   0.723   5.325   4.995
 1840SOL     OW 5654   1.393   3.751   3.917
 1840SOL    HW1 5655   1.443   3.681   3.867
 1840SOL    HW2 5656   1.299   3.720   3.932
 1841SOL     OW 5657   1.283   4.210   4.396
 1841SOL    HW1 5658   1.232   4.295   4.392
 1841SOL    HW2 5659   1.290   4.179   4.491
 1842SOL     OW 5660   1.591   3.939   4.629
 1842SOL    HW1 5661   1.529   3.966   4.702
 1842SOL    HW2 5662   1.594   4.010   4.559
 1843SOL     OW 5663   0.049   4.723   3.970
 1843SOL    HW1 5664   0.148   4.711   3.960
 1843SOL    HW2 5665   0.012   4.650   4.027
 1844SOL     OW 5666   2.021   0.543   0.053
 1844SOL    HW1 5667   1.941   0.577   0.103
 1844SOL    HW2 5668   2.035   0.598   5.488
 1845SOL     OW 5669   2.050   0.257   0.979
 1845SOL    HW1 5670   2.106   0.222   1.054
 1845SOL    HW2 5671   1.975   0.194   0.961
 1846SOL     OW 5672   1.830   0.423   0.634
 1846SOL    HW1 5673   1.748   0.442   0.688
 1846SOL    HW2 5674   1.806   0.368   0.554
 1847SOL     OW 5675   2.441   1.322   1.221
 1847SOL    HW1 5676   2.356   1.316   1.168
 1847SOL    HW2 5677   2.459   1.418   1.245
 1848SOL     OW 5678   3.452   1.521   0.703
 1848SOL    HW1 5679   3.402   1.484   0.781
 1848SOL    HW2 5680   3.388   1.540   0.629
 1849SOL     OW 5681   2.999   0.715   0.675
 1849SOL    HW1 5682   3.050   0.799   0.659
 1849SOL    HW2 5683   2.949   0.723   0.761
 1850SOL     OW 5684   3.652   0.628   0.170
 1850SOL    HW1 5685   3.605   0.704   0.125
 1850SOL    HW2 5686   3.584   0.561   0.203
 1851SOL     OW 5687   2.581   1.132   1.058
 1851SOL    HW1 5688   2.525   1.169   1.132
 1851SOL    HW2 5689   2.620   1.208   1.005
 1852SOL     OW 5690   2.771   0.734   1.812
 1852SOL    HW1 5691   2.797   0.802   1.881
 1852SOL    HW2 5692   2.774   0.776   1.721
 1853SOL     OW 5693   2.553   0.963   0.657
 1853SOL    HW1 5694   2.625   0.965   0.727
 1853SOL    HW2 5695   2.484   1.033   0.678
 1854SOL     OW 5696   2.577   1.178   1.834
 1854SOL    HW1 5697   2.629   1.253   1.874
 1854SOL    HW2 5698   2.494   1.213   1.791
 1855SOL     OW 5699   2.211   1.387   1.070
 1855SOL    HW1 5700   2.138   1.332   1.029
 1855SOL    HW2 5701   2.254   1.443   1.000
 1856SOL     OW 5702   3.307   1.509   1.373
 1856SOL    HW1 5703   3.366   1.590   1.386
 1856SOL    HW2 5704   3.229   1.516   1.435
 1857SOL     OW 5705   2.315   0.403   1.468
 1857SOL    HW1 5706   2.401   0.352   1.480
 1857SOL    HW2 5707   2.238   0.341   1.481
 1858SOL     OW 5708   3.438   0.451   0.760
 1858SOL    HW1 5709   3.366   0.451   0.691
 1858SOL    HW2 5710   3.420   0.523   0.828
 1859SOL     OW 5711   2.094   1.734   0.460
 1859SOL    HW1 5712   2.115   1.810   0.521
 1859SOL    HW2 5713   2.170   1.721   0.396
 1860SOL     OW 5714   2.997   1.329   1.695
 1860SOL    HW1 5715   3.054   1.320   1.777
 1860SOL    HW2 5716   2.937   1.250   1.687
 1861SOL     OW 5717   2.087   1.468   0.523
 1861SOL    HW1 5718   2.076   1.567   0.523
 1861SOL    HW2 5719   2.044   1.429   0.605
 1862SOL     OW 5720   2.203   1.068   0.913
 1862SOL    HW1 5721   2.193   0.970   0.929
 1862SOL    HW2 5722   2.128   1.117   0.958
 1863SOL     OW 5723   2.415   1.836   1.399
 1863SOL    HW1 5724   2.335   1.806   1.451
 1863SOL    HW2 5725   2.462   1.909   1.450
 1864SOL     OW 5726   2.437   0.941   0.205
 1864SOL    HW1 5727   2.498   0.932   0.126
 1864SOL    HW2 5728   2.484   0.990   0.278
 1865SOL     OW 5729   3.501   0.075   1.508
 1865SOL    HW1 5730   3.531   0.116   1.421
 1865SOL    HW2 5731   3.460   0.146   1.565
 1866SOL     OW 5732   1.959   0.670   0.587
 1866SOL    HW1 5733   1.918   0.581   0.607
 1866SOL    HW2 5734   1.959   0.726   0.671
 1867SOL     OW 5735   3.737   1.723   0.288
 1867SOL    HW1 5736   3.811   1.711   0.354
 1867SOL    HW2 5737   3.735   1.818   0.257
 1868SOL     OW 5738   1.925   1.541   0.072
 1868SOL    HW1 5739   1.913   1.450   0.110
 1868SOL    HW2 5740   1.909   1.609   0.143
 1869SOL     OW 5741   3.570   0.932   0.670
 1869SOL    HW1 5742   3.661   0.892   0.669
 1869SOL    HW2 5743   3.556   0.987   0.587
 1870SOL     OW 5744   3.544   1.110   0.451
 1870SOL    HW1 5745   3.627   1.096   0.397
 1870SOL    HW2 5746   3.561   1.181   0.519
 1871SOL     OW 5747   1.988   0.754   1.568
 1871SOL    HW1 5748   2.078   0.797   1.566
 1871SOL    HW2 5749   1.918   0.820   1.543
 1872SOL     OW 5750   2.487   1.396   0.715
 1872SOL    HW1 5751   2.449   1.304   0.723
 1872SOL    HW2 5752   2.473   1.430   0.623
 1873SOL     OW 5753   3.114   1.216   1.418
 1873SOL    HW1 5754   3.134   1.145   1.350
 1873SOL    HW2 5755   3.183   1.213   1.490
 1874SOL     OW 5756   2.671   0.044   0.552
 1874SOL    HW1 5757   2.719   0.122   0.510
 1874SOL    HW2 5758   2.576   0.044   0.523
 1875SOL     OW 5759   2.062   0.945   1.302
 1875SOL    HW1 5760   2.154   0.910   1.286
 1875SOL    HW2 5761   2.001   0.912   1.231
 1876SOL     OW 5762   3.395   1.022   0.234
 1876SOL    HW1 5763   3.319   0.965   0.267
 1876SOL    HW2 5764   3.445   1.059   0.312
 1877SOL     OW 5765   3.030   1.808   1.632
 1877SOL    HW1 5766   3.035   1.881   1.564
 1877SOL    HW2 5767   3.048   1.720   1.588
 1878SOL     OW 5768   2.197   0.289   1.903
 1878SOL    HW1 5769   2.234   0.371   1.946
 1878SOL    HW2 5770   2.098   0.301   1.889
 1879SOL     OW 5771   3.334   1.408   0.922
 1879SOL    HW1 5772   3.271   1.438   0.994
 1879SOL    HW2 5773   3.314   1.314   0.897
 1880SOL     OW 5774   3.495   1.863   0.533
 1880SOL    HW1 5775   3.490   1.797   0.458
 1880SOL    HW2 5776   3.512   1.814   0.619
 1881SOL     OW 5777   2.409   0.669   0.281
 1881SOL    HW1 5778   2.426   0.762   0.247
 1881SOL    HW2 5779   2.342   0.672   0.355
 1882SOL     OW 5780   3.134   0.392   0.937
 1882SOL    HW1 5781   3.038   0.362   0.937
 1882SOL    HW2 5782   3.188   0.330   0.995
 1883SOL     OW 5783   3.467   1.684   0.328
 1883SOL    HW1 5784   3.566   1.680   0.317
 1883SOL    HW2 5785   3.424   1.675   0.238
 1884SOL     OW 5786   2.664   0.598   1.448
 1884SOL    HW1 5787   2.633   0.566   1.537
 1884SOL    HW2 5788   2.639   0.531   1.378
 1885SOL     OW 5789   3.247   0.485   1.665
 1885SOL    HW1 5790   3.252   0.532   1.754
 1885SOL    HW2 5791   3.301   0.402   1.668
 1886SOL     OW 5792   2.807   0.887   1.578
 1886SOL    HW1 5793   2.865   0.823   1.528
 1886SOL    HW2 5794   2.751   0.939   1.513
 1887SOL     OW 5795   2.877   0.401   1.181
 1887SOL    HW1 5796   2.783   0.419   1.211
 1887SOL    HW2 5797   2.877   0.335   1.107
 1888SOL     OW 5798   2.900   0.687   0.414
 1888SOL    HW1 5799   2.927   0.690   0.510
 1888SOL    HW2 5800   2.812   0.639   0.407
 1889SOL     OW 5801   1.956   0.841   0.800
 1889SOL    HW1 5802   2.044   0.824   0.845
 1889SOL    HW2 5803   1.905   0.909   0.852
 1890SOL     OW 5804   1.961   1.895   1.604
 1890SOL    HW1 5805   1.976   1.855   1.694
 1890SOL    HW2 5806   1.864   1.890   1.580
 1891SOL     OW 5807   2.735   0.326   0.220
 1891SOL    HW1 5808   2.774   0.396   0.159
 1891SOL    HW2 5809   2.738   0.237   0.175
 1892SOL     OW 5810   3.530   0.582   1.836
 1892SOL    HW1 5811   3.514   0.665   1.784
 1892SOL    HW2 5812   3.559   0.508   1.774
 1893SOL     OW 5813   3.276   1.169   0.568
 1893SOL    HW1 5814   3.361   1.158   0.517
 1893SOL    HW2 5815   3.217   1.235   0.522
 1894SOL     OW 5816   2.379   0.224   0.947
 1894SOL    HW1 5817   2.414   0.231   1.040
 1894SOL    HW2 5818   2.387   0.313   0.902
 1895SOL     OW 5819   2.859   1.466   0.485
 1895SOL    HW1 5820   2.840   1.537   0.418
 1895SOL    HW2 5821   2.820   1.491   0.573
 1896SOL     OW 5822   2.221   1.801   0.875
 1896SOL    HW1 5823   2.261   1.709   0.879
 1896SOL    HW2 5824   2.290   1.868   0.904
 1897SOL     OW 5825   3.658   1.045   0.911
 1897SOL    HW1 5826   3.613   1.031   0.823
 1897SOL    HW2 5827   3.588   1.060   0.982
 1898SOL     OW 5828   3.063   1.529   1.509
 1898SOL    HW1 5829   3.060   1.456   1.576
 1898SOL    HW2 5830   3.001   1.508   1.434
 1899SOL     OW 5831   2.189   0.935   0.354
 1899SOL    HW1 5832   2.270   0.946   0.298
 1899SOL    HW2 5833   2.189   0.845   0.397
 1900SOL     OW 5834   3.352   0.773   0.717
 1900SOL    HW1 5835   3.347   0.728   0.807
 1900SOL    HW2 5836   3.434   0.831   0.713
 1901SOL     OW 5837   2.323   1.289   1.741
 1901SOL    HW1 5838   2.304   1.292   1.642
 1901SOL    HW2 5839   2.238   1.278   1.791
 1902SOL     OW 5840   2.993   1.787   0.212
 1902SOL    HW1 5841   2.922   1.748   0.271
 1902SOL    HW2 5842   3.033   1.714   0.158
 1903SOL     OW 5843   2.078   0.260   1.476
 1903SOL    HW1 5844   2.015   0.338   1.476
 1903SOL    HW2 5845   2.046   0.191   1.542
 1904SOL     OW 5846   3.493   1.375   0.127
 1904SOL    HW1 5847   3.457   1.468   0.121
 1904SOL    HW2 5848   3.426   1.311   0.090
 1905SOL     OW 5849   2.345   1.727   0.312
 1905SOL    HW1 5850   2.384   1.793   0.376
 1905SOL    HW2 5851   2.417   1.690   0.254
 1906SOL     OW 5852   3.308   0.139   0.420
 1906SOL    HW1 5853   3.301   0.120   0.323
 1906SOL    HW2 5854   3.402   0.167   0.442
 1907SOL     OW 5855   2.082   1.788   1.211
 1907SOL    HW1 5856   2.137   1.710   1.241
 1907SOL    HW2 5857   2.052   1.773   1.117
 1908SOL     OW 5858   2.811   1.698   0.894
 1908SOL    HW1 5859   2.903   1.659   0.900
 1908SOL    HW2 5860   2.761   1.653   0.820
 1909SOL     OW 5861   2.214   0.678   0.482
 1909SOL    HW1 5862   2.243   0.583   0.495
 1909SOL    HW2 5863   2.120   0.688   0.515
 1910SOL     OW 5864   3.364   0.232   1.706
 1910SOL    HW1 5865   3.376   0.255   1.803
 1910SOL    HW2 5866   3.289   0.167   1.697
 1911SOL     OW 5867   2.441   0.121   0.085
 1911SOL    HW1 5868   2.461   0.024   0.098
 1911SOL    HW2 5869   2.343   0.134   0.077
 1912SOL     OW 5870   2.613   0.265   1.760
 1912SOL    HW1 5871   2.703   0.222   1.756
 1912SOL    HW2 5872   2.557   0.221   1.830
 1913SOL     OW 5873   2.710   1.516   1.178
 1913SOL    HW1 5874   2.692   1.468   1.092
 1913SOL    HW2 5875   2.782   1.468   1.229
 1914SOL     OW 5876   3.173   0.600   1.429
 1914SOL    HW1 5877   3.208   0.568   1.517
 1914SOL    HW2 5878   3.209   0.692   1.411
 1915SOL     OW 5879   2.669   1.366   0.938
 1915SOL    HW1 5880   2.764   1.369   0.905
 1915SOL    HW2 5881   2.607   1.381   0.861
 1916SOL     OW 5882   2.781   0.511   0.878
 1916SOL    HW1 5883   2.762   0.500   0.780
 1916SOL    HW2 5884   2.795   0.421   0.920
 1917SOL     OW 5885   2.403   0.033   0.469
 1917SOL    HW1 5886   2.323   0.025   0.528
 1917SOL    HW2 5887   2.397   0.118   0.417
 1918SOL     OW 5888   3.289   1.207   0.051
 1918SOL    HW1 5889   3.321   1.132   0.108
 1918SOL    HW2 5890   3.204   1.245   0.089
 1919SOL     OW 5891   2.094   5.491   0.239
 1919SOL    HW1 5892   2.137   0.047   0.186
 1919SOL    HW2 5893   2.154   5.465   0.315
 1920SOL     OW 5894   2.832   0.253   0.462
 1920SOL    HW1 5895   2.796   0.281   0.373
 1920SOL    HW2 5896   2.931   0.268   0.464
 1921SOL     OW 5897   2.917   0.704   1.410
 1921SOL    HW1 5898   2.841   0.643   1.428
 1921SOL    HW2 5899   3.003   0.653   1.415
 1922SOL     OW 5900   3.067   1.604   0.813
 1922SOL    HW1 5901   3.085   1.660   0.732
 1922SOL    HW2 5902   3.131   1.630   0.885
 1923SOL     OW 5903   2.362   1.153   0.713
 1923SOL    HW1 5904   2.311   1.123   0.793
 1923SOL    HW2 5905   2.300   1.159   0.635
 1924SOL     OW 5906   3.106   1.800   0.611
 1924SOL    HW1 5907   3.154   1.865   0.552
 1924SOL    HW2 5908   3.027   1.845   0.653
 1925SOL     OW 5909   2.849   0.509   0.060
 1925SOL    HW1 5910   2.807   0.598   0.046
 1925SOL    HW2 5911   2.931   0.519   0.116
 1926SOL     OW 5912   1.983   0.541   1.396
 1926SOL    HW1 5913   2.074   0.544   1.356
 1926SOL    HW2 5914   1.973   0.615   1.463
 1927SOL     OW 5915   2.426   0.243   1.223
 1927SOL    HW1 5916   2.466   0.224   1.313
 1927SOL    HW2 5917   2.330   0.215   1.222
 1928SOL     OW 5918   2.736   0.463   0.617
 1928SOL    HW1 5919   2.685   0.512   0.546
 1928SOL    HW2 5920   2.773   0.378   0.579
 1929SOL     OW 5921   2.851   0.045   0.767
 1929SOL    HW1 5922   2.787   0.068   0.693
 1929SOL    HW2 5923   2.858   5.463   0.775
 1930SOL     OW 5924   3.288   1.145   0.857
 1930SOL    HW1 5925   3.215   1.079   0.874
 1930SOL    HW2 5926   3.299   1.156   0.758
 1931SOL     OW 5927   3.317   0.621   0.957
 1931SOL    HW1 5928   3.248   0.549   0.962
 1931SOL    HW2 5929   3.378   0.614   1.036
 1932SOL     OW 5930   3.680   0.790   0.388
 1932SOL    HW1 5931   3.736   0.747   0.458
 1932SOL    HW2 5932   3.678   0.732   0.306
 1933SOL     OW 5933   2.367   1.405   0.155
 1933SOL    HW1 5934   2.286   1.389   0.212
 1933SOL    HW2 5935   2.361   1.348   0.073
 1934SOL     OW 5936   3.593   1.286   0.644
 1934SOL    HW1 5937   3.689   1.289   0.673
 1934SOL    HW2 5938   3.550   1.375   0.663
 1935SOL     OW 5939   3.201   0.532   0.024
 1935SOL    HW1 5940   3.145   0.525   0.107
 1935SOL    HW2 5941   3.274   0.464   0.028
 1936SOL     OW 5942   2.392   0.267   0.321
 1936SOL    HW1 5943   2.441   0.217   0.249
 1936SOL    HW2 5944   2.339   0.341   0.280
 1937SOL     OW 5945   3.604   1.235   1.527
 1937SOL    HW1 5946   3.695   1.198   1.508
 1937SOL    HW2 5947   3.613   1.326   1.568
 1938SOL     OW 5948   2.889   1.357   1.340
 1938SOL    HW1 5949   2.803   1.327   1.380
 1938SOL    HW2 5950   2.964   1.305   1.380
 1939SOL     OW 5951   3.483   1.645   1.667
 1939SOL    HW1 5952   3.464   1.684   1.577
 1939SOL    HW2 5953   3.561   1.583   1.661
 1940SOL     OW 5954   3.010   1.264   1.108
 1940SOL    HW1 5955   2.949   1.294   1.181
 1940SOL    HW2 5956   2.973   1.293   1.020
 1941SOL     OW 5957   3.454   1.093   1.088
 1941SOL    HW1 5958   3.449   1.163   1.159
 1941SOL    HW2 5959   3.387   1.113   1.016
 1942SOL     OW 5960   2.771   0.136   1.371
 1942SOL    HW1 5961   2.794   0.086   1.288
 1942SOL    HW2 5962   2.854   0.165   1.417
 1943SOL     OW 5963   2.827   1.114   1.729
 1943SOL    HW1 5964   2.733   1.135   1.756
 1943SOL    HW2 5965   2.827   1.032   1.671
 1944SOL     OW 5966   2.606   1.044   0.396
 1944SOL    HW1 5967   2.592   1.013   0.489
 1944SOL    HW2 5968   2.680   0.992   0.353
 1945SOL     OW 5969   2.304   0.821   1.260
 1945SOL    HW1 5970   2.374   0.829   1.331
 1945SOL    HW2 5971   2.269   0.727   1.258
 1946SOL     OW 5972   3.122   0.373   1.290
 1946SOL    HW1 5973   3.151   0.456   1.337
 1946SOL    HW2 5974   3.033   0.388   1.248
 1947SOL     OW 5975   1.926   1.552   1.344
 1947SOL    HW1 5976   1.886   1.627   1.291
 1947SOL    HW2 5977   2.025   1.558   1.340
 1948SOL     OW 5978   2.175   1.160   0.513
 1948SOL    HW1 5979   2.170   1.234   0.446
 1948SOL    HW2 5980   2.176   1.072   0.465
 1949SOL     OW 5981   2.390   0.504   0.869
 1949SOL    HW1 5982   2.393   0.558   0.786
 1949SOL    HW2 5983   2.459   0.538   0.933
 1950SOL     OW 5984   3.117   1.367   0.446
 1950SOL    HW1 5985   3.176   1.445   0.467
 1950SOL    HW2 5986   3.022   1.391   0.467
 1951SOL     OW 5987   3.179   1.479   1.135
 1951SOL    HW1 5988   3.227   1.485   1.223
 1951SOL    HW2 5989   3.121   1.397   1.135
 1952SOL     OW 5990   3.451   0.648   0.482
 1952SOL    HW1 5991   3.397   0.686   0.557
 1952SOL    HW2 5992   3.517   0.717   0.451
 1953SOL     OW 5993   2.200   1.539   1.293
 1953SOL    HW1 5994   2.194   1.480   1.213
 1953SOL    HW2 5995   2.295   1.565   1.309
 1954SOL     OW 5996   2.296   0.762   1.626
 1954SOL    HW1 5997   2.362   0.802   1.562
 1954SOL    HW2 5998   2.324   0.668   1.648
 1955SOL     OW 5999   3.485   0.809   1.698
 1955SOL    HW1 6000   3.392   0.843   1.685
 1955SOL    HW2 6001   3.542   0.837   1.620
 1956SOL     OW 6002   2.854   0.144   1.759
 1956SOL    HW1 6003   2.912   0.224   1.748
 1956SOL    HW2 6004   2.896   0.065   1.714
 1957SOL     OW 6005   2.323   0.089   1.768
 1957SOL    HW1 6006   2.264   0.031   1.712
 1957SOL    HW2 6007   2.270   0.166   1.802
 1958SOL     OW 6008   2.452   0.876   1.033
 1958SOL    HW1 6009   2.489   0.969   1.030
 1958SOL    HW2 6010   2.395   0.866   1.114
 1959SOL     OW 6011   3.149   0.850   0.996
 1959SOL    HW1 6012   3.057   0.819   0.972
 1959SOL    HW2 6013   3.214   0.775   0.984
 1960SOL     OW 6014   3.049   0.516   0.256
 1960SOL    HW1 6015   3.075   0.439   0.315
 1960SOL    HW2 6016   3.002   0.585   0.311
 1961SOL     OW 6017   2.162   0.164   1.229
 1961SOL    HW1 6018   2.127   0.199   1.316
 1961SOL    HW2 6019   2.150   0.065   1.225
 1962SOL     OW 6020   1.934   1.291   1.254
 1962SOL    HW1 6021   1.958   1.234   1.332
 1962SOL    HW2 6022   1.920   1.386   1.284
 1963SOL     OW 6023   2.575   0.630   1.028
 1963SOL    HW1 6024   2.649   0.612   0.964
 1963SOL    HW2 6025   2.541   0.723   1.015
 1964SOL     OW 6026   3.616   0.983   1.870
 1964SOL    HW1 6027   3.571   0.912   1.815
 1964SOL    HW2 6028   3.556   1.008   1.946
 1965SOL     OW 6029   2.168   0.037   0.621
 1965SOL    HW1 6030   2.128   0.129   0.624
 1965SOL    HW2 6031   2.197   0.010   0.713
 1966SOL     OW 6032   3.489   0.440   0.310
 1966SOL    HW1 6033   3.522   0.363   0.363
 1966SOL    HW2 6034   3.462   0.514   0.371
 1967SOL     OW 6035   2.889   0.752   0.945
 1967SOL    HW1 6036   2.862   0.775   1.039
 1967SOL    HW2 6037   2.859   0.659   0.924
 1968SOL     OW 6038   2.849   1.554   1.747
 1968SOL    HW1 6039   2.815   1.614   1.674
 1968SOL    HW2 6040   2.895   1.475   1.706
 1969SOL     OW 6041   3.700   1.488   1.597
 1969SOL    HW1 6042   3.720   1.514   1.502
 1969SOL    HW2 6043   3.783   1.500   1.652
 1970SOL     OW 6044   2.235   0.927   1.842
 1970SOL    HW1 6045   2.319   0.951   1.890
 1970SOL    HW2 6046   2.256   0.867   1.765
 1971SOL     OW 6047   3.389   0.337   0.076
 1971SOL    HW1 6048   3.346   0.249   0.097
 1971SOL    HW2 6049   3.427   0.377   0.159
 1972SOL     OW 6050   3.199   0.803   0.034
 1972SOL    HW1 6051   3.200   0.704   0.029
 1972SOL    HW2 6052   3.268   0.841   5.490
 1973SOL     OW 6053   2.930   1.365   0.864
 1973SOL    HW1 6054   2.949   1.282   0.811
 1973SOL    HW2 6055   2.986   1.441   0.829
 1974SOL     OW 6056   2.190   0.790   0.938
 1974SOL    HW1 6057   2.289   0.803   0.937
 1974SOL    HW2 6058   2.170   0.695   0.962
 1975SOL     OW 6059   2.151   0.509   0.994
 1975SOL    HW1 6060   2.104   0.421   0.986
 1975SOL    HW2 6061   2.236   0.506   0.942
 1976SOL     OW 6062   3.002   0.369   1.701
 1976SOL    HW1 6063   2.953   0.418   1.774
 1976SOL    HW2 6064   3.088   0.415   1.682
 1977SOL     OW 6065   3.017   0.204   1.482
 1977SOL    HW1 6066   3.005   0.265   1.560
 1977SOL    HW2 6067   3.063   0.253   1.408
 1978SOL     OW 6068   1.883   1.290   0.188
 1978SOL    HW1 6069   1.788   1.315   0.168
 1978SOL    HW2 6070   1.887   1.196   0.222
 1979SOL     OW 6071   1.964   1.762   0.959
 1979SOL    HW1 6072   1.919   1.687   0.910
 1979SOL    HW2 6073   2.054   1.778   0.919
 1980SOL     OW 6074   2.349   1.554   0.898
 1980SOL    HW1 6075   2.420   1.614   0.933
 1980SOL    HW2 6076   2.387   1.495   0.827
 1981SOL     OW 6077   2.785   0.804   1.191
 1981SOL    HW1 6078   2.843   0.780   1.268
 1981SOL    HW2 6079   2.700   0.752   1.196
 1982SOL     OW 6080   1.907   0.588   1.128
 1982SOL    HW1 6081   1.985   0.569   1.067
 1982SOL    HW2 6082   1.936   0.575   1.223
 1983SOL     OW 6083   2.054   0.578   1.772
 1983SOL    HW1 6084   2.130   0.530   1.730
 1983SOL    HW2 6085   2.016   0.645   1.707
 1984SOL     OW 6086   3.245   0.928   1.637
 1984SOL    HW1 6087   3.266   1.025   1.636
 1984SOL    HW2 6088   3.235   0.895   1.543
 1985SOL     OW 6089   2.656   0.558   0.364
 1985SOL    HW1 6090   2.670   0.471   0.316
 1985SOL    HW2 6091   2.569   0.598   0.336
 1986SOL     OW 6092   3.501   0.602   1.164
 1986SOL    HW1 6093   3.490   0.547   1.247
 1986SOL    HW2 6094   3.596   0.599   1.135
 1987SOL     OW 6095   2.086   1.538   1.704
 1987SOL    HW1 6096   2.069   1.613   1.767
 1987SOL    HW2 6097   2.092   1.452   1.755
 1988SOL     OW 6098   2.609   0.449   1.226
 1988SOL    HW1 6099   2.544   0.373   1.221
 1988SOL    HW2 6100   2.589   0.515   1.154
 1989SOL     OW 6101   2.721   1.700   1.537
 1989SOL    HW1 6102   2.679   1.637   1.471
 1989SOL    HW2 6103   2.750   1.783   1.489
 1990SOL     OW 6104   2.257   0.455   0.169
 1990SOL    HW1 6105   2.319   0.531   0.192
 1990SOL    HW2 6106   2.173   0.492   0.130
 1991SOL     OW 6107   1.999   1.137   1.481
 1991SOL    HW1 6108   2.004   1.102   1.575
 1991SOL    HW2 6109   2.023   1.064   1.417
 1992SOL     OW 6110   3.134   1.036   1.198
 1992SOL    HW1 6111   3.143   0.967   1.125
 1992SOL    HW2 6112   3.090   1.117   1.161
 1993SOL     OW 6113   3.189   0.861   0.305
 1993SOL    HW1 6114   3.112   0.818   0.353
 1993SOL    HW2 6115   3.186   0.834   0.208
 1994SOL     OW 6116   3.620   1.705   1.154
 1994SOL    HW1 6117   3.692   1.736   1.091
 1994SOL    HW2 6118   3.593   1.612   1.130
 1995SOL     OW 6119   3.131   1.744   1.084
 1995SOL    HW1 6120   3.222   1.785   1.077
 1995SOL    HW2 6121   3.139   1.648   1.111
 1996SOL     OW 6122   1.990   1.216   0.999
 1996SOL    HW1 6123   1.967   1.246   1.092
 1996SOL    HW2 6124   1.916   1.159   0.964
 1997SOL     OW 6125   2.551   1.687   1.756
 1997SOL    HW1 6126   2.476   1.753   1.749
 1997SOL    HW2 6127   2.620   1.707   1.687
 1998SOL     OW 6128   2.792   0.103   0.066
 1998SOL    HW1 6129   2.738   0.022   0.043
 1998SOL    HW2 6130   2.878   0.074   0.107
 1999SOL     OW 6131   3.585   0.217   0.458
 1999SOL    HW1 6132   3.633   0.180   0.378
 1999SOL    HW2 6133   3.601   0.157   0.537
 2000SOL     OW 6134   3.270   1.592   0.506
 2000SOL    HW1 6135   3.334   1.624   0.436
 2000SOL    HW2 6136   3.209   1.667   0.533
 2001SOL     OW 6137   2.010   1.769   1.843
 2001SOL    HW1 6138   1.957   1.698   1.889
 2001SOL    HW2 6139   2.063   1.820   1.910
 2002SOL     OW 6140   3.149   0.942   0.653
 2002SOL    HW1 6141   3.222   0.878   0.675
 2002SOL    HW2 6142   3.186   1.022   0.606
 2003SOL     OW 6143   2.634   1.289   1.420
 2003SOL    HW1 6144   2.606   1.338   1.503
 2003SOL    HW2 6145   2.561   1.296   1.352
 2004SOL     OW 6146   2.551   1.609   0.163
 2004SOL    HW1 6147   2.608   1.607   0.081
 2004SOL    HW2 6148   2.488   1.532   0.162
 2005SOL     OW 6149   3.470   1.733   1.396
 2005SOL    HW1 6150   3.525   1.726   1.312
 2005SOL    HW2 6151   3.460   1.829   1.421
 2006SOL     OW 6152   3.698   0.089   0.943
 2006SOL    HW1 6153   3.685   0.004   0.891
 2006SOL    HW2 6154   3.618   0.147   0.931
 2007SOL     OW 6155   2.078   0.298   0.694
 2007SOL    HW1 6156   1.993   0.348   0.676
 2007SOL    HW2 6157   2.086   0.280   0.792
 2008SOL     OW 6158   3.103   1.588   0.058
 2008SOL    HW1 6159   3.090   1.494   0.090
 2008SOL    HW2 6160   3.049   1.602   5.492
 2009SOL     OW 6161   2.674   1.021   1.382
 2009SOL    HW1 6162   2.712   1.004   1.291
 2009SOL    HW2 6163   2.662   1.119   1.396
 2010SOL     OW 6164   2.790   0.890   0.262
 2010SOL    HW1 6165   2.856   0.925   0.196
 2010SOL    HW2 6166   2.835   0.823   0.321
 2011SOL     OW 6167   3.362   1.663   0.075
 2011SOL    HW1 6168   3.267   1.631   0.068
 2011SOL    HW2 6169   3.407   1.655   5.504
 2012SOL     OW 6170   2.224   1.312   1.489
 2012SOL    HW1 6171   2.216   1.389   1.426
 2012SOL    HW2 6172   2.145   1.252   1.478
 2013SOL     OW 6173   3.460   1.291   1.289
 2013SOL    HW1 6174   3.516   1.261   1.366
 2013SOL    HW2 6175   3.396   1.362   1.320
 2014SOL     OW 6176   2.957   1.116   0.759
 2014SOL    HW1 6177   2.874   1.068   0.788
 2014SOL    HW2 6178   3.019   1.051   0.714
 2015SOL     OW 6179   2.884   0.220   0.977
 2015SOL    HW1 6180   2.874   0.175   0.888
 2015SOL    HW2 6181   2.878   0.151   1.049
 2016SOL     OW 6182   2.472   1.492   0.465
 2016SOL    HW1 6183   2.528   1.432   0.407
 2016SOL    HW2 6184   2.401   1.535   0.409
 2017SOL     OW 6185   3.599   0.419   1.389
 2017SOL    HW1 6186   3.688   0.465   1.385
 2017SOL    HW2 6187   3.606   0.329   1.344
 2018SOL     OW 6188   2.136   1.342   0.295
 2018SOL    HW1 6189   2.050   1.325   0.246
 2018SOL    HW2 6190   2.118   1.399   0.375
 2019SOL     OW 6191   1.999   1.041   1.740
 2019SOL    HW1 6192   1.915   1.015   1.788
 2019SOL    HW2 6193   2.077   0.992   1.780
 2020SOL     OW 6194   2.543   0.239   1.484
 2020SOL    HW1 6195   2.625   0.202   1.441
 2020SOL    HW2 6196   2.559   0.251   1.582
 2021SOL     OW 6197   1.917   0.285   0.038
 2021SOL    HW1 6198   1.843   0.285   5.488
 2021SOL    HW2 6199   1.955   0.377   0.046
 2022SOL     OW 6200   3.257   0.858   1.373
 2022SOL    HW1 6201   3.198   0.917   1.317
 2022SOL    HW2 6202   3.350   0.861   1.338
 2023SOL     OW 6203   1.853   0.107   0.246
 2023SOL    HW1 6204   1.864   0.172   0.171
 2023SOL    HW2 6205   1.936   0.051   0.254
 2024SOL     OW 6206   3.074   1.337   0.169
 2024SOL    HW1 6207   2.976   1.339   0.153
 2024SOL    HW2 6208   3.092   1.335   0.267
 2025SOL     OW 6209   2.500   0.822   1.447
 2025SOL    HW1 6210   2.556   0.903   1.430
 2025SOL    HW2 6211   2.558   0.741   1.453
 2026SOL     OW 6212   3.386   1.843   1.059
 2026SOL    HW1 6213   3.413   1.899   0.980
 2026SOL    HW2 6214   3.467   1.798   1.097
 2027SOL     OW 6215   2.589   0.538   1.702
 2027SOL    HW1 6216   2.645   0.597   1.759
 2027SOL    HW2 6217   2.598   0.443   1.732
 2028SOL     OW 6218   3.327   1.189   1.619
 2028SOL    HW1 6219   3.316   1.210   1.716
 2028SOL    HW2 6220   3.421   1.208   1.591
 2029SOL     OW 6221   2.199   1.752   1.556
 2029SOL    HW1 6222   2.115   1.807   1.552
 2029SOL    HW2 6223   2.177   1.660   1.589
 2030SOL     OW 6224   3.503   0.872   1.252
 2030SOL    HW1 6225   3.506   0.783   1.206
 2030SOL    HW2 6226   3.490   0.945   1.185
 2031SOL     OW 6227   3.102   0.322   0.455
 2031SOL    HW1 6228   3.173   0.252   0.445
 2031SOL    HW2 6229   3.123   0.379   0.534
 2032SOL     OW 6230   2.410   0.718   0.688
 2032SOL    HW1 6231   2.466   0.800   0.676
 2032SOL    HW2 6232   2.341   0.713   0.616
 2033SOL     OW 6233   3.594   0.375   1.663
 2033SOL    HW1 6234   3.595   0.399   1.565
 2033SOL    HW2 6235   3.516   0.316   1.682
 2034SOL     OW 6236   3.626   0.920   1.493
 2034SOL    HW1 6237   3.615   1.017   1.513
 2034SOL    HW2 6238   3.589   0.900   1.403
 2035SOL     OW 6239   2.811   1.387   0.124
 2035SOL    HW1 6240   2.741   1.363   0.191
 2035SOL    HW2 6241   2.771   1.447   0.055
 2036SOL     OW 6242   2.536   1.739   0.956
 2036SOL    HW1 6243   2.511   1.835   0.944
 2036SOL    HW2 6244   2.635   1.730   0.950
 2037SOL     OW 6245   2.738   0.978   0.865
 2037SOL    HW1 6246   2.789   0.898   0.896
 2037SOL    HW2 6247   2.690   1.019   0.943
 2038SOL     OW 6248   2.959   0.937   0.056
 2038SOL    HW1 6249   2.915   0.934   5.484
 2038SOL    HW2 6250   3.052   0.900   0.049
 2039SOL     OW 6251   3.678   1.563   0.854
 2039SOL    HW1 6252   3.606   1.556   0.785
 2039SOL    HW2 6253   3.656   1.504   0.931
 2040SOL     OW 6254   2.066   1.288   1.836
 2040SOL    HW1 6255   2.042   1.203   1.789
 2040SOL    HW2 6256   2.002   1.303   1.912
 2041SOL     OW 6257   2.001   1.275   0.709
 2041SOL    HW1 6258   2.018   1.249   0.804
 2041SOL    HW2 6259   2.061   1.224   0.648
 2042SOL     OW 6260   2.542   1.432   1.637
 2042SOL    HW1 6261   2.459   1.388   1.672
 2042SOL    HW2 6262   2.552   1.522   1.680
 2043SOL     OW 6263   3.610   0.174   1.260
 2043SOL    HW1 6264   3.637   0.078   1.248
 2043SOL    HW2 6265   3.600   0.217   1.170
 2044SOL     OW 6266   2.274   0.421   0.530
 2044SOL    HW1 6267   2.327   0.356   0.477
 2044SOL    HW2 6268   2.213   0.371   0.593
 2045SOL     OW 6269   3.554   1.453   1.079
 2045SOL    HW1 6270   3.476   1.437   1.018
 2045SOL    HW2 6271   3.549   1.389   1.155
 2046SOL     OW 6272   2.221   0.562   1.266
 2046SOL    HW1 6273   2.272   0.502   1.328
 2046SOL    HW2 6274   2.218   0.520   1.175
 2047SOL     OW 6275   2.688   1.592   0.678
 2047SOL    HW1 6276   2.659   1.661   0.613
 2047SOL    HW2 6277   2.616   1.524   0.689
 2048SOL     OW 6278   3.261   0.220   1.112
 2048SOL    HW1 6279   3.229   0.126   1.120
 2048SOL    HW2 6280   3.223   0.275   1.187
 2049SOL     OW 6281   2.881   5.513   1.151
 2049SOL    HW1 6282   2.829   5.427   1.152
 2049SOL    HW2 6283   2.977   5.494   1.130
 2050SOL     OW 6284   2.657   1.317   0.349
 2050SOL    HW1 6285   2.636   1.221   0.364
 2050SOL    HW2 6286   2.736   1.344   0.404
 2051SOL     OW 6287   2.473   1.592   1.290
 2051SOL    HW1 6288   2.463   1.686   1.322
 2051SOL    HW2 6289   2.561   1.582   1.243
 2052SOL     OW 6290   3.275   0.096   0.149
 2052SOL    HW1 6291   3.323   0.016   0.113
 2052SOL    HW2 6292   3.177   0.077   0.155
 2053SOL     OW 6293   3.158   0.479   0.675
 2053SOL    HW1 6294   3.106   0.564   0.666
 2053SOL    HW2 6295   3.148   0.443   0.768
 2054SOL     OW 6296   3.467   0.232   0.930
 2054SOL    HW1 6297   3.396   0.241   1.001
 2054SOL    HW2 6298   3.459   0.308   0.866
 2055SOL     OW 6299   1.914   1.034   0.307
 2055SOL    HW1 6300   2.013   1.023   0.313
 2055SOL    HW2 6301   1.869   0.947   0.325
 2056SOL     OW 6302   2.766   1.686   0.339
 2056SOL    HW1 6303   2.689   1.657   0.282
 2056SOL    HW2 6304   2.734   1.756   0.403
 2057SOL     OW 6305   2.050   0.651   2.038
 2057SOL    HW1 6306   1.957   0.634   2.070
 2057SOL    HW2 6307   2.053   0.639   1.939
 2058SOL     OW 6308   2.049   0.247   2.851
 2058SOL    HW1 6309   2.103   0.208   2.926
 2058SOL    HW2 6310   1.975   0.184   2.829
 2059SOL     OW 6311   1.833   0.410   2.495
 2059SOL    HW1 6312   1.750   0.434   2.546
 2059SOL    HW2 6313   1.811   0.340   2.427
 2060SOL     OW 6314   3.451   1.502   2.561
 2060SOL    HW1 6315   3.392   1.491   2.640
 2060SOL    HW2 6316   3.396   1.512   2.479
 2061SOL     OW 6317   3.006   0.715   2.546
 2061SOL    HW1 6318   3.053   0.802   2.531
 2061SOL    HW2 6319   2.962   0.716   2.636
 2062SOL     OW 6320   3.661   0.589   2.071
 2062SOL    HW1 6321   3.622   0.595   1.979
 2062SOL    HW2 6322   3.613   0.518   2.123
 2063SOL     OW 6323   2.648   1.161   2.915
 2063SOL    HW1 6324   2.617   1.084   2.971
 2063SOL    HW2 6325   2.744   1.179   2.932
 2064SOL     OW 6326   2.759   0.728   3.743
 2064SOL    HW1 6327   2.759   0.788   3.822
 2064SOL    HW2 6328   2.779   0.781   3.661
 2065SOL     OW 6329   2.538   1.135   3.692
 2065SOL    HW1 6330   2.581   1.215   3.735
 2065SOL    HW2 6331   2.469   1.166   3.627
 2066SOL     OW 6332   3.316   1.504   3.246
 2066SOL    HW1 6333   3.373   1.586   3.253
 2066SOL    HW2 6334   3.252   1.502   3.323
 2067SOL     OW 6335   2.306   0.407   3.341
 2067SOL    HW1 6336   2.392   0.358   3.352
 2067SOL    HW2 6337   2.229   0.345   3.355
 2068SOL     OW 6338   3.449   0.449   2.616
 2068SOL    HW1 6339   3.381   0.449   2.543
 2068SOL    HW2 6340   3.426   0.519   2.684
 2069SOL     OW 6341   2.086   1.722   2.339
 2069SOL    HW1 6342   2.088   1.794   2.408
 2069SOL    HW2 6343   2.170   1.726   2.283
 2070SOL     OW 6344   2.952   1.332   3.602
 2070SOL    HW1 6345   3.006   1.311   3.683
 2070SOL    HW2 6346   2.896   1.253   3.577
 2071SOL     OW 6347   2.078   1.449   2.393
 2071SOL    HW1 6348   2.074   1.548   2.380
 2071SOL    HW2 6349   2.015   1.422   2.465
 2072SOL     OW 6350   2.228   1.019   2.794
 2072SOL    HW1 6351   2.215   0.920   2.799
 2072SOL    HW2 6352   2.147   1.065   2.829
 2073SOL     OW 6353   2.459   0.988   2.001
 2073SOL    HW1 6354   2.507   1.040   1.931
 2073SOL    HW2 6355   2.484   1.021   2.092
 2074SOL     OW 6356   3.474   0.081   3.351
 2074SOL    HW1 6357   3.515   0.116   3.266
 2074SOL    HW2 6358   3.449   0.157   3.410
 2075SOL     OW 6359   1.984   0.646   2.437
 2075SOL    HW1 6360   1.937   0.559   2.453
 2075SOL    HW2 6361   1.976   0.703   2.519
 2076SOL     OW 6362   3.730   1.752   2.177
 2076SOL    HW1 6363   3.807   1.740   2.239
 2076SOL    HW2 6364   3.729   1.846   2.142
 2077SOL     OW 6365   1.907   1.566   1.986
 2077SOL    HW1 6366   1.893   1.470   2.010
 2077SOL    HW2 6367   1.885   1.624   2.065
 2078SOL     OW 6368   3.572   0.921   2.536
 2078SOL    HW1 6369   3.662   0.879   2.545
 2078SOL    HW2 6370   3.564   0.963   2.445
 2079SOL     OW 6371   3.533   1.114   2.313
 2079SOL    HW1 6372   3.621   1.102   2.266
 2079SOL    HW2 6373   3.547   1.168   2.396
 2080SOL     OW 6374   1.994   0.754   3.425
 2080SOL    HW1 6375   2.086   0.794   3.425
 2080SOL    HW2 6376   1.927   0.824   3.403
 2081SOL     OW 6377   3.148   1.185   3.293
 2081SOL    HW1 6378   3.162   1.115   3.223
 2081SOL    HW2 6379   3.225   1.182   3.358
 2082SOL     OW 6380   2.686   0.062   2.409
 2082SOL    HW1 6381   2.735   0.135   2.361
 2082SOL    HW2 6382   2.591   0.061   2.379
 2083SOL     OW 6383   2.084   0.950   3.165
 2083SOL    HW1 6384   2.172   0.909   3.140
 2083SOL    HW2 6385   2.011   0.906   3.113
 2084SOL     OW 6386   3.414   1.041   2.069
 2084SOL    HW1 6387   3.339   0.978   2.091
 2084SOL    HW2 6388   3.459   1.069   2.154
 2085SOL     OW 6389   2.982   1.759   3.446
 2085SOL    HW1 6390   3.039   1.831   3.408
 2085SOL    HW2 6391   3.019   1.670   3.422
 2086SOL     OW 6392   2.207   0.311   3.702
 2086SOL    HW1 6393   2.243   0.376   3.769
 2086SOL    HW2 6394   2.108   0.300   3.716
 2087SOL     OW 6395   3.291   1.435   2.783
 2087SOL    HW1 6396   3.234   1.448   2.864
 2087SOL    HW2 6397   3.294   1.337   2.760
 2088SOL     OW 6398   3.513   1.830   2.403
 2088SOL    HW1 6399   3.507   1.763   2.329
 2088SOL    HW2 6400   3.515   1.783   2.491
 2089SOL     OW 6401   2.442   0.723   2.139
 2089SOL    HW1 6402   2.439   0.808   2.087
 2089SOL    HW2 6403   2.368   0.723   2.207
 2090SOL     OW 6404   3.135   0.391   2.798
 2090SOL    HW1 6405   3.041   0.355   2.797
 2090SOL    HW2 6406   3.192   0.334   2.858
 2091SOL     OW 6407   3.470   1.667   2.174
 2091SOL    HW1 6408   3.567   1.689   2.167
 2091SOL    HW2 6409   3.432   1.658   2.082
 2092SOL     OW 6410   2.619   0.620   3.318
 2092SOL    HW1 6411   2.612   0.579   3.409
 2092SOL    HW2 6412   2.605   0.550   3.248
 2093SOL     OW 6413   3.246   0.486   3.532
 2093SOL    HW1 6414   3.252   0.533   3.620
 2093SOL    HW2 6415   3.298   0.401   3.536
 2094SOL     OW 6416   2.779   0.841   3.482
 2094SOL    HW1 6417   2.847   0.801   3.420
 2094SOL    HW2 6418   2.690   0.800   3.465
 2095SOL     OW 6419   2.868   0.417   3.050
 2095SOL    HW1 6420   2.773   0.426   3.081
 2095SOL    HW2 6421   2.872   0.354   2.973
 2096SOL     OW 6422   2.919   0.696   2.282
 2096SOL    HW1 6423   2.944   0.692   2.379
 2096SOL    HW2 6424   2.829   0.653   2.269
 2097SOL     OW 6425   1.961   0.811   2.652
 2097SOL    HW1 6426   2.042   0.792   2.708
 2097SOL    HW2 6427   1.911   0.888   2.691
 2098SOL     OW 6428   1.975   1.865   3.475
 2098SOL    HW1 6429   1.988   1.823   3.565
 2098SOL    HW2 6430   1.880   1.850   3.445
 2099SOL     OW 6431   2.718   0.360   2.069
 2099SOL    HW1 6432   2.779   0.405   2.003
 2099SOL    HW2 6433   2.663   0.292   2.022
 2100SOL     OW 6434   3.527   0.578   3.698
 2100SOL    HW1 6435   3.515   0.662   3.646
 2100SOL    HW2 6436   3.558   0.505   3.636
 2101SOL     OW 6437   3.255   1.153   2.382
 2101SOL    HW1 6438   3.346   1.142   2.343
 2101SOL    HW2 6439   3.203   1.220   2.328
 2102SOL     OW 6440   2.380   0.201   2.825
 2102SOL    HW1 6441   2.414   0.212   2.919
 2102SOL    HW2 6442   2.385   0.289   2.777
 2103SOL     OW 6443   2.872   1.468   2.350
 2103SOL    HW1 6444   2.834   1.540   2.293
 2103SOL    HW2 6445   2.913   1.509   2.432
 2104SOL     OW 6446   2.178   1.749   2.782
 2104SOL    HW1 6447   2.238   1.678   2.744
 2104SOL    HW2 6448   2.233   1.822   2.821
 2105SOL     OW 6449   3.663   1.038   2.779
 2105SOL    HW1 6450   3.619   1.028   2.690
 2105SOL    HW2 6451   3.592   1.050   2.849
 2106SOL     OW 6452   3.065   1.502   3.399
 2106SOL    HW1 6453   3.051   1.436   3.473
 2106SOL    HW2 6454   3.034   1.462   3.313
 2107SOL     OW 6455   2.130   0.913   2.101
 2107SOL    HW1 6456   2.168   0.935   2.012
 2107SOL    HW2 6457   2.099   0.817   2.102
 2108SOL     OW 6458   3.342   0.784   2.587
 2108SOL    HW1 6459   3.343   0.728   2.670
 2108SOL    HW2 6460   3.428   0.834   2.580
 2109SOL     OW 6461   2.350   1.262   3.535
 2109SOL    HW1 6462   2.306   1.275   3.446
 2109SOL    HW2 6463   2.280   1.265   3.607
 2110SOL     OW 6464   3.015   1.756   2.085
 2110SOL    HW1 6465   2.926   1.731   2.124
 2110SOL    HW2 6466   3.040   1.689   2.015
 2111SOL     OW 6467   2.075   0.249   3.351
 2111SOL    HW1 6468   1.997   0.312   3.359
 2111SOL    HW2 6469   2.063   0.172   3.414
 2112SOL     OW 6470   3.503   1.384   1.958
 2112SOL    HW1 6471   3.473   1.478   1.944
 2112SOL    HW2 6472   3.429   1.321   1.931
 2113SOL     OW 6473   2.336   1.733   2.179
 2113SOL    HW1 6474   2.366   1.815   2.228
 2113SOL    HW2 6475   2.410   1.700   2.121
 2114SOL     OW 6476   3.314   0.134   2.290
 2114SOL    HW1 6477   3.297   0.102   2.196
 2114SOL    HW2 6478   3.411   0.153   2.302
 2115SOL     OW 6479   2.155   1.751   3.156
 2115SOL    HW1 6480   2.201   1.748   3.245
 2115SOL    HW2 6481   2.224   1.763   3.084
 2116SOL     OW 6482   2.249   0.663   2.340
 2116SOL    HW1 6483   2.277   0.569   2.361
 2116SOL    HW2 6484   2.151   0.672   2.355
 2117SOL     OW 6485   3.363   0.235   3.570
 2117SOL    HW1 6486   3.371   0.258   3.667
 2117SOL    HW2 6487   3.303   0.156   3.560
 2118SOL     OW 6488   2.496   0.121   1.973
 2118SOL    HW1 6489   2.527   0.034   2.011
 2118SOL    HW2 6490   2.428   0.105   1.902
 2119SOL     OW 6491   2.614   0.271   3.624
 2119SOL    HW1 6492   2.704   0.228   3.621
 2119SOL    HW2 6493   2.557   0.225   3.692
 2120SOL     OW 6494   3.173   0.603   3.297
 2120SOL    HW1 6495   3.209   0.568   3.383
 2120SOL    HW2 6496   3.213   0.692   3.278
 2121SOL     OW 6497   2.783   0.486   2.736
 2121SOL    HW1 6498   2.766   0.481   2.638
 2121SOL    HW2 6499   2.803   0.395   2.772
 2122SOL     OW 6500   2.422   0.060   2.325
 2122SOL    HW1 6501   2.343   0.049   2.386
 2122SOL    HW2 6502   2.412   0.145   2.273
 2123SOL     OW 6503   3.290   1.217   1.895
 2123SOL    HW1 6504   3.332   1.146   1.952
 2123SOL    HW2 6505   3.201   1.242   1.933
 2124SOL     OW 6506   2.153   0.081   2.089
 2124SOL    HW1 6507   2.195   0.156   2.038
 2124SOL    HW2 6508   2.214   0.053   2.163
 2125SOL     OW 6509   2.835   0.267   2.301
 2125SOL    HW1 6510   2.799   0.299   2.214
 2125SOL    HW2 6511   2.934   0.275   2.302
 2126SOL     OW 6512   2.913   0.687   3.292
 2126SOL    HW1 6513   2.853   0.610   3.312
 2126SOL    HW2 6514   3.008   0.656   3.292
 2127SOL     OW 6515   3.078   1.532   2.605
 2127SOL    HW1 6516   3.092   1.614   2.549
 2127SOL    HW2 6517   3.154   1.520   2.668
 2128SOL     OW 6518   2.365   1.023   2.542
 2128SOL    HW1 6519   2.303   1.030   2.620
 2128SOL    HW2 6520   2.315   1.043   2.458
 2129SOL     OW 6521   3.115   1.747   2.434
 2129SOL    HW1 6522   3.175   1.812   2.388
 2129SOL    HW2 6523   3.028   1.791   2.455
 2130SOL     OW 6524   2.889   0.504   1.909
 2130SOL    HW1 6525   2.854   0.591   1.877
 2130SOL    HW2 6526   2.959   0.520   1.979
 2131SOL     OW 6527   1.985   0.553   3.241
 2131SOL    HW1 6528   2.079   0.551   3.209
 2131SOL    HW2 6529   1.975   0.622   3.313
 2132SOL     OW 6530   2.424   0.248   3.097
 2132SOL    HW1 6531   2.464   0.229   3.187
 2132SOL    HW2 6532   2.329   0.217   3.096
 2133SOL     OW 6533   2.738   0.464   2.472
 2133SOL    HW1 6534   2.695   0.521   2.402
 2133SOL    HW2 6535   2.775   0.381   2.429
 2134SOL     OW 6536   2.844   0.060   2.636
 2134SOL    HW1 6537   2.788   0.079   2.555
 2134SOL    HW2 6538   2.843   5.479   2.654
 2135SOL     OW 6539   3.352   1.175   2.703
 2135SOL    HW1 6540   3.283   1.130   2.648
 2135SOL    HW2 6541   3.433   1.194   2.646
 2136SOL     OW 6542   3.326   0.611   2.814
 2136SOL    HW1 6543   3.256   0.539   2.819
 2136SOL    HW2 6544   3.386   0.605   2.893
 2137SOL     OW 6545   3.662   0.790   2.254
 2137SOL    HW1 6546   3.729   0.755   2.318
 2137SOL    HW2 6547   3.656   0.729   2.175
 2138SOL     OW 6548   2.355   1.401   2.007
 2138SOL    HW1 6549   2.285   1.366   2.068
 2138SOL    HW2 6550   2.345   1.360   1.916
 2139SOL     OW 6551   3.576   1.249   2.547
 2139SOL    HW1 6552   3.675   1.240   2.551
 2139SOL    HW2 6553   3.551   1.346   2.546
 2140SOL     OW 6554   3.252   0.590   1.917
 2140SOL    HW1 6555   3.204   0.556   1.998
 2140SOL    HW2 6556   3.351   0.574   1.927
 2141SOL     OW 6557   2.385   0.282   2.172
 2141SOL    HW1 6558   2.432   0.231   2.100
 2141SOL    HW2 6559   2.348   0.367   2.134
 2142SOL     OW 6560   3.613   1.237   3.392
 2142SOL    HW1 6561   3.704   1.200   3.376
 2142SOL    HW2 6562   3.621   1.329   3.431
 2143SOL     OW 6563   2.967   1.347   3.188
 2143SOL    HW1 6564   2.875   1.333   3.226
 2143SOL    HW2 6565   3.031   1.284   3.231
 2144SOL     OW 6566   3.463   1.641   3.534
 2144SOL    HW1 6567   3.453   1.686   3.445
 2144SOL    HW2 6568   3.543   1.581   3.532
 2145SOL     OW 6569   2.916   1.198   2.965
 2145SOL    HW1 6570   2.933   1.264   3.038
 2145SOL    HW2 6571   2.948   1.236   2.878
 2146SOL     OW 6572   3.455   1.087   2.952
 2146SOL    HW1 6573   3.452   1.159   3.022
 2146SOL    HW2 6574   3.401   1.115   2.873
 2147SOL     OW 6575   2.766   0.152   3.233
 2147SOL    HW1 6576   2.786   0.097   3.151
 2147SOL    HW2 6577   2.852   0.174   3.280
 2148SOL     OW 6578   2.795   1.094   3.588
 2148SOL    HW1 6579   2.703   1.108   3.624
 2148SOL    HW2 6580   2.799   1.007   3.539
 2149SOL     OW 6581   2.569   1.056   2.254
 2149SOL    HW1 6582   2.512   0.995   2.309
 2149SOL    HW2 6583   2.656   1.011   2.233
 2150SOL     OW 6584   2.325   0.826   3.100
 2150SOL    HW1 6585   2.387   0.844   3.176
 2150SOL    HW2 6586   2.291   0.732   3.105
 2151SOL     OW 6587   3.117   0.379   3.153
 2151SOL    HW1 6588   3.148   0.460   3.202
 2151SOL    HW2 6589   3.027   0.396   3.113
 2152SOL     OW 6590   1.929   1.585   3.185
 2152SOL    HW1 6591   1.855   1.632   3.138
 2152SOL    HW2 6592   2.012   1.640   3.179
 2153SOL     OW 6593   2.225   1.074   2.312
 2153SOL    HW1 6594   2.212   1.163   2.268
 2153SOL    HW2 6595   2.195   1.002   2.250
 2154SOL     OW 6596   2.386   0.462   2.723
 2154SOL    HW1 6597   2.388   0.469   2.624
 2154SOL    HW2 6598   2.458   0.520   2.762
 2155SOL     OW 6599   3.109   1.358   2.252
 2155SOL    HW1 6600   3.179   1.423   2.280
 2155SOL    HW2 6601   3.021   1.385   2.289
 2156SOL     OW 6602   3.159   1.480   3.023
 2156SOL    HW1 6603   3.228   1.491   3.095
 2156SOL    HW2 6604   3.079   1.433   3.061
 2157SOL     OW 6605   3.439   0.642   2.357
 2157SOL    HW1 6606   3.386   0.687   2.429
 2157SOL    HW2 6607   3.507   0.706   2.321
 2158SOL     OW 6608   2.285   0.778   3.453
 2158SOL    HW1 6609   2.359   0.823   3.403
 2158SOL    HW2 6610   2.305   0.680   3.460
 2159SOL     OW 6611   3.490   0.806   3.559
 2159SOL    HW1 6612   3.397   0.840   3.547
 2159SOL    HW2 6613   3.547   0.835   3.482
 2160SOL     OW 6614   2.854   0.148   3.625
 2160SOL    HW1 6615   2.912   0.228   3.613
 2160SOL    HW2 6616   2.894   0.070   3.579
 2161SOL     OW 6617   2.319   0.078   3.610
 2161SOL    HW1 6618   2.245   0.021   3.575
 2161SOL    HW2 6619   2.282   0.169   3.632
 2162SOL     OW 6620   2.484   0.893   2.878
 2162SOL    HW1 6621   2.417   0.941   2.820
 2162SOL    HW2 6622   2.438   0.860   2.960
 2163SOL     OW 6623   3.149   0.819   2.882
 2163SOL    HW1 6624   3.061   0.785   2.848
 2163SOL    HW2 6625   3.221   0.754   2.857
 2164SOL     OW 6626   3.069   0.526   2.122
 2164SOL    HW1 6627   3.091   0.446   2.178
 2164SOL    HW2 6628   3.023   0.595   2.178
 2165SOL     OW 6629   2.162   0.158   3.102
 2165SOL    HW1 6630   2.125   0.192   3.189
 2165SOL    HW2 6631   2.157   0.058   3.101
 2166SOL     OW 6632   1.957   1.311   3.115
 2166SOL    HW1 6633   1.953   1.255   3.198
 2166SOL    HW2 6634   1.928   1.404   3.138
 2167SOL     OW 6635   2.575   0.616   2.865
 2167SOL    HW1 6636   2.652   0.583   2.810
 2167SOL    HW2 6637   2.556   0.711   2.842
 2168SOL     OW 6638   3.619   0.981   3.732
 2168SOL    HW1 6639   3.575   0.910   3.677
 2168SOL    HW2 6640   3.563   1.000   3.812
 2169SOL     OW 6641   2.193   0.067   2.477
 2169SOL    HW1 6642   2.145   0.153   2.493
 2169SOL    HW2 6643   2.213   0.023   2.565
 2170SOL     OW 6644   3.478   0.423   2.197
 2170SOL    HW1 6645   3.513   0.347   2.252
 2170SOL    HW2 6646   3.451   0.498   2.257
 2171SOL     OW 6647   2.894   0.723   2.812
 2171SOL    HW1 6648   2.868   0.742   2.907
 2171SOL    HW2 6649   2.866   0.630   2.788
 2172SOL     OW 6650   2.852   1.589   3.625
 2172SOL    HW1 6651   2.897   1.654   3.564
 2172SOL    HW2 6652   2.878   1.496   3.600
 2173SOL     OW 6653   3.690   1.494   3.466
 2173SOL    HW1 6654   3.711   1.520   3.371
 2173SOL    HW2 6655   3.771   1.506   3.523
 2174SOL     OW 6656   2.197   0.940   3.659
 2174SOL    HW1 6657   2.257   0.937   3.739
 2174SOL    HW2 6658   2.232   0.879   3.588
 2175SOL     OW 6659   3.385   0.298   1.965
 2175SOL    HW1 6660   3.333   0.220   1.999
 2175SOL    HW2 6661   3.423   0.349   2.043
 2176SOL     OW 6662   3.132   0.829   1.867
 2176SOL    HW1 6663   3.173   0.738   1.880
 2176SOL    HW2 6664   3.167   0.869   1.782
 2177SOL     OW 6665   2.992   1.298   2.727
 2177SOL    HW1 6666   2.970   1.227   2.661
 2177SOL    HW2 6667   3.012   1.383   2.679
 2178SOL     OW 6668   2.196   0.751   2.782
 2178SOL    HW1 6669   2.261   0.739   2.707
 2178SOL    HW2 6670   2.180   0.663   2.827
 2179SOL     OW 6671   2.162   0.489   2.872
 2179SOL    HW1 6672   2.110   0.404   2.868
 2179SOL    HW2 6673   2.245   0.480   2.817
 2180SOL     OW 6674   2.997   0.377   3.561
 2180SOL    HW1 6675   2.952   0.421   3.638
 2180SOL    HW2 6676   3.086   0.420   3.544
 2181SOL     OW 6677   3.014   0.206   3.346
 2181SOL    HW1 6678   3.004   0.269   3.423
 2181SOL    HW2 6679   3.062   0.253   3.271
 2182SOL     OW 6680   1.883   1.288   2.045
 2182SOL    HW1 6681   1.792   1.314   2.014
 2182SOL    HW2 6682   1.878   1.198   2.088
 2183SOL     OW 6683   1.917   1.819   2.825
 2183SOL    HW1 6684   1.864   1.753   2.771
 2183SOL    HW2 6685   2.014   1.794   2.823
 2184SOL     OW 6686   2.780   0.762   3.064
 2184SOL    HW1 6687   2.839   0.741   3.141
 2184SOL    HW2 6688   2.709   0.692   3.055
 2185SOL     OW 6689   1.913   0.603   2.979
 2185SOL    HW1 6690   1.987   0.570   2.920
 2185SOL    HW2 6691   1.938   0.588   3.075
 2186SOL     OW 6692   2.056   0.575   3.631
 2186SOL    HW1 6693   2.121   0.510   3.591
 2186SOL    HW2 6694   2.023   0.637   3.560
 2187SOL     OW 6695   3.249   0.925   3.502
 2187SOL    HW1 6696   3.282   1.019   3.503
 2187SOL    HW2 6697   3.237   0.894   3.408
 2188SOL     OW 6698   2.669   0.586   2.229
 2188SOL    HW1 6699   2.679   0.504   2.173
 2188SOL    HW2 6700   2.592   0.640   2.197
 2189SOL     OW 6701   3.504   0.598   3.026
 2189SOL    HW1 6702   3.496   0.542   3.108
 2189SOL    HW2 6703   3.599   0.601   2.996
 2190SOL     OW 6704   2.110   1.518   3.547
 2190SOL    HW1 6705   2.086   1.597   3.604
 2190SOL    HW2 6706   2.122   1.437   3.604
 2191SOL     OW 6707   2.595   0.465   3.091
 2191SOL    HW1 6708   2.537   0.383   3.095
 2191SOL    HW2 6709   2.576   0.515   3.007
 2192SOL     OW 6710   2.286   0.508   2.048
 2192SOL    HW1 6711   2.360   0.573   2.063
 2192SOL    HW2 6712   2.198   0.554   2.058
 2193SOL     OW 6713   2.014   1.152   3.335
 2193SOL    HW1 6714   1.993   1.125   3.429
 2193SOL    HW2 6715   2.037   1.070   3.282
 2194SOL     OW 6716   3.103   1.013   3.064
 2194SOL    HW1 6717   3.128   0.946   2.995
 2194SOL    HW2 6718   3.035   1.076   3.027
 2195SOL     OW 6719   3.198   0.886   2.129
 2195SOL    HW1 6720   3.136   0.842   2.193
 2195SOL    HW2 6721   3.170   0.865   2.035
 2196SOL     OW 6722   3.619   1.695   3.022
 2196SOL    HW1 6723   3.691   1.727   2.960
 2196SOL    HW2 6724   3.588   1.605   2.992
 2197SOL     OW 6725   3.128   1.751   2.953
 2197SOL    HW1 6726   3.211   1.780   2.907
 2197SOL    HW2 6727   3.133   1.653   2.972
 2198SOL     OW 6728   2.001   1.136   2.898
 2198SOL    HW1 6729   1.960   1.189   2.972
 2198SOL    HW2 6730   1.929   1.104   2.837
 2199SOL     OW 6731   2.587   1.659   3.618
 2199SOL    HW1 6732   2.567   1.756   3.603
 2199SOL    HW2 6733   2.686   1.646   3.623
 2200SOL     OW 6734   3.599   0.206   2.321
 2200SOL    HW1 6735   3.657   0.207   2.240
 2200SOL    HW2 6736   3.621   0.125   2.376
 2201SOL     OW 6737   3.287   1.550   2.342
 2201SOL    HW1 6738   3.351   1.588   2.275
 2201SOL    HW2 6739   3.222   1.620   2.369
 2202SOL     OW 6740   2.040   1.734   3.701
 2202SOL    HW1 6741   1.983   1.668   3.749
 2202SOL    HW2 6742   2.082   1.796   3.768
 2203SOL     OW 6743   3.139   0.955   2.522
 2203SOL    HW1 6744   3.214   0.894   2.549
 2203SOL    HW2 6745   3.175   1.026   2.461
 2204SOL     OW 6746   2.716   1.298   3.281
 2204SOL    HW1 6747   2.662   1.347   3.349
 2204SOL    HW2 6748   2.674   1.208   3.263
 2205SOL     OW 6749   2.540   1.595   2.017
 2205SOL    HW1 6750   2.551   1.630   1.923
 2205SOL    HW2 6751   2.471   1.524   2.018
 2206SOL     OW 6752   3.467   1.734   3.260
 2206SOL    HW1 6753   3.524   1.728   3.179
 2206SOL    HW2 6754   3.453   1.830   3.284
 2207SOL     OW 6755   3.704   0.082   2.797
 2207SOL    HW1 6756   3.685   5.515   2.747
 2207SOL    HW2 6757   3.627   0.145   2.789
 2208SOL     OW 6758   2.085   0.308   2.569
 2208SOL    HW1 6759   1.997   0.348   2.545
 2208SOL    HW2 6760   2.086   0.283   2.666
 2209SOL     OW 6761   3.093   1.575   1.894
 2209SOL    HW1 6762   3.079   1.483   1.930
 2209SOL    HW2 6763   3.019   1.597   1.830
 2210SOL     OW 6764   2.712   1.007   3.179
 2210SOL    HW1 6765   2.731   0.924   3.126
 2210SOL    HW2 6766   2.798   1.047   3.210
 2211SOL     OW 6767   2.800   0.932   2.194
 2211SOL    HW1 6768   2.834   0.949   2.101
 2211SOL    HW2 6769   2.847   0.852   2.232
 2212SOL     OW 6770   3.362   1.643   1.914
 2212SOL    HW1 6771   3.267   1.616   1.901
 2212SOL    HW2 6772   3.407   1.651   1.825
 2213SOL     OW 6773   2.188   1.356   3.329
 2213SOL    HW1 6774   2.162   1.427   3.395
 2213SOL    HW2 6775   2.122   1.281   3.332
 2214SOL     OW 6776   3.462   1.289   3.146
 2214SOL    HW1 6777   3.530   1.263   3.215
 2214SOL    HW2 6778   3.401   1.359   3.184
 2215SOL     OW 6779   2.896   1.085   2.581
 2215SOL    HW1 6780   2.842   1.017   2.631
 2215SOL    HW2 6781   2.980   1.042   2.547
 2216SOL     OW 6782   2.879   0.233   2.842
 2216SOL    HW1 6783   2.870   0.185   2.755
 2216SOL    HW2 6784   2.873   0.167   2.917
 2217SOL     OW 6785   2.445   1.536   2.355
 2217SOL    HW1 6786   2.497   1.465   2.308
 2217SOL    HW2 6787   2.393   1.588   2.288
 2218SOL     OW 6788   3.600   0.416   3.249
 2218SOL    HW1 6789   3.688   0.464   3.244
 2218SOL    HW2 6790   3.607   0.329   3.202
 2219SOL     OW 6791   2.146   1.308   2.173
 2219SOL    HW1 6792   2.060   1.302   2.121
 2219SOL    HW2 6793   2.132   1.364   2.254
 2220SOL     OW 6794   1.975   1.087   3.601
 2220SOL    HW1 6795   1.890   1.063   3.649
 2220SOL    HW2 6796   2.047   1.023   3.629
 2221SOL     OW 6797   2.542   0.253   3.352
 2221SOL    HW1 6798   2.623   0.215   3.307
 2221SOL    HW2 6799   2.558   0.259   3.451
 2222SOL     OW 6800   1.930   0.349   1.869
 2222SOL    HW1 6801   1.858   0.325   1.805
 2222SOL    HW2 6802   1.961   0.443   1.851
 2223SOL     OW 6803   3.253   0.859   3.238
 2223SOL    HW1 6804   3.190   0.906   3.177
 2223SOL    HW2 6805   3.345   0.862   3.200
 2224SOL     OW 6806   1.906   0.210   2.116
 2224SOL    HW1 6807   1.901   0.263   2.032
 2224SOL    HW2 6808   1.990   0.155   2.116
 2225SOL     OW 6809   3.040   1.320   1.987
 2225SOL    HW1 6810   2.941   1.309   1.979
 2225SOL    HW2 6811   3.066   1.324   2.083
 2226SOL     OW 6812   2.506   0.862   3.299
 2226SOL    HW1 6813   2.574   0.928   3.268
 2226SOL    HW2 6814   2.547   0.771   3.303
 2227SOL     OW 6815   3.383   1.791   2.850
 2227SOL    HW1 6816   3.405   1.873   2.797
 2227SOL    HW2 6817   3.461   1.765   2.906
 2228SOL     OW 6818   2.614   0.545   3.576
 2228SOL    HW1 6819   2.656   0.597   3.651
 2228SOL    HW2 6820   2.611   0.448   3.600
 2229SOL     OW 6821   3.355   1.176   3.484
 2229SOL    HW1 6822   3.347   1.198   3.581
 2229SOL    HW2 6823   3.447   1.197   3.452
 2230SOL     OW 6824   2.223   1.752   3.425
 2230SOL    HW1 6825   2.136   1.800   3.437
 2230SOL    HW2 6826   2.214   1.659   3.462
 2231SOL     OW 6827   3.498   0.867   3.117
 2231SOL    HW1 6828   3.504   0.779   3.071
 2231SOL    HW2 6829   3.487   0.939   3.048
 2232SOL     OW 6830   3.110   0.324   2.311
 2232SOL    HW1 6831   3.177   0.250   2.304
 2232SOL    HW2 6832   3.129   0.379   2.392
 2233SOL     OW 6833   2.368   0.750   2.573
 2233SOL    HW1 6834   2.388   0.847   2.557
 2233SOL    HW2 6835   2.333   0.709   2.489
 2234SOL     OW 6836   3.596   0.372   3.523
 2234SOL    HW1 6837   3.596   0.397   3.426
 2234SOL    HW2 6838   3.516   0.315   3.543
 2235SOL     OW 6839   3.631   0.915   3.353
 2235SOL    HW1 6840   3.628   1.014   3.369
 2235SOL    HW2 6841   3.590   0.895   3.264
 2236SOL     OW 6842   2.735   1.388   1.937
 2236SOL    HW1 6843   2.671   1.440   1.994
 2236SOL    HW2 6844   2.773   1.449   1.867
 2237SOL     OW 6845   2.722   0.925   2.726
 2237SOL    HW1 6846   2.787   0.854   2.751
 2237SOL    HW2 6847   2.641   0.918   2.785
 2238SOL     OW 6848   2.899   0.949   1.940
 2238SOL    HW1 6849   2.878   1.021   1.874
 2238SOL    HW2 6850   2.986   0.907   1.916
 2239SOL     OW 6851   3.677   1.551   2.713
 2239SOL    HW1 6852   3.607   1.546   2.643
 2239SOL    HW2 6853   3.648   1.498   2.793
 2240SOL     OW 6854   2.132   1.293   3.698
 2240SOL    HW1 6855   2.068   1.222   3.669
 2240SOL    HW2 6856   2.124   1.306   3.797
 2241SOL     OW 6857   1.939   1.242   2.557
 2241SOL    HW1 6858   1.900   1.173   2.619
 2241SOL    HW2 6859   1.999   1.197   2.491
 2242SOL     OW 6860   2.534   1.444   3.443
 2242SOL    HW1 6861   2.474   1.378   3.488
 2242SOL    HW2 6862   2.551   1.521   3.505
 2243SOL     OW 6863   3.604   0.175   3.114
 2243SOL    HW1 6864   3.640   0.082   3.103
 2243SOL    HW2 6865   3.583   0.213   3.024
 2244SOL     OW 6866   2.307   0.412   2.429
 2244SOL    HW1 6867   2.340   0.352   2.357
 2244SOL    HW2 6868   2.231   0.369   2.477
 2245SOL     OW 6869   3.530   1.455   2.931
 2245SOL    HW1 6870   3.446   1.453   2.878
 2245SOL    HW2 6871   3.525   1.387   3.005
 2246SOL     OW 6872   2.237   0.569   3.131
 2246SOL    HW1 6873   2.277   0.506   3.198
 2246SOL    HW2 6874   2.226   0.522   3.044
 2247SOL     OW 6875   3.276   0.239   2.979
 2247SOL    HW1 6876   3.257   0.142   2.990
 2247SOL    HW2 6877   3.229   0.291   3.051
 2248SOL     OW 6878   2.869   0.006   3.015
 2248SOL    HW1 6879   2.816   5.438   3.016
 2248SOL    HW2 6880   2.965   5.502   2.995
 2249SOL     OW 6881   2.616   1.332   2.275
 2249SOL    HW1 6882   2.600   1.237   2.249
 2249SOL    HW2 6883   2.714   1.351   2.272
 2250SOL     OW 6884   2.470   1.428   3.171
 2250SOL    HW1 6885   2.476   1.443   3.270
 2250SOL    HW2 6886   2.561   1.414   3.134
 2251SOL     OW 6887   3.250   0.070   2.027
 2251SOL    HW1 6888   3.288   5.511   1.975
 2251SOL    HW2 6889   3.155   0.052   2.050
 2252SOL     OW 6890   3.162   0.479   2.535
 2252SOL    HW1 6891   3.112   0.565   2.528
 2252SOL    HW2 6892   3.152   0.441   2.627
 2253SOL     OW 6893   3.480   0.238   2.795
 2253SOL    HW1 6894   3.408   0.253   2.863
 2253SOL    HW2 6895   3.475   0.309   2.725
 2254SOL     OW 6896   1.891   1.039   2.181
 2254SOL    HW1 6897   1.982   1.020   2.144
 2254SOL    HW2 6898   1.852   0.954   2.217
 2255SOL     OW 6899   2.758   1.659   2.183
 2255SOL    HW1 6900   2.689   1.621   2.121
 2255SOL    HW2 6901   2.730   1.750   2.213
 2256SOL     OW 6902   2.065   0.671   3.889
 2256SOL    HW1 6903   1.977   0.639   3.924
 2256SOL    HW2 6904   2.070   0.655   3.790
 2257SOL     OW 6905   2.049   0.263   4.697
 2257SOL    HW1 6906   2.106   0.229   4.771
 2257SOL    HW2 6907   1.972   0.201   4.682
 2258SOL     OW 6908   1.837   0.448   4.354
 2258SOL    HW1 6909   1.754   0.451   4.409
 2258SOL    HW2 6910   1.813   0.429   4.259
 2259SOL     OW 6911   2.422   1.312   4.938
 2259SOL    HW1 6912   2.340   1.315   4.881
 2259SOL    HW2 6913   2.443   1.404   4.971
 2260SOL     OW 6914   3.456   1.526   4.418
 2260SOL    HW1 6915   3.410   1.487   4.498
 2260SOL    HW2 6916   3.389   1.539   4.344
 2261SOL     OW 6917   3.003   0.714   4.395
 2261SOL    HW1 6918   3.053   0.800   4.383
 2261SOL    HW2 6919   2.948   0.719   4.478
 2262SOL     OW 6920   3.660   0.581   3.932
 2262SOL    HW1 6921   3.621   0.588   3.841
 2262SOL    HW2 6922   3.611   0.512   3.985
 2263SOL     OW 6923   2.572   1.135   4.767
 2263SOL    HW1 6924   2.510   1.168   4.838
 2263SOL    HW2 6925   2.618   1.213   4.724
 2264SOL     OW 6926   2.705   0.745   0.035
 2264SOL    HW1 6927   2.726   0.793   0.120
 2264SOL    HW2 6928   2.741   0.797   5.475
 2265SOL     OW 6929   2.559   0.964   4.366
 2265SOL    HW1 6930   2.629   0.967   4.438
 2265SOL    HW2 6931   2.487   1.030   4.387
 2266SOL     OW 6932   2.206   1.401   4.787
 2266SOL    HW1 6933   2.131   1.349   4.746
 2266SOL    HW2 6934   2.250   1.457   4.717
 2267SOL     OW 6935   3.300   1.515   5.088
 2267SOL    HW1 6936   3.363   1.592   5.098
 2267SOL    HW2 6937   3.222   1.529   5.149
 2268SOL     OW 6938   2.330   0.399   5.162
 2268SOL    HW1 6939   2.409   0.340   5.178
 2268SOL    HW2 6940   2.246   0.349   5.184
 2269SOL     OW 6941   3.440   0.451   4.493
 2269SOL    HW1 6942   3.367   0.447   4.425
 2269SOL    HW2 6943   3.423   0.526   4.556
 2270SOL     OW 6944   2.090   1.727   4.188
 2270SOL    HW1 6945   2.105   1.797   4.257
 2270SOL    HW2 6946   2.168   1.725   4.125
 2271SOL     OW 6947   2.108   1.450   4.215
 2271SOL    HW1 6948   2.094   1.549   4.223
 2271SOL    HW2 6949   2.072   1.405   4.297
 2272SOL     OW 6950   2.201   1.077   4.628
 2272SOL    HW1 6951   2.192   0.980   4.650
 2272SOL    HW2 6952   2.129   1.129   4.674
 2273SOL     OW 6953   2.443   1.810   5.154
 2273SOL    HW1 6954   2.355   1.803   5.202
 2273SOL    HW2 6955   2.490   1.893   5.184
 2274SOL     OW 6956   2.418   0.977   3.897
 2274SOL    HW1 6957   2.458   1.019   3.816
 2274SOL    HW2 6958   2.472   1.001   3.977
 2275SOL     OW 6959   3.590   0.072   5.245
 2275SOL    HW1 6960   3.588   0.106   5.151
 2275SOL    HW2 6961   3.576   0.147   5.308
 2276SOL     OW 6962   1.975   0.692   4.301
 2276SOL    HW1 6963   1.938   0.603   4.329
 2276SOL    HW2 6964   1.978   0.752   4.381
 2277SOL     OW 6965   3.720   1.754   4.045
 2277SOL    HW1 6966   3.798   1.740   4.106
 2277SOL    HW2 6967   3.722   1.847   4.009
 2278SOL     OW 6968   1.901   1.551   3.834
 2278SOL    HW1 6969   1.877   1.456   3.851
 2278SOL    HW2 6970   1.878   1.606   3.914
 2279SOL     OW 6971   3.568   0.933   4.396
 2279SOL    HW1 6972   3.660   0.894   4.403
 2279SOL    HW2 6973   3.560   0.983   4.310
 2280SOL     OW 6974   3.544   1.111   4.173
 2280SOL    HW1 6975   3.627   1.089   4.122
 2280SOL    HW2 6976   3.564   1.183   4.240
 2281SOL     OW 6977   2.057   0.708   5.350
 2281SOL    HW1 6978   2.156   0.716   5.349
 2281SOL    HW2 6979   2.016   0.799   5.362
 2282SOL     OW 6980   2.489   1.386   4.441
 2282SOL    HW1 6981   2.449   1.295   4.447
 2282SOL    HW2 6982   2.476   1.422   4.348
 2283SOL     OW 6983   3.089   1.244   5.188
 2283SOL    HW1 6984   3.123   1.180   5.120
 2283SOL    HW2 6985   3.130   1.224   5.277
 2284SOL     OW 6986   2.703   0.063   4.284
 2284SOL    HW1 6987   2.751   0.139   4.239
 2284SOL    HW2 6988   2.606   0.065   4.259
 2285SOL     OW 6989   2.073   0.961   4.985
 2285SOL    HW1 6990   2.164   0.920   4.981
 2285SOL    HW2 6991   2.007   0.902   4.938
 2286SOL     OW 6992   3.420   1.030   3.937
 2286SOL    HW1 6993   3.341   0.972   3.958
 2286SOL    HW2 6994   3.463   1.060   4.022
 2287SOL     OW 6995   2.996   1.781   5.361
 2287SOL    HW1 6996   3.017   1.867   5.314
 2287SOL    HW2 6997   3.027   1.704   5.304
 2288SOL     OW 6998   2.177   0.197   0.090
 2288SOL    HW1 6999   2.212   0.287   0.117
 2288SOL    HW2 7000   2.085   0.208   0.052
 2289SOL     OW 7001   3.344   1.406   4.637
 2289SOL    HW1 7002   3.281   1.441   4.706
 2289SOL    HW2 7003   3.321   1.312   4.613
 2290SOL     OW 7004   3.497   1.842   4.270
 2290SOL    HW1 7005   3.488   1.782   4.191
 2290SOL    HW2 7006   3.511   1.787   4.352
 2291SOL     OW 7007   2.438   0.705   4.006
 2291SOL    HW1 7008   2.436   0.795   3.961
 2291SOL    HW2 7009   2.370   0.703   4.079
 2292SOL     OW 7010   3.136   0.397   4.672
 2292SOL    HW1 7011   3.042   0.362   4.664
 2292SOL    HW2 7012   3.187   0.343   4.739
 2293SOL     OW 7013   3.457   1.678   4.048
 2293SOL    HW1 7014   3.556   1.693   4.043
 2293SOL    HW2 7015   3.422   1.662   3.956
 2294SOL     OW 7016   2.656   0.581   5.183
 2294SOL    HW1 7017   2.609   0.554   5.266
 2294SOL    HW2 7018   2.634   0.516   5.110
 2295SOL     OW 7019   2.821   0.883   5.341
 2295SOL    HW1 7020   2.867   0.814   5.285
 2295SOL    HW2 7021   2.771   0.946   5.281
 2296SOL     OW 7022   2.886   0.391   4.926
 2296SOL    HW1 7023   2.791   0.410   4.948
 2296SOL    HW2 7024   2.891   0.339   4.840
 2297SOL     OW 7025   2.919   0.700   4.129
 2297SOL    HW1 7026   2.945   0.701   4.226
 2297SOL    HW2 7027   2.830   0.656   4.119
 2298SOL     OW 7028   1.963   0.863   4.514
 2298SOL    HW1 7029   2.048   0.839   4.561
 2298SOL    HW2 7030   1.912   0.929   4.569
 2299SOL     OW 7031   1.977   1.928   5.334
 2299SOL    HW1 7032   1.975   1.931   5.434
 2299SOL    HW2 7033   1.884   1.913   5.299
 2300SOL     OW 7034   2.718   0.348   3.935
 2300SOL    HW1 7035   2.781   0.390   3.869
 2300SOL    HW2 7036   2.663   0.278   3.888
 2301SOL     OW 7037   3.274   1.167   4.283
 2301SOL    HW1 7038   3.363   1.154   4.237
 2301SOL    HW2 7039   3.219   1.232   4.230
 2302SOL     OW 7040   2.380   0.224   4.654
 2302SOL    HW1 7041   2.415   0.225   4.748
 2302SOL    HW2 7042   2.386   0.316   4.615
 2303SOL     OW 7043   2.856   1.464   4.190
 2303SOL    HW1 7044   2.834   1.540   4.129
 2303SOL    HW2 7045   2.827   1.486   4.283
 2304SOL     OW 7046   2.219   1.803   4.604
 2304SOL    HW1 7047   2.258   1.711   4.604
 2304SOL    HW2 7048   2.287   1.869   4.635
 2305SOL     OW 7049   3.660   1.059   4.632
 2305SOL    HW1 7050   3.614   1.044   4.544
 2305SOL    HW2 7051   3.591   1.070   4.704
 2306SOL     OW 7052   3.051   1.534   5.223
 2306SOL    HW1 7053   3.058   1.434   5.218
 2306SOL    HW2 7054   2.963   1.563   5.188
 2307SOL     OW 7055   2.152   0.933   3.995
 2307SOL    HW1 7056   2.245   0.952   3.962
 2307SOL    HW2 7057   2.126   0.840   3.968
 2308SOL     OW 7058   3.350   0.777   4.447
 2308SOL    HW1 7059   3.344   0.732   4.537
 2308SOL    HW2 7060   3.433   0.833   4.443
 2309SOL     OW 7061   2.324   1.240   5.447
 2309SOL    HW1 7062   2.262   1.274   5.376
 2309SOL    HW2 7063   2.299   1.145   5.470
 2310SOL     OW 7064   3.006   1.767   3.949
 2310SOL    HW1 7065   2.916   1.747   3.989
 2310SOL    HW2 7066   3.038   1.687   3.898
 2311SOL     OW 7067   2.088   0.273   5.180
 2311SOL    HW1 7068   2.022   0.346   5.198
 2311SOL    HW2 7069   2.058   0.189   5.225
 2312SOL     OW 7070   3.519   1.392   3.830
 2312SOL    HW1 7071   3.483   1.484   3.817
 2312SOL    HW2 7072   3.452   1.324   3.798
 2313SOL     OW 7073   2.322   1.759   4.039
 2313SOL    HW1 7074   2.366   1.811   4.113
 2313SOL    HW2 7075   2.392   1.712   3.985
 2314SOL     OW 7076   3.310   0.127   4.158
 2314SOL    HW1 7077   3.293   0.097   4.064
 2314SOL    HW2 7078   3.407   0.147   4.169
 2315SOL     OW 7079   2.099   1.790   4.934
 2315SOL    HW1 7080   2.142   1.708   4.971
 2315SOL    HW2 7081   2.056   1.769   4.846
 2316SOL     OW 7082   2.805   1.699   4.613
 2316SOL    HW1 7083   2.896   1.659   4.623
 2316SOL    HW2 7084   2.756   1.653   4.539
 2317SOL     OW 7085   2.244   0.673   4.202
 2317SOL    HW1 7086   2.254   0.574   4.211
 2317SOL    HW2 7087   2.150   0.700   4.225
 2318SOL     OW 7088   2.492   0.118   3.820
 2318SOL    HW1 7089   2.525   0.030   3.855
 2318SOL    HW2 7090   2.421   0.101   3.751
 2319SOL     OW 7091   2.599   0.281   5.451
 2319SOL    HW1 7092   2.692   0.257   5.477
 2319SOL    HW2 7093   2.534   0.230   5.507
 2320SOL     OW 7094   2.714   1.507   4.915
 2320SOL    HW1 7095   2.691   1.477   4.822
 2320SOL    HW2 7096   2.773   1.439   4.958
 2321SOL     OW 7097   3.156   0.585   5.220
 2321SOL    HW1 7098   3.181   0.576   5.316
 2321SOL    HW2 7099   3.194   0.669   5.183
 2322SOL     OW 7100   2.671   1.373   4.664
 2322SOL    HW1 7101   2.765   1.373   4.632
 2322SOL    HW2 7102   2.609   1.383   4.586
 2323SOL     OW 7103   2.792   0.518   4.601
 2323SOL    HW1 7104   2.774   0.509   4.504
 2323SOL    HW2 7105   2.806   0.428   4.642
 2324SOL     OW 7106   2.439   0.068   4.205
 2324SOL    HW1 7107   2.355   0.053   4.258
 2324SOL    HW2 7108   2.421   0.135   4.133
 2325SOL     OW 7109   3.323   1.212   3.756
 2325SOL    HW1 7110   3.361   1.140   3.814
 2325SOL    HW2 7111   3.235   1.241   3.794
 2326SOL     OW 7112   2.138   0.079   4.015
 2326SOL    HW1 7113   2.214   0.143   4.010
 2326SOL    HW2 7114   2.140   0.031   4.103
 2327SOL     OW 7115   2.840   0.272   4.172
 2327SOL    HW1 7116   2.802   0.296   4.083
 2327SOL    HW2 7117   2.939   0.281   4.170
 2328SOL     OW 7118   2.906   0.695   5.161
 2328SOL    HW1 7119   2.826   0.636   5.175
 2328SOL    HW2 7120   2.989   0.642   5.179
 2329SOL     OW 7121   3.061   1.606   4.541
 2329SOL    HW1 7122   3.085   1.658   4.459
 2329SOL    HW2 7123   3.103   1.650   4.621
 2330SOL     OW 7124   2.357   1.145   4.417
 2330SOL    HW1 7125   2.306   1.120   4.500
 2330SOL    HW2 7126   2.296   1.139   4.338
 2331SOL     OW 7127   3.104   1.792   4.336
 2331SOL    HW1 7128   3.158   1.859   4.284
 2331SOL    HW2 7129   3.025   1.839   4.376
 2332SOL     OW 7130   2.895   0.494   3.783
 2332SOL    HW1 7131   2.850   0.583   3.771
 2332SOL    HW2 7132   2.967   0.502   3.852
 2333SOL     OW 7133   1.978   0.547   5.138
 2333SOL    HW1 7134   2.065   0.550   5.089
 2333SOL    HW2 7135   1.983   0.605   5.219
 2334SOL     OW 7136   2.434   0.232   4.928
 2334SOL    HW1 7137   2.471   0.212   5.018
 2334SOL    HW2 7138   2.336   0.212   4.928
 2335SOL     OW 7139   2.750   0.476   4.338
 2335SOL    HW1 7140   2.700   0.530   4.270
 2335SOL    HW2 7141   2.784   0.393   4.295
 2336SOL     OW 7142   2.868   0.028   4.502
 2336SOL    HW1 7143   2.819   0.055   4.420
 2336SOL    HW2 7144   2.820   5.469   4.546
 2337SOL     OW 7145   3.284   1.144   4.577
 2337SOL    HW1 7146   3.217   1.074   4.600
 2337SOL    HW2 7147   3.290   1.153   4.478
 2338SOL     OW 7148   3.315   0.627   4.685
 2338SOL    HW1 7149   3.245   0.555   4.689
 2338SOL    HW2 7150   3.377   0.617   4.763
 2339SOL     OW 7151   3.665   0.785   4.111
 2339SOL    HW1 7152   3.730   0.753   4.179
 2339SOL    HW2 7153   3.659   0.720   4.035
 2340SOL     OW 7154   2.365   1.418   3.927
 2340SOL    HW1 7155   2.270   1.389   3.941
 2340SOL    HW2 7156   2.420   1.342   3.894
 2341SOL     OW 7157   3.607   1.291   4.357
 2341SOL    HW1 7158   3.704   1.288   4.384
 2341SOL    HW2 7159   3.569   1.380   4.382
 2342SOL     OW 7160   3.252   0.596   3.783
 2342SOL    HW1 7161   3.206   0.556   3.863
 2342SOL    HW2 7162   3.350   0.579   3.789
 2343SOL     OW 7163   2.354   0.252   4.012
 2343SOL    HW1 7164   2.410   0.208   3.943
 2343SOL    HW2 7165   2.327   0.343   3.980
 2344SOL     OW 7166   3.617   1.238   5.222
 2344SOL    HW1 7167   3.710   1.201   5.224
 2344SOL    HW2 7168   3.614   1.322   5.276
 2345SOL     OW 7169   2.861   1.315   5.047
 2345SOL    HW1 7170   2.773   1.291   5.087
 2345SOL    HW2 7171   2.935   1.287   5.108
 2346SOL     OW 7172   3.018   1.263   4.831
 2346SOL    HW1 7173   2.950   1.281   4.902
 2346SOL    HW2 7174   2.981   1.289   4.742
 2347SOL     OW 7175   3.452   1.098   4.806
 2347SOL    HW1 7176   3.447   1.168   4.878
 2347SOL    HW2 7177   3.385   1.119   4.735
 2348SOL     OW 7178   2.770   0.106   5.097
 2348SOL    HW1 7179   2.803   0.074   5.009
 2348SOL    HW2 7180   2.847   0.126   5.157
 2349SOL     OW 7181   2.602   1.032   4.098
 2349SOL    HW1 7182   2.589   1.002   4.193
 2349SOL    HW2 7183   2.675   0.979   4.056
 2350SOL     OW 7184   2.311   0.821   4.980
 2350SOL    HW1 7185   2.381   0.827   5.051
 2350SOL    HW2 7186   2.268   0.730   4.984
 2351SOL     OW 7187   3.108   0.349   5.077
 2351SOL    HW1 7188   3.135   0.431   5.127
 2351SOL    HW2 7189   3.027   0.368   5.023
 2352SOL     OW 7190   1.926   1.557   5.100
 2352SOL    HW1 7191   1.880   1.629   5.049
 2352SOL    HW2 7192   2.025   1.567   5.090
 2353SOL     OW 7193   2.171   1.128   4.210
 2353SOL    HW1 7194   2.156   1.208   4.152
 2353SOL    HW2 7195   2.162   1.045   4.156
 2354SOL     OW 7196   2.391   0.512   4.599
 2354SOL    HW1 7197   2.398   0.568   4.516
 2354SOL    HW2 7198   2.461   0.541   4.664
 2355SOL     OW 7199   3.114   1.364   4.136
 2355SOL    HW1 7200   3.175   1.438   4.165
 2355SOL    HW2 7201   3.020   1.386   4.162
 2356SOL     OW 7202   3.185   1.479   4.846
 2356SOL    HW1 7203   3.230   1.489   4.935
 2356SOL    HW2 7204   3.126   1.398   4.847
 2357SOL     OW 7205   3.439   0.644   4.214
 2357SOL    HW1 7206   3.393   0.684   4.294
 2357SOL    HW2 7207   3.508   0.707   4.180
 2358SOL     OW 7208   2.196   1.536   5.024
 2358SOL    HW1 7209   2.187   1.482   4.940
 2358SOL    HW2 7210   2.292   1.558   5.039
 2359SOL     OW 7211   2.333   0.746   5.368
 2359SOL    HW1 7212   2.384   0.783   5.290
 2359SOL    HW2 7213   2.381   0.665   5.404
 2360SOL     OW 7214   3.384   0.858   5.355
 2360SOL    HW1 7215   3.316   0.845   5.283
 2360SOL    HW2 7216   3.467   0.897   5.315
 2361SOL     OW 7217   2.453   0.874   4.751
 2361SOL    HW1 7218   2.488   0.968   4.746
 2361SOL    HW2 7219   2.399   0.863   4.835
 2362SOL     OW 7220   3.152   0.863   4.732
 2362SOL    HW1 7221   3.060   0.833   4.707
 2362SOL    HW2 7222   3.216   0.786   4.721
 2363SOL     OW 7223   3.076   0.520   3.989
 2363SOL    HW1 7224   3.099   0.443   4.048
 2363SOL    HW2 7225   3.026   0.589   4.041
 2364SOL     OW 7226   2.164   0.168   4.938
 2364SOL    HW1 7227   2.133   0.211   5.022
 2364SOL    HW2 7228   2.143   0.070   4.940
 2365SOL     OW 7229   1.949   1.308   4.969
 2365SOL    HW1 7230   1.961   1.235   5.036
 2365SOL    HW2 7231   1.926   1.393   5.016
 2366SOL     OW 7232   2.585   0.632   4.756
 2366SOL    HW1 7233   2.657   0.613   4.689
 2366SOL    HW2 7234   2.547   0.723   4.740
 2367SOL     OW 7235   3.541   0.854   0.068
 2367SOL    HW1 7236   3.490   0.851   5.499
 2367SOL    HW2 7237   3.497   0.920   0.129
 2368SOL     OW 7238   2.182   0.067   4.319
 2368SOL    HW1 7239   2.134   0.152   4.337
 2368SOL    HW2 7240   2.209   0.025   4.406
 2369SOL     OW 7241   3.472   0.421   4.059
 2369SOL    HW1 7242   3.506   0.345   4.115
 2369SOL    HW2 7243   3.447   0.498   4.118
 2370SOL     OW 7244   2.890   0.763   4.677
 2370SOL    HW1 7245   2.865   0.782   4.772
 2370SOL    HW2 7246   2.864   0.669   4.654
 2371SOL     OW 7247   2.703   1.560   5.446
 2371SOL    HW1 7248   2.757   1.606   5.375
 2371SOL    HW2 7249   2.634   1.503   5.403
 2372SOL     OW 7250   3.662   1.481   5.342
 2372SOL    HW1 7251   3.709   1.524   5.265
 2372SOL    HW2 7252   3.705   1.510   5.428
 2373SOL     OW 7253   2.254   0.973   5.511
 2373SOL    HW1 7254   2.303   0.968   0.081
 2373SOL    HW2 7255   2.278   0.893   5.455
 2374SOL     OW 7256   3.372   0.298   3.831
 2374SOL    HW1 7257   3.321   0.219   3.865
 2374SOL    HW2 7258   3.412   0.347   3.908
 2375SOL     OW 7259   3.131   0.834   3.731
 2375SOL    HW1 7260   3.168   0.742   3.747
 2375SOL    HW2 7261   3.169   0.870   3.645
 2376SOL     OW 7262   2.931   1.362   4.587
 2376SOL    HW1 7263   2.948   1.283   4.529
 2376SOL    HW2 7264   2.988   1.439   4.557
 2377SOL     OW 7265   2.189   0.797   4.659
 2377SOL    HW1 7266   2.288   0.809   4.662
 2377SOL    HW2 7267   2.167   0.703   4.683
 2378SOL     OW 7268   2.150   0.515   4.721
 2378SOL    HW1 7269   2.102   0.428   4.709
 2378SOL    HW2 7270   2.236   0.513   4.671
 2379SOL     OW 7271   2.992   0.159   5.256
 2379SOL    HW1 7272   2.983   0.210   5.341
 2379SOL    HW2 7273   3.044   0.213   5.190
 2380SOL     OW 7274   1.853   1.278   3.891
 2380SOL    HW1 7275   1.763   1.305   3.857
 2380SOL    HW2 7276   1.850   1.184   3.924
 2381SOL     OW 7277   1.960   1.766   4.688
 2381SOL    HW1 7278   1.914   1.696   4.634
 2381SOL    HW2 7279   2.051   1.784   4.649
 2382SOL     OW 7280   2.348   1.556   4.610
 2382SOL    HW1 7281   2.419   1.618   4.642
 2382SOL    HW2 7282   2.387   1.490   4.546
 2383SOL     OW 7283   2.794   0.799   4.930
 2383SOL    HW1 7284   2.847   0.771   5.010
 2383SOL    HW2 7285   2.709   0.745   4.927
 2384SOL     OW 7286   1.909   0.598   4.863
 2384SOL    HW1 7287   1.988   0.576   4.807
 2384SOL    HW2 7288   1.932   0.586   4.960
 2385SOL     OW 7289   2.675   0.582   4.085
 2385SOL    HW1 7290   2.681   0.496   4.034
 2385SOL    HW2 7291   2.591   0.630   4.059
 2386SOL     OW 7292   3.498   0.599   4.889
 2386SOL    HW1 7293   3.486   0.549   4.975
 2386SOL    HW2 7294   3.594   0.599   4.864
 2387SOL     OW 7295   2.143   1.559   5.418
 2387SOL    HW1 7296   2.072   1.555   5.488
 2387SOL    HW2 7297   2.145   1.473   5.367
 2388SOL     OW 7298   2.614   0.442   4.948
 2388SOL    HW1 7299   2.549   0.367   4.937
 2388SOL    HW2 7300   2.597   0.512   4.879
 2389SOL     OW 7301   2.811   1.646   5.143
 2389SOL    HW1 7302   2.771   1.606   5.061
 2389SOL    HW2 7303   2.803   1.746   5.139
 2390SOL     OW 7304   2.285   0.496   3.899
 2390SOL    HW1 7305   2.361   0.555   3.924
 2390SOL    HW2 7306   2.199   0.546   3.909
 2391SOL     OW 7307   2.009   1.123   5.191
 2391SOL    HW1 7308   1.996   1.068   5.274
 2391SOL    HW2 7309   2.035   1.064   5.115
 2392SOL     OW 7310   3.128   1.039   4.950
 2392SOL    HW1 7311   3.146   0.970   4.879
 2392SOL    HW2 7312   3.092   1.122   4.907
 2393SOL     OW 7313   3.194   0.888   3.996
 2393SOL    HW1 7314   3.149   0.827   4.061
 2393SOL    HW2 7315   3.166   0.863   3.903
 2394SOL     OW 7316   3.628   1.700   4.879
 2394SOL    HW1 7317   3.702   1.735   4.822
 2394SOL    HW2 7318   3.605   1.607   4.851
 2395SOL     OW 7319   3.133   1.737   4.777
 2395SOL    HW1 7320   3.221   1.785   4.777
 2395SOL    HW2 7321   3.145   1.645   4.813
 2396SOL     OW 7322   1.988   1.236   4.708
 2396SOL    HW1 7323   1.970   1.265   4.802
 2396SOL    HW2 7324   1.914   1.175   4.678
 2397SOL     OW 7325   3.594   0.206   4.187
 2397SOL    HW1 7326   3.651   0.207   4.105
 2397SOL    HW2 7327   3.618   0.128   4.244
 2398SOL     OW 7328   3.263   1.582   4.221
 2398SOL    HW1 7329   3.328   1.619   4.154
 2398SOL    HW2 7330   3.203   1.656   4.253
 2399SOL     OW 7331   3.149   0.943   4.374
 2399SOL    HW1 7332   3.222   0.881   4.400
 2399SOL    HW2 7333   3.187   1.022   4.327
 2400SOL     OW 7334   2.609   1.261   5.131
 2400SOL    HW1 7335   2.581   1.313   5.211
 2400SOL    HW2 7336   2.539   1.267   5.060
 2401SOL     OW 7337   2.522   1.638   3.888
 2401SOL    HW1 7338   2.539   1.644   3.790
 2401SOL    HW2 7339   2.469   1.555   3.908
 2402SOL     OW 7340   3.467   1.730   5.100
 2402SOL    HW1 7341   3.528   1.722   5.022
 2402SOL    HW2 7342   3.498   1.803   5.160
 2403SOL     OW 7343   3.694   0.095   4.673
 2403SOL    HW1 7344   3.678   0.012   4.621
 2403SOL    HW2 7345   3.613   0.154   4.668
 2404SOL     OW 7346   2.069   0.303   4.416
 2404SOL    HW1 7347   1.987   0.357   4.398
 2404SOL    HW2 7348   2.077   0.286   4.514
 2405SOL     OW 7349   3.086   1.556   3.792
 2405SOL    HW1 7350   3.087   1.461   3.824
 2405SOL    HW2 7351   3.005   1.571   3.736
 2406SOL     OW 7352   2.696   1.005   5.128
 2406SOL    HW1 7353   2.741   0.983   5.042
 2406SOL    HW2 7354   2.666   1.100   5.127
 2407SOL     OW 7355   2.805   0.897   3.967
 2407SOL    HW1 7356   2.870   0.958   3.922
 2407SOL    HW2 7357   2.855   0.834   4.027
 2408SOL     OW 7358   3.353   1.647   3.790
 2408SOL    HW1 7359   3.259   1.612   3.784
 2408SOL    HW2 7360   3.393   1.652   3.699
 2409SOL     OW 7361   2.168   1.343   5.244
 2409SOL    HW1 7362   2.175   1.402   5.164
 2409SOL    HW2 7363   2.110   1.264   5.223
 2410SOL     OW 7364   3.459   1.299   5.004
 2410SOL    HW1 7365   3.518   1.270   5.080
 2410SOL    HW2 7366   3.397   1.370   5.036
 2411SOL     OW 7367   2.948   1.121   4.462
 2411SOL    HW1 7368   2.869   1.072   4.498
 2411SOL    HW2 7369   3.014   1.054   4.426
 2412SOL     OW 7370   2.893   0.231   4.696
 2412SOL    HW1 7371   2.890   0.186   4.608
 2412SOL    HW2 7372   2.882   0.164   4.769
 2413SOL     OW 7373   2.477   1.479   4.189
 2413SOL    HW1 7374   2.542   1.420   4.140
 2413SOL    HW2 7375   2.393   1.488   4.135
 2414SOL     OW 7376   3.585   0.427   5.121
 2414SOL    HW1 7377   3.673   0.474   5.128
 2414SOL    HW2 7378   3.599   0.338   5.078
 2415SOL     OW 7379   2.106   1.330   3.977
 2415SOL    HW1 7380   2.012   1.310   3.951
 2415SOL    HW2 7381   2.107   1.382   4.062
 2416SOL     OW 7382   1.987   0.970   5.421
 2416SOL    HW1 7383   1.909   0.969   5.484
 2416SOL    HW2 7384   2.072   0.983   5.474
 2417SOL     OW 7385   2.540   0.216   5.190
 2417SOL    HW1 7386   2.622   0.174   5.152
 2417SOL    HW2 7387   2.556   0.243   5.285
 2418SOL     OW 7388   1.928   0.340   3.728
 2418SOL    HW1 7389   1.857   0.321   3.660
 2418SOL    HW2 7390   1.956   0.436   3.722
 2419SOL     OW 7391   3.243   0.833   5.117
 2419SOL    HW1 7392   3.179   0.900   5.079
 2419SOL    HW2 7393   3.331   0.840   5.069
 2420SOL     OW 7394   1.891   0.197   3.972
 2420SOL    HW1 7395   1.894   0.248   3.887
 2420SOL    HW2 7396   1.978   0.150   3.987
 2421SOL     OW 7397   3.078   1.288   3.869
 2421SOL    HW1 7398   3.036   1.197   3.859
 2421SOL    HW2 7399   3.093   1.307   3.965
 2422SOL     OW 7400   2.509   0.813   5.166
 2422SOL    HW1 7401   2.572   0.890   5.159
 2422SOL    HW2 7402   2.561   0.728   5.173
 2423SOL     OW 7403   3.382   1.854   4.778
 2423SOL    HW1 7404   3.414   1.913   4.704
 2423SOL    HW2 7405   3.459   1.805   4.818
 2424SOL     OW 7406   2.534   0.555   5.432
 2424SOL    HW1 7407   2.594   0.614   5.487
 2424SOL    HW2 7408   2.554   0.460   5.452
 2425SOL     OW 7409   2.210   1.785   5.287
 2425SOL    HW1 7410   2.130   1.844   5.294
 2425SOL    HW2 7411   2.195   1.701   5.338
 2426SOL     OW 7412   3.473   0.872   4.969
 2426SOL    HW1 7413   3.489   0.784   4.924
 2426SOL    HW2 7414   3.467   0.944   4.900
 2427SOL     OW 7415   3.114   0.323   4.180
 2427SOL    HW1 7416   3.180   0.248   4.174
 2427SOL    HW2 7417   3.132   0.376   4.263
 2428SOL     OW 7418   2.425   0.714   4.409
 2428SOL    HW1 7419   2.479   0.797   4.395
 2428SOL    HW2 7420   2.360   0.703   4.334
 2429SOL     OW 7421   3.565   0.309   5.382
 2429SOL    HW1 7422   3.551   0.369   5.304
 2429SOL    HW2 7423   3.495   0.327   5.452
 2430SOL     OW 7424   3.579   0.964   5.207
 2430SOL    HW1 7425   3.582   1.064   5.210
 2430SOL    HW2 7426   3.553   0.934   5.115
 2431SOL     OW 7427   2.649   1.354   3.802
 2431SOL    HW1 7428   2.658   1.340   3.900
 2431SOL    HW2 7429   2.707   1.431   3.774
 2432SOL     OW 7430   2.533   1.742   4.665
 2432SOL    HW1 7431   2.506   1.838   4.662
 2432SOL    HW2 7432   2.633   1.735   4.663
 2433SOL     OW 7433   2.738   0.982   4.582
 2433SOL    HW1 7434   2.789   0.904   4.618
 2433SOL    HW2 7435   2.685   1.025   4.655
 2434SOL     OW 7436   2.968   1.046   3.797
 2434SOL    HW1 7437   2.906   1.063   3.720
 2434SOL    HW2 7438   3.030   0.971   3.773
 2435SOL     OW 7439   3.682   1.573   4.569
 2435SOL    HW1 7440   3.608   1.565   4.502
 2435SOL    HW2 7441   3.663   1.512   4.647
 2436SOL     OW 7442   2.014   1.282   4.418
 2436SOL    HW1 7443   2.015   1.271   4.518
 2436SOL    HW2 7444   2.062   1.206   4.375
 2437SOL     OW 7445   2.502   1.415   5.332
 2437SOL    HW1 7446   2.449   1.347   5.383
 2437SOL    HW2 7447   2.441   1.484   5.294
 2438SOL     OW 7448   3.622   0.183   4.985
 2438SOL    HW1 7449   3.646   0.087   4.968
 2438SOL    HW2 7450   3.612   0.231   4.898
 2439SOL     OW 7451   2.256   0.408   4.237
 2439SOL    HW1 7452   2.299   0.335   4.183
 2439SOL    HW2 7453   2.198   0.367   4.308
 2440SOL     OW 7454   3.566   1.449   4.791
 2440SOL    HW1 7455   3.488   1.433   4.732
 2440SOL    HW2 7456   3.561   1.389   4.871
 2441SOL     OW 7457   2.208   0.568   4.990
 2441SOL    HW1 7458   2.265   0.508   5.047
 2441SOL    HW2 7459   2.203   0.532   4.897
 2442SOL     OW 7460   2.690   1.587   4.395
 2442SOL    HW1 7461   2.656   1.657   4.332
 2442SOL    HW2 7462   2.619   1.518   4.410
 2443SOL     OW 7463   3.249   0.233   4.861
 2443SOL    HW1 7464   3.219   0.138   4.858
 2443SOL    HW2 7465   3.217   0.276   4.945
 2444SOL     OW 7466   2.880   0.002   4.864
 2444SOL    HW1 7467   2.830   5.433   4.865
 2444SOL    HW2 7468   2.977   5.501   4.843
 2445SOL     OW 7469   2.657   1.305   4.069
 2445SOL    HW1 7470   2.641   1.208   4.087
 2445SOL    HW2 7471   2.738   1.336   4.119
 2446SOL     OW 7472   2.471   1.569   5.033
 2446SOL    HW1 7473   2.467   1.660   5.076
 2446SOL    HW2 7474   2.560   1.558   4.989
 2447SOL     OW 7475   3.241   0.067   3.896
 2447SOL    HW1 7476   3.282   5.510   3.843
 2447SOL    HW2 7477   3.145   0.047   3.914
 2448SOL     OW 7478   3.161   0.476   4.405
 2448SOL    HW1 7479   3.109   0.561   4.393
 2448SOL    HW2 7480   3.151   0.444   4.499
 2449SOL     OW 7481   3.462   0.240   4.676
 2449SOL    HW1 7482   3.393   0.253   4.746
 2449SOL    HW2 7483   3.456   0.314   4.609
 2450SOL     OW 7484   1.886   1.024   4.011
 2450SOL    HW1 7485   1.985   1.011   3.998
 2450SOL    HW2 7486   1.844   0.938   4.037
 2451SOL     OW 7487   2.754   1.684   4.049
 2451SOL    HW1 7488   2.670   1.662   3.998
 2451SOL    HW2 7489   2.734   1.754   4.117
 2452SOL     OW 7490   2.028   2.419   0.057
 2452SOL    HW1 7491   1.946   2.446   0.107
 2452SOL    HW2 7492   2.039   2.476   5.493
 2453SOL     OW 7493   2.076   2.146   0.990
 2453SOL    HW1 7494   2.115   2.112   1.076
 2453SOL    HW2 7495   1.985   2.105   0.976
 2454SOL     OW 7496   1.842   2.278   0.634
 2454SOL    HW1 7497   1.756   2.297   0.682
 2454SOL    HW2 7498   1.825   2.214   0.559
 2455SOL     OW 7499   2.437   3.185   1.219
 2455SOL    HW1 7500   2.351   3.182   1.168
 2455SOL    HW2 7501   2.457   3.280   1.245
 2456SOL     OW 7502   3.446   3.384   0.706
 2456SOL    HW1 7503   3.398   3.344   0.784
 2456SOL    HW2 7504   3.382   3.403   0.632
 2457SOL     OW 7505   2.991   2.579   0.674
 2457SOL    HW1 7506   3.043   2.662   0.654
 2457SOL    HW2 7507   2.943   2.589   0.761
 2458SOL     OW 7508   3.651   2.482   0.169
 2458SOL    HW1 7509   3.602   2.558   0.126
 2458SOL    HW2 7510   3.584   2.415   0.201
 2459SOL     OW 7511   2.580   2.995   1.057
 2459SOL    HW1 7512   2.523   3.031   1.132
 2459SOL    HW2 7513   2.621   3.071   1.007
 2460SOL     OW 7514   2.724   2.592   1.841
 2460SOL    HW1 7515   2.715   2.653   1.920
 2460SOL    HW2 7516   2.751   2.646   1.761
 2461SOL     OW 7517   2.557   2.833   0.656
 2461SOL    HW1 7518   2.627   2.835   0.728
 2461SOL    HW2 7519   2.487   2.901   0.676
 2462SOL     OW 7520   2.583   3.051   1.816
 2462SOL    HW1 7521   2.631   3.117   1.873
 2462SOL    HW2 7522   2.506   3.096   1.770
 2463SOL     OW 7523   2.204   3.251   1.074
 2463SOL    HW1 7524   2.128   3.197   1.039
 2463SOL    HW2 7525   2.244   3.305   1.000
 2464SOL     OW 7526   3.308   3.374   1.372
 2464SOL    HW1 7527   3.367   3.453   1.381
 2464SOL    HW2 7528   3.228   3.384   1.432
 2465SOL     OW 7529   2.336   2.224   1.452
 2465SOL    HW1 7530   2.415   2.164   1.467
 2465SOL    HW2 7531   2.253   2.177   1.482
 2466SOL     OW 7532   3.442   2.306   0.746
 2466SOL    HW1 7533   3.375   2.313   0.672
 2466SOL    HW2 7534   3.423   2.375   0.815
 2467SOL     OW 7535   2.098   3.594   0.462
 2467SOL    HW1 7536   2.118   3.671   0.523
 2467SOL    HW2 7537   2.175   3.580   0.399
 2468SOL     OW 7538   2.968   3.234   1.699
 2468SOL    HW1 7539   3.011   3.230   1.789
 2468SOL    HW2 7540   2.921   3.148   1.681
 2469SOL     OW 7541   2.061   3.329   0.523
 2469SOL    HW1 7542   2.065   3.429   0.524
 2469SOL    HW2 7543   2.031   3.296   0.612
 2470SOL     OW 7544   2.177   2.945   0.890
 2470SOL    HW1 7545   2.182   2.848   0.911
 2470SOL    HW2 7546   2.116   2.990   0.955
 2471SOL     OW 7547   2.423   3.701   1.404
 2471SOL    HW1 7548   2.348   3.670   1.461
 2471SOL    HW2 7549   2.474   3.772   1.452
 2472SOL     OW 7550   2.435   2.817   0.206
 2472SOL    HW1 7551   2.487   2.828   0.122
 2472SOL    HW2 7552   2.485   2.859   0.282
 2473SOL     OW 7553   3.461   1.992   1.476
 2473SOL    HW1 7554   3.509   2.070   1.435
 2473SOL    HW2 7555   3.415   2.021   1.560
 2474SOL     OW 7556   1.961   2.532   0.589
 2474SOL    HW1 7557   1.923   2.441   0.607
 2474SOL    HW2 7558   1.958   2.586   0.673
 2475SOL     OW 7559   3.736   3.584   0.287
 2475SOL    HW1 7560   3.810   3.573   0.354
 2475SOL    HW2 7561   3.734   3.680   0.257
 2476SOL     OW 7562   1.924   3.404   0.072
 2476SOL    HW1 7563   1.910   3.311   0.108
 2476SOL    HW2 7564   1.909   3.471   0.144
 2477SOL     OW 7565   3.570   2.796   0.668
 2477SOL    HW1 7566   3.662   2.755   0.663
 2477SOL    HW2 7567   3.555   2.853   0.587
 2478SOL     OW 7568   3.544   2.973   0.451
 2478SOL    HW1 7569   3.625   2.956   0.396
 2478SOL    HW2 7570   3.562   3.049   0.514
 2479SOL     OW 7571   1.986   2.615   1.570
 2479SOL    HW1 7572   2.074   2.661   1.567
 2479SOL    HW2 7573   1.913   2.680   1.546
 2480SOL     OW 7574   2.486   3.259   0.715
 2480SOL    HW1 7575   2.449   3.167   0.722
 2480SOL    HW2 7576   2.472   3.294   0.622
 2481SOL     OW 7577   3.112   3.069   1.422
 2481SOL    HW1 7578   3.136   3.001   1.353
 2481SOL    HW2 7579   3.183   3.071   1.493
 2482SOL     OW 7580   2.686   1.881   0.522
 2482SOL    HW1 7581   2.735   1.965   0.500
 2482SOL    HW2 7582   2.587   1.897   0.517
 2483SOL     OW 7583   2.070   2.810   1.328
 2483SOL    HW1 7584   2.160   2.772   1.308
 2483SOL    HW2 7585   2.010   2.799   1.249
 2484SOL     OW 7586   3.395   2.884   0.233
 2484SOL    HW1 7587   3.320   2.826   0.265
 2484SOL    HW2 7588   3.444   2.922   0.312
 2485SOL     OW 7589   3.162   3.714   1.588
 2485SOL    HW1 7590   3.089   3.772   1.552
 2485SOL    HW2 7591   3.138   3.618   1.576
 2486SOL     OW 7592   2.209   2.090   1.849
 2486SOL    HW1 7593   2.257   2.175   1.871
 2486SOL    HW2 7594   2.111   2.108   1.845
 2487SOL     OW 7595   3.335   3.260   0.923
 2487SOL    HW1 7596   3.271   3.294   0.992
 2487SOL    HW2 7597   3.313   3.166   0.899
 2488SOL     OW 7598   3.493   3.724   0.534
 2488SOL    HW1 7599   3.489   3.657   0.460
 2488SOL    HW2 7600   3.505   3.675   0.621
 2489SOL     OW 7601   2.418   2.544   0.283
 2489SOL    HW1 7602   2.435   2.636   0.250
 2489SOL    HW2 7603   2.351   2.547   0.357
 2490SOL     OW 7604   3.140   2.263   0.939
 2490SOL    HW1 7605   3.048   2.225   0.939
 2490SOL    HW2 7606   3.198   2.208   0.999
 2491SOL     OW 7607   3.466   3.546   0.328
 2491SOL    HW1 7608   3.566   3.541   0.318
 2491SOL    HW2 7609   3.423   3.538   0.238
 2492SOL     OW 7610   2.641   2.428   1.477
 2492SOL    HW1 7611   2.597   2.400   1.562
 2492SOL    HW2 7612   2.618   2.364   1.404
 2493SOL     OW 7613   3.248   2.327   1.653
 2493SOL    HW1 7614   3.253   2.378   1.739
 2493SOL    HW2 7615   3.294   2.239   1.664
 2494SOL     OW 7616   2.797   2.736   1.607
 2494SOL    HW1 7617   2.852   2.667   1.559
 2494SOL    HW2 7618   2.745   2.790   1.540
 2495SOL     OW 7619   2.862   2.235   1.197
 2495SOL    HW1 7620   2.768   2.251   1.227
 2495SOL    HW2 7621   2.862   2.192   1.107
 2496SOL     OW 7622   2.894   2.542   0.413
 2496SOL    HW1 7623   2.923   2.549   0.508
 2496SOL    HW2 7624   2.807   2.493   0.407
 2497SOL     OW 7625   1.956   2.705   0.801
 2497SOL    HW1 7626   2.047   2.694   0.843
 2497SOL    HW2 7627   1.904   2.772   0.853
 2498SOL     OW 7628   1.971   3.750   1.603
 2498SOL    HW1 7629   1.985   3.713   1.695
 2498SOL    HW2 7630   1.876   3.737   1.575
 2499SOL     OW 7631   2.745   2.158   0.223
 2499SOL    HW1 7632   2.779   2.232   0.164
 2499SOL    HW2 7633   2.754   2.071   0.176
 2500SOL     OW 7634   3.532   2.430   1.836
 2500SOL    HW1 7635   3.519   2.513   1.781
 2500SOL    HW2 7636   3.557   2.354   1.776
 2501SOL     OW 7637   3.273   3.031   0.573
 2501SOL    HW1 7638   3.360   3.024   0.524
 2501SOL    HW2 7639   3.214   3.098   0.527
 2502SOL     OW 7640   2.419   1.993   0.932
 2502SOL    HW1 7641   2.426   2.020   1.028
 2502SOL    HW2 7642   2.419   2.075   0.875
 2503SOL     OW 7643   2.857   3.328   0.486
 2503SOL    HW1 7644   2.839   3.401   0.420
 2503SOL    HW2 7645   2.819   3.353   0.575
 2504SOL     OW 7646   2.215   3.662   0.875
 2504SOL    HW1 7647   2.254   3.570   0.878
 2504SOL    HW2 7648   2.283   3.729   0.905
 2505SOL     OW 7649   3.656   2.903   0.911
 2505SOL    HW1 7650   3.611   2.886   0.824
 2505SOL    HW2 7651   3.587   2.922   0.981
 2506SOL     OW 7652   3.079   3.426   1.515
 2506SOL    HW1 7653   3.055   3.353   1.578
 2506SOL    HW2 7654   2.997   3.461   1.471
 2507SOL     OW 7655   2.187   2.799   0.344
 2507SOL    HW1 7656   2.272   2.811   0.294
 2507SOL    HW2 7657   2.187   2.711   0.390
 2508SOL     OW 7658   3.351   2.635   0.702
 2508SOL    HW1 7659   3.346   2.587   0.790
 2508SOL    HW2 7660   3.432   2.693   0.701
 2509SOL     OW 7661   2.335   3.155   1.720
 2509SOL    HW1 7662   2.315   3.153   1.622
 2509SOL    HW2 7663   2.250   3.150   1.772
 2510SOL     OW 7664   2.993   3.651   0.211
 2510SOL    HW1 7665   2.922   3.613   0.272
 2510SOL    HW2 7666   3.034   3.577   0.158
 2511SOL     OW 7667   2.079   2.123   1.495
 2511SOL    HW1 7668   2.004   2.189   1.484
 2511SOL    HW2 7669   2.043   2.041   1.541
 2512SOL     OW 7670   3.494   3.238   0.125
 2512SOL    HW1 7671   3.457   3.331   0.121
 2512SOL    HW2 7672   3.427   3.174   0.088
 2513SOL     OW 7673   2.347   3.588   0.314
 2513SOL    HW1 7674   2.386   3.656   0.377
 2513SOL    HW2 7675   2.420   3.553   0.254
 2514SOL     OW 7676   3.255   1.966   0.447
 2514SOL    HW1 7677   3.256   1.951   0.348
 2514SOL    HW2 7678   3.344   1.944   0.484
 2515SOL     OW 7679   2.069   3.661   1.214
 2515SOL    HW1 7680   2.127   3.587   1.247
 2515SOL    HW2 7681   2.041   3.643   1.120
 2516SOL     OW 7682   2.802   3.559   0.897
 2516SOL    HW1 7683   2.892   3.516   0.905
 2516SOL    HW2 7684   2.752   3.517   0.822
 2517SOL     OW 7685   2.215   2.549   0.479
 2517SOL    HW1 7686   2.244   2.453   0.487
 2517SOL    HW2 7687   2.122   2.559   0.516
 2518SOL     OW 7688   3.346   2.073   1.718
 2518SOL    HW1 7689   3.362   2.095   1.815
 2518SOL    HW2 7690   3.275   2.003   1.712
 2519SOL     OW 7691   2.523   1.987   0.095
 2519SOL    HW1 7692   2.609   1.937   0.092
 2519SOL    HW2 7693   2.452   1.935   0.047
 2520SOL     OW 7694   2.622   2.127   1.759
 2520SOL    HW1 7695   2.714   2.089   1.756
 2520SOL    HW2 7696   2.573   2.090   1.838
 2521SOL     OW 7697   2.727   3.373   1.200
 2521SOL    HW1 7698   2.700   3.340   1.109
 2521SOL    HW2 7699   2.783   3.304   1.245
 2522SOL     OW 7700   3.159   2.453   1.426
 2522SOL    HW1 7701   3.200   2.418   1.511
 2522SOL    HW2 7702   3.196   2.543   1.406
 2523SOL     OW 7703   2.671   3.232   0.943
 2523SOL    HW1 7704   2.765   3.235   0.910
 2523SOL    HW2 7705   2.608   3.249   0.867
 2524SOL     OW 7706   2.782   2.371   0.886
 2524SOL    HW1 7707   2.756   2.364   0.789
 2524SOL    HW2 7708   2.815   2.283   0.918
 2525SOL     OW 7709   2.419   1.931   0.482
 2525SOL    HW1 7710   2.339   1.929   0.542
 2525SOL    HW2 7711   2.412   2.009   0.421
 2526SOL     OW 7712   3.290   3.070   0.051
 2526SOL    HW1 7713   3.322   2.994   0.108
 2526SOL    HW2 7714   3.205   3.107   0.089
 2527SOL     OW 7715   2.155   1.894   0.194
 2527SOL    HW1 7716   2.194   1.961   0.131
 2527SOL    HW2 7717   2.226   1.829   0.222
 2528SOL     OW 7718   2.827   2.110   0.474
 2528SOL    HW1 7719   2.793   2.130   0.383
 2528SOL    HW2 7720   2.925   2.131   0.478
 2529SOL     OW 7721   2.895   2.546   1.433
 2529SOL    HW1 7722   2.822   2.481   1.454
 2529SOL    HW2 7723   2.983   2.499   1.432
 2530SOL     OW 7724   3.061   3.473   0.817
 2530SOL    HW1 7725   3.086   3.524   0.735
 2530SOL    HW2 7726   3.101   3.516   0.897
 2531SOL     OW 7727   2.359   3.017   0.703
 2531SOL    HW1 7728   2.301   2.992   0.781
 2531SOL    HW2 7729   2.303   3.027   0.621
 2532SOL     OW 7730   3.108   3.661   0.607
 2532SOL    HW1 7731   3.155   3.728   0.550
 2532SOL    HW2 7732   3.028   3.704   0.650
 2533SOL     OW 7733   2.829   2.347   0.050
 2533SOL    HW1 7734   2.790   2.438   0.037
 2533SOL    HW2 7735   2.914   2.354   0.102
 2534SOL     OW 7736   1.978   2.405   1.397
 2534SOL    HW1 7737   2.071   2.403   1.361
 2534SOL    HW2 7738   1.968   2.481   1.460
 2535SOL     OW 7739   2.427   2.054   1.198
 2535SOL    HW1 7740   2.459   1.977   1.255
 2535SOL    HW2 7741   2.329   2.067   1.212
 2536SOL     OW 7742   2.725   2.320   0.626
 2536SOL    HW1 7743   2.675   2.372   0.557
 2536SOL    HW2 7744   2.764   2.238   0.585
 2537SOL     OW 7745   2.877   1.913   0.735
 2537SOL    HW1 7746   2.811   1.911   0.660
 2537SOL    HW2 7747   2.855   1.840   0.800
 2538SOL     OW 7748   3.284   2.995   0.862
 2538SOL    HW1 7749   3.219   2.922   0.883
 2538SOL    HW2 7750   3.288   3.009   0.763
 2539SOL     OW 7751   3.319   2.488   0.938
 2539SOL    HW1 7752   3.250   2.416   0.949
 2539SOL    HW2 7753   3.382   2.486   1.015
 2540SOL     OW 7754   3.683   2.646   0.385
 2540SOL    HW1 7755   3.738   2.604   0.457
 2540SOL    HW2 7756   3.681   2.587   0.305
 2541SOL     OW 7757   2.364   3.272   0.156
 2541SOL    HW1 7758   2.282   3.261   0.212
 2541SOL    HW2 7759   2.357   3.215   0.075
 2542SOL     OW 7760   3.595   3.160   0.632
 2542SOL    HW1 7761   3.689   3.163   0.666
 2542SOL    HW2 7762   3.548   3.244   0.657
 2543SOL     OW 7763   3.199   2.374   0.032
 2543SOL    HW1 7764   3.138   2.372   0.111
 2543SOL    HW2 7765   3.267   2.301   0.039
 2544SOL     OW 7766   2.400   2.135   0.301
 2544SOL    HW1 7767   2.454   2.086   0.233
 2544SOL    HW2 7768   2.349   2.208   0.256
 2545SOL     OW 7769   3.605   3.097   1.528
 2545SOL    HW1 7770   3.696   3.059   1.514
 2545SOL    HW2 7771   3.612   3.188   1.569
 2546SOL     OW 7772   2.874   3.179   1.330
 2546SOL    HW1 7773   2.791   3.158   1.382
 2546SOL    HW2 7774   2.954   3.148   1.381
 2547SOL     OW 7775   3.486   3.500   1.651
 2547SOL    HW1 7776   3.467   3.542   1.563
 2547SOL    HW2 7777   3.566   3.441   1.644
 2548SOL     OW 7778   3.013   3.118   1.104
 2548SOL    HW1 7779   2.950   3.139   1.179
 2548SOL    HW2 7780   2.974   3.152   1.018
 2549SOL     OW 7781   3.456   2.960   1.090
 2549SOL    HW1 7782   3.451   3.030   1.160
 2549SOL    HW2 7783   3.387   2.977   1.020
 2550SOL     OW 7784   2.789   1.929   1.383
 2550SOL    HW1 7785   2.807   1.911   1.286
 2550SOL    HW2 7786   2.868   1.975   1.424
 2551SOL     OW 7787   2.833   2.990   1.710
 2551SOL    HW1 7788   2.741   3.013   1.741
 2551SOL    HW2 7789   2.832   2.899   1.669
 2552SOL     OW 7790   2.611   2.907   0.394
 2552SOL    HW1 7791   2.599   2.878   0.489
 2552SOL    HW2 7792   2.683   2.852   0.352
 2553SOL     OW 7793   2.304   2.674   1.270
 2553SOL    HW1 7794   2.377   2.683   1.339
 2553SOL    HW2 7795   2.268   2.581   1.273
 2554SOL     OW 7796   3.114   2.220   1.292
 2554SOL    HW1 7797   3.139   2.306   1.338
 2554SOL    HW2 7798   3.021   2.228   1.255
 2555SOL     OW 7799   1.924   3.417   1.347
 2555SOL    HW1 7800   1.880   3.488   1.293
 2555SOL    HW2 7801   2.023   3.426   1.341
 2556SOL     OW 7802   2.185   3.029   0.492
 2556SOL    HW1 7803   2.176   3.103   0.425
 2556SOL    HW2 7804   2.182   2.941   0.446
 2557SOL     OW 7805   2.392   2.394   0.870
 2557SOL    HW1 7806   2.403   2.453   0.790
 2557SOL    HW2 7807   2.465   2.411   0.935
 2558SOL     OW 7808   3.116   3.228   0.448
 2558SOL    HW1 7809   3.175   3.306   0.467
 2558SOL    HW2 7810   3.021   3.252   0.468
 2559SOL     OW 7811   3.179   3.335   1.135
 2559SOL    HW1 7812   3.224   3.345   1.224
 2559SOL    HW2 7813   3.120   3.254   1.136
 2560SOL     OW 7814   3.451   2.503   0.473
 2560SOL    HW1 7815   3.396   2.543   0.546
 2560SOL    HW2 7816   3.519   2.570   0.442
 2561SOL     OW 7817   2.197   3.414   1.290
 2561SOL    HW1 7818   2.191   3.352   1.211
 2561SOL    HW2 7819   2.293   3.437   1.307
 2562SOL     OW 7820   2.298   2.610   1.626
 2562SOL    HW1 7821   2.363   2.651   1.563
 2562SOL    HW2 7822   2.333   2.522   1.659
 2563SOL     OW 7823   3.489   2.657   1.692
 2563SOL    HW1 7824   3.394   2.690   1.686
 2563SOL    HW2 7825   3.543   2.695   1.617
 2564SOL     OW 7826   2.869   1.998   1.774
 2564SOL    HW1 7827   2.925   2.076   1.747
 2564SOL    HW2 7828   2.913   1.913   1.744
 2565SOL     OW 7829   2.349   1.870   1.756
 2565SOL    HW1 7830   2.294   1.826   1.685
 2565SOL    HW2 7831   2.304   1.955   1.785
 2566SOL     OW 7832   2.459   2.731   1.047
 2566SOL    HW1 7833   2.497   2.824   1.043
 2566SOL    HW2 7834   2.402   2.721   1.128
 2567SOL     OW 7835   3.153   2.722   0.978
 2567SOL    HW1 7836   3.060   2.690   0.962
 2567SOL    HW2 7837   3.217   2.646   0.964
 2568SOL     OW 7838   3.028   2.362   0.249
 2568SOL    HW1 7839   3.058   2.291   0.312
 2568SOL    HW2 7840   2.988   2.438   0.300
 2569SOL     OW 7841   2.156   2.049   1.236
 2569SOL    HW1 7842   2.128   2.084   1.326
 2569SOL    HW2 7843   2.131   1.953   1.228
 2570SOL     OW 7844   1.920   3.151   1.276
 2570SOL    HW1 7845   1.945   3.098   1.357
 2570SOL    HW2 7846   1.913   3.248   1.301
 2571SOL     OW 7847   2.582   2.480   1.053
 2571SOL    HW1 7848   2.656   2.460   0.989
 2571SOL    HW2 7849   2.548   2.572   1.037
 2572SOL     OW 7850   3.616   2.837   1.864
 2572SOL    HW1 7851   3.574   2.763   1.811
 2572SOL    HW2 7852   3.553   2.865   1.936
 2573SOL     OW 7853   2.188   1.928   0.634
 2573SOL    HW1 7854   2.149   2.018   0.652
 2573SOL    HW2 7855   2.196   1.877   0.720
 2574SOL     OW 7856   3.490   2.290   0.304
 2574SOL    HW1 7857   3.539   2.220   0.356
 2574SOL    HW2 7858   3.462   2.364   0.366
 2575SOL     OW 7859   2.889   2.616   0.948
 2575SOL    HW1 7860   2.867   2.636   1.043
 2575SOL    HW2 7861   2.859   2.523   0.926
 2576SOL     OW 7862   2.836   3.480   1.694
 2576SOL    HW1 7863   2.831   3.507   1.597
 2576SOL    HW2 7864   2.863   3.384   1.700
 2577SOL     OW 7865   3.711   3.350   1.594
 2577SOL    HW1 7866   3.734   3.374   1.500
 2577SOL    HW2 7867   3.790   3.365   1.653
 2578SOL     OW 7868   2.221   2.775   1.833
 2578SOL    HW1 7869   2.306   2.808   1.874
 2578SOL    HW2 7870   2.242   2.715   1.756
 2579SOL     OW 7871   3.373   2.165   0.088
 2579SOL    HW1 7872   3.328   2.079   0.116
 2579SOL    HW2 7873   3.415   2.208   0.167
 2580SOL     OW 7874   3.198   2.648   0.034
 2580SOL    HW1 7875   3.201   2.548   0.031
 2580SOL    HW2 7876   3.267   2.685   5.489
 2581SOL     OW 7877   2.930   3.229   0.864
 2581SOL    HW1 7878   2.950   3.148   0.808
 2581SOL    HW2 7879   2.987   3.305   0.832
 2582SOL     OW 7880   2.197   2.673   0.940
 2582SOL    HW1 7881   2.296   2.688   0.951
 2582SOL    HW2 7882   2.175   2.580   0.968
 2583SOL     OW 7883   2.162   2.399   1.006
 2583SOL    HW1 7884   2.119   2.309   0.999
 2583SOL    HW2 7885   2.246   2.400   0.951
 2584SOL     OW 7886   2.996   2.226   1.693
 2584SOL    HW1 7887   2.948   2.280   1.763
 2584SOL    HW2 7888   3.084   2.268   1.673
 2585SOL     OW 7889   3.017   2.047   1.484
 2585SOL    HW1 7890   3.001   2.111   1.559
 2585SOL    HW2 7891   3.062   2.094   1.409
 2586SOL     OW 7892   1.882   3.149   0.182
 2586SOL    HW1 7893   1.787   3.174   0.163
 2586SOL    HW2 7894   1.885   3.056   0.218
 2587SOL     OW 7895   1.958   3.623   0.960
 2587SOL    HW1 7896   1.914   3.547   0.911
 2587SOL    HW2 7897   2.049   3.639   0.921
 2588SOL     OW 7898   2.341   3.414   0.895
 2588SOL    HW1 7899   2.411   3.475   0.930
 2588SOL    HW2 7900   2.381   3.355   0.825
 2589SOL     OW 7901   2.790   2.649   1.200
 2589SOL    HW1 7902   2.839   2.624   1.283
 2589SOL    HW2 7903   2.704   2.598   1.196
 2590SOL     OW 7904   1.906   2.455   1.132
 2590SOL    HW1 7905   1.988   2.449   1.075
 2590SOL    HW2 7906   1.931   2.440   1.228
 2591SOL     OW 7907   2.058   2.403   1.732
 2591SOL    HW1 7908   2.114   2.349   1.669
 2591SOL    HW2 7909   2.023   2.483   1.684
 2592SOL     OW 7910   3.251   2.779   1.628
 2592SOL    HW1 7911   3.271   2.877   1.629
 2592SOL    HW2 7912   3.239   2.748   1.534
 2593SOL     OW 7913   2.653   2.409   0.365
 2593SOL    HW1 7914   2.657   2.320   0.321
 2593SOL    HW2 7915   2.570   2.457   0.336
 2594SOL     OW 7916   3.501   2.475   1.144
 2594SOL    HW1 7917   3.476   2.411   1.216
 2594SOL    HW2 7918   3.600   2.471   1.127
 2595SOL     OW 7919   2.089   3.399   1.702
 2595SOL    HW1 7920   2.071   3.476   1.763
 2595SOL    HW2 7921   2.099   3.316   1.756
 2596SOL     OW 7922   2.593   2.280   1.246
 2596SOL    HW1 7923   2.531   2.203   1.232
 2596SOL    HW2 7924   2.576   2.350   1.176
 2597SOL     OW 7925   2.836   3.532   1.419
 2597SOL    HW1 7926   2.796   3.479   1.344
 2597SOL    HW2 7927   2.815   3.629   1.405
 2598SOL     OW 7928   2.277   2.337   0.155
 2598SOL    HW1 7929   2.333   2.413   0.189
 2598SOL    HW2 7930   2.188   2.372   0.128
 2599SOL     OW 7931   1.990   3.003   1.503
 2599SOL    HW1 7932   1.998   2.975   1.598
 2599SOL    HW2 7933   2.022   2.929   1.444
 2600SOL     OW 7934   3.138   2.892   1.194
 2600SOL    HW1 7935   3.148   2.828   1.118
 2600SOL    HW2 7936   3.094   2.976   1.161
 2601SOL     OW 7937   3.193   2.719   0.302
 2601SOL    HW1 7938   3.113   2.684   0.351
 2601SOL    HW2 7939   3.189   2.687   0.207
 2602SOL     OW 7940   3.621   3.569   1.148
 2602SOL    HW1 7941   3.695   3.597   1.087
 2602SOL    HW2 7942   3.593   3.476   1.126
 2603SOL     OW 7943   3.135   3.593   1.056
 2603SOL    HW1 7944   3.224   3.638   1.057
 2603SOL    HW2 7945   3.144   3.501   1.095
 2604SOL     OW 7946   1.986   3.077   1.026
 2604SOL    HW1 7947   1.957   3.105   1.117
 2604SOL    HW2 7948   1.911   3.028   0.981
 2605SOL     OW 7949   2.575   3.543   1.776
 2605SOL    HW1 7950   2.526   3.627   1.752
 2605SOL    HW2 7951   2.671   3.552   1.750
 2606SOL     OW 7952   2.797   1.921   0.069
 2606SOL    HW1 7953   2.818   1.895   5.492
 2606SOL    HW2 7954   2.866   1.881   0.130
 2607SOL     OW 7955   3.627   2.092   0.443
 2607SOL    HW1 7956   3.686   2.059   0.370
 2607SOL    HW2 7957   3.580   2.014   0.485
 2608SOL     OW 7958   3.269   3.452   0.506
 2608SOL    HW1 7959   3.333   3.485   0.436
 2608SOL    HW2 7960   3.208   3.527   0.533
 2609SOL     OW 7961   2.013   3.625   1.842
 2609SOL    HW1 7962   1.956   3.558   1.888
 2609SOL    HW2 7963   2.069   3.673   1.909
 2610SOL     OW 7964   3.144   2.801   0.642
 2610SOL    HW1 7965   3.219   2.737   0.662
 2610SOL    HW2 7966   3.182   2.884   0.601
 2611SOL     OW 7967   2.618   3.135   1.427
 2611SOL    HW1 7968   2.601   3.198   1.503
 2611SOL    HW2 7969   2.547   3.147   1.358
 2612SOL     OW 7970   2.553   3.472   0.163
 2612SOL    HW1 7971   2.610   3.470   0.081
 2612SOL    HW2 7972   2.489   3.396   0.162
 2613SOL     OW 7973   3.473   3.596   1.386
 2613SOL    HW1 7974   3.527   3.587   1.301
 2613SOL    HW2 7975   3.454   3.692   1.402
 2614SOL     OW 7976   3.701   2.010   0.969
 2614SOL    HW1 7977   3.733   1.919   0.942
 2614SOL    HW2 7978   3.612   2.028   0.927
 2615SOL     OW 7979   2.093   2.174   0.707
 2615SOL    HW1 7980   2.006   2.215   0.680
 2615SOL    HW2 7981   2.100   2.172   0.807
 2616SOL     OW 7982   3.103   3.451   0.059
 2616SOL    HW1 7983   3.090   3.356   0.089
 2616SOL    HW2 7984   3.050   3.468   5.494
 2617SOL     OW 7985   2.679   2.871   1.400
 2617SOL    HW1 7986   2.728   2.861   1.314
 2617SOL    HW2 7987   2.657   2.967   1.415
 2618SOL     OW 7988   2.786   2.744   0.258
 2618SOL    HW1 7989   2.854   2.778   0.192
 2618SOL    HW2 7990   2.830   2.677   0.319
 2619SOL     OW 7991   3.362   3.525   0.075
 2619SOL    HW1 7992   3.267   3.494   0.069
 2619SOL    HW2 7993   3.406   3.518   5.503
 2620SOL     OW 7994   2.223   3.171   1.474
 2620SOL    HW1 7995   2.210   3.253   1.418
 2620SOL    HW2 7996   2.138   3.118   1.477
 2621SOL     OW 7997   3.462   3.156   1.292
 2621SOL    HW1 7998   3.517   3.127   1.370
 2621SOL    HW2 7999   3.397   3.227   1.321
 2622SOL     OW 8000   2.954   2.981   0.750
 2622SOL    HW1 8001   2.873   2.933   0.785
 2622SOL    HW2 8002   3.016   2.915   0.708
 2623SOL     OW 8003   2.894   2.104   0.950
 2623SOL    HW1 8004   2.891   2.066   0.857
 2623SOL    HW2 8005   2.895   2.030   1.017
 2624SOL     OW 8006   2.471   3.353   0.463
 2624SOL    HW1 8007   2.527   3.294   0.405
 2624SOL    HW2 8008   2.403   3.400   0.406
 2625SOL     OW 8009   3.636   2.215   1.411
 2625SOL    HW1 8010   3.702   2.291   1.405
 2625SOL    HW2 8011   3.661   2.145   1.344
 2626SOL     OW 8012   2.129   3.216   0.292
 2626SOL    HW1 8013   2.046   3.193   0.241
 2626SOL    HW2 8014   2.104   3.267   0.374
 2627SOL     OW 8015   1.991   2.918   1.766
 2627SOL    HW1 8016   1.907   2.888   1.811
 2627SOL    HW2 8017   2.067   2.861   1.797
 2628SOL     OW 8018   2.555   2.048   1.503
 2628SOL    HW1 8019   2.640   2.019   1.459
 2628SOL    HW2 8020   2.575   2.078   1.596
 2629SOL     OW 8021   1.934   2.164   0.009
 2629SOL    HW1 8022   1.849   2.167   5.475
 2629SOL    HW2 8023   1.964   2.258   0.028
 2630SOL     OW 8024   3.253   2.707   1.364
 2630SOL    HW1 8025   3.195   2.769   1.312
 2630SOL    HW2 8026   3.347   2.713   1.332
 2631SOL     OW 8027   1.910   1.995   0.228
 2631SOL    HW1 8028   1.903   2.062   0.154
 2631SOL    HW2 8029   2.002   1.957   0.231
 2632SOL     OW 8030   3.075   3.199   0.169
 2632SOL    HW1 8031   2.977   3.200   0.152
 2632SOL    HW2 8032   3.092   3.197   0.268
 2633SOL     OW 8033   2.504   2.670   1.452
 2633SOL    HW1 8034   2.563   2.749   1.438
 2633SOL    HW2 8035   2.561   2.588   1.463
 2634SOL     OW 8036   3.386   3.703   1.054
 2634SOL    HW1 8037   3.413   3.765   0.980
 2634SOL    HW2 8038   3.467   3.657   1.090
 2635SOL     OW 8039   2.537   2.399   1.749
 2635SOL    HW1 8040   2.604   2.465   1.783
 2635SOL    HW2 8041   2.575   2.307   1.758
 2636SOL     OW 8042   3.327   3.042   1.613
 2636SOL    HW1 8043   3.309   3.064   1.709
 2636SOL    HW2 8044   3.421   3.069   1.590
 2637SOL     OW 8045   2.216   3.619   1.569
 2637SOL    HW1 8046   2.131   3.672   1.566
 2637SOL    HW2 8047   2.195   3.526   1.600
 2638SOL     OW 8048   3.502   2.738   1.249
 2638SOL    HW1 8049   3.507   2.652   1.198
 2638SOL    HW2 8050   3.488   2.814   1.186
 2639SOL     OW 8051   3.091   2.187   0.459
 2639SOL    HW1 8052   3.154   2.109   0.455
 2639SOL    HW2 8053   3.117   2.247   0.535
 2640SOL     OW 8054   2.422   2.586   0.676
 2640SOL    HW1 8055   2.474   2.671   0.666
 2640SOL    HW2 8056   2.348   2.584   0.609
 2641SOL     OW 8057   3.595   2.208   1.683
 2641SOL    HW1 8058   3.608   2.214   1.584
 2641SOL    HW2 8059   3.516   2.150   1.703
 2642SOL     OW 8060   3.614   2.792   1.493
 2642SOL    HW1 8061   3.598   2.888   1.515
 2642SOL    HW2 8062   3.578   2.773   1.401
 2643SOL     OW 8063   2.812   3.247   0.122
 2643SOL    HW1 8064   2.743   3.224   0.191
 2643SOL    HW2 8065   2.772   3.309   0.054
 2644SOL     OW 8066   2.527   3.602   0.950
 2644SOL    HW1 8067   2.501   3.698   0.942
 2644SOL    HW2 8068   2.627   3.594   0.950
 2645SOL     OW 8069   2.739   2.844   0.867
 2645SOL    HW1 8070   2.789   2.763   0.900
 2645SOL    HW2 8071   2.691   2.887   0.943
 2646SOL     OW 8072   2.961   2.788   0.056
 2646SOL    HW1 8073   2.917   2.789   5.484
 2646SOL    HW2 8074   3.052   2.748   0.048
 2647SOL     OW 8075   3.676   3.422   0.853
 2647SOL    HW1 8076   3.602   3.417   0.786
 2647SOL    HW2 8077   3.653   3.364   0.932
 2648SOL     OW 8078   2.098   3.161   1.848
 2648SOL    HW1 8079   2.046   3.079   1.822
 2648SOL    HW2 8080   2.089   3.176   1.946
 2649SOL     OW 8081   2.010   3.105   0.699
 2649SOL    HW1 8082   2.048   3.059   0.779
 2649SOL    HW2 8083   2.064   3.081   0.618
 2650SOL     OW 8084   2.547   3.307   1.628
 2650SOL    HW1 8085   2.462   3.267   1.663
 2650SOL    HW2 8086   2.564   3.394   1.675
 2651SOL     OW 8087   3.696   2.014   1.243
 2651SOL    HW1 8088   3.745   1.930   1.265
 2651SOL    HW2 8089   3.692   2.025   1.143
 2652SOL     OW 8090   2.272   2.289   0.512
 2652SOL    HW1 8091   2.319   2.222   0.456
 2652SOL    HW2 8092   2.218   2.243   0.582
 2653SOL     OW 8093   3.553   3.313   1.079
 2653SOL    HW1 8094   3.476   3.296   1.018
 2653SOL    HW2 8095   3.547   3.253   1.159
 2654SOL     OW 8096   2.224   2.411   1.284
 2654SOL    HW1 8097   2.279   2.345   1.335
 2654SOL    HW2 8098   2.224   2.386   1.188
 2655SOL     OW 8099   2.685   3.456   0.677
 2655SOL    HW1 8100   2.654   3.525   0.611
 2655SOL    HW2 8101   2.613   3.387   0.689
 2656SOL     OW 8102   3.284   2.107   1.112
 2656SOL    HW1 8103   3.307   2.011   1.132
 2656SOL    HW2 8104   3.230   2.145   1.187
 2657SOL     OW 8105   2.887   1.874   1.112
 2657SOL    HW1 8106   2.831   1.811   1.058
 2657SOL    HW2 8107   2.980   1.839   1.117
 2658SOL     OW 8108   2.658   3.181   0.347
 2658SOL    HW1 8109   2.640   3.084   0.364
 2658SOL    HW2 8110   2.736   3.210   0.404
 2659SOL     OW 8111   2.474   3.454   1.289
 2659SOL    HW1 8112   2.467   3.545   1.330
 2659SOL    HW2 8113   2.569   3.438   1.259
 2660SOL     OW 8114   3.245   1.915   0.175
 2660SOL    HW1 8115   3.297   1.840   0.134
 2660SOL    HW2 8116   3.149   1.888   0.183
 2661SOL     OW 8117   3.151   2.345   0.673
 2661SOL    HW1 8118   3.099   2.431   0.666
 2661SOL    HW2 8119   3.149   2.313   0.768
 2662SOL     OW 8120   3.446   2.066   0.891
 2662SOL    HW1 8121   3.389   2.093   0.968
 2662SOL    HW2 8122   3.448   2.140   0.824
 2663SOL     OW 8123   1.912   2.893   0.302
 2663SOL    HW1 8124   2.011   2.881   0.308
 2663SOL    HW2 8125   1.867   2.806   0.322
 2664SOL     OW 8126   2.767   3.549   0.340
 2664SOL    HW1 8127   2.690   3.520   0.282
 2664SOL    HW2 8128   2.736   3.619   0.403
 2665SOL     OW 8129   2.087   2.465   1.997
 2665SOL    HW1 8130   1.998   2.449   2.041
 2665SOL    HW2 8131   2.076   2.463   1.898
 2666SOL     OW 8132   1.797   2.252   2.510
 2666SOL    HW1 8133   1.706   2.287   2.530
 2666SOL    HW2 8134   1.790   2.180   2.440
 2667SOL     OW 8135   3.088   2.545   2.527
 2667SOL    HW1 8136   3.109   2.642   2.515
 2667SOL    HW2 8137   3.112   2.518   2.620
 2668SOL     OW 8138   3.662   2.420   2.071
 2668SOL    HW1 8139   3.620   2.431   1.981
 2668SOL    HW2 8140   3.608   2.356   2.125
 2669SOL     OW 8141   2.721   2.604   3.775
 2669SOL    HW1 8142   2.727   2.647   3.866
 2669SOL    HW2 8143   2.739   2.672   3.705
 2670SOL     OW 8144   2.555   2.988   3.722
 2670SOL    HW1 8145   2.630   3.045   3.755
 2670SOL    HW2 8146   2.488   3.046   3.675
 2671SOL     OW 8147   2.089   3.417   2.898
 2671SOL    HW1 8148   2.012   3.395   2.838
 2671SOL    HW2 8149   2.175   3.408   2.847
 2672SOL     OW 8150   3.382   3.337   3.286
 2672SOL    HW1 8151   3.437   3.419   3.273
 2672SOL    HW2 8152   3.297   3.361   3.332
 2673SOL     OW 8153   2.249   2.302   3.475
 2673SOL    HW1 8154   2.315   2.273   3.545
 2673SOL    HW2 8155   2.185   2.227   3.456
 2674SOL     OW 8156   3.473   2.296   2.621
 2674SOL    HW1 8157   3.401   2.298   2.552
 2674SOL    HW2 8158   3.450   2.359   2.695
 2675SOL     OW 8159   2.102   3.557   2.324
 2675SOL    HW1 8160   2.108   3.634   2.387
 2675SOL    HW2 8161   2.179   3.559   2.261
 2676SOL     OW 8162   3.000   3.225   3.532
 2676SOL    HW1 8163   3.009   3.180   3.621
 2676SOL    HW2 8164   3.048   3.171   3.463
 2677SOL     OW 8165   2.170   3.290   2.379
 2677SOL    HW1 8166   2.139   3.385   2.374
 2677SOL    HW2 8167   2.173   3.261   2.474
 2678SOL     OW 8168   2.078   3.155   2.714
 2678SOL    HW1 8169   2.163   3.156   2.767
 2678SOL    HW2 8170   2.000   3.164   2.776
 2679SOL     OW 8171   2.398   3.715   3.260
 2679SOL    HW1 8172   2.326   3.683   3.322
 2679SOL    HW2 8173   2.450   3.788   3.305
 2680SOL     OW 8174   2.463   2.847   1.957
 2680SOL    HW1 8175   2.492   2.925   1.901
 2680SOL    HW2 8176   2.543   2.805   1.999
 2681SOL     OW 8177   3.431   1.991   3.339
 2681SOL    HW1 8178   3.475   2.070   3.296
 2681SOL    HW2 8179   3.404   2.015   3.432
 2682SOL     OW 8180   1.990   2.442   2.431
 2682SOL    HW1 8181   1.916   2.379   2.454
 2682SOL    HW2 8182   1.985   2.523   2.490
 2683SOL     OW 8183   1.886   3.427   1.972
 2683SOL    HW1 8184   1.864   3.332   1.990
 2683SOL    HW2 8185   1.875   3.481   2.056
 2684SOL     OW 8186   3.592   2.805   2.531
 2684SOL    HW1 8187   3.677   2.754   2.519
 2684SOL    HW2 8188   3.563   2.842   2.443
 2685SOL     OW 8189   3.535   2.965   2.298
 2685SOL    HW1 8190   3.618   2.938   2.249
 2685SOL    HW2 8191   3.557   3.037   2.364
 2686SOL     OW 8192   1.968   2.647   3.436
 2686SOL    HW1 8193   2.035   2.696   3.492
 2686SOL    HW2 8194   1.897   2.711   3.406
 2687SOL     OW 8195   3.159   3.104   3.348
 2687SOL    HW1 8196   3.196   3.145   3.264
 2687SOL    HW2 8197   3.235   3.068   3.403
 2688SOL     OW 8198   2.647   1.903   2.224
 2688SOL    HW1 8199   2.719   1.969   2.246
 2688SOL    HW2 8200   2.562   1.931   2.268
 2689SOL     OW 8201   3.411   2.895   2.057
 2689SOL    HW1 8202   3.343   2.825   2.076
 2689SOL    HW2 8203   3.453   2.924   2.143
 2690SOL     OW 8204   3.145   3.727   3.493
 2690SOL    HW1 8205   3.089   3.781   3.431
 2690SOL    HW2 8206   3.143   3.631   3.466
 2691SOL     OW 8207   2.220   2.120   3.729
 2691SOL    HW1 8208   2.260   2.196   3.782
 2691SOL    HW2 8209   2.122   2.135   3.719
 2692SOL     OW 8210   3.202   2.218   2.758
 2692SOL    HW1 8211   3.204   2.314   2.783
 2692SOL    HW2 8212   3.228   2.163   2.838
 2693SOL     OW 8213   2.739   2.451   3.458
 2693SOL    HW1 8214   2.668   2.451   3.528
 2693SOL    HW2 8215   2.698   2.428   3.369
 2694SOL     OW 8216   3.210   2.284   3.562
 2694SOL    HW1 8217   3.219   2.343   3.642
 2694SOL    HW2 8218   3.274   2.207   3.570
 2695SOL     OW 8219   3.022   2.574   2.262
 2695SOL    HW1 8220   3.044   2.552   2.357
 2695SOL    HW2 8221   2.953   2.647   2.260
 2696SOL     OW 8222   1.955   3.755   3.468
 2696SOL    HW1 8223   1.965   3.715   3.559
 2696SOL    HW2 8224   1.861   3.742   3.436
 2697SOL     OW 8225   2.803   2.129   2.012
 2697SOL    HW1 8226   2.822   2.220   1.977
 2697SOL    HW2 8227   2.827   2.061   1.942
 2698SOL     OW 8228   3.527   2.416   3.696
 2698SOL    HW1 8229   3.518   2.502   3.646
 2698SOL    HW2 8230   3.558   2.344   3.633
 2699SOL     OW 8231   3.265   3.031   2.373
 2699SOL    HW1 8232   3.352   3.011   2.328
 2699SOL    HW2 8233   3.217   3.103   2.322
 2700SOL     OW 8234   2.332   1.949   2.866
 2700SOL    HW1 8235   2.418   1.973   2.910
 2700SOL    HW2 8236   2.332   1.984   2.772
 2701SOL     OW 8237   2.867   3.257   2.295
 2701SOL    HW1 8238   2.824   3.344   2.268
 2701SOL    HW2 8239   2.879   3.256   2.394
 2702SOL     OW 8240   2.181   3.676   2.738
 2702SOL    HW1 8241   2.227   3.588   2.739
 2702SOL    HW2 8242   2.245   3.748   2.764
 2703SOL     OW 8243   3.674   2.896   2.776
 2703SOL    HW1 8244   3.635   2.880   2.686
 2703SOL    HW2 8245   3.601   2.900   2.844
 2704SOL     OW 8246   3.133   3.428   3.377
 2704SOL    HW1 8247   3.089   3.369   3.445
 2704SOL    HW2 8248   3.090   3.415   3.288
 2705SOL     OW 8249   2.254   2.778   2.130
 2705SOL    HW1 8250   2.336   2.816   2.088
 2705SOL    HW2 8251   2.190   2.750   2.058
 2706SOL     OW 8252   3.379   2.628   2.580
 2706SOL    HW1 8253   3.341   2.594   2.666
 2706SOL    HW2 8254   3.458   2.686   2.599
 2707SOL     OW 8255   2.357   3.155   3.609
 2707SOL    HW1 8256   2.333   3.156   3.512
 2707SOL    HW2 8257   2.274   3.160   3.664
 2708SOL     OW 8258   3.019   3.719   2.030
 2708SOL    HW1 8259   3.048   3.711   2.125
 2708SOL    HW2 8260   3.030   3.631   1.984
 2709SOL     OW 8261   2.049   2.121   3.415
 2709SOL    HW1 8262   1.974   2.181   3.443
 2709SOL    HW2 8263   2.030   2.028   3.447
 2710SOL     OW 8264   3.491   3.242   1.954
 2710SOL    HW1 8265   3.453   3.333   1.939
 2710SOL    HW2 8266   3.424   3.173   1.926
 2711SOL     OW 8267   2.330   3.591   2.173
 2711SOL    HW1 8268   2.370   3.653   2.241
 2711SOL    HW2 8269   2.402   3.539   2.129
 2712SOL     OW 8270   3.274   1.926   2.303
 2712SOL    HW1 8271   3.278   1.907   2.204
 2712SOL    HW2 8272   3.365   1.912   2.343
 2713SOL     OW 8273   2.133   3.626   3.074
 2713SOL    HW1 8274   2.209   3.598   3.134
 2713SOL    HW2 8275   2.116   3.556   3.006
 2714SOL     OW 8276   2.751   3.573   2.748
 2714SOL    HW1 8277   2.738   3.503   2.818
 2714SOL    HW2 8278   2.717   3.539   2.660
 2715SOL     OW 8279   3.367   2.055   3.605
 2715SOL    HW1 8280   3.389   2.085   3.698
 2715SOL    HW2 8281   3.303   1.978   3.609
 2716SOL     OW 8282   2.517   1.971   1.969
 2716SOL    HW1 8283   2.584   1.929   2.029
 2716SOL    HW2 8284   2.483   1.903   1.904
 2717SOL     OW 8285   2.603   2.162   3.687
 2717SOL    HW1 8286   2.677   2.133   3.626
 2717SOL    HW2 8287   2.568   2.082   3.737
 2718SOL     OW 8288   3.181   2.424   3.328
 2718SOL    HW1 8289   3.198   2.381   3.416
 2718SOL    HW2 8290   3.237   2.507   3.320
 2719SOL     OW 8291   2.386   1.967   2.304
 2719SOL    HW1 8292   2.383   1.999   2.398
 2719SOL    HW2 8293   2.377   2.045   2.242
 2720SOL     OW 8294   3.282   3.071   1.884
 2720SOL    HW1 8295   3.317   3.002   1.947
 2720SOL    HW2 8296   3.195   3.107   1.919
 2721SOL     OW 8297   2.153   1.896   2.041
 2721SOL    HW1 8298   2.199   1.966   1.988
 2721SOL    HW2 8299   2.221   1.837   2.085
 2722SOL     OW 8300   2.862   2.074   2.267
 2722SOL    HW1 8301   2.834   2.096   2.174
 2722SOL    HW2 8302   2.954   2.107   2.284
 2723SOL     OW 8303   2.957   2.587   3.351
 2723SOL    HW1 8304   2.884   2.540   3.401
 2723SOL    HW2 8305   3.033   2.523   3.336
 2724SOL     OW 8306   2.884   2.368   1.899
 2724SOL    HW1 8307   2.837   2.454   1.885
 2724SOL    HW2 8308   2.955   2.380   1.969
 2725SOL     OW 8309   1.962   2.446   3.243
 2725SOL    HW1 8310   2.058   2.421   3.227
 2725SOL    HW2 8311   1.958   2.522   3.308
 2726SOL     OW 8312   2.905   1.909   2.486
 2726SOL    HW1 8313   2.878   1.960   2.403
 2726SOL    HW2 8314   2.931   1.974   2.557
 2727SOL     OW 8315   3.343   2.993   2.698
 2727SOL    HW1 8316   3.261   2.949   2.660
 2727SOL    HW2 8317   3.395   3.035   2.624
 2728SOL     OW 8318   3.678   2.632   2.242
 2728SOL    HW1 8319   3.741   2.598   2.312
 2728SOL    HW2 8320   3.670   2.564   2.169
 2729SOL     OW 8321   2.355   3.249   2.003
 2729SOL    HW1 8322   2.268   3.235   2.049
 2729SOL    HW2 8323   2.351   3.210   1.911
 2730SOL     OW 8324   3.622   3.153   2.470
 2730SOL    HW1 8325   3.709   3.120   2.507
 2730SOL    HW2 8326   3.637   3.240   2.423
 2731SOL     OW 8327   3.253   2.439   1.899
 2731SOL    HW1 8328   3.204   2.403   1.978
 2731SOL    HW2 8329   3.352   2.432   1.915
 2732SOL     OW 8330   2.389   2.158   2.115
 2732SOL    HW1 8331   2.444   2.092   2.064
 2732SOL    HW2 8332   2.359   2.231   2.054
 2733SOL     OW 8333   3.625   3.087   3.441
 2733SOL    HW1 8334   3.719   3.060   3.417
 2733SOL    HW2 8335   3.622   3.186   3.454
 2734SOL     OW 8336   3.494   3.514   3.552
 2734SOL    HW1 8337   3.463   3.557   3.467
 2734SOL    HW2 8338   3.568   3.450   3.531
 2735SOL     OW 8339   3.462   2.929   2.944
 2735SOL    HW1 8340   3.459   3.006   3.008
 2735SOL    HW2 8341   3.404   2.950   2.865
 2736SOL     OW 8342   2.755   2.824   3.613
 2736SOL    HW1 8343   2.678   2.883   3.639
 2736SOL    HW2 8344   2.773   2.835   3.515
 2737SOL     OW 8345   2.251   2.667   3.245
 2737SOL    HW1 8346   2.288   2.678   3.337
 2737SOL    HW2 8347   2.237   2.570   3.226
 2738SOL     OW 8348   3.233   2.307   3.087
 2738SOL    HW1 8349   3.208   2.338   3.179
 2738SOL    HW2 8350   3.256   2.385   3.030
 2739SOL     OW 8351   1.965   3.400   3.205
 2739SOL    HW1 8352   1.930   3.480   3.155
 2739SOL    HW2 8353   2.064   3.396   3.195
 2740SOL     OW 8354   2.118   2.957   2.298
 2740SOL    HW1 8355   2.155   3.048   2.280
 2740SOL    HW2 8356   2.174   2.888   2.251
 2741SOL     OW 8357   3.135   3.248   2.231
 2741SOL    HW1 8358   3.172   3.339   2.248
 2741SOL    HW2 8359   3.039   3.245   2.260
 2742SOL     OW 8360   3.453   2.491   2.349
 2742SOL    HW1 8361   3.414   2.531   2.431
 2742SOL    HW2 8362   3.519   2.555   2.308
 2743SOL     OW 8363   2.250   3.350   3.171
 2743SOL    HW1 8364   2.242   3.292   3.090
 2743SOL    HW2 8365   2.342   3.389   3.176
 2744SOL     OW 8366   2.342   2.569   3.506
 2744SOL    HW1 8367   2.424   2.555   3.561
 2744SOL    HW2 8368   2.303   2.480   3.481
 2745SOL     OW 8369   3.500   2.652   3.566
 2745SOL    HW1 8370   3.406   2.682   3.551
 2745SOL    HW2 8371   3.560   2.693   3.497
 2746SOL     OW 8372   2.802   1.988   3.502
 2746SOL    HW1 8373   2.858   2.061   3.541
 2746SOL    HW2 8374   2.855   1.902   3.501
 2747SOL     OW 8375   2.355   1.886   3.644
 2747SOL    HW1 8376   2.312   1.835   3.569
 2747SOL    HW2 8377   2.302   1.970   3.661
 2748SOL     OW 8378   2.215   2.684   2.972
 2748SOL    HW1 8379   2.300   2.666   2.924
 2748SOL    HW2 8380   2.232   2.690   3.070
 2749SOL     OW 8381   3.078   2.362   2.100
 2749SOL    HW1 8382   3.096   2.281   2.156
 2749SOL    HW2 8383   3.060   2.440   2.160
 2750SOL     OW 8384   2.022   1.999   3.160
 2750SOL    HW1 8385   2.045   2.046   3.245
 2750SOL    HW2 8386   2.068   1.910   3.159
 2751SOL     OW 8387   1.864   3.155   3.158
 2751SOL    HW1 8388   1.910   3.097   3.225
 2751SOL    HW2 8389   1.899   3.248   3.164
 2752SOL     OW 8390   3.625   2.829   3.742
 2752SOL    HW1 8391   3.582   2.759   3.686
 2752SOL    HW2 8392   3.561   2.859   3.813
 2753SOL     OW 8393   2.096   1.898   2.558
 2753SOL    HW1 8394   2.179   1.953   2.553
 2753SOL    HW2 8395   2.105   1.830   2.630
 2754SOL     OW 8396   3.480   2.258   2.204
 2754SOL    HW1 8397   3.527   2.191   2.262
 2754SOL    HW2 8398   3.453   2.336   2.260
 2755SOL     OW 8399   2.882   3.471   3.572
 2755SOL    HW1 8400   2.816   3.505   3.505
 2755SOL    HW2 8401   2.904   3.376   3.552
 2756SOL     OW 8402   3.704   3.359   3.452
 2756SOL    HW1 8403   3.715   3.386   3.356
 2756SOL    HW2 8404   3.791   3.371   3.499
 2757SOL     OW 8405   2.164   2.748   3.617
 2757SOL    HW1 8406   2.197   2.776   3.708
 2757SOL    HW2 8407   2.231   2.687   3.575
 2758SOL     OW 8408   3.381   2.121   1.980
 2758SOL    HW1 8409   3.332   2.040   2.013
 2758SOL    HW2 8410   3.413   2.176   2.058
 2759SOL     OW 8411   3.131   2.678   1.851
 2759SOL    HW1 8412   3.170   2.587   1.863
 2759SOL    HW2 8413   3.168   2.720   1.768
 2760SOL     OW 8414   2.950   2.189   3.607
 2760SOL    HW1 8415   2.917   2.255   3.674
 2760SOL    HW2 8416   3.040   2.218   3.573
 2761SOL     OW 8417   1.842   3.156   2.066
 2761SOL    HW1 8418   1.752   3.183   2.032
 2761SOL    HW2 8419   1.840   3.060   2.094
 2762SOL     OW 8420   1.913   3.643   2.798
 2762SOL    HW1 8421   1.886   3.553   2.764
 2762SOL    HW2 8422   2.011   3.656   2.781
 2763SOL     OW 8423   2.312   3.430   2.737
 2763SOL    HW1 8424   2.389   3.485   2.768
 2763SOL    HW2 8425   2.345   3.347   2.692
 2764SOL     OW 8426   1.886   2.462   2.977
 2764SOL    HW1 8427   1.943   2.527   2.926
 2764SOL    HW2 8428   1.917   2.459   3.072
 2765SOL     OW 8429   2.031   2.429   3.597
 2765SOL    HW1 8430   2.113   2.396   3.552
 2765SOL    HW2 8431   1.992   2.506   3.545
 2766SOL     OW 8432   3.260   2.764   3.498
 2766SOL    HW1 8433   3.289   2.859   3.498
 2766SOL    HW2 8434   3.244   2.734   3.404
 2767SOL     OW 8435   3.539   2.453   3.107
 2767SOL    HW1 8436   3.463   2.474   3.046
 2767SOL    HW2 8437   3.624   2.448   3.054
 2768SOL     OW 8438   2.092   3.403   3.572
 2768SOL    HW1 8439   2.065   3.481   3.628
 2768SOL    HW2 8440   2.110   3.324   3.631
 2769SOL     OW 8441   2.689   3.564   3.382
 2769SOL    HW1 8442   2.635   3.511   3.317
 2769SOL    HW2 8443   2.723   3.647   3.337
 2770SOL     OW 8444   2.323   2.334   1.921
 2770SOL    HW1 8445   2.390   2.377   1.862
 2770SOL    HW2 8446   2.251   2.400   1.945
 2771SOL     OW 8447   1.999   2.985   3.343
 2771SOL    HW1 8448   2.002   3.001   3.442
 2771SOL    HW2 8449   1.927   2.919   3.323
 2772SOL     OW 8450   3.215   2.717   2.110
 2772SOL    HW1 8451   3.160   2.664   2.175
 2772SOL    HW2 8452   3.177   2.707   2.019
 2773SOL     OW 8453   3.648   3.573   3.001
 2773SOL    HW1 8454   3.712   3.611   2.935
 2773SOL    HW2 8455   3.582   3.515   2.954
 2774SOL     OW 8456   3.058   3.618   3.036
 2774SOL    HW1 8457   3.150   3.652   3.016
 2774SOL    HW2 8458   3.061   3.519   3.052
 2775SOL     OW 8459   1.845   3.150   2.868
 2775SOL    HW1 8460   1.841   3.156   2.968
 2775SOL    HW2 8461   1.824   3.056   2.840
 2776SOL     OW 8462   2.550   3.582   3.620
 2776SOL    HW1 8463   2.477   3.650   3.613
 2776SOL    HW2 8464   2.606   3.585   3.538
 2777SOL     OW 8465   3.638   2.069   2.331
 2777SOL    HW1 8466   3.690   2.049   2.248
 2777SOL    HW2 8467   3.597   1.985   2.366
 2778SOL     OW 8468   2.001   3.627   3.706
 2778SOL    HW1 8469   1.948   3.557   3.753
 2778SOL    HW2 8470   2.054   3.679   3.774
 2779SOL     OW 8471   3.178   2.804   2.504
 2779SOL    HW1 8472   3.262   2.751   2.517
 2779SOL    HW2 8473   3.198   2.885   2.449
 2780SOL     OW 8474   2.525   3.455   2.027
 2780SOL    HW1 8475   2.541   3.488   1.934
 2780SOL    HW2 8476   2.465   3.375   2.024
 2781SOL     OW 8477   3.507   3.580   3.252
 2781SOL    HW1 8478   3.545   3.582   3.160
 2781SOL    HW2 8479   3.491   3.673   3.284
 2782SOL     OW 8480   3.715   2.000   2.845
 2782SOL    HW1 8481   3.747   1.908   2.821
 2782SOL    HW2 8482   3.627   2.017   2.802
 2783SOL     OW 8483   3.061   3.485   1.884
 2783SOL    HW1 8484   3.052   3.394   1.924
 2783SOL    HW2 8485   2.989   3.499   1.815
 2784SOL     OW 8486   2.709   2.783   2.065
 2784SOL    HW1 8487   2.793   2.809   2.018
 2784SOL    HW2 8488   2.695   2.843   2.144
 2785SOL     OW 8489   3.352   3.475   1.890
 2785SOL    HW1 8490   3.253   3.487   1.882
 2785SOL    HW2 8491   3.395   3.491   1.801
 2786SOL     OW 8492   2.237   3.154   3.366
 2786SOL    HW1 8493   2.245   3.230   3.302
 2786SOL    HW2 8494   2.151   3.106   3.351
 2787SOL     OW 8495   3.485   3.145   3.114
 2787SOL    HW1 8496   3.583   3.136   3.131
 2787SOL    HW2 8497   3.445   3.208   3.179
 2788SOL     OW 8498   2.482   3.308   2.363
 2788SOL    HW1 8499   2.528   3.245   2.300
 2788SOL    HW2 8500   2.383   3.299   2.354
 2789SOL     OW 8501   3.573   2.215   3.259
 2789SOL    HW1 8502   3.554   2.302   3.213
 2789SOL    HW2 8503   3.630   2.158   3.201
 2790SOL     OW 8504   2.105   3.208   2.125
 2790SOL    HW1 8505   2.006   3.197   2.116
 2790SOL    HW2 8506   2.126   3.247   2.214
 2791SOL     OW 8507   1.977   2.954   3.624
 2791SOL    HW1 8508   1.890   2.928   3.667
 2791SOL    HW2 8509   2.041   2.877   3.627
 2792SOL     OW 8510   1.943   2.176   1.856
 2792SOL    HW1 8511   1.857   2.166   1.805
 2792SOL    HW2 8512   1.981   2.267   1.839
 2793SOL     OW 8513   3.295   2.663   3.240
 2793SOL    HW1 8514   3.261   2.631   3.152
 2793SOL    HW2 8515   3.386   2.704   3.227
 2794SOL     OW 8516   1.911   2.009   2.099
 2794SOL    HW1 8517   1.895   2.075   2.026
 2794SOL    HW2 8518   2.003   1.971   2.090
 2795SOL     OW 8519   3.031   3.217   1.974
 2795SOL    HW1 8520   2.934   3.196   1.986
 2795SOL    HW2 8521   3.075   3.225   2.063
 2796SOL     OW 8522   3.305   3.706   2.939
 2796SOL    HW1 8523   3.265   3.660   2.860
 2796SOL    HW2 8524   3.387   3.756   2.910
 2797SOL     OW 8525   2.545   2.435   3.651
 2797SOL    HW1 8526   2.601   2.494   3.709
 2797SOL    HW2 8527   2.562   2.339   3.675
 2798SOL     OW 8528   3.364   3.018   3.509
 2798SOL    HW1 8529   3.347   3.047   3.603
 2798SOL    HW2 8530   3.457   3.045   3.483
 2799SOL     OW 8531   2.202   3.628   3.435
 2799SOL    HW1 8532   2.116   3.677   3.427
 2799SOL    HW2 8533   2.185   3.534   3.463
 2800SOL     OW 8534   3.544   2.743   3.140
 2800SOL    HW1 8535   3.545   2.646   3.114
 2800SOL    HW2 8536   3.512   2.797   3.062
 2801SOL     OW 8537   3.122   2.155   2.289
 2801SOL    HW1 8538   3.174   2.070   2.287
 2801SOL    HW2 8539   3.157   2.214   2.363
 2802SOL     OW 8540   3.600   2.196   3.535
 2802SOL    HW1 8541   3.600   2.215   3.436
 2802SOL    HW2 8542   3.519   2.142   3.558
 2803SOL     OW 8543   3.641   2.800   3.386
 2803SOL    HW1 8544   3.623   2.895   3.410
 2803SOL    HW2 8545   3.610   2.783   3.292
 2804SOL     OW 8546   2.730   3.212   1.990
 2804SOL    HW1 8547   2.696   3.168   2.073
 2804SOL    HW2 8548   2.716   3.311   1.997
 2805SOL     OW 8549   2.488   3.621   2.824
 2805SOL    HW1 8550   2.453   3.713   2.808
 2805SOL    HW2 8551   2.583   3.616   2.793
 2806SOL     OW 8552   2.929   2.846   1.928
 2806SOL    HW1 8553   2.911   2.913   1.856
 2806SOL    HW2 8554   3.003   2.785   1.900
 2807SOL     OW 8555   2.117   3.172   3.727
 2807SOL    HW1 8556   2.055   3.101   3.694
 2807SOL    HW2 8557   2.104   3.185   3.825
 2808SOL     OW 8558   1.946   3.035   2.509
 2808SOL    HW1 8559   2.000   3.078   2.581
 2808SOL    HW2 8560   2.006   2.999   2.438
 2809SOL     OW 8561   2.580   3.308   3.659
 2809SOL    HW1 8562   2.498   3.262   3.623
 2809SOL    HW2 8563   2.576   3.405   3.635
 2810SOL     OW 8564   3.713   2.022   3.120
 2810SOL    HW1 8565   3.777   1.949   3.144
 2810SOL    HW2 8566   3.705   2.028   3.021
 2811SOL     OW 8567   2.233   2.393   3.216
 2811SOL    HW1 8568   2.249   2.354   3.307
 2811SOL    HW2 8569   2.303   2.360   3.153
 2812SOL     OW 8570   2.637   3.473   2.525
 2812SOL    HW1 8571   2.641   3.554   2.466
 2812SOL    HW2 8572   2.584   3.402   2.479
 2813SOL     OW 8573   3.316   2.080   2.976
 2813SOL    HW1 8574   3.324   2.006   3.043
 2813SOL    HW2 8575   3.290   2.164   3.023
 2814SOL     OW 8576   2.648   3.106   2.233
 2814SOL    HW1 8577   2.623   3.036   2.299
 2814SOL    HW2 8578   2.732   3.152   2.264
 2815SOL     OW 8579   2.501   3.480   3.167
 2815SOL    HW1 8580   2.469   3.572   3.190
 2815SOL    HW2 8581   2.539   3.480   3.075
 2816SOL     OW 8582   3.256   1.879   2.035
 2816SOL    HW1 8583   3.302   1.806   1.985
 2816SOL    HW2 8584   3.161   1.852   2.052
 2817SOL     OW 8585   3.216   2.297   2.499
 2817SOL    HW1 8586   3.176   2.389   2.497
 2817SOL    HW2 8587   3.204   2.258   2.590
 2818SOL     OW 8588   3.465   2.042   2.750
 2818SOL    HW1 8589   3.410   2.063   2.831
 2818SOL    HW2 8590   3.465   2.120   2.688
 2819SOL     OW 8591   1.869   2.899   2.199
 2819SOL    HW1 8592   1.960   2.923   2.233
 2819SOL    HW2 8593   1.858   2.800   2.201
 2820SOL     OW 8594   2.730   3.476   2.205
 2820SOL    HW1 8595   2.653   3.468   2.141
 2820SOL    HW2 8596   2.716   3.555   2.264
 2821SOL     OW 8597   2.063   2.451   3.869
 2821SOL    HW1 8598   1.972   2.441   3.910
 2821SOL    HW2 8599   2.053   2.465   3.770
 2822SOL     OW 8600   2.069   2.144   4.712
 2822SOL    HW1 8601   2.122   2.109   4.789
 2822SOL    HW2 8602   1.977   2.105   4.714
 2823SOL     OW 8603   1.837   2.280   4.359
 2823SOL    HW1 8604   1.752   2.303   4.407
 2823SOL    HW2 8605   1.820   2.207   4.294
 2824SOL     OW 8606   2.421   3.176   4.943
 2824SOL    HW1 8607   2.339   3.179   4.885
 2824SOL    HW2 8608   2.443   3.268   4.974
 2825SOL     OW 8609   3.452   3.390   4.412
 2825SOL    HW1 8610   3.404   3.362   4.495
 2825SOL    HW2 8611   3.386   3.404   4.338
 2826SOL     OW 8612   2.993   2.604   4.415
 2826SOL    HW1 8613   3.048   2.685   4.397
 2826SOL    HW2 8614   2.949   2.612   4.504
 2827SOL     OW 8615   3.656   2.428   3.932
 2827SOL    HW1 8616   3.615   2.432   3.841
 2827SOL    HW2 8617   3.606   2.362   3.988
 2828SOL     OW 8618   2.570   2.998   4.774
 2828SOL    HW1 8619   2.509   3.032   4.845
 2828SOL    HW2 8620   2.612   3.075   4.726
 2829SOL     OW 8621   2.709   2.595   0.028
 2829SOL    HW1 8622   2.724   2.643   0.115
 2829SOL    HW2 8623   2.747   2.650   5.471
 2830SOL     OW 8624   2.549   2.829   4.385
 2830SOL    HW1 8625   2.621   2.833   4.454
 2830SOL    HW2 8626   2.480   2.899   4.403
 2831SOL     OW 8627   2.204   3.260   4.792
 2831SOL    HW1 8628   2.127   3.209   4.753
 2831SOL    HW2 8629   2.248   3.315   4.721
 2832SOL     OW 8630   3.301   3.375   5.089
 2832SOL    HW1 8631   3.365   3.451   5.101
 2832SOL    HW2 8632   3.222   3.388   5.148
 2833SOL     OW 8633   2.352   2.225   5.161
 2833SOL    HW1 8634   2.431   2.165   5.180
 2833SOL    HW2 8635   2.270   2.184   5.199
 2834SOL     OW 8636   3.474   2.329   4.477
 2834SOL    HW1 8637   3.458   2.371   4.388
 2834SOL    HW2 8638   3.430   2.384   4.548
 2835SOL     OW 8639   2.094   3.600   4.191
 2835SOL    HW1 8640   2.114   3.671   4.258
 2835SOL    HW2 8641   2.170   3.592   4.127
 2836SOL     OW 8642   2.109   3.328   4.238
 2836SOL    HW1 8643   2.094   3.427   4.243
 2836SOL    HW2 8644   2.067   3.283   4.317
 2837SOL     OW 8645   2.190   2.946   4.622
 2837SOL    HW1 8646   2.185   2.848   4.643
 2837SOL    HW2 8647   2.121   2.995   4.675
 2838SOL     OW 8648   2.437   3.687   5.139
 2838SOL    HW1 8649   2.353   3.673   5.191
 2838SOL    HW2 8650   2.487   3.765   5.177
 2839SOL     OW 8651   2.429   2.836   3.921
 2839SOL    HW1 8652   2.467   2.878   3.839
 2839SOL    HW2 8653   2.481   2.865   4.001
 2840SOL     OW 8654   3.581   1.947   5.228
 2840SOL    HW1 8655   3.610   1.987   5.141
 2840SOL    HW2 8656   3.560   2.021   5.292
 2841SOL     OW 8657   1.961   2.537   4.304
 2841SOL    HW1 8658   1.925   2.446   4.326
 2841SOL    HW2 8659   1.961   2.593   4.387
 2842SOL     OW 8660   3.718   3.615   4.048
 2842SOL    HW1 8661   3.796   3.602   4.108
 2842SOL    HW2 8662   3.720   3.707   4.010
 2843SOL     OW 8663   1.892   3.423   3.844
 2843SOL    HW1 8664   1.872   3.327   3.864
 2843SOL    HW2 8665   1.877   3.478   3.926
 2844SOL     OW 8666   3.571   2.795   4.395
 2844SOL    HW1 8667   3.662   2.752   4.395
 2844SOL    HW2 8668   3.556   2.842   4.308
 2845SOL     OW 8669   3.537   2.976   4.175
 2845SOL    HW1 8670   3.625   2.959   4.132
 2845SOL    HW2 8671   3.549   3.041   4.250
 2846SOL     OW 8672   2.055   2.581   5.352
 2846SOL    HW1 8673   2.154   2.593   5.346
 2846SOL    HW2 8674   2.010   2.670   5.362
 2847SOL     OW 8675   2.484   3.259   4.433
 2847SOL    HW1 8676   2.444   3.168   4.439
 2847SOL    HW2 8677   2.472   3.295   4.341
 2848SOL     OW 8678   3.087   3.102   5.183
 2848SOL    HW1 8679   3.115   3.035   5.115
 2848SOL    HW2 8680   3.133   3.083   5.270
 2849SOL     OW 8681   2.690   1.879   4.235
 2849SOL    HW1 8682   2.737   1.962   4.207
 2849SOL    HW2 8683   2.592   1.898   4.244
 2850SOL     OW 8684   2.066   2.811   4.988
 2850SOL    HW1 8685   2.157   2.770   4.982
 2850SOL    HW2 8686   2.001   2.756   4.937
 2851SOL     OW 8687   3.424   2.895   3.936
 2851SOL    HW1 8688   3.353   2.828   3.956
 2851SOL    HW2 8689   3.467   2.926   4.020
 2852SOL     OW 8690   3.001   3.636   5.359
 2852SOL    HW1 8691   3.019   3.722   5.311
 2852SOL    HW2 8692   3.029   3.560   5.301
 2853SOL     OW 8693   2.210   2.101   0.024
 2853SOL    HW1 8694   2.251   2.184   0.061
 2853SOL    HW2 8695   2.113   2.117   0.005
 2854SOL     OW 8696   3.341   3.288   4.638
 2854SOL    HW1 8697   3.273   3.313   4.707
 2854SOL    HW2 8698   3.327   3.192   4.612
 2855SOL     OW 8699   3.492   3.703   4.269
 2855SOL    HW1 8700   3.482   3.644   4.189
 2855SOL    HW2 8701   3.502   3.646   4.351
 2856SOL     OW 8702   2.431   2.561   4.003
 2856SOL    HW1 8703   2.441   2.653   3.964
 2856SOL    HW2 8704   2.359   2.562   4.071
 2857SOL     OW 8705   3.145   2.270   4.670
 2857SOL    HW1 8706   3.055   2.229   4.660
 2857SOL    HW2 8707   3.200   2.217   4.735
 2858SOL     OW 8708   3.455   3.541   4.048
 2858SOL    HW1 8709   3.553   3.555   4.042
 2858SOL    HW2 8710   3.417   3.529   3.956
 2859SOL     OW 8711   2.651   2.442   5.175
 2859SOL    HW1 8712   2.597   2.421   5.256
 2859SOL    HW2 8713   2.631   2.375   5.104
 2860SOL     OW 8714   2.822   2.741   5.339
 2860SOL    HW1 8715   2.867   2.673   5.281
 2860SOL    HW2 8716   2.775   2.808   5.281
 2861SOL     OW 8717   2.885   2.237   4.923
 2861SOL    HW1 8718   2.790   2.257   4.945
 2861SOL    HW2 8719   2.891   2.199   4.831
 2862SOL     OW 8720   2.907   2.553   4.156
 2862SOL    HW1 8721   2.932   2.566   4.252
 2862SOL    HW2 8722   2.817   2.508   4.151
 2863SOL     OW 8723   1.957   2.714   4.515
 2863SOL    HW1 8724   2.046   2.698   4.558
 2863SOL    HW2 8725   1.906   2.780   4.570
 2864SOL     OW 8726   1.980   3.787   5.334
 2864SOL    HW1 8727   1.979   3.784   5.434
 2864SOL    HW2 8728   1.887   3.773   5.299
 2865SOL     OW 8729   2.721   2.229   3.940
 2865SOL    HW1 8730   2.794   2.281   3.895
 2865SOL    HW2 8731   2.660   2.190   3.870
 2866SOL     OW 8732   3.255   3.018   4.231
 2866SOL    HW1 8733   3.346   3.013   4.191
 2866SOL    HW2 8734   3.202   3.090   4.185
 2867SOL     OW 8735   2.420   1.996   4.658
 2867SOL    HW1 8736   2.436   2.021   4.754
 2867SOL    HW2 8737   2.418   2.078   4.601
 2868SOL     OW 8738   2.854   3.323   4.193
 2868SOL    HW1 8739   2.832   3.401   4.133
 2868SOL    HW2 8740   2.827   3.345   4.287
 2869SOL     OW 8741   2.220   3.662   4.606
 2869SOL    HW1 8742   2.259   3.570   4.607
 2869SOL    HW2 8743   2.290   3.728   4.634
 2870SOL     OW 8744   3.663   2.908   4.635
 2870SOL    HW1 8745   3.617   2.891   4.548
 2870SOL    HW2 8746   3.594   2.921   4.707
 2871SOL     OW 8747   3.050   3.392   5.218
 2871SOL    HW1 8748   3.056   3.293   5.213
 2871SOL    HW2 8749   2.962   3.422   5.184
 2872SOL     OW 8750   2.171   2.803   4.020
 2872SOL    HW1 8751   2.260   2.823   3.979
 2872SOL    HW2 8752   2.168   2.708   4.051
 2873SOL     OW 8753   3.347   2.649   4.449
 2873SOL    HW1 8754   3.345   2.597   4.535
 2873SOL    HW2 8755   3.432   2.700   4.443
 2874SOL     OW 8756   2.320   3.107   5.449
 2874SOL    HW1 8757   2.260   3.141   5.377
 2874SOL    HW2 8758   2.295   3.013   5.472
 2875SOL     OW 8759   3.013   3.617   3.960
 2875SOL    HW1 8760   2.923   3.595   3.997
 2875SOL    HW2 8761   3.036   3.552   3.888
 2876SOL     OW 8762   2.084   2.135   5.187
 2876SOL    HW1 8763   2.034   2.220   5.201
 2876SOL    HW2 8764   2.050   2.065   5.251
 2877SOL     OW 8765   3.513   3.259   3.831
 2877SOL    HW1 8766   3.478   3.351   3.812
 2877SOL    HW2 8767   3.445   3.191   3.806
 2878SOL     OW 8768   2.330   3.621   4.043
 2878SOL    HW1 8769   2.373   3.675   4.115
 2878SOL    HW2 8770   2.400   3.582   3.984
 2879SOL     OW 8771   3.261   1.964   4.189
 2879SOL    HW1 8772   3.259   1.941   4.092
 2879SOL    HW2 8773   3.350   1.940   4.227
 2880SOL     OW 8774   2.098   3.653   4.935
 2880SOL    HW1 8775   2.142   3.570   4.971
 2880SOL    HW2 8776   2.057   3.632   4.846
 2881SOL     OW 8777   2.804   3.564   4.609
 2881SOL    HW1 8778   2.896   3.525   4.616
 2881SOL    HW2 8779   2.754   3.521   4.534
 2882SOL     OW 8780   2.220   2.545   4.188
 2882SOL    HW1 8781   2.241   2.448   4.196
 2882SOL    HW2 8782   2.128   2.563   4.225
 2883SOL     OW 8783   2.520   1.952   3.847
 2883SOL    HW1 8784   2.568   1.876   3.890
 2883SOL    HW2 8785   2.457   1.916   3.778
 2884SOL     OW 8786   2.629   2.184   5.441
 2884SOL    HW1 8787   2.711   2.228   5.478
 2884SOL    HW2 8788   2.590   2.123   5.510
 2885SOL     OW 8789   2.709   3.367   4.915
 2885SOL    HW1 8790   2.685   3.339   4.822
 2885SOL    HW2 8791   2.769   3.299   4.956
 2886SOL     OW 8792   3.158   2.447   5.206
 2886SOL    HW1 8793   3.187   2.437   5.301
 2886SOL    HW2 8794   3.192   2.533   5.169
 2887SOL     OW 8795   2.663   3.235   4.662
 2887SOL    HW1 8796   2.759   3.238   4.633
 2887SOL    HW2 8797   2.603   3.248   4.583
 2888SOL     OW 8798   2.788   2.374   4.605
 2888SOL    HW1 8799   2.763   2.364   4.508
 2888SOL    HW2 8800   2.823   2.288   4.640
 2889SOL     OW 8801   2.420   1.931   4.228
 2889SOL    HW1 8802   2.340   1.928   4.288
 2889SOL    HW2 8803   2.412   2.009   4.166
 2890SOL     OW 8804   3.305   3.084   3.771
 2890SOL    HW1 8805   3.338   3.010   3.830
 2890SOL    HW2 8806   3.211   3.106   3.796
 2891SOL     OW 8807   2.145   1.903   3.890
 2891SOL    HW1 8808   2.191   1.983   3.850
 2891SOL    HW2 8809   2.210   1.853   3.947
 2892SOL     OW 8810   2.820   2.109   4.168
 2892SOL    HW1 8811   2.785   2.149   4.083
 2892SOL    HW2 8812   2.918   2.128   4.176
 2893SOL     OW 8813   2.904   2.554   5.159
 2893SOL    HW1 8814   2.825   2.494   5.170
 2893SOL    HW2 8815   2.988   2.501   5.172
 2894SOL     OW 8816   3.061   3.475   4.547
 2894SOL    HW1 8817   3.085   3.525   4.464
 2894SOL    HW2 8818   3.105   3.519   4.626
 2895SOL     OW 8819   2.354   3.018   4.421
 2895SOL    HW1 8820   2.299   2.994   4.501
 2895SOL    HW2 8821   2.295   3.017   4.339
 2896SOL     OW 8822   3.102   3.658   4.339
 2896SOL    HW1 8823   3.155   3.721   4.282
 2896SOL    HW2 8824   3.022   3.705   4.376
 2897SOL     OW 8825   2.892   2.380   3.798
 2897SOL    HW1 8826   2.848   2.467   3.778
 2897SOL    HW2 8827   2.970   2.396   3.858
 2898SOL     OW 8828   1.989   2.408   5.148
 2898SOL    HW1 8829   2.078   2.407   5.101
 2898SOL    HW2 8830   1.994   2.471   5.226
 2899SOL     OW 8831   2.451   2.065   4.920
 2899SOL    HW1 8832   2.494   2.019   4.998
 2899SOL    HW2 8833   2.352   2.066   4.933
 2900SOL     OW 8834   2.730   2.310   4.347
 2900SOL    HW1 8835   2.685   2.369   4.281
 2900SOL    HW2 8836   2.766   2.229   4.301
 2901SOL     OW 8837   2.876   1.912   4.453
 2901SOL    HW1 8838   2.812   1.910   4.376
 2901SOL    HW2 8839   2.851   1.842   4.519
 2902SOL     OW 8840   3.343   3.026   4.555
 2902SOL    HW1 8841   3.268   2.977   4.512
 2902SOL    HW2 8842   3.414   3.045   4.488
 2903SOL     OW 8843   3.330   2.484   4.676
 2903SOL    HW1 8844   3.259   2.414   4.682
 2903SOL    HW2 8845   3.393   2.475   4.753
 2904SOL     OW 8846   3.666   2.634   4.113
 2904SOL    HW1 8847   3.736   2.602   4.177
 2904SOL    HW2 8848   3.661   2.571   4.035
 2905SOL     OW 8849   2.362   3.308   3.908
 2905SOL    HW1 8850   2.272   3.276   3.937
 2905SOL    HW2 8851   2.394   3.253   3.831
 2906SOL     OW 8852   3.568   3.134   4.393
 2906SOL    HW1 8853   3.668   3.131   4.404
 2906SOL    HW2 8854   3.538   3.229   4.393
 2907SOL     OW 8855   3.250   2.426   3.790
 2907SOL    HW1 8856   3.209   2.409   3.879
 2907SOL    HW2 8857   3.350   2.417   3.796
 2908SOL     OW 8858   2.386   2.116   4.031
 2908SOL    HW1 8859   2.441   2.063   3.967
 2908SOL    HW2 8860   2.357   2.201   3.987
 2909SOL     OW 8861   3.617   3.096   5.220
 2909SOL    HW1 8862   3.710   3.060   5.218
 2909SOL    HW2 8863   3.615   3.180   5.275
 2910SOL     OW 8864   2.858   3.176   5.047
 2910SOL    HW1 8865   2.771   3.154   5.090
 2910SOL    HW2 8866   2.933   3.147   5.106
 2911SOL     OW 8867   3.016   3.126   4.832
 2911SOL    HW1 8868   2.947   3.142   4.903
 2911SOL    HW2 8869   2.979   3.154   4.743
 2912SOL     OW 8870   3.455   2.956   4.808
 2912SOL    HW1 8871   3.449   3.027   4.878
 2912SOL    HW2 8872   3.397   2.980   4.730
 2913SOL     OW 8873   2.811   1.929   5.096
 2913SOL    HW1 8874   2.836   1.922   4.999
 2913SOL    HW2 8875   2.886   1.970   5.147
 2914SOL     OW 8876   2.600   2.906   4.125
 2914SOL    HW1 8877   2.584   2.876   4.219
 2914SOL    HW2 8878   2.672   2.850   4.084
 2915SOL     OW 8879   2.307   2.673   4.981
 2915SOL    HW1 8880   2.380   2.687   5.047
 2915SOL    HW2 8881   2.270   2.580   4.991
 2916SOL     OW 8882   3.123   2.217   5.053
 2916SOL    HW1 8883   3.145   2.300   5.104
 2916SOL    HW2 8884   3.036   2.229   5.005
 2917SOL     OW 8885   1.926   3.424   5.104
 2917SOL    HW1 8886   1.880   3.495   5.050
 2917SOL    HW2 8887   2.025   3.434   5.093
 2918SOL     OW 8888   2.173   3.010   4.211
 2918SOL    HW1 8889   2.164   3.090   4.151
 2918SOL    HW2 8890   2.170   2.927   4.155
 2919SOL     OW 8891   2.385   2.397   4.597
 2919SOL    HW1 8892   2.394   2.454   4.515
 2919SOL    HW2 8893   2.462   2.416   4.659
 2920SOL     OW 8894   3.106   3.232   4.116
 2920SOL    HW1 8895   3.168   3.303   4.148
 2920SOL    HW2 8896   3.013   3.252   4.148
 2921SOL     OW 8897   3.178   3.345   4.850
 2921SOL    HW1 8898   3.226   3.352   4.938
 2921SOL    HW2 8899   3.121   3.263   4.850
 2922SOL     OW 8900   3.455   2.487   4.244
 2922SOL    HW1 8901   3.391   2.543   4.296
 2922SOL    HW2 8902   3.519   2.546   4.195
 2923SOL     OW 8903   2.195   3.399   5.026
 2923SOL    HW1 8904   2.186   3.344   4.943
 2923SOL    HW2 8905   2.291   3.422   5.041
 2924SOL     OW 8906   2.328   2.627   5.357
 2924SOL    HW1 8907   2.378   2.664   5.279
 2924SOL    HW2 8908   2.376   2.548   5.394
 2925SOL     OW 8909   3.382   2.711   5.355
 2925SOL    HW1 8910   3.313   2.703   5.283
 2925SOL    HW2 8911   3.465   2.751   5.318
 2926SOL     OW 8912   2.459   2.733   4.757
 2926SOL    HW1 8913   2.492   2.827   4.754
 2926SOL    HW2 8914   2.400   2.720   4.837
 2927SOL     OW 8915   3.149   2.699   4.770
 2927SOL    HW1 8916   3.061   2.676   4.729
 2927SOL    HW2 8917   3.219   2.634   4.738
 2928SOL     OW 8918   3.076   2.391   4.008
 2928SOL    HW1 8919   3.089   2.308   4.064
 2928SOL    HW2 8920   3.025   2.459   4.061
 2929SOL     OW 8921   2.177   2.048   4.947
 2929SOL    HW1 8922   2.152   2.086   5.036
 2929SOL    HW2 8923   2.156   1.950   4.944
 2930SOL     OW 8924   1.943   3.173   4.978
 2930SOL    HW1 8925   1.958   3.102   5.047
 2930SOL    HW2 8926   1.923   3.260   5.025
 2931SOL     OW 8927   2.587   2.487   4.764
 2931SOL    HW1 8928   2.659   2.467   4.698
 2931SOL    HW2 8929   2.552   2.579   4.748
 2932SOL     OW 8930   3.536   2.708   0.070
 2932SOL    HW1 8931   3.486   2.705   5.501
 2932SOL    HW2 8932   3.494   2.776   0.131
 2933SOL     OW 8933   2.179   1.923   4.363
 2933SOL    HW1 8934   2.139   2.013   4.379
 2933SOL    HW2 8935   2.189   1.875   4.451
 2934SOL     OW 8936   3.487   2.266   4.079
 2934SOL    HW1 8937   3.537   2.197   4.132
 2934SOL    HW2 8938   3.458   2.340   4.139
 2935SOL     OW 8939   2.888   2.620   4.677
 2935SOL    HW1 8940   2.862   2.639   4.772
 2935SOL    HW2 8941   2.860   2.527   4.653
 2936SOL     OW 8942   2.705   3.423   5.446
 2936SOL    HW1 8943   2.759   3.467   5.374
 2936SOL    HW2 8944   2.634   3.367   5.404
 2937SOL     OW 8945   3.665   3.338   5.341
 2937SOL    HW1 8946   3.711   3.382   5.264
 2937SOL    HW2 8947   3.706   3.369   5.427
 2938SOL     OW 8948   2.248   2.843   5.511
 2938SOL    HW1 8949   2.292   2.832   0.083
 2938SOL    HW2 8950   2.274   2.766   5.453
 2939SOL     OW 8951   3.399   2.115   3.863
 2939SOL    HW1 8952   3.342   2.042   3.899
 2939SOL    HW2 8953   3.429   2.174   3.938
 2940SOL     OW 8954   3.156   2.677   3.735
 2940SOL    HW1 8955   3.186   2.582   3.745
 2940SOL    HW2 8956   3.186   2.712   3.646
 2941SOL     OW 8957   2.926   3.234   4.593
 2941SOL    HW1 8958   2.941   3.154   4.534
 2941SOL    HW2 8959   2.984   3.309   4.562
 2942SOL     OW 8960   2.193   2.670   4.656
 2942SOL    HW1 8961   2.292   2.682   4.657
 2942SOL    HW2 8962   2.170   2.578   4.688
 2943SOL     OW 8963   2.157   2.398   4.736
 2943SOL    HW1 8964   2.111   2.310   4.724
 2943SOL    HW2 8965   2.241   2.399   4.681
 2944SOL     OW 8966   3.023   2.037   5.240
 2944SOL    HW1 8967   3.028   2.088   5.326
 2944SOL    HW2 8968   3.069   2.089   5.168
 2945SOL     OW 8969   1.856   3.146   3.917
 2945SOL    HW1 8970   1.765   3.170   3.882
 2945SOL    HW2 8971   1.857   3.049   3.942
 2946SOL     OW 8972   1.961   3.630   4.687
 2946SOL    HW1 8973   1.915   3.559   4.634
 2946SOL    HW2 8974   2.052   3.646   4.649
 2947SOL     OW 8975   2.347   3.416   4.617
 2947SOL    HW1 8976   2.419   3.475   4.653
 2947SOL    HW2 8977   2.385   3.357   4.546
 2948SOL     OW 8978   2.792   2.658   4.928
 2948SOL    HW1 8979   2.846   2.632   5.009
 2948SOL    HW2 8980   2.706   2.607   4.928
 2949SOL     OW 8981   1.927   2.493   4.879
 2949SOL    HW1 8982   2.005   2.467   4.823
 2949SOL    HW2 8983   1.944   2.470   4.974
 2950SOL     OW 8984   2.658   2.437   4.110
 2950SOL    HW1 8985   2.674   2.359   4.050
 2950SOL    HW2 8986   2.579   2.489   4.077
 2951SOL     OW 8987   3.513   2.465   4.884
 2951SOL    HW1 8988   3.502   2.407   4.964
 2951SOL    HW2 8989   3.610   2.477   4.864
 2952SOL     OW 8990   2.144   3.420   5.418
 2952SOL    HW1 8991   2.072   3.417   5.488
 2952SOL    HW2 8992   2.143   3.335   5.366
 2953SOL     OW 8993   2.614   2.289   4.950
 2953SOL    HW1 8994   2.551   2.212   4.938
 2953SOL    HW2 8995   2.595   2.359   4.882
 2954SOL     OW 8996   2.809   3.507   5.142
 2954SOL    HW1 8997   2.770   3.466   5.060
 2954SOL    HW2 8998   2.801   3.607   5.137
 2955SOL     OW 8999   2.306   2.336   3.886
 2955SOL    HW1 9000   2.373   2.406   3.910
 2955SOL    HW2 9001   2.214   2.374   3.890
 2956SOL     OW 9002   2.006   2.985   5.187
 2956SOL    HW1 9003   1.994   2.933   5.272
 2956SOL    HW2 9004   2.030   2.923   5.113
 2957SOL     OW 9005   3.123   2.903   4.957
 2957SOL    HW1 9006   3.139   2.829   4.892
 2957SOL    HW2 9007   3.090   2.984   4.907
 2958SOL     OW 9008   3.220   2.728   3.997
 2958SOL    HW1 9009   3.141   2.716   4.057
 2958SOL    HW2 9010   3.193   2.709   3.903
 2959SOL     OW 9011   3.628   3.562   4.881
 2959SOL    HW1 9012   3.702   3.598   4.822
 2959SOL    HW2 9013   3.605   3.470   4.852
 2960SOL     OW 9014   3.131   3.605   4.787
 2960SOL    HW1 9015   3.220   3.650   4.788
 2960SOL    HW2 9016   3.140   3.512   4.821
 2961SOL     OW 9017   1.984   3.095   4.721
 2961SOL    HW1 9018   1.963   3.125   4.814
 2961SOL    HW2 9019   1.909   3.036   4.688
 2962SOL     OW 9020   3.641   2.073   4.201
 2962SOL    HW1 9021   3.693   2.053   4.118
 2962SOL    HW2 9022   3.595   1.991   4.233
 2963SOL     OW 9023   3.259   3.444   4.218
 2963SOL    HW1 9024   3.321   3.480   4.149
 2963SOL    HW2 9025   3.196   3.516   4.246
 2964SOL     OW 9026   3.152   2.828   4.389
 2964SOL    HW1 9027   3.225   2.762   4.409
 2964SOL    HW2 9028   3.185   2.894   4.322
 2965SOL     OW 9029   2.607   3.124   5.137
 2965SOL    HW1 9030   2.579   3.178   5.216
 2965SOL    HW2 9031   2.538   3.131   5.065
 2966SOL     OW 9032   2.538   3.523   3.890
 2966SOL    HW1 9033   2.556   3.541   3.793
 2966SOL    HW2 9034   2.488   3.437   3.899
 2967SOL     OW 9035   3.470   3.588   5.105
 2967SOL    HW1 9036   3.529   3.582   5.025
 2967SOL    HW2 9037   3.501   3.663   5.164
 2968SOL     OW 9038   3.695   2.012   4.732
 2968SOL    HW1 9039   3.729   1.924   4.699
 2968SOL    HW2 9040   3.612   2.036   4.681
 2969SOL     OW 9041   2.084   2.171   4.432
 2969SOL    HW1 9042   1.998   2.215   4.405
 2969SOL    HW2 9043   2.090   2.167   4.532
 2970SOL     OW 9044   3.087   3.445   3.760
 2970SOL    HW1 9045   3.077   3.349   3.785
 2970SOL    HW2 9046   3.020   3.468   3.689
 2971SOL     OW 9047   2.702   2.871   5.128
 2971SOL    HW1 9048   2.748   2.854   5.041
 2971SOL    HW2 9049   2.669   2.966   5.130
 2972SOL     OW 9050   2.787   2.750   4.007
 2972SOL    HW1 9051   2.850   2.794   3.942
 2972SOL    HW2 9052   2.838   2.685   4.063
 2973SOL     OW 9053   3.357   3.516   3.789
 2973SOL    HW1 9054   3.263   3.489   3.772
 2973SOL    HW2 9055   3.406   3.523   3.702
 2974SOL     OW 9056   2.166   3.205   5.244
 2974SOL    HW1 9057   2.174   3.265   5.164
 2974SOL    HW2 9058   2.109   3.126   5.221
 2975SOL     OW 9059   3.461   3.160   5.002
 2975SOL    HW1 9060   3.519   3.130   5.078
 2975SOL    HW2 9061   3.398   3.231   5.035
 2976SOL     OW 9062   2.943   2.994   4.470
 2976SOL    HW1 9063   2.866   2.940   4.504
 2976SOL    HW2 9064   3.015   2.932   4.437
 2977SOL     OW 9065   2.905   2.112   4.669
 2977SOL    HW1 9066   2.899   2.076   4.576
 2977SOL    HW2 9067   2.904   2.035   4.734
 2978SOL     OW 9068   2.476   3.351   4.181
 2978SOL    HW1 9069   2.537   3.290   4.130
 2978SOL    HW2 9070   2.400   3.378   4.122
 2979SOL     OW 9071   3.597   2.293   5.113
 2979SOL    HW1 9072   3.680   2.345   5.132
 2979SOL    HW2 9073   3.620   2.208   5.067
 2980SOL     OW 9074   2.107   3.208   4.002
 2980SOL    HW1 9075   2.011   3.188   3.981
 2980SOL    HW2 9076   2.112   3.263   4.085
 2981SOL     OW 9077   1.984   2.842   5.422
 2981SOL    HW1 9078   1.906   2.844   5.485
 2981SOL    HW2 9079   2.069   2.854   5.473
 2982SOL     OW 9080   2.579   2.048   5.201
 2982SOL    HW1 9081   2.663   2.011   5.162
 2982SOL    HW2 9082   2.600   2.099   5.285
 2983SOL     OW 9083   1.948   2.184   3.708
 2983SOL    HW1 9084   1.862   2.168   3.659
 2983SOL    HW2 9085   1.973   2.280   3.700
 2984SOL     OW 9086   3.242   2.697   5.117
 2984SOL    HW1 9087   3.178   2.764   5.080
 2984SOL    HW2 9088   3.329   2.703   5.068
 2985SOL     OW 9089   1.900   2.002   3.958
 2985SOL    HW1 9090   1.880   2.073   3.891
 2985SOL    HW2 9091   1.992   1.966   3.942
 2986SOL     OW 9092   3.042   3.182   3.842
 2986SOL    HW1 9093   2.945   3.159   3.834
 2986SOL    HW2 9094   3.066   3.190   3.939
 2987SOL     OW 9095   2.512   2.681   5.157
 2987SOL    HW1 9096   2.576   2.757   5.152
 2987SOL    HW2 9097   2.563   2.595   5.165
 2988SOL     OW 9098   3.384   3.713   4.784
 2988SOL    HW1 9099   3.415   3.770   4.708
 2988SOL    HW2 9100   3.461   3.662   4.822
 2989SOL     OW 9101   2.518   2.438   5.422
 2989SOL    HW1 9102   2.581   2.494   5.476
 2989SOL    HW2 9103   2.536   2.341   5.438
 2990SOL     OW 9104   2.214   3.645   5.286
 2990SOL    HW1 9105   2.134   3.704   5.293
 2990SOL    HW2 9106   2.198   3.561   5.338
 2991SOL     OW 9107   3.474   2.732   4.972
 2991SOL    HW1 9108   3.491   2.645   4.926
 2991SOL    HW2 9109   3.466   2.805   4.903
 2992SOL     OW 9110   3.086   2.180   4.191
 2992SOL    HW1 9111   3.153   2.106   4.194
 2992SOL    HW2 9112   3.100   2.241   4.270
 2993SOL     OW 9113   2.412   2.584   4.398
 2993SOL    HW1 9114   2.466   2.668   4.390
 2993SOL    HW2 9115   2.347   2.579   4.323
 2994SOL     OW 9116   3.555   2.170   5.390
 2994SOL    HW1 9117   3.535   2.238   5.319
 2994SOL    HW2 9118   3.484   2.174   5.461
 2995SOL     OW 9119   3.578   2.822   5.211
 2995SOL    HW1 9120   3.581   2.922   5.214
 2995SOL    HW2 9121   3.552   2.792   5.120
 2996SOL     OW 9122   2.756   3.167   3.813
 2996SOL    HW1 9123   2.719   3.176   3.906
 2996SOL    HW2 9124   2.709   3.231   3.752
 2997SOL     OW 9125   2.536   3.598   4.681
 2997SOL    HW1 9126   2.508   3.693   4.669
 2997SOL    HW2 9127   2.634   3.590   4.668
 2998SOL     OW 9128   2.737   2.846   4.590
 2998SOL    HW1 9129   2.788   2.768   4.625
 2998SOL    HW2 9130   2.687   2.889   4.665
 2999SOL     OW 9131   2.948   2.836   3.809
 2999SOL    HW1 9132   2.885   2.847   3.732
 2999SOL    HW2 9133   3.028   2.784   3.780
 3000SOL     OW 9134   3.680   3.434   4.567
 3000SOL    HW1 9135   3.608   3.426   4.497
 3000SOL    HW2 9136   3.659   3.374   4.644
 3001SOL     OW 9137   2.008   3.132   4.413
 3001SOL    HW1 9138   2.024   3.107   4.508
 3001SOL    HW2 9139   2.063   3.074   4.353
 3002SOL     OW 9140   2.500   3.281   5.335
 3002SOL    HW1 9141   2.446   3.215   5.386
 3002SOL    HW2 9142   2.440   3.350   5.294
 3003SOL     OW 9143   3.696   2.057   5.003
 3003SOL    HW1 9144   3.791   2.036   5.028
 3003SOL    HW2 9145   3.684   2.043   4.905
 3004SOL     OW 9146   2.252   2.280   4.229
 3004SOL    HW1 9147   2.298   2.208   4.177
 3004SOL    HW2 9148   2.201   2.239   4.305
 3005SOL     OW 9149   3.564   3.314   4.791
 3005SOL    HW1 9150   3.483   3.306   4.733
 3005SOL    HW2 9151   3.556   3.252   4.869
 3006SOL     OW 9152   2.223   2.413   5.009
 3006SOL    HW1 9153   2.282   2.347   5.057
 3006SOL    HW2 9154   2.218   2.388   4.913
 3007SOL     OW 9155   2.686   3.453   4.394
 3007SOL    HW1 9156   2.660   3.513   4.318
 3007SOL    HW2 9157   2.615   3.384   4.407
 3008SOL     OW 9158   3.281   2.115   4.847
 3008SOL    HW1 9159   3.302   2.018   4.857
 3008SOL    HW2 9160   3.236   2.148   4.930
 3009SOL     OW 9161   2.898   1.879   4.825
 3009SOL    HW1 9162   2.834   1.819   4.777
 3009SOL    HW2 9163   2.989   1.839   4.822
 3010SOL     OW 9164   2.655   3.172   4.069
 3010SOL    HW1 9165   2.636   3.077   4.094
 3010SOL    HW2 9166   2.734   3.205   4.121
 3011SOL     OW 9167   2.469   3.436   5.036
 3011SOL    HW1 9168   2.464   3.530   5.071
 3011SOL    HW2 9169   2.557   3.423   4.990
 3012SOL     OW 9170   3.249   1.889   3.924
 3012SOL    HW1 9171   3.299   1.815   3.879
 3012SOL    HW2 9172   3.153   1.862   3.934
 3013SOL     OW 9173   3.114   2.349   4.402
 3013SOL    HW1 9174   3.074   2.441   4.402
 3013SOL    HW2 9175   3.137   2.324   4.496
 3014SOL     OW 9176   3.454   2.085   4.625
 3014SOL    HW1 9177   3.393   2.114   4.699
 3014SOL    HW2 9178   3.460   2.158   4.556
 3015SOL     OW 9179   1.895   2.882   4.017
 3015SOL    HW1 9180   1.994   2.873   4.010
 3015SOL    HW2 9181   1.854   2.793   4.037
 3016SOL     OW 9182   2.761   3.548   4.061
 3016SOL    HW1 9183   2.684   3.534   3.999
 3016SOL    HW2 9184   2.741   3.625   4.121
 3017SOL     OW 9185   2.026   4.281   0.057
 3017SOL    HW1 9186   1.944   4.309   0.106
 3017SOL    HW2 9187   2.038   4.338   5.493
 3018SOL     OW 9188   2.070   4.009   0.990
 3018SOL    HW1 9189   2.111   3.978   1.076
 3018SOL    HW2 9190   1.980   3.967   0.979
 3019SOL     OW 9191   1.841   4.141   0.633
 3019SOL    HW1 9192   1.755   4.158   0.681
 3019SOL    HW2 9193   1.824   4.077   0.558
 3020SOL     OW 9194   2.434   5.016   1.208
 3020SOL    HW1 9195   2.345   5.018   1.161
 3020SOL    HW2 9196   2.454   5.107   1.245
 3021SOL     OW 9197   3.447   5.229   0.686
 3021SOL    HW1 9198   3.384   5.197   0.756
 3021SOL    HW2 9199   3.395   5.270   0.610
 3022SOL     OW 9200   2.996   4.440   0.673
 3022SOL    HW1 9201   3.048   4.524   0.655
 3022SOL    HW2 9202   2.948   4.450   0.760
 3023SOL     OW 9203   3.649   4.350   0.166
 3023SOL    HW1 9204   3.602   4.426   0.122
 3023SOL    HW2 9205   3.581   4.283   0.198
 3024SOL     OW 9206   2.583   4.853   1.038
 3024SOL    HW1 9207   2.521   4.888   1.108
 3024SOL    HW2 9208   2.627   4.930   0.991
 3025SOL     OW 9209   2.726   4.449   1.850
 3025SOL    HW1 9210   2.736   4.499   1.936
 3025SOL    HW2 9211   2.751   4.509   1.774
 3026SOL     OW 9212   2.552   4.693   0.652
 3026SOL    HW1 9213   2.623   4.689   0.722
 3026SOL    HW2 9214   2.487   4.766   0.674
 3027SOL     OW 9215   2.540   4.884   1.833
 3027SOL    HW1 9216   2.586   4.960   1.879
 3027SOL    HW2 9217   2.464   4.920   1.778
 3028SOL     OW 9218   2.206   5.113   1.073
 3028SOL    HW1 9219   2.130   5.065   1.029
 3028SOL    HW2 9220   2.254   5.169   1.004
 3029SOL     OW 9221   3.293   5.202   1.421
 3029SOL    HW1 9222   3.350   5.257   1.483
 3029SOL    HW2 9223   3.202   5.193   1.460
 3030SOL     OW 9224   2.344   4.080   1.438
 3030SOL    HW1 9225   2.426   4.028   1.461
 3030SOL    HW2 9226   2.265   4.037   1.480
 3031SOL     OW 9227   3.442   4.167   0.749
 3031SOL    HW1 9228   3.370   4.173   0.681
 3031SOL    HW2 9229   3.427   4.236   0.820
 3032SOL     OW 9230   2.957   5.055   1.744
 3032SOL    HW1 9231   3.015   5.041   1.824
 3032SOL    HW2 9232   2.895   4.977   1.733
 3033SOL     OW 9233   2.079   5.260   0.539
 3033SOL    HW1 9234   2.097   5.348   0.583
 3033SOL    HW2 9235   2.052   5.193   0.608
 3034SOL     OW 9236   2.200   4.808   0.901
 3034SOL    HW1 9237   2.194   4.710   0.916
 3034SOL    HW2 9238   2.126   4.855   0.949
 3035SOL     OW 9239   2.430   4.671   0.197
 3035SOL    HW1 9240   2.487   4.670   0.115
 3035SOL    HW2 9241   2.481   4.713   0.273
 3036SOL     OW 9242   3.451   3.865   1.423
 3036SOL    HW1 9243   3.488   3.952   1.389
 3036SOL    HW2 9244   3.400   3.881   1.508
 3037SOL     OW 9245   1.956   4.396   0.585
 3037SOL    HW1 9246   1.919   4.305   0.604
 3037SOL    HW2 9247   1.957   4.449   0.670
 3038SOL     OW 9248   1.969   5.291   0.079
 3038SOL    HW1 9249   1.943   5.207   0.128
 3038SOL    HW2 9250   2.008   5.357   0.143
 3039SOL     OW 9251   3.572   4.655   0.666
 3039SOL    HW1 9252   3.663   4.615   0.666
 3039SOL    HW2 9253   3.560   4.712   0.584
 3040SOL     OW 9254   3.548   4.837   0.452
 3040SOL    HW1 9255   3.628   4.820   0.394
 3040SOL    HW2 9256   3.569   4.908   0.519
 3041SOL     OW 9257   1.968   4.496   1.573
 3041SOL    HW1 9258   2.040   4.559   1.600
 3041SOL    HW2 9259   1.887   4.547   1.543
 3042SOL     OW 9260   2.499   5.133   0.722
 3042SOL    HW1 9261   2.458   5.042   0.722
 3042SOL    HW2 9262   2.486   5.175   0.632
 3043SOL     OW 9263   3.109   4.919   1.424
 3043SOL    HW1 9264   3.130   4.849   1.356
 3043SOL    HW2 9265   3.180   4.918   1.495
 3044SOL     OW 9266   2.686   3.743   0.521
 3044SOL    HW1 9267   2.735   3.828   0.501
 3044SOL    HW2 9268   2.588   3.760   0.516
 3045SOL     OW 9269   2.061   4.663   1.299
 3045SOL    HW1 9270   2.153   4.626   1.288
 3045SOL    HW2 9271   1.999   4.616   1.236
 3046SOL     OW 9272   3.401   4.749   0.232
 3046SOL    HW1 9273   3.325   4.691   0.262
 3046SOL    HW2 9274   3.449   4.786   0.311
 3047SOL     OW 9275   2.990   5.472   1.603
 3047SOL    HW1 9276   3.008   0.034   1.544
 3047SOL    HW2 9277   3.024   5.389   1.558
 3048SOL     OW 9278   2.236   3.966   1.864
 3048SOL    HW1 9279   2.273   4.047   1.911
 3048SOL    HW2 9280   2.141   3.984   1.839
 3049SOL     OW 9281   3.311   5.141   0.919
 3049SOL    HW1 9282   3.268   5.162   1.007
 3049SOL    HW2 9283   3.299   5.043   0.900
 3050SOL     OW 9284   2.414   4.402   0.283
 3050SOL    HW1 9285   2.428   4.494   0.247
 3050SOL    HW2 9286   2.347   4.405   0.357
 3051SOL     OW 9287   3.146   4.123   0.941
 3051SOL    HW1 9288   3.054   4.084   0.937
 3051SOL    HW2 9289   3.203   4.070   1.004
 3052SOL     OW 9290   3.508   5.427   0.287
 3052SOL    HW1 9291   3.587   5.487   0.274
 3052SOL    HW2 9292   3.474   5.397   0.198
 3053SOL     OW 9293   2.654   4.292   1.456
 3053SOL    HW1 9294   2.623   4.266   1.547
 3053SOL    HW2 9295   2.629   4.220   1.391
 3054SOL     OW 9296   3.242   4.184   1.668
 3054SOL    HW1 9297   3.256   4.222   1.759
 3054SOL    HW2 9298   3.280   4.091   1.664
 3055SOL     OW 9299   2.801   4.595   1.615
 3055SOL    HW1 9300   2.859   4.526   1.573
 3055SOL    HW2 9301   2.748   4.642   1.544
 3056SOL     OW 9302   2.871   4.106   1.184
 3056SOL    HW1 9303   2.776   4.115   1.216
 3056SOL    HW2 9304   2.873   4.058   1.097
 3057SOL     OW 9305   2.894   4.405   0.413
 3057SOL    HW1 9306   2.923   4.410   0.508
 3057SOL    HW2 9307   2.807   4.356   0.407
 3058SOL     OW 9308   1.959   4.570   0.796
 3058SOL    HW1 9309   2.049   4.557   0.839
 3058SOL    HW2 9310   1.907   4.637   0.849
 3059SOL     OW 9311   1.983   0.067   1.646
 3059SOL    HW1 9312   1.995   0.031   1.739
 3059SOL    HW2 9313   1.906   0.020   1.603
 3060SOL     OW 9314   2.747   4.020   0.224
 3060SOL    HW1 9315   2.781   4.094   0.165
 3060SOL    HW2 9316   2.755   3.933   0.176
 3061SOL     OW 9317   3.550   4.296   1.848
 3061SOL    HW1 9318   3.539   4.381   1.797
 3061SOL    HW2 9319   3.570   4.221   1.784
 3062SOL     OW 9320   3.283   4.898   0.575
 3062SOL    HW1 9321   3.370   4.882   0.527
 3062SOL    HW2 9322   3.234   4.973   0.531
 3063SOL     OW 9323   2.411   3.855   0.932
 3063SOL    HW1 9324   2.421   3.877   1.029
 3063SOL    HW2 9325   2.411   3.940   0.878
 3064SOL     OW 9326   2.896   5.185   0.460
 3064SOL    HW1 9327   2.858   5.207   0.370
 3064SOL    HW2 9328   2.844   5.234   0.531
 3065SOL     OW 9329   2.249   5.509   0.874
 3065SOL    HW1 9330   2.300   5.428   0.902
 3065SOL    HW2 9331   2.299   0.074   0.902
 3066SOL     OW 9332   3.659   4.770   0.906
 3066SOL    HW1 9333   3.613   4.753   0.819
 3066SOL    HW2 9334   3.591   4.786   0.977
 3067SOL     OW 9335   3.035   5.209   1.524
 3067SOL    HW1 9336   3.022   5.150   1.603
 3067SOL    HW2 9337   2.980   5.175   1.447
 3068SOL     OW 9338   2.188   4.672   0.352
 3068SOL    HW1 9339   2.269   4.679   0.294
 3068SOL    HW2 9340   2.187   4.583   0.397
 3069SOL     OW 9341   3.353   4.496   0.705
 3069SOL    HW1 9342   3.348   4.448   0.793
 3069SOL    HW2 9343   3.435   4.553   0.703
 3070SOL     OW 9344   2.330   5.017   1.715
 3070SOL    HW1 9345   2.293   5.020   1.622
 3070SOL    HW2 9346   2.254   5.011   1.780
 3071SOL     OW 9347   3.017   5.516   0.192
 3071SOL    HW1 9348   2.996   5.494   0.288
 3071SOL    HW2 9349   3.051   5.435   0.145
 3072SOL     OW 9350   2.089   3.980   1.502
 3072SOL    HW1 9351   2.048   4.060   1.546
 3072SOL    HW2 9352   2.051   3.896   1.542
 3073SOL     OW 9353   3.515   5.107   0.099
 3073SOL    HW1 9354   3.479   5.200   0.089
 3073SOL    HW2 9355   3.443   5.041   0.076
 3074SOL     OW 9356   3.255   3.830   0.445
 3074SOL    HW1 9357   3.257   3.815   0.346
 3074SOL    HW2 9358   3.344   3.807   0.484
 3075SOL     OW 9359   2.211   4.412   0.479
 3075SOL    HW1 9360   2.239   4.316   0.487
 3075SOL    HW2 9361   2.117   4.422   0.513
 3076SOL     OW 9362   3.328   3.919   1.661
 3076SOL    HW1 9363   3.358   3.919   1.756
 3076SOL    HW2 9364   3.267   3.840   1.646
 3077SOL     OW 9365   2.521   3.853   0.096
 3077SOL    HW1 9366   2.607   3.801   0.092
 3077SOL    HW2 9367   2.451   3.804   0.044
 3078SOL     OW 9368   2.623   3.988   1.768
 3078SOL    HW1 9369   2.714   3.960   1.797
 3078SOL    HW2 9370   2.555   3.956   1.834
 3079SOL     OW 9371   2.744   5.253   1.175
 3079SOL    HW1 9372   2.717   5.205   1.091
 3079SOL    HW2 9373   2.800   5.193   1.231
 3080SOL     OW 9374   3.162   4.312   1.440
 3080SOL    HW1 9375   3.199   4.275   1.525
 3080SOL    HW2 9376   3.203   4.401   1.421
 3081SOL     OW 9377   2.675   5.106   0.940
 3081SOL    HW1 9378   2.769   5.097   0.910
 3081SOL    HW2 9379   2.615   5.117   0.861
 3082SOL     OW 9380   2.785   4.237   0.881
 3082SOL    HW1 9381   2.759   4.228   0.785
 3082SOL    HW2 9382   2.819   4.149   0.915
 3083SOL     OW 9383   2.419   3.793   0.483
 3083SOL    HW1 9384   2.340   3.791   0.544
 3083SOL    HW2 9385   2.412   3.872   0.422
 3084SOL     OW 9386   3.297   4.944   0.058
 3084SOL    HW1 9387   3.328   4.866   0.114
 3084SOL    HW2 9388   3.212   4.980   0.097
 3085SOL     OW 9389   2.156   3.753   0.194
 3085SOL    HW1 9390   2.194   3.820   0.131
 3085SOL    HW2 9391   2.227   3.689   0.222
 3086SOL     OW 9392   2.829   3.973   0.475
 3086SOL    HW1 9393   2.795   3.992   0.383
 3086SOL    HW2 9394   2.927   3.993   0.479
 3087SOL     OW 9395   2.904   4.413   1.432
 3087SOL    HW1 9396   2.828   4.350   1.448
 3087SOL    HW2 9397   2.991   4.363   1.437
 3088SOL     OW 9398   3.096   5.283   0.806
 3088SOL    HW1 9399   3.102   5.383   0.812
 3088SOL    HW2 9400   3.180   5.242   0.841
 3089SOL     OW 9401   2.368   4.891   0.706
 3089SOL    HW1 9402   2.315   4.862   0.785
 3089SOL    HW2 9403   2.309   4.900   0.627
 3090SOL     OW 9404   2.830   4.211   0.052
 3090SOL    HW1 9405   2.791   4.302   0.037
 3090SOL    HW2 9406   2.915   4.219   0.105
 3091SOL     OW 9407   1.976   4.284   1.398
 3091SOL    HW1 9408   2.070   4.273   1.368
 3091SOL    HW2 9409   1.970   4.359   1.464
 3092SOL     OW 9410   2.427   3.907   1.197
 3092SOL    HW1 9411   2.456   3.832   1.257
 3092SOL    HW2 9412   2.332   3.930   1.217
 3093SOL     OW 9413   2.728   4.185   0.623
 3093SOL    HW1 9414   2.676   4.234   0.553
 3093SOL    HW2 9415   2.765   4.101   0.583
 3094SOL     OW 9416   2.878   3.767   0.731
 3094SOL    HW1 9417   2.811   3.765   0.657
 3094SOL    HW2 9418   2.855   3.698   0.799
 3095SOL     OW 9419   3.282   4.869   0.861
 3095SOL    HW1 9420   3.218   4.796   0.881
 3095SOL    HW2 9421   3.291   4.881   0.762
 3096SOL     OW 9422   3.323   4.348   0.945
 3096SOL    HW1 9423   3.255   4.276   0.954
 3096SOL    HW2 9424   3.387   4.344   1.022
 3097SOL     OW 9425   3.683   4.515   0.381
 3097SOL    HW1 9426   3.736   4.471   0.454
 3097SOL    HW2 9427   3.680   4.456   0.301
 3098SOL     OW 9428   2.347   5.154   0.150
 3098SOL    HW1 9429   2.274   5.139   0.216
 3098SOL    HW2 9430   2.338   5.088   0.075
 3099SOL     OW 9431   3.612   5.015   0.638
 3099SOL    HW1 9432   3.707   5.033   0.663
 3099SOL    HW2 9433   3.557   5.097   0.654
 3100SOL     OW 9434   3.200   4.238   0.035
 3100SOL    HW1 9435   3.139   4.234   0.114
 3100SOL    HW2 9436   3.267   4.164   0.041
 3101SOL     OW 9437   2.399   3.998   0.302
 3101SOL    HW1 9438   2.453   3.948   0.235
 3101SOL    HW2 9439   2.346   4.070   0.257
 3102SOL     OW 9440   3.601   4.946   1.515
 3102SOL    HW1 9441   3.694   4.912   1.500
 3102SOL    HW2 9442   3.606   5.040   1.548
 3103SOL     OW 9443   2.888   5.058   1.336
 3103SOL    HW1 9444   2.799   5.024   1.366
 3103SOL    HW2 9445   2.960   5.001   1.376
 3104SOL     OW 9446   3.435   5.351   1.618
 3104SOL    HW1 9447   3.454   5.440   1.577
 3104SOL    HW2 9448   3.517   5.293   1.611
 3105SOL     OW 9449   3.026   4.985   1.108
 3105SOL    HW1 9450   2.959   5.009   1.179
 3105SOL    HW2 9451   2.989   5.010   1.018
 3106SOL     OW 9452   3.456   4.822   1.083
 3106SOL    HW1 9453   3.453   4.894   1.152
 3106SOL    HW2 9454   3.388   4.840   1.012
 3107SOL     OW 9455   2.794   3.801   1.361
 3107SOL    HW1 9456   2.822   3.793   1.266
 3107SOL    HW2 9457   2.866   3.848   1.413
 3108SOL     OW 9458   2.802   4.826   1.757
 3108SOL    HW1 9459   2.707   4.841   1.782
 3108SOL    HW2 9460   2.809   4.742   1.703
 3109SOL     OW 9461   2.602   4.758   0.388
 3109SOL    HW1 9462   2.589   4.731   0.484
 3109SOL    HW2 9463   2.677   4.706   0.348
 3110SOL     OW 9464   2.303   4.532   1.268
 3110SOL    HW1 9465   2.372   4.541   1.341
 3110SOL    HW2 9466   2.267   4.438   1.268
 3111SOL     OW 9467   3.114   4.085   1.300
 3111SOL    HW1 9468   3.139   4.169   1.348
 3111SOL    HW2 9469   3.024   4.096   1.257
 3112SOL     OW 9470   1.942   5.279   1.346
 3112SOL    HW1 9471   1.900   5.345   1.283
 3112SOL    HW2 9472   2.041   5.285   1.340
 3113SOL     OW 9473   2.185   4.905   0.504
 3113SOL    HW1 9474   2.177   4.979   0.437
 3113SOL    HW2 9475   2.183   4.817   0.456
 3114SOL     OW 9476   2.388   4.252   0.867
 3114SOL    HW1 9477   2.400   4.311   0.787
 3114SOL    HW2 9478   2.462   4.269   0.932
 3115SOL     OW 9479   3.161   5.117   0.449
 3115SOL    HW1 9480   3.215   5.201   0.458
 3115SOL    HW2 9481   3.065   5.137   0.468
 3116SOL     OW 9482   3.196   5.195   1.162
 3116SOL    HW1 9483   3.235   5.199   1.254
 3116SOL    HW2 9484   3.137   5.114   1.155
 3117SOL     OW 9485   3.451   4.369   0.470
 3117SOL    HW1 9486   3.398   4.405   0.547
 3117SOL    HW2 9487   3.518   4.438   0.441
 3118SOL     OW 9488   2.212   5.260   1.300
 3118SOL    HW1 9489   2.203   5.209   1.215
 3118SOL    HW2 9490   2.309   5.282   1.316
 3119SOL     OW 9491   2.339   4.407   1.664
 3119SOL    HW1 9492   2.375   4.457   1.586
 3119SOL    HW2 9493   2.409   4.343   1.697
 3120SOL     OW 9494   3.501   4.523   1.705
 3120SOL    HW1 9495   3.405   4.549   1.699
 3120SOL    HW2 9496   3.550   4.556   1.625
 3121SOL     OW 9497   2.865   3.899   1.876
 3121SOL    HW1 9498   2.926   3.954   1.820
 3121SOL    HW2 9499   2.919   3.830   1.926
 3122SOL     OW 9500   2.390   3.752   1.747
 3122SOL    HW1 9501   2.325   3.704   1.687
 3122SOL    HW2 9502   2.344   3.831   1.787
 3123SOL     OW 9503   2.458   4.587   1.043
 3123SOL    HW1 9504   2.494   4.680   1.037
 3123SOL    HW2 9505   2.402   4.579   1.125
 3124SOL     OW 9506   3.155   4.579   0.984
 3124SOL    HW1 9507   3.062   4.547   0.967
 3124SOL    HW2 9508   3.219   4.504   0.971
 3125SOL     OW 9509   3.029   4.226   0.251
 3125SOL    HW1 9510   3.058   4.154   0.314
 3125SOL    HW2 9511   2.987   4.301   0.303
 3126SOL     OW 9512   2.154   3.920   1.237
 3126SOL    HW1 9513   2.131   3.954   1.328
 3126SOL    HW2 9514   2.131   3.823   1.231
 3127SOL     OW 9515   1.927   5.019   1.252
 3127SOL    HW1 9516   1.951   4.958   1.327
 3127SOL    HW2 9517   1.926   5.114   1.284
 3128SOL     OW 9518   2.581   4.337   1.047
 3128SOL    HW1 9519   2.656   4.318   0.984
 3128SOL    HW2 9520   2.547   4.430   1.033
 3129SOL     OW 9521   3.630   4.701   1.873
 3129SOL    HW1 9522   3.586   4.631   1.817
 3129SOL    HW2 9523   3.573   4.720   1.953
 3130SOL     OW 9524   2.188   3.791   0.634
 3130SOL    HW1 9525   2.149   3.881   0.652
 3130SOL    HW2 9526   2.195   3.740   0.720
 3131SOL     OW 9527   3.490   4.154   0.304
 3131SOL    HW1 9528   3.538   4.083   0.356
 3131SOL    HW2 9529   3.463   4.228   0.366
 3132SOL     OW 9530   2.892   4.478   0.953
 3132SOL    HW1 9531   2.867   4.497   1.048
 3132SOL    HW2 9532   2.861   4.385   0.929
 3133SOL     OW 9533   2.846   5.314   1.771
 3133SOL    HW1 9534   2.898   5.368   1.705
 3133SOL    HW2 9535   2.858   5.217   1.752
 3134SOL     OW 9536   3.664   5.209   1.572
 3134SOL    HW1 9537   3.707   5.235   1.486
 3134SOL    HW2 9538   3.731   5.216   1.646
 3135SOL     OW 9539   2.224   4.617   1.804
 3135SOL    HW1 9540   2.285   4.647   1.877
 3135SOL    HW2 9541   2.265   4.539   1.756
 3136SOL     OW 9542   3.374   4.027   0.088
 3136SOL    HW1 9543   3.329   3.942   0.116
 3136SOL    HW2 9544   3.416   4.070   0.168
 3137SOL     OW 9545   3.198   4.511   0.032
 3137SOL    HW1 9546   3.200   4.411   0.031
 3137SOL    HW2 9547   3.267   4.546   5.487
 3138SOL     OW 9548   2.932   5.070   0.866
 3138SOL    HW1 9549   2.942   4.991   0.806
 3138SOL    HW2 9550   2.982   5.147   0.828
 3139SOL     OW 9551   2.198   4.533   0.935
 3139SOL    HW1 9552   2.296   4.546   0.947
 3139SOL    HW2 9553   2.173   4.440   0.962
 3140SOL     OW 9554   2.158   4.262   1.002
 3140SOL    HW1 9555   2.113   4.173   0.996
 3140SOL    HW2 9556   2.242   4.260   0.948
 3141SOL     OW 9557   2.988   4.092   1.719
 3141SOL    HW1 9558   2.949   4.149   1.792
 3141SOL    HW2 9559   3.078   4.128   1.694
 3142SOL     OW 9560   2.996   3.924   1.495
 3142SOL    HW1 9561   2.983   3.980   1.577
 3142SOL    HW2 9562   3.049   3.975   1.428
 3143SOL     OW 9563   1.896   5.035   0.200
 3143SOL    HW1 9564   1.806   5.059   0.165
 3143SOL    HW2 9565   1.897   4.939   0.228
 3144SOL     OW 9566   2.387   5.273   0.931
 3144SOL    HW1 9567   2.463   5.282   0.995
 3144SOL    HW2 9568   2.419   5.229   0.847
 3145SOL     OW 9569   2.786   4.511   1.205
 3145SOL    HW1 9570   2.841   4.486   1.285
 3145SOL    HW2 9571   2.706   4.452   1.199
 3146SOL     OW 9572   1.918   4.346   1.135
 3146SOL    HW1 9573   1.998   4.326   1.078
 3146SOL    HW2 9574   1.937   4.324   1.230
 3147SOL     OW 9575   2.082   4.308   1.743
 3147SOL    HW1 9576   2.179   4.323   1.722
 3147SOL    HW2 9577   2.026   4.368   1.687
 3148SOL     OW 9578   3.257   4.634   1.638
 3148SOL    HW1 9579   3.276   4.732   1.637
 3148SOL    HW2 9580   3.245   4.601   1.544
 3149SOL     OW 9581   2.653   4.272   0.363
 3149SOL    HW1 9582   2.657   4.182   0.320
 3149SOL    HW2 9583   2.568   4.318   0.336
 3150SOL     OW 9584   3.508   4.332   1.150
 3150SOL    HW1 9585   3.493   4.265   1.223
 3150SOL    HW2 9586   3.605   4.336   1.128
 3151SOL     OW 9587   1.998   5.229   1.749
 3151SOL    HW1 9588   2.023   5.311   1.801
 3151SOL    HW2 9589   2.046   5.150   1.787
 3152SOL     OW 9590   2.601   4.131   1.234
 3152SOL    HW1 9591   2.537   4.055   1.227
 3152SOL    HW2 9592   2.577   4.201   1.168
 3153SOL     OW 9593   2.274   4.197   0.154
 3153SOL    HW1 9594   2.330   4.272   0.189
 3153SOL    HW2 9595   2.185   4.231   0.127
 3154SOL     OW 9596   1.994   4.858   1.474
 3154SOL    HW1 9597   2.003   4.826   1.568
 3154SOL    HW2 9598   2.020   4.784   1.411
 3155SOL     OW 9599   3.136   4.750   1.198
 3155SOL    HW1 9600   3.148   4.685   1.123
 3155SOL    HW2 9601   3.098   4.835   1.162
 3156SOL     OW 9602   3.196   4.586   0.298
 3156SOL    HW1 9603   3.122   4.546   0.353
 3156SOL    HW2 9604   3.190   4.553   0.204
 3157SOL     OW 9605   3.675   5.437   1.165
 3157SOL    HW1 9606   3.697   5.491   1.084
 3157SOL    HW2 9607   3.619   5.359   1.138
 3158SOL     OW 9608   3.156   5.460   1.089
 3158SOL    HW1 9609   3.227   5.472   1.020
 3158SOL    HW2 9610   3.160   5.367   1.125
 3159SOL     OW 9611   1.986   4.951   0.994
 3159SOL    HW1 9612   1.962   4.978   1.087
 3159SOL    HW2 9613   1.914   4.891   0.957
 3160SOL     OW 9614   2.582   5.394   1.728
 3160SOL    HW1 9615   2.563   5.487   1.697
 3160SOL    HW2 9616   2.680   5.384   1.743
 3161SOL     OW 9617   2.796   3.783   0.070
 3161SOL    HW1 9618   2.814   3.757   5.493
 3161SOL    HW2 9619   2.865   3.743   0.130
 3162SOL     OW 9620   3.625   3.953   0.444
 3162SOL    HW1 9621   3.684   3.920   0.370
 3162SOL    HW2 9622   3.578   3.875   0.486
 3163SOL     OW 9623   3.317   5.356   0.474
 3163SOL    HW1 9624   3.392   5.364   0.408
 3163SOL    HW2 9625   3.278   5.447   0.490
 3164SOL     OW 9626   2.011   5.465   1.897
 3164SOL    HW1 9627   1.941   5.416   1.948
 3164SOL    HW2 9628   2.072   5.512   1.961
 3165SOL     OW 9629   3.149   4.665   0.640
 3165SOL    HW1 9630   3.223   4.601   0.661
 3165SOL    HW2 9631   3.188   4.748   0.600
 3166SOL     OW 9632   2.632   4.982   1.401
 3166SOL    HW1 9633   2.604   5.039   1.478
 3166SOL    HW2 9634   2.559   4.979   1.333
 3167SOL     OW 9635   2.500   5.376   0.108
 3167SOL    HW1 9636   2.582   5.344   0.059
 3167SOL    HW2 9637   2.441   5.298   0.128
 3168SOL     OW 9638   3.708   3.871   0.959
 3168SOL    HW1 9639   3.736   3.777   0.938
 3168SOL    HW2 9640   3.616   3.887   0.923
 3169SOL     OW 9641   2.092   4.037   0.708
 3169SOL    HW1 9642   2.004   4.078   0.680
 3169SOL    HW2 9643   2.097   4.033   0.807
 3170SOL     OW 9644   3.121   5.313   0.040
 3170SOL    HW1 9645   3.106   5.222   0.079
 3170SOL    HW2 9646   3.056   5.329   5.484
 3171SOL     OW 9647   2.681   4.712   1.399
 3171SOL    HW1 9648   2.725   4.683   1.314
 3171SOL    HW2 9649   2.669   4.811   1.399
 3172SOL     OW 9650   2.789   4.605   0.255
 3172SOL    HW1 9651   2.857   4.640   0.190
 3172SOL    HW2 9652   2.832   4.540   0.316
 3173SOL     OW 9653   3.390   5.367   0.044
 3173SOL    HW1 9654   3.294   5.339   0.037
 3173SOL    HW2 9655   3.430   5.370   5.469
 3174SOL     OW 9656   2.212   5.038   1.476
 3174SOL    HW1 9657   2.203   5.118   1.416
 3174SOL    HW2 9658   2.133   4.979   1.465
 3175SOL     OW 9659   3.462   5.024   1.281
 3175SOL    HW1 9660   3.524   4.986   1.349
 3175SOL    HW2 9661   3.395   5.083   1.326
 3176SOL     OW 9662   2.946   4.832   0.738
 3176SOL    HW1 9663   2.867   4.780   0.772
 3176SOL    HW2 9664   3.012   4.768   0.697
 3177SOL     OW 9665   2.901   3.969   0.940
 3177SOL    HW1 9666   2.895   3.931   0.848
 3177SOL    HW2 9667   2.904   3.895   1.007
 3178SOL     OW 9668   2.486   5.244   0.477
 3178SOL    HW1 9669   2.519   5.184   0.404
 3178SOL    HW2 9670   2.459   5.332   0.439
 3179SOL     OW 9671   3.611   4.119   1.380
 3179SOL    HW1 9672   3.685   4.185   1.391
 3179SOL    HW2 9673   3.640   4.045   1.320
 3180SOL     OW 9674   2.133   5.106   0.321
 3180SOL    HW1 9675   2.047   5.083   0.275
 3180SOL    HW2 9676   2.115   5.171   0.395
 3181SOL     OW 9677   2.002   4.760   1.733
 3181SOL    HW1 9678   1.919   4.737   1.783
 3181SOL    HW2 9679   2.078   4.705   1.768
 3182SOL     OW 9680   2.567   3.915   1.502
 3182SOL    HW1 9681   2.651   3.885   1.456
 3182SOL    HW2 9682   2.587   3.939   1.596
 3183SOL     OW 9683   1.935   4.025   0.011
 3183SOL    HW1 9684   1.849   4.027   5.475
 3183SOL    HW2 9685   1.964   4.119   0.029
 3184SOL     OW 9686   3.255   4.567   1.373
 3184SOL    HW1 9687   3.194   4.625   1.319
 3184SOL    HW2 9688   3.348   4.572   1.336
 3185SOL     OW 9689   1.911   3.856   0.230
 3185SOL    HW1 9690   1.904   3.923   0.155
 3185SOL    HW2 9691   2.003   3.817   0.231
 3186SOL     OW 9692   3.081   5.078   0.179
 3186SOL    HW1 9693   2.982   5.091   0.181
 3186SOL    HW2 9694   3.116   5.078   0.273
 3187SOL     OW 9695   2.496   4.519   1.457
 3187SOL    HW1 9696   2.555   4.599   1.446
 3187SOL    HW2 9697   2.553   4.436   1.458
 3188SOL     OW 9698   3.365   5.489   0.916
 3188SOL    HW1 9699   3.393   0.068   0.911
 3188SOL    HW2 9700   3.444   5.430   0.896
 3189SOL     OW 9701   2.570   4.258   1.718
 3189SOL    HW1 9702   2.623   4.320   1.776
 3189SOL    HW2 9703   2.588   4.163   1.744
 3190SOL     OW 9704   3.332   4.899   1.616
 3190SOL    HW1 9705   3.332   4.918   1.714
 3190SOL    HW2 9706   3.423   4.918   1.578
 3191SOL     OW 9707   3.498   4.598   1.247
 3191SOL    HW1 9708   3.505   4.510   1.199
 3191SOL    HW2 9709   3.486   4.671   1.180
 3192SOL     OW 9710   3.093   4.051   0.460
 3192SOL    HW1 9711   3.155   3.972   0.454
 3192SOL    HW2 9712   3.120   4.109   0.536
 3193SOL     OW 9713   2.419   4.446   0.674
 3193SOL    HW1 9714   2.470   4.531   0.664
 3193SOL    HW2 9715   2.344   4.444   0.608
 3194SOL     OW 9716   3.596   4.092   1.665
 3194SOL    HW1 9717   3.585   4.098   1.566
 3194SOL    HW2 9718   3.525   4.032   1.703
 3195SOL     OW 9719   3.611   4.651   1.490
 3195SOL    HW1 9720   3.596   4.748   1.509
 3195SOL    HW2 9721   3.575   4.629   1.399
 3196SOL     OW 9722   2.817   5.167   0.182
 3196SOL    HW1 9723   2.746   5.112   0.225
 3196SOL    HW2 9724   2.780   5.213   0.102
 3197SOL     OW 9725   2.737   4.693   0.858
 3197SOL    HW1 9726   2.788   4.616   0.896
 3197SOL    HW2 9727   2.686   4.740   0.932
 3198SOL     OW 9728   2.962   4.653   0.051
 3198SOL    HW1 9729   2.917   4.651   5.479
 3198SOL    HW2 9730   3.052   4.611   0.044
 3199SOL     OW 9731   3.613   5.361   0.855
 3199SOL    HW1 9732   3.572   5.318   0.775
 3199SOL    HW2 9733   3.621   5.294   0.929
 3200SOL     OW 9734   2.093   4.990   1.856
 3200SOL    HW1 9735   2.066   4.911   1.802
 3200SOL    HW2 9736   2.035   4.997   1.937
 3201SOL     OW 9737   2.021   5.029   0.698
 3201SOL    HW1 9738   2.031   4.994   0.791
 3201SOL    HW2 9739   2.078   4.975   0.636
 3202SOL     OW 9740   2.525   5.168   1.582
 3202SOL    HW1 9741   2.458   5.113   1.631
 3202SOL    HW2 9742   2.549   5.249   1.636
 3203SOL     OW 9743   3.683   3.911   1.228
 3203SOL    HW1 9744   3.680   3.819   1.268
 3203SOL    HW2 9745   3.695   3.904   1.129
 3204SOL     OW 9746   2.269   4.153   0.512
 3204SOL    HW1 9747   2.317   4.085   0.457
 3204SOL    HW2 9748   2.216   4.106   0.583
 3205SOL     OW 9749   3.541   5.205   1.075
 3205SOL    HW1 9750   3.464   5.186   1.014
 3205SOL    HW2 9751   3.540   5.140   1.151
 3206SOL     OW 9752   2.223   4.270   1.283
 3206SOL    HW1 9753   2.278   4.204   1.335
 3206SOL    HW2 9754   2.220   4.242   1.187
 3207SOL     OW 9755   2.737   5.312   0.644
 3207SOL    HW1 9756   2.709   5.401   0.609
 3207SOL    HW2 9757   2.655   5.258   0.665
 3208SOL     OW 9758   3.287   3.970   1.121
 3208SOL    HW1 9759   3.310   3.875   1.143
 3208SOL    HW2 9760   3.232   4.009   1.195
 3209SOL     OW 9761   2.899   3.740   1.098
 3209SOL    HW1 9762   2.837   3.678   1.050
 3209SOL    HW2 9763   2.990   3.700   1.102
 3210SOL     OW 9764   2.658   5.030   0.361
 3210SOL    HW1 9765   2.626   4.936   0.365
 3210SOL    HW2 9766   2.730   5.044   0.429
 3211SOL     OW 9767   2.493   5.260   1.320
 3211SOL    HW1 9768   2.507   5.238   1.417
 3211SOL    HW2 9769   2.581   5.284   1.279
 3212SOL     OW 9770   3.246   3.778   0.173
 3212SOL    HW1 9771   3.298   3.702   0.133
 3212SOL    HW2 9772   3.150   3.751   0.182
 3213SOL     OW 9773   3.157   4.207   0.676
 3213SOL    HW1 9774   3.105   4.292   0.668
 3213SOL    HW2 9775   3.154   4.174   0.770
 3214SOL     OW 9776   3.449   3.930   0.898
 3214SOL    HW1 9777   3.393   3.957   0.976
 3214SOL    HW2 9778   3.449   4.003   0.830
 3215SOL     OW 9779   1.915   4.762   0.303
 3215SOL    HW1 9780   2.014   4.751   0.312
 3215SOL    HW2 9781   1.870   4.675   0.320
 3216SOL     OW 9782   2.053   4.360   2.017
 3216SOL    HW1 9783   1.961   4.330   2.044
 3216SOL    HW2 9784   2.061   4.356   1.918
 3217SOL     OW 9785   2.061   4.016   2.851
 3217SOL    HW1 9786   2.100   3.973   2.933
 3217SOL    HW2 9787   1.969   3.980   2.836
 3218SOL     OW 9788   1.858   4.146   2.496
 3218SOL    HW1 9789   1.776   4.162   2.551
 3218SOL    HW2 9790   1.840   4.074   2.429
 3219SOL     OW 9791   2.426   5.025   3.078
 3219SOL    HW1 9792   2.337   5.027   3.034
 3219SOL    HW2 9793   2.448   5.115   3.115
 3220SOL     OW 9794   3.456   5.206   2.538
 3220SOL    HW1 9795   3.394   5.191   2.615
 3220SOL    HW2 9796   3.406   5.240   2.459
 3221SOL     OW 9797   3.684   4.292   2.085
 3221SOL    HW1 9798   3.632   4.297   2.000
 3221SOL    HW2 9799   3.699   4.196   2.110
 3222SOL     OW 9800   2.568   4.875   2.894
 3222SOL    HW1 9801   2.510   4.907   2.968
 3222SOL    HW2 9802   2.614   4.953   2.850
 3223SOL     OW 9803   2.746   4.448   3.718
 3223SOL    HW1 9804   2.744   4.509   3.797
 3223SOL    HW2 9805   2.764   4.500   3.635
 3224SOL     OW 9806   2.551   4.702   2.489
 3224SOL    HW1 9807   2.623   4.706   2.559
 3224SOL    HW2 9808   2.480   4.769   2.510
 3225SOL     OW 9809   2.540   4.881   3.696
 3225SOL    HW1 9810   2.591   4.956   3.738
 3225SOL    HW2 9811   2.463   4.918   3.644
 3226SOL     OW 9812   2.197   5.116   2.947
 3226SOL    HW1 9813   2.122   5.065   2.908
 3226SOL    HW2 9814   2.246   5.165   2.874
 3227SOL     OW 9815   3.292   5.210   3.286
 3227SOL    HW1 9816   3.347   5.265   3.348
 3227SOL    HW2 9817   3.200   5.200   3.323
 3228SOL     OW 9818   2.330   4.087   3.306
 3228SOL    HW1 9819   2.412   4.032   3.323
 3228SOL    HW2 9820   2.249   4.036   3.333
 3229SOL     OW 9821   2.963   5.048   3.598
 3229SOL    HW1 9822   3.024   5.030   3.675
 3229SOL    HW2 9823   2.900   4.972   3.586
 3230SOL     OW 9824   2.040   5.213   2.414
 3230SOL    HW1 9825   2.068   5.292   2.469
 3230SOL    HW2 9826   2.033   5.132   2.473
 3231SOL     OW 9827   2.165   4.815   2.737
 3231SOL    HW1 9828   2.178   4.719   2.759
 3231SOL    HW2 9829   2.108   4.858   2.807
 3232SOL     OW 9830   2.418   4.707   2.015
 3232SOL    HW1 9831   2.458   4.758   1.939
 3232SOL    HW2 9832   2.475   4.719   2.097
 3233SOL     OW 9833   3.481   3.830   3.352
 3233SOL    HW1 9834   3.514   3.911   3.304
 3233SOL    HW2 9835   3.417   3.858   3.424
 3234SOL     OW 9836   1.968   4.402   2.435
 3234SOL    HW1 9837   1.942   4.308   2.458
 3234SOL    HW2 9838   1.966   4.458   2.518
 3235SOL     OW 9839   1.859   5.300   2.056
 3235SOL    HW1 9840   1.809   5.225   2.011
 3235SOL    HW2 9841   1.926   5.262   2.118
 3236SOL     OW 9842   3.539   4.865   2.297
 3236SOL    HW1 9843   3.624   4.826   2.261
 3236SOL    HW2 9844   3.553   4.892   2.392
 3237SOL     OW 9845   1.971   4.476   3.425
 3237SOL    HW1 9846   2.054   4.531   3.418
 3237SOL    HW2 9847   1.892   4.533   3.402
 3238SOL     OW 9848   2.474   5.110   2.593
 3238SOL    HW1 9849   2.432   5.020   2.582
 3238SOL    HW2 9850   2.488   5.151   2.503
 3239SOL     OW 9851   3.112   4.928   3.282
 3239SOL    HW1 9852   3.134   4.861   3.211
 3239SOL    HW2 9853   3.184   4.927   3.352
 3240SOL     OW 9854   2.643   3.689   2.362
 3240SOL    HW1 9855   2.711   3.762   2.354
 3240SOL    HW2 9856   2.551   3.729   2.365
 3241SOL     OW 9857   2.049   4.667   3.168
 3241SOL    HW1 9858   2.142   4.633   3.152
 3241SOL    HW2 9859   1.987   4.626   3.101
 3242SOL     OW 9860   3.428   4.745   2.072
 3242SOL    HW1 9861   3.358   4.676   2.093
 3242SOL    HW2 9862   3.462   4.785   2.157
 3243SOL     OW 9863   2.973   5.473   3.467
 3243SOL    HW1 9864   2.996   0.033   3.408
 3243SOL    HW2 9865   3.007   5.389   3.426
 3244SOL     OW 9866   2.215   3.985   3.750
 3244SOL    HW1 9867   2.255   4.066   3.792
 3244SOL    HW2 9868   2.119   4.004   3.727
 3245SOL     OW 9869   3.317   5.169   2.783
 3245SOL    HW1 9870   3.267   5.181   2.869
 3245SOL    HW2 9871   3.326   5.071   2.763
 3246SOL     OW 9872   2.426   4.418   2.114
 3246SOL    HW1 9873   2.440   4.510   2.076
 3246SOL    HW2 9874   2.366   4.424   2.194
 3247SOL     OW 9875   3.136   4.039   2.755
 3247SOL    HW1 9876   3.038   4.029   2.769
 3247SOL    HW2 9877   3.184   4.027   2.842
 3248SOL     OW 9878   3.471   5.388   2.129
 3248SOL    HW1 9879   3.569   5.375   2.113
 3248SOL    HW2 9880   3.422   5.380   2.043
 3249SOL     OW 9881   2.625   4.307   3.312
 3249SOL    HW1 9882   2.602   4.276   3.404
 3249SOL    HW2 9883   2.599   4.237   3.245
 3250SOL     OW 9884   3.243   4.189   3.529
 3250SOL    HW1 9885   3.247   4.236   3.616
 3250SOL    HW2 9886   3.285   4.098   3.538
 3251SOL     OW 9887   2.801   4.583   3.480
 3251SOL    HW1 9888   2.855   4.512   3.436
 3251SOL    HW2 9889   2.750   4.634   3.411
 3252SOL     OW 9890   2.847   4.132   3.076
 3252SOL    HW1 9891   2.750   4.136   3.098
 3252SOL    HW2 9892   2.860   4.095   2.984
 3253SOL     OW 9893   1.948   4.577   2.650
 3253SOL    HW1 9894   2.039   4.560   2.687
 3253SOL    HW2 9895   1.902   4.646   2.706
 3254SOL     OW 9896   2.032   0.033   3.516
 3254SOL    HW1 9897   2.026   0.020   3.615
 3254SOL    HW2 9898   1.995   5.469   3.470
 3255SOL     OW 9899   2.742   3.987   2.109
 3255SOL    HW1 9900   2.708   4.081   2.111
 3255SOL    HW2 9901   2.797   3.974   2.027
 3256SOL     OW 9902   3.516   4.288   3.700
 3256SOL    HW1 9903   3.508   4.368   3.641
 3256SOL    HW2 9904   3.540   4.208   3.644
 3257SOL     OW 9905   3.275   4.916   2.377
 3257SOL    HW1 9906   3.362   4.902   2.329
 3257SOL    HW2 9907   3.220   4.983   2.328
 3258SOL     OW 9908   2.379   3.870   2.782
 3258SOL    HW1 9909   2.396   3.900   2.876
 3258SOL    HW2 9910   2.398   3.945   2.719
 3259SOL     OW 9911   2.878   5.184   2.321
 3259SOL    HW1 9912   2.848   5.249   2.251
 3259SOL    HW2 9913   2.848   5.215   2.411
 3260SOL     OW 9914   2.248   5.498   2.727
 3260SOL    HW1 9915   2.293   5.414   2.755
 3260SOL    HW2 9916   2.297   0.059   2.765
 3261SOL     OW 9917   3.678   4.784   2.761
 3261SOL    HW1 9918   3.642   4.831   2.681
 3261SOL    HW2 9919   3.609   4.783   2.834
 3262SOL     OW 9920   3.032   5.216   3.387
 3262SOL    HW1 9921   3.022   5.152   3.463
 3262SOL    HW2 9922   2.979   5.183   3.308
 3263SOL     OW 9923   2.165   4.663   2.134
 3263SOL    HW1 9924   2.252   4.685   2.090
 3263SOL    HW2 9925   2.149   4.565   2.129
 3264SOL     OW 9926   2.327   5.020   3.586
 3264SOL    HW1 9927   2.294   5.024   3.492
 3264SOL    HW2 9928   2.249   5.012   3.648
 3265SOL     OW 9929   3.000   5.499   2.077
 3265SOL    HW1 9930   2.904   0.005   2.059
 3265SOL    HW2 9931   3.023   5.413   2.033
 3266SOL     OW 9932   2.081   3.971   3.347
 3266SOL    HW1 9933   2.026   4.053   3.355
 3266SOL    HW2 9934   2.035   3.896   3.395
 3267SOL     OW 9935   3.529   5.127   1.937
 3267SOL    HW1 9936   3.475   5.210   1.921
 3267SOL    HW2 9937   3.474   5.046   1.918
 3268SOL     OW 9938   2.235   4.411   2.327
 3268SOL    HW1 9939   2.256   4.314   2.342
 3268SOL    HW2 9940   2.139   4.429   2.349
 3269SOL     OW 9941   3.332   3.923   3.573
 3269SOL    HW1 9942   3.338   3.940   3.672
 3269SOL    HW2 9943   3.263   3.852   3.557
 3270SOL     OW 9944   2.521   3.858   2.007
 3270SOL    HW1 9945   2.606   3.889   2.048
 3270SOL    HW2 9946   2.535   3.769   1.965
 3271SOL     OW 9947   2.629   3.991   3.623
 3271SOL    HW1 9948   2.718   3.945   3.621
 3271SOL    HW2 9949   2.571   3.947   3.691
 3272SOL     OW 9950   2.735   5.263   3.040
 3272SOL    HW1 9951   2.709   5.218   2.955
 3272SOL    HW2 9952   2.794   5.202   3.093
 3273SOL     OW 9953   3.174   4.322   3.297
 3273SOL    HW1 9954   3.214   4.285   3.381
 3273SOL    HW2 9955   3.217   4.409   3.275
 3274SOL     OW 9956   2.664   5.125   2.802
 3274SOL    HW1 9957   2.759   5.117   2.771
 3274SOL    HW2 9958   2.603   5.125   2.722
 3275SOL     OW 9959   2.773   4.244   2.745
 3275SOL    HW1 9960   2.757   4.232   2.647
 3275SOL    HW2 9961   2.815   4.162   2.782
 3276SOL     OW 9962   2.388   3.788   2.355
 3276SOL    HW1 9963   2.307   3.781   2.413
 3276SOL    HW2 9964   2.380   3.868   2.296
 3277SOL     OW 9965   3.337   4.931   1.892
 3277SOL    HW1 9966   3.371   4.856   1.948
 3277SOL    HW2 9967   3.248   4.961   1.926
 3278SOL     OW 9968   2.162   3.754   2.030
 3278SOL    HW1 9969   2.211   3.828   1.983
 3278SOL    HW2 9970   2.228   3.697   2.079
 3279SOL     OW 9971   2.833   3.881   2.344
 3279SOL    HW1 9972   2.802   3.924   2.260
 3279SOL    HW2 9973   2.926   3.847   2.332
 3280SOL     OW 9974   2.911   4.396   3.315
 3280SOL    HW1 9975   2.847   4.319   3.308
 3280SOL    HW2 9976   3.005   4.362   3.305
 3281SOL     OW 9977   3.095   5.294   2.662
 3281SOL    HW1 9978   3.099   5.393   2.668
 3281SOL    HW2 9979   3.180   5.255   2.698
 3282SOL     OW 9980   2.345   4.875   2.541
 3282SOL    HW1 9981   2.287   4.851   2.619
 3282SOL    HW2 9982   2.291   4.873   2.457
 3283SOL     OW 9983   2.907   4.250   1.927
 3283SOL    HW1 9984   2.835   4.314   1.901
 3283SOL    HW2 9985   2.935   4.267   2.022
 3284SOL     OW 9986   1.977   4.252   3.267
 3284SOL    HW1 9987   2.070   4.254   3.229
 3284SOL    HW2 9988   1.965   4.329   3.330
 3285SOL     OW 9989   2.411   3.922   3.048
 3285SOL    HW1 9990   2.448   3.846   3.102
 3285SOL    HW2 9991   2.313   3.930   3.063
 3286SOL     OW 9992   2.742   4.172   2.479
 3286SOL    HW1 9993   2.773   4.243   2.416
 3286SOL    HW2 9994   2.758   4.082   2.440
 3287SOL     OW 9995   2.802   3.845   2.620
 3287SOL    HW1 9996   2.814   3.861   2.522
 3287SOL    HW2 9997   2.794   3.747   2.637
 3288SOL     OW 9998   3.377   4.914   2.711
 3288SOL    HW1 9999   3.315   4.847   2.670
 3288SOL    HW210000   3.454   4.930   2.650
 3289SOL     OW10001   3.661   4.501   2.267
 3289SOL    HW110002   3.735   4.477   2.329
 3289SOL    HW210003   3.655   4.433   2.194
 3290SOL     OW10004   2.343   5.178   2.049
 3290SOL    HW110005   2.257   5.159   2.097
 3290SOL    HW210006   2.364   5.101   1.988
 3291SOL     OW10007   3.601   4.967   2.552
 3291SOL    HW110008   3.701   4.969   2.539
 3291SOL    HW210009   3.564   5.058   2.536
 3292SOL     OW10010   3.280   4.296   1.916
 3292SOL    HW110011   3.261   4.261   2.008
 3292SOL    HW210012   3.379   4.304   1.904
 3293SOL     OW10013   2.355   3.990   2.175
 3293SOL    HW110014   2.417   3.941   2.115
 3293SOL    HW210015   2.320   4.071   2.128
 3294SOL     OW10016   3.602   4.957   3.389
 3294SOL    HW110017   3.694   4.921   3.375
 3294SOL    HW210018   3.608   5.052   3.421
 3295SOL     OW10019   2.887   5.067   3.199
 3295SOL    HW110020   2.798   5.031   3.228
 3295SOL    HW210021   2.959   5.008   3.235
 3296SOL     OW10022   3.433   5.361   3.481
 3296SOL    HW110023   3.446   5.447   3.432
 3296SOL    HW210024   3.517   5.307   3.476
 3297SOL     OW10025   3.021   4.996   2.969
 3297SOL    HW110026   2.954   5.016   3.040
 3297SOL    HW210027   2.983   5.019   2.879
 3298SOL     OW10028   3.487   4.835   2.958
 3298SOL    HW110029   3.478   4.907   3.027
 3298SOL    HW210030   3.423   4.851   2.883
 3299SOL     OW10031   2.767   3.794   3.245
 3299SOL    HW110032   2.779   3.781   3.147
 3299SOL    HW210033   2.851   3.834   3.284
 3300SOL     OW10034   2.802   4.823   3.610
 3300SOL    HW110035   2.706   4.840   3.634
 3300SOL    HW210036   2.809   4.739   3.558
 3301SOL     OW10037   2.602   4.735   2.220
 3301SOL    HW110038   2.587   4.713   2.316
 3301SOL    HW210039   2.672   4.675   2.182
 3302SOL     OW10040   2.290   4.544   3.129
 3302SOL    HW110041   2.362   4.556   3.198
 3302SOL    HW210042   2.261   4.449   3.128
 3303SOL     OW10043   3.097   4.095   3.170
 3303SOL    HW110044   3.134   4.178   3.211
 3303SOL    HW210045   3.006   4.113   3.133
 3304SOL     OW10046   1.944   5.292   3.220
 3304SOL    HW110047   1.902   5.353   3.152
 3304SOL    HW210048   2.043   5.294   3.209
 3305SOL     OW10049   2.176   4.873   2.321
 3305SOL    HW110050   2.172   4.954   2.261
 3305SOL    HW210051   2.174   4.790   2.265
 3306SOL     OW10052   2.375   4.279   2.732
 3306SOL    HW110053   2.385   4.339   2.653
 3306SOL    HW210054   2.454   4.290   2.793
 3307SOL     OW10055   3.134   5.117   2.248
 3307SOL    HW110056   3.195   5.191   2.279
 3307SOL    HW210057   3.042   5.132   2.284
 3308SOL     OW10058   3.195   5.199   3.025
 3308SOL    HW110059   3.233   5.201   3.117
 3308SOL    HW210060   3.136   5.119   3.015
 3309SOL     OW10061   2.211   5.269   3.169
 3309SOL    HW110062   2.200   5.217   3.085
 3309SOL    HW210063   2.308   5.288   3.184
 3310SOL     OW10064   2.340   4.414   3.528
 3310SOL    HW110065   2.374   4.468   3.450
 3310SOL    HW210066   2.411   4.350   3.557
 3311SOL     OW10067   3.487   4.518   3.558
 3311SOL    HW110068   3.395   4.554   3.546
 3311SOL    HW210069   3.546   4.551   3.483
 3312SOL     OW10070   2.861   3.850   3.638
 3312SOL    HW110071   2.923   3.926   3.618
 3312SOL    HW210072   2.910   3.763   3.631
 3313SOL     OW10073   2.344   3.771   3.630
 3313SOL    HW110074   2.291   3.721   3.561
 3313SOL    HW210075   2.294   3.854   3.656
 3314SOL     OW10076   2.482   4.597   2.921
 3314SOL    HW110077   2.508   4.693   2.907
 3314SOL    HW210078   2.403   4.593   2.983
 3315SOL     OW10079   3.208   4.628   2.825
 3315SOL    HW110080   3.210   4.675   2.737
 3315SOL    HW210081   3.194   4.530   2.811
 3316SOL     OW10082   2.142   3.899   3.085
 3316SOL    HW110083   2.115   3.927   3.178
 3316SOL    HW210084   2.132   3.800   3.076
 3317SOL     OW10085   1.912   5.030   3.134
 3317SOL    HW110086   1.943   4.969   3.208
 3317SOL    HW210087   1.920   5.125   3.165
 3318SOL     OW10088   2.576   4.340   2.911
 3318SOL    HW110089   2.652   4.320   2.848
 3318SOL    HW210090   2.553   4.438   2.905
 3319SOL     OW10091   3.617   4.693   3.731
 3319SOL    HW110092   3.574   4.622   3.675
 3319SOL    HW210093   3.559   4.712   3.810
 3320SOL     OW10094   2.146   3.773   2.489
 3320SOL    HW110095   2.121   3.869   2.502
 3320SOL    HW210096   2.154   3.729   2.578
 3321SOL     OW10097   2.825   4.513   2.822
 3321SOL    HW110098   2.827   4.515   2.922
 3321SOL    HW210099   2.833   4.419   2.790
 3322SOL     OW10100   2.853   5.300   3.651
 3322SOL    HW110101   2.885   5.364   3.581
 3322SOL    HW210102   2.863   5.206   3.618
 3323SOL     OW10103   3.665   5.221   3.443
 3323SOL    HW110104   3.708   5.252   3.358
 3323SOL    HW210105   3.732   5.225   3.518
 3324SOL     OW10106   2.223   4.619   3.673
 3324SOL    HW110107   2.290   4.651   3.740
 3324SOL    HW210108   2.262   4.542   3.622
 3325SOL     OW10109   3.445   3.994   1.899
 3325SOL    HW110110   3.384   3.922   1.934
 3325SOL    HW210111   3.461   4.062   1.970
 3326SOL     OW10112   3.136   4.540   1.864
 3326SOL    HW110113   3.161   4.444   1.877
 3326SOL    HW210114   3.174   4.573   1.777
 3327SOL     OW10115   2.923   5.091   2.730
 3327SOL    HW110116   2.935   5.009   2.674
 3327SOL    HW210117   2.978   5.166   2.694
 3328SOL     OW10118   2.192   4.540   2.766
 3328SOL    HW110119   2.268   4.528   2.702
 3328SOL    HW210120   2.182   4.459   2.823
 3329SOL     OW10121   2.150   4.268   2.873
 3329SOL    HW110122   2.108   4.178   2.863
 3329SOL    HW210123   2.233   4.272   2.817
 3330SOL     OW10124   2.992   4.081   3.564
 3330SOL    HW110125   2.947   4.132   3.637
 3330SOL    HW210126   3.079   4.124   3.541
 3331SOL     OW10127   2.996   3.912   3.347
 3331SOL    HW110128   2.982   3.971   3.426
 3331SOL    HW210129   3.039   3.963   3.273
 3332SOL     OW10130   1.895   4.987   2.053
 3332SOL    HW110131   1.810   5.018   2.011
 3332SOL    HW210132   1.885   4.893   2.085
 3333SOL     OW10133   2.378   5.264   2.795
 3333SOL    HW110134   2.458   5.275   2.853
 3333SOL    HW210135   2.403   5.212   2.713
 3334SOL     OW10136   2.778   4.514   3.100
 3334SOL    HW110137   2.838   4.479   3.173
 3334SOL    HW210138   2.702   4.451   3.087
 3335SOL     OW10139   1.909   4.339   3.007
 3335SOL    HW110140   1.988   4.326   2.948
 3335SOL    HW210141   1.932   4.309   3.100
 3336SOL     OW10142   2.078   4.299   3.612
 3336SOL    HW110143   2.174   4.308   3.586
 3336SOL    HW210144   2.022   4.358   3.554
 3337SOL     OW10145   3.251   4.649   3.497
 3337SOL    HW110146   3.274   4.746   3.495
 3337SOL    HW210147   3.241   4.615   3.403
 3338SOL     OW10148   2.648   4.243   2.123
 3338SOL    HW110149   2.719   4.284   2.180
 3338SOL    HW210150   2.569   4.304   2.118
 3339SOL     OW10151   3.506   4.377   2.994
 3339SOL    HW110152   3.444   4.308   2.957
 3339SOL    HW210153   3.601   4.349   2.978
 3340SOL     OW10154   2.021   5.247   3.608
 3340SOL    HW110155   2.043   5.319   3.674
 3340SOL    HW210156   2.055   5.159   3.641
 3341SOL     OW10157   2.574   4.143   3.099
 3341SOL    HW110158   2.513   4.066   3.080
 3341SOL    HW210159   2.564   4.211   3.026
 3342SOL     OW10160   2.280   4.202   2.019
 3342SOL    HW110161   2.353   4.266   2.038
 3342SOL    HW210162   2.192   4.248   2.028
 3343SOL     OW10163   1.990   4.862   3.344
 3343SOL    HW110164   2.000   4.828   3.438
 3343SOL    HW210165   2.014   4.789   3.280
 3344SOL     OW10166   3.149   4.766   3.053
 3344SOL    HW110167   3.174   4.707   2.977
 3344SOL    HW210168   3.100   4.846   3.018
 3345SOL     OW10169   3.221   4.570   2.121
 3345SOL    HW110170   3.166   4.508   2.176
 3345SOL    HW210171   3.191   4.566   2.026
 3346SOL     OW10172   3.689   5.441   3.026
 3346SOL    HW110173   3.711   5.493   2.943
 3346SOL    HW210174   3.633   5.363   3.002
 3347SOL     OW10175   3.138   5.461   2.954
 3347SOL    HW110176   3.212   5.479   2.890
 3347SOL    HW210177   3.145   5.368   2.989
 3348SOL     OW10178   1.980   4.954   2.883
 3348SOL    HW110179   1.949   4.980   2.974
 3348SOL    HW210180   1.909   4.900   2.837
 3349SOL     OW10181   2.544   5.419   3.576
 3349SOL    HW110182   2.468   5.484   3.573
 3349SOL    HW210183   2.630   5.468   3.562
 3350SOL     OW10184   3.305   5.326   2.335
 3350SOL    HW110185   3.370   5.344   2.260
 3350SOL    HW210186   3.258   5.411   2.358
 3351SOL     OW10187   2.041   5.470   3.782
 3351SOL    HW110188   1.972   5.411   3.825
 3351SOL    HW210189   2.093   5.517   3.852
 3352SOL     OW10190   3.239   4.727   2.564
 3352SOL    HW110191   3.270   4.640   2.526
 3352SOL    HW210192   3.241   4.797   2.493
 3353SOL     OW10193   2.633   4.990   3.263
 3353SOL    HW110194   2.603   5.044   3.342
 3353SOL    HW210195   2.558   4.984   3.197
 3354SOL     OW10196   2.538   5.360   1.996
 3354SOL    HW110197   2.541   5.368   1.897
 3354SOL    HW210198   2.462   5.300   2.022
 3355SOL     OW10199   3.705   3.904   2.837
 3355SOL    HW110200   3.733   3.812   2.807
 3355SOL    HW210201   3.609   3.919   2.813
 3356SOL     OW10202   2.096   4.030   2.573
 3356SOL    HW110203   2.012   4.078   2.546
 3356SOL    HW210204   2.101   4.026   2.672
 3357SOL     OW10205   3.074   5.278   1.932
 3357SOL    HW110206   3.080   5.184   1.964
 3357SOL    HW210207   2.992   5.289   1.876
 3358SOL     OW10208   2.684   4.718   3.276
 3358SOL    HW110209   2.723   4.677   3.194
 3358SOL    HW210210   2.675   4.817   3.263
 3359SOL     OW10211   2.795   4.576   2.098
 3359SOL    HW110212   2.875   4.631   2.075
 3359SOL    HW210213   2.822   4.503   2.161
 3360SOL     OW10214   3.340   5.352   1.885
 3360SOL    HW110215   3.246   5.320   1.893
 3360SOL    HW210216   3.367   5.354   1.788
 3361SOL     OW10217   2.211   5.044   3.347
 3361SOL    HW110218   2.202   5.122   3.285
 3361SOL    HW210219   2.133   4.982   3.334
 3362SOL     OW10220   3.471   5.040   3.151
 3362SOL    HW110221   3.530   5.000   3.221
 3362SOL    HW210222   3.400   5.095   3.195
 3363SOL     OW10223   2.952   4.856   2.605
 3363SOL    HW110224   2.870   4.805   2.632
 3363SOL    HW210225   3.025   4.792   2.583
 3364SOL     OW10226   2.865   3.990   2.838
 3364SOL    HW110227   2.840   3.954   2.748
 3364SOL    HW210228   2.860   3.916   2.906
 3365SOL     OW10229   2.524   5.212   2.345
 3365SOL    HW110230   2.562   5.137   2.290
 3365SOL    HW210231   2.476   5.276   2.285
 3366SOL     OW10232   3.676   4.062   3.299
 3366SOL    HW110233   3.710   4.151   3.267
 3366SOL    HW210234   3.681   3.996   3.224
 3367SOL     OW10235   2.108   5.106   2.176
 3367SOL    HW110236   2.026   5.062   2.138
 3367SOL    HW210237   2.084   5.151   2.262
 3368SOL     OW10238   1.999   4.762   3.601
 3368SOL    HW110239   1.915   4.736   3.649
 3368SOL    HW210240   2.074   4.703   3.631
 3369SOL     OW10241   2.548   3.917   3.366
 3369SOL    HW110242   2.630   3.885   3.318
 3369SOL    HW210243   2.574   3.949   3.457
 3370SOL     OW10244   1.977   4.059   1.816
 3370SOL    HW110245   1.886   4.055   1.774
 3370SOL    HW210246   2.016   4.150   1.802
 3371SOL     OW10247   3.263   4.580   3.233
 3371SOL    HW110248   3.204   4.635   3.173
 3371SOL    HW210249   3.357   4.584   3.198
 3372SOL     OW10250   1.924   3.867   2.097
 3372SOL    HW110251   1.905   3.934   2.025
 3372SOL    HW210252   2.016   3.830   2.084
 3373SOL     OW10253   3.090   5.006   1.998
 3373SOL    HW110254   3.049   4.914   1.997
 3373SOL    HW210255   3.106   5.034   2.092
 3374SOL     OW10256   2.483   4.539   3.321
 3374SOL    HW110257   2.545   4.617   3.313
 3374SOL    HW210258   2.535   4.454   3.314
 3375SOL     OW10259   3.361   5.501   2.800
 3375SOL    HW110260   3.400   0.074   2.785
 3375SOL    HW210261   3.428   5.431   2.776
 3376SOL     OW10262   2.571   4.262   3.583
 3376SOL    HW110263   2.631   4.322   3.637
 3376SOL    HW210264   2.593   4.167   3.602
 3377SOL     OW10265   3.333   4.911   3.479
 3377SOL    HW110266   3.334   4.928   3.577
 3377SOL    HW210267   3.424   4.927   3.441
 3378SOL     OW10268   3.514   4.613   3.122
 3378SOL    HW110269   3.513   4.526   3.073
 3378SOL    HW210270   3.504   4.689   3.057
 3379SOL     OW10271   2.373   4.494   2.555
 3379SOL    HW110272   2.448   4.557   2.533
 3379SOL    HW210273   2.328   4.466   2.470
 3380SOL     OW10274   3.582   4.057   3.559
 3380SOL    HW110275   3.614   4.059   3.464
 3380SOL    HW210276   3.500   3.999   3.565
 3381SOL     OW10277   3.629   4.650   3.365
 3381SOL    HW110278   3.611   4.746   3.389
 3381SOL    HW210279   3.594   4.631   3.274
 3382SOL     OW10280   2.653   5.095   1.959
 3382SOL    HW110281   2.662   5.061   2.053
 3382SOL    HW210282   2.643   5.195   1.961
 3383SOL     OW10283   2.722   4.731   2.703
 3383SOL    HW110284   2.763   4.648   2.740
 3383SOL    HW210285   2.666   4.775   2.774
 3384SOL     OW10286   2.982   4.754   1.954
 3384SOL    HW110287   2.913   4.778   1.886
 3384SOL    HW210288   3.035   4.676   1.923
 3385SOL     OW10289   3.606   5.358   2.712
 3385SOL    HW110290   3.569   5.310   2.633
 3385SOL    HW210291   3.614   5.296   2.789
 3386SOL     OW10292   2.084   4.997   3.715
 3386SOL    HW110293   2.058   4.914   3.666
 3386SOL    HW210294   2.023   5.010   3.793
 3387SOL     OW10295   2.027   4.965   2.536
 3387SOL    HW110296   2.061   4.919   2.618
 3387SOL    HW210297   2.070   4.925   2.455
 3388SOL     OW10298   2.526   5.173   3.450
 3388SOL    HW110299   2.461   5.117   3.501
 3388SOL    HW210300   2.541   5.259   3.499
 3389SOL     OW10301   3.692   3.870   3.109
 3389SOL    HW110302   3.687   3.770   3.115
 3389SOL    HW210303   3.696   3.898   3.013
 3390SOL     OW10304   2.263   4.151   2.384
 3390SOL    HW110305   2.304   4.085   2.322
 3390SOL    HW210306   2.213   4.104   2.457
 3391SOL     OW10307   3.545   5.217   2.944
 3391SOL    HW110308   3.463   5.203   2.888
 3391SOL    HW210309   3.544   5.152   3.020
 3392SOL     OW10310   2.219   4.279   3.146
 3392SOL    HW110311   2.275   4.213   3.196
 3392SOL    HW210312   2.218   4.255   3.049
 3393SOL     OW10313   2.723   5.326   2.505
 3393SOL    HW110314   2.715   5.422   2.475
 3393SOL    HW210315   2.646   5.274   2.467
 3394SOL     OW10316   3.265   3.979   2.991
 3394SOL    HW110317   3.260   3.879   3.002
 3394SOL    HW210318   3.209   4.023   3.062
 3395SOL     OW10319   2.830   3.747   2.975
 3395SOL    HW110320   2.796   3.704   2.891
 3395SOL    HW210321   2.916   3.704   3.002
 3396SOL     OW10322   2.665   5.009   2.218
 3396SOL    HW110323   2.643   4.911   2.222
 3396SOL    HW210324   2.750   5.026   2.267
 3397SOL     OW10325   2.490   5.268   3.190
 3397SOL    HW110326   2.507   5.243   3.285
 3397SOL    HW210327   2.577   5.288   3.144
 3398SOL     OW10328   3.271   3.805   1.967
 3398SOL    HW110329   3.325   3.739   2.019
 3398SOL    HW210330   3.174   3.786   1.979
 3399SOL     OW10331   3.443   3.923   2.787
 3399SOL    HW110332   3.379   3.961   2.853
 3399SOL    HW210333   3.416   3.952   2.695
 3400SOL     OW10334   1.896   4.730   2.164
 3400SOL    HW110335   1.994   4.716   2.148
 3400SOL    HW210336   1.852   4.643   2.182
 3401SOL     OW10337   2.062   4.354   3.884
 3401SOL    HW110338   1.970   4.329   3.914
 3401SOL    HW210339   2.068   4.349   3.785
 3402SOL     OW10340   2.067   4.009   4.715
 3402SOL    HW110341   2.119   3.973   4.793
 3402SOL    HW210342   1.975   3.969   4.716
 3403SOL     OW10343   1.849   4.142   4.360
 3403SOL    HW110344   1.765   4.164   4.411
 3403SOL    HW210345   1.829   4.069   4.295
 3404SOL     OW10346   2.434   5.038   4.937
 3404SOL    HW110347   2.347   5.036   4.887
 3404SOL    HW210348   2.453   5.132   4.965
 3405SOL     OW10349   3.460   5.226   4.404
 3405SOL    HW110350   3.407   5.194   4.483
 3405SOL    HW210351   3.398   5.257   4.332
 3406SOL     OW10352   2.989   4.454   4.398
 3406SOL    HW110353   3.046   4.534   4.379
 3406SOL    HW210354   2.943   4.465   4.485
 3407SOL     OW10355   3.656   4.284   3.929
 3407SOL    HW110356   3.612   4.295   3.840
 3407SOL    HW210357   3.607   4.215   3.982
 3408SOL     OW10358   2.581   4.866   4.766
 3408SOL    HW110359   2.521   4.902   4.837
 3408SOL    HW210360   2.624   4.942   4.717
 3409SOL     OW10361   2.710   4.460   0.025
 3409SOL    HW110362   2.727   4.507   0.112
 3409SOL    HW210363   2.747   4.515   5.468
 3410SOL     OW10364   2.563   4.695   4.361
 3410SOL    HW110365   2.632   4.700   4.433
 3410SOL    HW210366   2.490   4.761   4.380
 3411SOL     OW10367   2.204   5.108   4.799
 3411SOL    HW110368   2.127   5.060   4.758
 3411SOL    HW210369   2.247   5.167   4.730
 3412SOL     OW10370   3.336   5.230   5.084
 3412SOL    HW110371   3.408   5.283   5.128
 3412SOL    HW210372   3.251   5.240   5.137
 3413SOL     OW10373   2.355   4.086   5.160
 3413SOL    HW110374   2.433   4.026   5.176
 3413SOL    HW210375   2.272   4.045   5.198
 3414SOL     OW10376   3.462   4.180   4.475
 3414SOL    HW110377   3.436   4.212   4.383
 3414SOL    HW210378   3.422   4.240   4.544
 3415SOL     OW10379   2.066   5.218   4.286
 3415SOL    HW110380   2.082   5.296   4.347
 3415SOL    HW210381   2.050   5.136   4.340
 3416SOL     OW10382   2.173   4.808   4.602
 3416SOL    HW110383   2.180   4.711   4.627
 3416SOL    HW210384   2.113   4.855   4.667
 3417SOL     OW10385   2.422   4.710   3.885
 3417SOL    HW110386   2.461   4.759   3.807
 3417SOL    HW210387   2.474   4.731   3.968
 3418SOL     OW10388   3.583   3.809   5.229
 3418SOL    HW110389   3.610   3.848   5.141
 3418SOL    HW210390   3.561   3.883   5.293
 3419SOL     OW10391   1.968   4.396   4.298
 3419SOL    HW110392   1.934   4.304   4.319
 3419SOL    HW210393   1.967   4.452   4.380
 3420SOL     OW10394   1.872   5.302   3.907
 3420SOL    HW110395   1.878   5.202   3.907
 3420SOL    HW210396   1.786   5.330   3.950
 3421SOL     OW10397   3.571   4.649   4.390
 3421SOL    HW110398   3.662   4.608   4.391
 3421SOL    HW210399   3.558   4.702   4.306
 3422SOL     OW10400   3.544   4.828   4.172
 3422SOL    HW110401   3.626   4.801   4.122
 3422SOL    HW210402   3.568   4.898   4.239
 3423SOL     OW10403   2.055   4.444   5.353
 3423SOL    HW110404   2.154   4.458   5.346
 3423SOL    HW210405   2.009   4.533   5.363
 3424SOL     OW10406   2.477   5.107   4.463
 3424SOL    HW110407   2.436   5.016   4.451
 3424SOL    HW210408   2.483   5.153   4.374
 3425SOL     OW10409   3.082   4.925   5.175
 3425SOL    HW110410   3.104   4.863   5.100
 3425SOL    HW210411   3.118   4.888   5.260
 3426SOL     OW10412   2.697   3.754   4.234
 3426SOL    HW110413   2.743   3.838   4.205
 3426SOL    HW210414   2.598   3.770   4.240
 3427SOL     OW10415   2.067   4.678   4.988
 3427SOL    HW110416   2.158   4.637   4.981
 3427SOL    HW210417   2.001   4.623   4.937
 3428SOL     OW10418   3.426   4.749   3.934
 3428SOL    HW110419   3.348   4.688   3.953
 3428SOL    HW210420   3.466   4.780   4.020
 3429SOL     OW10421   2.954   5.400   5.347
 3429SOL    HW110422   2.964   5.494   5.316
 3429SOL    HW210423   3.004   5.339   5.284
 3430SOL     OW10424   2.210   3.959   0.024
 3430SOL    HW110425   2.250   4.043   0.061
 3430SOL    HW210426   2.113   3.975   0.005
 3431SOL     OW10427   3.353   5.136   4.644
 3431SOL    HW110428   3.287   5.169   4.712
 3431SOL    HW210429   3.329   5.043   4.618
 3432SOL     OW10430   2.436   4.431   4.004
 3432SOL    HW110431   2.436   4.519   3.957
 3432SOL    HW210432   2.366   4.432   4.076
 3433SOL     OW10433   3.144   4.130   4.666
 3433SOL    HW110434   3.053   4.090   4.655
 3433SOL    HW210435   3.197   4.075   4.731
 3434SOL     OW10436   3.466   5.385   3.996
 3434SOL    HW110437   3.564   5.375   3.984
 3434SOL    HW210438   3.420   5.379   3.908
 3435SOL     OW10439   2.646   4.308   5.174
 3435SOL    HW110440   2.592   4.288   5.255
 3435SOL    HW210441   2.628   4.240   5.104
 3436SOL     OW10442   2.822   4.608   5.335
 3436SOL    HW110443   2.864   4.538   5.276
 3436SOL    HW210444   2.775   4.674   5.277
 3437SOL     OW10445   2.884   4.101   4.920
 3437SOL    HW110446   2.789   4.118   4.944
 3437SOL    HW210447   2.889   4.065   4.827
 3438SOL     OW10448   2.910   4.426   4.130
 3438SOL    HW110449   2.934   4.432   4.227
 3438SOL    HW210450   2.822   4.380   4.120
 3439SOL     OW10451   1.954   4.570   4.511
 3439SOL    HW110452   2.044   4.555   4.551
 3439SOL    HW210453   1.904   4.639   4.564
 3440SOL     OW10454   2.003   0.038   5.280
 3440SOL    HW110455   2.042   5.469   5.313
 3440SOL    HW210456   1.903   0.030   5.276
 3441SOL     OW10457   2.716   4.074   3.932
 3441SOL    HW110458   2.779   4.118   3.867
 3441SOL    HW210459   2.661   4.006   3.883
 3442SOL     OW10460   3.285   4.892   4.282
 3442SOL    HW110461   3.371   4.873   4.235
 3442SOL    HW210462   3.235   4.963   4.232
 3443SOL     OW10463   2.423   3.851   4.653
 3443SOL    HW110464   2.436   3.881   4.748
 3443SOL    HW210465   2.425   3.930   4.592
 3444SOL     OW10466   2.886   5.185   4.175
 3444SOL    HW110467   2.889   5.258   4.107
 3444SOL    HW210468   2.842   5.218   4.258
 3445SOL     OW10469   2.257   5.508   4.567
 3445SOL    HW110470   2.300   5.426   4.606
 3445SOL    HW210471   2.302   0.072   4.602
 3446SOL     OW10472   3.662   4.773   4.625
 3446SOL    HW110473   3.619   4.757   4.536
 3446SOL    HW210474   3.591   4.782   4.695
 3447SOL     OW10475   3.079   5.210   5.189
 3447SOL    HW110476   3.102   5.117   5.214
 3447SOL    HW210477   3.005   5.209   5.121
 3448SOL     OW10478   2.164   4.668   3.993
 3448SOL    HW110479   2.251   4.690   3.950
 3448SOL    HW210480   2.139   4.574   3.971
 3449SOL     OW10481   3.348   4.500   4.442
 3449SOL    HW110482   3.346   4.452   4.530
 3449SOL    HW210483   3.432   4.555   4.437
 3450SOL     OW10484   2.323   4.983   5.447
 3450SOL    HW110485   2.260   5.018   5.378
 3450SOL    HW210486   2.300   4.888   5.469
 3451SOL     OW10487   2.987   5.491   3.927
 3451SOL    HW110488   2.898   5.515   3.888
 3451SOL    HW210489   3.019   5.406   3.885
 3452SOL     OW10490   2.086   3.996   5.190
 3452SOL    HW110491   2.036   4.081   5.205
 3452SOL    HW210492   2.052   3.926   5.253
 3453SOL     OW10493   3.533   5.131   3.799
 3453SOL    HW110494   3.482   5.215   3.780
 3453SOL    HW210495   3.476   5.051   3.779
 3454SOL     OW10496   3.257   3.825   4.185
 3454SOL    HW110497   3.255   3.801   4.088
 3454SOL    HW210498   3.346   3.800   4.224
 3455SOL     OW10499   2.242   4.400   4.204
 3455SOL    HW110500   2.259   4.302   4.215
 3455SOL    HW210501   2.146   4.420   4.221
 3456SOL     OW10502   2.519   3.840   3.833
 3456SOL    HW110503   2.580   3.763   3.856
 3456SOL    HW210504   2.451   3.809   3.766
 3457SOL     OW10505   2.629   4.051   5.445
 3457SOL    HW110506   2.711   4.096   5.483
 3457SOL    HW210507   2.590   3.991   5.514
 3458SOL     OW10508   2.740   5.266   4.889
 3458SOL    HW110509   2.713   5.217   4.807
 3458SOL    HW210510   2.790   5.203   4.950
 3459SOL     OW10511   3.153   4.308   5.204
 3459SOL    HW110512   3.183   4.298   5.299
 3459SOL    HW210513   3.189   4.394   5.166
 3460SOL     OW10514   2.675   5.112   4.662
 3460SOL    HW110515   2.769   5.107   4.629
 3460SOL    HW210516   2.612   5.116   4.584
 3461SOL     OW10517   2.789   4.238   4.598
 3461SOL    HW110518   2.766   4.232   4.501
 3461SOL    HW210519   2.820   4.149   4.631
 3462SOL     OW10520   2.426   3.799   4.228
 3462SOL    HW110521   2.346   3.795   4.287
 3462SOL    HW210522   2.415   3.874   4.162
 3463SOL     OW10523   3.339   4.938   3.756
 3463SOL    HW110524   3.375   4.862   3.810
 3463SOL    HW210525   3.252   4.969   3.795
 3464SOL     OW10526   2.144   3.763   3.898
 3464SOL    HW110527   2.187   3.842   3.853
 3464SOL    HW210528   2.214   3.712   3.948
 3465SOL     OW10529   2.827   3.983   4.166
 3465SOL    HW110530   2.790   4.016   4.079
 3465SOL    HW210531   2.926   4.000   4.169
 3466SOL     OW10532   2.899   4.417   5.155
 3466SOL    HW110533   2.819   4.359   5.166
 3466SOL    HW210534   2.982   4.363   5.168
 3467SOL     OW10535   3.060   5.327   4.520
 3467SOL    HW110536   3.005   5.407   4.495
 3467SOL    HW210537   3.148   5.358   4.556
 3468SOL     OW10538   2.354   4.867   4.408
 3468SOL    HW110539   2.294   4.844   4.485
 3468SOL    HW210540   2.301   4.868   4.323
 3469SOL     OW10541   2.889   4.220   3.776
 3469SOL    HW110542   2.844   4.307   3.754
 3469SOL    HW210543   2.961   4.236   3.844
 3470SOL     OW10544   1.990   4.270   5.150
 3470SOL    HW110545   2.078   4.269   5.103
 3470SOL    HW210546   1.994   4.334   5.227
 3471SOL     OW10547   2.448   3.922   4.915
 3471SOL    HW110548   2.487   3.856   4.980
 3471SOL    HW210549   2.350   3.930   4.930
 3472SOL     OW10550   2.737   4.188   4.336
 3472SOL    HW110551   2.694   4.245   4.266
 3472SOL    HW210552   2.773   4.105   4.294
 3473SOL     OW10553   2.873   3.781   4.453
 3473SOL    HW110554   2.812   3.779   4.374
 3473SOL    HW210555   2.847   3.708   4.516
 3474SOL     OW10556   3.284   4.880   4.570
 3474SOL    HW110557   3.200   4.831   4.588
 3474SOL    HW210558   3.300   4.887   4.471
 3475SOL     OW10559   3.327   4.345   4.675
 3475SOL    HW110560   3.257   4.274   4.681
 3475SOL    HW210561   3.391   4.336   4.752
 3476SOL     OW10562   3.667   4.488   4.108
 3476SOL    HW110563   3.733   4.456   4.176
 3476SOL    HW210564   3.662   4.422   4.033
 3477SOL     OW10565   2.347   5.178   3.903
 3477SOL    HW110566   2.267   5.155   3.958
 3477SOL    HW210567   2.355   5.112   3.828
 3478SOL     OW10568   3.616   5.002   4.357
 3478SOL    HW110569   3.712   5.008   4.383
 3478SOL    HW210570   3.571   5.089   4.376
 3479SOL     OW10571   3.243   4.311   3.775
 3479SOL    HW110572   3.198   4.277   3.858
 3479SOL    HW210573   3.342   4.296   3.783
 3480SOL     OW10574   2.384   3.983   4.031
 3480SOL    HW110575   2.436   3.932   3.962
 3480SOL    HW210576   2.350   4.067   3.991
 3481SOL     OW10577   3.611   4.958   5.220
 3481SOL    HW110578   3.705   4.924   5.223
 3481SOL    HW210579   3.605   5.044   5.270
 3482SOL     OW10580   2.869   5.068   5.056
 3482SOL    HW110581   2.777   5.046   5.088
 3482SOL    HW210582   2.936   5.012   5.106
 3483SOL     OW10583   3.017   4.988   4.838
 3483SOL    HW110584   2.948   5.015   4.905
 3483SOL    HW210585   2.986   5.016   4.747
 3484SOL     OW10586   3.450   4.810   4.792
 3484SOL    HW110587   3.449   4.880   4.864
 3484SOL    HW210588   3.385   4.835   4.720
 3485SOL     OW10589   2.807   3.791   5.095
 3485SOL    HW110590   2.830   3.784   4.998
 3485SOL    HW210591   2.884   3.829   5.146
 3486SOL     OW10592   2.602   4.760   4.092
 3486SOL    HW110593   2.591   4.729   4.186
 3486SOL    HW210594   2.672   4.704   4.047
 3487SOL     OW10595   2.306   4.539   4.978
 3487SOL    HW110596   2.381   4.554   5.043
 3487SOL    HW210597   2.271   4.446   4.989
 3488SOL     OW10598   3.120   4.077   5.052
 3488SOL    HW110599   3.142   4.161   5.102
 3488SOL    HW210600   3.034   4.090   5.002
 3489SOL     OW10601   1.932   5.288   5.099
 3489SOL    HW110602   1.894   5.358   5.039
 3489SOL    HW210603   2.031   5.286   5.090
 3490SOL     OW10604   2.183   4.870   4.190
 3490SOL    HW110605   2.175   4.952   4.133
 3490SOL    HW210606   2.177   4.788   4.132
 3491SOL     OW10607   2.385   4.271   4.608
 3491SOL    HW110608   2.395   4.329   4.527
 3491SOL    HW210609   2.464   4.285   4.668
 3492SOL     OW10610   3.147   5.094   4.142
 3492SOL    HW110611   3.203   5.175   4.162
 3492SOL    HW210612   3.052   5.114   4.166
 3493SOL     OW10613   3.189   5.202   4.854
 3493SOL    HW110614   3.246   5.206   4.936
 3493SOL    HW210615   3.134   5.119   4.856
 3494SOL     OW10616   3.446   4.340   4.232
 3494SOL    HW110617   3.389   4.396   4.292
 3494SOL    HW210618   3.512   4.399   4.186
 3495SOL     OW10619   2.197   5.237   5.037
 3495SOL    HW110620   2.187   5.190   4.950
 3495SOL    HW210621   2.289   5.277   5.043
 3496SOL     OW10622   2.327   4.495   5.355
 3496SOL    HW110623   2.378   4.531   5.277
 3496SOL    HW210624   2.375   4.416   5.392
 3497SOL     OW10625   3.381   4.574   5.352
 3497SOL    HW110626   3.312   4.563   5.281
 3497SOL    HW210627   3.464   4.613   5.313
 3498SOL     OW10628   2.480   4.596   4.764
 3498SOL    HW110629   2.505   4.693   4.758
 3498SOL    HW210630   2.407   4.585   4.831
 3499SOL     OW10631   3.150   4.568   4.747
 3499SOL    HW110632   3.061   4.541   4.711
 3499SOL    HW210633   3.218   4.499   4.723
 3500SOL     OW10634   3.069   4.250   3.987
 3500SOL    HW110635   3.088   4.171   4.045
 3500SOL    HW210636   3.018   4.318   4.039
 3501SOL     OW10637   2.175   3.911   4.948
 3501SOL    HW110638   2.152   3.947   5.038
 3501SOL    HW210639   2.155   3.813   4.945
 3502SOL     OW10640   1.912   5.041   4.976
 3502SOL    HW110641   1.933   4.968   5.040
 3502SOL    HW210642   1.914   5.129   5.024
 3503SOL     OW10643   2.596   4.349   4.769
 3503SOL    HW110644   2.664   4.327   4.699
 3503SOL    HW210645   2.562   4.441   4.754
 3504SOL     OW10646   3.545   4.582   0.062
 3504SOL    HW110647   3.491   4.576   5.496
 3504SOL    HW210648   3.503   4.647   0.125
 3505SOL     OW10649   2.188   3.788   4.367
 3505SOL    HW110650   2.147   3.878   4.385
 3505SOL    HW210651   2.196   3.738   4.453
 3506SOL     OW10652   3.477   4.119   4.063
 3506SOL    HW110653   3.525   4.050   4.117
 3506SOL    HW210654   3.447   4.193   4.122
 3507SOL     OW10655   2.888   4.484   4.669
 3507SOL    HW110656   2.863   4.505   4.763
 3507SOL    HW210657   2.861   4.391   4.647
 3508SOL     OW10658   2.723   5.301   5.474
 3508SOL    HW110659   2.800   5.337   5.421
 3508SOL    HW210660   2.663   5.247   5.415
 3509SOL     OW10661   3.645   5.215   5.324
 3509SOL    HW110662   3.700   5.250   5.248
 3509SOL    HW210663   3.690   5.236   5.410
 3510SOL     OW10664   2.248   4.715   5.506
 3510SOL    HW110665   2.293   4.704   0.077
 3510SOL    HW210666   2.271   4.639   5.446
 3511SOL     OW10667   3.360   3.986   3.839
 3511SOL    HW110668   3.315   3.905   3.877
 3511SOL    HW210669   3.401   4.039   3.912
 3512SOL     OW10670   3.138   4.560   3.729
 3512SOL    HW110671   3.167   4.465   3.740
 3512SOL    HW210672   3.171   4.595   3.642
 3513SOL     OW10673   2.938   5.088   4.595
 3513SOL    HW110674   2.955   5.009   4.536
 3513SOL    HW210675   2.984   5.168   4.557
 3514SOL     OW10676   2.194   4.533   4.643
 3514SOL    HW110677   2.287   4.528   4.606
 3514SOL    HW210678   2.172   4.447   4.689
 3515SOL     OW10679   2.155   4.263   4.741
 3515SOL    HW110680   2.109   4.175   4.728
 3515SOL    HW210681   2.239   4.265   4.688
 3516SOL     OW10682   3.023   3.894   5.237
 3516SOL    HW110683   3.029   3.944   5.323
 3516SOL    HW210684   3.067   3.947   5.165
 3517SOL     OW10685   1.889   5.012   3.913
 3517SOL    HW110686   1.801   5.035   3.871
 3517SOL    HW210687   1.885   4.919   3.949
 3518SOL     OW10688   2.378   5.273   4.657
 3518SOL    HW110689   2.454   5.287   4.720
 3518SOL    HW210690   2.409   5.216   4.580
 3519SOL     OW10691   2.793   4.524   4.922
 3519SOL    HW110692   2.843   4.496   5.004
 3519SOL    HW210693   2.709   4.470   4.914
 3520SOL     OW10694   1.926   4.358   4.882
 3520SOL    HW110695   2.003   4.331   4.825
 3520SOL    HW210696   1.944   4.335   4.977
 3521SOL     OW10697   2.668   4.302   4.088
 3521SOL    HW110698   2.677   4.220   4.032
 3521SOL    HW210699   2.587   4.353   4.060
 3522SOL     OW10700   3.513   4.327   4.882
 3522SOL    HW110701   3.503   4.267   4.962
 3522SOL    HW210702   3.610   4.340   4.862
 3523SOL     OW10703   2.122   5.317   5.372
 3523SOL    HW110704   2.073   5.314   5.459
 3523SOL    HW210705   2.127   5.225   5.333
 3524SOL     OW10706   2.614   4.147   4.954
 3524SOL    HW110707   2.550   4.071   4.941
 3524SOL    HW210708   2.596   4.217   4.885
 3525SOL     OW10709   2.296   4.209   3.902
 3525SOL    HW110710   2.366   4.276   3.923
 3525SOL    HW210711   2.206   4.252   3.906
 3526SOL     OW10712   2.000   4.849   5.189
 3526SOL    HW110713   1.988   4.794   5.272
 3526SOL    HW210714   2.027   4.789   5.113
 3527SOL     OW10715   3.116   4.755   4.948
 3527SOL    HW110716   3.134   4.684   4.880
 3527SOL    HW210717   3.084   4.838   4.902
 3528SOL     OW10718   3.206   4.600   3.994
 3528SOL    HW110719   3.146   4.551   4.058
 3528SOL    HW210720   3.176   4.582   3.900
 3529SOL     OW10721   3.685   5.443   4.895
 3529SOL    HW110722   3.705   5.499   4.815
 3529SOL    HW210723   3.640   5.359   4.867
 3530SOL     OW10724   3.152   5.471   4.809
 3530SOL    HW110725   3.224   5.489   4.742
 3530SOL    HW210726   3.153   5.374   4.834
 3531SOL     OW10727   1.983   4.954   4.729
 3531SOL    HW110728   1.953   4.985   4.819
 3531SOL    HW210729   1.912   4.897   4.688
 3532SOL     OW10730   3.632   3.935   4.197
 3532SOL    HW110731   3.687   3.913   4.116
 3532SOL    HW210732   3.588   3.852   4.230
 3533SOL     OW10733   3.297   5.327   4.201
 3533SOL    HW110734   3.363   5.342   4.127
 3533SOL    HW210735   3.254   5.414   4.225
 3534SOL     OW10736   3.151   4.669   4.365
 3534SOL    HW110737   3.223   4.606   4.393
 3534SOL    HW210738   3.193   4.749   4.321
 3535SOL     OW10739   2.618   5.004   5.136
 3535SOL    HW110740   2.587   5.056   5.215
 3535SOL    HW210741   2.547   5.005   5.066
 3536SOL     OW10742   2.540   5.367   3.851
 3536SOL    HW110743   2.546   5.366   3.752
 3536SOL    HW210744   2.472   5.300   3.881
 3537SOL     OW10745   3.696   3.873   4.731
 3537SOL    HW110746   3.730   3.785   4.699
 3537SOL    HW210747   3.611   3.896   4.682
 3538SOL     OW10748   2.090   4.031   4.438
 3538SOL    HW110749   2.006   4.076   4.408
 3538SOL    HW210750   2.093   4.028   4.538
 3539SOL     OW10751   3.084   5.269   3.795
 3539SOL    HW110752   3.091   5.176   3.831
 3539SOL    HW210753   3.002   5.278   3.740
 3540SOL     OW10754   2.701   4.744   5.127
 3540SOL    HW110755   2.741   4.723   5.037
 3540SOL    HW210756   2.673   4.839   5.129
 3541SOL     OW10757   2.797   4.615   3.958
 3541SOL    HW110758   2.864   4.677   3.916
 3541SOL    HW210759   2.845   4.551   4.018
 3542SOL     OW10760   3.343   5.356   3.748
 3542SOL    HW110761   3.250   5.320   3.755
 3542SOL    HW210762   3.369   5.361   3.651
 3543SOL     OW10763   2.153   5.070   5.252
 3543SOL    HW110764   2.173   5.122   5.168
 3543SOL    HW210765   2.099   4.990   5.229
 3544SOL     OW10766   3.460   5.001   4.991
 3544SOL    HW110767   3.520   4.973   5.067
 3544SOL    HW210768   3.409   5.082   5.018
 3545SOL     OW10769   2.965   4.842   4.478
 3545SOL    HW110770   2.879   4.797   4.505
 3545SOL    HW210771   3.022   4.778   4.428
 3546SOL     OW10772   2.900   3.975   4.665
 3546SOL    HW110773   2.895   3.937   4.573
 3546SOL    HW210774   2.899   3.901   4.732
 3547SOL     OW10775   2.506   5.222   4.216
 3547SOL    HW110776   2.545   5.155   4.153
 3547SOL    HW210777   2.457   5.292   4.164
 3548SOL     OW10778   3.597   4.155   5.111
 3548SOL    HW110779   3.681   4.206   5.130
 3548SOL    HW210780   3.621   4.069   5.066
 3549SOL     OW10781   2.121   5.099   4.048
 3549SOL    HW110782   2.035   5.077   4.002
 3549SOL    HW210783   2.103   5.155   4.128
 3550SOL     OW10784   1.978   4.703   5.423
 3550SOL    HW110785   1.901   4.699   5.487
 3550SOL    HW210786   2.062   4.721   5.474
 3551SOL     OW10787   2.578   3.913   5.210
 3551SOL    HW110788   2.662   3.877   5.168
 3551SOL    HW210789   2.601   3.965   5.292
 3552SOL     OW10790   1.954   4.063   3.707
 3552SOL    HW110791   1.868   4.049   3.657
 3552SOL    HW210792   1.994   4.150   3.680
 3553SOL     OW10793   3.241   4.556   5.112
 3553SOL    HW110794   3.176   4.619   5.071
 3553SOL    HW210795   3.329   4.563   5.065
 3554SOL     OW10796   1.904   3.877   3.957
 3554SOL    HW110797   1.889   3.946   3.886
 3554SOL    HW210798   1.995   3.837   3.945
 3555SOL     OW10799   3.099   5.007   3.877
 3555SOL    HW110800   3.051   4.920   3.869
 3555SOL    HW210801   3.117   5.026   3.974
 3556SOL     OW10802   2.512   4.550   5.156
 3556SOL    HW110803   2.576   4.627   5.150
 3556SOL    HW210804   2.562   4.464   5.161
 3557SOL     OW10805   3.361   5.500   4.638
 3557SOL    HW110806   3.392   0.078   4.640
 3557SOL    HW210807   3.438   5.440   4.618
 3558SOL     OW10808   2.515   4.304   5.423
 3558SOL    HW110809   2.580   4.359   5.475
 3558SOL    HW210810   2.533   4.207   5.438
 3559SOL     OW10811   2.376   5.388   5.275
 3559SOL    HW110812   2.400   5.482   5.299
 3559SOL    HW210813   2.283   5.368   5.308
 3560SOL     OW10814   3.471   4.593   4.965
 3560SOL    HW110815   3.490   4.505   4.923
 3560SOL    HW210816   3.464   4.663   4.894
 3561SOL     OW10817   3.095   4.050   4.180
 3561SOL    HW110818   3.156   3.971   4.182
 3561SOL    HW210819   3.113   4.108   4.259
 3562SOL     OW10820   2.408   4.467   4.418
 3562SOL    HW110821   2.471   4.541   4.394
 3562SOL    HW210822   2.350   4.446   4.339
 3563SOL     OW10823   3.555   4.032   5.391
 3563SOL    HW110824   3.534   4.100   5.319
 3563SOL    HW210825   3.484   4.036   5.461
 3564SOL     OW10826   3.575   4.682   5.205
 3564SOL    HW110827   3.578   4.782   5.209
 3564SOL    HW210828   3.550   4.653   5.113
 3565SOL     OW10829   2.671   5.091   3.804
 3565SOL    HW110830   2.661   5.078   3.903
 3565SOL    HW210831   2.698   5.186   3.785
 3566SOL     OW10832   2.740   4.710   4.578
 3566SOL    HW110833   2.787   4.629   4.613
 3566SOL    HW210834   2.687   4.752   4.651
 3567SOL     OW10835   2.977   4.769   3.811
 3567SOL    HW110836   2.912   4.792   3.739
 3567SOL    HW210837   3.036   4.694   3.780
 3568SOL     OW10838   3.609   5.371   4.579
 3568SOL    HW110839   3.572   5.324   4.499
 3568SOL    HW210840   3.619   5.305   4.654
 3569SOL     OW10841   2.030   4.967   4.400
 3569SOL    HW110842   2.061   4.922   4.484
 3569SOL    HW210843   2.075   4.925   4.322
 3570SOL     OW10844   2.518   5.159   5.342
 3570SOL    HW110845   2.461   5.093   5.390
 3570SOL    HW210846   2.465   5.241   5.321
 3571SOL     OW10847   3.696   3.917   5.002
 3571SOL    HW110848   3.790   3.893   5.027
 3571SOL    HW210849   3.683   3.904   4.904
 3572SOL     OW10850   2.269   4.136   4.246
 3572SOL    HW110851   2.305   4.067   4.184
 3572SOL    HW210852   2.211   4.093   4.315
 3573SOL     OW10853   3.579   5.203   4.797
 3573SOL    HW110854   3.497   5.174   4.747
 3573SOL    HW210855   3.607   5.130   4.860
 3574SOL     OW10856   2.225   4.278   5.012
 3574SOL    HW110857   2.284   4.211   5.059
 3574SOL    HW210858   2.217   4.253   4.916
 3575SOL     OW10859   2.723   5.317   4.354
 3575SOL    HW110860   2.724   5.415   4.332
 3575SOL    HW210861   2.640   5.275   4.318
 3576SOL     OW10862   3.277   3.973   4.845
 3576SOL    HW110863   3.299   3.876   4.857
 3576SOL    HW210864   3.231   4.007   4.928
 3577SOL     OW10865   2.892   3.743   4.824
 3577SOL    HW110866   2.830   3.684   4.772
 3577SOL    HW210867   2.984   3.704   4.824
 3578SOL     OW10868   2.656   5.036   4.074
 3578SOL    HW110869   2.637   4.939   4.083
 3578SOL    HW210870   2.744   5.057   4.117
 3579SOL     OW10871   2.479   5.295   5.024
 3579SOL    HW110872   2.465   5.342   5.112
 3579SOL    HW210873   2.570   5.316   4.990
 3580SOL     OW10874   3.247   3.749   3.922
 3580SOL    HW110875   3.298   3.683   3.868
 3580SOL    HW210876   3.154   3.715   3.936
 3581SOL     OW10877   3.132   4.212   4.396
 3581SOL    HW110878   3.082   4.298   4.393
 3581SOL    HW210879   3.145   4.184   4.492
 3582SOL     OW10880   3.453   3.942   4.628
 3582SOL    HW110881   3.390   3.970   4.700
 3582SOL    HW210882   3.456   4.012   4.557
 3583SOL     OW10883   1.898   4.749   4.024
 3583SOL    HW110884   1.996   4.736   4.007
 3583SOL    HW210885   1.855   4.661   4.041
 3584SOL     OW10886   3.881   0.541   0.053
 3584SOL    HW110887   3.802   0.576   0.103
 3584SOL    HW210888   3.896   0.597   5.488
 3585SOL     OW10889   3.911   0.258   0.978
 3585SOL    HW110890   3.967   0.224   1.054
 3585SOL    HW210891   3.836   0.195   0.961
 3586SOL     OW10892   3.692   0.424   0.633
 3586SOL    HW110893   3.610   0.444   0.686
 3586SOL    HW210894   3.668   0.368   0.554
 3587SOL     OW10895   4.299   1.321   1.228
 3587SOL    HW110896   4.215   1.317   1.174
 3587SOL    HW210897   4.319   1.417   1.251
 3588SOL     OW10898   5.296   1.580   0.703
 3588SOL    HW110899   5.252   1.530   0.778
 3588SOL    HW210900   5.240   1.573   0.621
 3589SOL     OW10901   4.832   0.720   0.680
 3589SOL    HW110902   4.889   0.798   0.655
 3589SOL    HW210903   4.792   0.737   0.770
 3590SOL     OW10904   5.450   0.637   0.172
 3590SOL    HW110905   5.408   0.658   0.084
 3590SOL    HW210906   5.408   0.555   0.211
 3591SOL     OW10907   4.437   1.134   1.058
 3591SOL    HW110908   4.383   1.168   1.135
 3591SOL    HW210909   4.474   1.212   1.007
 3592SOL     OW10910   4.612   0.731   1.838
 3592SOL    HW110911   4.597   0.793   1.916
 3592SOL    HW210912   4.630   0.785   1.756
 3593SOL     OW10913   4.415   0.965   0.660
 3593SOL    HW110914   4.486   0.969   0.730
 3593SOL    HW210915   4.345   1.034   0.680
 3594SOL     OW10916   4.425   1.159   1.847
 3594SOL    HW110917   4.485   1.228   1.888
 3594SOL    HW210918   4.346   1.205   1.805
 3595SOL     OW10919   4.072   1.388   1.074
 3595SOL    HW110920   3.999   1.333   1.033
 3595SOL    HW210921   4.115   1.444   1.003
 3596SOL     OW10922   5.166   1.481   1.388
 3596SOL    HW110923   5.228   1.557   1.404
 3596SOL    HW210924   5.083   1.492   1.443
 3597SOL     OW10925   4.177   0.401   1.463
 3597SOL    HW110926   4.261   0.349   1.476
 3597SOL    HW210927   4.098   0.342   1.481
 3598SOL     OW10928   3.956   1.732   0.463
 3598SOL    HW110929   3.977   1.810   0.523
 3598SOL    HW210930   4.032   1.718   0.400
 3599SOL     OW10931   4.844   1.342   1.710
 3599SOL    HW110932   4.897   1.333   1.794
 3599SOL    HW210933   4.785   1.262   1.699
 3600SOL     OW10934   3.943   1.466   0.523
 3600SOL    HW110935   3.935   1.565   0.525
 3600SOL    HW210936   3.901   1.427   0.605
 3601SOL     OW10937   4.063   1.070   0.912
 3601SOL    HW110938   4.054   0.971   0.928
 3601SOL    HW210939   3.989   1.118   0.959
 3602SOL     OW10940   4.279   1.837   1.404
 3602SOL    HW110941   4.202   1.810   1.462
 3602SOL    HW210942   4.330   1.910   1.449
 3603SOL     OW10943   4.294   0.947   0.208
 3603SOL    HW110944   4.350   0.951   0.125
 3603SOL    HW210945   4.342   0.991   0.284
 3604SOL     OW10946   5.378   0.041   1.547
 3604SOL    HW110947   5.384   0.072   1.452
 3604SOL    HW210948   5.320   0.104   1.599
 3605SOL     OW10949   3.821   0.671   0.587
 3605SOL    HW110950   3.780   0.582   0.607
 3605SOL    HW210951   3.821   0.727   0.670
 3606SOL     OW10952   3.786   1.541   0.073
 3606SOL    HW110953   3.774   1.449   0.111
 3606SOL    HW210954   3.770   1.609   0.145
 3607SOL     OW10955   5.416   0.913   0.650
 3607SOL    HW110956   5.501   0.879   0.691
 3607SOL    HW210957   5.423   0.910   0.551
 3608SOL     OW10958   3.844   0.756   1.568
 3608SOL    HW110959   3.931   0.806   1.567
 3608SOL    HW210960   3.769   0.818   1.547
 3609SOL     OW10961   4.347   1.398   0.715
 3609SOL    HW110962   4.309   1.306   0.723
 3609SOL    HW210963   4.334   1.433   0.622
 3610SOL     OW10964   4.962   1.210   1.433
 3610SOL    HW110965   4.990   1.141   1.366
 3610SOL    HW210966   5.024   1.208   1.512
 3611SOL     OW10967   4.524   0.039   0.556
 3611SOL    HW110968   4.572   0.117   0.515
 3611SOL    HW210969   4.429   0.038   0.525
 3612SOL     OW10970   3.925   0.947   1.304
 3612SOL    HW110971   4.017   0.911   1.288
 3612SOL    HW210972   3.863   0.911   1.234
 3613SOL     OW10973   5.257   1.073   0.284
 3613SOL    HW110974   5.193   0.997   0.279
 3613SOL    HW210975   5.350   1.039   0.277
 3614SOL     OW10976   4.883   1.797   1.626
 3614SOL    HW110977   4.899   1.869   1.559
 3614SOL    HW210978   4.903   1.708   1.585
 3615SOL     OW10979   4.072   0.300   1.861
 3615SOL    HW110980   4.106   0.372   1.920
 3615SOL    HW210981   3.972   0.301   1.862
 3616SOL     OW10982   5.150   1.432   0.890
 3616SOL    HW110983   5.110   1.449   0.980
 3616SOL    HW210984   5.140   1.335   0.866
 3617SOL     OW10985   5.347   1.822   0.532
 3617SOL    HW110986   5.356   1.771   0.446
 3617SOL    HW210987   5.351   1.758   0.609
 3618SOL     OW10988   4.264   0.671   0.275
 3618SOL    HW110989   4.283   0.764   0.243
 3618SOL    HW210990   4.198   0.675   0.350
 3619SOL     OW10991   5.002   0.387   0.945
 3619SOL    HW110992   4.914   0.339   0.949
 3619SOL    HW210993   5.066   0.344   1.009
 3620SOL     OW10994   5.328   1.670   0.298
 3620SOL    HW110995   5.418   1.637   0.268
 3620SOL    HW210996   5.270   1.687   0.218
 3621SOL     OW10997   4.532   0.593   1.445
 3621SOL    HW110998   4.497   0.563   1.534
 3621SOL    HW210999   4.507   0.525   1.375
 3622SOL     OW11000   5.106   0.494   1.659
 3622SOL    HW111001   5.104   0.535   1.750
 3622SOL    HW211002   5.193   0.445   1.646
 3623SOL     OW11003   4.665   0.878   1.602
 3623SOL    HW111004   4.726   0.816   1.552
 3623SOL    HW211005   4.610   0.930   1.537
 3624SOL     OW11006   4.744   0.393   1.183
 3624SOL    HW111007   4.650   0.412   1.210
 3624SOL    HW211008   4.745   0.328   1.107
 3625SOL     OW11009   4.734   0.688   0.421
 3625SOL    HW111010   4.759   0.692   0.518
 3625SOL    HW211011   4.648   0.638   0.411
 3626SOL     OW11012   3.818   0.843   0.799
 3626SOL    HW111013   3.906   0.825   0.844
 3626SOL    HW211014   3.767   0.911   0.852
 3627SOL     OW11015   3.825   1.899   1.601
 3627SOL    HW111016   3.837   1.861   1.692
 3627SOL    HW211017   3.729   1.892   1.574
 3628SOL     OW11018   4.589   0.319   0.219
 3628SOL    HW111019   4.633   0.389   0.163
 3628SOL    HW211020   4.584   0.234   0.167
 3629SOL     OW11021   5.378   0.584   1.826
 3629SOL    HW111022   5.364   0.677   1.795
 3629SOL    HW211023   5.398   0.525   1.748
 3630SOL     OW11024   5.121   1.153   0.524
 3630SOL    HW111025   5.178   1.133   0.444
 3630SOL    HW211026   5.061   1.230   0.504
 3631SOL     OW11027   4.242   0.223   0.945
 3631SOL    HW111028   4.275   0.230   1.039
 3631SOL    HW211029   4.249   0.313   0.901
 3632SOL     OW11030   4.708   1.466   0.488
 3632SOL    HW111031   4.688   1.537   0.421
 3632SOL    HW211032   4.672   1.493   0.577
 3633SOL     OW11033   4.082   1.800   0.875
 3633SOL    HW111034   4.122   1.708   0.879
 3633SOL    HW211035   4.151   1.867   0.902
 3634SOL     OW11036   5.484   1.095   0.855
 3634SOL    HW111037   5.442   1.052   0.775
 3634SOL    HW211038   5.422   1.091   0.933
 3635SOL     OW11039   4.917   1.527   1.514
 3635SOL    HW111040   4.905   1.461   1.588
 3635SOL    HW211041   4.856   1.503   1.439
 3636SOL     OW11042   4.047   0.936   0.354
 3636SOL    HW111043   4.130   0.948   0.299
 3636SOL    HW211044   4.048   0.846   0.397
 3637SOL     OW11045   5.191   0.764   0.719
 3637SOL    HW111046   5.186   0.719   0.808
 3637SOL    HW211047   5.273   0.821   0.716
 3638SOL     OW11048   4.191   1.298   1.752
 3638SOL    HW111049   4.171   1.300   1.654
 3638SOL    HW211050   4.106   1.284   1.803
 3639SOL     OW11051   4.837   1.789   0.219
 3639SOL    HW111052   4.766   1.750   0.278
 3639SOL    HW211053   4.874   1.718   0.159
 3640SOL     OW11054   3.937   0.261   1.475
 3640SOL    HW111055   3.877   0.340   1.481
 3640SOL    HW211056   3.909   0.193   1.543
 3641SOL     OW11057   4.206   1.722   0.315
 3641SOL    HW111058   4.245   1.791   0.376
 3641SOL    HW211059   4.277   1.688   0.253
 3642SOL     OW11060   5.158   0.138   0.444
 3642SOL    HW111061   5.147   0.126   0.345
 3642SOL    HW211062   5.253   0.159   0.465
 3643SOL     OW11063   3.935   1.790   1.212
 3643SOL    HW111064   3.992   1.714   1.243
 3643SOL    HW211065   3.908   1.774   1.117
 3644SOL     OW11066   4.683   1.698   0.897
 3644SOL    HW111067   4.774   1.658   0.906
 3644SOL    HW211068   4.632   1.652   0.824
 3645SOL     OW11069   4.075   0.679   0.481
 3645SOL    HW111070   4.105   0.584   0.494
 3645SOL    HW211071   3.981   0.689   0.515
 3646SOL     OW11072   5.235   0.223   1.694
 3646SOL    HW111073   5.261   0.250   1.786
 3646SOL    HW211074   5.136   0.204   1.692
 3647SOL     OW11075   4.306   0.120   0.089
 3647SOL    HW111076   4.327   0.023   0.100
 3647SOL    HW211077   4.208   0.132   0.078
 3648SOL     OW11078   4.469   0.268   1.757
 3648SOL    HW111079   4.560   0.227   1.753
 3648SOL    HW211080   4.414   0.220   1.825
 3649SOL     OW11081   4.569   1.514   1.181
 3649SOL    HW111082   4.551   1.467   1.095
 3649SOL    HW211083   4.639   1.464   1.232
 3650SOL     OW11084   5.039   0.604   1.418
 3650SOL    HW111085   5.068   0.574   1.509
 3650SOL    HW211086   5.078   0.695   1.400
 3651SOL     OW11087   4.525   1.367   0.940
 3651SOL    HW111088   4.620   1.366   0.907
 3651SOL    HW211089   4.463   1.384   0.863
 3652SOL     OW11090   4.640   0.516   0.879
 3652SOL    HW111091   4.619   0.503   0.782
 3652SOL    HW211092   4.663   0.428   0.921
 3653SOL     OW11093   4.257   0.026   0.466
 3653SOL    HW111094   4.178   0.020   0.527
 3653SOL    HW211095   4.254   0.112   0.415
 3654SOL     OW11096   5.053   1.142   0.054
 3654SOL    HW111097   5.132   1.117   0.110
 3654SOL    HW211098   5.009   1.222   0.095
 3655SOL     OW11099   3.956   5.491   0.239
 3655SOL    HW111100   4.000   0.046   0.186
 3655SOL    HW211101   4.016   5.464   0.314
 3656SOL     OW11102   4.680   0.247   0.464
 3656SOL    HW111103   4.646   0.275   0.374
 3656SOL    HW211104   4.779   0.264   0.469
 3657SOL     OW11105   4.782   0.708   1.421
 3657SOL    HW111106   4.706   0.644   1.433
 3657SOL    HW211107   4.868   0.658   1.417
 3658SOL     OW11108   4.929   1.578   0.788
 3658SOL    HW111109   4.945   1.652   0.723
 3658SOL    HW211110   5.017   1.541   0.818
 3659SOL     OW11111   4.223   1.155   0.712
 3659SOL    HW111112   4.172   1.124   0.793
 3659SOL    HW211113   4.161   1.161   0.634
 3660SOL     OW11114   4.966   1.798   0.613
 3660SOL    HW111115   5.018   1.865   0.561
 3660SOL    HW211116   4.887   1.843   0.656
 3661SOL     OW11117   4.712   0.508   0.074
 3661SOL    HW111118   4.672   0.597   0.054
 3661SOL    HW211119   4.791   0.519   0.133
 3662SOL     OW11120   3.843   0.544   1.395
 3662SOL    HW111121   3.935   0.546   1.356
 3662SOL    HW211122   3.834   0.617   1.462
 3663SOL     OW11123   4.289   0.241   1.221
 3663SOL    HW111124   4.327   0.223   1.312
 3663SOL    HW211125   4.192   0.216   1.221
 3664SOL     OW11126   4.586   0.459   0.620
 3664SOL    HW111127   4.531   0.505   0.551
 3664SOL    HW211128   4.623   0.374   0.582
 3665SOL     OW11129   4.714   0.044   0.765
 3665SOL    HW111130   4.646   0.067   0.695
 3665SOL    HW211131   4.727   5.462   0.767
 3666SOL     OW11132   5.118   1.164   0.824
 3666SOL    HW111133   5.026   1.130   0.839
 3666SOL    HW211134   5.142   1.158   0.728
 3667SOL     OW11135   5.161   0.630   0.964
 3667SOL    HW111136   5.101   0.550   0.957
 3667SOL    HW211137   5.229   0.614   1.036
 3668SOL     OW11138   5.482   0.815   0.376
 3668SOL    HW111139   0.032   0.774   0.437
 3668SOL    HW211140   5.469   0.756   0.297
 3669SOL     OW11141   4.228   1.404   0.153
 3669SOL    HW111142   4.148   1.390   0.211
 3669SOL    HW211143   4.221   1.346   0.072
 3670SOL     OW11144   5.054   0.533   0.058
 3670SOL    HW111145   4.999   0.527   0.142
 3670SOL    HW211146   5.121   0.459   0.057
 3671SOL     OW11147   4.251   0.264   0.323
 3671SOL    HW111148   4.300   0.215   0.251
 3671SOL    HW211149   4.197   0.339   0.282
 3672SOL     OW11150   5.432   1.225   1.576
 3672SOL    HW111151   0.012   1.210   1.557
 3672SOL    HW211152   5.415   1.322   1.589
 3673SOL     OW11153   4.744   1.353   1.345
 3673SOL    HW111154   4.656   1.326   1.386
 3673SOL    HW211155   4.818   1.301   1.388
 3674SOL     OW11156   5.355   1.637   1.695
 3674SOL    HW111157   5.350   1.647   1.596
 3674SOL    HW211158   5.450   1.644   1.725
 3675SOL     OW11159   4.867   1.264   1.114
 3675SOL    HW111160   4.807   1.292   1.189
 3675SOL    HW211161   4.827   1.291   1.027
 3676SOL     OW11162   5.298   1.079   1.055
 3676SOL    HW111163   5.286   1.141   1.132
 3676SOL    HW211164   5.220   1.088   0.993
 3677SOL     OW11165   4.631   0.136   1.377
 3677SOL    HW111166   4.650   0.085   1.293
 3677SOL    HW211167   4.717   0.164   1.419
 3678SOL     OW11168   4.682   1.119   1.726
 3678SOL    HW111169   4.589   1.135   1.758
 3678SOL    HW211170   4.686   1.032   1.677
 3679SOL     OW11171   4.468   1.043   0.398
 3679SOL    HW111172   4.455   1.011   0.492
 3679SOL    HW211173   4.542   0.991   0.355
 3680SOL     OW11174   4.165   0.821   1.261
 3680SOL    HW111175   4.237   0.828   1.330
 3680SOL    HW211176   4.130   0.727   1.259
 3681SOL     OW11177   4.991   0.369   1.289
 3681SOL    HW111178   5.018   0.454   1.333
 3681SOL    HW211179   4.901   0.379   1.247
 3682SOL     OW11180   3.787   1.553   1.346
 3682SOL    HW111181   3.746   1.628   1.293
 3682SOL    HW211182   3.886   1.560   1.342
 3683SOL     OW11183   4.037   1.161   0.512
 3683SOL    HW111184   4.031   1.235   0.446
 3683SOL    HW211185   4.036   1.073   0.464
 3684SOL     OW11186   4.252   0.502   0.867
 3684SOL    HW111187   4.256   0.556   0.783
 3684SOL    HW211188   4.319   0.536   0.932
 3685SOL     OW11189   4.965   1.370   0.454
 3685SOL    HW111190   5.026   1.448   0.469
 3685SOL    HW211191   4.871   1.397   0.475
 3686SOL     OW11192   5.045   1.469   1.139
 3686SOL    HW111193   5.093   1.473   1.227
 3686SOL    HW211194   4.984   1.391   1.138
 3687SOL     OW11195   5.312   0.619   0.513
 3687SOL    HW111196   5.246   0.649   0.582
 3687SOL    HW211197   5.342   0.698   0.460
 3688SOL     OW11198   4.060   1.545   1.295
 3688SOL    HW111199   4.054   1.483   1.216
 3688SOL    HW211200   4.156   1.569   1.311
 3689SOL     OW11201   4.186   0.728   1.631
 3689SOL    HW111202   4.240   0.775   1.561
 3689SOL    HW211203   4.231   0.642   1.656
 3690SOL     OW11204   5.337   0.828   1.724
 3690SOL    HW111205   5.242   0.855   1.710
 3690SOL    HW211206   5.393   0.861   1.649
 3691SOL     OW11207   4.710   0.146   1.756
 3691SOL    HW111208   4.771   0.225   1.748
 3691SOL    HW211209   4.752   0.066   1.713
 3692SOL     OW11210   4.174   0.072   1.753
 3692SOL    HW111211   4.100   0.017   1.716
 3692SOL    HW211212   4.138   0.161   1.782
 3693SOL     OW11213   4.312   0.877   1.034
 3693SOL    HW111214   4.348   0.970   1.031
 3693SOL    HW211215   4.256   0.866   1.116
 3694SOL     OW11216   4.999   0.854   1.005
 3694SOL    HW111217   4.907   0.825   0.979
 3694SOL    HW211218   5.063   0.778   0.991
 3695SOL     OW11219   4.900   0.521   0.282
 3695SOL    HW111220   4.922   0.442   0.340
 3695SOL    HW211221   4.846   0.587   0.334
 3696SOL     OW11222   4.022   0.167   1.228
 3696SOL    HW111223   3.987   0.203   1.315
 3696SOL    HW211224   4.009   0.068   1.225
 3697SOL     OW11225   3.794   1.293   1.256
 3697SOL    HW111226   3.820   1.236   1.333
 3697SOL    HW211227   3.781   1.388   1.286
 3698SOL     OW11228   4.432   0.629   1.029
 3698SOL    HW111229   4.507   0.611   0.965
 3698SOL    HW211230   4.399   0.722   1.017
 3699SOL     OW11231   4.026   0.034   0.622
 3699SOL    HW111232   3.987   0.126   0.623
 3699SOL    HW211233   4.055   0.009   0.714
 3700SOL     OW11234   5.344   0.423   0.323
 3700SOL    HW111235   5.379   0.343   0.371
 3700SOL    HW211236   5.314   0.491   0.390
 3701SOL     OW11237   4.739   0.759   0.951
 3701SOL    HW111238   4.714   0.779   1.046
 3701SOL    HW211239   4.712   0.665   0.929
 3702SOL     OW11240   4.691   1.564   1.770
 3702SOL    HW111241   4.662   1.623   1.694
 3702SOL    HW211242   4.733   1.481   1.733
 3703SOL     OW11243   4.084   0.912   1.810
 3703SOL    HW111244   4.154   0.935   1.877
 3703SOL    HW211245   4.120   0.843   1.747
 3704SOL     OW11246   5.238   0.334   0.089
 3704SOL    HW111247   5.189   0.250   0.110
 3704SOL    HW211248   5.282   0.369   0.173
 3705SOL     OW11249   5.090   0.786   5.504
 3705SOL    HW111250   5.069   0.690   0.008
 3705SOL    HW211251   5.006   0.833   5.478
 3706SOL     OW11252   4.785   1.355   0.865
 3706SOL    HW111253   4.810   1.272   0.816
 3706SOL    HW211254   4.835   1.433   0.826
 3707SOL     OW11255   4.052   0.791   0.938
 3707SOL    HW111256   4.151   0.806   0.942
 3707SOL    HW211257   4.032   0.696   0.961
 3708SOL     OW11258   4.012   0.511   0.991
 3708SOL    HW111259   3.965   0.422   0.984
 3708SOL    HW211260   4.098   0.507   0.940
 3709SOL     OW11261   4.867   0.368   1.704
 3709SOL    HW111262   4.817   0.417   1.775
 3709SOL    HW211263   4.951   0.417   1.682
 3710SOL     OW11264   4.880   0.203   1.483
 3710SOL    HW111265   4.868   0.265   1.561
 3710SOL    HW211266   4.928   0.251   1.409
 3711SOL     OW11267   3.745   1.289   0.187
 3711SOL    HW111268   3.650   1.314   0.167
 3711SOL    HW211269   3.748   1.195   0.222
 3712SOL     OW11270   3.824   1.761   0.957
 3712SOL    HW111271   3.780   1.686   0.908
 3712SOL    HW211272   3.915   1.778   0.917
 3713SOL     OW11273   4.209   1.554   0.900
 3713SOL    HW111274   4.282   1.614   0.933
 3713SOL    HW211275   4.246   1.494   0.828
 3714SOL     OW11276   4.646   0.806   1.202
 3714SOL    HW111277   4.707   0.784   1.278
 3714SOL    HW211278   4.560   0.757   1.213
 3715SOL     OW11279   3.770   0.591   1.127
 3715SOL    HW111280   3.848   0.572   1.066
 3715SOL    HW211281   3.798   0.578   1.222
 3716SOL     OW11282   3.921   0.576   1.765
 3716SOL    HW111283   4.005   0.540   1.726
 3716SOL    HW211284   3.881   0.643   1.702
 3717SOL     OW11285   5.091   0.918   1.637
 3717SOL    HW111286   5.106   1.016   1.644
 3717SOL    HW211287   5.095   0.890   1.541
 3718SOL     OW11288   4.501   0.549   0.365
 3718SOL    HW111289   4.517   0.463   0.316
 3718SOL    HW211290   4.416   0.590   0.333
 3719SOL     OW11291   3.952   1.541   1.709
 3719SOL    HW111292   3.932   1.613   1.775
 3719SOL    HW211293   3.957   1.453   1.756
 3720SOL     OW11294   4.475   0.444   1.223
 3720SOL    HW111295   4.409   0.369   1.219
 3720SOL    HW211296   4.453   0.512   1.153
 3721SOL     OW11297   4.579   1.706   1.540
 3721SOL    HW111298   4.545   1.639   1.474
 3721SOL    HW211299   4.614   1.786   1.491
 3722SOL     OW11300   4.117   0.454   0.169
 3722SOL    HW111301   4.178   0.530   0.191
 3722SOL    HW211302   4.032   0.489   0.130
 3723SOL     OW11303   3.861   1.140   1.481
 3723SOL    HW111304   3.864   1.105   1.575
 3723SOL    HW211305   3.887   1.067   1.417
 3724SOL     OW11306   4.999   1.039   1.205
 3724SOL    HW111307   5.002   0.970   1.132
 3724SOL    HW211308   4.953   1.121   1.171
 3725SOL     OW11309   5.096   0.862   0.255
 3725SOL    HW111310   5.012   0.828   0.298
 3725SOL    HW211311   5.096   0.836   0.159
 3726SOL     OW11312   5.450   1.684   1.162
 3726SOL    HW111313   0.007   1.716   1.103
 3726SOL    HW211314   5.420   1.593   1.132
 3727SOL     OW11315   4.987   1.742   1.111
 3727SOL    HW111316   5.077   1.783   1.094
 3727SOL    HW211317   4.997   1.643   1.122
 3728SOL     OW11318   3.851   1.217   1.001
 3728SOL    HW111319   3.828   1.247   1.094
 3728SOL    HW211320   3.777   1.160   0.966
 3729SOL     OW11321   4.406   1.710   1.752
 3729SOL    HW111322   4.336   1.782   1.747
 3729SOL    HW211323   4.473   1.723   1.679
 3730SOL     OW11324   4.679   0.121   0.023
 3730SOL    HW111325   4.659   0.041   5.484
 3730SOL    HW211326   4.747   0.097   0.092
 3731SOL     OW11327   5.435   0.204   0.484
 3731SOL    HW111328   5.480   0.168   0.402
 3731SOL    HW211329   5.454   0.143   0.562
 3732SOL     OW11330   5.124   1.593   0.487
 3732SOL    HW111331   5.186   1.623   0.415
 3732SOL    HW211332   5.066   1.670   0.515
 3733SOL     OW11333   3.869   1.779   1.842
 3733SOL    HW111334   3.816   1.707   1.887
 3733SOL    HW211335   3.922   1.829   1.910
 3734SOL     OW11336   4.997   0.931   0.627
 3734SOL    HW111337   5.068   0.869   0.660
 3734SOL    HW211338   5.039   1.008   0.578
 3735SOL     OW11339   4.490   1.288   1.430
 3735SOL    HW111340   4.464   1.341   1.512
 3735SOL    HW211341   4.416   1.293   1.363
 3736SOL     OW11342   4.411   1.609   0.159
 3736SOL    HW111343   4.468   1.608   0.077
 3736SOL    HW211344   4.348   1.531   0.157
 3737SOL     OW11345   5.340   1.693   1.417
 3737SOL    HW111346   5.377   1.688   1.324
 3737SOL    HW211347   5.353   1.786   1.452
 3738SOL     OW11348   3.939   0.297   0.693
 3738SOL    HW111349   3.855   0.348   0.675
 3738SOL    HW211350   3.947   0.281   0.792
 3739SOL     OW11351   4.931   1.588   0.056
 3739SOL    HW111352   4.934   1.498   0.099
 3739SOL    HW211353   4.869   1.585   5.495
 3740SOL     OW11354   4.542   1.020   1.402
 3740SOL    HW111355   4.585   1.005   1.313
 3740SOL    HW211356   4.526   1.117   1.416
 3741SOL     OW11357   4.655   0.894   0.258
 3741SOL    HW111358   4.729   0.929   0.200
 3741SOL    HW211359   4.692   0.825   0.320
 3742SOL     OW11360   5.178   1.703   0.069
 3742SOL    HW111361   5.089   1.658   0.062
 3742SOL    HW211362   5.229   1.690   5.502
 3743SOL     OW11363   4.089   1.314   1.500
 3743SOL    HW111364   4.081   1.392   1.439
 3743SOL    HW211365   4.010   1.253   1.488
 3744SOL     OW11366   5.295   1.263   1.260
 3744SOL    HW111367   5.390   1.261   1.289
 3744SOL    HW211368   5.243   1.324   1.320
 3745SOL     OW11369   4.836   1.103   0.773
 3745SOL    HW111370   4.749   1.065   0.801
 3745SOL    HW211371   4.883   1.038   0.712
 3746SOL     OW11372   4.757   0.212   0.978
 3746SOL    HW111373   4.747   0.170   0.888
 3746SOL    HW211374   4.738   0.144   1.049
 3747SOL     OW11375   4.330   1.493   0.464
 3747SOL    HW111376   4.382   1.432   0.404
 3747SOL    HW211377   4.261   1.542   0.411
 3748SOL     OW11378   3.997   1.343   0.295
 3748SOL    HW111379   3.912   1.325   0.245
 3748SOL    HW211380   3.978   1.399   0.375
 3749SOL     OW11381   3.854   1.044   1.737
 3749SOL    HW111382   3.772   1.019   1.789
 3749SOL    HW211383   3.931   0.990   1.771
 3750SOL     OW11384   4.403   0.239   1.483
 3750SOL    HW111385   4.485   0.201   1.442
 3750SOL    HW211386   4.418   0.252   1.581
 3751SOL     OW11387   3.779   0.283   0.038
 3751SOL    HW111388   3.705   0.283   5.488
 3751SOL    HW211389   3.816   0.375   0.047
 3752SOL     OW11390   5.135   0.861   1.369
 3752SOL    HW111391   5.076   0.922   1.315
 3752SOL    HW211392   5.229   0.866   1.335
 3753SOL     OW11393   3.715   0.106   0.246
 3753SOL    HW111394   3.726   0.171   0.171
 3753SOL    HW211395   3.797   0.050   0.254
 3754SOL     OW11396   4.926   1.345   0.181
 3754SOL    HW111397   4.828   1.346   0.163
 3754SOL    HW211398   4.942   1.346   0.280
 3755SOL     OW11399   4.367   0.815   1.441
 3755SOL    HW111400   4.423   0.898   1.433
 3755SOL    HW211401   4.427   0.736   1.447
 3756SOL     OW11402   5.241   1.845   1.072
 3756SOL    HW111403   5.283   1.885   0.991
 3756SOL    HW211404   5.307   1.786   1.119
 3757SOL     OW11405   4.443   0.541   1.698
 3757SOL    HW111406   4.496   0.600   1.759
 3757SOL    HW211407   4.451   0.446   1.728
 3758SOL     OW11408   5.163   1.180   1.653
 3758SOL    HW111409   5.159   1.199   1.751
 3758SOL    HW211410   5.257   1.192   1.621
 3759SOL     OW11411   4.070   1.765   1.575
 3759SOL    HW111412   3.985   1.816   1.565
 3759SOL    HW211413   4.050   1.673   1.607
 3760SOL     OW11414   5.387   0.887   1.247
 3760SOL    HW111415   5.410   0.797   1.208
 3760SOL    HW211416   5.360   0.949   1.173
 3761SOL     OW11417   4.948   0.318   0.466
 3761SOL    HW111418   5.021   0.249   0.463
 3761SOL    HW211419   4.960   0.376   0.547
 3762SOL     OW11420   4.275   0.716   0.685
 3762SOL    HW111421   4.329   0.799   0.675
 3762SOL    HW211422   4.205   0.713   0.614
 3763SOL     OW11423   5.408   0.433   1.599
 3763SOL    HW111424   5.456   0.455   1.513
 3763SOL    HW211425   5.379   0.338   1.597
 3764SOL     OW11426   5.464   0.939   1.510
 3764SOL    HW111427   5.446   1.035   1.530
 3764SOL    HW211428   5.442   0.921   1.415
 3765SOL     OW11429   4.667   1.381   0.122
 3765SOL    HW111430   4.596   1.359   0.188
 3765SOL    HW211431   4.629   1.442   0.052
 3766SOL     OW11432   4.401   1.738   0.950
 3766SOL    HW111433   4.375   1.834   0.939
 3766SOL    HW211434   4.500   1.730   0.950
 3767SOL     OW11435   4.600   0.988   0.869
 3767SOL    HW111436   4.645   0.905   0.902
 3767SOL    HW211437   4.548   1.030   0.944
 3768SOL     OW11438   4.844   0.959   0.067
 3768SOL    HW111439   4.795   0.954   5.497
 3768SOL    HW211440   4.916   1.029   0.060
 3769SOL     OW11441   0.039   1.552   0.806
 3769SOL    HW111442   5.466   1.565   0.764
 3769SOL    HW211443   0.071   1.459   0.788
 3770SOL     OW11444   3.929   1.289   1.835
 3770SOL    HW111445   3.906   1.204   1.788
 3770SOL    HW211446   3.865   1.302   1.912
 3771SOL     OW11447   3.860   1.271   0.709
 3771SOL    HW111448   3.880   1.246   0.803
 3771SOL    HW211449   3.921   1.222   0.647
 3772SOL     OW11450   4.406   1.442   1.645
 3772SOL    HW111451   4.327   1.396   1.685
 3772SOL    HW211452   4.414   1.534   1.684
 3773SOL     OW11453   5.405   0.142   1.294
 3773SOL    HW111454   5.451   0.070   1.242
 3773SOL    HW211455   5.354   0.201   1.232
 3774SOL     OW11456   4.135   0.422   0.530
 3774SOL    HW111457   4.189   0.356   0.478
 3774SOL    HW211458   4.074   0.373   0.593
 3775SOL     OW11459   5.365   1.448   1.070
 3775SOL    HW111460   5.305   1.443   0.991
 3775SOL    HW211461   5.340   1.376   1.135
 3776SOL     OW11462   4.082   0.562   1.265
 3776SOL    HW111463   4.132   0.503   1.328
 3776SOL    HW211464   4.080   0.520   1.174
 3777SOL     OW11465   4.550   1.596   0.684
 3777SOL    HW111466   4.523   1.672   0.625
 3777SOL    HW211467   4.475   1.531   0.693
 3778SOL     OW11468   5.180   0.261   1.120
 3778SOL    HW111469   5.176   0.161   1.113
 3778SOL    HW211470   5.119   0.292   1.193
 3779SOL     OW11471   4.715   5.509   1.152
 3779SOL    HW111472   4.656   5.428   1.155
 3779SOL    HW211473   4.808   5.482   1.126
 3780SOL     OW11474   4.513   1.316   0.346
 3780SOL    HW111475   4.493   1.220   0.365
 3780SOL    HW211476   4.588   1.346   0.405
 3781SOL     OW11477   4.333   1.592   1.293
 3781SOL    HW111478   4.325   1.685   1.328
 3781SOL    HW211479   4.421   1.581   1.247
 3782SOL     OW11480   5.112   0.110   0.174
 3782SOL    HW111481   5.157   0.034   0.128
 3782SOL    HW211482   5.014   0.091   0.181
 3783SOL     OW11483   4.975   0.478   0.682
 3783SOL    HW111484   4.924   0.564   0.679
 3783SOL    HW211485   4.985   0.448   0.777
 3784SOL     OW11486   5.283   0.206   0.859
 3784SOL    HW111487   5.264   0.251   0.946
 3784SOL    HW211488   5.235   0.254   0.785
 3785SOL     OW11489   3.775   1.034   0.307
 3785SOL    HW111490   3.874   1.022   0.314
 3785SOL    HW211491   3.729   0.947   0.325
 3786SOL     OW11492   4.615   1.683   0.343
 3786SOL    HW111493   4.540   1.656   0.283
 3786SOL    HW211494   4.584   1.752   0.408
 3787SOL     OW11495   3.926   0.666   2.029
 3787SOL    HW111496   3.836   0.638   2.061
 3787SOL    HW211497   3.931   0.654   1.930
 3788SOL     OW11498   3.911   0.259   2.840
 3788SOL    HW111499   3.966   0.227   2.917
 3788SOL    HW211500   3.840   0.193   2.819
 3789SOL     OW11501   3.700   0.422   2.487
 3789SOL    HW111502   3.619   0.444   2.540
 3789SOL    HW211503   3.678   0.354   2.417
 3790SOL     OW11504   4.298   1.322   3.091
 3790SOL    HW111505   4.213   1.318   3.038
 3790SOL    HW211506   4.319   1.417   3.114
 3791SOL     OW11507   5.288   1.569   2.562
 3791SOL    HW111508   5.242   1.519   2.635
 3791SOL    HW211509   5.233   1.564   2.478
 3792SOL     OW11510   4.844   0.717   2.539
 3792SOL    HW111511   4.898   0.799   2.519
 3792SOL    HW211512   4.794   0.730   2.624
 3793SOL     OW11513   5.475   0.607   2.076
 3793SOL    HW111514   5.445   0.605   1.981
 3793SOL    HW211515   5.440   0.527   2.124
 3794SOL     OW11516   4.433   1.136   2.920
 3794SOL    HW111517   4.382   1.172   2.998
 3794SOL    HW211518   4.470   1.212   2.866
 3795SOL     OW11519   4.612   0.731   3.700
 3795SOL    HW111520   4.599   0.793   3.777
 3795SOL    HW211521   4.631   0.784   3.617
 3796SOL     OW11522   4.408   0.972   2.517
 3796SOL    HW111523   4.479   0.978   2.587
 3796SOL    HW211524   4.336   1.039   2.535
 3797SOL     OW11525   4.426   1.159   3.708
 3797SOL    HW111526   4.486   1.227   3.750
 3797SOL    HW211527   4.347   1.205   3.666
 3798SOL     OW11528   4.069   1.385   2.941
 3798SOL    HW111529   3.994   1.331   2.903
 3798SOL    HW211530   4.112   1.438   2.868
 3799SOL     OW11531   5.173   1.484   3.250
 3799SOL    HW111532   5.238   1.557   3.269
 3799SOL    HW211533   5.091   1.496   3.306
 3800SOL     OW11534   4.173   0.397   3.322
 3800SOL    HW111535   4.258   0.348   3.337
 3800SOL    HW211536   4.096   0.337   3.341
 3801SOL     OW11537   3.960   1.733   2.327
 3801SOL    HW111538   3.982   1.804   2.394
 3801SOL    HW211539   4.035   1.724   2.261
 3802SOL     OW11540   4.845   1.343   3.570
 3802SOL    HW111541   4.897   1.335   3.655
 3802SOL    HW211542   4.787   1.262   3.559
 3803SOL     OW11543   3.938   1.465   2.392
 3803SOL    HW111544   3.937   1.565   2.387
 3803SOL    HW211545   3.900   1.436   2.480
 3804SOL     OW11546   4.024   1.074   2.733
 3804SOL    HW111547   4.032   0.979   2.760
 3804SOL    HW211548   3.970   1.124   2.802
 3805SOL     OW11549   4.279   1.835   3.270
 3805SOL    HW111550   4.199   1.812   3.326
 3805SOL    HW211551   4.330   1.909   3.314
 3806SOL     OW11552   4.285   0.988   2.028
 3806SOL    HW111553   4.332   1.034   1.954
 3806SOL    HW211554   4.326   1.014   2.116
 3807SOL     OW11555   5.379   0.044   3.409
 3807SOL    HW111556   5.385   0.073   3.314
 3807SOL    HW211557   5.321   0.107   3.460
 3808SOL     OW11558   3.830   0.674   2.434
 3808SOL    HW111559   3.794   0.582   2.451
 3808SOL    HW211560   3.831   0.726   2.520
 3809SOL     OW11561   3.767   1.570   1.977
 3809SOL    HW111562   3.746   1.475   1.999
 3809SOL    HW211563   3.752   1.626   2.059
 3810SOL     OW11564   5.420   0.907   2.522
 3810SOL    HW111565   5.504   0.873   2.566
 3810SOL    HW211566   5.429   0.898   2.423
 3811SOL     OW11567   3.851   0.752   3.432
 3811SOL    HW111568   3.939   0.800   3.432
 3811SOL    HW211569   3.778   0.816   3.409
 3812SOL     OW11570   4.342   1.396   2.568
 3812SOL    HW111571   4.301   1.305   2.572
 3812SOL    HW211572   4.328   1.435   2.477
 3813SOL     OW11573   4.963   1.211   3.293
 3813SOL    HW111574   4.990   1.141   3.226
 3813SOL    HW211575   5.025   1.208   3.371
 3814SOL     OW11576   4.545   0.041   2.406
 3814SOL    HW111577   4.591   0.118   2.361
 3814SOL    HW211578   4.449   0.039   2.378
 3815SOL     OW11579   3.927   0.945   3.165
 3815SOL    HW111580   4.019   0.909   3.150
 3815SOL    HW211581   3.867   0.913   3.092
 3816SOL     OW11582   5.229   1.052   2.147
 3816SOL    HW111583   5.162   0.978   2.150
 3816SOL    HW211584   5.321   1.013   2.136
 3817SOL     OW11585   4.893   1.796   3.488
 3817SOL    HW111586   4.904   1.868   3.419
 3817SOL    HW211587   4.910   1.706   3.445
 3818SOL     OW11588   4.073   0.303   3.719
 3818SOL    HW111589   4.108   0.373   3.781
 3818SOL    HW211590   3.974   0.300   3.724
 3819SOL     OW11591   5.145   1.431   2.754
 3819SOL    HW111592   5.106   1.447   2.845
 3819SOL    HW211593   5.135   1.334   2.731
 3820SOL     OW11594   5.359   1.803   2.411
 3820SOL    HW111595   5.358   1.754   2.324
 3820SOL    HW211596   5.351   1.738   2.487
 3821SOL     OW11597   4.302   0.710   2.145
 3821SOL    HW111598   4.304   0.800   2.102
 3821SOL    HW211599   4.233   0.710   2.217
 3822SOL     OW11600   5.001   0.382   2.802
 3822SOL    HW111601   4.912   0.336   2.808
 3822SOL    HW211602   5.065   0.341   2.866
 3823SOL     OW11603   5.320   1.718   2.145
 3823SOL    HW111604   5.380   1.797   2.127
 3823SOL    HW211605   5.266   1.699   2.064
 3824SOL     OW11606   4.532   0.591   3.309
 3824SOL    HW111607   4.497   0.561   3.397
 3824SOL    HW211608   4.507   0.525   3.239
 3825SOL     OW11609   5.105   0.493   3.521
 3825SOL    HW111610   5.104   0.535   3.612
 3825SOL    HW211611   5.186   0.436   3.511
 3826SOL     OW11612   4.666   0.877   3.463
 3826SOL    HW111613   4.726   0.816   3.412
 3826SOL    HW211614   4.611   0.930   3.398
 3827SOL     OW11615   4.744   0.396   3.045
 3827SOL    HW111616   4.649   0.414   3.073
 3827SOL    HW211617   4.744   0.331   2.969
 3828SOL     OW11618   4.779   0.698   2.270
 3828SOL    HW111619   4.799   0.700   2.367
 3828SOL    HW211620   4.691   0.653   2.255
 3829SOL     OW11621   3.815   0.834   2.659
 3829SOL    HW111622   3.906   0.817   2.698
 3829SOL    HW211623   3.767   0.902   2.714
 3830SOL     OW11624   3.824   1.921   3.463
 3830SOL    HW111625   3.833   1.879   3.553
 3830SOL    HW211626   3.727   1.925   3.437
 3831SOL     OW11627   4.574   0.351   2.061
 3831SOL    HW111628   4.636   0.397   1.999
 3831SOL    HW211629   4.516   0.287   2.010
 3832SOL     OW11630   5.378   0.584   3.688
 3832SOL    HW111631   5.364   0.677   3.656
 3832SOL    HW211632   5.400   0.524   3.611
 3833SOL     OW11633   5.109   1.160   2.379
 3833SOL    HW111634   5.164   1.129   2.302
 3833SOL    HW211635   5.051   1.236   2.349
 3834SOL     OW11636   4.239   0.223   2.804
 3834SOL    HW111637   4.274   0.228   2.898
 3834SOL    HW211638   4.247   0.312   2.760
 3835SOL     OW11639   4.711   1.474   2.331
 3835SOL    HW111640   4.691   1.547   2.267
 3835SOL    HW211641   4.676   1.498   2.422
 3836SOL     OW11642   4.083   1.791   2.746
 3836SOL    HW111643   4.124   1.700   2.749
 3836SOL    HW211644   4.151   1.860   2.771
 3837SOL     OW11645   5.488   1.101   2.713
 3837SOL    HW111646   5.448   1.054   2.635
 3837SOL    HW211647   5.425   1.097   2.791
 3838SOL     OW11648   4.922   1.527   3.375
 3838SOL    HW111649   4.909   1.462   3.449
 3838SOL    HW211650   4.861   1.505   3.299
 3839SOL     OW11651   4.017   0.934   2.130
 3839SOL    HW111652   4.105   0.956   2.087
 3839SOL    HW211653   3.989   0.842   2.101
 3840SOL     OW11654   5.189   0.767   2.582
 3840SOL    HW111655   5.182   0.720   2.670
 3840SOL    HW211656   5.273   0.821   2.580
 3841SOL     OW11657   4.193   1.301   3.614
 3841SOL    HW111658   4.173   1.303   3.516
 3841SOL    HW211659   4.108   1.288   3.665
 3842SOL     OW11660   4.868   1.788   2.095
 3842SOL    HW111661   4.779   1.763   2.134
 3842SOL    HW211662   4.894   1.719   2.026
 3843SOL     OW11663   3.939   0.249   3.341
 3843SOL    HW111664   3.871   0.321   3.356
 3843SOL    HW211665   3.923   0.175   3.406
 3844SOL     OW11666   4.193   1.749   2.171
 3844SOL    HW111667   4.237   1.803   2.242
 3844SOL    HW211668   4.263   1.709   2.111
 3845SOL     OW11669   5.153   0.113   2.302
 3845SOL    HW111670   5.143   0.109   2.203
 3845SOL    HW211671   5.246   0.141   2.326
 3846SOL     OW11672   3.935   1.794   3.080
 3846SOL    HW111673   3.991   1.717   3.113
 3846SOL    HW211674   3.904   1.774   2.987
 3847SOL     OW11675   4.681   1.698   2.748
 3847SOL    HW111676   4.773   1.659   2.757
 3847SOL    HW211677   4.632   1.651   2.675
 3848SOL     OW11678   4.107   0.671   2.341
 3848SOL    HW111679   4.120   0.573   2.351
 3848SOL    HW211680   4.011   0.694   2.357
 3849SOL     OW11681   5.234   0.227   3.554
 3849SOL    HW111682   5.261   0.251   3.648
 3849SOL    HW211683   5.138   0.201   3.553
 3850SOL     OW11684   4.354   0.114   1.958
 3850SOL    HW111685   4.391   0.027   1.990
 3850SOL    HW211686   4.280   0.097   1.893
 3851SOL     OW11687   4.471   0.267   3.620
 3851SOL    HW111688   4.562   0.225   3.618
 3851SOL    HW211689   4.414   0.218   3.687
 3852SOL     OW11690   4.567   1.513   3.040
 3852SOL    HW111691   4.548   1.466   2.954
 3852SOL    HW211692   4.638   1.464   3.090
 3853SOL     OW11693   5.039   0.605   3.280
 3853SOL    HW111694   5.067   0.574   3.371
 3853SOL    HW211695   5.078   0.695   3.262
 3854SOL     OW11696   4.522   1.365   2.796
 3854SOL    HW111697   4.617   1.367   2.765
 3854SOL    HW211698   4.462   1.381   2.718
 3855SOL     OW11699   4.638   0.516   2.735
 3855SOL    HW111700   4.622   0.503   2.637
 3855SOL    HW211701   4.661   0.428   2.777
 3856SOL     OW11702   4.281   0.033   2.320
 3856SOL    HW111703   4.203   0.029   2.382
 3856SOL    HW211704   4.272   0.112   2.259
 3857SOL     OW11705   5.155   1.217   1.933
 3857SOL    HW111706   5.179   1.153   2.007
 3857SOL    HW211707   5.067   1.259   1.954
 3858SOL     OW11708   4.005   0.074   2.132
 3858SOL    HW111709   4.078   0.143   2.130
 3858SOL    HW211710   4.014   0.019   2.214
 3859SOL     OW11711   4.679   0.254   2.298
 3859SOL    HW111712   4.643   0.289   2.211
 3859SOL    HW211713   4.778   0.265   2.300
 3860SOL     OW11714   4.781   0.708   3.280
 3860SOL    HW111715   4.705   0.644   3.293
 3860SOL    HW211716   4.867   0.658   3.277
 3861SOL     OW11717   4.930   1.582   2.649
 3861SOL    HW111718   4.949   1.655   2.584
 3861SOL    HW211719   5.015   1.542   2.682
 3862SOL     OW11720   4.207   1.157   2.550
 3862SOL    HW111721   4.147   1.129   2.626
 3862SOL    HW211722   4.156   1.152   2.464
 3863SOL     OW11723   4.975   1.799   2.472
 3863SOL    HW111724   5.026   1.864   2.416
 3863SOL    HW211725   4.895   1.844   2.511
 3864SOL     OW11726   4.748   0.502   1.911
 3864SOL    HW111727   4.706   0.589   1.887
 3864SOL    HW211728   4.817   0.515   1.982
 3865SOL     OW11729   3.841   0.546   3.252
 3865SOL    HW111730   3.934   0.545   3.215
 3865SOL    HW211731   3.835   0.617   3.322
 3866SOL     OW11732   4.289   0.242   3.081
 3866SOL    HW111733   4.328   0.223   3.171
 3866SOL    HW211734   4.192   0.218   3.081
 3867SOL     OW11735   4.601   0.462   2.472
 3867SOL    HW111736   4.559   0.521   2.403
 3867SOL    HW211737   4.630   0.377   2.429
 3868SOL     OW11738   4.716   0.045   2.629
 3868SOL    HW111739   4.660   0.070   2.550
 3868SOL    HW211740   4.706   5.464   2.647
 3869SOL     OW11741   5.116   1.165   2.687
 3869SOL    HW111742   5.025   1.127   2.702
 3869SOL    HW211743   5.137   1.161   2.589
 3870SOL     OW11744   5.155   0.628   2.823
 3870SOL    HW111745   5.095   0.548   2.814
 3870SOL    HW211746   5.222   0.611   2.895
 3871SOL     OW11747   5.488   0.803   2.262
 3871SOL    HW111748   0.046   0.771   2.320
 3871SOL    HW211749   5.479   0.742   2.183
 3872SOL     OW11750   4.221   1.432   2.012
 3872SOL    HW111751   4.142   1.401   2.066
 3872SOL    HW211752   4.219   1.389   1.922
 3873SOL     OW11753   5.101   0.579   1.917
 3873SOL    HW111754   5.053   0.548   1.999
 3873SOL    HW211755   5.200   0.567   1.929
 3874SOL     OW11756   4.220   0.251   2.152
 3874SOL    HW111757   4.277   0.209   2.081
 3874SOL    HW211758   4.194   0.343   2.123
 3875SOL     OW11759   5.434   1.225   3.435
 3875SOL    HW111760   0.013   1.210   3.414
 3875SOL    HW211761   5.417   1.322   3.452
 3876SOL     OW11762   4.744   1.353   3.206
 3876SOL    HW111763   4.657   1.327   3.247
 3876SOL    HW211764   4.818   1.302   3.248
 3877SOL     OW11765   5.359   1.636   3.559
 3877SOL    HW111766   5.360   1.645   3.460
 3877SOL    HW211767   5.451   1.646   3.595
 3878SOL     OW11768   4.867   1.264   2.975
 3878SOL    HW111769   4.808   1.292   3.050
 3878SOL    HW211770   4.827   1.292   2.888
 3879SOL     OW11771   5.300   1.081   2.913
 3879SOL    HW111772   5.288   1.143   2.991
 3879SOL    HW211773   5.222   1.090   2.851
 3880SOL     OW11774   4.630   0.137   3.239
 3880SOL    HW111775   4.648   0.086   3.155
 3880SOL    HW211776   4.716   0.165   3.281
 3881SOL     OW11777   4.683   1.120   3.586
 3881SOL    HW111778   4.590   1.136   3.619
 3881SOL    HW211779   4.687   1.032   3.537
 3882SOL     OW11780   4.444   1.050   2.250
 3882SOL    HW111781   4.430   1.019   2.344
 3882SOL    HW211782   4.517   0.996   2.208
 3883SOL     OW11783   4.168   0.819   3.123
 3883SOL    HW111784   4.239   0.825   3.193
 3883SOL    HW211785   4.132   0.726   3.121
 3884SOL     OW11786   4.991   0.369   3.151
 3884SOL    HW111787   5.018   0.455   3.195
 3884SOL    HW211788   4.901   0.380   3.109
 3885SOL     OW11789   3.783   1.553   3.216
 3885SOL    HW111790   3.739   1.623   3.159
 3885SOL    HW211791   3.882   1.563   3.210
 3886SOL     OW11792   4.042   1.135   2.328
 3886SOL    HW111793   4.039   1.213   2.266
 3886SOL    HW211794   4.035   1.050   2.276
 3887SOL     OW11795   4.252   0.505   2.731
 3887SOL    HW111796   4.258   0.560   2.648
 3887SOL    HW211797   4.319   0.538   2.797
 3888SOL     OW11798   4.962   1.377   2.273
 3888SOL    HW111799   5.026   1.452   2.294
 3888SOL    HW211800   4.870   1.404   2.301
 3889SOL     OW11801   5.045   1.470   3.005
 3889SOL    HW111802   5.095   1.473   3.091
 3889SOL    HW211803   4.984   1.391   3.004
 3890SOL     OW11804   5.315   0.610   2.387
 3890SOL    HW111805   5.246   0.645   2.451
 3890SOL    HW211806   5.356   0.687   2.338
 3891SOL     OW11807   4.057   1.547   3.159
 3891SOL    HW111808   4.051   1.485   3.080
 3891SOL    HW211809   4.153   1.571   3.174
 3892SOL     OW11810   4.184   0.732   3.494
 3892SOL    HW111811   4.240   0.777   3.424
 3892SOL    HW211812   4.226   0.646   3.520
 3893SOL     OW11813   5.337   0.828   3.585
 3893SOL    HW111814   5.242   0.855   3.570
 3893SOL    HW211815   5.394   0.861   3.509
 3894SOL     OW11816   4.713   0.145   3.625
 3894SOL    HW111817   4.773   0.224   3.614
 3894SOL    HW211818   4.753   0.066   3.578
 3895SOL     OW11819   4.174   0.078   3.606
 3895SOL    HW111820   4.099   0.030   3.560
 3895SOL    HW211821   4.142   0.166   3.639
 3896SOL     OW11822   4.309   0.881   2.895
 3896SOL    HW111823   4.349   0.973   2.896
 3896SOL    HW211824   4.256   0.867   2.979
 3897SOL     OW11825   4.995   0.853   2.865
 3897SOL    HW111826   4.903   0.826   2.837
 3897SOL    HW211827   5.058   0.777   2.851
 3898SOL     OW11828   4.928   0.515   2.125
 3898SOL    HW111829   4.942   0.435   2.183
 3898SOL    HW211830   4.883   0.587   2.178
 3899SOL     OW11831   4.022   0.168   3.089
 3899SOL    HW111832   3.987   0.201   3.176
 3899SOL    HW211833   4.012   0.068   3.084
 3900SOL     OW11834   3.781   1.293   3.131
 3900SOL    HW111835   3.818   1.237   3.205
 3900SOL    HW211836   3.775   1.388   3.161
 3901SOL     OW11837   4.435   0.633   2.891
 3901SOL    HW111838   4.506   0.613   2.823
 3901SOL    HW211839   4.400   0.725   2.876
 3902SOL     OW11840   4.046   0.058   2.463
 3902SOL    HW111841   4.000   0.146   2.476
 3902SOL    HW211842   4.071   0.019   2.551
 3903SOL     OW11843   5.337   0.405   2.203
 3903SOL    HW111844   5.366   0.326   2.256
 3903SOL    HW211845   5.304   0.476   2.266
 3904SOL     OW11846   4.735   0.760   2.807
 3904SOL    HW111847   4.711   0.780   2.902
 3904SOL    HW211848   4.708   0.666   2.785
 3905SOL     OW11849   4.692   1.564   3.631
 3905SOL    HW111850   4.662   1.623   3.556
 3905SOL    HW211851   4.734   1.481   3.594
 3906SOL     OW11852   4.087   0.916   3.675
 3906SOL    HW111853   4.158   0.938   3.743
 3906SOL    HW211854   4.122   0.847   3.612
 3907SOL     OW11855   5.291   0.287   1.959
 3907SOL    HW111856   5.221   0.219   1.981
 3907SOL    HW211857   5.308   0.344   2.039
 3908SOL     OW11858   4.995   0.827   1.875
 3908SOL    HW111859   5.029   0.733   1.886
 3908SOL    HW211860   5.022   0.862   1.786
 3909SOL     OW11861   4.784   1.359   2.727
 3909SOL    HW111862   4.807   1.274   2.678
 3909SOL    HW211863   4.834   1.435   2.687
 3910SOL     OW11864   4.053   0.799   2.795
 3910SOL    HW111865   4.151   0.818   2.804
 3910SOL    HW211866   4.035   0.704   2.819
 3911SOL     OW11867   4.010   0.514   2.851
 3911SOL    HW111868   3.964   0.426   2.844
 3911SOL    HW211869   4.096   0.510   2.800
 3912SOL     OW11870   4.865   0.368   3.567
 3912SOL    HW111871   4.816   0.417   3.639
 3912SOL    HW211872   4.949   0.417   3.544
 3913SOL     OW11873   4.879   0.204   3.346
 3913SOL    HW111874   4.867   0.267   3.423
 3913SOL    HW211875   4.926   0.251   3.272
 3914SOL     OW11876   3.745   1.289   2.043
 3914SOL    HW111877   3.652   1.314   2.013
 3914SOL    HW211878   3.744   1.197   2.083
 3915SOL     OW11879   3.825   1.746   2.827
 3915SOL    HW111880   3.780   1.674   2.775
 3915SOL    HW211881   3.916   1.764   2.788
 3916SOL     OW11882   4.211   1.545   2.762
 3916SOL    HW111883   4.284   1.606   2.794
 3916SOL    HW211884   4.245   1.487   2.688
 3917SOL     OW11885   4.645   0.806   3.060
 3917SOL    HW111886   4.706   0.783   3.136
 3917SOL    HW211887   4.561   0.753   3.067
 3918SOL     OW11888   3.772   0.600   2.986
 3918SOL    HW111889   3.849   0.580   2.926
 3918SOL    HW211890   3.800   0.586   3.081
 3919SOL     OW11891   3.921   0.571   3.629
 3919SOL    HW111892   4.004   0.530   3.591
 3919SOL    HW211893   3.885   0.638   3.564
 3920SOL     OW11894   5.092   0.917   3.497
 3920SOL    HW111895   5.106   1.016   3.503
 3920SOL    HW211896   5.096   0.889   3.402
 3921SOL     OW11897   4.536   0.579   2.221
 3921SOL    HW111898   4.539   0.496   2.166
 3921SOL    HW211899   4.455   0.632   2.198
 3922SOL     OW11900   3.946   1.548   3.571
 3922SOL    HW111901   3.928   1.618   3.640
 3922SOL    HW211902   3.955   1.459   3.616
 3923SOL     OW11903   4.474   0.446   3.084
 3923SOL    HW111904   4.408   0.371   3.079
 3923SOL    HW211905   4.453   0.514   3.014
 3924SOL     OW11906   4.582   1.706   3.403
 3924SOL    HW111907   4.546   1.638   3.338
 3924SOL    HW211908   4.616   1.785   3.352
 3925SOL     OW11909   4.150   0.498   2.044
 3925SOL    HW111910   4.225   0.560   2.067
 3925SOL    HW211911   4.063   0.546   2.051
 3926SOL     OW11912   3.868   1.137   3.345
 3926SOL    HW111913   3.871   1.102   3.438
 3926SOL    HW211914   3.893   1.064   3.281
 3927SOL     OW11915   4.999   1.038   3.065
 3927SOL    HW111916   5.000   0.968   2.993
 3927SOL    HW211917   4.953   1.120   3.031
 3928SOL     OW11918   5.041   0.857   2.149
 3928SOL    HW111919   4.964   0.822   2.203
 3928SOL    HW211920   5.019   0.849   2.052
 3929SOL     OW11921   5.440   1.693   3.014
 3929SOL    HW111922   0.001   1.722   2.960
 3929SOL    HW211923   5.413   1.600   2.988
 3930SOL     OW11924   4.982   1.740   2.973
 3930SOL    HW111925   5.071   1.783   2.953
 3930SOL    HW211926   4.994   1.642   2.985
 3931SOL     OW11927   3.849   1.217   2.882
 3931SOL    HW111928   3.820   1.246   2.973
 3931SOL    HW211929   3.777   1.163   2.840
 3932SOL     OW11930   4.405   1.713   3.613
 3932SOL    HW111931   4.334   1.783   3.606
 3932SOL    HW211932   4.473   1.727   3.540
 3933SOL     OW11933   5.427   0.191   2.357
 3933SOL    HW111934   5.475   0.156   2.276
 3933SOL    HW211935   5.447   0.132   2.435
 3934SOL     OW11936   5.123   1.597   2.336
 3934SOL    HW111937   5.176   1.637   2.262
 3934SOL    HW211938   5.062   1.667   2.374
 3935SOL     OW11939   3.861   1.791   3.701
 3935SOL    HW111940   3.808   1.718   3.745
 3935SOL    HW211941   3.917   1.837   3.770
 3936SOL     OW11942   4.996   0.937   2.492
 3936SOL    HW111943   5.070   0.877   2.522
 3936SOL    HW211944   5.034   1.012   2.439
 3937SOL     OW11945   4.490   1.288   3.292
 3937SOL    HW111946   4.466   1.341   3.373
 3937SOL    HW211947   4.416   1.293   3.225
 3938SOL     OW11948   4.399   1.639   2.017
 3938SOL    HW111949   4.414   1.663   1.921
 3938SOL    HW211950   4.343   1.556   2.022
 3939SOL     OW11951   5.366   1.689   3.280
 3939SOL    HW111952   5.387   1.689   3.182
 3939SOL    HW211953   5.369   1.783   3.314
 3940SOL     OW11954   3.942   0.299   2.557
 3940SOL    HW111955   3.858   0.350   2.536
 3940SOL    HW211956   3.947   0.282   2.655
 3941SOL     OW11957   4.930   1.592   1.912
 3941SOL    HW111958   4.928   1.499   1.948
 3941SOL    HW211959   4.851   1.607   1.852
 3942SOL     OW11960   4.542   1.019   3.263
 3942SOL    HW111961   4.585   1.004   3.174
 3942SOL    HW211962   4.526   1.117   3.277
 3943SOL     OW11963   4.639   0.902   2.134
 3943SOL    HW111964   4.699   0.949   2.070
 3943SOL    HW211965   4.692   0.834   2.186
 3944SOL     OW11966   5.187   1.693   1.908
 3944SOL    HW111967   5.096   1.653   1.897
 3944SOL    HW211968   5.244   1.669   1.829
 3945SOL     OW11969   4.091   1.317   3.362
 3945SOL    HW111970   4.081   1.395   3.301
 3945SOL    HW211971   4.014   1.254   3.349
 3946SOL     OW11972   5.296   1.263   3.120
 3946SOL    HW111973   5.391   1.259   3.148
 3946SOL    HW211974   5.245   1.324   3.181
 3947SOL     OW11975   4.831   1.107   2.633
 3947SOL    HW111976   4.743   1.068   2.660
 3947SOL    HW211977   4.879   1.043   2.573
 3948SOL     OW11978   4.756   0.215   2.840
 3948SOL    HW111979   4.746   0.172   2.751
 3948SOL    HW211980   4.738   0.147   2.912
 3949SOL     OW11981   4.323   1.496   2.319
 3949SOL    HW111982   4.383   1.436   2.266
 3949SOL    HW211983   4.248   1.528   2.261
 3950SOL     OW11984   3.997   1.351   2.158
 3950SOL    HW111985   3.910   1.333   2.112
 3950SOL    HW211986   3.980   1.398   2.244
 3951SOL     OW11987   3.857   1.045   3.601
 3951SOL    HW111988   3.775   1.020   3.652
 3951SOL    HW211989   3.935   0.993   3.635
 3952SOL     OW11990   4.402   0.240   3.345
 3952SOL    HW111991   4.484   0.202   3.303
 3952SOL    HW211992   4.417   0.253   3.443
 3953SOL     OW11993   3.796   0.348   1.862
 3953SOL    HW111994   3.722   0.328   1.798
 3953SOL    HW211995   3.832   0.439   1.844
 3954SOL     OW11996   5.135   0.861   3.230
 3954SOL    HW111997   5.076   0.921   3.176
 3954SOL    HW211998   5.229   0.866   3.196
 3955SOL     OW11999   3.766   0.213   2.110
 3955SOL    HW112000   3.766   0.265   2.024
 3955SOL    HW212001   3.851   0.161   2.117
 3956SOL     OW12002   4.903   1.331   2.001
 3956SOL    HW112003   4.808   1.302   1.990
 3956SOL    HW212004   4.926   1.336   2.098
 3957SOL     OW12005   4.368   0.814   3.304
 3957SOL    HW112006   4.423   0.897   3.296
 3957SOL    HW212007   4.428   0.735   3.310
 3958SOL     OW12008   5.231   1.848   2.924
 3958SOL    HW112009   5.266   1.877   2.835
 3958SOL    HW212010   5.300   1.792   2.970
 3959SOL     OW12011   4.442   0.540   3.562
 3959SOL    HW112012   4.496   0.600   3.622
 3959SOL    HW212013   4.451   0.446   3.592
 3960SOL     OW12014   5.163   1.180   3.508
 3960SOL    HW112015   5.157   1.200   3.606
 3960SOL    HW212016   5.257   1.192   3.477
 3961SOL     OW12017   4.062   1.772   3.435
 3961SOL    HW112018   3.979   1.827   3.425
 3961SOL    HW212019   4.037   1.681   3.467
 3962SOL     OW12020   5.388   0.888   3.107
 3962SOL    HW112021   5.410   0.798   3.069
 3962SOL    HW212022   5.361   0.950   3.033
 3963SOL     OW12023   4.951   0.312   2.313
 3963SOL    HW112024   5.014   0.235   2.317
 3963SOL    HW212025   4.961   0.368   2.396
 3964SOL     OW12026   4.284   0.717   2.549
 3964SOL    HW112027   4.334   0.802   2.538
 3964SOL    HW212028   4.220   0.705   2.473
 3965SOL     OW12029   5.415   0.432   3.463
 3965SOL    HW112030   5.456   0.454   3.374
 3965SOL    HW212031   5.378   0.339   3.461
 3966SOL     OW12032   5.464   0.939   3.371
 3966SOL    HW112033   5.447   1.036   3.392
 3966SOL    HW212034   5.441   0.921   3.275
 3967SOL     OW12035   4.605   1.348   1.949
 3967SOL    HW112036   4.563   1.358   2.039
 3967SOL    HW212037   4.614   1.439   1.907
 3968SOL     OW12038   4.401   1.732   2.806
 3968SOL    HW112039   4.374   1.828   2.796
 3968SOL    HW212040   4.501   1.725   2.804
 3969SOL     OW12041   4.595   0.991   2.727
 3969SOL    HW112042   4.640   0.906   2.756
 3969SOL    HW212043   4.544   1.030   2.803
 3970SOL     OW12044   4.800   1.006   1.947
 3970SOL    HW112045   4.765   1.057   1.869
 3970SOL    HW212046   4.873   0.944   1.917
 3971SOL     OW12047   0.028   1.569   2.672
 3971SOL    HW112048   5.455   1.571   2.630
 3971SOL    HW212049   0.072   1.481   2.653
 3972SOL     OW12050   3.930   1.293   3.696
 3972SOL    HW112051   3.907   1.208   3.649
 3972SOL    HW212052   3.873   1.303   3.777
 3973SOL     OW12053   3.850   1.198   2.533
 3973SOL    HW112054   3.898   1.157   2.611
 3973SOL    HW212055   3.904   1.183   2.450
 3974SOL     OW12056   4.408   1.444   3.505
 3974SOL    HW112057   4.330   1.397   3.546
 3974SOL    HW212058   4.416   1.536   3.545
 3975SOL     OW12059   5.406   0.141   3.154
 3975SOL    HW112060   5.452   0.070   3.102
 3975SOL    HW212061   5.354   0.200   3.092
 3976SOL     OW12062   4.129   0.406   2.381
 3976SOL    HW112063   4.169   0.334   2.324
 3976SOL    HW212064   4.070   0.365   2.450
 3977SOL     OW12065   5.362   1.451   2.932
 3977SOL    HW112066   5.300   1.445   2.853
 3977SOL    HW212067   5.340   1.379   2.997
 3978SOL     OW12068   4.082   0.561   3.125
 3978SOL    HW112069   4.130   0.500   3.188
 3978SOL    HW212070   4.079   0.520   3.034
 3979SOL     OW12071   4.551   1.591   2.534
 3979SOL    HW112072   4.521   1.666   2.475
 3979SOL    HW212073   4.476   1.526   2.546
 3980SOL     OW12074   5.178   0.261   2.980
 3980SOL    HW112075   5.175   0.161   2.974
 3980SOL    HW212076   5.117   0.292   3.054
 3981SOL     OW12077   4.712   5.511   3.014
 3981SOL    HW112078   4.655   5.430   3.016
 3981SOL    HW212079   4.807   5.485   2.995
 3982SOL     OW12080   4.506   1.323   2.206
 3982SOL    HW112081   4.484   1.227   2.222
 3982SOL    HW212082   4.586   1.349   2.261
 3983SOL     OW12083   4.332   1.592   3.156
 3983SOL    HW112084   4.324   1.684   3.192
 3983SOL    HW212085   4.419   1.582   3.108
 3984SOL     OW12086   5.109   0.100   2.028
 3984SOL    HW112087   5.135   0.023   1.970
 3984SOL    HW212088   5.011   0.093   2.050
 3985SOL     OW12089   4.977   0.468   2.536
 3985SOL    HW112090   4.929   0.556   2.533
 3985SOL    HW212091   4.985   0.439   2.631
 3986SOL     OW12092   5.280   0.204   2.718
 3986SOL    HW112093   5.263   0.250   2.805
 3986SOL    HW212094   5.230   0.252   2.646
 3987SOL     OW12095   3.759   1.036   2.171
 3987SOL    HW112096   3.855   1.018   2.150
 3987SOL    HW212097   3.712   0.950   2.190
 3988SOL     OW12098   4.619   1.691   2.186
 3988SOL    HW112099   4.541   1.670   2.127
 3988SOL    HW212100   4.592   1.760   2.253
 3989SOL     OW12101   3.926   0.661   3.893
 3989SOL    HW112102   3.836   0.632   3.925
 3989SOL    HW212103   3.931   0.649   3.793
 3990SOL     OW12104   3.911   0.263   4.696
 3990SOL    HW112105   3.968   0.229   4.770
 3990SOL    HW212106   3.834   0.201   4.682
 3991SOL     OW12107   3.692   0.426   4.355
 3991SOL    HW112108   3.611   0.446   4.410
 3991SOL    HW212109   3.668   0.360   4.284
 3992SOL     OW12110   4.284   1.310   4.943
 3992SOL    HW112111   4.201   1.314   4.886
 3992SOL    HW212112   4.305   1.401   4.977
 3993SOL     OW12113   5.290   1.550   4.438
 3993SOL    HW112114   5.254   1.487   4.507
 3993SOL    HW212115   5.231   1.549   4.358
 3994SOL     OW12116   4.847   0.722   4.401
 3994SOL    HW112117   4.900   0.805   4.387
 3994SOL    HW212118   4.792   0.730   4.484
 3995SOL     OW12119   5.477   0.607   3.938
 3995SOL    HW112120   5.446   0.605   3.843
 3995SOL    HW212121   5.440   0.528   3.986
 3996SOL     OW12122   4.432   1.139   4.769
 3996SOL    HW112123   4.371   1.172   4.842
 3996SOL    HW212124   4.475   1.216   4.724
 3997SOL     OW12125   4.580   0.747   0.033
 3997SOL    HW112126   4.592   0.796   0.119
 3997SOL    HW212127   4.618   0.801   5.475
 3998SOL     OW12128   4.410   0.968   4.379
 3998SOL    HW112129   4.482   0.972   4.448
 3998SOL    HW212130   4.340   1.037   4.399
 3999SOL     OW12131   4.068   1.399   4.794
 3999SOL    HW112132   3.991   1.347   4.756
 3999SOL    HW212133   4.111   1.452   4.721
 4000SOL     OW12134   5.168   1.517   5.098
 4000SOL    HW112135   5.240   1.584   5.111
 4000SOL    HW212136   5.088   1.542   5.153
 4001SOL     OW12137   4.189   0.403   5.163
 4001SOL    HW112138   4.269   0.344   5.179
 4001SOL    HW212139   4.106   0.352   5.184
 4002SOL     OW12140   3.953   1.738   4.190
 4002SOL    HW112141   3.978   1.808   4.256
 4002SOL    HW212142   4.028   1.726   4.125
 4003SOL     OW12143   3.981   1.468   4.251
 4003SOL    HW112144   3.954   1.564   4.255
 4003SOL    HW212145   3.936   1.417   4.324
 4004SOL     OW12146   4.041   1.081   4.614
 4004SOL    HW112147   4.041   0.984   4.638
 4004SOL    HW212148   3.979   1.130   4.675
 4005SOL     OW12149   4.306   1.804   5.164
 4005SOL    HW112150   4.218   1.799   5.211
 4005SOL    HW212151   4.351   1.890   5.185
 4006SOL     OW12152   4.287   0.988   3.890
 4006SOL    HW112153   4.334   1.034   3.816
 4006SOL    HW212154   4.328   1.013   3.978
 4007SOL     OW12155   5.414   0.123   5.239
 4007SOL    HW112156   5.398   0.137   5.142
 4007SOL    HW212157   5.397   0.209   5.288
 4008SOL     OW12158   3.829   0.678   4.301
 4008SOL    HW112159   3.791   0.588   4.322
 4008SOL    HW212160   3.830   0.734   4.384
 4009SOL     OW12161   3.759   1.582   3.836
 4009SOL    HW112162   3.735   1.486   3.852
 4009SOL    HW212163   3.746   1.634   3.920
 4010SOL     OW12164   5.415   0.908   4.385
 4010SOL    HW112165   5.500   0.877   4.427
 4010SOL    HW212166   5.424   0.902   4.285
 4011SOL     OW12167   3.919   0.707   5.351
 4011SOL    HW112168   4.018   0.716   5.348
 4011SOL    HW212169   3.878   0.798   5.361
 4012SOL     OW12170   4.349   1.396   4.434
 4012SOL    HW112171   4.308   1.305   4.440
 4012SOL    HW212172   4.334   1.434   4.343
 4013SOL     OW12173   4.949   1.265   5.205
 4013SOL    HW112174   5.002   1.216   5.136
 4013SOL    HW212175   4.969   1.227   5.296
 4014SOL     OW12176   4.548   0.047   4.273
 4014SOL    HW112177   4.594   0.124   4.228
 4014SOL    HW212178   4.452   0.044   4.245
 4015SOL     OW12179   3.939   0.965   4.988
 4015SOL    HW112180   4.030   0.923   4.985
 4015SOL    HW212181   3.876   0.913   4.930
 4016SOL     OW12182   5.231   1.047   3.990
 4016SOL    HW112183   5.165   0.972   3.999
 4016SOL    HW212184   5.323   1.009   3.986
 4017SOL     OW12185   4.818   1.815   5.362
 4017SOL    HW112186   4.845   1.898   5.314
 4017SOL    HW212187   4.864   1.736   5.321
 4018SOL     OW12188   4.041   0.195   0.088
 4018SOL    HW112189   4.075   0.285   0.115
 4018SOL    HW212190   3.949   0.205   0.050
 4019SOL     OW12191   5.190   1.382   4.636
 4019SOL    HW112192   5.135   1.421   4.709
 4019SOL    HW212193   5.166   1.285   4.624
 4020SOL     OW12194   5.381   1.782   4.286
 4020SOL    HW112195   5.375   1.728   4.202
 4020SOL    HW212196   5.364   1.723   4.365
 4021SOL     OW12197   4.302   0.708   4.009
 4021SOL    HW112198   4.306   0.799   3.966
 4021SOL    HW212199   4.233   0.708   4.081
 4022SOL     OW12200   5.003   0.393   4.682
 4022SOL    HW112201   4.917   0.342   4.681
 4022SOL    HW212202   5.060   0.359   4.757
 4023SOL     OW12203   5.312   1.704   4.014
 4023SOL    HW112204   5.358   1.792   4.007
 4023SOL    HW212205   5.260   1.687   3.930
 4024SOL     OW12206   4.530   0.583   5.180
 4024SOL    HW112207   4.483   0.556   5.264
 4024SOL    HW212208   4.505   0.520   5.107
 4025SOL     OW12209   4.706   0.898   5.352
 4025SOL    HW112210   4.747   0.826   5.297
 4025SOL    HW212211   4.649   0.956   5.294
 4026SOL     OW12212   4.747   0.395   4.931
 4026SOL    HW112213   4.651   0.413   4.950
 4026SOL    HW212214   4.755   0.341   4.847
 4027SOL     OW12215   4.781   0.699   4.133
 4027SOL    HW112216   4.802   0.703   4.230
 4027SOL    HW212217   4.693   0.653   4.120
 4028SOL     OW12218   3.816   0.852   4.517
 4028SOL    HW112219   3.905   0.831   4.559
 4028SOL    HW212220   3.769   0.922   4.570
 4029SOL     OW12221   3.837   1.928   5.335
 4029SOL    HW112222   3.832   1.937   5.434
 4029SOL    HW212223   3.745   1.912   5.298
 4030SOL     OW12224   4.575   0.352   3.926
 4030SOL    HW112225   4.637   0.398   3.863
 4030SOL    HW212226   4.516   0.289   3.875
 4031SOL     OW12227   5.095   1.149   4.214
 4031SOL    HW112228   5.152   1.122   4.136
 4031SOL    HW212229   5.043   1.230   4.190
 4032SOL     OW12230   4.241   0.224   4.655
 4032SOL    HW112231   4.276   0.226   4.749
 4032SOL    HW212232   4.246   0.316   4.615
 4033SOL     OW12233   4.710   1.474   4.193
 4033SOL    HW112234   4.690   1.549   4.129
 4033SOL    HW212235   4.677   1.498   4.284
 4034SOL     OW12236   4.084   1.800   4.609
 4034SOL    HW112237   4.123   1.708   4.610
 4034SOL    HW212238   4.154   1.866   4.639
 4035SOL     OW12239   5.489   1.097   4.583
 4035SOL    HW112240   5.437   1.057   4.508
 4035SOL    HW212241   5.433   1.095   4.666
 4036SOL     OW12242   4.914   1.551   5.233
 4036SOL    HW112243   4.921   1.451   5.228
 4036SOL    HW212244   4.828   1.580   5.192
 4037SOL     OW12245   4.022   0.930   3.997
 4037SOL    HW112246   4.108   0.955   3.953
 4037SOL    HW212247   3.995   0.839   3.967
 4038SOL     OW12248   5.188   0.766   4.445
 4038SOL    HW112249   5.182   0.721   4.534
 4038SOL    HW212250   5.272   0.820   4.440
 4039SOL     OW12251   4.186   1.239   5.446
 4039SOL    HW112252   4.125   1.275   5.376
 4039SOL    HW212253   4.161   1.144   5.467
 4040SOL     OW12254   4.870   1.789   3.957
 4040SOL    HW112255   4.781   1.766   3.996
 4040SOL    HW212256   4.895   1.721   3.889
 4041SOL     OW12257   3.949   0.273   5.179
 4041SOL    HW112258   3.883   0.346   5.196
 4041SOL    HW212259   3.918   0.189   5.225
 4042SOL     OW12260   4.190   1.747   4.035
 4042SOL    HW112261   4.235   1.801   4.107
 4042SOL    HW212262   4.260   1.706   3.977
 4043SOL     OW12263   5.151   0.110   4.167
 4043SOL    HW112264   5.141   0.107   4.068
 4043SOL    HW212265   5.244   0.142   4.190
 4044SOL     OW12266   3.961   1.789   4.934
 4044SOL    HW112267   4.005   1.706   4.971
 4044SOL    HW212268   3.921   1.769   4.845
 4045SOL     OW12269   4.679   1.705   4.608
 4045SOL    HW112270   4.771   1.667   4.618
 4045SOL    HW212271   4.630   1.658   4.535
 4046SOL     OW12272   4.105   0.671   4.204
 4046SOL    HW112273   4.117   0.572   4.213
 4046SOL    HW212274   4.010   0.694   4.222
 4047SOL     OW12275   4.350   0.112   3.818
 4047SOL    HW112276   4.387   0.025   3.850
 4047SOL    HW212277   4.277   0.095   3.751
 4048SOL     OW12278   4.462   0.280   5.452
 4048SOL    HW112279   4.555   0.249   5.471
 4048SOL    HW212280   4.397   0.230   5.509
 4049SOL     OW12281   4.575   1.507   4.917
 4049SOL    HW112282   4.552   1.479   4.823
 4049SOL    HW212283   4.635   1.438   4.958
 4050SOL     OW12284   5.042   0.606   5.187
 4050SOL    HW112285   5.086   0.599   5.276
 4050SOL    HW212286   5.077   0.686   5.138
 4051SOL     OW12287   4.530   1.375   4.662
 4051SOL    HW112288   4.626   1.375   4.632
 4051SOL    HW212289   4.470   1.388   4.583
 4052SOL     OW12290   4.655   0.523   4.601
 4052SOL    HW112291   4.635   0.510   4.504
 4052SOL    HW212292   4.678   0.435   4.643
 4053SOL     OW12293   4.285   0.035   4.188
 4053SOL    HW112294   4.204   0.029   4.247
 4053SOL    HW212295   4.274   0.111   4.124
 4054SOL     OW12296   5.150   1.216   3.786
 4054SOL    HW112297   5.177   1.151   3.856
 4054SOL    HW212298   5.063   1.258   3.811
 4055SOL     OW12299   3.999   0.076   4.011
 4055SOL    HW112300   4.075   0.141   4.004
 4055SOL    HW212301   4.003   0.030   4.099
 4056SOL     OW12302   4.681   0.260   4.165
 4056SOL    HW112303   4.645   0.292   4.077
 4056SOL    HW212304   4.780   0.270   4.166
 4057SOL     OW12305   4.781   0.704   5.176
 4057SOL    HW112306   4.705   0.640   5.183
 4057SOL    HW212307   4.867   0.655   5.177
 4058SOL     OW12308   4.934   1.601   4.528
 4058SOL    HW112309   4.952   1.662   4.451
 4058SOL    HW212310   5.010   1.605   4.592
 4059SOL     OW12311   4.214   1.156   4.420
 4059SOL    HW112312   4.157   1.130   4.498
 4059SOL    HW212313   4.161   1.150   4.336
 4060SOL     OW12314   4.979   1.802   4.332
 4060SOL    HW112315   5.034   1.866   4.278
 4060SOL    HW212316   4.899   1.850   4.369
 4061SOL     OW12317   4.748   0.502   3.774
 4061SOL    HW112318   4.707   0.590   3.750
 4061SOL    HW212319   4.817   0.515   3.845
 4062SOL     OW12320   3.839   0.547   5.138
 4062SOL    HW112321   3.926   0.551   5.089
 4062SOL    HW212322   3.844   0.605   5.220
 4063SOL     OW12323   4.294   0.234   4.930
 4063SOL    HW112324   4.331   0.215   5.021
 4063SOL    HW212325   4.196   0.214   4.928
 4064SOL     OW12326   4.606   0.469   4.339
 4064SOL    HW112327   4.561   0.526   4.270
 4064SOL    HW212328   4.635   0.382   4.298
 4065SOL     OW12329   4.712   0.061   4.498
 4065SOL    HW112330   4.656   0.076   4.417
 4065SOL    HW212331   4.697   5.486   4.532
 4066SOL     OW12332   5.129   1.104   4.606
 4066SOL    HW112333   5.077   1.028   4.643
 4066SOL    HW212334   5.111   1.113   4.508
 4067SOL     OW12335   5.156   0.639   4.693
 4067SOL    HW112336   5.097   0.559   4.687
 4067SOL    HW212337   5.226   0.623   4.763
 4068SOL     OW12338   5.487   0.804   4.124
 4068SOL    HW112339   0.044   0.772   4.183
 4068SOL    HW212340   5.479   0.743   4.045
 4069SOL     OW12341   4.230   1.431   3.871
 4069SOL    HW112342   4.153   1.396   3.925
 4069SOL    HW212343   4.228   1.389   3.780
 4070SOL     OW12344   5.101   0.578   3.779
 4070SOL    HW112345   5.054   0.548   3.862
 4070SOL    HW212346   5.200   0.568   3.791
 4071SOL     OW12347   4.218   0.248   4.014
 4071SOL    HW112348   4.273   0.204   3.942
 4071SOL    HW212349   4.193   0.340   3.985
 4072SOL     OW12350   5.396   1.164   5.256
 4072SOL    HW112351   5.495   1.169   5.240
 4072SOL    HW212352   5.374   1.214   5.340
 4073SOL     OW12353   4.723   1.315   5.050
 4073SOL    HW112354   4.635   1.290   5.089
 4073SOL    HW212355   4.796   1.295   5.115
 4074SOL     OW12356   4.885   1.271   4.837
 4074SOL    HW112357   4.815   1.283   4.907
 4074SOL    HW212358   4.847   1.294   4.747
 4075SOL     OW12359   5.324   1.089   4.808
 4075SOL    HW112360   5.308   1.149   4.886
 4075SOL    HW212361   5.246   1.092   4.746
 4076SOL     OW12362   4.627   0.109   5.104
 4076SOL    HW112363   4.657   0.075   5.015
 4076SOL    HW212364   4.707   0.133   5.159
 4077SOL     OW12365   4.444   1.049   4.113
 4077SOL    HW112366   4.430   1.018   4.207
 4077SOL    HW212367   4.517   0.995   4.071
 4078SOL     OW12368   4.176   0.823   4.984
 4078SOL    HW112369   4.247   0.827   5.054
 4078SOL    HW212370   4.132   0.733   4.986
 4079SOL     OW12371   4.970   0.358   5.081
 4079SOL    HW112372   5.001   0.445   5.119
 4079SOL    HW212373   4.888   0.372   5.027
 4080SOL     OW12374   3.789   1.566   5.107
 4080SOL    HW112375   3.743   1.635   5.050
 4080SOL    HW212376   3.888   1.575   5.096
 4081SOL     OW12377   4.045   1.132   4.200
 4081SOL    HW112378   4.046   1.207   4.135
 4081SOL    HW212379   4.037   1.045   4.152
 4082SOL     OW12380   4.252   0.512   4.600
 4082SOL    HW112381   4.256   0.569   4.518
 4082SOL    HW212382   4.322   0.541   4.664
 4083SOL     OW12383   4.962   1.381   4.128
 4083SOL    HW112384   5.027   1.451   4.157
 4083SOL    HW212385   4.870   1.405   4.159
 4084SOL     OW12386   5.050   1.487   4.848
 4084SOL    HW112387   5.101   1.495   4.934
 4084SOL    HW212388   4.990   1.407   4.853
 4085SOL     OW12389   5.313   0.612   4.248
 4085SOL    HW112390   5.245   0.646   4.312
 4085SOL    HW212391   5.354   0.689   4.200
 4086SOL     OW12392   4.058   1.537   5.028
 4086SOL    HW112393   4.049   1.482   4.945
 4086SOL    HW212394   4.155   1.558   5.043
 4087SOL     OW12395   4.197   0.744   5.368
 4087SOL    HW112396   4.248   0.781   5.291
 4087SOL    HW212397   4.244   0.663   5.404
 4088SOL     OW12398   5.346   0.702   5.442
 4088SOL    HW112399   5.255   0.739   5.461
 4088SOL    HW212400   5.391   0.759   5.373
 4089SOL     OW12401   4.314   0.877   4.752
 4089SOL    HW112402   4.349   0.971   4.749
 4089SOL    HW212403   4.261   0.865   4.836
 4090SOL     OW12404   5.005   0.874   4.710
 4090SOL    HW112405   4.910   0.846   4.693
 4090SOL    HW212406   5.064   0.794   4.709
 4091SOL     OW12407   4.929   0.514   3.989
 4091SOL    HW112408   4.944   0.435   4.048
 4091SOL    HW212409   4.885   0.587   4.041
 4092SOL     OW12410   4.026   0.168   4.937
 4092SOL    HW112411   3.994   0.211   5.022
 4092SOL    HW212412   4.004   0.070   4.940
 4093SOL     OW12413   3.802   1.314   4.985
 4093SOL    HW112414   3.817   1.243   5.054
 4093SOL    HW212415   3.784   1.401   5.032
 4094SOL     OW12416   4.445   0.633   4.755
 4094SOL    HW112417   4.517   0.614   4.688
 4094SOL    HW212418   4.408   0.724   4.740
 4095SOL     OW12419   4.038   0.056   4.319
 4095SOL    HW112420   3.993   0.143   4.333
 4095SOL    HW212421   4.067   0.018   4.407
 4096SOL     OW12422   5.335   0.407   4.064
 4096SOL    HW112423   5.364   0.327   4.117
 4096SOL    HW212424   5.303   0.478   4.127
 4097SOL     OW12425   4.744   0.769   4.683
 4097SOL    HW112426   4.723   0.785   4.780
 4097SOL    HW212427   4.721   0.675   4.660
 4098SOL     OW12428   4.574   1.557   5.440
 4098SOL    HW112429   4.618   1.611   5.368
 4098SOL    HW212430   4.502   1.500   5.400
 4099SOL     OW12431   4.115   0.972   5.508
 4099SOL    HW112432   4.157   0.965   0.082
 4099SOL    HW212433   4.140   0.892   5.454
 4100SOL     OW12434   5.290   0.286   3.821
 4100SOL    HW112435   5.221   0.218   3.844
 4100SOL    HW212436   5.308   0.344   3.900
 4101SOL     OW12437   4.994   0.825   3.735
 4101SOL    HW112438   5.029   0.732   3.746
 4101SOL    HW212439   5.022   0.861   3.646
 4102SOL     OW12440   4.794   1.365   4.592
 4102SOL    HW112441   4.807   1.284   4.535
 4102SOL    HW212442   4.847   1.441   4.554
 4103SOL     OW12443   4.049   0.801   4.658
 4103SOL    HW112444   4.148   0.814   4.659
 4103SOL    HW212445   4.029   0.706   4.683
 4104SOL     OW12446   4.010   0.517   4.722
 4104SOL    HW112447   3.963   0.429   4.709
 4104SOL    HW212448   4.097   0.515   4.672
 4105SOL     OW12449   4.849   0.168   5.260
 4105SOL    HW112450   4.835   0.219   5.345
 4105SOL    HW212451   4.904   0.222   5.197
 4106SOL     OW12452   3.757   1.285   3.912
 4106SOL    HW112453   3.665   1.313   3.887
 4106SOL    HW212454   3.755   1.192   3.949
 4107SOL     OW12455   3.824   1.770   4.686
 4107SOL    HW112456   3.779   1.698   4.633
 4107SOL    HW212457   3.915   1.786   4.649
 4108SOL     OW12458   4.212   1.554   4.617
 4108SOL    HW112459   4.286   1.614   4.650
 4108SOL    HW212460   4.247   1.493   4.546
 4109SOL     OW12461   4.661   0.800   4.943
 4109SOL    HW112462   4.718   0.776   5.022
 4109SOL    HW212463   4.578   0.744   4.943
 4110SOL     OW12464   3.768   0.594   4.863
 4110SOL    HW112465   3.848   0.575   4.806
 4110SOL    HW212466   3.793   0.585   4.959
 4111SOL     OW12467   4.538   0.580   4.087
 4111SOL    HW112468   4.541   0.496   4.032
 4111SOL    HW212469   4.456   0.632   4.062
 4112SOL     OW12470   4.006   1.558   5.421
 4112SOL    HW112471   3.933   1.554   5.490
 4112SOL    HW212472   4.007   1.473   5.369
 4113SOL     OW12473   4.475   0.445   4.949
 4113SOL    HW112474   4.410   0.370   4.938
 4113SOL    HW212475   4.458   0.514   4.879
 4114SOL     OW12476   4.673   1.652   5.142
 4114SOL    HW112477   4.635   1.610   5.060
 4114SOL    HW212478   4.663   1.751   5.137
 4115SOL     OW12479   4.150   0.495   3.907
 4115SOL    HW112480   4.225   0.557   3.931
 4115SOL    HW212481   4.063   0.544   3.915
 4116SOL     OW12482   3.868   1.125   5.194
 4116SOL    HW112483   3.856   1.069   5.275
 4116SOL    HW212484   3.896   1.068   5.117
 4117SOL     OW12485   5.008   1.040   4.931
 4117SOL    HW112486   5.007   0.974   4.856
 4117SOL    HW212487   4.970   1.127   4.899
 4118SOL     OW12488   5.042   0.852   4.008
 4118SOL    HW112489   4.965   0.820   4.063
 4118SOL    HW212490   5.019   0.846   3.911
 4119SOL     OW12491   5.445   1.715   4.854
 4119SOL    HW112492   0.006   1.734   4.794
 4119SOL    HW212493   5.422   1.618   4.848
 4120SOL     OW12494   4.980   1.751   4.814
 4120SOL    HW112495   5.068   1.795   4.795
 4120SOL    HW212496   4.995   1.654   4.832
 4121SOL     OW12497   3.850   1.235   4.731
 4121SOL    HW112498   3.827   1.265   4.823
 4121SOL    HW212499   3.775   1.180   4.693
 4122SOL     OW12500   5.426   0.191   4.216
 4122SOL    HW112501   5.474   0.158   4.135
 4122SOL    HW212502   5.447   0.131   4.294
 4123SOL     OW12503   5.126   1.593   4.209
 4123SOL    HW112504   5.183   1.630   4.136
 4123SOL    HW212505   5.067   1.665   4.246
 4124SOL     OW12506   4.998   0.948   4.367
 4124SOL    HW112507   5.071   0.884   4.390
 4124SOL    HW212508   5.032   1.016   4.303
 4125SOL     OW12509   4.472   1.258   5.135
 4125SOL    HW112510   4.443   1.312   5.214
 4125SOL    HW212511   4.402   1.264   5.064
 4126SOL     OW12512   4.399   1.644   3.878
 4126SOL    HW112513   4.415   1.667   3.782
 4126SOL    HW212514   4.347   1.559   3.884
 4127SOL     OW12515   5.369   1.714   5.120
 4127SOL    HW112516   5.394   1.719   5.024
 4127SOL    HW212517   5.378   1.804   5.162
 4128SOL     OW12518   3.934   0.298   4.414
 4128SOL    HW112519   3.851   0.350   4.396
 4128SOL    HW212520   3.943   0.282   4.512
 4129SOL     OW12521   4.930   1.593   3.774
 4129SOL    HW112522   4.928   1.500   3.810
 4129SOL    HW212523   4.851   1.608   3.714
 4130SOL     OW12524   4.565   1.005   5.142
 4130SOL    HW112525   4.608   0.980   5.055
 4130SOL    HW212526   4.532   1.099   5.137
 4131SOL     OW12527   4.638   0.900   3.996
 4131SOL    HW112528   4.698   0.947   3.931
 4131SOL    HW212529   4.692   0.833   4.048
 4132SOL     OW12530   5.188   1.691   3.770
 4132SOL    HW112531   5.096   1.652   3.759
 4132SOL    HW212532   5.244   1.667   3.691
 4133SOL     OW12533   4.030   1.344   5.246
 4133SOL    HW112534   4.037   1.403   5.166
 4133SOL    HW212535   3.972   1.265   5.225
 4134SOL     OW12536   5.277   1.266   5.023
 4134SOL    HW112537   5.320   1.221   5.102
 4134SOL    HW212538   5.238   1.353   5.052
 4135SOL     OW12539   4.807   1.124   4.469
 4135SOL    HW112540   4.727   1.075   4.502
 4135SOL    HW212541   4.871   1.060   4.427
 4136SOL     OW12542   4.763   0.232   4.707
 4136SOL    HW112543   4.749   0.192   4.616
 4136SOL    HW212544   4.749   0.163   4.777
 4137SOL     OW12545   4.328   1.497   4.185
 4137SOL    HW112546   4.384   1.437   4.128
 4137SOL    HW212547   4.243   1.519   4.137
 4138SOL     OW12548   4.012   1.342   4.018
 4138SOL    HW112549   3.921   1.327   3.979
 4138SOL    HW212550   4.003   1.396   4.102
 4139SOL     OW12551   3.848   0.970   5.421
 4139SOL    HW112552   3.771   0.969   5.484
 4139SOL    HW212553   3.933   0.983   5.473
 4140SOL     OW12554   4.397   0.219   5.192
 4140SOL    HW112555   4.479   0.177   5.154
 4140SOL    HW212556   4.414   0.245   5.287
 4141SOL     OW12557   3.796   0.343   3.724
 4141SOL    HW112558   3.720   0.325   3.661
 4141SOL    HW212559   3.832   0.435   3.707
 4142SOL     OW12560   5.141   0.834   5.069
 4142SOL    HW112561   5.087   0.910   5.034
 4142SOL    HW212562   5.238   0.850   5.049
 4143SOL     OW12563   3.761   0.213   3.975
 4143SOL    HW112564   3.763   0.262   3.888
 4143SOL    HW212565   3.845   0.161   3.986
 4144SOL     OW12566   4.902   1.332   3.860
 4144SOL    HW112567   4.806   1.304   3.850
 4144SOL    HW212568   4.925   1.339   3.957
 4145SOL     OW12569   4.376   0.812   5.169
 4145SOL    HW112570   4.438   0.890   5.166
 4145SOL    HW212571   4.429   0.727   5.174
 4146SOL     OW12572   5.225   1.859   4.769
 4146SOL    HW112573   5.268   1.927   4.709
 4146SOL    HW212574   5.294   1.795   4.802
 4147SOL     OW12575   4.407   0.556   5.428
 4147SOL    HW112576   4.466   0.614   5.484
 4147SOL    HW212577   4.424   0.460   5.450
 4148SOL     OW12578   4.072   1.787   5.296
 4148SOL    HW112579   3.990   1.845   5.301
 4148SOL    HW212580   4.056   1.702   5.345
 4149SOL     OW12581   5.410   0.875   4.978
 4149SOL    HW112582   5.426   0.788   4.931
 4149SOL    HW212583   5.387   0.946   4.911
 4150SOL     OW12584   4.954   0.315   4.182
 4150SOL    HW112585   5.016   0.236   4.186
 4150SOL    HW212586   4.963   0.368   4.266
 4151SOL     OW12587   4.279   0.718   4.415
 4151SOL    HW112588   4.331   0.802   4.402
 4151SOL    HW212589   4.217   0.705   4.338
 4152SOL     OW12590   5.388   0.364   5.382
 4152SOL    HW112591   5.388   0.460   5.356
 4152SOL    HW212592   5.326   0.350   5.459
 4153SOL     OW12593   5.456   0.879   5.253
 4153SOL    HW112594   5.429   0.972   5.277
 4153SOL    HW212595   5.446   0.865   5.155
 4154SOL     OW12596   4.605   1.348   3.810
 4154SOL    HW112597   4.564   1.357   3.901
 4154SOL    HW212598   4.614   1.438   3.768
 4155SOL     OW12599   4.404   1.736   4.672
 4155SOL    HW112600   4.375   1.831   4.667
 4155SOL    HW212601   4.503   1.730   4.662
 4156SOL     OW12602   4.595   0.987   4.587
 4156SOL    HW112603   4.645   0.909   4.624
 4156SOL    HW212604   4.543   1.031   4.660
 4157SOL     OW12605   4.798   1.002   3.807
 4157SOL    HW112606   4.765   1.055   3.729
 4157SOL    HW212607   4.871   0.941   3.777
 4158SOL     OW12608   0.032   1.557   4.542
 4158SOL    HW112609   5.458   1.556   4.502
 4158SOL    HW212610   0.072   1.465   4.538
 4159SOL     OW12611   3.880   1.249   4.402
 4159SOL    HW112612   3.907   1.213   4.491
 4159SOL    HW212613   3.930   1.200   4.330
 4160SOL     OW12614   4.367   1.414   5.335
 4160SOL    HW112615   4.311   1.348   5.385
 4160SOL    HW212616   4.308   1.483   5.294
 4161SOL     OW12617   5.402   0.168   4.961
 4161SOL    HW112618   5.426   0.077   4.925
 4161SOL    HW212619   5.470   0.235   4.930
 4162SOL     OW12620   4.124   0.405   4.240
 4162SOL    HW112621   4.165   0.333   4.185
 4162SOL    HW212622   4.063   0.364   4.308
 4163SOL     OW12623   5.380   1.456   4.829
 4163SOL    HW112624   5.327   1.427   4.750
 4163SOL    HW212625   5.385   1.382   4.896
 4164SOL     OW12626   4.069   0.572   4.991
 4164SOL    HW112627   4.125   0.511   5.047
 4164SOL    HW212628   4.064   0.536   4.898
 4165SOL     OW12629   4.551   1.594   4.396
 4165SOL    HW112630   4.520   1.665   4.333
 4165SOL    HW212631   4.479   1.526   4.409
 4166SOL     OW12632   5.161   0.288   4.886
 4166SOL    HW112633   5.242   0.242   4.922
 4166SOL    HW212634   5.096   0.305   4.959
 4167SOL     OW12635   4.724   5.517   4.869
 4167SOL    HW112636   4.665   5.437   4.866
 4167SOL    HW212637   4.819   5.489   4.856
 4168SOL     OW12638   4.507   1.322   4.067
 4168SOL    HW112639   4.485   1.226   4.085
 4168SOL    HW212640   4.586   1.349   4.122
 4169SOL     OW12641   4.335   1.565   5.040
 4169SOL    HW112642   4.330   1.656   5.083
 4169SOL    HW212643   4.422   1.556   4.993
 4170SOL     OW12644   5.108   0.099   3.893
 4170SOL    HW112645   5.135   0.022   3.835
 4170SOL    HW212646   5.010   0.094   3.912
 4171SOL     OW12647   4.975   0.468   4.409
 4171SOL    HW112648   4.930   0.557   4.401
 4171SOL    HW212649   4.986   0.444   4.505
 4172SOL     OW12650   5.242   0.202   4.629
 4172SOL    HW112651   5.221   0.230   4.723
 4172SOL    HW212652   5.198   0.266   4.565
 4173SOL     OW12653   3.763   1.028   4.029
 4173SOL    HW112654   3.860   1.012   4.012
 4173SOL    HW212655   3.717   0.942   4.048
 4174SOL     OW12656   4.620   1.693   4.048
 4174SOL    HW112657   4.542   1.672   3.989
 4174SOL    HW212658   4.593   1.762   4.115
 4175SOL     OW12659   3.889   2.416   0.056
 4175SOL    HW112660   3.807   2.444   0.106
 4175SOL    HW212661   3.900   2.474   5.493
 4176SOL     OW12662   3.935   2.142   0.987
 4176SOL    HW112663   3.974   2.109   1.073
 4176SOL    HW212664   3.844   2.102   0.975
 4177SOL     OW12665   3.703   2.279   0.635
 4177SOL    HW112666   3.617   2.298   0.683
 4177SOL    HW212667   3.686   2.215   0.560
 4178SOL     OW12668   4.297   3.180   1.224
 4178SOL    HW112669   4.214   3.176   1.168
 4178SOL    HW212670   4.315   3.275   1.250
 4179SOL     OW12671   5.284   3.448   0.696
 4179SOL    HW112672   5.243   3.394   0.770
 4179SOL    HW212673   5.230   3.437   0.613
 4180SOL     OW12674   4.828   2.587   0.676
 4180SOL    HW112675   4.887   2.664   0.651
 4180SOL    HW212676   4.790   2.603   0.767
 4181SOL     OW12677   5.449   2.487   0.172
 4181SOL    HW112678   5.407   2.512   0.085
 4181SOL    HW212679   5.407   2.403   0.207
 4182SOL     OW12680   4.442   2.994   1.059
 4182SOL    HW112681   4.384   3.025   1.134
 4182SOL    HW212682   4.480   3.073   1.011
 4183SOL     OW12683   4.615   2.590   1.829
 4183SOL    HW112684   4.606   2.651   1.907
 4183SOL    HW212685   4.634   2.643   1.747
 4184SOL     OW12686   4.423   2.834   0.656
 4184SOL    HW112687   4.493   2.836   0.728
 4184SOL    HW212688   4.353   2.902   0.677
 4185SOL     OW12689   4.434   3.020   1.842
 4185SOL    HW112690   4.492   3.089   1.884
 4185SOL    HW212691   4.360   3.065   1.792
 4186SOL     OW12692   4.072   3.249   1.067
 4186SOL    HW112693   3.999   3.196   1.025
 4186SOL    HW212694   4.116   3.307   0.997
 4187SOL     OW12695   5.169   3.352   1.383
 4187SOL    HW112696   5.235   3.423   1.405
 4187SOL    HW212697   5.086   3.366   1.437
 4188SOL     OW12698   4.206   2.220   1.435
 4188SOL    HW112699   4.286   2.164   1.454
 4188SOL    HW212700   4.125   2.178   1.474
 4189SOL     OW12701   3.956   3.594   0.462
 4189SOL    HW112702   3.975   3.672   0.522
 4189SOL    HW212703   4.032   3.581   0.399
 4190SOL     OW12704   4.840   3.209   1.705
 4190SOL    HW112705   4.897   3.198   1.787
 4190SOL    HW212706   4.785   3.126   1.692
 4191SOL     OW12707   3.949   3.328   0.524
 4191SOL    HW112708   3.938   3.427   0.524
 4191SOL    HW212709   3.905   3.290   0.605
 4192SOL     OW12710   4.071   2.939   0.919
 4192SOL    HW112711   4.061   2.841   0.931
 4192SOL    HW212712   3.993   2.986   0.958
 4193SOL     OW12713   4.273   3.683   1.422
 4193SOL    HW112714   4.196   3.659   1.482
 4193SOL    HW212715   4.322   3.761   1.461
 4194SOL     OW12716   4.291   2.823   0.212
 4194SOL    HW112717   4.332   2.850   0.125
 4194SOL    HW212718   4.347   2.858   0.287
 4195SOL     OW12719   5.399   1.946   1.503
 4195SOL    HW112720   5.416   1.985   1.413
 4195SOL    HW212721   5.345   2.010   1.558
 4196SOL     OW12722   3.822   2.531   0.588
 4196SOL    HW112723   3.784   2.441   0.607
 4196SOL    HW212724   3.822   2.586   0.672
 4197SOL     OW12725   3.787   3.402   0.073
 4197SOL    HW112726   3.773   3.311   0.111
 4197SOL    HW212727   3.770   3.470   0.144
 4198SOL     OW12728   5.418   2.768   0.644
 4198SOL    HW112729   5.503   2.735   0.685
 4198SOL    HW212730   5.426   2.764   0.545
 4199SOL     OW12731   3.831   2.631   1.561
 4199SOL    HW112732   3.911   2.687   1.540
 4199SOL    HW212733   3.748   2.685   1.545
 4200SOL     OW12734   4.351   3.262   0.716
 4200SOL    HW112735   4.314   3.169   0.724
 4200SOL    HW212736   4.337   3.296   0.623
 4201SOL     OW12737   4.966   3.069   1.437
 4201SOL    HW112738   4.994   3.002   1.368
 4201SOL    HW212739   5.029   3.067   1.514
 4202SOL     OW12740   4.542   1.877   0.529
 4202SOL    HW112741   4.592   1.960   0.503
 4202SOL    HW212742   4.444   1.894   0.522
 4203SOL     OW12743   3.932   2.803   1.328
 4203SOL    HW112744   4.022   2.767   1.303
 4203SOL    HW212745   3.866   2.779   1.258
 4204SOL     OW12746   5.262   2.941   0.279
 4204SOL    HW112747   5.201   2.862   0.279
 4204SOL    HW212748   5.356   2.910   0.266
 4205SOL     OW12749   4.916   3.678   1.639
 4205SOL    HW112750   4.915   3.747   1.566
 4205SOL    HW212751   4.937   3.589   1.600
 4206SOL     OW12752   4.088   2.126   1.883
 4206SOL    HW112753   4.127   2.206   1.929
 4206SOL    HW212754   3.995   2.146   1.855
 4207SOL     OW12755   5.151   3.295   0.889
 4207SOL    HW112756   5.110   3.312   0.978
 4207SOL    HW212757   5.139   3.198   0.865
 4208SOL     OW12758   5.345   3.683   0.530
 4208SOL    HW112759   5.355   3.633   0.444
 4208SOL    HW212760   5.343   3.618   0.606
 4209SOL     OW12761   4.274   2.547   0.279
 4209SOL    HW112762   4.291   2.640   0.247
 4209SOL    HW212763   4.207   2.549   0.353
 4210SOL     OW12764   5.013   2.270   0.942
 4210SOL    HW112765   4.921   2.230   0.940
 4210SOL    HW212766   5.072   2.213   1.000
 4211SOL     OW12767   5.324   3.532   0.296
 4211SOL    HW112768   5.414   3.498   0.267
 4211SOL    HW212769   5.268   3.550   0.215
 4212SOL     OW12770   4.521   2.436   1.444
 4212SOL    HW112771   4.488   2.411   1.535
 4212SOL    HW212772   4.494   2.366   1.378
 4213SOL     OW12773   5.105   2.350   1.664
 4213SOL    HW112774   5.108   2.393   1.754
 4213SOL    HW212775   5.167   2.271   1.662
 4214SOL     OW12776   4.667   2.736   1.595
 4214SOL    HW112777   4.724   2.671   1.544
 4214SOL    HW212778   4.610   2.788   1.531
 4215SOL     OW12779   4.735   2.240   1.194
 4215SOL    HW112780   4.639   2.250   1.220
 4215SOL    HW212781   4.740   2.196   1.104
 4216SOL     OW12782   4.734   2.545   0.417
 4216SOL    HW112783   4.760   2.553   0.513
 4216SOL    HW212784   4.648   2.494   0.409
 4217SOL     OW12785   3.823   2.704   0.799
 4217SOL    HW112786   3.912   2.692   0.843
 4217SOL    HW212787   3.768   2.770   0.852
 4218SOL     OW12788   3.826   3.758   1.619
 4218SOL    HW112789   3.833   3.734   1.716
 4218SOL    HW212790   3.732   3.744   1.588
 4219SOL     OW12791   4.603   2.154   0.219
 4219SOL    HW112792   4.638   2.229   0.163
 4219SOL    HW212793   4.609   2.068   0.168
 4220SOL     OW12794   5.404   2.416   1.803
 4220SOL    HW112795   5.375   2.506   1.771
 4220SOL    HW212796   5.444   2.365   1.727
 4221SOL     OW12797   5.122   3.015   0.521
 4221SOL    HW112798   5.181   2.997   0.443
 4221SOL    HW212799   5.060   3.091   0.501
 4222SOL     OW12800   4.282   1.991   0.927
 4222SOL    HW112801   4.289   2.015   1.024
 4222SOL    HW212802   4.282   2.074   0.872
 4223SOL     OW12803   4.707   3.328   0.488
 4223SOL    HW112804   4.687   3.400   0.422
 4223SOL    HW212805   4.672   3.355   0.578
 4224SOL     OW12806   4.082   3.662   0.871
 4224SOL    HW112807   4.122   3.570   0.875
 4224SOL    HW212808   4.149   3.729   0.902
 4225SOL     OW12809   5.485   2.940   0.858
 4225SOL    HW112810   5.438   2.901   0.779
 4225SOL    HW212811   5.421   2.943   0.936
 4226SOL     OW12812   4.932   3.409   1.520
 4226SOL    HW112813   4.913   3.330   1.578
 4226SOL    HW212814   4.847   3.441   1.478
 4227SOL     OW12815   4.045   2.805   0.353
 4227SOL    HW112816   4.130   2.821   0.304
 4227SOL    HW212817   4.047   2.714   0.395
 4228SOL     OW12818   5.194   2.626   0.716
 4228SOL    HW112819   5.193   2.584   0.807
 4228SOL    HW212820   5.276   2.681   0.706
 4229SOL     OW12821   4.214   3.158   1.730
 4229SOL    HW112822   4.189   3.165   1.633
 4229SOL    HW212823   4.132   3.141   1.784
 4230SOL     OW12824   4.836   3.652   0.219
 4230SOL    HW112825   4.765   3.612   0.277
 4230SOL    HW212826   4.873   3.580   0.159
 4231SOL     OW12827   3.951   2.122   1.493
 4231SOL    HW112828   3.898   2.205   1.511
 4231SOL    HW212829   3.907   2.044   1.537
 4232SOL     OW12830   4.205   3.585   0.314
 4232SOL    HW112831   4.244   3.653   0.376
 4232SOL    HW212832   4.276   3.550   0.253
 4233SOL     OW12833   5.120   1.966   0.460
 4233SOL    HW112834   5.113   1.958   0.361
 4233SOL    HW212835   5.208   1.929   0.490
 4234SOL     OW12836   3.947   3.650   1.204
 4234SOL    HW112837   4.000   3.572   1.235
 4234SOL    HW212838   3.912   3.633   1.112
 4235SOL     OW12839   4.683   3.561   0.898
 4235SOL    HW112840   4.773   3.521   0.909
 4235SOL    HW212841   4.634   3.515   0.825
 4236SOL     OW12842   4.076   2.549   0.479
 4236SOL    HW112843   4.106   2.454   0.487
 4236SOL    HW212844   3.983   2.558   0.515
 4237SOL     OW12845   5.244   2.108   1.673
 4237SOL    HW112846   5.266   2.115   1.771
 4237SOL    HW212847   5.164   2.048   1.662
 4238SOL     OW12848   4.380   1.987   0.087
 4238SOL    HW112849   4.465   1.934   0.078
 4238SOL    HW212850   4.307   1.940   0.038
 4239SOL     OW12851   4.492   2.133   1.751
 4239SOL    HW112852   4.579   2.083   1.749
 4239SOL    HW212853   4.432   2.092   1.820
 4240SOL     OW12854   4.584   3.374   1.205
 4240SOL    HW112855   4.557   3.342   1.114
 4240SOL    HW212856   4.644   3.306   1.248
 4241SOL     OW12857   5.035   2.461   1.424
 4241SOL    HW112858   5.066   2.431   1.514
 4241SOL    HW212859   5.074   2.551   1.403
 4242SOL     OW12860   4.527   3.235   0.948
 4242SOL    HW112861   4.621   3.233   0.914
 4242SOL    HW212862   4.464   3.251   0.873
 4243SOL     OW12863   4.646   2.369   0.882
 4243SOL    HW112864   4.619   2.360   0.786
 4243SOL    HW212865   4.681   2.281   0.915
 4244SOL     OW12866   4.278   1.930   0.480
 4244SOL    HW112867   4.198   1.929   0.540
 4244SOL    HW212868   4.273   2.008   0.419
 4245SOL     OW12869   5.049   3.002   0.053
 4245SOL    HW112870   5.131   2.979   0.106
 4245SOL    HW212871   5.004   3.082   0.093
 4246SOL     OW12872   4.018   1.895   0.201
 4246SOL    HW112873   4.057   1.960   0.135
 4246SOL    HW212874   4.088   1.828   0.225
 4247SOL     OW12875   4.683   2.104   0.471
 4247SOL    HW112876   4.650   2.124   0.379
 4247SOL    HW212877   4.781   2.125   0.476
 4248SOL     OW12878   4.774   2.556   1.420
 4248SOL    HW112879   4.700   2.489   1.431
 4248SOL    HW212880   4.862   2.509   1.419
 4249SOL     OW12881   4.929   3.440   0.786
 4249SOL    HW112882   4.944   3.514   0.720
 4249SOL    HW212883   5.016   3.404   0.817
 4250SOL     OW12884   4.227   3.018   0.713
 4250SOL    HW112885   4.179   2.991   0.797
 4250SOL    HW212886   4.162   3.024   0.638
 4251SOL     OW12887   4.964   3.659   0.610
 4251SOL    HW112888   5.018   3.727   0.560
 4251SOL    HW212889   4.886   3.704   0.653
 4252SOL     OW12890   4.693   2.348   0.055
 4252SOL    HW112891   4.657   2.439   0.039
 4252SOL    HW212892   4.775   2.354   0.112
 4253SOL     OW12893   3.838   2.405   1.404
 4253SOL    HW112894   3.932   2.404   1.370
 4253SOL    HW212895   3.826   2.483   1.465
 4254SOL     OW12896   4.290   2.044   1.194
 4254SOL    HW112897   4.319   1.969   1.253
 4254SOL    HW212898   4.193   2.064   1.210
 4255SOL     OW12899   4.581   2.314   0.624
 4255SOL    HW112900   4.527   2.363   0.556
 4255SOL    HW212901   4.621   2.232   0.583
 4256SOL     OW12902   4.741   1.913   0.737
 4256SOL    HW112903   4.672   1.912   0.664
 4256SOL    HW212904   4.721   1.841   0.803
 4257SOL     OW12905   5.118   3.028   0.824
 4257SOL    HW112906   5.025   2.994   0.837
 4257SOL    HW212907   5.143   3.020   0.727
 4258SOL     OW12908   5.179   2.503   0.968
 4258SOL    HW112909   5.121   2.422   0.964
 4258SOL    HW212910   5.250   2.491   1.038
 4259SOL     OW12911   5.484   2.666   0.374
 4259SOL    HW112912   0.034   2.625   0.436
 4259SOL    HW212913   5.470   2.606   0.296
 4260SOL     OW12914   4.228   3.266   0.153
 4260SOL    HW112915   4.148   3.251   0.211
 4260SOL    HW212916   4.220   3.210   0.071
 4261SOL     OW12917   5.042   2.376   0.047
 4261SOL    HW112918   4.985   2.376   0.129
 4261SOL    HW212919   5.106   2.300   0.050
 4262SOL     OW12920   4.264   2.135   0.299
 4262SOL    HW112921   4.316   2.085   0.230
 4262SOL    HW212922   4.211   2.207   0.254
 4263SOL     OW12923   5.433   3.085   1.575
 4263SOL    HW112924   0.012   3.070   1.554
 4263SOL    HW212925   5.417   3.182   1.591
 4264SOL     OW12926   4.735   3.183   1.334
 4264SOL    HW112927   4.651   3.160   1.383
 4264SOL    HW212928   4.814   3.149   1.386
 4265SOL     OW12929   5.355   3.500   1.697
 4265SOL    HW112930   5.357   3.509   1.598
 4265SOL    HW212931   5.448   3.504   1.733
 4266SOL     OW12932   4.874   3.125   1.108
 4266SOL    HW112933   4.812   3.143   1.184
 4266SOL    HW212934   4.831   3.152   1.022
 4267SOL     OW12935   5.295   2.945   1.056
 4267SOL    HW112936   5.286   3.011   1.130
 4267SOL    HW212937   5.218   2.953   0.994
 4268SOL     OW12938   4.659   1.930   1.383
 4268SOL    HW112939   4.677   1.913   1.286
 4268SOL    HW212940   4.739   1.973   1.425
 4269SOL     OW12941   4.689   2.977   1.722
 4269SOL    HW112942   4.595   2.992   1.755
 4269SOL    HW212943   4.693   2.891   1.671
 4270SOL     OW12944   4.478   2.904   0.393
 4270SOL    HW112945   4.467   2.875   0.488
 4270SOL    HW212946   4.552   2.851   0.351
 4271SOL     OW12947   4.166   2.670   1.269
 4271SOL    HW112948   4.236   2.679   1.339
 4271SOL    HW212949   4.130   2.577   1.269
 4272SOL     OW12950   4.984   2.224   1.297
 4272SOL    HW112951   5.010   2.311   1.339
 4272SOL    HW212952   4.892   2.233   1.258
 4273SOL     OW12953   3.790   3.413   1.341
 4273SOL    HW112954   3.747   3.490   1.293
 4273SOL    HW212955   3.889   3.421   1.334
 4274SOL     OW12956   4.034   3.025   0.520
 4274SOL    HW112957   4.028   3.102   0.457
 4274SOL    HW212958   4.032   2.939   0.469
 4275SOL     OW12959   4.249   2.391   0.865
 4275SOL    HW112960   4.262   2.451   0.786
 4275SOL    HW212961   4.323   2.407   0.930
 4276SOL     OW12962   4.963   3.230   0.452
 4276SOL    HW112963   5.023   3.309   0.464
 4276SOL    HW212964   4.869   3.257   0.474
 4277SOL     OW12965   5.047   3.335   1.137
 4277SOL    HW112966   5.093   3.340   1.225
 4277SOL    HW212967   4.985   3.256   1.136
 4278SOL     OW12968   5.312   2.469   0.513
 4278SOL    HW112969   5.246   2.500   0.581
 4278SOL    HW212970   5.343   2.547   0.458
 4279SOL     OW12971   4.061   3.404   1.288
 4279SOL    HW112972   4.055   3.343   1.208
 4279SOL    HW212973   4.156   3.429   1.304
 4280SOL     OW12974   4.206   2.554   1.664
 4280SOL    HW112975   4.241   2.606   1.586
 4280SOL    HW212976   4.275   2.488   1.694
 4281SOL     OW12977   5.334   2.654   1.703
 4281SOL    HW112978   5.240   2.690   1.695
 4281SOL    HW212979   5.392   2.700   1.635
 4282SOL     OW12980   4.720   1.987   1.756
 4282SOL    HW112981   4.783   2.064   1.749
 4282SOL    HW212982   4.765   1.903   1.727
 4283SOL     OW12983   4.213   1.910   1.767
 4283SOL    HW112984   4.158   1.859   1.701
 4283SOL    HW212985   4.164   1.993   1.794
 4284SOL     OW12986   4.324   2.725   1.046
 4284SOL    HW112987   4.357   2.819   1.041
 4284SOL    HW212988   4.264   2.716   1.126
 4285SOL     OW12989   5.002   2.715   1.005
 4285SOL    HW112990   4.911   2.682   0.978
 4285SOL    HW212991   5.069   2.643   0.991
 4286SOL     OW12992   4.881   2.368   0.266
 4286SOL    HW112993   4.911   2.295   0.327
 4286SOL    HW212994   4.834   2.439   0.319
 4287SOL     OW12995   4.018   2.049   1.233
 4287SOL    HW112996   3.992   2.085   1.323
 4287SOL    HW212997   3.992   1.953   1.227
 4288SOL     OW12998   3.803   3.150   1.255
 4288SOL    HW112999   3.825   3.097   1.337
 4288SOL    HW213000   3.785   3.245   1.282
 4289SOL     OW13001   4.441   2.472   1.045
 4289SOL    HW113002   4.517   2.453   0.983
 4289SOL    HW213003   4.410   2.566   1.033
 4290SOL     OW13004   4.049   1.929   0.634
 4290SOL    HW113005   4.010   2.019   0.652
 4290SOL    HW213006   4.057   1.878   0.720
 4291SOL     OW13007   5.337   2.272   0.317
 4291SOL    HW113008   5.380   2.193   0.361
 4291SOL    HW213009   5.308   2.337   0.387
 4292SOL     OW13010   4.741   2.616   0.948
 4292SOL    HW113011   4.716   2.636   1.043
 4292SOL    HW213012   4.716   2.522   0.926
 4293SOL     OW13013   4.699   3.444   1.720
 4293SOL    HW113014   4.686   3.478   1.627
 4293SOL    HW213015   4.733   3.350   1.716
 4294SOL     OW13016   4.088   2.764   1.809
 4294SOL    HW113017   4.156   2.798   1.875
 4294SOL    HW213018   4.127   2.687   1.759
 4295SOL     OW13019   5.202   2.165   0.101
 4295SOL    HW113020   5.159   2.079   0.128
 4295SOL    HW213021   5.257   2.200   0.177
 4296SOL     OW13022   5.084   2.637   0.003
 4296SOL    HW113023   5.064   2.539   0.013
 4296SOL    HW213024   4.999   2.689   0.003
 4297SOL     OW13025   4.783   3.218   0.862
 4297SOL    HW113026   4.808   3.134   0.813
 4297SOL    HW213027   4.833   3.296   0.823
 4298SOL     OW13028   4.060   2.664   0.939
 4298SOL    HW113029   4.159   2.676   0.944
 4298SOL    HW213030   4.036   2.572   0.967
 4299SOL     OW13031   4.023   2.394   1.007
 4299SOL    HW113032   3.979   2.304   0.999
 4299SOL    HW213033   4.106   2.395   0.951
 4300SOL     OW13034   4.867   2.216   1.703
 4300SOL    HW113035   4.813   2.264   1.773
 4300SOL    HW213036   4.949   2.269   1.683
 4301SOL     OW13037   4.890   2.045   1.486
 4301SOL    HW113038   4.873   2.104   1.564
 4301SOL    HW213039   4.931   2.098   1.412
 4302SOL     OW13040   3.744   3.150   0.187
 4302SOL    HW113041   3.650   3.176   0.167
 4302SOL    HW213042   3.746   3.056   0.222
 4303SOL     OW13043   3.825   3.619   0.954
 4303SOL    HW113044   3.780   3.544   0.906
 4303SOL    HW213045   3.915   3.636   0.914
 4304SOL     OW13046   4.210   3.417   0.897
 4304SOL    HW113047   4.282   3.477   0.931
 4304SOL    HW213048   4.248   3.358   0.825
 4305SOL     OW13049   4.645   2.657   1.199
 4305SOL    HW113050   4.703   2.634   1.276
 4305SOL    HW213051   4.560   2.604   1.205
 4306SOL     OW13052   3.772   2.461   1.137
 4306SOL    HW113053   3.854   2.449   1.081
 4306SOL    HW213054   3.795   2.442   1.233
 4307SOL     OW13055   3.946   2.454   1.743
 4307SOL    HW113056   4.042   2.470   1.719
 4307SOL    HW213057   3.888   2.515   1.689
 4308SOL     OW13058   5.094   2.774   1.637
 4308SOL    HW113059   5.110   2.872   1.645
 4308SOL    HW213060   5.096   2.748   1.540
 4309SOL     OW13061   4.501   2.403   0.365
 4309SOL    HW113062   4.506   2.314   0.320
 4309SOL    HW213063   4.419   2.452   0.334
 4310SOL     OW13064   3.944   3.397   1.742
 4310SOL    HW113065   3.912   3.449   1.821
 4310SOL    HW213066   3.966   3.304   1.770
 4311SOL     OW13067   4.463   2.269   1.232
 4311SOL    HW113068   4.398   2.193   1.223
 4311SOL    HW213069   4.441   2.339   1.164
 4312SOL     OW13070   4.681   3.520   1.446
 4312SOL    HW113071   4.641   3.469   1.370
 4312SOL    HW213072   4.669   3.618   1.430
 4313SOL     OW13073   4.138   2.336   0.154
 4313SOL    HW113074   4.193   2.412   0.187
 4313SOL    HW213075   4.048   2.369   0.126
 4314SOL     OW13076   3.866   3.008   1.493
 4314SOL    HW113077   3.868   2.979   1.589
 4314SOL    HW213078   3.893   2.931   1.435
 4315SOL     OW13079   5.002   2.900   1.205
 4315SOL    HW113080   5.004   2.831   1.133
 4315SOL    HW213081   4.958   2.983   1.170
 4316SOL     OW13082   5.106   2.723   0.267
 4316SOL    HW113083   5.024   2.691   0.314
 4316SOL    HW213084   5.106   2.690   0.173
 4317SOL     OW13085   5.435   3.540   1.155
 4317SOL    HW113086   5.516   3.582   1.112
 4317SOL    HW213087   5.421   3.449   1.117
 4318SOL     OW13088   4.985   3.606   1.108
 4318SOL    HW113089   5.074   3.647   1.090
 4318SOL    HW213090   4.995   3.508   1.120
 4319SOL     OW13091   3.849   3.079   0.996
 4319SOL    HW113092   3.829   3.108   1.090
 4319SOL    HW213093   3.776   3.019   0.964
 4320SOL     OW13094   4.426   3.567   1.768
 4320SOL    HW113095   4.364   3.643   1.748
 4320SOL    HW213096   4.518   3.590   1.735
 4321SOL     OW13097   4.654   1.918   0.059
 4321SOL    HW113098   4.687   1.891   5.486
 4321SOL    HW213099   4.715   1.881   0.129
 4322SOL     OW13100   5.463   2.069   0.467
 4322SOL    HW113101   5.517   2.049   0.384
 4322SOL    HW213102   5.427   1.984   0.504
 4323SOL     OW13103   5.118   3.455   0.477
 4323SOL    HW113104   5.182   3.486   0.407
 4323SOL    HW213105   5.061   3.532   0.506
 4324SOL     OW13106   3.847   3.671   1.876
 4324SOL    HW113107   3.812   3.588   1.921
 4324SOL    HW213108   3.894   3.728   1.943
 4325SOL     OW13109   4.999   2.793   0.624
 4325SOL    HW113110   5.070   2.731   0.657
 4325SOL    HW213111   5.041   2.869   0.576
 4326SOL     OW13112   4.482   3.137   1.431
 4326SOL    HW113113   4.466   3.200   1.508
 4326SOL    HW213114   4.408   3.148   1.364
 4327SOL     OW13115   4.411   3.471   0.159
 4327SOL    HW113116   4.468   3.470   0.077
 4327SOL    HW213117   4.348   3.393   0.157
 4328SOL     OW13118   5.365   3.551   1.419
 4328SOL    HW113119   5.388   3.545   1.322
 4328SOL    HW213120   5.369   3.646   1.448
 4329SOL     OW13121   3.955   2.176   0.706
 4329SOL    HW113122   3.867   2.216   0.679
 4329SOL    HW213123   3.961   2.171   0.806
 4330SOL     OW13124   4.931   3.450   0.055
 4330SOL    HW113125   4.934   3.360   0.098
 4330SOL    HW213126   4.869   3.448   5.494
 4331SOL     OW13127   4.533   2.871   1.399
 4331SOL    HW113128   4.576   2.859   1.310
 4331SOL    HW213129   4.514   2.968   1.414
 4332SOL     OW13130   4.664   2.751   0.251
 4332SOL    HW113131   4.739   2.780   0.191
 4332SOL    HW213132   4.697   2.681   0.314
 4333SOL     OW13133   5.176   3.567   0.066
 4333SOL    HW113134   5.088   3.521   0.059
 4333SOL    HW213135   5.227   3.553   5.498
 4334SOL     OW13136   4.089   3.187   1.490
 4334SOL    HW113137   4.077   3.261   1.424
 4334SOL    HW213138   4.009   3.127   1.486
 4335SOL     OW13139   5.301   3.139   1.251
 4335SOL    HW113140   5.394   3.132   1.286
 4335SOL    HW213141   5.248   3.200   1.311
 4336SOL     OW13142   4.839   2.966   0.771
 4336SOL    HW113143   4.752   2.927   0.801
 4336SOL    HW213144   4.885   2.901   0.710
 4337SOL     OW13145   4.767   2.106   0.950
 4337SOL    HW113146   4.763   2.067   0.857
 4337SOL    HW213147   4.764   2.032   1.017
 4338SOL     OW13148   4.332   3.355   0.465
 4338SOL    HW113149   4.383   3.295   0.404
 4338SOL    HW213150   4.261   3.402   0.412
 4339SOL     OW13151   3.997   3.204   0.294
 4339SOL    HW113152   3.911   3.186   0.246
 4339SOL    HW213153   3.979   3.261   0.374
 4340SOL     OW13154   3.860   2.916   1.754
 4340SOL    HW113155   3.774   2.887   1.797
 4340SOL    HW213156   3.933   2.852   1.779
 4341SOL     OW13157   4.426   2.048   1.495
 4341SOL    HW113158   4.511   2.017   1.452
 4341SOL    HW213159   4.447   2.083   1.587
 4342SOL     OW13160   3.797   2.161   0.009
 4342SOL    HW113161   3.711   2.164   5.475
 4342SOL    HW213162   3.827   2.254   0.028
 4343SOL     OW13163   5.132   2.718   1.369
 4343SOL    HW113164   5.074   2.779   1.315
 4343SOL    HW213165   5.226   2.724   1.336
 4344SOL     OW13166   3.772   1.995   0.231
 4344SOL    HW113167   3.765   2.061   0.156
 4344SOL    HW213168   3.864   1.958   0.234
 4345SOL     OW13169   4.924   3.206   0.179
 4345SOL    HW113170   4.826   3.208   0.161
 4345SOL    HW213171   4.940   3.207   0.278
 4346SOL     OW13172   4.362   2.664   1.454
 4346SOL    HW113173   4.417   2.747   1.442
 4346SOL    HW213174   4.422   2.584   1.452
 4347SOL     OW13175   5.238   3.711   1.070
 4347SOL    HW113176   5.286   3.759   0.997
 4347SOL    HW213177   5.299   3.645   1.113
 4348SOL     OW13178   4.440   2.402   1.707
 4348SOL    HW113179   4.499   2.462   1.760
 4348SOL    HW213180   4.459   2.307   1.730
 4349SOL     OW13181   5.164   3.037   1.653
 4349SOL    HW113182   5.159   3.059   1.751
 4349SOL    HW213183   5.258   3.051   1.621
 4350SOL     OW13184   4.067   3.618   1.605
 4350SOL    HW113185   3.984   3.673   1.593
 4350SOL    HW213186   4.043   3.529   1.642
 4351SOL     OW13187   5.384   2.752   1.246
 4351SOL    HW113188   5.400   2.663   1.203
 4351SOL    HW213189   5.356   2.818   1.176
 4352SOL     OW13190   4.947   2.184   0.464
 4352SOL    HW113191   5.015   2.110   0.465
 4352SOL    HW213192   4.962   2.244   0.542
 4353SOL     OW13193   4.284   2.588   0.676
 4353SOL    HW113194   4.337   2.672   0.666
 4353SOL    HW213195   4.210   2.587   0.608
 4354SOL     OW13196   5.484   2.272   1.573
 4354SOL    HW113197   5.500   2.329   1.492
 4354SOL    HW213198   5.394   2.228   1.566
 4355SOL     OW13199   5.463   2.800   1.511
 4355SOL    HW113200   5.444   2.896   1.534
 4355SOL    HW213201   5.441   2.784   1.415
 4356SOL     OW13202   4.665   3.242   0.119
 4356SOL    HW113203   4.595   3.222   0.187
 4356SOL    HW213204   4.628   3.304   0.050
 4357SOL     OW13205   4.402   3.601   0.950
 4357SOL    HW113206   4.373   3.696   0.941
 4357SOL    HW213207   4.502   3.595   0.947
 4358SOL     OW13208   4.604   2.850   0.869
 4358SOL    HW113209   4.647   2.766   0.902
 4358SOL    HW213210   4.552   2.892   0.943
 4359SOL     OW13211   4.859   2.801   0.053
 4359SOL    HW113212   4.803   2.801   5.488
 4359SOL    HW213213   4.922   2.879   0.051
 4360SOL     OW13214   5.517   3.451   0.850
 4360SOL    HW113215   5.449   3.454   0.777
 4360SOL    HW213216   5.496   3.376   0.912
 4361SOL     OW13217   3.979   3.143   1.856
 4361SOL    HW113218   3.925   3.066   1.821
 4361SOL    HW213219   3.967   3.150   1.955
 4362SOL     OW13220   3.858   3.145   0.714
 4362SOL    HW113221   3.868   3.121   0.811
 4362SOL    HW213222   3.920   3.088   0.660
 4363SOL     OW13223   4.424   3.309   1.639
 4363SOL    HW113224   4.344   3.262   1.677
 4363SOL    HW213225   4.429   3.401   1.677
 4364SOL     OW13226   5.471   2.011   1.248
 4364SOL    HW113227   0.035   1.954   1.239
 4364SOL    HW213228   5.442   2.044   1.158
 4365SOL     OW13229   4.135   2.290   0.512
 4365SOL    HW113230   4.182   2.222   0.456
 4365SOL    HW213231   4.081   2.244   0.582
 4366SOL     OW13232   5.384   3.294   1.039
 4366SOL    HW113233   5.306   3.295   0.976
 4366SOL    HW213234   5.364   3.234   1.116
 4367SOL     OW13235   4.082   2.411   1.283
 4367SOL    HW113236   4.139   2.344   1.332
 4367SOL    HW213237   4.079   2.386   1.186
 4368SOL     OW13238   4.552   3.458   0.685
 4368SOL    HW113239   4.522   3.532   0.625
 4368SOL    HW213240   4.478   3.391   0.696
 4369SOL     OW13241   5.156   2.111   1.114
 4369SOL    HW113242   5.164   2.012   1.124
 4369SOL    HW213243   5.100   2.148   1.189
 4370SOL     OW13244   4.750   1.877   1.113
 4370SOL    HW113245   4.696   1.815   1.056
 4370SOL    HW213246   4.841   1.839   1.127
 4371SOL     OW13247   4.514   3.179   0.345
 4371SOL    HW113248   4.497   3.082   0.363
 4371SOL    HW213249   4.588   3.211   0.404
 4372SOL     OW13250   4.332   3.448   1.293
 4372SOL    HW113251   4.322   3.536   1.339
 4372SOL    HW213252   4.426   3.438   1.261
 4373SOL     OW13253   5.079   1.929   0.192
 4373SOL    HW113254   5.128   1.857   0.143
 4373SOL    HW213255   4.983   1.901   0.205
 4374SOL     OW13256   4.975   2.348   0.676
 4374SOL    HW113257   4.923   2.434   0.674
 4374SOL    HW213258   4.998   2.326   0.771
 4375SOL     OW13259   5.398   2.097   0.982
 4375SOL    HW113260   5.311   2.117   1.028
 4375SOL    HW213261   5.388   2.115   0.884
 4376SOL     OW13262   3.772   2.894   0.306
 4376SOL    HW113263   3.871   2.883   0.314
 4376SOL    HW213264   3.728   2.806   0.324
 4377SOL     OW13265   4.615   3.545   0.343
 4377SOL    HW113266   4.539   3.519   0.284
 4377SOL    HW213267   4.584   3.615   0.408
 4378SOL     OW13268   3.929   2.489   2.020
 4378SOL    HW113269   3.837   2.461   2.050
 4378SOL    HW213270   3.932   2.490   1.920
 4379SOL     OW13271   3.946   2.141   2.851
 4379SOL    HW113272   3.989   2.109   2.935
 4379SOL    HW213273   3.854   2.101   2.842
 4380SOL     OW13274   3.721   2.274   2.496
 4380SOL    HW113275   3.640   2.295   2.550
 4380SOL    HW213276   3.701   2.202   2.430
 4381SOL     OW13277   4.300   3.177   3.092
 4381SOL    HW113278   4.213   3.171   3.043
 4381SOL    HW213279   4.319   3.273   3.114
 4382SOL     OW13280   5.279   3.440   2.553
 4382SOL    HW113281   5.237   3.388   2.627
 4382SOL    HW213282   5.225   3.428   2.469
 4383SOL     OW13283   4.840   2.585   2.537
 4383SOL    HW113284   4.896   2.664   2.516
 4383SOL    HW213285   4.794   2.599   2.625
 4384SOL     OW13286   5.468   2.453   2.065
 4384SOL    HW113287   5.448   2.446   1.967
 4384SOL    HW213288   5.428   2.375   2.112
 4385SOL     OW13289   4.441   2.997   2.923
 4385SOL    HW113290   4.387   3.030   3.000
 4385SOL    HW213291   4.478   3.075   2.872
 4386SOL     OW13292   4.622   2.590   3.695
 4386SOL    HW113293   4.608   2.652   3.772
 4386SOL    HW213294   4.639   2.643   3.612
 4387SOL     OW13295   4.415   2.845   2.515
 4387SOL    HW113296   4.486   2.848   2.586
 4387SOL    HW213297   4.342   2.908   2.538
 4388SOL     OW13298   4.428   3.025   3.707
 4388SOL    HW113299   4.488   3.094   3.747
 4388SOL    HW213300   4.349   3.069   3.665
 4389SOL     OW13301   4.068   3.238   2.945
 4389SOL    HW113302   3.989   3.186   2.912
 4389SOL    HW213303   4.107   3.290   2.870
 4390SOL     OW13304   5.168   3.351   3.247
 4390SOL    HW113305   5.234   3.422   3.269
 4390SOL    HW213306   5.085   3.365   3.301
 4391SOL     OW13307   4.220   2.226   3.295
 4391SOL    HW113308   4.298   2.168   3.317
 4391SOL    HW213309   4.136   2.183   3.329
 4392SOL     OW13310   3.985   3.569   2.329
 4392SOL    HW113311   3.990   3.643   2.396
 4392SOL    HW213312   4.049   3.587   2.254
 4393SOL     OW13313   4.841   3.206   3.568
 4393SOL    HW113314   4.896   3.197   3.651
 4393SOL    HW213315   4.784   3.125   3.556
 4394SOL     OW13316   3.981   3.303   2.374
 4394SOL    HW113317   3.976   3.403   2.374
 4394SOL    HW213318   3.948   3.267   2.461
 4395SOL     OW13319   4.026   2.944   2.746
 4395SOL    HW113320   4.038   2.848   2.770
 4395SOL    HW213321   3.969   2.988   2.815
 4396SOL     OW13322   4.286   3.692   3.271
 4396SOL    HW113323   4.208   3.665   3.327
 4396SOL    HW213324   4.333   3.769   3.315
 4397SOL     OW13325   4.287   2.852   2.024
 4397SOL    HW113326   4.336   2.897   1.949
 4397SOL    HW213327   4.327   2.878   2.111
 4398SOL     OW13328   5.403   1.946   3.367
 4398SOL    HW113329   5.418   1.984   3.275
 4398SOL    HW213330   5.347   2.009   3.420
 4399SOL     OW13331   3.837   2.529   2.438
 4399SOL    HW113332   3.802   2.437   2.457
 4399SOL    HW213333   3.839   2.582   2.522
 4400SOL     OW13334   3.814   3.429   2.006
 4400SOL    HW113335   3.763   3.343   2.004
 4400SOL    HW213336   3.849   3.445   2.099
 4401SOL     OW13337   5.424   2.764   2.514
 4401SOL    HW113338   5.507   2.732   2.558
 4401SOL    HW213339   5.432   2.753   2.415
 4402SOL     OW13340   3.854   2.623   3.431
 4402SOL    HW113341   3.943   2.668   3.433
 4402SOL    HW213342   3.782   2.691   3.417
 4403SOL     OW13343   4.344   3.256   2.574
 4403SOL    HW113344   4.302   3.165   2.579
 4403SOL    HW213345   4.331   3.294   2.483
 4404SOL     OW13346   4.963   3.072   3.296
 4404SOL    HW113347   4.990   3.003   3.228
 4404SOL    HW213348   5.025   3.069   3.374
 4405SOL     OW13349   4.554   1.882   2.377
 4405SOL    HW113350   4.600   1.965   2.346
 4405SOL    HW213351   4.455   1.898   2.381
 4406SOL     OW13352   3.932   2.814   3.176
 4406SOL    HW113353   4.021   2.775   3.153
 4406SOL    HW213354   3.861   2.769   3.121
 4407SOL     OW13355   5.240   2.926   2.145
 4407SOL    HW113356   5.177   2.849   2.147
 4407SOL    HW213357   5.334   2.893   2.139
 4408SOL     OW13358   4.921   3.677   3.500
 4408SOL    HW113359   4.916   3.744   3.427
 4408SOL    HW213360   4.939   3.586   3.461
 4409SOL     OW13361   4.078   2.125   3.746
 4409SOL    HW113362   4.118   2.207   3.788
 4409SOL    HW213363   3.980   2.140   3.732
 4410SOL     OW13364   5.147   3.296   2.752
 4410SOL    HW113365   5.107   3.313   2.843
 4410SOL    HW213366   5.135   3.200   2.728
 4411SOL     OW13367   5.343   3.674   2.404
 4411SOL    HW113368   5.351   3.624   2.318
 4411SOL    HW213369   5.333   3.609   2.479
 4412SOL     OW13370   4.301   2.569   2.139
 4412SOL    HW113371   4.307   2.660   2.098
 4412SOL    HW213372   4.231   2.569   2.211
 4413SOL     OW13373   5.013   2.265   2.796
 4413SOL    HW113374   4.921   2.226   2.794
 4413SOL    HW213375   5.071   2.211   2.857
 4414SOL     OW13376   5.323   3.583   2.139
 4414SOL    HW113377   5.385   3.659   2.119
 4414SOL    HW213378   5.266   3.564   2.059
 4415SOL     OW13379   4.527   2.449   3.288
 4415SOL    HW113380   4.507   2.419   3.382
 4415SOL    HW213381   4.501   2.377   3.224
 4416SOL     OW13382   5.105   2.350   3.525
 4416SOL    HW113383   5.108   2.393   3.615
 4416SOL    HW213384   5.167   2.271   3.524
 4417SOL     OW13385   4.671   2.738   3.460
 4417SOL    HW113386   4.729   2.674   3.410
 4417SOL    HW213387   4.615   2.791   3.396
 4418SOL     OW13388   4.741   2.238   3.048
 4418SOL    HW113389   4.645   2.252   3.074
 4418SOL    HW213390   4.746   2.194   2.959
 4419SOL     OW13391   4.768   2.555   2.271
 4419SOL    HW113392   4.790   2.561   2.369
 4419SOL    HW213393   4.680   2.509   2.259
 4420SOL     OW13394   3.835   2.693   2.656
 4420SOL    HW113395   3.924   2.682   2.699
 4420SOL    HW213396   3.780   2.758   2.710
 4421SOL     OW13397   3.832   3.750   3.464
 4421SOL    HW113398   3.838   3.712   3.557
 4421SOL    HW213399   3.738   3.742   3.431
 4422SOL     OW13400   4.571   2.205   2.065
 4422SOL    HW113401   4.630   2.250   1.998
 4422SOL    HW213402   4.516   2.135   2.020
 4423SOL     OW13403   5.405   2.417   3.665
 4423SOL    HW113404   5.376   2.507   3.633
 4423SOL    HW213405   5.443   2.365   3.589
 4424SOL     OW13406   5.109   3.024   2.377
 4424SOL    HW113407   5.168   2.996   2.301
 4424SOL    HW213408   5.048   3.097   2.346
 4425SOL     OW13409   4.283   1.985   2.788
 4425SOL    HW113410   4.296   2.011   2.883
 4425SOL    HW213411   4.281   2.067   2.730
 4426SOL     OW13412   4.708   3.334   2.334
 4426SOL    HW113413   4.689   3.409   2.271
 4426SOL    HW213414   4.674   3.358   2.425
 4427SOL     OW13415   4.073   3.643   2.773
 4427SOL    HW113416   4.115   3.553   2.766
 4427SOL    HW213417   4.144   3.712   2.787
 4428SOL     OW13418   5.490   2.950   2.716
 4428SOL    HW113419   5.447   2.908   2.636
 4428SOL    HW213420   5.425   2.952   2.792
 4429SOL     OW13421   4.929   3.408   3.384
 4429SOL    HW113422   4.912   3.329   3.441
 4429SOL    HW213423   4.843   3.440   3.344
 4430SOL     OW13424   4.025   2.792   2.129
 4430SOL    HW113425   4.111   2.816   2.085
 4430SOL    HW213426   4.001   2.698   2.105
 4431SOL     OW13427   5.194   2.627   2.577
 4431SOL    HW113428   5.189   2.585   2.667
 4431SOL    HW213429   5.278   2.681   2.569
 4432SOL     OW13430   4.191   3.164   3.619
 4432SOL    HW113431   4.173   3.167   3.520
 4432SOL    HW213432   4.105   3.151   3.668
 4433SOL     OW13433   4.865   3.651   2.091
 4433SOL    HW113434   4.779   3.624   2.134
 4433SOL    HW213435   4.888   3.585   2.019
 4434SOL     OW13436   3.963   2.132   3.344
 4434SOL    HW113437   3.909   2.215   3.327
 4434SOL    HW213438   3.907   2.065   3.392
 4435SOL     OW13439   4.196   3.626   2.157
 4435SOL    HW113440   4.239   3.676   2.231
 4435SOL    HW213441   4.266   3.575   2.106
 4436SOL     OW13442   5.127   1.967   2.311
 4436SOL    HW113443   5.124   1.952   2.212
 4436SOL    HW213444   5.218   1.944   2.345
 4437SOL     OW13445   3.993   3.649   3.048
 4437SOL    HW113446   4.022   3.566   3.095
 4437SOL    HW213447   4.014   3.641   2.950
 4438SOL     OW13448   4.679   3.560   2.750
 4438SOL    HW113449   4.770   3.521   2.760
 4438SOL    HW213450   4.630   3.513   2.677
 4439SOL     OW13451   4.108   2.538   2.338
 4439SOL    HW113452   4.125   2.440   2.349
 4439SOL    HW213453   4.012   2.558   2.359
 4440SOL     OW13454   5.243   2.108   3.534
 4440SOL    HW113455   5.267   2.114   3.631
 4440SOL    HW213456   5.163   2.049   3.523
 4441SOL     OW13457   4.394   1.979   1.966
 4441SOL    HW113458   4.462   1.907   1.982
 4441SOL    HW213459   4.324   1.946   1.903
 4442SOL     OW13460   4.498   2.117   3.620
 4442SOL    HW113461   4.586   2.068   3.619
 4442SOL    HW213462   4.439   2.075   3.689
 4443SOL     OW13463   4.579   3.371   3.056
 4443SOL    HW113464   4.554   3.335   2.966
 4443SOL    HW213465   4.640   3.307   3.102
 4444SOL     OW13466   5.038   2.461   3.284
 4444SOL    HW113467   5.068   2.431   3.375
 4444SOL    HW213468   5.077   2.551   3.264
 4445SOL     OW13469   4.524   3.233   2.803
 4445SOL    HW113470   4.618   3.232   2.770
 4445SOL    HW213471   4.461   3.246   2.726
 4446SOL     OW13472   4.647   2.371   2.737
 4446SOL    HW113473   4.624   2.362   2.640
 4446SOL    HW213474   4.680   2.283   2.771
 4447SOL     OW13475   4.286   1.927   2.358
 4447SOL    HW113476   4.207   1.924   2.420
 4447SOL    HW213477   4.276   2.004   2.295
 4448SOL     OW13478   5.152   3.083   1.931
 4448SOL    HW113479   5.178   3.022   2.006
 4448SOL    HW213480   5.064   3.126   1.952
 4449SOL     OW13481   4.011   1.909   2.036
 4449SOL    HW113482   4.056   1.988   1.994
 4449SOL    HW213483   4.079   1.853   2.083
 4450SOL     OW13484   4.680   2.112   2.301
 4450SOL    HW113485   4.642   2.146   2.215
 4450SOL    HW213486   4.778   2.130   2.304
 4451SOL     OW13487   4.781   2.564   3.281
 4451SOL    HW113488   4.704   2.500   3.286
 4451SOL    HW213489   4.867   2.513   3.279
 4452SOL     OW13490   4.927   3.443   2.649
 4452SOL    HW113491   4.945   3.516   2.583
 4452SOL    HW213492   5.014   3.407   2.683
 4453SOL     OW13493   4.207   3.018   2.557
 4453SOL    HW113494   4.147   2.993   2.633
 4453SOL    HW213495   4.157   3.009   2.471
 4454SOL     OW13496   4.965   3.658   2.469
 4454SOL    HW113497   5.017   3.723   2.414
 4454SOL    HW213498   4.887   3.704   2.511
 4455SOL     OW13499   4.741   2.355   1.905
 4455SOL    HW113500   4.702   2.443   1.879
 4455SOL    HW213501   4.809   2.369   1.978
 4456SOL     OW13502   3.885   2.393   3.281
 4456SOL    HW113503   3.974   2.411   3.237
 4456SOL    HW213504   3.857   2.474   3.332
 4457SOL     OW13505   4.306   2.045   3.052
 4457SOL    HW113506   4.339   1.974   3.114
 4457SOL    HW213507   4.208   2.060   3.068
 4458SOL     OW13508   4.595   2.317   2.476
 4458SOL    HW113509   4.549   2.377   2.410
 4458SOL    HW213510   4.627   2.235   2.429
 4459SOL     OW13511   4.745   1.913   2.587
 4459SOL    HW113512   4.679   1.911   2.512
 4459SOL    HW213513   4.723   1.841   2.653
 4460SOL     OW13514   5.114   3.032   2.682
 4460SOL    HW113515   5.022   2.998   2.696
 4460SOL    HW213516   5.138   3.027   2.585
 4461SOL     OW13517   5.173   2.501   2.825
 4461SOL    HW113518   5.116   2.420   2.819
 4461SOL    HW213519   5.242   2.488   2.897
 4462SOL     OW13520   5.486   2.649   2.254
 4462SOL    HW113521   0.042   2.615   2.313
 4462SOL    HW213522   5.476   2.588   2.175
 4463SOL     OW13523   4.221   3.284   2.013
 4463SOL    HW113524   4.139   3.249   2.059
 4463SOL    HW213525   4.224   3.249   1.920
 4464SOL     OW13526   5.106   2.434   1.924
 4464SOL    HW113527   5.045   2.408   1.999
 4464SOL    HW213528   5.200   2.412   1.949
 4465SOL     OW13529   4.251   2.117   2.166
 4465SOL    HW113530   4.305   2.069   2.097
 4465SOL    HW213531   4.217   2.203   2.128
 4466SOL     OW13532   5.432   3.085   3.435
 4466SOL    HW113533   0.011   3.070   3.413
 4466SOL    HW213534   5.416   3.183   3.450
 4467SOL     OW13535   4.731   3.187   3.197
 4467SOL    HW113536   4.648   3.167   3.249
 4467SOL    HW213537   4.810   3.153   3.247
 4468SOL     OW13538   5.356   3.502   3.561
 4468SOL    HW113539   5.357   3.510   3.461
 4468SOL    HW213540   5.449   3.508   3.596
 4469SOL     OW13541   4.871   3.126   2.971
 4469SOL    HW113542   4.809   3.145   3.047
 4469SOL    HW213543   4.828   3.154   2.885
 4470SOL     OW13544   5.297   2.947   2.913
 4470SOL    HW113545   5.287   3.013   2.988
 4470SOL    HW213546   5.219   2.954   2.851
 4471SOL     OW13547   4.661   1.927   3.243
 4471SOL    HW113548   4.678   1.911   3.145
 4471SOL    HW213549   4.741   1.971   3.284
 4472SOL     OW13550   4.685   2.978   3.588
 4472SOL    HW113551   4.591   2.994   3.619
 4472SOL    HW213552   4.689   2.892   3.538
 4473SOL     OW13553   4.442   2.916   2.248
 4473SOL    HW113554   4.429   2.889   2.343
 4473SOL    HW213555   4.515   2.861   2.207
 4474SOL     OW13556   4.173   2.686   3.128
 4474SOL    HW113557   4.241   2.698   3.201
 4474SOL    HW213558   4.143   2.590   3.127
 4475SOL     OW13559   4.986   2.223   3.159
 4475SOL    HW113560   5.012   2.310   3.201
 4475SOL    HW213561   4.895   2.231   3.118
 4476SOL     OW13562   3.786   3.413   3.192
 4476SOL    HW113563   3.743   3.477   3.129
 4476SOL    HW213564   3.885   3.427   3.189
 4477SOL     OW13565   4.046   2.986   2.331
 4477SOL    HW113566   4.038   3.061   2.265
 4477SOL    HW213567   4.040   2.899   2.283
 4478SOL     OW13568   4.259   2.390   2.718
 4478SOL    HW113569   4.272   2.450   2.639
 4478SOL    HW213570   4.331   2.408   2.785
 4479SOL     OW13571   4.957   3.237   2.269
 4479SOL    HW113572   5.020   3.312   2.288
 4479SOL    HW213573   4.865   3.262   2.299
 4480SOL     OW13574   5.045   3.335   3.001
 4480SOL    HW113575   5.091   3.340   3.090
 4480SOL    HW213576   4.983   3.257   3.000
 4481SOL     OW13577   5.313   2.458   2.383
 4481SOL    HW113578   5.244   2.494   2.446
 4481SOL    HW213579   5.355   2.535   2.333
 4482SOL     OW13580   4.064   3.401   3.160
 4482SOL    HW113581   4.056   3.337   3.084
 4482SOL    HW213582   4.161   3.424   3.174
 4483SOL     OW13583   4.156   2.622   3.483
 4483SOL    HW113584   4.231   2.652   3.424
 4483SOL    HW213585   4.168   2.526   3.507
 4484SOL     OW13586   5.334   2.655   3.564
 4484SOL    HW113587   5.241   2.690   3.556
 4484SOL    HW213588   5.392   2.701   3.496
 4485SOL     OW13589   4.731   1.980   3.622
 4485SOL    HW113590   4.791   2.059   3.614
 4485SOL    HW213591   4.779   1.898   3.592
 4486SOL     OW13592   4.207   1.911   3.627
 4486SOL    HW113593   4.152   1.861   3.560
 4486SOL    HW213594   4.158   1.994   3.654
 4487SOL     OW13595   4.329   2.734   2.907
 4487SOL    HW113596   4.366   2.827   2.906
 4487SOL    HW213597   4.270   2.723   2.988
 4488SOL     OW13598   4.998   2.715   2.868
 4488SOL    HW113599   4.908   2.684   2.838
 4488SOL    HW213600   5.065   2.642   2.852
 4489SOL     OW13601   4.918   2.380   2.119
 4489SOL    HW113602   4.934   2.301   2.178
 4489SOL    HW213603   4.872   2.452   2.172
 4490SOL     OW13604   4.036   2.046   3.092
 4490SOL    HW113605   4.011   2.085   3.181
 4490SOL    HW213606   4.006   1.951   3.088
 4491SOL     OW13607   3.760   3.146   3.148
 4491SOL    HW113608   3.803   3.095   3.222
 4491SOL    HW213609   3.767   3.244   3.166
 4492SOL     OW13610   4.444   2.477   2.901
 4492SOL    HW113611   4.519   2.459   2.838
 4492SOL    HW213612   4.414   2.572   2.891
 4493SOL     OW13613   4.053   1.919   2.505
 4493SOL    HW113614   4.015   2.010   2.522
 4493SOL    HW213615   4.060   1.869   2.592
 4494SOL     OW13616   5.326   2.254   2.192
 4494SOL    HW113617   5.361   2.175   2.242
 4494SOL    HW213618   5.294   2.323   2.257
 4495SOL     OW13619   4.738   2.620   2.805
 4495SOL    HW113620   4.713   2.639   2.900
 4495SOL    HW213621   4.713   2.525   2.783
 4496SOL     OW13622   4.697   3.439   3.590
 4496SOL    HW113623   4.682   3.476   3.498
 4496SOL    HW213624   4.734   3.346   3.583
 4497SOL     OW13625   4.089   2.778   3.699
 4497SOL    HW113626   4.168   2.797   3.756
 4497SOL    HW213627   4.116   2.721   3.621
 4498SOL     OW13628   5.275   2.122   1.949
 4498SOL    HW113629   5.208   2.051   1.974
 4498SOL    HW213630   5.297   2.177   2.030
 4499SOL     OW13631   5.004   2.684   1.878
 4499SOL    HW113632   5.039   2.591   1.889
 4499SOL    HW213633   5.031   2.719   1.788
 4500SOL     OW13634   4.782   3.220   2.724
 4500SOL    HW113635   4.808   3.136   2.676
 4500SOL    HW213636   4.832   3.297   2.685
 4501SOL     OW13637   4.070   2.672   2.801
 4501SOL    HW113638   4.168   2.689   2.812
 4501SOL    HW213639   4.049   2.579   2.830
 4502SOL     OW13640   4.039   2.393   2.868
 4502SOL    HW113641   3.992   2.305   2.859
 4502SOL    HW213642   4.118   2.395   2.807
 4503SOL     OW13643   4.869   2.214   3.566
 4503SOL    HW113644   4.814   2.262   3.635
 4503SOL    HW213645   4.950   2.268   3.544
 4504SOL     OW13646   4.891   2.043   3.347
 4504SOL    HW113647   4.872   2.102   3.425
 4504SOL    HW213648   4.932   2.098   3.273
 4505SOL     OW13649   3.724   3.148   2.061
 4505SOL    HW113650   3.637   3.178   2.021
 4505SOL    HW213651   3.720   3.050   2.081
 4506SOL     OW13652   3.796   3.656   2.772
 4506SOL    HW113653   3.757   3.634   2.683
 4506SOL    HW213654   3.896   3.650   2.768
 4507SOL     OW13655   4.208   3.403   2.766
 4507SOL    HW113656   4.281   3.463   2.798
 4507SOL    HW213657   4.242   3.345   2.692
 4508SOL     OW13658   4.648   2.660   3.058
 4508SOL    HW113659   4.710   2.642   3.135
 4508SOL    HW213660   4.564   2.609   3.070
 4509SOL     OW13661   3.795   2.436   3.015
 4509SOL    HW113662   3.876   2.433   2.957
 4509SOL    HW213663   3.820   2.411   3.109
 4510SOL     OW13664   3.908   2.418   3.605
 4510SOL    HW113665   3.941   2.350   3.539
 4510SOL    HW213666   3.878   2.500   3.556
 4511SOL     OW13667   5.094   2.774   3.497
 4511SOL    HW113668   5.109   2.872   3.505
 4511SOL    HW213669   5.096   2.748   3.401
 4512SOL     OW13670   4.529   2.433   2.224
 4512SOL    HW113671   4.533   2.350   2.168
 4512SOL    HW213672   4.448   2.486   2.197
 4513SOL     OW13673   3.952   3.402   3.571
 4513SOL    HW113674   3.929   3.476   3.635
 4513SOL    HW213675   3.952   3.315   3.621
 4514SOL     OW13676   4.470   2.273   3.084
 4514SOL    HW113677   4.407   2.196   3.076
 4514SOL    HW213678   4.446   2.343   3.017
 4515SOL     OW13679   4.673   3.521   3.320
 4515SOL    HW113680   4.628   3.468   3.249
 4515SOL    HW213681   4.665   3.618   3.299
 4516SOL     OW13682   4.164   2.346   2.038
 4516SOL    HW113683   4.233   2.415   2.062
 4516SOL    HW213684   4.073   2.387   2.042
 4517SOL     OW13685   3.882   3.005   3.359
 4517SOL    HW113686   3.881   2.965   3.451
 4517SOL    HW213687   3.902   2.934   3.292
 4518SOL     OW13688   5.000   2.901   3.066
 4518SOL    HW113689   5.001   2.831   2.994
 4518SOL    HW213690   4.956   2.984   3.032
 4519SOL     OW13691   5.057   2.727   2.148
 4519SOL    HW113692   4.981   2.696   2.205
 4519SOL    HW213693   5.034   2.714   2.051
 4520SOL     OW13694   5.434   3.542   3.017
 4520SOL    HW113695   5.513   3.583   2.973
 4520SOL    HW213696   5.418   3.450   2.979
 4521SOL     OW13697   4.983   3.606   2.970
 4521SOL    HW113698   5.072   3.647   2.951
 4521SOL    HW213699   4.993   3.508   2.983
 4522SOL     OW13700   3.842   3.079   2.896
 4522SOL    HW113701   3.810   3.100   2.988
 4522SOL    HW213702   3.776   3.019   2.850
 4523SOL     OW13703   4.421   3.571   3.627
 4523SOL    HW113704   4.355   3.644   3.605
 4523SOL    HW213705   4.510   3.596   3.591
 4524SOL     OW13706   5.449   2.053   2.343
 4524SOL    HW113707   5.506   2.038   2.262
 4524SOL    HW213708   5.428   1.965   2.386
 4525SOL     OW13709   5.113   3.459   2.328
 4525SOL    HW113710   5.167   3.500   2.254
 4525SOL    HW213711   5.052   3.527   2.367
 4526SOL     OW13712   3.872   3.635   3.708
 4526SOL    HW113713   3.816   3.565   3.752
 4526SOL    HW213714   3.923   3.686   3.777
 4527SOL     OW13715   4.999   2.797   2.486
 4527SOL    HW113716   5.073   2.737   2.516
 4527SOL    HW213717   5.038   2.874   2.435
 4528SOL     OW13718   4.481   3.143   3.304
 4528SOL    HW113719   4.460   3.201   3.383
 4528SOL    HW213720   4.406   3.150   3.238
 4529SOL     OW13721   4.400   3.489   2.026
 4529SOL    HW113722   4.412   3.516   1.931
 4529SOL    HW213723   4.342   3.408   2.031
 4530SOL     OW13724   5.365   3.550   3.282
 4530SOL    HW113725   5.386   3.545   3.184
 4530SOL    HW213726   5.369   3.645   3.312
 4531SOL     OW13727   3.964   2.166   2.573
 4531SOL    HW113728   3.879   2.210   2.544
 4531SOL    HW213729   3.969   2.165   2.673
 4532SOL     OW13730   4.921   3.462   1.899
 4532SOL    HW113731   4.915   3.368   1.933
 4532SOL    HW213732   4.851   3.476   1.829
 4533SOL     OW13733   4.542   2.879   3.265
 4533SOL    HW113734   4.584   2.871   3.175
 4533SOL    HW213735   4.520   2.975   3.283
 4534SOL     OW13736   4.637   2.764   2.140
 4534SOL    HW113737   4.696   2.804   2.071
 4534SOL    HW213738   4.687   2.693   2.190
 4535SOL     OW13739   5.182   3.555   1.906
 4535SOL    HW113740   5.090   3.519   1.892
 4535SOL    HW213741   5.240   3.532   1.828
 4536SOL     OW13742   4.098   3.184   3.364
 4536SOL    HW113743   4.082   3.263   3.305
 4536SOL    HW213744   4.022   3.121   3.357
 4537SOL     OW13745   5.300   3.138   3.112
 4537SOL    HW113746   5.393   3.130   3.147
 4537SOL    HW213747   5.247   3.198   3.172
 4538SOL     OW13748   4.838   2.968   2.633
 4538SOL    HW113749   4.750   2.930   2.662
 4538SOL    HW213750   4.884   2.903   2.572
 4539SOL     OW13751   4.767   2.103   2.805
 4539SOL    HW113752   4.764   2.066   2.712
 4539SOL    HW213753   4.762   2.029   2.871
 4540SOL     OW13754   4.324   3.355   2.325
 4540SOL    HW113755   4.382   3.298   2.267
 4540SOL    HW213756   4.239   3.376   2.277
 4541SOL     OW13757   3.980   3.187   2.136
 4541SOL    HW113758   3.884   3.172   2.114
 4541SOL    HW213759   3.987   3.237   2.223
 4542SOL     OW13760   3.862   2.905   3.614
 4542SOL    HW113761   3.777   2.878   3.660
 4542SOL    HW213762   3.938   2.853   3.652
 4543SOL     OW13763   4.431   2.044   3.360
 4543SOL    HW113764   4.515   2.014   3.315
 4543SOL    HW213765   4.452   2.078   3.452
 4544SOL     OW13766   3.835   2.209   1.821
 4544SOL    HW113767   3.745   2.198   1.779
 4544SOL    HW213768   3.871   2.300   1.799
 4545SOL     OW13769   5.132   2.719   3.229
 4545SOL    HW113770   5.073   2.779   3.176
 4545SOL    HW213771   5.226   2.726   3.195
 4546SOL     OW13772   3.767   2.015   2.094
 4546SOL    HW113773   3.747   2.086   2.026
 4546SOL    HW213774   3.860   1.982   2.079
 4547SOL     OW13775   4.898   3.201   1.994
 4547SOL    HW113776   4.801   3.179   1.983
 4547SOL    HW213777   4.920   3.204   2.092
 4548SOL     OW13778   4.368   2.676   3.316
 4548SOL    HW113779   4.426   2.757   3.305
 4548SOL    HW213780   4.425   2.593   3.311
 4549SOL     OW13781   5.235   3.710   2.931
 4549SOL    HW113782   5.286   3.763   2.862
 4549SOL    HW213783   5.297   3.644   2.973
 4550SOL     OW13784   4.483   2.387   3.546
 4550SOL    HW113785   4.523   2.450   3.612
 4550SOL    HW213786   4.488   2.293   3.582
 4551SOL     OW13787   5.163   3.038   3.511
 4551SOL    HW113788   5.157   3.060   3.609
 4551SOL    HW213789   5.257   3.052   3.480
 4552SOL     OW13790   4.077   3.621   3.441
 4552SOL    HW113791   3.991   3.671   3.430
 4552SOL    HW213792   4.057   3.528   3.472
 4553SOL     OW13793   5.384   2.754   3.105
 4553SOL    HW113794   5.400   2.665   3.063
 4553SOL    HW213795   5.357   2.820   3.034
 4554SOL     OW13796   4.948   2.181   2.311
 4554SOL    HW113797   5.013   2.106   2.313
 4554SOL    HW213798   4.960   2.239   2.391
 4555SOL     OW13799   4.300   2.588   2.532
 4555SOL    HW113800   4.346   2.676   2.522
 4555SOL    HW213801   4.231   2.577   2.461
 4556SOL     OW13802   5.482   2.270   3.434
 4556SOL    HW113803   5.496   2.328   3.353
 4556SOL    HW213804   5.391   2.228   3.429
 4557SOL     OW13805   5.462   2.801   3.370
 4557SOL    HW113806   5.443   2.896   3.394
 4557SOL    HW213807   5.440   2.785   3.274
 4558SOL     OW13808   4.606   3.216   1.950
 4558SOL    HW113809   4.564   3.216   2.040
 4558SOL    HW213810   4.595   3.307   1.909
 4559SOL     OW13811   4.398   3.590   2.810
 4559SOL    HW113812   4.368   3.685   2.803
 4559SOL    HW213813   4.498   3.586   2.806
 4560SOL     OW13814   4.601   2.855   2.727
 4560SOL    HW113815   4.642   2.769   2.756
 4560SOL    HW213816   4.550   2.895   2.804
 4561SOL     OW13817   4.795   2.848   1.942
 4561SOL    HW113818   4.767   2.906   1.865
 4561SOL    HW213819   4.873   2.791   1.914
 4562SOL     OW13820   5.511   3.453   2.712
 4562SOL    HW113821   5.446   3.451   2.636
 4562SOL    HW213822   5.490   3.380   2.776
 4563SOL     OW13823   3.929   3.155   3.704
 4563SOL    HW113824   3.906   3.068   3.660
 4563SOL    HW213825   3.869   3.169   3.782
 4564SOL     OW13826   3.878   3.076   2.536
 4564SOL    HW113827   3.911   3.032   2.620
 4564SOL    HW213828   3.929   3.040   2.458
 4565SOL     OW13829   4.409   3.306   3.517
 4565SOL    HW113830   4.326   3.265   3.555
 4565SOL    HW213831   4.419   3.400   3.549
 4566SOL     OW13832   5.468   2.003   3.108
 4566SOL    HW113833   0.015   1.928   3.093
 4566SOL    HW213834   5.443   2.043   3.020
 4567SOL     OW13835   4.137   2.274   2.378
 4567SOL    HW113836   4.174   2.203   2.320
 4567SOL    HW213837   4.082   2.233   2.451
 4568SOL     OW13838   5.381   3.297   2.902
 4568SOL    HW113839   5.303   3.298   2.839
 4568SOL    HW213840   5.362   3.235   2.978
 4569SOL     OW13841   4.114   2.421   3.136
 4569SOL    HW113842   4.167   2.352   3.185
 4569SOL    HW213843   4.103   2.394   3.041
 4570SOL     OW13844   4.548   3.452   2.538
 4570SOL    HW113845   4.515   3.524   2.477
 4570SOL    HW213846   4.476   3.385   2.553
 4571SOL     OW13847   5.156   2.114   2.973
 4571SOL    HW113848   5.163   2.014   2.980
 4571SOL    HW213849   5.101   2.148   3.049
 4572SOL     OW13850   4.746   1.876   2.969
 4572SOL    HW113851   4.692   1.814   2.912
 4572SOL    HW213852   4.837   1.836   2.984
 4573SOL     OW13853   4.506   3.186   2.203
 4573SOL    HW113854   4.483   3.090   2.220
 4573SOL    HW213855   4.584   3.212   2.260
 4574SOL     OW13856   4.334   3.449   3.153
 4574SOL    HW113857   4.327   3.541   3.193
 4574SOL    HW213858   4.425   3.437   3.114
 4575SOL     OW13859   5.102   1.921   2.036
 4575SOL    HW113860   5.140   1.847   1.980
 4575SOL    HW213861   5.007   1.899   2.059
 4576SOL     OW13862   4.978   2.341   2.529
 4576SOL    HW113863   4.928   2.428   2.528
 4576SOL    HW213864   5.000   2.316   2.623
 4577SOL     OW13865   5.401   2.108   2.848
 4577SOL    HW113866   5.313   2.122   2.893
 4577SOL    HW213867   5.392   2.129   2.751
 4578SOL     OW13868   3.759   2.881   2.164
 4578SOL    HW113869   3.856   2.870   2.144
 4578SOL    HW213870   3.718   2.791   2.182
 4579SOL     OW13871   4.619   3.553   2.189
 4579SOL    HW113872   4.539   3.528   2.135
 4579SOL    HW213873   4.593   3.623   2.256
 4580SOL     OW13874   3.924   2.470   3.876
 4580SOL    HW113875   3.831   2.457   3.909
 4580SOL    HW213876   3.924   2.472   3.776
 4581SOL     OW13877   3.932   2.143   4.717
 4581SOL    HW113878   3.983   2.108   4.795
 4581SOL    HW213879   3.840   2.105   4.717
 4582SOL     OW13880   3.726   2.279   4.366
 4582SOL    HW113881   3.646   2.301   4.421
 4582SOL    HW213882   3.703   2.206   4.301
 4583SOL     OW13883   4.281   3.171   4.943
 4583SOL    HW113884   4.199   3.175   4.886
 4583SOL    HW213885   4.303   3.263   4.976
 4584SOL     OW13886   5.288   3.419   4.434
 4584SOL    HW113887   5.254   3.356   4.504
 4584SOL    HW213888   5.229   3.414   4.353
 4585SOL     OW13889   4.842   2.591   4.400
 4585SOL    HW113890   4.897   2.672   4.382
 4585SOL    HW213891   4.793   2.602   4.486
 4586SOL     OW13892   5.469   2.453   3.926
 4586SOL    HW113893   5.449   2.447   3.828
 4586SOL    HW213894   5.429   2.375   3.973
 4587SOL     OW13895   4.434   3.001   4.774
 4587SOL    HW113896   4.371   3.035   4.843
 4587SOL    HW213897   4.478   3.079   4.728
 4588SOL     OW13898   4.583   2.600   0.026
 4588SOL    HW113899   4.593   2.648   0.113
 4588SOL    HW213900   4.620   2.656   5.470
 4589SOL     OW13901   4.412   2.842   4.378
 4589SOL    HW113902   4.484   2.846   4.448
 4589SOL    HW213903   4.342   2.910   4.399
 4590SOL     OW13904   4.065   3.260   4.793
 4590SOL    HW113905   3.989   3.209   4.753
 4590SOL    HW213906   4.110   3.314   4.721
 4591SOL     OW13907   5.168   3.379   5.098
 4591SOL    HW113908   5.240   3.447   5.111
 4591SOL    HW213909   5.088   3.404   5.152
 4592SOL     OW13910   4.212   2.228   5.162
 4592SOL    HW113911   4.290   2.168   5.179
 4592SOL    HW213912   4.129   2.186   5.198
 4593SOL     OW13913   3.952   3.601   4.192
 4593SOL    HW113914   3.976   3.672   4.258
 4593SOL    HW213915   4.026   3.589   4.127
 4594SOL     OW13916   3.967   3.331   4.259
 4594SOL    HW113917   3.946   3.429   4.257
 4594SOL    HW213918   3.912   3.287   4.329
 4595SOL     OW13919   4.052   2.946   4.625
 4595SOL    HW113920   4.048   2.848   4.646
 4595SOL    HW213921   3.982   2.994   4.678
 4596SOL     OW13922   4.308   3.663   5.167
 4596SOL    HW113923   4.221   3.659   5.215
 4596SOL    HW213924   4.352   3.751   5.184
 4597SOL     OW13925   4.295   2.852   3.889
 4597SOL    HW113926   4.341   2.901   3.815
 4597SOL    HW213927   4.336   2.877   3.977
 4598SOL     OW13928   5.427   1.980   5.198
 4598SOL    HW113929   5.443   1.995   5.100
 4598SOL    HW213930   5.416   2.069   5.244
 4599SOL     OW13931   3.837   2.535   4.300
 4599SOL    HW113932   3.807   2.442   4.323
 4599SOL    HW213933   3.835   2.592   4.383
 4600SOL     OW13934   3.755   3.436   3.843
 4600SOL    HW113935   3.702   3.352   3.847
 4600SOL    HW213936   3.740   3.489   3.927
 4601SOL     OW13937   5.416   2.766   4.376
 4601SOL    HW113938   5.501   2.737   4.419
 4601SOL    HW213939   5.424   2.758   4.277
 4602SOL     OW13940   3.919   2.579   5.354
 4602SOL    HW113941   4.018   2.592   5.347
 4602SOL    HW213942   3.875   2.669   5.363
 4603SOL     OW13943   4.350   3.260   4.435
 4603SOL    HW113944   4.308   3.170   4.442
 4603SOL    HW213945   4.335   3.297   4.344
 4604SOL     OW13946   4.947   3.128   5.210
 4604SOL    HW113947   5.003   3.082   5.141
 4604SOL    HW213948   4.965   3.089   5.300
 4605SOL     OW13949   4.554   1.885   4.238
 4605SOL    HW113950   4.599   1.969   4.207
 4605SOL    HW213951   4.455   1.899   4.241
 4606SOL     OW13952   3.932   2.814   4.988
 4606SOL    HW113953   4.023   2.773   4.982
 4606SOL    HW213954   3.868   2.761   4.933
 4607SOL     OW13955   5.239   2.918   3.992
 4607SOL    HW113956   5.177   2.841   4.000
 4607SOL    HW213957   5.333   2.885   3.990
 4608SOL     OW13958   4.819   3.676   5.362
 4608SOL    HW113959   4.846   3.759   5.313
 4608SOL    HW213960   4.865   3.597   5.320
 4609SOL     OW13961   4.073   2.097   0.024
 4609SOL    HW113962   4.114   2.181   0.061
 4609SOL    HW213963   3.977   2.113   0.004
 4610SOL     OW13964   5.190   3.249   4.633
 4610SOL    HW113965   5.135   3.286   4.708
 4610SOL    HW213966   5.167   3.152   4.620
 4611SOL     OW13967   5.354   3.661   4.277
 4611SOL    HW113968   5.355   3.608   4.193
 4611SOL    HW213969   5.348   3.599   4.355
 4612SOL     OW13970   4.300   2.571   4.003
 4612SOL    HW113971   4.305   2.661   3.960
 4612SOL    HW213972   4.231   2.571   4.075
 4613SOL     OW13973   5.008   2.270   4.663
 4613SOL    HW113974   4.917   2.228   4.653
 4613SOL    HW213975   5.061   2.220   4.731
 4614SOL     OW13976   5.315   3.573   4.010
 4614SOL    HW113977   5.374   3.653   3.993
 4614SOL    HW213978   5.260   3.555   3.929
 4615SOL     OW13979   4.525   2.444   5.174
 4615SOL    HW113980   4.471   2.423   5.256
 4615SOL    HW213981   4.504   2.378   5.102
 4616SOL     OW13982   4.702   2.757   5.348
 4616SOL    HW113983   4.744   2.687   5.291
 4616SOL    HW213984   4.648   2.819   5.290
 4617SOL     OW13985   4.750   2.249   4.915
 4617SOL    HW113986   4.654   2.264   4.939
 4617SOL    HW213987   4.755   2.207   4.824
 4618SOL     OW13988   4.774   2.557   4.133
 4618SOL    HW113989   4.794   2.564   4.231
 4618SOL    HW213990   4.685   2.513   4.121
 4619SOL     OW13991   3.822   2.708   4.515
 4619SOL    HW113992   3.912   2.693   4.556
 4619SOL    HW213993   3.771   2.774   4.570
 4620SOL     OW13994   3.838   3.789   5.334
 4620SOL    HW113995   3.834   3.795   5.434
 4620SOL    HW213996   3.747   3.773   5.298
 4621SOL     OW13997   4.573   2.210   3.928
 4621SOL    HW113998   4.634   2.254   3.862
 4621SOL    HW213999   4.517   2.142   3.881
 4622SOL     OW14000   5.098   3.015   4.215
 4622SOL    HW114001   5.157   2.990   4.139
 4622SOL    HW214002   5.043   3.095   4.190
 4623SOL     OW14003   4.288   1.989   4.661
 4623SOL    HW114004   4.302   2.019   4.755
 4623SOL    HW214005   4.287   2.068   4.601
 4624SOL     OW14006   4.710   3.336   4.195
 4624SOL    HW114007   4.690   3.411   4.131
 4624SOL    HW214008   4.676   3.360   4.286
 4625SOL     OW14009   4.084   3.663   4.609
 4625SOL    HW114010   4.122   3.570   4.609
 4625SOL    HW214011   4.154   3.728   4.639
 4626SOL     OW14012   5.485   2.954   4.581
 4626SOL    HW114013   5.434   2.913   4.506
 4626SOL    HW214014   5.430   2.953   4.664
 4627SOL     OW14015   4.914   3.414   5.234
 4627SOL    HW114016   4.921   3.314   5.230
 4627SOL    HW214017   4.828   3.443   5.192
 4628SOL     OW14018   4.026   2.807   4.007
 4628SOL    HW114019   4.106   2.840   3.957
 4628SOL    HW214020   4.003   2.715   3.976
 4629SOL     OW14021   5.189   2.625   4.434
 4629SOL    HW114022   5.183   2.584   4.525
 4629SOL    HW214023   5.273   2.679   4.427
 4630SOL     OW14024   4.185   3.103   5.445
 4630SOL    HW114025   4.124   3.139   5.374
 4630SOL    HW214026   4.158   3.010   5.469
 4631SOL     OW14027   4.864   3.651   3.954
 4631SOL    HW114028   4.777   3.625   3.996
 4631SOL    HW214029   4.888   3.586   3.882
 4632SOL     OW14030   3.947   2.134   5.189
 4632SOL    HW114031   3.895   2.219   5.202
 4632SOL    HW214032   3.911   2.065   5.252
 4633SOL     OW14033   4.190   3.611   4.040
 4633SOL    HW114034   4.234   3.665   4.112
 4633SOL    HW214035   4.259   3.565   3.985
 4634SOL     OW14036   5.131   1.976   4.172
 4634SOL    HW114037   5.125   1.954   4.075
 4634SOL    HW214038   5.227   1.988   4.198
 4635SOL     OW14039   3.961   3.652   4.933
 4635SOL    HW114040   4.004   3.570   4.970
 4635SOL    HW214041   3.920   3.632   4.845
 4636SOL     OW14042   4.679   3.566   4.610
 4636SOL    HW114043   4.771   3.528   4.619
 4636SOL    HW214044   4.631   3.519   4.536
 4637SOL     OW14045   4.108   2.537   4.202
 4637SOL    HW114046   4.124   2.439   4.213
 4637SOL    HW214047   4.012   2.558   4.222
 4638SOL     OW14048   4.384   1.972   3.832
 4638SOL    HW114049   4.443   1.895   3.854
 4638SOL    HW214050   4.315   1.942   3.765
 4639SOL     OW14051   4.490   2.183   5.436
 4639SOL    HW114052   4.574   2.221   5.474
 4639SOL    HW214053   4.448   2.122   5.504
 4640SOL     OW14054   4.575   3.368   4.917
 4640SOL    HW114055   4.552   3.340   4.824
 4640SOL    HW214056   4.635   3.300   4.959
 4641SOL     OW14057   5.039   2.473   5.180
 4641SOL    HW114058   5.076   2.470   5.272
 4641SOL    HW214059   5.077   2.553   5.132
 4642SOL     OW14060   4.531   3.236   4.664
 4642SOL    HW114061   4.626   3.236   4.633
 4642SOL    HW214062   4.470   3.249   4.585
 4643SOL     OW14063   4.656   2.382   4.596
 4643SOL    HW114064   4.631   2.373   4.500
 4643SOL    HW214065   4.688   2.293   4.630
 4644SOL     OW14066   4.285   1.927   4.220
 4644SOL    HW114067   4.206   1.924   4.282
 4644SOL    HW214068   4.274   2.004   4.157
 4645SOL     OW14069   5.150   3.083   3.787
 4645SOL    HW114070   5.177   3.019   3.859
 4645SOL    HW214071   5.063   3.125   3.811
 4646SOL     OW14072   4.010   1.906   3.901
 4646SOL    HW114073   4.055   1.984   3.858
 4646SOL    HW214074   4.077   1.849   3.947
 4647SOL     OW14075   4.679   2.115   4.164
 4647SOL    HW114076   4.642   2.149   4.078
 4647SOL    HW214077   4.777   2.132   4.167
 4648SOL     OW14078   4.776   2.566   5.169
 4648SOL    HW114079   4.702   2.500   5.176
 4648SOL    HW214080   4.864   2.518   5.171
 4649SOL     OW14081   4.934   3.461   4.528
 4649SOL    HW114082   4.949   3.523   4.452
 4649SOL    HW214083   5.014   3.461   4.588
 4650SOL     OW14084   4.212   3.024   4.424
 4650SOL    HW114085   4.159   2.997   4.504
 4650SOL    HW214086   4.155   3.019   4.342
 4651SOL     OW14087   4.970   3.661   4.333
 4651SOL    HW114088   5.023   3.725   4.277
 4651SOL    HW214089   4.891   3.709   4.372
 4652SOL     OW14090   4.747   2.355   3.769
 4652SOL    HW114091   4.708   2.443   3.742
 4652SOL    HW214092   4.815   2.369   3.841
 4653SOL     OW14093   3.851   2.407   5.150
 4653SOL    HW114094   3.939   2.407   5.102
 4653SOL    HW214095   3.856   2.470   5.228
 4654SOL     OW14096   4.313   2.069   4.921
 4654SOL    HW114097   4.357   2.033   5.003
 4654SOL    HW214098   4.214   2.068   4.933
 4655SOL     OW14099   4.597   2.324   4.337
 4655SOL    HW114100   4.554   2.382   4.268
 4655SOL    HW214101   4.628   2.239   4.294
 4656SOL     OW14102   4.746   1.919   4.447
 4656SOL    HW114103   4.681   1.916   4.371
 4656SOL    HW214104   4.724   1.847   4.513
 4657SOL     OW14105   5.131   2.971   4.600
 4657SOL    HW114106   5.077   2.896   4.635
 4657SOL    HW214107   5.115   2.981   4.502
 4658SOL     OW14108   5.157   2.509   4.687
 4658SOL    HW114109   5.098   2.428   4.678
 4658SOL    HW214110   5.220   2.496   4.764
 4659SOL     OW14111   5.484   2.650   4.116
 4659SOL    HW114112   0.040   2.617   4.176
 4659SOL    HW214113   5.476   2.588   4.037
 4660SOL     OW14114   4.224   3.288   3.878
 4660SOL    HW114115   4.144   3.257   3.930
 4660SOL    HW214116   4.221   3.247   3.786
 4661SOL     OW14117   5.107   2.435   3.785
 4661SOL    HW114118   5.047   2.410   3.861
 4661SOL    HW214119   5.202   2.416   3.810
 4662SOL     OW14120   4.248   2.117   4.028
 4662SOL    HW114121   4.300   2.066   3.959
 4662SOL    HW214122   4.216   2.203   3.989
 4663SOL     OW14123   5.398   3.031   5.256
 4663SOL    HW114124   5.497   3.033   5.239
 4663SOL    HW214125   5.378   3.085   5.338
 4664SOL     OW14126   4.723   3.177   5.051
 4664SOL    HW114127   4.634   3.154   5.091
 4664SOL    HW214128   4.795   3.157   5.117
 4665SOL     OW14129   4.885   3.133   4.838
 4665SOL    HW114130   4.815   3.146   4.909
 4665SOL    HW214131   4.847   3.157   4.749
 4666SOL     OW14132   5.323   2.949   4.807
 4666SOL    HW114133   5.307   3.009   4.885
 4666SOL    HW214134   5.245   2.954   4.744
 4667SOL     OW14135   4.666   1.937   5.090
 4667SOL    HW114136   4.691   1.928   4.994
 4667SOL    HW214137   4.740   1.983   5.139
 4668SOL     OW14138   4.448   2.917   4.113
 4668SOL    HW114139   4.433   2.888   4.207
 4668SOL    HW214140   4.521   2.862   4.072
 4669SOL     OW14141   4.172   2.675   4.982
 4669SOL    HW114142   4.247   2.688   5.047
 4669SOL    HW214143   4.134   2.583   4.992
 4670SOL     OW14144   4.982   2.234   5.053
 4670SOL    HW114145   5.008   2.320   5.095
 4670SOL    HW214146   4.897   2.246   5.002
 4671SOL     OW14147   3.788   3.426   5.105
 4671SOL    HW114148   3.742   3.495   5.049
 4671SOL    HW214149   3.887   3.435   5.093
 4672SOL     OW14150   4.036   3.003   4.211
 4672SOL    HW114151   4.035   3.079   4.147
 4672SOL    HW214152   4.034   2.917   4.161
 4673SOL     OW14153   4.249   2.407   4.606
 4673SOL    HW114154   4.258   2.464   4.525
 4673SOL    HW214155   4.327   2.422   4.666
 4674SOL     OW14156   4.960   3.242   4.126
 4674SOL    HW114157   5.024   3.313   4.154
 4674SOL    HW214158   4.868   3.266   4.158
 4675SOL     OW14159   5.051   3.349   4.848
 4675SOL    HW114160   5.101   3.358   4.934
 4675SOL    HW214161   4.990   3.270   4.853
 4676SOL     OW14162   5.313   2.457   4.243
 4676SOL    HW114163   5.243   2.492   4.305
 4676SOL    HW214164   5.355   2.533   4.195
 4677SOL     OW14165   4.057   3.400   5.026
 4677SOL    HW114166   4.047   3.345   4.943
 4677SOL    HW214167   4.154   3.420   5.041
 4678SOL     OW14168   4.193   2.625   5.358
 4678SOL    HW114169   4.242   2.662   5.279
 4678SOL    HW214170   4.243   2.546   5.395
 4679SOL     OW14171   5.343   2.569   5.448
 4679SOL    HW114172   5.252   2.603   5.468
 4679SOL    HW214173   5.386   2.627   5.379
 4680SOL     OW14174   4.335   2.733   4.763
 4680SOL    HW114175   4.362   2.830   4.760
 4680SOL    HW214176   4.267   2.720   4.836
 4681SOL     OW14177   5.004   2.742   4.702
 4681SOL    HW114178   4.910   2.712   4.685
 4681SOL    HW214179   5.064   2.662   4.699
 4682SOL     OW14180   4.923   2.381   3.983
 4682SOL    HW114181   4.937   2.301   4.042
 4682SOL    HW214182   4.877   2.453   4.035
 4683SOL     OW14183   4.041   2.045   4.950
 4683SOL    HW114184   4.015   2.083   5.039
 4683SOL    HW214185   4.019   1.948   4.947
 4684SOL     OW14186   3.805   3.175   4.982
 4684SOL    HW114187   3.820   3.103   5.049
 4684SOL    HW214188   3.784   3.261   5.028
 4685SOL     OW14189   4.459   2.489   4.766
 4685SOL    HW114190   4.527   2.470   4.695
 4685SOL    HW214191   4.423   2.581   4.753
 4686SOL     OW14192   4.053   1.921   4.367
 4686SOL    HW114193   4.016   2.012   4.385
 4686SOL    HW214194   4.062   1.871   4.453
 4687SOL     OW14195   5.326   2.254   4.051
 4687SOL    HW114196   5.356   2.172   4.101
 4687SOL    HW214197   5.295   2.323   4.117
 4688SOL     OW14198   4.745   2.630   4.675
 4688SOL    HW114199   4.725   2.646   4.771
 4688SOL    HW214200   4.722   2.535   4.652
 4689SOL     OW14201   4.574   3.420   5.439
 4689SOL    HW114202   4.618   3.474   5.367
 4689SOL    HW214203   4.501   3.364   5.399
 4690SOL     OW14204   4.110   2.841   5.510
 4690SOL    HW114205   4.144   2.826   0.086
 4690SOL    HW214206   4.138   2.764   5.452
 4691SOL     OW14207   5.278   2.119   3.809
 4691SOL    HW114208   5.213   2.049   3.835
 4691SOL    HW214209   5.298   2.177   3.888
 4692SOL     OW14210   5.003   2.684   3.737
 4692SOL    HW114211   5.038   2.591   3.748
 4692SOL    HW214212   5.030   2.719   3.647
 4693SOL     OW14213   4.794   3.227   4.593
 4693SOL    HW114214   4.808   3.145   4.537
 4693SOL    HW214215   4.847   3.303   4.556
 4694SOL     OW14216   4.057   2.669   4.654
 4694SOL    HW114217   4.154   2.672   4.631
 4694SOL    HW214218   4.035   2.579   4.692
 4695SOL     OW14219   4.019   2.398   4.740
 4695SOL    HW114220   3.974   2.310   4.727
 4695SOL    HW214221   4.103   2.400   4.686
 4696SOL     OW14222   4.873   2.059   5.238
 4696SOL    HW114223   4.881   2.107   5.325
 4696SOL    HW214224   4.921   2.110   5.167
 4697SOL     OW14225   3.750   3.140   3.916
 4697SOL    HW114226   3.658   3.169   3.889
 4697SOL    HW214227   3.746   3.046   3.952
 4698SOL     OW14228   3.823   3.629   4.686
 4698SOL    HW114229   3.778   3.558   4.632
 4698SOL    HW214230   3.915   3.646   4.648
 4699SOL     OW14231   4.211   3.417   4.618
 4699SOL    HW114232   4.285   3.476   4.652
 4699SOL    HW214233   4.247   3.356   4.547
 4700SOL     OW14234   4.663   2.662   4.934
 4700SOL    HW114235   4.715   2.638   5.016
 4700SOL    HW214236   4.579   2.607   4.932
 4701SOL     OW14237   3.786   2.490   4.879
 4701SOL    HW114238   3.865   2.465   4.823
 4701SOL    HW214239   3.806   2.469   4.975
 4702SOL     OW14240   4.531   2.438   4.087
 4702SOL    HW114241   4.536   2.355   4.031
 4702SOL    HW214242   4.451   2.491   4.060
 4703SOL     OW14243   4.007   3.418   5.421
 4703SOL    HW114244   3.934   3.414   5.490
 4703SOL    HW214245   4.006   3.334   5.367
 4704SOL     OW14246   4.479   2.291   4.951
 4704SOL    HW114247   4.415   2.216   4.937
 4704SOL    HW214248   4.463   2.363   4.883
 4705SOL     OW14249   4.673   3.513   5.142
 4705SOL    HW114250   4.634   3.471   5.060
 4705SOL    HW214251   4.662   3.612   5.138
 4706SOL     OW14252   4.165   2.346   3.900
 4706SOL    HW114253   4.233   2.415   3.923
 4706SOL    HW214254   4.074   2.386   3.900
 4707SOL     OW14255   3.869   2.985   5.188
 4707SOL    HW114256   3.857   2.932   5.272
 4707SOL    HW214257   3.894   2.924   5.113
 4708SOL     OW14258   5.010   2.901   4.926
 4708SOL    HW114259   5.007   2.838   4.849
 4708SOL    HW214260   4.970   2.989   4.898
 4709SOL     OW14261   5.055   2.719   4.008
 4709SOL    HW114262   4.977   2.692   4.064
 4709SOL    HW214263   5.031   2.710   3.911
 4710SOL     OW14264   5.446   3.576   4.853
 4710SOL    HW114265   0.006   3.594   4.793
 4710SOL    HW214266   5.422   3.479   4.849
 4711SOL     OW14267   4.981   3.615   4.818
 4711SOL    HW114268   5.069   3.658   4.797
 4711SOL    HW214269   4.995   3.517   4.833
 4712SOL     OW14270   3.846   3.095   4.725
 4712SOL    HW114271   3.825   3.126   4.818
 4712SOL    HW214272   3.774   3.034   4.693
 4713SOL     OW14273   5.425   2.038   4.201
 4713SOL    HW114274   5.490   2.030   4.125
 4713SOL    HW214275   5.419   1.951   4.249
 4714SOL     OW14276   5.121   3.456   4.206
 4714SOL    HW114277   5.176   3.494   4.131
 4714SOL    HW214278   5.061   3.526   4.243
 4715SOL     OW14279   4.999   2.810   4.361
 4715SOL    HW114280   5.073   2.745   4.382
 4715SOL    HW214281   5.034   2.880   4.299
 4716SOL     OW14282   4.470   3.122   5.136
 4716SOL    HW114283   4.442   3.177   5.214
 4716SOL    HW214284   4.400   3.127   5.065
 4717SOL     OW14285   4.395   3.498   3.888
 4717SOL    HW114286   4.409   3.523   3.792
 4717SOL    HW214287   4.341   3.414   3.893
 4718SOL     OW14288   5.368   3.577   5.120
 4718SOL    HW114289   5.394   3.582   5.023
 4718SOL    HW214290   5.377   3.667   5.162
 4719SOL     OW14291   3.966   2.167   4.441
 4719SOL    HW114292   3.882   2.213   4.411
 4719SOL    HW214293   3.966   2.162   4.541
 4720SOL     OW14294   4.921   3.462   3.764
 4720SOL    HW114295   4.917   3.368   3.798
 4720SOL    HW214296   4.850   3.476   3.695
 4721SOL     OW14297   4.569   2.871   5.135
 4721SOL    HW114298   4.612   2.850   5.047
 4721SOL    HW214299   4.533   2.965   5.133
 4722SOL     OW14300   4.642   2.766   4.002
 4722SOL    HW114301   4.701   2.808   3.934
 4722SOL    HW214302   4.693   2.695   4.052
 4723SOL     OW14303   5.183   3.553   3.771
 4723SOL    HW114304   5.091   3.517   3.756
 4723SOL    HW214305   5.241   3.531   3.692
 4724SOL     OW14306   4.029   3.205   5.243
 4724SOL    HW114307   4.036   3.265   5.164
 4724SOL    HW214308   3.972   3.126   5.221
 4725SOL     OW14309   5.276   3.127   5.022
 4725SOL    HW114310   5.321   3.085   5.101
 4725SOL    HW214311   5.237   3.215   5.050
 4726SOL     OW14312   4.812   2.987   4.470
 4726SOL    HW114313   4.731   2.939   4.503
 4726SOL    HW214314   4.874   2.922   4.425
 4727SOL     OW14315   4.767   2.116   4.662
 4727SOL    HW114316   4.763   2.079   4.569
 4727SOL    HW214317   4.761   2.042   4.728
 4728SOL     OW14318   4.325   3.355   4.185
 4728SOL    HW114319   4.383   3.297   4.128
 4728SOL    HW214320   4.238   3.370   4.139
 4729SOL     OW14321   4.002   3.209   4.025
 4729SOL    HW114322   3.913   3.192   3.982
 4729SOL    HW214323   3.989   3.263   4.108
 4730SOL     OW14324   3.846   2.840   5.421
 4730SOL    HW114325   3.768   2.842   5.484
 4730SOL    HW214326   3.930   2.854   5.473
 4731SOL     OW14327   4.435   2.049   5.195
 4731SOL    HW114328   4.519   2.011   5.156
 4731SOL    HW214329   4.457   2.098   5.279
 4732SOL     OW14330   3.805   2.184   3.724
 4732SOL    HW114331   3.730   2.167   3.659
 4732SOL    HW214332   3.833   2.280   3.717
 4733SOL     OW14333   5.146   2.696   5.059
 4733SOL    HW114334   5.091   2.772   5.025
 4733SOL    HW214335   5.243   2.715   5.046
 4734SOL     OW14336   3.768   2.015   3.962
 4734SOL    HW114337   3.751   2.082   3.889
 4734SOL    HW214338   3.860   1.977   3.952
 4735SOL     OW14339   4.899   3.201   3.855
 4735SOL    HW114340   4.802   3.178   3.845
 4735SOL    HW214341   4.921   3.206   3.952
 4736SOL     OW14342   4.378   2.680   5.158
 4736SOL    HW114343   4.442   2.757   5.156
 4736SOL    HW214344   4.430   2.594   5.164
 4737SOL     OW14345   5.226   3.722   4.770
 4737SOL    HW114346   5.270   3.789   4.711
 4737SOL    HW214347   5.295   3.657   4.804
 4738SOL     OW14348   4.390   2.441   5.421
 4738SOL    HW114349   4.454   2.496   5.474
 4738SOL    HW214350   4.407   2.344   5.436
 4739SOL     OW14351   4.075   3.649   5.299
 4739SOL    HW114352   3.993   3.706   5.303
 4739SOL    HW214353   4.058   3.563   5.348
 4740SOL     OW14354   5.421   2.741   4.980
 4740SOL    HW114355   5.439   2.653   4.936
 4740SOL    HW214356   5.394   2.807   4.910
 4741SOL     OW14357   4.946   2.183   4.176
 4741SOL    HW114358   5.012   2.108   4.178
 4741SOL    HW214359   4.959   2.241   4.257
 4742SOL     OW14360   4.277   2.600   4.414
 4742SOL    HW114361   4.331   2.682   4.397
 4742SOL    HW214362   4.218   2.582   4.336
 4743SOL     OW14363   5.444   2.239   5.314
 4743SOL    HW114364   5.488   2.303   5.251
 4743SOL    HW214365   5.370   2.285   5.362
 4744SOL     OW14366   5.450   2.747   5.257
 4744SOL    HW114367   5.424   2.841   5.279
 4744SOL    HW214368   5.446   2.733   5.158
 4745SOL     OW14369   4.608   3.218   3.812
 4745SOL    HW114370   4.565   3.218   3.902
 4745SOL    HW214371   4.597   3.308   3.770
 4746SOL     OW14372   4.404   3.597   4.674
 4746SOL    HW114373   4.376   3.692   4.669
 4746SOL    HW214374   4.504   3.591   4.665
 4747SOL     OW14375   4.597   2.854   4.587
 4747SOL    HW114376   4.644   2.772   4.621
 4747SOL    HW214377   4.544   2.895   4.661
 4748SOL     OW14378   4.800   2.855   3.806
 4748SOL    HW114379   4.768   2.910   3.730
 4748SOL    HW214380   4.875   2.796   3.776
 4749SOL     OW14381   0.034   3.416   4.530
 4749SOL    HW114382   5.458   3.420   4.494
 4749SOL    HW214383   0.073   3.326   4.514
 4750SOL     OW14384   3.847   3.109   4.403
 4750SOL    HW114385   3.878   3.087   4.496
 4750SOL    HW214386   3.907   3.064   4.337
 4751SOL     OW14387   4.366   3.279   5.335
 4751SOL    HW114388   4.310   3.213   5.384
 4751SOL    HW214389   4.307   3.349   5.294
 4752SOL     OW14390   5.468   1.992   4.929
 4752SOL    HW114391   5.481   1.895   4.907
 4752SOL    HW214392   5.438   2.041   4.847
 4753SOL     OW14393   4.135   2.273   4.243
 4753SOL    HW114394   4.171   2.203   4.182
 4753SOL    HW214395   4.083   2.230   4.316
 4754SOL     OW14396   5.380   3.318   4.829
 4754SOL    HW114397   5.329   3.289   4.748
 4754SOL    HW214398   5.384   3.242   4.894
 4755SOL     OW14399   4.085   2.417   5.011
 4755SOL    HW114400   4.143   2.350   5.058
 4755SOL    HW214401   4.078   2.392   4.914
 4756SOL     OW14402   4.551   3.456   4.398
 4756SOL    HW114403   4.518   3.526   4.335
 4756SOL    HW214404   4.479   3.388   4.413
 4757SOL     OW14405   5.138   2.124   4.853
 4757SOL    HW114406   5.146   2.025   4.860
 4757SOL    HW214407   5.092   2.160   4.934
 4758SOL     OW14408   4.747   1.889   4.823
 4758SOL    HW114409   4.689   1.830   4.768
 4758SOL    HW214410   4.838   1.848   4.832
 4759SOL     OW14411   4.509   3.186   4.066
 4759SOL    HW114412   4.486   3.090   4.083
 4759SOL    HW214413   4.587   3.212   4.122
 4760SOL     OW14414   4.334   3.427   5.039
 4760SOL    HW114415   4.330   3.516   5.083
 4760SOL    HW214416   4.421   3.417   4.991
 4761SOL     OW14417   5.106   1.919   3.900
 4761SOL    HW114418   5.144   1.845   3.844
 4761SOL    HW214419   5.011   1.898   3.922
 4762SOL     OW14420   4.978   2.344   4.393
 4762SOL    HW114421   4.930   2.432   4.391
 4762SOL    HW214422   4.999   2.320   4.488
 4763SOL     OW14423   5.362   2.099   4.693
 4763SOL    HW114424   5.283   2.130   4.746
 4763SOL    HW214425   5.365   2.151   4.607
 4764SOL     OW14426   3.760   2.888   4.043
 4764SOL    HW114427   3.858   2.875   4.026
 4764SOL    HW214428   3.716   2.799   4.054
 4765SOL     OW14429   4.618   3.555   4.051
 4765SOL    HW114430   4.538   3.530   3.997
 4765SOL    HW214431   4.592   3.625   4.118
 4766SOL     OW14432   3.887   4.278   0.057
 4766SOL    HW114433   3.805   4.307   0.106
 4766SOL    HW214434   3.899   4.336   5.493
 4767SOL     OW14435   3.939   4.005   0.988
 4767SOL    HW114436   3.975   3.973   1.075
 4767SOL    HW214437   3.850   3.962   0.972
 4768SOL     OW14438   3.701   4.141   0.634
 4768SOL    HW114439   3.616   4.159   0.683
 4768SOL    HW214440   3.684   4.076   0.560
 4769SOL     OW14441   4.293   5.016   1.212
 4769SOL    HW114442   4.206   5.017   1.163
 4769SOL    HW214443   4.312   5.107   1.250
 4770SOL     OW14444   5.288   5.275   0.718
 4770SOL    HW114445   5.227   5.216   0.770
 4770SOL    HW214446   5.244   5.302   0.632
 4771SOL     OW14447   4.832   4.451   0.676
 4771SOL    HW114448   4.889   4.529   0.650
 4771SOL    HW214449   4.793   4.467   0.767
 4772SOL     OW14450   5.447   4.347   0.171
 4772SOL    HW114451   5.405   4.370   0.084
 4772SOL    HW214452   5.406   4.264   0.208
 4773SOL     OW14453   4.443   4.855   1.040
 4773SOL    HW114454   4.382   4.888   1.112
 4773SOL    HW214455   4.483   4.933   0.992
 4774SOL     OW14456   4.609   4.451   1.850
 4774SOL    HW114457   4.603   4.509   1.931
 4774SOL    HW214458   4.627   4.507   1.769
 4775SOL     OW14459   4.415   4.695   0.652
 4775SOL    HW114460   4.485   4.692   0.723
 4775SOL    HW214461   4.350   4.768   0.673
 4776SOL     OW14462   4.407   4.887   1.832
 4776SOL    HW114463   4.457   4.960   1.877
 4776SOL    HW214464   4.328   4.925   1.785
 4777SOL     OW14465   4.069   5.114   1.072
 4777SOL    HW114466   3.994   5.066   1.027
 4777SOL    HW214467   4.118   5.170   1.006
 4778SOL     OW14468   5.176   5.187   1.426
 4778SOL    HW114469   5.237   5.232   1.491
 4778SOL    HW214470   5.082   5.191   1.460
 4779SOL     OW14471   4.198   4.081   1.442
 4779SOL    HW114472   4.276   4.021   1.460
 4779SOL    HW214473   4.115   4.038   1.478
 4780SOL     OW14474   4.829   5.059   1.734
 4780SOL    HW114475   4.878   5.053   1.821
 4780SOL    HW214476   4.769   4.980   1.724
 4781SOL     OW14477   3.943   5.265   0.539
 4781SOL    HW114478   3.960   5.355   0.580
 4781SOL    HW214479   3.915   5.201   0.610
 4782SOL     OW14480   4.070   4.807   0.907
 4782SOL    HW114481   4.060   4.708   0.920
 4782SOL    HW214482   3.992   4.854   0.948
 4783SOL     OW14483   4.286   4.681   0.204
 4783SOL    HW114484   4.331   4.703   0.117
 4783SOL    HW214485   4.343   4.713   0.279
 4784SOL     OW14486   5.400   3.810   1.495
 4784SOL    HW114487   5.419   3.852   1.407
 4784SOL    HW214488   5.345   3.872   1.551
 4785SOL     OW14489   3.817   4.394   0.585
 4785SOL    HW114490   3.780   4.304   0.604
 4785SOL    HW214491   3.819   4.448   0.669
 4786SOL     OW14492   3.831   5.290   0.080
 4786SOL    HW114493   3.805   5.207   0.129
 4786SOL    HW214494   3.869   5.357   0.144
 4787SOL     OW14495   5.421   4.633   0.640
 4787SOL    HW114496   5.504   4.596   0.680
 4787SOL    HW214497   5.427   4.627   0.540
 4788SOL     OW14498   3.831   4.497   1.560
 4788SOL    HW114499   3.909   4.558   1.570
 4788SOL    HW214500   3.750   4.551   1.537
 4789SOL     OW14501   4.360   5.137   0.718
 4789SOL    HW114502   4.319   5.046   0.718
 4789SOL    HW214503   4.344   5.181   0.629
 4790SOL     OW14504   4.955   4.918   1.428
 4790SOL    HW114505   4.983   4.848   1.363
 4790SOL    HW214506   5.019   4.918   1.505
 4791SOL     OW14507   4.543   3.741   0.528
 4791SOL    HW114508   4.593   3.824   0.503
 4791SOL    HW214509   4.444   3.758   0.521
 4792SOL     OW14510   3.927   4.664   1.302
 4792SOL    HW114511   4.018   4.627   1.286
 4792SOL    HW214512   3.862   4.621   1.239
 4793SOL     OW14513   5.246   4.800   0.273
 4793SOL    HW114514   5.195   4.715   0.279
 4793SOL    HW214515   5.343   4.781   0.253
 4794SOL     OW14516   4.841   5.471   1.602
 4794SOL    HW114517   4.863   0.034   1.546
 4794SOL    HW214518   4.881   5.390   1.560
 4795SOL     OW14519   4.093   3.988   1.880
 4795SOL    HW114520   4.129   4.071   1.924
 4795SOL    HW214521   4.000   4.005   1.848
 4796SOL     OW14522   5.140   5.128   0.901
 4796SOL    HW114523   5.112   5.144   0.996
 4796SOL    HW214524   5.135   5.030   0.881
 4797SOL     OW14525   4.270   4.407   0.279
 4797SOL    HW114526   4.286   4.499   0.244
 4797SOL    HW214527   4.203   4.410   0.353
 4798SOL     OW14528   5.011   4.134   0.939
 4798SOL    HW114529   4.920   4.094   0.936
 4798SOL    HW214530   5.070   4.078   0.998
 4799SOL     OW14531   5.354   5.424   0.287
 4799SOL    HW114532   5.426   5.491   0.276
 4799SOL    HW214533   5.311   5.407   0.198
 4800SOL     OW14534   4.526   4.298   1.443
 4800SOL    HW114535   4.493   4.274   1.534
 4800SOL    HW214536   4.498   4.227   1.378
 4801SOL     OW14537   5.101   4.212   1.668
 4801SOL    HW114538   5.105   4.258   1.757
 4801SOL    HW214539   5.165   4.135   1.668
 4802SOL     OW14540   4.666   4.595   1.614
 4802SOL    HW114541   4.726   4.530   1.567
 4802SOL    HW214542   4.612   4.645   1.546
 4803SOL     OW14543   4.734   4.105   1.189
 4803SOL    HW114544   4.638   4.114   1.217
 4803SOL    HW214545   4.739   4.060   1.100
 4804SOL     OW14546   4.734   4.406   0.418
 4804SOL    HW114547   4.760   4.414   0.514
 4804SOL    HW214548   4.648   4.355   0.411
 4805SOL     OW14549   3.822   4.569   0.795
 4805SOL    HW114550   3.912   4.555   0.838
 4805SOL    HW214551   3.769   4.635   0.848
 4806SOL     OW14552   3.851   0.066   1.650
 4806SOL    HW114553   3.862   0.037   1.745
 4806SOL    HW214554   3.773   0.018   1.609
 4807SOL     OW14555   4.603   4.016   0.217
 4807SOL    HW114556   4.638   4.091   0.161
 4807SOL    HW214557   4.608   3.930   0.166
 4808SOL     OW14558   5.402   4.279   1.806
 4808SOL    HW114559   5.370   4.368   1.773
 4808SOL    HW214560   5.442   4.228   1.730
 4809SOL     OW14561   5.119   4.883   0.515
 4809SOL    HW114562   5.173   4.859   0.434
 4809SOL    HW214563   5.073   4.971   0.500
 4810SOL     OW14564   4.281   3.852   0.933
 4810SOL    HW114565   4.286   3.876   1.030
 4810SOL    HW214566   4.278   3.935   0.878
 4811SOL     OW14567   4.741   5.191   0.462
 4811SOL    HW114568   4.698   5.217   0.376
 4811SOL    HW214569   4.695   5.236   0.538
 4812SOL     OW14570   4.109   5.509   0.874
 4812SOL    HW114571   4.160   5.428   0.902
 4812SOL    HW214572   4.159   0.074   0.901
 4813SOL     OW14573   5.493   4.806   0.852
 4813SOL    HW114574   5.446   4.770   0.772
 4813SOL    HW214575   5.429   4.809   0.929
 4814SOL     OW14576   4.911   5.215   1.517
 4814SOL    HW114577   4.896   5.156   1.596
 4814SOL    HW214578   4.853   5.186   1.441
 4815SOL     OW14579   4.047   4.676   0.357
 4815SOL    HW114580   4.130   4.686   0.302
 4815SOL    HW214581   4.046   4.586   0.400
 4816SOL     OW14582   5.194   4.493   0.711
 4816SOL    HW114583   5.194   4.449   0.800
 4816SOL    HW214584   5.278   4.546   0.700
 4817SOL     OW14585   4.188   5.025   1.731
 4817SOL    HW114586   4.159   5.028   1.636
 4817SOL    HW214587   4.109   5.011   1.790
 4818SOL     OW14588   4.856   0.012   0.205
 4818SOL    HW114589   4.827   5.505   0.297
 4818SOL    HW214590   4.890   5.447   0.158
 4819SOL     OW14591   3.940   3.982   1.495
 4819SOL    HW114592   3.883   4.062   1.514
 4819SOL    HW214593   3.904   3.902   1.544
 4820SOL     OW14594   5.120   3.829   0.460
 4820SOL    HW114595   5.112   3.820   0.361
 4820SOL    HW214596   5.208   3.791   0.490
 4821SOL     OW14597   4.073   4.413   0.479
 4821SOL    HW114598   4.102   4.318   0.487
 4821SOL    HW214599   3.979   4.421   0.513
 4822SOL     OW14600   5.246   3.970   1.674
 4822SOL    HW114601   5.268   3.976   1.771
 4822SOL    HW214602   5.167   3.909   1.662
 4823SOL     OW14603   4.378   3.851   0.085
 4823SOL    HW114604   4.461   3.796   0.076
 4823SOL    HW214605   4.303   3.807   0.036
 4824SOL     OW14606   4.494   3.992   1.746
 4824SOL    HW114607   4.581   3.942   1.747
 4824SOL    HW214608   4.434   3.956   1.818
 4825SOL     OW14609   4.588   5.251   1.175
 4825SOL    HW114610   4.566   5.202   1.091
 4825SOL    HW214611   4.651   5.196   1.231
 4826SOL     OW14612   5.034   4.322   1.427
 4826SOL    HW114613   5.064   4.291   1.517
 4826SOL    HW214614   5.075   4.410   1.406
 4827SOL     OW14615   4.530   5.104   0.939
 4827SOL    HW114616   4.625   5.095   0.910
 4827SOL    HW214617   4.472   5.117   0.859
 4828SOL     OW14618   4.648   4.234   0.880
 4828SOL    HW114619   4.621   4.226   0.784
 4828SOL    HW214620   4.683   4.146   0.913
 4829SOL     OW14621   4.278   3.793   0.480
 4829SOL    HW114622   4.198   3.792   0.540
 4829SOL    HW214623   4.273   3.871   0.418
 4830SOL     OW14624   5.041   4.863   0.070
 4830SOL    HW114625   5.120   4.843   0.128
 4830SOL    HW214626   4.999   4.949   0.100
 4831SOL     OW14627   4.017   3.757   0.199
 4831SOL    HW114628   4.056   3.822   0.134
 4831SOL    HW214629   4.087   3.690   0.225
 4832SOL     OW14630   4.684   3.968   0.470
 4832SOL    HW114631   4.650   3.987   0.377
 4832SOL    HW214632   4.782   3.988   0.474
 4833SOL     OW14633   4.775   4.421   1.429
 4833SOL    HW114634   4.700   4.356   1.438
 4833SOL    HW214635   4.862   4.372   1.427
 4834SOL     OW14636   4.935   5.290   0.803
 4834SOL    HW114637   4.931   5.372   0.860
 4834SOL    HW214638   5.016   5.237   0.828
 4835SOL     OW14639   4.232   4.894   0.708
 4835SOL    HW114640   4.181   4.863   0.788
 4835SOL    HW214641   4.169   4.903   0.630
 4836SOL     OW14642   4.693   4.210   0.054
 4836SOL    HW114643   4.656   4.302   0.037
 4836SOL    HW214644   4.775   4.217   0.111
 4837SOL     OW14645   3.835   4.281   1.393
 4837SOL    HW114646   3.930   4.272   1.364
 4837SOL    HW214647   3.827   4.358   1.458
 4838SOL     OW14648   4.288   3.910   1.199
 4838SOL    HW114649   4.323   3.839   1.261
 4838SOL    HW214650   4.191   3.923   1.216
 4839SOL     OW14651   4.583   4.179   0.623
 4839SOL    HW114652   4.527   4.227   0.555
 4839SOL    HW214653   4.622   4.097   0.582
 4840SOL     OW14654   4.740   3.775   0.735
 4840SOL    HW114655   4.671   3.772   0.663
 4840SOL    HW214656   4.721   3.703   0.802
 4841SOL     OW14657   5.131   4.854   0.840
 4841SOL    HW114658   5.062   4.786   0.864
 4841SOL    HW214659   5.136   4.864   0.741
 4842SOL     OW14660   5.177   4.368   0.962
 4842SOL    HW114661   5.119   4.287   0.958
 4842SOL    HW214662   5.247   4.355   1.033
 4843SOL     OW14663   5.485   4.530   0.371
 4843SOL    HW114664   0.034   4.488   0.433
 4843SOL    HW214665   5.469   4.470   0.293
 4844SOL     OW14666   4.211   5.149   0.152
 4844SOL    HW114667   4.136   5.136   0.218
 4844SOL    HW214668   4.200   5.083   0.077
 4845SOL     OW14669   5.041   4.236   0.046
 4845SOL    HW114670   4.984   4.236   0.128
 4845SOL    HW214671   5.105   4.159   0.049
 4846SOL     OW14672   4.263   3.998   0.299
 4846SOL    HW114673   4.316   3.948   0.230
 4846SOL    HW214674   4.210   4.070   0.254
 4847SOL     OW14675   5.421   4.947   1.565
 4847SOL    HW114676   5.517   4.934   1.540
 4847SOL    HW214677   5.407   5.043   1.592
 4848SOL     OW14678   4.743   5.065   1.339
 4848SOL    HW114679   4.653   5.035   1.372
 4848SOL    HW214680   4.814   5.008   1.379
 4849SOL     OW14681   5.332   5.308   1.661
 4849SOL    HW114682   5.356   5.394   1.616
 4849SOL    HW214683   5.399   5.288   1.733
 4850SOL     OW14684   4.869   4.973   1.112
 4850SOL    HW114685   4.805   5.004   1.181
 4850SOL    HW214686   4.837   5.001   1.021
 4851SOL     OW14687   5.312   4.820   1.059
 4851SOL    HW114688   5.305   4.897   1.123
 4851SOL    HW214689   5.237   4.825   0.993
 4852SOL     OW14690   4.660   3.793   1.375
 4852SOL    HW114691   4.679   3.782   1.277
 4852SOL    HW214692   4.738   3.838   1.419
 4853SOL     OW14693   4.670   4.831   1.750
 4853SOL    HW114694   4.575   4.849   1.774
 4853SOL    HW214695   4.676   4.747   1.697
 4854SOL     OW14696   4.469   4.754   0.388
 4854SOL    HW114697   4.458   4.727   0.484
 4854SOL    HW214698   4.547   4.704   0.349
 4855SOL     OW14699   4.167   4.532   1.263
 4855SOL    HW114700   4.237   4.541   1.333
 4855SOL    HW214701   4.130   4.439   1.265
 4856SOL     OW14702   4.982   4.089   1.295
 4856SOL    HW114703   5.008   4.175   1.339
 4856SOL    HW214704   4.891   4.098   1.255
 4857SOL     OW14705   3.800   5.275   1.346
 4857SOL    HW114706   3.760   5.343   1.284
 4857SOL    HW214707   3.900   5.282   1.341
 4858SOL     OW14708   4.043   4.908   0.511
 4858SOL    HW114709   4.035   4.982   0.444
 4858SOL    HW214710   4.039   4.820   0.463
 4859SOL     OW14711   4.251   4.253   0.866
 4859SOL    HW114712   4.263   4.312   0.786
 4859SOL    HW214713   4.326   4.270   0.931
 4860SOL     OW14714   5.007   5.129   0.443
 4860SOL    HW114715   5.063   5.210   0.461
 4860SOL    HW214716   4.912   5.149   0.465
 4861SOL     OW14717   5.049   5.175   1.161
 4861SOL    HW114718   5.096   5.177   1.249
 4861SOL    HW214719   4.990   5.094   1.157
 4862SOL     OW14720   5.313   4.330   0.511
 4862SOL    HW114721   5.245   4.361   0.578
 4862SOL    HW214722   5.341   4.407   0.454
 4863SOL     OW14723   4.071   5.256   1.304
 4863SOL    HW114724   4.062   5.206   1.217
 4863SOL    HW214725   4.167   5.280   1.318
 4864SOL     OW14726   4.207   4.419   1.655
 4864SOL    HW114727   4.243   4.469   1.577
 4864SOL    HW214728   4.275   4.352   1.687
 4865SOL     OW14729   5.324   4.515   1.704
 4865SOL    HW114730   5.231   4.550   1.696
 4865SOL    HW214731   5.383   4.562   1.638
 4866SOL     OW14732   4.724   3.848   1.757
 4866SOL    HW114733   4.780   3.930   1.750
 4866SOL    HW214734   4.780   3.768   1.734
 4867SOL     OW14735   4.226   3.771   1.775
 4867SOL    HW114736   4.168   3.712   1.718
 4867SOL    HW214737   4.175   3.853   1.800
 4868SOL     OW14738   4.323   4.587   1.039
 4868SOL    HW114739   4.356   4.681   1.033
 4868SOL    HW214740   4.264   4.578   1.120
 4869SOL     OW14741   5.007   4.589   0.979
 4869SOL    HW114742   4.915   4.554   0.964
 4869SOL    HW214743   5.073   4.514   0.973
 4870SOL     OW14744   4.881   4.231   0.266
 4870SOL    HW114745   4.911   4.158   0.327
 4870SOL    HW214746   4.833   4.301   0.319
 4871SOL     OW14747   4.016   3.911   1.236
 4871SOL    HW114748   3.984   3.946   1.324
 4871SOL    HW214749   3.992   3.814   1.227
 4872SOL     OW14750   3.796   5.017   1.247
 4872SOL    HW114751   3.820   4.957   1.324
 4872SOL    HW214752   3.790   5.111   1.279
 4873SOL     OW14753   4.445   4.337   1.045
 4873SOL    HW114754   4.520   4.318   0.981
 4873SOL    HW214755   4.412   4.430   1.031
 4874SOL     OW14756   4.048   3.792   0.632
 4874SOL    HW114757   4.009   3.882   0.651
 4874SOL    HW214758   4.057   3.741   0.717
 4875SOL     OW14759   5.338   4.132   0.317
 4875SOL    HW114760   5.381   4.053   0.361
 4875SOL    HW214761   5.309   4.197   0.387
 4876SOL     OW14762   4.747   4.480   0.951
 4876SOL    HW114763   4.723   4.499   1.046
 4876SOL    HW214764   4.721   4.386   0.928
 4877SOL     OW14765   4.705   5.306   1.777
 4877SOL    HW114766   4.743   5.368   1.708
 4877SOL    HW214767   4.721   5.212   1.749
 4878SOL     OW14768   4.091   4.628   1.799
 4878SOL    HW114769   4.153   4.656   1.872
 4878SOL    HW214770   4.130   4.550   1.750
 4879SOL     OW14771   5.201   4.025   0.102
 4879SOL    HW114772   5.158   3.939   0.129
 4879SOL    HW214773   5.257   4.060   0.177
 4880SOL     OW14774   5.085   4.496   0.006
 4880SOL    HW114775   5.064   4.399   0.015
 4880SOL    HW214776   5.000   4.549   0.008
 4881SOL     OW14777   4.787   5.067   0.868
 4881SOL    HW114778   4.801   4.988   0.808
 4881SOL    HW214779   4.830   5.148   0.827
 4882SOL     OW14780   4.060   4.530   0.933
 4882SOL    HW114781   4.160   4.542   0.941
 4882SOL    HW214782   4.036   4.438   0.962
 4883SOL     OW14783   4.022   4.259   1.003
 4883SOL    HW114784   3.979   4.169   0.997
 4883SOL    HW214785   4.106   4.259   0.948
 4884SOL     OW14786   4.860   4.082   1.702
 4884SOL    HW114787   4.808   4.130   1.772
 4884SOL    HW214788   4.945   4.132   1.683
 4885SOL     OW14789   4.886   3.911   1.484
 4885SOL    HW114790   4.868   3.971   1.562
 4885SOL    HW214791   4.929   3.965   1.410
 4886SOL     OW14792   3.758   5.036   0.202
 4886SOL    HW114793   3.667   5.061   0.166
 4886SOL    HW214794   3.758   4.940   0.229
 4887SOL     OW14795   4.248   5.274   0.931
 4887SOL    HW114796   4.326   5.285   0.993
 4887SOL    HW214797   4.279   5.232   0.846
 4888SOL     OW14798   4.650   4.518   1.203
 4888SOL    HW114799   4.706   4.495   1.283
 4888SOL    HW214800   4.567   4.461   1.203
 4889SOL     OW14801   3.779   4.345   1.129
 4889SOL    HW114802   3.859   4.323   1.074
 4889SOL    HW214803   3.798   4.321   1.225
 4890SOL     OW14804   3.940   4.309   1.730
 4890SOL    HW114805   4.036   4.322   1.703
 4890SOL    HW214806   3.882   4.370   1.677
 4891SOL     OW14807   5.083   4.634   1.637
 4891SOL    HW114808   5.101   4.733   1.641
 4891SOL    HW214809   5.087   4.604   1.541
 4892SOL     OW14810   4.500   4.266   0.364
 4892SOL    HW114811   4.505   4.177   0.319
 4892SOL    HW214812   4.418   4.314   0.334
 4893SOL     OW14813   3.863   5.239   1.751
 4893SOL    HW114814   3.892   5.318   1.804
 4893SOL    HW214815   3.906   5.157   1.788
 4894SOL     OW14816   4.462   4.132   1.231
 4894SOL    HW114817   4.397   4.057   1.223
 4894SOL    HW214818   4.441   4.203   1.163
 4895SOL     OW14819   4.136   4.197   0.153
 4895SOL    HW114820   4.190   4.273   0.187
 4895SOL    HW214821   4.045   4.230   0.126
 4896SOL     OW14822   3.861   4.861   1.474
 4896SOL    HW114823   3.866   4.829   1.569
 4896SOL    HW214824   3.887   4.787   1.413
 4897SOL     OW14825   5.000   4.750   1.200
 4897SOL    HW114826   5.008   4.686   1.123
 4897SOL    HW214827   4.953   4.833   1.169
 4898SOL     OW14828   5.111   4.570   0.274
 4898SOL    HW114829   5.028   4.537   0.320
 4898SOL    HW214830   5.109   4.540   0.178
 4899SOL     OW14831   0.008   5.456   1.149
 4899SOL    HW114832   0.060   5.485   1.069
 4899SOL    HW214833   5.461   5.384   1.122
 4900SOL     OW14834   4.963   5.421   1.076
 4900SOL    HW114835   5.049   5.470   1.061
 4900SOL    HW214836   4.983   5.329   1.111
 4901SOL     OW14837   3.849   4.950   0.988
 4901SOL    HW114838   3.827   4.977   1.081
 4901SOL    HW214839   3.778   4.889   0.953
 4902SOL     OW14840   4.402   5.426   1.707
 4902SOL    HW114841   4.323   5.488   1.709
 4902SOL    HW214842   4.484   5.479   1.688
 4903SOL     OW14843   4.653   3.781   0.057
 4903SOL    HW114844   4.686   3.753   5.484
 4903SOL    HW214845   4.714   3.744   0.128
 4904SOL     OW14846   5.464   3.929   0.468
 4904SOL    HW114847   0.000   3.910   0.386
 4904SOL    HW214848   5.427   3.844   0.504
 4905SOL     OW14849   5.168   5.361   0.479
 4905SOL    HW114850   5.241   5.368   0.411
 4905SOL    HW214851   5.130   5.452   0.497
 4906SOL     OW14852   3.888   5.475   1.904
 4906SOL    HW114853   3.815   5.425   1.950
 4906SOL    HW214854   3.945   0.004   1.971
 4907SOL     OW14855   4.998   4.661   0.620
 4907SOL    HW114856   5.071   4.599   0.650
 4907SOL    HW214857   5.038   4.738   0.571
 4908SOL     OW14858   4.489   4.989   1.410
 4908SOL    HW114859   4.461   5.047   1.486
 4908SOL    HW214860   4.416   4.984   1.342
 4909SOL     OW14861   4.361   5.374   0.108
 4909SOL    HW114862   4.442   5.344   0.057
 4909SOL    HW214863   4.304   5.294   0.127
 4910SOL     OW14864   3.954   4.039   0.706
 4910SOL    HW114865   3.866   4.079   0.680
 4910SOL    HW214866   3.961   4.035   0.806
 4911SOL     OW14867   4.958   5.328   0.046
 4911SOL    HW114868   4.946   5.235   0.081
 4911SOL    HW214869   4.896   5.343   5.487
 4912SOL     OW14870   4.548   4.721   1.402
 4912SOL    HW114871   4.591   4.698   1.314
 4912SOL    HW214872   4.531   4.820   1.405
 4913SOL     OW14873   4.665   4.609   0.249
 4913SOL    HW114874   4.741   4.638   0.190
 4913SOL    HW214875   4.697   4.540   0.313
 4914SOL     OW14876   5.219   5.409   0.047
 4914SOL    HW114877   5.127   5.369   0.040
 4914SOL    HW214878   5.265   5.402   5.476
 4915SOL     OW14879   4.080   5.041   1.486
 4915SOL    HW114880   4.070   5.119   1.425
 4915SOL    HW214881   4.002   4.980   1.475
 4916SOL     OW14882   5.318   5.040   1.231
 4916SOL    HW114883   5.414   5.028   1.255
 4916SOL    HW214884   5.268   5.077   1.309
 4917SOL     OW14885   4.811   4.830   0.738
 4917SOL    HW114886   4.731   4.781   0.773
 4917SOL    HW214887   4.870   4.767   0.688
 4918SOL     OW14888   4.767   3.971   0.945
 4918SOL    HW114889   4.762   3.932   0.853
 4918SOL    HW214890   4.764   3.897   1.013
 4919SOL     OW14891   4.338   5.255   0.477
 4919SOL    HW114892   4.360   5.201   0.396
 4919SOL    HW214893   4.311   5.347   0.448
 4920SOL     OW14894   3.995   5.106   0.324
 4920SOL    HW114895   3.909   5.084   0.278
 4920SOL    HW214896   3.978   5.173   0.396
 4921SOL     OW14897   3.862   4.765   1.733
 4921SOL    HW114898   3.781   4.741   1.786
 4921SOL    HW214899   3.939   4.710   1.764
 4922SOL     OW14900   4.423   3.902   1.493
 4922SOL    HW114901   4.507   3.871   1.448
 4922SOL    HW214902   4.445   3.940   1.582
 4923SOL     OW14903   3.797   4.023   0.009
 4923SOL    HW114904   3.712   4.025   5.475
 4923SOL    HW214905   3.827   4.116   0.029
 4924SOL     OW14906   5.133   4.576   1.370
 4924SOL    HW114907   5.074   4.635   1.313
 4924SOL    HW214908   5.227   4.585   1.338
 4925SOL     OW14909   3.771   3.857   0.231
 4925SOL    HW114910   3.764   3.923   0.156
 4925SOL    HW214911   3.863   3.820   0.234
 4926SOL     OW14912   4.928   5.088   0.177
 4926SOL    HW114913   4.829   5.102   0.179
 4926SOL    HW214914   4.965   5.095   0.270
 4927SOL     OW14915   4.366   4.524   1.446
 4927SOL    HW114916   4.423   4.605   1.438
 4927SOL    HW214917   4.423   4.442   1.445
 4928SOL     OW14918   5.215   5.516   1.035
 4928SOL    HW114919   5.252   0.046   0.955
 4928SOL    HW214920   5.266   5.431   1.050
 4929SOL     OW14921   4.443   4.265   1.705
 4929SOL    HW114922   4.497   4.324   1.765
 4929SOL    HW214923   4.461   4.169   1.726
 4930SOL     OW14924   5.155   4.897   1.639
 4930SOL    HW114925   5.155   4.914   1.737
 4930SOL    HW214926   5.247   4.913   1.602
 4931SOL     OW14927   5.385   4.619   1.248
 4931SOL    HW114928   5.401   4.531   1.203
 4931SOL    HW214929   5.361   4.687   1.179
 4932SOL     OW14930   4.948   4.046   0.463
 4932SOL    HW114931   5.015   3.972   0.465
 4932SOL    HW214932   4.965   4.108   0.540
 4933SOL     OW14933   4.282   4.448   0.674
 4933SOL    HW114934   4.332   4.533   0.664
 4933SOL    HW214935   4.207   4.445   0.608
 4934SOL     OW14936   5.486   4.135   1.579
 4934SOL    HW114937   5.499   4.188   1.495
 4934SOL    HW214938   5.398   4.086   1.573
 4935SOL     OW14939   5.459   4.661   1.515
 4935SOL    HW114940   5.439   4.757   1.538
 4935SOL    HW214941   5.438   4.645   1.419
 4936SOL     OW14942   4.667   5.159   0.174
 4936SOL    HW114943   4.596   5.107   0.221
 4936SOL    HW214944   4.628   5.204   0.094
 4937SOL     OW14945   4.598   4.700   0.860
 4937SOL    HW114946   4.646   4.621   0.898
 4937SOL    HW214947   4.547   4.746   0.932
 4938SOL     OW14948   4.860   4.658   0.052
 4938SOL    HW114949   4.804   4.661   5.486
 4938SOL    HW214950   4.921   4.738   0.055
 4939SOL     OW14951   0.033   5.305   0.781
 4939SOL    HW114952   5.454   5.303   0.753
 4939SOL    HW214953   0.066   5.212   0.794
 4940SOL     OW14954   3.947   4.995   1.857
 4940SOL    HW114955   3.920   4.916   1.803
 4940SOL    HW214956   3.888   5.002   1.938
 4941SOL     OW14957   3.880   5.039   0.704
 4941SOL    HW114958   3.884   5.004   0.798
 4941SOL    HW214959   3.937   4.981   0.645
 4942SOL     OW14960   4.387   5.177   1.590
 4942SOL    HW114961   4.322   5.123   1.644
 4942SOL    HW214962   4.403   5.265   1.635
 4943SOL     OW14963   5.475   3.906   1.250
 4943SOL    HW114964   0.058   3.909   1.248
 4943SOL    HW214965   5.439   3.913   1.157
 4944SOL     OW14966   4.133   4.154   0.511
 4944SOL    HW114967   4.181   4.086   0.456
 4944SOL    HW214968   4.079   4.108   0.582
 4945SOL     OW14969   5.344   5.267   1.063
 4945SOL    HW114970   5.315   5.238   0.972
 4945SOL    HW214971   5.333   5.193   1.128
 4946SOL     OW14972   4.085   4.272   1.283
 4946SOL    HW114973   4.136   4.204   1.336
 4946SOL    HW214974   4.080   4.243   1.187
 4947SOL     OW14975   4.590   5.310   0.656
 4947SOL    HW114976   4.562   5.399   0.620
 4947SOL    HW214977   4.509   5.255   0.678
 4948SOL     OW14978   5.152   3.976   1.112
 4948SOL    HW114979   5.159   3.877   1.122
 4948SOL    HW214980   5.098   4.013   1.188
 4949SOL     OW14981   4.750   3.744   1.109
 4949SOL    HW114982   4.695   3.682   1.052
 4949SOL    HW214983   4.840   3.704   1.123
 4950SOL     OW14984   4.514   5.028   0.359
 4950SOL    HW114985   4.485   4.932   0.366
 4950SOL    HW214986   4.581   5.048   0.429
 4951SOL     OW14987   4.349   5.261   1.326
 4951SOL    HW114988   4.365   5.243   1.422
 4951SOL    HW214989   4.435   5.282   1.280
 4952SOL     OW14990   5.078   3.790   0.193
 4952SOL    HW114991   5.127   3.719   0.142
 4952SOL    HW214992   4.982   3.762   0.205
 4953SOL     OW14993   4.980   4.214   0.673
 4953SOL    HW114994   4.927   4.298   0.672
 4953SOL    HW214995   5.000   4.189   0.768
 4954SOL     OW14996   5.391   3.951   0.976
 4954SOL    HW114997   5.307   3.977   1.023
 4954SOL    HW214998   5.382   3.972   0.879
 4955SOL     OW14999   3.776   4.764   0.306
 4955SOL    HW115000   3.874   4.753   0.316
 4955SOL    HW215001   3.731   4.676   0.321
 4956SOL     OW15002   3.940   4.369   2.005
 4956SOL    HW115003   3.850   4.349   2.044
 4956SOL    HW215004   3.936   4.357   1.906
 4957SOL     OW15005   3.951   4.009   2.861
 4957SOL    HW115006   3.984   3.974   2.949
 4957SOL    HW215007   3.856   3.981   2.847
 4958SOL     OW15008   3.808   4.135   2.451
 4958SOL    HW115009   3.717   4.101   2.474
 4958SOL    HW215010   3.841   4.086   2.370
 4959SOL     OW15011   4.297   5.020   3.078
 4959SOL    HW115012   4.209   5.022   3.031
 4959SOL    HW215013   4.317   5.110   3.116
 4960SOL     OW15014   5.295   5.273   2.561
 4960SOL    HW115015   5.236   5.221   2.621
 4960SOL    HW215016   5.248   5.290   2.474
 4961SOL     OW15017   4.840   4.448   2.532
 4961SOL    HW115018   4.898   4.527   2.513
 4961SOL    HW215019   4.793   4.461   2.619
 4962SOL     OW15020   5.475   4.314   2.065
 4962SOL    HW115021   5.454   4.308   1.968
 4962SOL    HW215022   5.437   4.234   2.113
 4963SOL     OW15023   4.440   4.858   2.902
 4963SOL    HW115024   4.383   4.892   2.976
 4963SOL    HW215025   4.480   4.936   2.852
 4964SOL     OW15026   4.617   4.452   3.715
 4964SOL    HW115027   4.608   4.513   3.794
 4964SOL    HW215028   4.631   4.507   3.633
 4965SOL     OW15029   4.426   4.710   2.496
 4965SOL    HW115030   4.493   4.710   2.571
 4965SOL    HW215031   4.352   4.774   2.517
 4966SOL     OW15032   4.408   4.885   3.698
 4966SOL    HW115033   4.459   4.959   3.743
 4966SOL    HW215034   4.329   4.923   3.651
 4967SOL     OW15035   4.073   5.114   2.945
 4967SOL    HW115036   3.994   5.064   2.909
 4967SOL    HW215037   4.114   5.168   2.871
 4968SOL     OW15038   5.175   5.187   3.284
 4968SOL    HW115039   5.236   5.234   3.348
 4968SOL    HW215040   5.081   5.191   3.319
 4969SOL     OW15041   4.196   4.089   3.308
 4969SOL    HW115042   4.276   4.031   3.325
 4969SOL    HW215043   4.114   4.044   3.342
 4970SOL     OW15044   4.829   5.059   3.595
 4970SOL    HW115045   4.878   5.052   3.682
 4970SOL    HW215046   4.769   4.980   3.585
 4971SOL     OW15047   3.907   5.205   2.414
 4971SOL    HW115048   3.928   5.282   2.474
 4971SOL    HW215049   3.893   5.122   2.468
 4972SOL     OW15050   4.030   4.815   2.731
 4972SOL    HW115051   4.036   4.718   2.755
 4972SOL    HW215052   3.976   4.863   2.800
 4973SOL     OW15053   4.282   4.713   2.017
 4973SOL    HW115054   4.324   4.763   1.941
 4973SOL    HW215055   4.331   4.735   2.101
 4974SOL     OW15056   5.399   3.809   3.360
 4974SOL    HW115057   5.416   3.850   3.270
 4974SOL    HW215058   5.341   3.870   3.414
 4975SOL     OW15059   3.859   4.411   2.431
 4975SOL    HW115060   3.845   4.314   2.448
 4975SOL    HW215061   3.845   4.462   2.516
 4976SOL     OW15062   3.722   5.306   2.044
 4976SOL    HW115063   3.668   5.237   1.995
 4976SOL    HW215064   3.781   5.260   2.110
 4977SOL     OW15065   5.423   4.624   2.513
 4977SOL    HW115066   5.505   4.588   2.557
 4977SOL    HW215067   5.430   4.611   2.414
 4978SOL     OW15068   3.846   4.481   3.433
 4978SOL    HW115069   3.936   4.525   3.434
 4978SOL    HW215070   3.775   4.549   3.414
 4979SOL     OW15071   4.346   5.124   2.581
 4979SOL    HW115072   4.305   5.033   2.574
 4979SOL    HW215073   4.338   5.171   2.493
 4980SOL     OW15074   4.956   4.919   3.288
 4980SOL    HW115075   4.982   4.849   3.222
 4980SOL    HW215076   5.020   4.918   3.365
 4981SOL     OW15077   4.554   3.747   2.376
 4981SOL    HW115078   4.600   3.831   2.347
 4981SOL    HW215079   4.455   3.762   2.379
 4982SOL     OW15080   3.928   4.673   3.174
 4982SOL    HW115081   4.018   4.636   3.155
 4982SOL    HW215082   3.862   4.635   3.108
 4983SOL     OW15083   5.253   4.785   2.142
 4983SOL    HW115084   5.182   4.715   2.148
 4983SOL    HW215085   5.342   4.742   2.131
 4984SOL     OW15086   4.839   5.472   3.463
 4984SOL    HW115087   4.861   0.034   3.407
 4984SOL    HW215088   4.880   5.390   3.422
 4985SOL     OW15089   4.077   3.983   3.746
 4985SOL    HW115090   4.116   4.066   3.786
 4985SOL    HW215091   3.979   3.996   3.733
 4986SOL     OW15092   5.148   5.141   2.759
 4986SOL    HW115093   5.116   5.154   2.852
 4986SOL    HW215094   5.143   5.044   2.735
 4987SOL     OW15095   4.307   4.435   2.131
 4987SOL    HW115096   4.304   4.523   2.085
 4987SOL    HW215097   4.239   4.433   2.204
 4988SOL     OW15098   5.008   4.126   2.793
 4988SOL    HW115099   4.916   4.087   2.790
 4988SOL    HW215100   5.065   4.071   2.854
 4989SOL     OW15101   5.349   5.406   2.102
 4989SOL    HW115102   5.405   5.488   2.106
 4989SOL    HW215103   5.283   5.413   2.027
 4990SOL     OW15104   4.530   4.303   3.295
 4990SOL    HW115105   4.511   4.275   3.389
 4990SOL    HW215106   4.502   4.231   3.231
 4991SOL     OW15107   5.100   4.211   3.528
 4991SOL    HW115108   5.104   4.258   3.616
 4991SOL    HW215109   5.163   4.133   3.528
 4992SOL     OW15110   4.667   4.596   3.476
 4992SOL    HW115111   4.728   4.532   3.429
 4992SOL    HW215112   4.612   4.644   3.408
 4993SOL     OW15113   4.737   4.103   3.046
 4993SOL    HW115114   4.641   4.114   3.073
 4993SOL    HW215115   4.741   4.058   2.957
 4994SOL     OW15116   4.770   4.427   2.264
 4994SOL    HW115117   4.791   4.431   2.362
 4994SOL    HW215118   4.682   4.380   2.251
 4995SOL     OW15119   3.821   4.561   2.656
 4995SOL    HW115120   3.906   4.556   2.708
 4995SOL    HW215121   3.763   4.633   2.694
 4996SOL     OW15122   3.898   0.033   3.510
 4996SOL    HW115123   3.886   0.023   3.609
 4996SOL    HW215124   3.857   5.472   3.463
 4997SOL     OW15125   4.571   4.066   2.069
 4997SOL    HW115126   4.629   4.108   1.999
 4997SOL    HW215127   4.512   3.997   2.026
 4998SOL     OW15128   5.398   4.282   3.671
 4998SOL    HW115129   5.369   4.371   3.637
 4998SOL    HW215130   5.438   4.229   3.596
 4999SOL     OW15131   5.126   4.883   2.384
 4999SOL    HW115132   5.184   4.856   2.306
 4999SOL    HW215133   5.074   4.965   2.359
 5000SOL     OW15134   4.270   3.838   2.797
 5000SOL    HW115135   4.283   3.870   2.891
 5000SOL    HW215136   4.259   3.917   2.736
 5001SOL     OW15137   4.731   5.190   2.328
 5001SOL    HW115138   4.714   5.259   2.257
 5001SOL    HW215139   4.697   5.223   2.416
 5002SOL     OW15140   4.116   5.507   2.715
 5002SOL    HW115141   4.162   5.426   2.750
 5002SOL    HW215142   4.162   0.072   2.749
 5003SOL     OW15143   5.495   4.810   2.712
 5003SOL    HW115144   5.451   4.768   2.633
 5003SOL    HW215145   5.431   4.813   2.788
 5004SOL     OW15146   4.911   5.216   3.378
 5004SOL    HW115147   4.895   5.157   3.457
 5004SOL    HW215148   4.853   5.186   3.302
 5005SOL     OW15149   4.024   4.669   2.128
 5005SOL    HW115150   4.111   4.692   2.084
 5005SOL    HW215151   4.001   4.574   2.108
 5006SOL     OW15152   5.193   4.486   2.576
 5006SOL    HW115153   5.189   4.442   2.665
 5006SOL    HW215154   5.277   4.540   2.569
 5007SOL     OW15155   4.190   5.024   3.598
 5007SOL    HW115156   4.162   5.028   3.502
 5007SOL    HW215157   4.110   5.010   3.656
 5008SOL     OW15158   4.854   0.022   2.070
 5008SOL    HW115159   4.757   0.043   2.056
 5008SOL    HW215160   4.872   5.448   2.033
 5009SOL     OW15161   3.939   3.985   3.368
 5009SOL    HW115162   3.856   4.035   3.344
 5009SOL    HW215163   3.915   3.898   3.411
 5010SOL     OW15164   5.123   3.822   2.311
 5010SOL    HW115165   5.123   3.811   2.211
 5010SOL    HW215166   5.207   3.784   2.348
 5011SOL     OW15167   4.123   4.404   2.334
 5011SOL    HW115168   4.141   4.307   2.351
 5011SOL    HW215169   4.028   4.425   2.358
 5012SOL     OW15170   5.241   3.968   3.536
 5012SOL    HW115171   5.264   3.974   3.633
 5012SOL    HW215172   5.162   3.908   3.524
 5013SOL     OW15173   4.401   3.848   1.975
 5013SOL    HW115174   4.464   3.775   1.999
 5013SOL    HW215175   4.331   3.813   1.913
 5014SOL     OW15176   4.498   3.977   3.622
 5014SOL    HW115177   4.586   3.928   3.620
 5014SOL    HW215178   4.439   3.936   3.691
 5015SOL     OW15179   4.588   5.252   3.036
 5015SOL    HW115180   4.565   5.203   2.951
 5015SOL    HW215181   4.652   5.196   3.090
 5016SOL     OW15182   5.034   4.322   3.287
 5016SOL    HW115183   5.064   4.291   3.377
 5016SOL    HW215184   5.075   4.411   3.266
 5017SOL     OW15185   4.526   5.106   2.798
 5017SOL    HW115186   4.621   5.098   2.768
 5017SOL    HW215187   4.467   5.115   2.718
 5018SOL     OW15188   4.646   4.236   2.736
 5018SOL    HW115189   4.623   4.229   2.639
 5018SOL    HW215190   4.677   4.147   2.770
 5019SOL     OW15191   4.285   3.790   2.357
 5019SOL    HW115192   4.209   3.779   2.420
 5019SOL    HW215193   4.270   3.871   2.300
 5020SOL     OW15194   5.165   4.928   1.914
 5020SOL    HW115195   5.202   4.870   1.987
 5020SOL    HW215196   5.084   4.976   1.947
 5021SOL     OW15197   4.005   3.802   2.062
 5021SOL    HW115198   4.045   3.870   2.000
 5021SOL    HW215199   4.076   3.737   2.090
 5022SOL     OW15200   4.681   3.977   2.304
 5022SOL    HW115201   4.643   4.010   2.217
 5022SOL    HW215202   4.780   3.993   2.305
 5023SOL     OW15203   4.777   4.427   3.286
 5023SOL    HW115204   4.700   4.363   3.293
 5023SOL    HW215205   4.863   4.375   3.284
 5024SOL     OW15206   4.935   5.279   2.642
 5024SOL    HW115207   4.935   5.378   2.655
 5024SOL    HW215208   5.019   5.240   2.681
 5025SOL     OW15209   4.216   4.883   2.543
 5025SOL    HW115210   4.156   4.858   2.619
 5025SOL    HW215211   4.165   4.881   2.457
 5026SOL     OW15212   4.740   4.216   1.908
 5026SOL    HW115213   4.697   4.303   1.888
 5026SOL    HW215214   4.808   4.228   1.981
 5027SOL     OW15215   3.838   4.282   3.246
 5027SOL    HW115216   3.933   4.280   3.214
 5027SOL    HW215217   3.826   4.355   3.312
 5028SOL     OW15218   4.293   3.911   3.060
 5028SOL    HW115219   4.326   3.836   3.118
 5028SOL    HW215220   4.197   3.928   3.079
 5029SOL     OW15221   4.598   4.186   2.474
 5029SOL    HW115222   4.550   4.244   2.408
 5029SOL    HW215223   4.628   4.102   2.428
 5030SOL     OW15224   4.740   3.775   2.588
 5030SOL    HW115225   4.674   3.772   2.513
 5030SOL    HW215226   4.718   3.703   2.655
 5031SOL     OW15227   5.131   4.873   2.689
 5031SOL    HW115228   5.044   4.825   2.707
 5031SOL    HW215229   5.146   4.876   2.590
 5032SOL     OW15230   5.170   4.358   2.822
 5032SOL    HW115231   5.111   4.278   2.815
 5032SOL    HW215232   5.237   4.344   2.895
 5033SOL     OW15233   5.481   4.508   2.255
 5033SOL    HW115234   0.038   4.476   2.314
 5033SOL    HW215235   5.472   4.447   2.176
 5034SOL     OW15236   4.206   5.183   2.016
 5034SOL    HW115237   4.131   5.161   2.077
 5034SOL    HW215238   4.204   5.124   1.936
 5035SOL     OW15239   5.102   4.309   1.925
 5035SOL    HW115240   5.042   4.278   1.999
 5035SOL    HW215241   5.197   4.287   1.948
 5036SOL     OW15242   4.253   3.989   2.171
 5036SOL    HW115243   4.307   3.939   2.103
 5036SOL    HW215244   4.214   4.071   2.128
 5037SOL     OW15245   5.422   4.947   3.426
 5037SOL    HW115246   0.001   4.934   3.400
 5037SOL    HW215247   5.408   5.042   3.456
 5038SOL     OW15248   4.743   5.066   3.199
 5038SOL    HW115249   4.654   5.035   3.233
 5038SOL    HW215250   4.815   5.008   3.239
 5039SOL     OW15251   5.332   5.311   3.527
 5039SOL    HW115252   5.357   5.396   3.480
 5039SOL    HW215253   5.400   5.290   3.597
 5040SOL     OW15254   4.869   4.974   2.971
 5040SOL    HW115255   4.806   5.005   3.043
 5040SOL    HW215256   4.834   5.003   2.882
 5041SOL     OW15257   5.310   4.820   2.915
 5041SOL    HW115258   5.303   4.896   2.980
 5041SOL    HW215259   5.234   4.825   2.851
 5042SOL     OW15260   4.660   3.791   3.237
 5042SOL    HW115261   4.677   3.781   3.139
 5042SOL    HW215262   4.738   3.836   3.280
 5043SOL     OW15263   4.671   4.832   3.611
 5043SOL    HW115264   4.575   4.849   3.636
 5043SOL    HW215265   4.677   4.747   3.558
 5044SOL     OW15266   4.457   4.765   2.226
 5044SOL    HW115267   4.448   4.739   2.322
 5044SOL    HW215268   4.527   4.709   2.183
 5045SOL     OW15269   4.170   4.543   3.129
 5045SOL    HW115270   4.239   4.551   3.201
 5045SOL    HW215271   4.132   4.450   3.129
 5046SOL     OW15272   4.981   4.088   3.158
 5046SOL    HW115273   5.007   4.174   3.201
 5046SOL    HW215274   4.891   4.097   3.116
 5047SOL     OW15275   3.810   5.300   3.227
 5047SOL    HW115276   3.770   5.359   3.157
 5047SOL    HW215277   3.909   5.297   3.215
 5048SOL     OW15278   4.052   4.877   2.319
 5048SOL    HW115279   4.048   4.957   2.260
 5048SOL    HW215280   4.043   4.794   2.264
 5049SOL     OW15281   4.254   4.274   2.728
 5049SOL    HW115282   4.272   4.331   2.648
 5049SOL    HW215283   4.329   4.285   2.794
 5050SOL     OW15284   4.994   5.111   2.285
 5050SOL    HW115285   5.054   5.190   2.299
 5050SOL    HW215286   4.901   5.134   2.315
 5051SOL     OW15287   5.051   5.173   3.017
 5051SOL    HW115288   5.098   5.175   3.106
 5051SOL    HW215289   4.991   5.093   3.013
 5052SOL     OW15290   5.311   4.316   2.383
 5052SOL    HW115291   5.241   4.350   2.446
 5052SOL    HW215292   5.352   4.393   2.334
 5053SOL     OW15293   4.075   5.261   3.172
 5053SOL    HW115294   4.065   5.210   3.087
 5053SOL    HW215295   4.171   5.284   3.187
 5054SOL     OW15296   4.146   4.481   3.480
 5054SOL    HW115297   4.224   4.506   3.423
 5054SOL    HW215298   4.150   4.383   3.500
 5055SOL     OW15299   5.325   4.518   3.567
 5055SOL    HW115300   5.231   4.553   3.558
 5055SOL    HW215301   5.384   4.564   3.500
 5056SOL     OW15302   4.732   3.842   3.623
 5056SOL    HW115303   4.786   3.926   3.614
 5056SOL    HW215304   4.789   3.764   3.599
 5057SOL     OW15305   4.216   3.771   3.630
 5057SOL    HW115306   4.163   3.715   3.566
 5057SOL    HW215307   4.163   3.852   3.655
 5058SOL     OW15308   4.324   4.594   2.904
 5058SOL    HW115309   4.360   4.687   2.899
 5058SOL    HW215310   4.267   4.585   2.986
 5059SOL     OW15311   5.002   4.578   2.853
 5059SOL    HW115312   4.910   4.548   2.829
 5059SOL    HW215313   5.067   4.502   2.841
 5060SOL     OW15314   4.918   4.243   2.120
 5060SOL    HW115315   4.935   4.164   2.179
 5060SOL    HW215316   4.872   4.314   2.173
 5061SOL     OW15317   4.023   3.912   3.106
 5061SOL    HW115318   3.988   3.940   3.196
 5061SOL    HW215319   4.005   3.814   3.092
 5062SOL     OW15320   3.794   5.036   3.138
 5062SOL    HW115321   3.820   4.975   3.213
 5062SOL    HW215322   3.793   5.130   3.171
 5063SOL     OW15323   4.451   4.345   2.910
 5063SOL    HW115324   4.520   4.325   2.841
 5063SOL    HW215325   4.414   4.437   2.894
 5064SOL     OW15326   4.064   3.761   2.517
 5064SOL    HW115327   4.038   3.856   2.533
 5064SOL    HW215328   4.061   3.711   2.604
 5065SOL     OW15329   5.335   4.113   2.192
 5065SOL    HW115330   5.372   4.035   2.242
 5065SOL    HW215331   5.299   4.180   2.257
 5066SOL     OW15332   4.741   4.483   2.806
 5066SOL    HW115333   4.717   4.503   2.901
 5066SOL    HW215334   4.715   4.389   2.784
 5067SOL     OW15335   4.704   5.306   3.638
 5067SOL    HW115336   4.742   5.368   3.569
 5067SOL    HW215337   4.721   5.211   3.611
 5068SOL     OW15338   4.081   4.647   3.687
 5068SOL    HW115339   4.159   4.661   3.747
 5068SOL    HW215340   4.108   4.585   3.612
 5069SOL     OW15341   5.276   3.984   1.950
 5069SOL    HW115342   5.208   3.914   1.975
 5069SOL    HW215343   5.299   4.038   2.031
 5070SOL     OW15344   4.995   4.561   1.885
 5070SOL    HW115345   5.028   4.467   1.897
 5070SOL    HW215346   5.018   4.592   1.793
 5071SOL     OW15347   4.784   5.068   2.727
 5071SOL    HW115348   4.804   4.986   2.674
 5071SOL    HW215349   4.830   5.147   2.686
 5072SOL     OW15350   4.058   4.545   2.802
 5072SOL    HW115351   4.157   4.558   2.812
 5072SOL    HW215352   4.034   4.452   2.829
 5073SOL     OW15353   4.028   4.266   2.868
 5073SOL    HW115354   3.990   4.174   2.862
 5073SOL    HW215355   4.109   4.271   2.810
 5074SOL     OW15356   4.861   4.080   3.565
 5074SOL    HW115357   4.809   4.129   3.636
 5074SOL    HW215358   4.944   4.131   3.544
 5075SOL     OW15359   4.886   3.910   3.345
 5075SOL    HW115360   4.866   3.969   3.424
 5075SOL    HW215361   4.927   3.965   3.273
 5076SOL     OW15362   3.760   4.998   2.060
 5076SOL    HW115363   3.672   5.028   2.021
 5076SOL    HW215364   3.749   4.906   2.099
 5077SOL     OW15365   4.245   5.272   2.789
 5077SOL    HW115366   4.322   5.281   2.852
 5077SOL    HW215367   4.273   5.222   2.707
 5078SOL     OW15368   4.649   4.522   3.061
 5078SOL    HW115369   4.706   4.500   3.140
 5078SOL    HW215370   4.570   4.461   3.059
 5079SOL     OW15371   3.770   4.312   2.979
 5079SOL    HW115372   3.855   4.306   2.928
 5079SOL    HW215373   3.788   4.299   3.077
 5080SOL     OW15374   3.909   4.265   3.592
 5080SOL    HW115375   3.938   4.196   3.526
 5080SOL    HW215376   3.877   4.346   3.543
 5081SOL     OW15377   5.084   4.635   3.497
 5081SOL    HW115378   5.101   4.733   3.501
 5081SOL    HW215379   5.087   4.604   3.402
 5082SOL     OW15380   4.533   4.301   2.217
 5082SOL    HW115381   4.536   4.214   2.167
 5082SOL    HW215382   4.453   4.353   2.190
 5083SOL     OW15383   3.869   5.246   3.617
 5083SOL    HW115384   3.896   5.321   3.678
 5083SOL    HW215385   3.909   5.161   3.651
 5084SOL     OW15386   4.466   4.133   3.088
 5084SOL    HW115387   4.401   4.058   3.079
 5084SOL    HW215388   4.444   4.205   3.023
 5085SOL     OW15389   4.167   4.213   2.030
 5085SOL    HW115390   4.237   4.280   2.055
 5085SOL    HW215391   4.077   4.257   2.029
 5086SOL     OW15392   3.863   4.868   3.349
 5086SOL    HW115393   3.864   4.832   3.443
 5086SOL    HW215394   3.887   4.794   3.286
 5087SOL     OW15395   4.999   4.751   3.062
 5087SOL    HW115396   5.005   4.684   2.988
 5087SOL    HW215397   4.952   4.833   3.029
 5088SOL     OW15398   5.057   4.599   2.154
 5088SOL    HW115399   4.986   4.562   2.214
 5088SOL    HW215400   5.030   4.584   2.059
 5089SOL     OW15401   0.010   5.456   3.008
 5089SOL    HW115402   0.063   5.482   2.927
 5089SOL    HW215403   5.462   5.384   2.983
 5090SOL     OW15404   4.964   5.426   2.958
 5090SOL    HW115405   5.049   5.473   2.933
 5090SOL    HW215406   4.983   5.331   2.982
 5091SOL     OW15407   3.855   4.954   2.887
 5091SOL    HW115408   3.825   4.982   2.978
 5091SOL    HW215409   3.785   4.896   2.846
 5092SOL     OW15410   4.400   5.425   3.571
 5092SOL    HW115411   4.321   5.487   3.569
 5092SOL    HW215412   4.483   5.477   3.551
 5093SOL     OW15413   5.462   3.918   2.346
 5093SOL    HW115414   5.516   3.897   2.265
 5093SOL    HW215415   5.426   3.833   2.385
 5094SOL     OW15416   5.170   5.338   2.315
 5094SOL    HW115417   5.240   5.343   2.244
 5094SOL    HW215418   5.132   5.429   2.331
 5095SOL     OW15419   3.888   5.476   3.779
 5095SOL    HW115420   3.814   5.427   3.823
 5095SOL    HW215421   3.945   0.004   3.848
 5096SOL     OW15422   5.003   4.657   2.482
 5096SOL    HW115423   5.075   4.596   2.514
 5096SOL    HW215424   5.045   4.735   2.435
 5097SOL     OW15425   4.492   4.988   3.274
 5097SOL    HW115426   4.464   5.045   3.351
 5097SOL    HW215427   4.418   4.984   3.206
 5098SOL     OW15428   4.413   5.361   1.978
 5098SOL    HW115429   4.416   5.370   1.879
 5098SOL    HW215430   4.339   5.298   2.004
 5099SOL     OW15431   4.015   4.018   2.591
 5099SOL    HW115432   3.940   4.068   2.547
 5099SOL    HW215433   4.000   4.019   2.690
 5100SOL     OW15434   4.916   5.297   1.950
 5100SOL    HW115435   4.923   5.203   1.984
 5100SOL    HW215436   4.837   5.305   1.889
 5101SOL     OW15437   4.547   4.719   3.263
 5101SOL    HW115438   4.588   4.694   3.176
 5101SOL    HW215439   4.532   4.818   3.266
 5102SOL     OW15440   4.652   4.615   2.093
 5102SOL    HW115441   4.718   4.681   2.055
 5102SOL    HW215442   4.698   4.552   2.154
 5103SOL     OW15443   5.171   5.393   1.887
 5103SOL    HW115444   5.081   5.352   1.902
 5103SOL    HW215445   5.210   5.358   1.802
 5104SOL     OW15446   4.085   5.043   3.353
 5104SOL    HW115447   4.074   5.120   3.290
 5104SOL    HW215448   4.007   4.981   3.343
 5105SOL     OW15449   5.318   5.038   3.091
 5105SOL    HW115450   5.414   5.025   3.116
 5105SOL    HW215451   5.268   5.075   3.170
 5106SOL     OW15452   4.829   4.825   2.616
 5106SOL    HW115453   4.743   4.783   2.643
 5106SOL    HW215454   4.880   4.762   2.558
 5107SOL     OW15455   4.763   3.967   2.802
 5107SOL    HW115456   4.759   3.929   2.710
 5107SOL    HW215457   4.760   3.893   2.869
 5108SOL     OW15458   4.349   5.253   2.346
 5108SOL    HW115459   4.384   5.194   2.273
 5108SOL    HW215460   4.326   5.343   2.308
 5109SOL     OW15461   3.985   5.108   2.173
 5109SOL    HW115462   3.902   5.067   2.135
 5109SOL    HW215463   3.963   5.153   2.259
 5110SOL     OW15464   3.852   4.771   3.606
 5110SOL    HW115465   3.768   4.742   3.652
 5110SOL    HW215466   3.929   4.717   3.640
 5111SOL     OW15467   4.426   3.909   3.361
 5111SOL    HW115468   4.509   3.880   3.314
 5111SOL    HW215469   4.448   3.943   3.452
 5112SOL     OW15470   3.842   4.062   1.805
 5112SOL    HW115471   3.749   4.046   1.773
 5112SOL    HW215472   3.871   4.155   1.780
 5113SOL     OW15473   5.132   4.576   3.231
 5113SOL    HW115474   5.073   4.634   3.175
 5113SOL    HW215475   5.227   4.585   3.198
 5114SOL     OW15476   3.877   3.974   2.240
 5114SOL    HW115477   3.782   3.942   2.238
 5114SOL    HW215478   3.933   3.917   2.180
 5115SOL     OW15479   4.933   5.030   2.023
 5115SOL    HW115480   4.888   4.941   2.016
 5115SOL    HW215481   4.952   5.050   2.119
 5116SOL     OW15482   4.365   4.526   3.317
 5116SOL    HW115483   4.424   4.605   3.306
 5116SOL    HW215484   4.420   4.442   3.314
 5117SOL     OW15485   5.215   5.516   2.896
 5117SOL    HW115486   5.252   0.045   2.816
 5117SOL    HW215487   5.266   5.431   2.912
 5118SOL     OW15488   4.486   4.248   3.554
 5118SOL    HW115489   4.520   4.310   3.624
 5118SOL    HW215490   4.490   4.154   3.588
 5119SOL     OW15491   5.155   4.897   3.496
 5119SOL    HW115492   5.154   4.915   3.595
 5119SOL    HW215493   5.247   4.913   3.460
 5120SOL     OW15494   5.384   4.620   3.109
 5120SOL    HW115495   5.404   4.531   3.066
 5120SOL    HW215496   5.360   4.686   3.039
 5121SOL     OW15497   4.951   4.042   2.309
 5121SOL    HW115498   5.015   3.966   2.313
 5121SOL    HW215499   4.964   4.100   2.390
 5122SOL     OW15500   4.310   4.458   2.532
 5122SOL    HW115501   4.356   4.545   2.516
 5122SOL    HW215502   4.242   4.442   2.460
 5123SOL     OW15503   5.483   4.134   3.447
 5123SOL    HW115504   5.498   4.187   3.363
 5123SOL    HW215505   5.396   4.084   3.439
 5124SOL     OW15506   5.460   4.662   3.376
 5124SOL    HW115507   5.439   4.757   3.399
 5124SOL    HW215508   5.438   4.645   3.280
 5125SOL     OW15509   4.541   5.092   1.947
 5125SOL    HW115510   4.526   5.078   2.044
 5125SOL    HW215511   4.548   5.189   1.928
 5126SOL     OW15512   4.598   4.709   2.716
 5126SOL    HW115513   4.642   4.626   2.750
 5126SOL    HW215514   4.545   4.751   2.789
 5127SOL     OW15515   4.835   4.777   1.960
 5127SOL    HW115516   4.774   4.801   1.884
 5127SOL    HW215517   4.896   4.703   1.932
 5128SOL     OW15518   0.043   5.298   2.624
 5128SOL    HW115519   5.464   5.297   2.597
 5128SOL    HW215520   0.075   5.204   2.635
 5129SOL     OW15521   3.947   5.000   3.721
 5129SOL    HW115522   3.918   4.920   3.669
 5129SOL    HW215523   3.891   5.008   3.804
 5130SOL     OW15524   3.879   4.949   2.526
 5130SOL    HW115525   3.915   4.905   2.608
 5130SOL    HW215526   3.927   4.916   2.445
 5131SOL     OW15527   4.390   5.175   3.456
 5131SOL    HW115528   4.325   5.121   3.509
 5131SOL    HW215529   4.404   5.263   3.500
 5132SOL     OW15530   5.473   3.896   3.111
 5132SOL    HW115531   0.056   3.892   3.108
 5132SOL    HW215532   5.437   3.909   3.019
 5133SOL     OW15533   4.169   4.146   2.391
 5133SOL    HW115534   4.196   4.079   2.322
 5133SOL    HW215535   4.127   4.098   2.468
 5134SOL     OW15536   5.346   5.267   2.926
 5134SOL    HW115537   5.311   5.237   2.838
 5134SOL    HW215538   5.336   5.193   2.993
 5135SOL     OW15539   4.090   4.282   3.143
 5135SOL    HW115540   4.140   4.212   3.194
 5135SOL    HW215541   4.085   4.256   3.047
 5136SOL     OW15542   4.587   5.315   2.529
 5136SOL    HW115543   4.571   5.403   2.484
 5136SOL    HW215544   4.502   5.263   2.531
 5137SOL     OW15545   5.147   3.974   2.973
 5137SOL    HW115546   5.153   3.875   2.983
 5137SOL    HW215547   5.093   4.012   3.049
 5138SOL     OW15548   4.746   3.741   2.967
 5138SOL    HW115549   4.692   3.679   2.910
 5138SOL    HW215550   4.837   3.702   2.982
 5139SOL     OW15551   4.507   5.045   2.214
 5139SOL    HW115552   4.485   4.948   2.223
 5139SOL    HW215553   4.588   5.067   2.268
 5140SOL     OW15554   4.352   5.264   3.192
 5140SOL    HW115555   4.371   5.243   3.289
 5140SOL    HW215556   4.439   5.284   3.146
 5141SOL     OW15557   5.100   3.784   2.034
 5141SOL    HW115558   5.138   3.710   1.978
 5141SOL    HW215559   5.005   3.763   2.057
 5142SOL     OW15560   4.979   4.205   2.526
 5142SOL    HW115561   4.927   4.290   2.525
 5142SOL    HW215562   4.998   4.178   2.620
 5143SOL     OW15563   5.387   3.948   2.841
 5143SOL    HW115564   5.302   3.974   2.886
 5143SOL    HW215565   5.384   3.978   2.746
 5144SOL     OW15566   3.760   4.746   2.183
 5144SOL    HW115567   3.855   4.727   2.160
 5144SOL    HW215568   3.714   4.661   2.208
 5145SOL     OW15569   3.923   4.328   3.864
 5145SOL    HW115570   3.830   4.312   3.898
 5145SOL    HW215571   3.922   4.326   3.764
 5146SOL     OW15572   3.931   4.008   4.716
 5146SOL    HW115573   3.983   3.972   4.794
 5146SOL    HW215574   3.839   3.968   4.716
 5147SOL     OW15575   3.716   4.140   4.363
 5147SOL    HW115576   3.635   4.162   4.417
 5147SOL    HW215577   3.694   4.068   4.297
 5148SOL     OW15578   4.293   5.037   4.935
 5148SOL    HW115579   4.207   5.034   4.885
 5148SOL    HW215580   4.312   5.130   4.965
 5149SOL     OW15581   5.291   5.280   4.446
 5149SOL    HW115582   5.256   5.203   4.500
 5149SOL    HW215583   5.242   5.284   4.359
 5150SOL     OW15584   4.839   4.452   4.394
 5150SOL    HW115585   4.896   4.533   4.377
 5150SOL    HW215586   4.790   4.464   4.481
 5151SOL     OW15587   5.476   4.312   3.929
 5151SOL    HW115588   5.453   4.308   3.832
 5151SOL    HW215589   5.437   4.233   3.976
 5152SOL     OW15590   4.443   4.867   4.765
 5152SOL    HW115591   4.382   4.904   4.835
 5152SOL    HW215592   4.487   4.943   4.717
 5153SOL     OW15593   4.583   4.463   0.023
 5153SOL    HW115594   4.594   4.510   0.111
 5153SOL    HW215595   4.619   4.520   5.467
 5154SOL     OW15596   4.422   4.699   4.365
 5154SOL    HW115597   4.491   4.702   4.437
 5154SOL    HW215598   4.351   4.767   4.385
 5155SOL     OW15599   4.065   5.109   4.796
 5155SOL    HW115600   3.988   5.062   4.753
 5155SOL    HW215601   4.110   5.168   4.728
 5156SOL     OW15602   5.194   5.204   5.074
 5156SOL    HW115603   5.264   5.275   5.067
 5156SOL    HW215604   5.116   5.240   5.126
 5157SOL     OW15605   4.211   4.092   5.162
 5157SOL    HW115606   4.289   4.031   5.179
 5157SOL    HW215607   4.127   4.050   5.197
 5158SOL     OW15608   3.913   5.228   4.267
 5158SOL    HW115609   3.935   5.309   4.322
 5158SOL    HW215610   3.901   5.149   4.327
 5159SOL     OW15611   4.044   4.810   4.606
 5159SOL    HW115612   4.047   4.712   4.629
 5159SOL    HW215613   3.979   4.856   4.666
 5160SOL     OW15614   4.287   4.713   3.885
 5160SOL    HW115615   4.329   4.763   3.809
 5160SOL    HW215616   4.336   4.735   3.969
 5161SOL     OW15617   5.426   3.844   5.198
 5161SOL    HW115618   5.443   3.858   5.101
 5161SOL    HW215619   5.415   3.932   5.243
 5162SOL     OW15620   3.834   4.393   4.301
 5162SOL    HW115621   3.801   4.301   4.323
 5162SOL    HW215622   3.833   4.449   4.383
 5163SOL     OW15623   3.720   5.307   3.916
 5163SOL    HW115624   3.668   5.238   3.866
 5163SOL    HW215625   3.777   5.263   3.985
 5164SOL     OW15626   5.415   4.622   4.373
 5164SOL    HW115627   5.498   4.591   4.418
 5164SOL    HW215628   5.424   4.612   4.274
 5165SOL     OW15629   3.918   4.441   5.353
 5165SOL    HW115630   4.017   4.455   5.346
 5165SOL    HW215631   3.873   4.529   5.363
 5166SOL     OW15632   4.350   5.121   4.452
 5166SOL    HW115633   4.309   5.031   4.444
 5166SOL    HW215634   4.343   5.169   4.364
 5167SOL     OW15635   4.946   4.940   5.171
 5167SOL    HW115636   4.984   4.885   5.097
 5167SOL    HW215637   4.965   4.895   5.259
 5168SOL     OW15638   4.554   3.749   4.239
 5168SOL    HW115639   4.599   3.833   4.208
 5168SOL    HW215640   4.455   3.764   4.243
 5169SOL     OW15641   3.932   4.678   4.990
 5169SOL    HW115642   4.023   4.639   4.983
 5169SOL    HW215643   3.867   4.624   4.936
 5170SOL     OW15644   5.256   4.784   3.992
 5170SOL    HW115645   5.187   4.712   4.001
 5170SOL    HW215646   5.347   4.742   3.983
 5171SOL     OW15647   4.804   5.413   5.343
 5171SOL    HW115648   4.820   5.507   5.312
 5171SOL    HW215649   4.855   5.350   5.284
 5172SOL     OW15650   4.074   3.959   0.023
 5172SOL    HW115651   4.114   4.043   0.060
 5172SOL    HW215652   3.977   3.973   0.003
 5173SOL     OW15653   5.212   5.090   4.634
 5173SOL    HW115654   5.146   5.128   4.698
 5173SOL    HW215655   5.189   4.994   4.615
 5174SOL     OW15656   4.296   4.432   4.003
 5174SOL    HW115657   4.298   4.521   3.958
 5174SOL    HW215658   4.227   4.432   4.075
 5175SOL     OW15659   5.006   4.131   4.662
 5175SOL    HW115660   4.916   4.089   4.653
 5175SOL    HW215661   5.060   4.081   4.729
 5176SOL     OW15662   5.348   5.402   3.968
 5176SOL    HW115663   5.403   5.485   3.970
 5176SOL    HW215664   5.282   5.409   3.893
 5177SOL     OW15665   4.522   4.313   5.172
 5177SOL    HW115666   4.469   4.292   5.254
 5177SOL    HW215667   4.502   4.246   5.101
 5178SOL     OW15668   4.700   4.625   5.345
 5178SOL    HW115669   4.741   4.554   5.288
 5178SOL    HW215670   4.647   4.687   5.288
 5179SOL     OW15671   4.749   4.112   4.914
 5179SOL    HW115672   4.654   4.128   4.938
 5179SOL    HW215673   4.754   4.069   4.824
 5180SOL     OW15674   4.770   4.427   4.126
 5180SOL    HW115675   4.791   4.433   4.224
 5180SOL    HW215676   4.682   4.381   4.114
 5181SOL     OW15677   3.821   4.568   4.513
 5181SOL    HW115678   3.912   4.555   4.555
 5181SOL    HW215679   3.770   4.636   4.566
 5182SOL     OW15680   3.864   0.038   5.280
 5182SOL    HW115681   3.902   5.469   5.313
 5182SOL    HW215682   3.764   0.031   5.276
 5183SOL     OW15683   4.572   4.071   3.931
 5183SOL    HW115684   4.633   4.114   3.865
 5183SOL    HW215685   4.515   4.003   3.885
 5184SOL     OW15686   5.116   4.876   4.223
 5184SOL    HW115687   5.175   4.852   4.146
 5184SOL    HW215688   5.068   4.961   4.204
 5185SOL     OW15689   4.289   3.850   4.662
 5185SOL    HW115690   4.303   3.881   4.756
 5185SOL    HW215691   4.287   3.929   4.601
 5186SOL     OW15692   4.733   5.196   4.184
 5186SOL    HW115693   4.714   5.262   4.112
 5186SOL    HW215694   4.695   5.229   4.271
 5187SOL     OW15695   4.119   5.507   4.567
 5187SOL    HW115696   4.163   5.427   4.607
 5187SOL    HW215697   4.164   0.073   4.602
 5188SOL     OW15698   5.493   4.802   4.584
 5188SOL    HW115699   5.438   4.773   4.505
 5188SOL    HW215700   5.437   4.799   4.666
 5189SOL     OW15701   4.935   5.224   5.188
 5189SOL    HW115702   4.957   5.128   5.206
 5189SOL    HW215703   4.866   5.229   5.116
 5190SOL     OW15704   4.029   4.674   4.004
 5190SOL    HW115705   4.111   4.701   3.953
 5190SOL    HW215706   4.007   4.578   3.983
 5191SOL     OW15707   5.187   4.486   4.436
 5191SOL    HW115708   5.183   4.443   4.526
 5191SOL    HW215709   5.271   4.538   4.427
 5192SOL     OW15710   4.180   4.977   5.449
 5192SOL    HW115711   4.117   5.014   5.380
 5192SOL    HW215712   4.156   4.882   5.469
 5193SOL     OW15713   4.850   0.023   3.922
 5193SOL    HW115714   4.759   0.050   3.889
 5193SOL    HW215715   4.871   5.448   3.890
 5194SOL     OW15716   3.947   3.996   5.189
 5194SOL    HW115717   3.895   4.080   5.201
 5194SOL    HW215718   3.912   3.925   5.251
 5195SOL     OW15719   5.127   3.827   4.175
 5195SOL    HW115720   5.125   3.812   4.076
 5195SOL    HW215721   5.216   3.799   4.211
 5196SOL     OW15722   4.103   4.399   4.202
 5196SOL    HW115723   4.122   4.301   4.213
 5196SOL    HW215724   4.008   4.418   4.225
 5197SOL     OW15725   4.386   3.834   3.837
 5197SOL    HW115726   4.441   3.756   3.866
 5197SOL    HW215727   4.318   3.804   3.770
 5198SOL     OW15728   4.488   4.046   5.434
 5198SOL    HW115729   4.573   4.084   5.471
 5198SOL    HW215730   4.447   3.985   5.501
 5199SOL     OW15731   4.585   5.264   4.889
 5199SOL    HW115732   4.566   5.214   4.804
 5199SOL    HW215733   4.641   5.207   4.949
 5200SOL     OW15734   5.034   4.334   5.184
 5200SOL    HW115735   5.071   4.328   5.277
 5200SOL    HW215736   5.075   4.413   5.137
 5201SOL     OW15737   4.541   5.109   4.659
 5201SOL    HW115738   4.636   5.106   4.628
 5201SOL    HW215739   4.481   5.116   4.579
 5202SOL     OW15740   4.657   4.246   4.596
 5202SOL    HW115741   4.632   4.237   4.499
 5202SOL    HW215742   4.688   4.157   4.630
 5203SOL     OW15743   4.285   3.793   4.223
 5203SOL    HW115744   4.206   3.789   4.284
 5203SOL    HW215745   4.274   3.869   4.159
 5204SOL     OW15746   5.164   4.928   3.770
 5204SOL    HW115747   5.203   4.870   3.842
 5204SOL    HW215748   5.083   4.975   3.805
 5205SOL     OW15749   4.009   3.767   3.905
 5205SOL    HW115750   4.054   3.844   3.860
 5205SOL    HW215751   4.078   3.711   3.951
 5206SOL     OW15752   4.681   3.979   4.166
 5206SOL    HW115753   4.643   4.012   4.080
 5206SOL    HW215754   4.779   3.995   4.168
 5207SOL     OW15755   4.774   4.433   5.168
 5207SOL    HW115756   4.699   4.367   5.175
 5207SOL    HW215757   4.861   4.384   5.171
 5208SOL     OW15758   4.954   5.305   4.522
 5208SOL    HW115759   4.908   5.371   4.463
 5208SOL    HW215760   5.028   5.351   4.572
 5209SOL     OW15761   4.221   4.881   4.413
 5209SOL    HW115762   4.163   4.855   4.490
 5209SOL    HW215763   4.167   4.881   4.329
 5210SOL     OW15764   4.746   4.217   3.774
 5210SOL    HW115765   4.704   4.305   3.752
 5210SOL    HW215766   4.815   4.229   3.845
 5211SOL     OW15767   3.852   4.270   5.149
 5211SOL    HW115768   3.940   4.270   5.101
 5211SOL    HW215769   3.856   4.332   5.227
 5212SOL     OW15770   4.314   3.935   4.921
 5212SOL    HW115771   4.358   3.901   5.005
 5212SOL    HW215772   4.215   3.932   4.933
 5213SOL     OW15773   4.599   4.189   4.336
 5213SOL    HW115774   4.554   4.247   4.267
 5213SOL    HW215775   4.630   4.104   4.293
 5214SOL     OW15776   4.742   3.782   4.449
 5214SOL    HW115777   4.677   3.778   4.373
 5214SOL    HW215778   4.721   3.710   4.515
 5215SOL     OW15779   5.142   4.821   4.591
 5215SOL    HW115780   5.084   4.748   4.628
 5215SOL    HW215781   5.121   4.833   4.494
 5216SOL     OW15782   5.158   4.367   4.687
 5216SOL    HW115783   5.099   4.287   4.678
 5216SOL    HW215784   5.223   4.352   4.762
 5217SOL     OW15785   5.481   4.507   4.118
 5217SOL    HW115786   0.038   4.475   4.177
 5217SOL    HW215787   5.473   4.446   4.039
 5218SOL     OW15788   4.208   5.179   3.881
 5218SOL    HW115789   4.133   5.154   3.942
 5218SOL    HW215790   4.205   5.121   3.799
 5219SOL     OW15791   5.104   4.309   3.784
 5219SOL    HW115792   5.047   4.279   3.861
 5219SOL    HW215793   5.200   4.289   3.803
 5220SOL     OW15794   4.247   3.981   4.030
 5220SOL    HW115795   4.299   3.929   3.962
 5220SOL    HW215796   4.213   4.066   3.989
 5221SOL     OW15797   5.389   4.875   5.267
 5221SOL    HW115798   5.486   4.887   5.243
 5221SOL    HW215799   5.367   4.930   5.347
 5222SOL     OW15800   4.723   5.076   5.056
 5222SOL    HW115801   4.632   5.050   5.090
 5222SOL    HW215802   4.793   5.023   5.105
 5223SOL     OW15803   4.856   4.971   4.840
 5223SOL    HW115804   4.791   5.009   4.906
 5223SOL    HW215805   4.834   5.003   4.748
 5224SOL     OW15806   5.324   4.793   4.802
 5224SOL    HW115807   5.304   4.849   4.882
 5224SOL    HW215808   5.250   4.802   4.735
 5225SOL     OW15809   4.666   3.799   5.090
 5225SOL    HW115810   4.691   3.789   4.994
 5225SOL    HW215811   4.741   3.844   5.139
 5226SOL     OW15812   4.458   4.765   4.097
 5226SOL    HW115813   4.448   4.735   4.192
 5226SOL    HW215814   4.529   4.711   4.052
 5227SOL     OW15815   4.173   4.542   4.981
 5227SOL    HW115816   4.247   4.555   5.047
 5227SOL    HW215817   4.136   4.449   4.991
 5228SOL     OW15818   4.981   4.096   5.052
 5228SOL    HW115819   5.007   4.182   5.096
 5228SOL    HW215820   4.896   4.108   5.001
 5229SOL     OW15821   3.792   5.286   5.098
 5229SOL    HW115822   3.754   5.356   5.037
 5229SOL    HW215823   3.891   5.284   5.088
 5230SOL     OW15824   4.050   4.878   4.196
 5230SOL    HW115825   4.045   4.958   4.136
 5230SOL    HW215826   4.043   4.795   4.141
 5231SOL     OW15827   4.249   4.273   4.607
 5231SOL    HW115828   4.258   4.328   4.525
 5231SOL    HW215829   4.328   4.287   4.667
 5232SOL     OW15830   4.994   5.114   4.141
 5232SOL    HW115831   5.055   5.191   4.161
 5232SOL    HW215832   4.901   5.137   4.169
 5233SOL     OW15833   5.051   5.162   4.843
 5233SOL    HW115834   5.108   5.167   4.925
 5233SOL    HW215835   4.989   5.084   4.850
 5234SOL     OW15836   5.310   4.316   4.245
 5234SOL    HW115837   5.239   4.350   4.307
 5234SOL    HW215838   5.353   4.393   4.197
 5235SOL     OW15839   4.057   5.234   5.037
 5235SOL    HW115840   4.046   5.188   4.949
 5235SOL    HW215841   4.149   5.273   5.043
 5236SOL     OW15842   4.192   4.491   5.356
 5236SOL    HW115843   4.242   4.528   5.278
 5236SOL    HW215844   4.241   4.412   5.393
 5237SOL     OW15845   5.341   4.423   5.446
 5237SOL    HW115846   5.251   4.459   5.468
 5237SOL    HW215847   5.384   4.481   5.377
 5238SOL     OW15848   4.333   4.600   4.760
 5238SOL    HW115849   4.363   4.695   4.755
 5238SOL    HW215850   4.268   4.588   4.835
 5239SOL     OW15851   5.008   4.600   4.704
 5239SOL    HW115852   4.914   4.572   4.687
 5239SOL    HW215853   5.068   4.520   4.701
 5240SOL     OW15854   4.924   4.246   3.985
 5240SOL    HW115855   4.939   4.166   4.044
 5240SOL    HW215856   4.876   4.317   4.036
 5241SOL     OW15857   4.042   3.909   4.948
 5241SOL    HW115858   4.015   3.946   5.037
 5241SOL    HW215859   4.020   3.811   4.945
 5242SOL     OW15860   3.781   5.037   4.974
 5242SOL    HW115861   3.800   4.964   5.040
 5242SOL    HW215862   3.778   5.125   5.021
 5243SOL     OW15863   4.460   4.355   4.765
 5243SOL    HW115864   4.528   4.335   4.694
 5243SOL    HW215865   4.424   4.447   4.750
 5244SOL     OW15866   4.052   3.786   4.368
 5244SOL    HW115867   4.012   3.876   4.385
 5244SOL    HW215868   4.060   3.736   4.454
 5245SOL     OW15869   5.331   4.112   4.054
 5245SOL    HW115870   5.364   4.033   4.104
 5245SOL    HW215871   5.297   4.181   4.119
 5246SOL     OW15872   4.748   4.493   4.676
 5246SOL    HW115873   4.726   4.511   4.771
 5246SOL    HW215874   4.725   4.398   4.653
 5247SOL     OW15875   4.577   5.290   5.465
 5247SOL    HW115876   4.649   5.329   5.408
 5247SOL    HW215877   4.513   5.238   5.408
 5248SOL     OW15878   4.106   4.709   5.506
 5248SOL    HW115879   4.141   4.693   0.081
 5248SOL    HW215880   4.132   4.633   5.446
 5249SOL     OW15881   5.273   3.983   3.811
 5249SOL    HW115882   5.207   3.913   3.838
 5249SOL    HW215883   5.296   4.038   3.891
 5250SOL     OW15884   4.996   4.560   3.746
 5250SOL    HW115885   5.028   4.466   3.757
 5250SOL    HW215886   5.018   4.592   3.654
 5251SOL     OW15887   4.805   5.083   4.597
 5251SOL    HW115888   4.818   5.006   4.535
 5251SOL    HW215889   4.862   5.160   4.566
 5252SOL     OW15890   4.059   4.535   4.652
 5252SOL    HW115891   4.158   4.540   4.638
 5252SOL    HW215892   4.035   4.446   4.690
 5253SOL     OW15893   4.018   4.263   4.740
 5253SOL    HW115894   3.973   4.174   4.727
 5253SOL    HW215895   4.102   4.265   4.686
 5254SOL     OW15896   4.874   3.920   5.237
 5254SOL    HW115897   4.883   3.968   5.324
 5254SOL    HW215898   4.921   3.972   5.165
 5255SOL     OW15899   3.759   4.998   3.925
 5255SOL    HW115900   3.674   5.029   3.882
 5255SOL    HW215901   3.748   4.904   3.957
 5256SOL     OW15902   4.243   5.273   4.655
 5256SOL    HW115903   4.318   5.287   4.720
 5256SOL    HW215904   4.277   5.221   4.576
 5257SOL     OW15905   4.660   4.528   4.933
 5257SOL    HW115906   4.713   4.505   5.015
 5257SOL    HW215907   4.578   4.472   4.929
 5258SOL     OW15908   3.787   4.356   4.880
 5258SOL    HW115909   3.865   4.330   4.823
 5258SOL    HW215910   3.806   4.333   4.975
 5259SOL     OW15911   4.529   4.302   4.084
 5259SOL    HW115912   4.535   4.218   4.031
 5259SOL    HW215913   4.447   4.353   4.058
 5260SOL     OW15914   3.981   5.317   5.372
 5260SOL    HW115915   3.933   5.314   5.459
 5260SOL    HW215916   3.987   5.224   5.333
 5261SOL     OW15917   4.479   4.157   4.950
 5261SOL    HW115918   4.415   4.082   4.936
 5261SOL    HW215919   4.463   4.228   4.882
 5262SOL     OW15920   4.163   4.206   3.898
 5262SOL    HW115921   4.229   4.277   3.923
 5262SOL    HW215922   4.072   4.247   3.894
 5263SOL     OW15923   3.862   4.846   5.191
 5263SOL    HW115924   3.848   4.791   5.274
 5263SOL    HW215925   3.890   4.787   5.116
 5264SOL     OW15926   4.993   4.755   4.933
 5264SOL    HW115927   5.005   4.691   4.858
 5264SOL    HW215928   4.942   4.835   4.901
 5265SOL     OW15929   5.061   4.596   4.013
 5265SOL    HW115930   4.989   4.561   4.073
 5265SOL    HW215931   5.034   4.583   3.917
 5266SOL     OW15932   5.502   5.449   4.856
 5266SOL    HW115933   0.039   5.477   4.777
 5266SOL    HW215934   5.457   5.362   4.836
 5267SOL     OW15935   4.976   5.424   4.827
 5267SOL    HW115936   5.044   5.464   4.766
 5267SOL    HW215937   4.991   5.326   4.835
 5268SOL     OW15938   3.845   4.953   4.723
 5268SOL    HW115939   3.817   4.984   4.814
 5268SOL    HW215940   3.774   4.894   4.685
 5269SOL     OW15941   5.450   3.911   4.207
 5269SOL    HW115942   5.507   3.895   4.127
 5269SOL    HW215943   5.427   3.823   4.250
 5270SOL     OW15944   5.171   5.336   4.186
 5270SOL    HW115945   5.241   5.338   4.115
 5270SOL    HW215946   5.136   5.428   4.201
 5271SOL     OW15947   5.001   4.667   4.353
 5271SOL    HW115948   5.072   4.602   4.379
 5271SOL    HW215949   5.040   4.740   4.296
 5272SOL     OW15950   4.475   5.002   5.136
 5272SOL    HW115951   4.442   5.054   5.214
 5272SOL    HW215952   4.406   5.002   5.064
 5273SOL     OW15953   4.410   5.360   3.841
 5273SOL    HW115954   4.414   5.368   3.742
 5273SOL    HW215955   4.338   5.296   3.867
 5274SOL     OW15956   3.958   4.031   4.439
 5274SOL    HW115957   3.873   4.074   4.409
 5274SOL    HW215958   3.960   4.027   4.539
 5275SOL     OW15959   4.915   5.296   3.810
 5275SOL    HW115960   4.923   5.202   3.844
 5275SOL    HW215961   4.836   5.303   3.749
 5276SOL     OW15962   4.567   4.746   5.135
 5276SOL    HW115963   4.608   4.724   5.047
 5276SOL    HW215964   4.535   4.840   5.134
 5277SOL     OW15965   4.652   4.620   3.960
 5277SOL    HW115966   4.718   4.683   3.920
 5277SOL    HW215967   4.700   4.555   4.019
 5278SOL     OW15968   5.171   5.393   3.751
 5278SOL    HW115969   5.081   5.351   3.765
 5278SOL    HW215970   5.211   5.358   3.666
 5279SOL     OW15971   4.014   5.069   5.253
 5279SOL    HW115972   4.033   5.120   5.169
 5279SOL    HW215973   3.960   4.988   5.231
 5280SOL     OW15974   5.265   4.941   5.026
 5280SOL    HW115975   5.306   4.904   5.110
 5280SOL    HW215976   5.242   5.037   5.039
 5281SOL     OW15977   4.816   4.846   4.463
 5281SOL    HW115978   4.734   4.799   4.497
 5281SOL    HW215979   4.876   4.780   4.418
 5282SOL     OW15980   4.766   3.978   4.662
 5282SOL    HW115981   4.761   3.941   4.570
 5282SOL    HW215982   4.761   3.904   4.729
 5283SOL     OW15983   4.357   5.252   4.216
 5283SOL    HW115984   4.388   5.192   4.143
 5283SOL    HW215985   4.330   5.340   4.177
 5284SOL     OW15986   3.988   5.101   4.040
 5284SOL    HW115987   3.903   5.064   4.002
 5284SOL    HW215988   3.967   5.157   4.120
 5285SOL     OW15989   3.834   4.697   5.423
 5285SOL    HW115990   3.755   4.690   5.484
 5285SOL    HW215991   3.916   4.716   5.477
 5286SOL     OW15992   4.435   3.912   5.192
 5286SOL    HW115993   4.519   3.873   5.154
 5286SOL    HW215994   4.456   3.961   5.277
 5287SOL     OW15995   3.803   4.043   3.727
 5287SOL    HW115996   3.719   4.025   3.676
 5287SOL    HW215997   3.836   4.135   3.706
 5288SOL     OW15998   5.143   4.555   5.064
 5288SOL    HW115999   5.087   4.631   5.030
 5288SOL    HW216000   5.240   4.575   5.046
 5289SOL     OW16001   3.768   3.877   3.964
 5289SOL    HW116002   3.753   3.944   3.891
 5289SOL    HW216003   3.860   3.837   3.955
 5290SOL     OW16004   4.932   5.029   3.882
 5290SOL    HW116005   4.888   4.939   3.876
 5290SOL    HW216006   4.952   5.050   3.977
 5291SOL     OW16007   4.379   4.550   5.159
 5291SOL    HW116008   4.442   4.628   5.157
 5291SOL    HW216009   4.431   4.465   5.164
 5292SOL     OW16010   5.170   5.456   4.628
 5292SOL    HW116011   5.204   0.033   4.628
 5292SOL    HW216012   5.232   5.399   4.575
 5293SOL     OW16013   4.388   4.305   5.418
 5293SOL    HW116014   4.453   4.359   5.472
 5293SOL    HW216015   4.405   4.208   5.433
 5294SOL     OW16016   4.234   5.389   5.276
 5294SOL    HW116017   4.259   5.484   5.299
 5294SOL    HW216018   4.142   5.369   5.309
 5295SOL     OW16019   5.418   4.594   4.980
 5295SOL    HW116020   5.439   4.506   4.938
 5295SOL    HW216021   5.392   4.659   4.908
 5296SOL     OW16022   4.950   4.045   4.175
 5296SOL    HW116023   5.015   3.969   4.177
 5296SOL    HW216024   4.963   4.102   4.256
 5297SOL     OW16025   4.280   4.460   4.410
 5297SOL    HW116026   4.336   4.541   4.390
 5297SOL    HW216027   4.218   4.443   4.334
 5298SOL     OW16028   5.443   4.105   5.312
 5298SOL    HW116029   5.490   4.166   5.248
 5298SOL    HW216030   5.371   4.155   5.360
 5299SOL     OW16031   5.451   4.599   5.256
 5299SOL    HW116032   5.423   4.692   5.280
 5299SOL    HW216033   5.445   4.587   5.157
 5300SOL     OW16034   4.541   5.091   3.811
 5300SOL    HW116035   4.525   5.078   3.909
 5300SOL    HW216036   4.549   5.189   3.792
 5301SOL     OW16037   4.600   4.713   4.580
 5301SOL    HW116038   4.648   4.634   4.617
 5301SOL    HW216039   4.547   4.757   4.652
 5302SOL     OW16040   4.834   4.775   3.822
 5302SOL    HW116041   4.774   4.800   3.746
 5302SOL    HW216042   4.896   4.701   3.793
 5303SOL     OW16043   0.044   5.295   4.486
 5303SOL    HW116044   5.463   5.295   4.466
 5303SOL    HW216045   0.071   5.207   4.524
 5304SOL     OW16046   3.892   4.985   4.401
 5304SOL    HW116047   3.915   4.944   4.489
 5304SOL    HW216048   3.941   4.937   4.328
 5305SOL     OW16049   4.370   5.155   5.339
 5305SOL    HW116050   4.312   5.090   5.388
 5305SOL    HW216051   4.317   5.238   5.319
 5306SOL     OW16052   5.470   3.854   4.930
 5306SOL    HW116053   5.487   3.758   4.909
 5306SOL    HW216054   5.439   3.902   4.848
 5307SOL     OW16055   4.134   4.136   4.245
 5307SOL    HW116056   4.169   4.066   4.183
 5307SOL    HW216057   4.078   4.093   4.316
 5308SOL     OW16058   5.406   5.198   4.807
 5308SOL    HW116059   5.342   5.158   4.742
 5308SOL    HW216060   5.447   5.126   4.862
 5309SOL     OW16061   4.086   4.282   5.011
 5309SOL    HW116062   4.144   4.216   5.058
 5309SOL    HW216063   4.079   4.257   4.914
 5310SOL     OW16064   4.593   5.320   4.386
 5310SOL    HW116065   4.580   5.411   4.345
 5310SOL    HW216066   4.508   5.269   4.382
 5311SOL     OW16067   5.139   3.987   4.852
 5311SOL    HW116068   5.147   3.888   4.859
 5311SOL    HW216069   5.092   4.023   4.933
 5312SOL     OW16070   4.748   3.751   4.824
 5312SOL    HW116071   4.690   3.691   4.769
 5312SOL    HW216072   4.839   3.710   4.833
 5313SOL     OW16073   4.507   5.045   4.080
 5313SOL    HW116074   4.485   4.948   4.090
 5313SOL    HW216075   4.591   5.066   4.130
 5314SOL     OW16076   4.334   5.294   5.025
 5314SOL    HW116077   4.323   5.342   5.112
 5314SOL    HW216078   4.425   5.311   4.988
 5315SOL     OW16079   5.101   3.782   3.900
 5315SOL    HW116080   5.139   3.708   3.844
 5315SOL    HW216081   5.006   3.761   3.922
 5316SOL     OW16082   4.976   4.206   4.392
 5316SOL    HW116083   4.927   4.293   4.389
 5316SOL    HW216084   4.997   4.182   4.487
 5317SOL     OW16085   5.364   3.961   4.693
 5317SOL    HW116086   5.285   3.992   4.747
 5317SOL    HW216087   5.368   4.011   4.607
 5318SOL     OW16088   3.760   4.738   4.034
 5318SOL    HW116089   3.858   4.728   4.019
 5318SOL    HW216090   3.718   4.649   4.048
   5.51732   5.51732   5.51732
