PNi mol in water
12752
    1PNI    CH1    1   0.698   2.308   2.563
    1PNI    CH2    2   0.810   2.340   2.462
    1PNI    CH1    3   0.872   2.478   2.479
    1PNI    CH2    4   1.019   2.489   2.431
    1PNI    CH1    5   1.082   2.628   2.433
    1PNI    CH2    6   1.216   2.629   2.354
    1PNI    CH1    7   1.325   2.726   2.397
    1PNI    CH2    8   1.463   2.655   2.404
    1PNI    CH1    9   1.587   2.734   2.442
    1PNI    CH2   10   1.689   2.647   2.519
    1PNI    CH1   11   1.835   2.683   2.497
    1PNI    CH2   12   1.938   2.583   2.555
    1PNI    CH1   13   2.081   2.637   2.562
    1PNI    CH2   14   2.189   2.530   2.585
    1PNI    CH1   15   2.331   2.586   2.597
    1PNI    CH2   16   2.443   2.480   2.596
    1PNI    CH1   17   2.583   2.541   2.608
    1PNI    CH2   18   2.701   2.449   2.571
    1PNI    CH1   19   2.838   2.514   2.592
    1PNI    CH2   20   2.958   2.417   2.581
    1PNI    CH1   21   3.088   2.485   2.539
    1PNI    CH2   22   3.204   2.389   2.504
    1PNI    CH1   23   3.312   2.458   2.420
    1PNI    CH2   24   3.447   2.384   2.407
    1PNI    CH1   25   3.560   2.477   2.362
    1PNI    CH2   26   3.701   2.433   2.406
    1PNI    CH1   27   3.791   2.535   2.475
    1PNI    CH2   28   3.916   2.460   2.522
    1PNI    CH1   29   4.033   2.536   2.586
    1PNI    CH2   30   4.133   2.434   2.645
    1PNI    CH1   31   4.273   2.482   2.684
    1PNI    CH2   32   4.378   2.377   2.648
    2SOL     OW   33   0.291   2.114   0.082
    2SOL    HW1   34   0.233   2.037   0.109
    2SOL    HW2   35   0.386   2.085   0.078
    3SOL     OW   36   0.742   1.473   3.574
    3SOL    HW1   37   0.839   1.493   3.583
    3SOL    HW2   38   0.704   1.522   3.495
    4SOL     OW   39   1.606   4.979   4.754
    4SOL    HW1   40   1.704   4.966   4.764
    4SOL    HW2   41   1.559   4.891   4.764
    5SOL     OW   42   4.804   0.079   0.748
    5SOL    HW1   43   4.796   0.055   0.845
    5SOL    HW2   44   4.714   0.100   0.712
    6SOL     OW   45   2.909   4.627   4.207
    6SOL    HW1   46   2.933   4.562   4.280
    6SOL    HW2   47   2.810   4.637   4.202
    7SOL     OW   48   1.243   3.740   1.836
    7SOL    HW1   49   1.182   3.818   1.830
    7SOL    HW2   50   1.235   3.698   1.927
    8SOL     OW   51   0.979   1.885   3.990
    8SOL    HW1   52   1.011   1.954   4.055
    8SOL    HW2   53   1.038   1.886   3.909
    9SOL     OW   54   0.354   3.779   0.066
    9SOL    HW1   55   0.319   3.758   0.157
    9SOL    HW2   56   0.423   3.711   0.041
   10SOL     OW   57   3.150   1.393   1.268
   10SOL    HW1   58   3.236   1.425   1.307
   10SOL    HW2   59   3.088   1.365   1.342
   11SOL     OW   60   0.627   2.501   3.392
   11SOL    HW1   61   0.617   2.467   3.486
   11SOL    HW2   62   0.595   2.432   3.328
   12SOL     OW   63   4.997   4.777   2.159
   12SOL    HW1   64   4.898   4.770   2.156
   12SOL    HW2   65   5.031   4.807   2.070
   13SOL     OW   66   2.358   0.313   0.185
   13SOL    HW1   67   2.402   0.387   0.236
   13SOL    HW2   68   2.261   0.335   0.170
   14SOL     OW   69   3.472   0.555   3.515
   14SOL    HW1   70   3.425   0.485   3.570
   14SOL    HW2   71   3.555   0.516   3.476
   15SOL     OW   72   4.781   0.824   3.732
   15SOL    HW1   73   4.874   0.813   3.697
   15SOL    HW2   74   4.784   0.875   3.818
   16SOL     OW   75   0.643   3.892   3.745
   16SOL    HW1   76   0.683   3.977   3.711
   16SOL    HW2   77   0.694   3.861   3.825
   17SOL     OW   78   4.874   3.304   0.881
   17SOL    HW1   79   4.807   3.367   0.921
   17SOL    HW2   80   4.854   3.291   0.784
   18SOL     OW   81   1.626   4.765   1.098
   18SOL    HW1   82   1.713   4.812   1.114
   18SOL    HW2   83   1.557   4.831   1.066
   19SOL     OW   84   4.019   3.452   0.099
   19SOL    HW1   85   4.045   3.422   0.190
   19SOL    HW2   86   4.041   3.381   0.032
   20SOL     OW   87   2.307   3.325   0.769
   20SOL    HW1   88   2.326   3.227   0.778
   20SOL    HW2   89   2.240   3.352   0.839
   21SOL     OW   90   3.714   3.382   4.176
   21SOL    HW1   91   3.771   3.449   4.130
   21SOL    HW2   92   3.618   3.409   4.170
   22SOL     OW   93   4.641   0.673   0.891
   22SOL    HW1   94   4.683   0.611   0.825
   22SOL    HW2   95   4.599   0.620   0.965
   23SOL     OW   96   3.322   0.074   4.703
   23SOL    HW1   97   3.301   0.114   4.792
   23SOL    HW2   98   3.267   0.118   4.632
   24SOL     OW   99   0.760   2.235   2.918
   24SOL    HW1  100   0.683   2.239   2.854
   24SOL    HW2  101   0.733   2.277   3.004
   25SOL     OW  102   3.476   0.936   4.433
   25SOL    HW1  103   3.506   0.982   4.517
   25SOL    HW2  104   3.377   0.947   4.423
   26SOL     OW  105   3.795   2.438   0.242
   26SOL    HW1  106   3.864   2.511   0.241
   26SOL    HW2  107   3.808   2.382   0.324
   27SOL     OW  108   4.582   1.281   4.606
   27SOL    HW1  109   4.499   1.316   4.563
   27SOL    HW2  110   4.584   1.308   4.702
   28SOL     OW  111   2.217   0.609   2.935
   28SOL    HW1  112   2.155   0.637   3.008
   28SOL    HW2  113   2.170   0.547   2.872
   29SOL     OW  114   3.145   0.855   1.063
   29SOL    HW1  115   3.146   0.855   1.163
   29SOL    HW2  116   3.053   0.834   1.030
   30SOL     OW  117   0.696   4.490   4.984
   30SOL    HW1  118   0.685   4.404   5.033
   30SOL    HW2  119   0.727   4.561   0.012
   31SOL     OW  120   3.296   0.783   0.244
   31SOL    HW1  121   3.377   0.741   0.202
   31SOL    HW2  122   3.213   0.742   0.206
   32SOL     OW  123   1.150   3.563   2.396
   32SOL    HW1  124   1.158   3.560   2.495
   32SOL    HW2  125   1.207   3.637   2.360
   33SOL     OW  126   1.372   3.012   4.567
   33SOL    HW1  127   1.337   2.949   4.636
   33SOL    HW2  128   1.370   2.968   4.477
   34SOL     OW  129   0.393   1.841   3.807
   34SOL    HW1  130   0.333   1.834   3.887
   34SOL    HW2  131   0.390   1.755   3.756
   35SOL     OW  132   2.905   0.484   0.586
   35SOL    HW1  133   2.972   0.545   0.543
   35SOL    HW2  134   2.920   0.390   0.555
   36SOL     OW  135   3.403   3.980   3.673
   36SOL    HW1  136   3.494   3.988   3.714
   36SOL    HW2  137   3.337   4.031   3.729
   37SOL     OW  138   0.384   2.620   0.336
   37SOL    HW1  139   0.353   2.671   0.255
   37SOL    HW2  140   0.388   2.522   0.314
   38SOL     OW  141   4.636   4.472   1.854
   38SOL    HW1  142   4.734   4.480   1.842
   38SOL    HW2  143   4.613   4.479   1.951
   39SOL     OW  144   1.756   2.556   0.932
   39SOL    HW1  145   1.853   2.538   0.949
   39SOL    HW2  146   1.747   2.618   0.855
   40SOL     OW  147   3.900   0.842   2.002
   40SOL    HW1  148   3.853   0.768   2.050
   40SOL    HW2  149   3.872   0.842   1.906
   41SOL     OW  150   3.454   0.793   2.382
   41SOL    HW1  151   3.468   0.859   2.456
   41SOL    HW2  152   3.471   0.837   2.294
   42SOL     OW  153   4.980   1.771   0.537
   42SOL    HW1  154   4.917   1.843   0.568
   42SOL    HW2  155   0.008   1.748   0.610
   43SOL     OW  156   3.463   3.343   0.688
   43SOL    HW1  157   3.543   3.399   0.667
   43SOL    HW2  158   3.420   3.313   0.603
   44SOL     OW  159   4.591   3.671   4.161
   44SOL    HW1  160   4.522   3.626   4.217
   44SOL    HW2  161   4.660   3.605   4.132
   45SOL     OW  162   0.577   1.771   4.059
   45SOL    HW1  163   0.621   1.854   4.094
   45SOL    HW2  164   0.603   1.756   3.964
   46SOL     OW  165   0.145   0.713   4.152
   46SOL    HW1  166   0.115   0.667   4.068
   46SOL    HW2  167   0.067   0.759   4.194
   47SOL     OW  168   2.974   1.817   1.282
   47SOL    HW1  169   3.066   1.822   1.244
   47SOL    HW2  170   2.979   1.800   1.381
   48SOL     OW  171   2.714   2.575   0.086
   48SOL    HW1  172   2.683   2.625   0.167
   48SOL    HW2  173   2.690   2.626   0.004
   49SOL     OW  174   3.797   0.645   4.053
   49SOL    HW1  175   3.741   0.633   3.971
   49SOL    HW2  176   3.766   0.582   4.124
   50SOL     OW  177   4.535   2.047   2.908
   50SOL    HW1  178   4.574   2.139   2.907
   50SOL    HW2  179   4.599   1.983   2.867
   51SOL     OW  180   0.424   4.784   0.367
   51SOL    HW1  181   0.394   4.852   0.435
   51SOL    HW2  182   0.393   4.812   0.276
   52SOL     OW  183   2.142   0.421   0.467
   52SOL    HW1  184   2.139   0.321   0.476
   52SOL    HW2  185   2.133   0.462   0.558
   53SOL     OW  186   4.658   4.905   3.270
   53SOL    HW1  187   4.729   4.939   3.208
   53SOL    HW2  188   4.687   4.920   3.365
   54SOL     OW  189   2.179   4.064   0.687
   54SOL    HW1  190   2.114   4.136   0.663
   54SOL    HW2  191   2.164   3.985   0.627
   55SOL     OW  192   0.642   0.354   0.958
   55SOL    HW1  193   0.734   0.339   0.921
   55SOL    HW2  194   0.643   0.434   1.017
   56SOL     OW  195   0.475   2.806   3.650
   56SOL    HW1  196   0.461   2.905   3.648
   56SOL    HW2  197   0.550   2.784   3.713
   57SOL     OW  198   0.013   3.648   3.594
   57SOL    HW1  199   4.991   3.625   3.673
   57SOL    HW2  200   0.010   3.573   3.527
   58SOL     OW  201   0.969   2.449   1.016
   58SOL    HW1  202   0.894   2.472   1.077
   58SOL    HW2  203   0.936   2.439   0.923
   59SOL     OW  204   1.731   0.616   2.312
   59SOL    HW1  205   1.682   0.669   2.242
   59SOL    HW2  206   1.667   0.591   2.384
   60SOL     OW  207   1.602   1.653   3.138
   60SOL    HW1  208   1.672   1.700   3.085
   60SOL    HW2  209   1.570   1.573   3.088
   61SOL     OW  210   3.186   2.570   0.920
   61SOL    HW1  211   3.242   2.614   0.850
   61SOL    HW2  212   3.244   2.546   0.998
   62SOL     OW  213   4.633   1.922   2.448
   62SOL    HW1  214   4.544   1.877   2.457
   62SOL    HW2  215   4.698   1.877   2.509
   63SOL     OW  216   0.679   3.110   1.829
   63SOL    HW1  217   0.626   3.092   1.746
   63SOL    HW2  218   0.657   3.041   1.898
   64SOL     OW  219   4.004   2.022   3.330
   64SOL    HW1  220   4.074   2.041   3.261
   64SOL    HW2  221   4.002   1.924   3.349
   65SOL     OW  222   2.283   3.354   2.016
   65SOL    HW1  223   2.367   3.394   2.052
   65SOL    HW2  224   2.209   3.370   2.081
   66SOL     OW  225   1.188   0.924   1.174
   66SOL    HW1  226   1.283   0.902   1.149
   66SOL    HW2  227   1.187   0.987   1.251
   67SOL     OW  228   2.729   4.099   1.370
   67SOL    HW1  229   2.701   4.014   1.413
   67SOL    HW2  230   2.823   4.091   1.337
   68SOL     OW  231   4.280   0.642   1.774
   68SOL    HW1  232   4.336   0.661   1.694
   68SOL    HW2  233   4.198   0.699   1.773
   69SOL     OW  234   4.920   4.551   4.959
   69SOL    HW1  235   4.919   4.464   4.911
   69SOL    HW2  236   5.011   4.568   4.997
   70SOL     OW  237   2.277   4.454   0.214
   70SOL    HW1  238   2.265   4.366   0.260
   70SOL    HW2  239   2.286   4.440   0.116
   71SOL     OW  240   3.596   3.604   3.369
   71SOL    HW1  241   3.689   3.618   3.336
   71SOL    HW2  242   3.531   3.649   3.307
   72SOL     OW  243   2.313   1.252   3.029
   72SOL    HW1  244   2.285   1.323   3.095
   72SOL    HW2  245   2.255   1.258   2.948
   73SOL     OW  246   2.611   1.714   1.437
   73SOL    HW1  247   2.557   1.631   1.426
   73SOL    HW2  248   2.686   1.697   1.501
   74SOL     OW  249   2.609   3.348   1.025
   74SOL    HW1  250   2.554   3.339   1.108
   74SOL    HW2  251   2.562   3.408   0.960
   75SOL     OW  252   3.562   4.795   3.878
   75SOL    HW1  253   3.640   4.847   3.913
   75SOL    HW2  254   3.477   4.843   3.898
   76SOL     OW  255   3.556   2.650   4.293
   76SOL    HW1  256   3.505   2.580   4.342
   76SOL    HW2  257   3.625   2.607   4.235
   77SOL     OW  258   0.959   0.030   2.220
   77SOL    HW1  259   0.992   5.029   2.308
   77SOL    HW2  260   0.899   4.997   2.177
   78SOL     OW  261   0.743   1.955   0.957
   78SOL    HW1  262   0.756   2.014   0.877
   78SOL    HW2  263   0.809   1.979   1.028
   79SOL     OW  264   3.795   2.999   2.783
   79SOL    HW1  265   3.780   2.973   2.878
   79SOL    HW2  266   3.839   2.924   2.734
   80SOL     OW  267   3.986   1.673   1.143
   80SOL    HW1  268   3.906   1.669   1.203
   80SOL    HW2  269   4.029   1.582   1.139
   81SOL     OW  270   2.051   3.242   2.757
   81SOL    HW1  271   1.977   3.237   2.825
   81SOL    HW2  272   2.054   3.333   2.717
   82SOL     OW  273   3.416   0.124   0.927
   82SOL    HW1  274   3.506   0.081   0.932
   82SOL    HW2  275   3.413   0.184   0.847
   83SOL     OW  276   0.326   3.968   2.913
   83SOL    HW1  277   0.263   3.934   2.983
   83SOL    HW2  278   0.387   3.895   2.884
   84SOL     OW  279   1.453   0.098   1.590
   84SOL    HW1  280   1.471   0.193   1.565
   84SOL    HW2  281   1.395   0.096   1.671
   85SOL     OW  282   3.551   0.280   0.296
   85SOL    HW1  283   3.630   0.291   0.357
   85SOL    HW2  284   3.484   0.220   0.339
   86SOL     OW  285   0.790   3.816   2.004
   86SOL    HW1  286   0.825   3.905   2.035
   86SOL    HW2  287   0.831   3.794   1.915
   87SOL     OW  288   3.885   1.983   2.726
   87SOL    HW1  289   3.866   1.898   2.774
   87SOL    HW2  290   3.913   2.053   2.793
   88SOL     OW  291   4.355   0.909   4.512
   88SOL    HW1  292   4.401   0.876   4.595
   88SOL    HW2  293   4.380   0.850   4.435
   89SOL     OW  294   4.725   1.919   0.496
   89SOL    HW1  295   4.703   1.864   0.416
   89SOL    HW2  296   4.733   2.015   0.469
   90SOL     OW  297   4.990   4.424   0.385
   90SOL    HW1  298   4.991   4.518   0.353
   90SOL    HW2  299   4.964   4.421   0.481
   91SOL     OW  300   2.389   0.651   1.505
   91SOL    HW1  301   2.397   0.648   1.604
   91SOL    HW2  302   2.302   0.611   1.477
   92SOL     OW  303   2.657   0.142   1.881
   92SOL    HW1  304   2.645   0.206   1.806
   92SOL    HW2  305   2.638   0.049   1.849
   93SOL     OW  306   1.766   0.458   2.908
   93SOL    HW1  307   1.756   0.557   2.916
   93SOL    HW2  308   1.744   0.430   2.814
   94SOL     OW  309   0.591   4.847   3.119
   94SOL    HW1  310   0.640   4.921   3.072
   94SOL    HW2  311   0.572   4.873   3.213
   95SOL     OW  312   0.361   1.596   3.675
   95SOL    HW1  313   0.438   1.556   3.725
   95SOL    HW2  314   0.313   1.524   3.625
   96SOL     OW  315   0.803   2.532   1.228
   96SOL    HW1  316   0.805   2.583   1.315
   96SOL    HW2  317   0.767   2.440   1.244
   97SOL     OW  318   1.979   4.777   4.168
   97SOL    HW1  319   2.043   4.841   4.210
   97SOL    HW2  320   1.956   4.705   4.233
   98SOL     OW  321   1.206   4.355   0.377
   98SOL    HW1  322   1.275   4.348   0.449
   98SOL    HW2  323   1.248   4.387   0.293
   99SOL     OW  324   2.818   3.491   0.559
   99SOL    HW1  325   2.813   3.513   0.656
   99SOL    HW2  326   2.764   3.557   0.507
  100SOL     OW  327   0.607   2.129   1.653
  100SOL    HW1  328   0.519   2.083   1.665
  100SOL    HW2  329   0.623   2.144   1.555
  101SOL     OW  330   3.716   0.792   4.533
  101SOL    HW1  331   3.764   0.878   4.517
  101SOL    HW2  332   3.717   0.770   4.631
  102SOL     OW  333   1.703   0.184   4.643
  102SOL    HW1  334   1.799   0.201   4.621
  102SOL    HW2  335   1.683   0.087   4.634
  103SOL     OW  336   4.292   2.134   4.473
  103SOL    HW1  337   4.232   2.056   4.494
  103SOL    HW2  338   4.338   2.163   4.557
  104SOL     OW  339   4.841   1.046   3.232
  104SOL    HW1  340   4.863   1.030   3.329
  104SOL    HW2  341   4.864   1.140   3.208
  105SOL     OW  342   0.652   3.972   1.056
  105SOL    HW1  343   0.556   3.978   1.028
  105SOL    HW2  344   0.658   3.938   1.149
  106SOL     OW  345   1.869   4.510   0.561
  106SOL    HW1  346   1.946   4.572   0.578
  106SOL    HW2  347   1.791   4.538   0.617
  107SOL     OW  348   3.291   3.542   0.815
  107SOL    HW1  349   3.233   3.474   0.860
  107SOL    HW2  350   3.363   3.495   0.763
  108SOL     OW  351   1.607   4.487   2.899
  108SOL    HW1  352   1.581   4.413   2.961
  108SOL    HW2  353   1.602   4.454   2.804
  109SOL     OW  354   1.003   2.294   2.121
  109SOL    HW1  355   0.948   2.210   2.116
  109SOL    HW2  356   1.020   2.328   2.028
  110SOL     OW  357   4.068   4.577   1.138
  110SOL    HW1  358   4.105   4.548   1.226
  110SOL    HW2  359   4.089   4.509   1.069
  111SOL     OW  360   4.336   1.182   4.493
  111SOL    HW1  361   4.366   1.214   4.403
  111SOL    HW2  362   4.334   1.082   4.494
  112SOL     OW  363   4.536   1.074   2.087
  112SOL    HW1  364   4.626   1.116   2.073
  112SOL    HW2  365   4.543   1.005   2.160
  113SOL     OW  366   3.402   2.823   3.379
  113SOL    HW1  367   3.467   2.747   3.385
  113SOL    HW2  368   3.333   2.802   3.311
  114SOL     OW  369   3.222   4.305   1.443
  114SOL    HW1  370   3.262   4.235   1.503
  114SOL    HW2  371   3.227   4.394   1.488
  115SOL     OW  372   1.285   4.700   0.362
  115SOL    HW1  373   1.329   4.725   0.448
  115SOL    HW2  374   1.347   4.719   0.286
  116SOL     OW  375   3.463   1.472   4.292
  116SOL    HW1  376   3.557   1.442   4.307
  116SOL    HW2  377   3.400   1.405   4.331
  117SOL     OW  378   0.713   0.414   3.490
  117SOL    HW1  379   0.686   0.444   3.398
  117SOL    HW2  380   0.639   0.359   3.530
  118SOL     OW  381   0.138   2.876   2.154
  118SOL    HW1  382   0.205   2.950   2.149
  118SOL    HW2  383   0.161   2.806   2.087
  119SOL     OW  384   1.974   1.874   4.991
  119SOL    HW1  385   2.036   1.940   5.034
  119SOL    HW2  386   1.951   1.905   4.899
  120SOL     OW  387   4.435   3.969   3.231
  120SOL    HW1  388   4.391   3.886   3.195
  120SOL    HW2  389   4.514   3.943   3.286
  121SOL     OW  390   3.041   4.333   4.126
  121SOL    HW1  391   3.082   4.352   4.215
  121SOL    HW2  392   3.075   4.399   4.058
  122SOL     OW  393   4.368   2.382   3.951
  122SOL    HW1  394   4.328   2.324   3.879
  122SOL    HW2  395   4.324   2.471   3.951
  123SOL     OW  396   1.863   1.318   2.881
  123SOL    HW1  397   1.812   1.364   2.809
  123SOL    HW2  398   1.958   1.350   2.881
  124SOL     OW  399   1.417   1.597   4.213
  124SOL    HW1  400   1.506   1.552   4.202
  124SOL    HW2  401   1.348   1.528   4.235
  125SOL     OW  402   0.023   3.666   1.302
  125SOL    HW1  403   0.121   3.647   1.311
  125SOL    HW2  404   0.006   3.762   1.327
  126SOL     OW  405   3.467   4.035   3.967
  126SOL    HW1  406   3.567   4.033   3.972
  126SOL    HW2  407   3.430   3.952   4.008
  127SOL     OW  408   2.754   2.244   3.731
  127SOL    HW1  409   2.780   2.192   3.650
  127SOL    HW2  410   2.737   2.181   3.807
  128SOL     OW  411   2.482   3.882   2.438
  128SOL    HW1  412   2.438   3.949   2.378
  128SOL    HW2  413   2.493   3.922   2.529
  129SOL     OW  414   1.381   1.024   2.506
  129SOL    HW1  415   1.456   0.959   2.515
  129SOL    HW2  416   1.418   1.117   2.495
  130SOL     OW  417   3.334   3.270   0.464
  130SOL    HW1  418   3.243   3.258   0.503
  130SOL    HW2  419   3.339   3.223   0.376
  131SOL     OW  420   0.343   4.351   4.125
  131SOL    HW1  421   0.403   4.276   4.097
  131SOL    HW2  422   0.256   4.315   4.159
  132SOL     OW  423   2.422   0.157   2.813
  132SOL    HW1  424   2.421   0.162   2.913
  132SOL    HW2  425   2.507   0.197   2.779
  133SOL     OW  426   2.449   3.459   1.797
  133SOL    HW1  427   2.404   3.413   1.873
  133SOL    HW2  428   2.528   3.404   1.768
  134SOL     OW  429   1.596   0.446   1.157
  134SOL    HW1  430   1.643   0.362   1.182
  134SOL    HW2  431   1.501   0.425   1.132
  135SOL     OW  432   2.600   2.706   0.292
  135SOL    HW1  433   2.586   2.789   0.345
  135SOL    HW2  434   2.518   2.648   0.298
  136SOL     OW  435   2.804   3.869   1.203
  136SOL    HW1  436   2.724   3.915   1.164
  136SOL    HW2  437   2.784   3.843   1.297
  137SOL     OW  438   1.271   2.456   0.811
  137SOL    HW1  439   1.265   2.456   0.911
  137SOL    HW2  440   1.366   2.464   0.783
  138SOL     OW  441   2.247   4.481   3.019
  138SOL    HW1  442   2.280   4.460   3.111
  138SOL    HW2  443   2.306   4.550   2.977
  139SOL     OW  444   0.546   4.891   2.790
  139SOL    HW1  445   0.470   4.881   2.854
  139SOL    HW2  446   0.624   4.932   2.838
  140SOL     OW  447   1.799   2.490   3.796
  140SOL    HW1  448   1.827   2.431   3.871
  140SOL    HW2  449   1.802   2.439   3.710
  141SOL     OW  450   4.075   3.073   4.563
  141SOL    HW1  451   3.999   3.024   4.519
  141SOL    HW2  452   4.142   3.099   4.494
  142SOL     OW  453   3.103   0.301   3.646
  142SOL    HW1  454   3.021   0.346   3.613
  142SOL    HW2  455   3.176   0.368   3.657
  143SOL     OW  456   0.787   3.655   4.924
  143SOL    HW1  457   0.802   3.753   4.908
  143SOL    HW2  458   0.873   3.613   4.953
  144SOL     OW  459   0.810   1.963   2.892
  144SOL    HW1  460   0.791   2.061   2.905
  144SOL    HW2  461   0.729   1.911   2.917
  145SOL     OW  462   0.691   4.992   0.085
  145SOL    HW1  463   0.748   0.030   0.048
  145SOL    HW2  464   0.678   5.007   0.183
  146SOL     OW  465   3.562   4.300   0.549
  146SOL    HW1  466   3.552   4.358   0.468
  146SOL    HW2  467   3.621   4.223   0.527
  147SOL     OW  468   2.966   3.837   2.467
  147SOL    HW1  469   2.993   3.927   2.502
  147SOL    HW2  470   2.935   3.780   2.543
  148SOL     OW  471   1.148   1.958   0.424
  148SOL    HW1  472   1.055   1.943   0.458
  148SOL    HW2  473   1.211   1.897   0.472
  149SOL     OW  474   3.040   2.838   0.117
  149SOL    HW1  475   2.990   2.921   0.091
  149SOL    HW2  476   3.138   2.854   0.108
  150SOL     OW  477   2.518   1.617   0.859
  150SOL    HW1  478   2.450   1.619   0.785
  150SOL    HW2  479   2.528   1.524   0.893
  151SOL     OW  480   3.353   3.955   2.833
  151SOL    HW1  481   3.404   3.976   2.916
  151SOL    HW2  482   3.318   4.040   2.793
  152SOL     OW  483   2.393   3.569   1.549
  152SOL    HW1  484   2.362   3.657   1.584
  152SOL    HW2  485   2.433   3.515   1.623
  153SOL     OW  486   1.045   3.556   1.033
  153SOL    HW1  487   1.064   3.495   1.110
  153SOL    HW2  488   1.008   3.503   0.957
  154SOL     OW  489   1.658   4.479   0.763
  154SOL    HW1  490   1.670   4.394   0.711
  154SOL    HW2  491   1.566   4.514   0.747
  155SOL     OW  492   4.569   0.097   4.729
  155SOL    HW1  493   4.620   0.134   4.651
  155SOL    HW2  494   4.632   0.047   4.789
  156SOL     OW  495   2.006   0.497   4.628
  156SOL    HW1  496   2.084   0.552   4.658
  156SOL    HW2  497   1.982   0.522   4.534
  157SOL     OW  498   3.078   4.405   3.090
  157SOL    HW1  499   2.991   4.425   3.135
  157SOL    HW2  500   3.148   4.388   3.160
  158SOL     OW  501   0.716   2.835   3.863
  158SOL    HW1  502   0.695   2.775   3.941
  158SOL    HW2  503   0.735   2.927   3.896
  159SOL     OW  504   4.647   1.484   0.198
  159SOL    HW1  505   4.564   1.476   0.143
  159SOL    HW2  506   4.622   1.488   0.295
  160SOL     OW  507   3.861   1.186   1.555
  160SOL    HW1  508   3.932   1.212   1.621
  160SOL    HW2  509   3.829   1.267   1.506
  161SOL     OW  510   0.249   2.408   0.857
  161SOL    HW1  511   0.310   2.363   0.923
  161SOL    HW2  512   0.156   2.409   0.893
  162SOL     OW  513   4.068   0.276   0.480
  162SOL    HW1  514   4.078   0.269   0.579
  162SOL    HW2  515   4.155   0.307   0.441
  163SOL     OW  516   1.978   3.464   3.496
  163SOL    HW1  517   2.046   3.444   3.425
  163SOL    HW2  518   1.931   3.380   3.522
  164SOL     OW  519   4.946   1.235   0.526
  164SOL    HW1  520   4.996   1.254   0.442
  164SOL    HW2  521   4.995   1.274   0.604
  165SOL     OW  522   4.373   0.966   2.803
  165SOL    HW1  523   4.355   1.008   2.892
  165SOL    HW2  524   4.390   1.038   2.735
  166SOL     OW  525   3.984   3.622   1.959
  166SOL    HW1  526   3.997   3.537   1.909
  166SOL    HW2  527   3.910   3.611   2.025
  167SOL     OW  528   3.078   3.914   3.049
  167SOL    HW1  529   3.121   3.912   3.139
  167SOL    HW2  530   3.089   4.005   3.009
  168SOL     OW  531   1.552   1.242   2.470
  168SOL    HW1  532   1.557   1.229   2.569
  168SOL    HW2  533   1.637   1.210   2.428
  169SOL     OW  534   2.084   3.593   2.017
  169SOL    HW1  535   2.003   3.650   2.015
  169SOL    HW2  536   2.103   3.558   1.925
  170SOL     OW  537   2.144   4.866   1.015
  170SOL    HW1  538   2.155   4.791   1.080
  170SOL    HW2  539   2.193   4.845   0.931
  171SOL     OW  540   3.297   4.192   3.486
  171SOL    HW1  541   3.271   4.112   3.432
  171SOL    HW2  542   3.308   4.166   3.582
  172SOL     OW  543   2.980   3.081   0.460
  172SOL    HW1  544   2.892   3.125   0.475
  172SOL    HW2  545   3.054   3.144   0.484
  173SOL     OW  546   3.401   3.377   4.426
  173SOL    HW1  547   3.432   3.329   4.344
  173SOL    HW2  548   3.319   3.332   4.462
  174SOL     OW  549   0.750   1.716   4.945
  174SOL    HW1  550   0.821   1.714   4.873
  174SOL    HW2  551   0.781   1.774   5.020
  175SOL     OW  552   0.380   4.402   1.023
  175SOL    HW1  553   0.468   4.367   0.992
  175SOL    HW2  554   0.393   4.464   1.100
  176SOL     OW  555   0.794   3.883   0.811
  176SOL    HW1  556   0.812   3.933   0.895
  176SOL    HW2  557   0.721   3.816   0.827
  177SOL     OW  558   1.329   0.978   0.597
  177SOL    HW1  559   1.293   0.986   0.690
  177SOL    HW2  560   1.329   1.068   0.554
  178SOL     OW  561   3.159   3.618   4.518
  178SOL    HW1  562   3.192   3.678   4.591
  178SOL    HW2  563   3.089   3.665   4.465
  179SOL     OW  564   4.736   1.792   0.058
  179SOL    HW1  565   4.679   1.801   0.140
  179SOL    HW2  566   4.677   1.788   5.012
  180SOL     OW  567   0.272   3.395   1.893
  180SOL    HW1  568   0.252   3.386   1.795
  180SOL    HW2  569   0.354   3.451   1.905
  181SOL     OW  570   1.910   3.596   1.269
  181SOL    HW1  571   1.960   3.663   1.324
  181SOL    HW2  572   1.843   3.644   1.213
  182SOL     OW  573   4.972   4.398   1.255
  182SOL    HW1  574   0.023   4.449   1.265
  182SOL    HW2  575   4.922   4.402   1.342
  183SOL     OW  576   3.201   3.417   0.030
  183SOL    HW1  577   3.278   3.363   5.030
  183SOL    HW2  578   3.117   3.363   0.024
  184SOL     OW  579   3.944   0.111   2.869
  184SOL    HW1  580   4.022   0.162   2.904
  184SOL    HW2  581   3.937   0.023   2.916
  185SOL     OW  582   4.222   1.206   4.125
  185SOL    HW1  583   4.148   1.272   4.114
  185SOL    HW2  584   4.217   1.164   4.215
  186SOL     OW  585   2.709   3.002   2.160
  186SOL    HW1  586   2.751   3.082   2.119
  186SOL    HW2  587   2.774   2.958   2.222
  187SOL     OW  588   1.016   4.035   2.285
  187SOL    HW1  589   0.967   3.948   2.292
  187SOL    HW2  590   0.956   4.110   2.313
  188SOL     OW  591   1.323   0.800   1.796
  188SOL    HW1  592   1.295   0.795   1.700
  188SOL    HW2  593   1.356   0.892   1.817
  189SOL     OW  594   1.928   2.045   0.891
  189SOL    HW1  595   2.011   2.016   0.842
  189SOL    HW2  596   1.939   2.140   0.921
  190SOL     OW  597   4.112   4.201   2.124
  190SOL    HW1  598   4.071   4.151   2.048
  190SOL    HW2  599   4.079   4.164   2.211
  191SOL     OW  600   3.075   0.820   2.870
  191SOL    HW1  601   3.108   0.771   2.950
  191SOL    HW2  602   3.097   0.768   2.787
  192SOL     OW  603   3.092   3.840   4.322
  192SOL    HW1  604   3.163   3.910   4.334
  192SOL    HW2  605   3.002   3.881   4.341
  193SOL     OW  606   4.817   3.815   1.151
  193SOL    HW1  607   4.740   3.836   1.091
  193SOL    HW2  608   4.903   3.834   1.103
  194SOL     OW  609   0.684   4.018   1.621
  194SOL    HW1  610   0.593   4.031   1.582
  194SOL    HW2  611   0.687   3.929   1.668
  195SOL     OW  612   4.432   1.069   4.251
  195SOL    HW1  613   4.530   1.079   4.270
  195SOL    HW2  614   4.414   1.093   4.155
  196SOL     OW  615   3.287   2.718   0.709
  196SOL    HW1  616   3.294   2.625   0.672
  196SOL    HW2  617   3.231   2.774   0.648
  197SOL     OW  618   4.460   3.986   4.380
  197SOL    HW1  619   4.552   3.962   4.410
  197SOL    HW2  620   4.462   4.072   4.329
  198SOL     OW  621   2.596   2.792   4.374
  198SOL    HW1  622   2.540   2.780   4.456
  198SOL    HW2  623   2.621   2.702   4.337
  199SOL     OW  624   2.946   1.035   2.682
  199SOL    HW1  625   3.008   0.998   2.751
  199SOL    HW2  626   2.870   0.970   2.668
  200SOL     OW  627   4.479   0.532   4.897
  200SOL    HW1  628   4.490   0.598   4.823
  200SOL    HW2  629   4.542   0.456   4.883
  201SOL     OW  630   3.318   2.096   3.593
  201SOL    HW1  631   3.344   2.153   3.515
  201SOL    HW2  632   3.250   2.029   3.564
  202SOL     OW  633   4.320   2.353   0.789
  202SOL    HW1  634   4.245   2.327   0.728
  202SOL    HW2  635   4.282   2.399   0.870
  203SOL     OW  636   3.112   4.741   1.084
  203SOL    HW1  637   3.080   4.742   0.989
  203SOL    HW2  638   3.211   4.728   1.085
  204SOL     OW  639   3.839   4.201   2.946
  204SOL    HW1  640   3.799   4.230   2.859
  204SOL    HW2  641   3.836   4.277   3.011
  205SOL     OW  642   1.535   2.630   0.521
  205SOL    HW1  643   1.440   2.637   0.491
  205SOL    HW2  644   1.552   2.539   0.559
  206SOL     OW  645   4.439   4.729   4.778
  206SOL    HW1  646   4.410   4.822   4.753
  206SOL    HW2  647   4.479   4.730   4.870
  207SOL     OW  648   2.656   4.539   4.090
  207SOL    HW1  649   2.617   4.499   4.172
  207SOL    HW2  650   2.741   4.492   4.066
  208SOL     OW  651   3.413   1.019   0.144
  208SOL    HW1  652   3.369   0.929   0.148
  208SOL    HW2  653   3.504   1.014   0.185
  209SOL     OW  654   4.530   3.166   4.367
  209SOL    HW1  655   4.626   3.189   4.382
  209SOL    HW2  656   4.489   3.236   4.308
  210SOL     OW  657   0.878   3.707   4.665
  210SOL    HW1  658   0.857   3.641   4.737
  210SOL    HW2  659   0.847   3.798   4.693
  211SOL     OW  660   4.669   2.800   4.105
  211SOL    HW1  661   4.642   2.704   4.098
  211SOL    HW2  662   4.630   2.840   4.188
  212SOL     OW  663   2.518   0.341   2.462
  212SOL    HW1  664   2.432   0.388   2.449
  212SOL    HW2  665   2.547   0.351   2.558
  213SOL     OW  666   2.662   2.361   2.925
  213SOL    HW1  667   2.637   2.302   2.847
  213SOL    HW2  668   2.584   2.366   2.988
  214SOL     OW  669   1.373   0.578   3.227
  214SOL    HW1  670   1.303   0.538   3.286
  214SOL    HW2  671   1.343   0.668   3.196
  215SOL     OW  672   4.017   1.381   4.122
  215SOL    HW1  673   4.035   1.455   4.058
  215SOL    HW2  674   3.932   1.400   4.171
  216SOL     OW  675   4.927   2.135   2.401
  216SOL    HW1  676   5.015   2.111   2.359
  216SOL    HW2  677   4.873   2.052   2.415
  217SOL     OW  678   3.932   4.564   3.306
  217SOL    HW1  679   3.884   4.489   3.260
  217SOL    HW2  680   4.030   4.560   3.283
  218SOL     OW  681   3.714   2.466   4.446
  218SOL    HW1  682   3.619   2.451   4.472
  218SOL    HW2  683   3.747   2.550   4.489
  219SOL     OW  684   3.862   0.972   0.686
  219SOL    HW1  685   3.901   0.979   0.594
  219SOL    HW2  686   3.763   0.969   0.680
  220SOL     OW  687   2.332   3.092   3.931
  220SOL    HW1  688   2.265   3.030   3.890
  220SOL    HW2  689   2.285   3.170   3.973
  221SOL     OW  690   4.946   1.920   0.252
  221SOL    HW1  691   5.015   1.877   0.310
  221SOL    HW2  692   4.906   1.851   0.191
  222SOL     OW  693   3.846   1.401   4.369
  222SOL    HW1  694   3.932   1.363   4.405
  222SOL    HW2  695   3.783   1.418   4.445
  223SOL     OW  696   0.839   0.796   3.872
  223SOL    HW1  697   0.939   0.789   3.872
  223SOL    HW2  698   0.801   0.726   3.811
  224SOL     OW  699   2.813   0.680   3.143
  224SOL    HW1  700   2.866   0.619   3.084
  224SOL    HW2  701   2.832   0.657   3.239
  225SOL     OW  702   0.222   0.407   0.629
  225SOL    HW1  703   0.172   0.492   0.612
  225SOL    HW2  704   0.160   0.330   0.618
  226SOL     OW  705   3.393   1.701   3.508
  226SOL    HW1  706   3.439   1.761   3.573
  226SOL    HW2  707   3.323   1.752   3.459
  227SOL     OW  708   2.085   3.971   3.029
  227SOL    HW1  709   1.992   3.936   3.017
  227SOL    HW2  710   2.092   4.015   3.119
  228SOL     OW  711   2.620   0.762   4.556
  228SOL    HW1  712   2.554   0.730   4.624
  228SOL    HW2  713   2.700   0.799   4.603
  229SOL     OW  714   0.325   3.160   3.536
  229SOL    HW1  715   0.364   3.219   3.465
  229SOL    HW2  716   0.248   3.207   3.580
  230SOL     OW  717   0.417   3.216   2.364
  230SOL    HW1  718   0.510   3.184   2.382
  230SOL    HW2  719   0.420   3.300   2.311
  231SOL     OW  720   3.296   2.957   4.819
  231SOL    HW1  721   3.295   3.004   4.731
  231SOL    HW2  722   3.278   2.860   4.806
  232SOL     OW  723   4.687   0.466   4.356
  232SOL    HW1  724   4.675   0.413   4.441
  232SOL    HW2  725   4.720   0.405   4.284
  233SOL     OW  726   4.507   4.866   2.234
  233SOL    HW1  727   4.435   4.838   2.298
  233SOL    HW2  728   4.481   4.838   2.142
  234SOL     OW  729   3.459   2.205   4.250
  234SOL    HW1  730   3.429   2.290   4.206
  234SOL    HW2  731   3.556   2.190   4.232
  235SOL     OW  732   4.815   4.607   4.639
  235SOL    HW1  733   4.806   4.701   4.608
  235SOL    HW2  734   4.838   4.605   4.737
  236SOL     OW  735   0.133   3.847   2.571
  236SOL    HW1  736   0.086   3.922   2.523
  236SOL    HW2  737   0.209   3.885   2.623
  237SOL     OW  738   4.606   3.128   3.616
  237SOL    HW1  739   4.662   3.059   3.570
  237SOL    HW2  740   4.533   3.083   3.667
  238SOL     OW  741   4.774   1.206   2.046
  238SOL    HW1  742   4.830   1.264   2.104
  238SOL    HW2  743   4.778   1.238   1.952
  239SOL     OW  744   1.520   3.184   1.868
  239SOL    HW1  745   1.477   3.095   1.853
  239SOL    HW2  746   1.516   3.237   1.783
  240SOL     OW  747   0.749   0.525   3.238
  240SOL    HW1  748   0.809   0.604   3.250
  240SOL    HW2  749   0.766   0.484   3.149
  241SOL     OW  750   0.829   1.635   1.382
  241SOL    HW1  751   0.804   1.565   1.448
  241SOL    HW2  752   0.802   1.606   1.290
  242SOL     OW  753   4.004   0.762   3.929
  242SOL    HW1  754   3.950   0.815   3.863
  242SOL    HW2  755   3.944   0.699   3.978
  243SOL     OW  756   2.942   2.046   2.445
  243SOL    HW1  757   2.945   1.950   2.474
  243SOL    HW2  758   2.848   2.070   2.421
  244SOL     OW  759   4.646   1.827   2.777
  244SOL    HW1  760   4.638   1.742   2.828
  244SOL    HW2  761   4.559   1.845   2.730
  245SOL     OW  762   1.941   4.020   2.662
  245SOL    HW1  763   1.899   4.108   2.683
  245SOL    HW2  764   1.932   4.002   2.564
  246SOL     OW  765   3.212   2.586   0.413
  246SOL    HW1  766   3.234   2.680   0.387
  246SOL    HW2  767   3.284   2.549   0.472
  247SOL     OW  768   0.815   4.700   2.697
  247SOL    HW1  769   0.748   4.729   2.630
  247SOL    HW2  770   0.779   4.715   2.789
  248SOL     OW  771   2.986   0.989   3.115
  248SOL    HW1  772   2.987   0.904   3.062
  248SOL    HW2  773   2.976   1.067   3.053
  249SOL     OW  774   0.025   4.478   4.553
  249SOL    HW1  775   5.006   4.561   4.543
  249SOL    HW2  776   0.122   4.501   4.554
  250SOL     OW  777   3.683   3.714   4.637
  250SOL    HW1  778   3.683   3.614   4.637
  250SOL    HW2  779   3.712   3.748   4.547
  251SOL     OW  780   1.482   4.641   4.112
  251SOL    HW1  781   1.410   4.694   4.067
  251SOL    HW2  782   1.570   4.687   4.100
  252SOL     OW  783   3.787   2.637   0.469
  252SOL    HW1  784   3.704   2.614   0.417
  252SOL    HW2  785   3.783   2.593   0.559
  253SOL     OW  786   4.800   2.581   4.618
  253SOL    HW1  787   4.856   2.631   4.685
  253SOL    HW2  788   4.705   2.613   4.624
  254SOL     OW  789   4.496   4.617   3.240
  254SOL    HW1  790   4.550   4.534   3.234
  254SOL    HW2  791   4.450   4.621   3.329
  255SOL     OW  792   1.800   2.122   2.262
  255SOL    HW1  793   1.858   2.085   2.335
  255SOL    HW2  794   1.771   2.047   2.202
  256SOL     OW  795   1.477   3.688   2.369
  256SOL    HW1  796   1.492   3.775   2.322
  256SOL    HW2  797   1.470   3.614   2.301
  257SOL     OW  798   2.234   2.392   2.175
  257SOL    HW1  799   2.169   2.453   2.221
  257SOL    HW2  800   2.189   2.306   2.152
  258SOL     OW  801   3.585   2.599   3.354
  258SOL    HW1  802   3.653   2.598   3.427
  258SOL    HW2  803   3.518   2.527   3.369
  259SOL     OW  804   1.170   4.401   3.221
  259SOL    HW1  805   1.116   4.431   3.300
  259SOL    HW2  806   1.263   4.381   3.249
  260SOL     OW  807   4.969   2.559   1.844
  260SOL    HW1  808   0.003   2.593   1.908
  260SOL    HW2  809   4.879   2.566   1.887
  261SOL     OW  810   4.185   4.998   2.563
  261SOL    HW1  811   4.220   0.021   2.489
  261SOL    HW2  812   4.092   5.025   2.586
  262SOL     OW  813   0.969   2.157   1.681
  262SOL    HW1  814   1.004   2.179   1.772
  262SOL    HW2  815   0.872   2.178   1.676
  263SOL     OW  816   3.208   4.659   0.613
  263SOL    HW1  817   3.245   4.642   0.704
  263SOL    HW2  818   3.204   4.573   0.562
  264SOL     OW  819   2.660   0.102   4.946
  264SOL    HW1  820   2.616   0.024   4.902
  264SOL    HW2  821   2.608   0.185   4.925
  265SOL     OW  822   3.832   4.716   3.891
  265SOL    HW1  823   3.813   4.754   3.801
  265SOL    HW2  824   3.751   4.667   3.924
  266SOL     OW  825   1.789   3.999   3.516
  266SOL    HW1  826   1.789   4.044   3.426
  266SOL    HW2  827   1.807   3.902   3.503
  267SOL     OW  828   4.316   3.494   3.993
  267SOL    HW1  829   4.269   3.581   3.980
  267SOL    HW2  830   4.259   3.433   4.049
  268SOL     OW  831   4.262   0.805   0.596
  268SOL    HW1  832   4.194   0.762   0.537
  268SOL    HW2  833   4.353   0.769   0.574
  269SOL     OW  834   4.163   1.783   3.294
  269SOL    HW1  835   4.206   1.871   3.271
  269SOL    HW2  836   4.232   1.722   3.332
  270SOL     OW  837   0.651   4.273   1.741
  270SOL    HW1  838   0.557   4.306   1.753
  270SOL    HW2  839   0.650   4.191   1.684
  271SOL     OW  840   1.073   3.447   0.764
  271SOL    HW1  841   1.048   3.363   0.812
  271SOL    HW2  842   1.171   3.447   0.744
  272SOL     OW  843   1.940   4.720   4.574
  272SOL    HW1  844   1.936   4.690   4.669
  272SOL    HW2  845   1.864   4.681   4.523
  273SOL     OW  846   0.647   2.698   0.548
  273SOL    HW1  847   0.692   2.610   0.530
  273SOL    HW2  848   0.664   2.725   0.642
  274SOL     OW  849   1.191   1.784   3.387
  274SOL    HW1  850   1.183   1.809   3.483
  274SOL    HW2  851   1.249   1.850   3.339
  275SOL     OW  852   4.605   0.942   1.053
  275SOL    HW1  853   4.632   0.848   1.029
  275SOL    HW2  854   4.598   0.950   1.153
  276SOL     OW  855   1.786   3.600   0.037
  276SOL    HW1  856   1.713   3.650   0.083
  276SOL    HW2  857   1.844   3.555   0.105
  277SOL     OW  858   4.996   2.860   1.877
  277SOL    HW1  859   4.914   2.815   1.843
  277SOL    HW2  860   4.999   2.852   1.977
  278SOL     OW  861   1.087   1.137   4.900
  278SOL    HW1  862   1.093   1.211   4.967
  278SOL    HW2  863   1.093   1.174   4.808
  279SOL     OW  864   1.970   2.794   3.124
  279SOL    HW1  865   2.011   2.876   3.162
  279SOL    HW2  866   1.882   2.777   3.168
  280SOL     OW  867   4.239   3.178   2.861
  280SOL    HW1  868   4.231   3.258   2.920
  280SOL    HW2  869   4.312   3.119   2.893
  281SOL     OW  870   3.037   4.326   1.940
  281SOL    HW1  871   2.978   4.279   2.006
  281SOL    HW2  872   2.984   4.397   1.893
  282SOL     OW  873   0.607   1.698   4.572
  282SOL    HW1  874   0.598   1.598   4.578
  282SOL    HW2  875   0.685   1.728   4.627
  283SOL     OW  876   2.652   2.406   1.764
  283SOL    HW1  877   2.605   2.375   1.846
  283SOL    HW2  878   2.586   2.420   1.690
  284SOL     OW  879   1.275   3.970   2.347
  284SOL    HW1  880   1.184   4.012   2.355
  284SOL    HW2  881   1.312   3.987   2.256
  285SOL     OW  882   0.811   1.782   1.704
  285SOL    HW1  883   0.782   1.785   1.608
  285SOL    HW2  884   0.763   1.852   1.756
  286SOL     OW  885   2.789   4.234   2.036
  286SOL    HW1  886   2.745   4.153   2.075
  286SOL    HW2  887   2.721   4.287   1.985
  287SOL     OW  888   1.910   4.478   2.756
  287SOL    HW1  889   1.902   4.477   2.657
  287SOL    HW2  890   1.864   4.397   2.793
  288SOL     OW  891   1.515   1.494   0.474
  288SOL    HW1  892   1.591   1.481   0.538
  288SOL    HW2  893   1.434   1.525   0.523
  289SOL     OW  894   2.599   1.325   0.655
  289SOL    HW1  895   2.677   1.387   0.662
  289SOL    HW2  896   2.611   1.265   0.576
  290SOL     OW  897   0.858   2.148   0.706
  290SOL    HW1  898   0.919   2.111   0.775
  290SOL    HW2  899   0.898   2.230   0.666
  291SOL     OW  900   1.557   3.408   4.196
  291SOL    HW1  901   1.618   3.436   4.121
  291SOL    HW2  902   1.527   3.314   4.181
  292SOL     OW  903   1.210   1.764   2.572
  292SOL    HW1  904   1.161   1.757   2.658
  292SOL    HW2  905   1.273   1.687   2.562
  293SOL     OW  906   0.918   1.921   4.326
  293SOL    HW1  907   0.907   1.998   4.388
  293SOL    HW2  908   1.016   1.905   4.309
  294SOL     OW  909   4.218   2.030   3.161
  294SOL    HW1  910   4.194   2.049   3.066
  294SOL    HW2  911   4.282   2.100   3.193
  295SOL     OW  912   2.192   3.677   0.811
  295SOL    HW1  913   2.214   3.764   0.855
  295SOL    HW2  914   2.222   3.680   0.715
  296SOL     OW  915   0.370   1.676   1.202
  296SOL    HW1  916   0.467   1.699   1.212
  296SOL    HW2  917   0.346   1.675   1.105
  297SOL     OW  918   0.219   3.996   4.272
  297SOL    HW1  919   0.249   3.984   4.367
  297SOL    HW2  920   0.287   3.954   4.211
  298SOL     OW  921   0.268   2.445   4.391
  298SOL    HW1  922   0.297   2.503   4.466
  298SOL    HW2  923   0.170   2.424   4.401
  299SOL     OW  924   1.415   1.286   4.546
  299SOL    HW1  925   1.397   1.351   4.619
  299SOL    HW2  926   1.333   1.232   4.527
  300SOL     OW  927   2.108   3.402   2.217
  300SOL    HW1  928   2.087   3.485   2.165
  300SOL    HW2  929   2.049   3.398   2.298
  301SOL     OW  930   4.429   2.704   3.802
  301SOL    HW1  931   4.375   2.656   3.733
  301SOL    HW2  932   4.526   2.689   3.784
  302SOL     OW  933   3.152   1.606   2.005
  302SOL    HW1  934   3.055   1.599   2.025
  302SOL    HW2  935   3.165   1.626   1.908
  303SOL     OW  936   3.191   4.533   3.668
  303SOL    HW1  937   3.187   4.572   3.760
  303SOL    HW2  938   3.137   4.589   3.606
  304SOL     OW  939   4.695   1.073   4.465
  304SOL    HW1  940   4.646   0.990   4.491
  304SOL    HW2  941   4.654   1.151   4.512
  305SOL     OW  942   0.916   1.454   0.410
  305SOL    HW1  943   0.979   1.476   0.484
  305SOL    HW2  944   0.901   1.356   0.406
  306SOL     OW  945   2.328   2.814   0.611
  306SOL    HW1  946   2.287   2.791   0.699
  306SOL    HW2  947   2.376   2.735   0.574
  307SOL     OW  948   4.946   3.807   4.404
  307SOL    HW1  949   4.911   3.844   4.318
  307SOL    HW2  950   4.990   3.718   4.386
  308SOL     OW  951   2.033   2.727   4.003
  308SOL    HW1  952   2.089   2.663   3.950
  308SOL    HW2  953   1.959   2.676   4.049
  309SOL     OW  954   4.887   3.856   3.967
  309SOL    HW1  955   4.822   3.924   4.003
  309SOL    HW2  956   4.945   3.823   4.041
  310SOL     OW  957   5.000   5.029   4.628
  310SOL    HW1  958   0.011   5.028   4.716
  310SOL    HW2  959   0.009   0.061   4.568
  311SOL     OW  960   3.394   4.538   2.586
  311SOL    HW1  961   3.362   4.462   2.529
  311SOL    HW2  962   3.340   4.620   2.566
  312SOL     OW  963   0.632   0.065   4.303
  312SOL    HW1  964   0.688   0.022   4.374
  312SOL    HW2  965   0.666   0.040   4.213
  313SOL     OW  966   1.376   4.192   2.790
  313SOL    HW1  967   1.444   4.179   2.717
  313SOL    HW2  968   1.289   4.150   2.761
  314SOL     OW  969   2.672   3.682   2.991
  314SOL    HW1  970   2.761   3.673   3.035
  314SOL    HW2  971   2.624   3.594   2.996
  315SOL     OW  972   2.114   3.899   3.990
  315SOL    HW1  973   2.016   3.884   3.978
  315SOL    HW2  974   2.139   3.988   3.953
  316SOL     OW  975   3.389   0.488   0.244
  316SOL    HW1  976   3.452   0.411   0.250
  316SOL    HW2  977   3.300   0.455   0.210
  317SOL     OW  978   3.818   1.227   3.908
  317SOL    HW1  979   3.774   1.313   3.935
  317SOL    HW2  980   3.916   1.244   3.892
  318SOL     OW  981   4.074   1.613   0.569
  318SOL    HW1  982   4.090   1.709   0.547
  318SOL    HW2  983   4.098   1.595   0.664
  319SOL     OW  984   2.276   4.833   3.200
  319SOL    HW1  985   2.312   4.925   3.215
  319SOL    HW2  986   2.182   4.839   3.168
  320SOL     OW  987   4.239   2.273   3.631
  320SOL    HW1  988   4.160   2.334   3.626
  320SOL    HW2  989   4.212   2.180   3.607
  321SOL     OW  990   4.539   0.536   2.753
  321SOL    HW1  991   4.453   0.486   2.748
  321SOL    HW2  992   4.612   0.474   2.781
  322SOL     OW  993   3.947   0.956   1.437
  322SOL    HW1  994   3.909   1.039   1.480
  322SOL    HW2  995   3.885   0.926   1.364
  323SOL     OW  996   4.004   4.205   1.474
  323SOL    HW1  997   4.080   4.148   1.442
  323SOL    HW2  998   3.933   4.147   1.512
  324SOL     OW  999   0.957   0.085   0.714
  324SOL    HW1 1000   0.930   0.054   0.806
  324SOL    HW2 1001   0.997   0.009   0.664
  325SOL     OW 1002   0.109   3.021   4.465
  325SOL    HW1 1003   0.064   3.053   4.382
  325SOL    HW2 1004   0.114   3.096   4.531
  326SOL     OW 1005   3.044   4.661   3.873
  326SOL    HW1 1006   3.065   4.755   3.844
  326SOL    HW2 1007   3.038   4.658   3.973
  327SOL     OW 1008   2.050   2.330   3.712
  327SOL    HW1 1009   2.066   2.388   3.632
  327SOL    HW2 1010   2.090   2.240   3.696
  328SOL     OW 1011   4.428   3.133   3.997
  328SOL    HW1 1012   4.403   3.215   3.946
  328SOL    HW2 1013   4.528   3.129   4.006
  329SOL     OW 1014   2.650   3.274   0.106
  329SOL    HW1 1015   2.727   3.223   0.143
  329SOL    HW2 1016   2.678   3.321   0.022
  330SOL     OW 1017   1.712   4.800   2.730
  330SOL    HW1 1018   1.785   4.826   2.666
  330SOL    HW2 1019   1.642   4.747   2.681
  331SOL     OW 1020   2.173   3.451   0.968
  331SOL    HW1 1021   2.151   3.525   0.904
  331SOL    HW2 1022   2.191   3.489   1.059
  332SOL     OW 1023   1.456   1.576   1.976
  332SOL    HW1 1024   1.533   1.564   1.912
  332SOL    HW2 1025   1.490   1.571   2.070
  333SOL     OW 1026   0.244   1.043   1.793
  333SOL    HW1 1027   0.222   1.023   1.697
  333SOL    HW2 1028   0.159   1.048   1.846
  334SOL     OW 1029   3.987   0.381   4.994
  334SOL    HW1 1030   3.988   0.286   5.023
  334SOL    HW2 1031   3.915   0.394   4.925
  335SOL     OW 1032   0.213   2.306   0.596
  335SOL    HW1 1033   0.255   2.346   0.677
  335SOL    HW2 1034   0.146   2.237   0.623
  336SOL     OW 1035   1.321   2.918   3.803
  336SOL    HW1 1036   1.237   2.970   3.814
  336SOL    HW2 1037   1.342   2.871   3.889
  337SOL     OW 1038   1.843   1.046   3.025
  337SOL    HW1 1039   1.786   1.042   2.943
  337SOL    HW2 1040   1.855   1.141   3.053
  338SOL     OW 1041   3.194   1.702   1.745
  338SOL    HW1 1042   3.182   1.793   1.784
  338SOL    HW2 1043   3.246   1.709   1.660
  339SOL     OW 1044   0.033   4.805   3.179
  339SOL    HW1 1045   0.082   4.791   3.093
  339SOL    HW2 1046   0.085   4.866   3.238
  340SOL     OW 1047   4.736   4.673   0.636
  340SOL    HW1 1048   4.790   4.599   0.676
  340SOL    HW2 1049   4.788   4.715   0.561
  341SOL     OW 1050   3.084   3.561   4.826
  341SOL    HW1 1051   3.077   3.462   4.818
  341SOL    HW2 1052   3.087   3.587   4.923
  342SOL     OW 1053   0.240   3.253   0.990
  342SOL    HW1 1054   0.179   3.331   0.978
  342SOL    HW2 1055   0.309   3.253   0.917
  343SOL     OW 1056   0.391   3.785   4.209
  343SOL    HW1 1057   0.468   3.743   4.161
  343SOL    HW2 1058   0.373   3.735   4.293
  344SOL     OW 1059   2.868   1.095   4.462
  344SOL    HW1 1060   2.963   1.117   4.488
  344SOL    HW2 1061   2.807   1.167   4.496
  345SOL     OW 1062   2.958   0.711   4.387
  345SOL    HW1 1063   2.918   0.707   4.296
  345SOL    HW2 1064   2.975   0.806   4.413
  346SOL     OW 1065   3.941   3.343   1.920
  346SOL    HW1 1066   3.847   3.323   1.947
  346SOL    HW2 1067   3.953   3.326   1.822
  347SOL     OW 1068   0.349   4.837   2.553
  347SOL    HW1 1069   0.410   4.879   2.620
  347SOL    HW2 1070   0.366   4.875   2.462
  348SOL     OW 1071   4.441   4.386   2.632
  348SOL    HW1 1072   4.413   4.401   2.726
  348SOL    HW2 1073   4.500   4.462   2.602
  349SOL     OW 1074   0.224   4.452   2.038
  349SOL    HW1 1075   0.160   4.469   2.113
  349SOL    HW2 1076   0.175   4.410   1.962
  350SOL     OW 1077   4.419   4.441   3.699
  350SOL    HW1 1078   4.449   4.354   3.738
  350SOL    HW2 1079   4.496   4.485   3.652
  351SOL     OW 1080   3.724   2.272   0.025
  351SOL    HW1 1081   3.668   2.236   0.100
  351SOL    HW2 1082   3.791   2.337   0.062
  352SOL     OW 1083   1.529   3.149   0.218
  352SOL    HW1 1084   1.534   3.116   0.313
  352SOL    HW2 1085   1.447   3.110   0.174
  353SOL     OW 1086   0.902   0.706   4.590
  353SOL    HW1 1087   0.879   0.707   4.493
  353SOL    HW2 1088   0.823   0.737   4.643
  354SOL     OW 1089   4.920   1.827   2.854
  354SOL    HW1 1090   4.831   1.833   2.810
  354SOL    HW2 1091   4.985   1.885   2.806
  355SOL     OW 1092   3.717   3.599   2.681
  355SOL    HW1 1093   3.667   3.664   2.738
  355SOL    HW2 1094   3.776   3.650   2.618
  356SOL     OW 1095   1.024   1.679   0.087
  356SOL    HW1 1096   0.969   1.604   0.049
  356SOL    HW2 1097   0.965   1.739   0.141
  357SOL     OW 1098   1.600   3.559   0.839
  357SOL    HW1 1099   1.547   3.558   0.754
  357SOL    HW2 1100   1.694   3.532   0.821
  358SOL     OW 1101   0.604   0.064   2.055
  358SOL    HW1 1102   0.676   0.120   2.013
  358SOL    HW2 1103   0.516   0.085   2.012
  359SOL     OW 1104   1.181   1.507   2.927
  359SOL    HW1 1105   1.113   1.518   2.855
  359SOL    HW2 1106   1.176   1.414   2.965
  360SOL     OW 1107   3.395   4.269   4.074
  360SOL    HW1 1108   3.464   4.339   4.057
  360SOL    HW2 1109   3.422   4.184   4.028
  361SOL     OW 1110   4.750   0.438   2.069
  361SOL    HW1 1111   4.710   0.350   2.094
  361SOL    HW2 1112   4.697   0.480   1.995
  362SOL     OW 1113   4.670   3.671   3.604
  362SOL    HW1 1114   4.580   3.633   3.627
  362SOL    HW2 1115   4.732   3.596   3.579
  363SOL     OW 1116   4.600   1.727   2.206
  363SOL    HW1 1117   4.558   1.816   2.225
  363SOL    HW2 1118   4.663   1.735   2.128
  364SOL     OW 1119   3.519   4.257   4.867
  364SOL    HW1 1120   3.425   4.274   4.896
  364SOL    HW2 1121   3.521   4.240   4.769
  365SOL     OW 1122   1.716   3.463   3.976
  365SOL    HW1 1123   1.785   3.396   3.947
  365SOL    HW2 1124   1.759   3.554   3.982
  366SOL     OW 1125   0.587   2.965   4.238
  366SOL    HW1 1126   0.500   2.918   4.222
  366SOL    HW2 1127   0.604   3.029   4.163
  367SOL     OW 1128   3.102   2.271   4.292
  367SOL    HW1 1129   3.043   2.259   4.213
  367SOL    HW2 1130   3.063   2.340   4.353
  368SOL     OW 1131   3.530   1.420   2.329
  368SOL    HW1 1132   3.431   1.405   2.334
  368SOL    HW2 1133   3.549   1.518   2.327
  369SOL     OW 1134   0.368   3.276   4.654
  369SOL    HW1 1135   0.414   3.340   4.593
  369SOL    HW2 1136   0.336   3.197   4.602
  370SOL     OW 1137   0.349   1.774   2.572
  370SOL    HW1 1138   0.402   1.859   2.582
  370SOL    HW2 1139   0.253   1.797   2.555
  371SOL     OW 1140   2.100   5.017   4.256
  371SOL    HW1 1141   2.036   0.049   4.292
  371SOL    HW2 1142   2.147   0.019   4.176
  372SOL     OW 1143   3.314   4.252   0.716
  372SOL    HW1 1144   3.407   4.227   0.689
  372SOL    HW2 1145   3.262   4.169   0.735
  373SOL     OW 1146   4.250   2.623   3.602
  373SOL    HW1 1147   4.172   2.628   3.540
  373SOL    HW2 1148   4.319   2.561   3.565
  374SOL     OW 1149   4.329   3.585   2.337
  374SOL    HW1 1150   4.356   3.614   2.428
  374SOL    HW2 1151   4.330   3.663   2.275
  375SOL     OW 1152   3.038   1.841   0.978
  375SOL    HW1 1153   2.954   1.796   0.949
  375SOL    HW2 1154   3.016   1.913   1.044
  376SOL     OW 1155   3.142   1.339   0.998
  376SOL    HW1 1156   3.142   1.375   1.091
  376SOL    HW2 1157   3.204   1.261   0.992
  377SOL     OW 1158   3.473   2.383   4.989
  377SOL    HW1 1159   3.553   2.327   5.011
  377SOL    HW2 1160   3.466   2.457   0.021
  378SOL     OW 1161   1.773   2.577   4.381
  378SOL    HW1 1162   1.698   2.550   4.321
  378SOL    HW2 1163   1.847   2.616   4.326
  379SOL     OW 1164   2.783   4.663   2.438
  379SOL    HW1 1165   2.835   4.585   2.473
  379SOL    HW2 1166   2.846   4.733   2.405
  380SOL     OW 1167   0.706   3.349   1.954
  380SOL    HW1 1168   0.759   3.421   1.908
  380SOL    HW2 1169   0.697   3.270   1.893
  381SOL     OW 1170   4.726   2.599   1.988
  381SOL    HW1 1171   4.755   2.552   2.071
  381SOL    HW2 1172   4.627   2.587   1.975
  382SOL     OW 1173   0.688   2.926   0.109
  382SOL    HW1 1174   0.713   2.863   0.182
  382SOL    HW2 1175   0.696   2.880   0.021
  383SOL     OW 1176   1.046   4.493   2.281
  383SOL    HW1 1177   1.078   4.558   2.212
  383SOL    HW2 1178   1.032   4.540   2.368
  384SOL     OW 1179   2.429   3.217   2.667
  384SOL    HW1 1180   2.395   3.284   2.601
  384SOL    HW2 1181   2.384   3.232   2.756
  385SOL     OW 1182   2.231   1.549   0.892
  385SOL    HW1 1183   2.284   1.564   0.975
  385SOL    HW2 1184   2.210   1.637   0.849
  386SOL     OW 1185   4.171   2.694   4.726
  386SOL    HW1 1186   4.151   2.675   4.822
  386SOL    HW2 1187   4.221   2.780   4.718
  387SOL     OW 1188   1.235   1.920   3.872
  387SOL    HW1 1189   1.247   2.006   3.923
  387SOL    HW2 1190   1.319   1.866   3.878
  388SOL     OW 1191   2.091   3.274   0.104
  388SOL    HW1 1192   2.190   3.260   0.095
  388SOL    HW2 1193   2.045   3.186   0.093
  389SOL     OW 1194   4.348   3.926   1.826
  389SOL    HW1 1195   4.280   3.966   1.764
  389SOL    HW2 1196   4.374   3.994   1.895
  390SOL     OW 1197   0.841   0.802   1.658
  390SOL    HW1 1198   0.793   0.750   1.588
  390SOL    HW2 1199   0.883   0.740   1.724
  391SOL     OW 1200   3.449   1.589   3.203
  391SOL    HW1 1201   3.427   1.636   3.288
  391SOL    HW2 1202   3.419   1.494   3.208
  392SOL     OW 1203   0.840   1.796   4.674
  392SOL    HW1 1204   0.925   1.820   4.720
  392SOL    HW2 1205   0.848   1.817   4.577
  393SOL     OW 1206   4.717   4.249   2.443
  393SOL    HW1 1207   4.702   4.165   2.494
  393SOL    HW2 1208   4.749   4.321   2.504
  394SOL     OW 1209   3.181   3.591   3.921
  394SOL    HW1 1210   3.244   3.533   3.974
  394SOL    HW2 1211   3.218   3.684   3.918
  395SOL     OW 1212   3.359   2.207   1.850
  395SOL    HW1 1213   3.334   2.152   1.770
  395SOL    HW2 1214   3.342   2.154   1.933
  396SOL     OW 1215   2.987   1.431   4.617
  396SOL    HW1 1216   2.953   1.389   4.702
  396SOL    HW2 1217   3.008   1.360   4.550
  397SOL     OW 1218   3.066   0.755   0.084
  397SOL    HW1 1219   3.020   0.704   0.012
  397SOL    HW2 1220   3.012   0.749   0.168
  398SOL     OW 1221   4.748   4.709   3.960
  398SOL    HW1 1222   4.669   4.651   3.944
  398SOL    HW2 1223   4.832   4.660   3.935
  399SOL     OW 1224   4.192   0.246   2.086
  399SOL    HW1 1225   4.108   0.282   2.127
  399SOL    HW2 1226   4.189   0.146   2.087
  400SOL     OW 1227   1.145   3.768   2.161
  400SOL    HW1 1228   1.054   3.735   2.185
  400SOL    HW2 1229   1.172   3.842   2.223
  401SOL     OW 1230   0.992   2.348   2.787
  401SOL    HW1 1231   0.921   2.279   2.795
  401SOL    HW2 1232   0.962   2.433   2.830
  402SOL     OW 1233   0.062   3.476   4.851
  402SOL    HW1 1234   0.071   3.514   4.759
  402SOL    HW2 1235   5.022   3.410   4.852
  403SOL     OW 1236   1.975   1.488   1.359
  403SOL    HW1 1237   1.967   1.408   1.419
  403SOL    HW2 1238   1.888   1.502   1.311
  404SOL     OW 1239   3.088   4.915   3.790
  404SOL    HW1 1240   3.141   4.978   3.733
  404SOL    HW2 1241   2.995   4.949   3.801
  405SOL     OW 1242   2.018   4.671   0.359
  405SOL    HW1 1243   1.922   4.696   0.366
  405SOL    HW2 1244   2.070   4.720   0.429
  406SOL     OW 1245   1.094   3.480   4.552
  406SOL    HW1 1246   1.171   3.417   4.565
  406SOL    HW2 1247   1.088   3.507   4.456
  407SOL     OW 1248   2.553   2.925   1.016
  407SOL    HW1 1249   2.523   2.960   1.105
  407SOL    HW2 1250   2.650   2.902   1.020
  408SOL     OW 1251   1.431   4.778   0.579
  408SOL    HW1 1252   1.487   4.696   0.587
  408SOL    HW2 1253   1.451   4.840   0.654
  409SOL     OW 1254   0.093   1.678   4.554
  409SOL    HW1 1255   0.013   1.626   4.583
  409SOL    HW2 1256   0.108   1.754   4.617
  410SOL     OW 1257   0.349   0.846   4.766
  410SOL    HW1 1258   0.346   0.805   4.858
  410SOL    HW2 1259   0.256   0.862   4.734
  411SOL     OW 1260   1.567   4.512   2.171
  411SOL    HW1 1261   1.636   4.462   2.118
  411SOL    HW2 1262   1.529   4.451   2.241
  412SOL     OW 1263   4.577   1.785   0.285
  412SOL    HW1 1264   4.485   1.815   0.261
  412SOL    HW2 1265   4.572   1.698   0.335
  413SOL     OW 1266   4.962   2.971   1.320
  413SOL    HW1 1267   5.014   3.020   1.249
  413SOL    HW2 1268   4.969   3.021   1.406
  414SOL     OW 1269   4.023   1.919   2.489
  414SOL    HW1 1270   3.993   1.952   2.579
  414SOL    HW2 1271   3.989   1.826   2.475
  415SOL     OW 1272   2.115   3.966   4.775
  415SOL    HW1 1273   2.081   3.906   4.703
  415SOL    HW2 1274   2.038   4.007   4.824
  416SOL     OW 1275   1.555   4.931   2.036
  416SOL    HW1 1276   1.606   4.955   1.954
  416SOL    HW2 1277   1.618   4.895   2.105
  417SOL     OW 1278   1.082   4.763   2.140
  417SOL    HW1 1279   1.111   4.813   2.058
  417SOL    HW2 1280   0.983   4.776   2.153
  418SOL     OW 1281   4.233   1.546   3.962
  418SOL    HW1 1282   4.161   1.542   3.893
  418SOL    HW2 1283   4.205   1.608   4.035
  419SOL     OW 1284   0.397   4.942   3.452
  419SOL    HW1 1285   0.347   5.007   3.509
  419SOL    HW2 1286   0.363   4.946   3.358
  420SOL     OW 1287   3.373   4.966   3.973
  420SOL    HW1 1288   3.277   4.992   3.991
  420SOL    HW2 1289   3.413   5.030   3.908
  421SOL     OW 1290   1.645   0.674   3.930
  421SOL    HW1 1291   1.699   0.675   4.014
  421SOL    HW2 1292   1.706   0.687   3.851
  422SOL     OW 1293   1.943   0.139   3.740
  422SOL    HW1 1294   1.892   0.210   3.789
  422SOL    HW2 1295   1.982   0.075   3.805
  423SOL     OW 1296   0.995   1.102   1.553
  423SOL    HW1 1297   0.924   1.051   1.505
  423SOL    HW2 1298   1.003   1.068   1.647
  424SOL     OW 1299   2.582   0.329   1.691
  424SOL    HW1 1300   2.494   0.333   1.644
  424SOL    HW2 1301   2.655   0.360   1.629
  425SOL     OW 1302   0.443   4.554   1.730
  425SOL    HW1 1303   0.436   4.650   1.756
  425SOL    HW2 1304   0.499   4.546   1.648
  426SOL     OW 1305   1.312   2.255   1.962
  426SOL    HW1 1306   1.281   2.271   2.056
  426SOL    HW2 1307   1.365   2.334   1.931
  427SOL     OW 1308   1.701   4.781   0.742
  427SOL    HW1 1309   1.765   4.836   0.796
  427SOL    HW2 1310   1.684   4.694   0.790
  428SOL     OW 1311   2.212   0.097   4.849
  428SOL    HW1 1312   2.304   0.061   4.865
  428SOL    HW2 1313   2.157   0.087   4.931
  429SOL     OW 1314   3.125   0.966   0.404
  429SOL    HW1 1315   3.142   1.053   0.449
  429SOL    HW2 1316   3.196   0.951   0.334
  430SOL     OW 1317   1.337   3.334   0.318
  430SOL    HW1 1318   1.351   3.240   0.349
  430SOL    HW2 1319   1.341   3.337   0.218
  431SOL     OW 1320   1.984   1.817   3.165
  431SOL    HW1 1321   1.997   1.719   3.183
  431SOL    HW2 1322   1.913   1.853   3.226
  432SOL     OW 1323   1.807   1.968   4.704
  432SOL    HW1 1324   1.732   1.910   4.735
  432SOL    HW2 1325   1.830   1.946   4.609
  433SOL     OW 1326   0.668   3.858   0.558
  433SOL    HW1 1327   0.710   3.885   0.472
  433SOL    HW2 1328   0.738   3.856   0.630
  434SOL     OW 1329   1.939   1.846   1.214
  434SOL    HW1 1330   2.017   1.903   1.191
  434SOL    HW2 1331   1.971   1.759   1.252
  435SOL     OW 1332   4.718   2.180   0.396
  435SOL    HW1 1333   4.720   2.248   0.469
  435SOL    HW2 1334   4.681   2.220   0.313
  436SOL     OW 1335   1.037   2.485   4.953
  436SOL    HW1 1336   1.111   2.417   4.957
  436SOL    HW2 1337   1.029   2.520   4.859
  437SOL     OW 1338   1.520   4.763   2.972
  437SOL    HW1 1339   1.571   4.849   2.962
  437SOL    HW2 1340   1.574   4.688   2.936
  438SOL     OW 1341   3.633   4.498   1.524
  438SOL    HW1 1342   3.548   4.551   1.528
  438SOL    HW2 1343   3.623   4.413   1.575
  439SOL     OW 1344   2.363   5.026   1.938
  439SOL    HW1 1345   2.302   0.004   2.016
  439SOL    HW2 1346   2.403   0.078   1.911
  440SOL     OW 1347   4.944   0.119   2.132
  440SOL    HW1 1348   5.018   0.113   2.065
  440SOL    HW2 1349   4.867   0.063   2.103
  441SOL     OW 1350   4.628   1.887   1.176
  441SOL    HW1 1351   4.530   1.903   1.169
  441SOL    HW2 1352   4.672   1.911   1.090
  442SOL     OW 1353   3.662   4.489   2.236
  442SOL    HW1 1354   3.750   4.536   2.240
  442SOL    HW2 1355   3.649   4.436   2.320
  443SOL     OW 1356   1.073   1.016   0.118
  443SOL    HW1 1357   1.133   0.937   0.128
  443SOL    HW2 1358   1.076   1.049   0.024
  444SOL     OW 1359   2.041   1.256   2.058
  444SOL    HW1 1360   2.130   1.239   2.016
  444SOL    HW2 1361   2.051   1.262   2.157
  445SOL     OW 1362   1.002   1.843   2.204
  445SOL    HW1 1363   0.969   1.928   2.163
  445SOL    HW2 1364   0.953   1.825   2.289
  446SOL     OW 1365   1.109   3.980   0.071
  446SOL    HW1 1366   1.096   4.031   0.156
  446SOL    HW2 1367   1.072   4.033   5.030
  447SOL     OW 1368   0.651   4.311   2.090
  447SOL    HW1 1369   0.740   4.303   2.135
  447SOL    HW2 1370   0.658   4.276   1.996
  448SOL     OW 1371   1.636   3.387   4.916
  448SOL    HW1 1372   1.683   3.458   4.967
  448SOL    HW2 1373   1.702   3.321   4.879
  449SOL     OW 1374   4.287   1.291   1.261
  449SOL    HW1 1375   4.319   1.242   1.180
  449SOL    HW2 1376   4.188   1.277   1.272
  450SOL     OW 1377   0.943   4.074   0.664
  450SOL    HW1 1378   0.876   4.027   0.721
  450SOL    HW2 1379   0.907   4.082   0.571
  451SOL     OW 1380   1.480   1.043   3.522
  451SOL    HW1 1381   1.559   0.983   3.508
  451SOL    HW2 1382   1.498   1.131   3.479
  452SOL     OW 1383   4.110   0.938   2.599
  452SOL    HW1 1384   4.145   0.874   2.667
  452SOL    HW2 1385   4.124   0.901   2.507
  453SOL     OW 1386   2.191   0.151   0.742
  453SOL    HW1 1387   2.273   0.198   0.777
  453SOL    HW2 1388   2.110   0.204   0.767
  454SOL     OW 1389   1.945   1.841   2.227
  454SOL    HW1 1390   1.941   1.912   2.158
  454SOL    HW2 1391   1.925   1.752   2.185
  455SOL     OW 1392   2.194   3.062   4.605
  455SOL    HW1 1393   2.138   3.116   4.542
  455SOL    HW2 1394   2.255   3.123   4.656
  456SOL     OW 1395   0.069   2.302   5.023
  456SOL    HW1 1396   0.079   2.230   0.057
  456SOL    HW2 1397   0.107   2.388   0.023
  457SOL     OW 1398   1.968   2.689   3.704
  457SOL    HW1 1399   1.939   2.636   3.624
  457SOL    HW2 1400   1.931   2.646   3.787
  458SOL     OW 1401   1.670   3.882   2.443
  458SOL    HW1 1402   1.627   3.793   2.454
  458SOL    HW2 1403   1.770   3.871   2.443
  459SOL     OW 1404   0.920   4.085   0.971
  459SOL    HW1 1405   0.825   4.118   0.978
  459SOL    HW2 1406   0.965   4.131   0.895
  460SOL     OW 1407   4.007   3.882   0.786
  460SOL    HW1 1408   3.986   3.930   0.701
  460SOL    HW2 1409   3.979   3.938   0.864
  461SOL     OW 1410   0.391   4.653   2.134
  461SOL    HW1 1411   0.373   4.558   2.108
  461SOL    HW2 1412   0.366   4.713   2.058
  462SOL     OW 1413   3.950   2.294   3.867
  462SOL    HW1 1414   4.034   2.307   3.920
  462SOL    HW2 1415   3.872   2.291   3.929
  463SOL     OW 1416   3.415   3.924   2.273
  463SOL    HW1 1417   3.479   3.951   2.202
  463SOL    HW2 1418   3.464   3.876   2.346
  464SOL     OW 1419   1.361   1.381   3.983
  464SOL    HW1 1420   1.288   1.442   4.013
  464SOL    HW2 1421   1.378   1.312   4.054
  465SOL     OW 1422   1.014   2.572   3.840
  465SOL    HW1 1423   0.932   2.544   3.890
  465SOL    HW2 1424   0.988   2.609   3.751
  466SOL     OW 1425   4.418   1.553   2.284
  466SOL    HW1 1426   4.399   1.486   2.213
  466SOL    HW2 1427   4.497   1.609   2.258
  467SOL     OW 1428   4.513   3.674   1.007
  467SOL    HW1 1429   4.477   3.749   0.951
  467SOL    HW2 1430   4.491   3.690   1.103
  468SOL     OW 1431   4.254   3.899   4.755
  468SOL    HW1 1432   4.306   3.850   4.825
  468SOL    HW2 1433   4.307   3.978   4.724
  469SOL     OW 1434   4.139   2.424   3.364
  469SOL    HW1 1435   4.074   2.427   3.440
  469SOL    HW2 1436   4.115   2.493   3.296
  470SOL     OW 1437   2.220   1.673   4.078
  470SOL    HW1 1438   2.201   1.766   4.112
  470SOL    HW2 1439   2.301   1.637   4.125
  471SOL     OW 1440   0.381   0.861   0.451
  471SOL    HW1 1441   0.314   0.842   0.523
  471SOL    HW2 1442   0.346   0.935   0.393
  472SOL     OW 1443   3.809   4.433   3.796
  472SOL    HW1 1444   3.908   4.419   3.789
  472SOL    HW2 1445   3.761   4.355   3.757
  473SOL     OW 1446   3.412   3.319   2.846
  473SOL    HW1 1447   3.413   3.312   2.946
  473SOL    HW2 1448   3.398   3.229   2.807
  474SOL     OW 1449   1.560   2.229   4.372
  474SOL    HW1 1450   1.530   2.169   4.446
  474SOL    HW2 1451   1.580   2.174   4.291
  475SOL     OW 1452   1.551   2.018   0.327
  475SOL    HW1 1453   1.638   2.067   0.329
  475SOL    HW2 1454   1.498   2.047   0.248
  476SOL     OW 1455   1.045   0.308   2.815
  476SOL    HW1 1456   1.089   0.226   2.850
  476SOL    HW2 1457   1.039   0.303   2.716
  477SOL     OW 1458   1.160   0.868   2.274
  477SOL    HW1 1459   1.102   0.826   2.204
  477SOL    HW2 1460   1.103   0.917   2.340
  478SOL     OW 1461   1.883   2.031   1.431
  478SOL    HW1 1462   1.913   1.936   1.422
  478SOL    HW2 1463   1.944   2.090   1.378
  479SOL     OW 1464   0.262   4.563   1.460
  479SOL    HW1 1465   0.344   4.595   1.413
  479SOL    HW2 1466   0.262   4.463   1.462
  480SOL     OW 1467   3.238   4.514   4.043
  480SOL    HW1 1468   3.285   4.437   4.087
  480SOL    HW2 1469   3.238   4.593   4.105
  481SOL     OW 1470   2.231   3.170   3.593
  481SOL    HW1 1471   2.229   3.235   3.517
  481SOL    HW2 1472   2.267   3.216   3.675
  482SOL     OW 1473   0.698   2.435   0.214
  482SOL    HW1 1474   0.649   2.451   0.300
  482SOL    HW2 1475   0.694   2.338   0.191
  483SOL     OW 1476   0.113   0.599   2.080
  483SOL    HW1 1477   0.130   0.692   2.046
  483SOL    HW2 1478   0.054   0.603   2.161
  484SOL     OW 1479   2.716   1.123   4.712
  484SOL    HW1 1480   2.786   1.182   4.752
  484SOL    HW2 1481   2.750   1.030   4.704
  485SOL     OW 1482   1.821   4.708   2.021
  485SOL    HW1 1483   1.735   4.687   1.976
  485SOL    HW2 1484   1.809   4.703   2.120
  486SOL     OW 1485   2.193   2.532   1.898
  486SOL    HW1 1486   2.172   2.546   1.995
  486SOL    HW2 1487   2.267   2.594   1.870
  487SOL     OW 1488   1.896   1.578   0.699
  487SOL    HW1 1489   1.849   1.541   0.618
  487SOL    HW2 1490   1.929   1.502   0.755
  488SOL     OW 1491   3.600   2.888   0.865
  488SOL    HW1 1492   3.695   2.901   0.835
  488SOL    HW2 1493   3.542   2.958   0.822
  489SOL     OW 1494   1.352   3.595   2.077
  489SOL    HW1 1495   1.267   3.579   2.128
  489SOL    HW2 1496   1.380   3.690   2.088
  490SOL     OW 1497   4.705   1.241   1.266
  490SOL    HW1 1498   4.669   1.258   1.174
  490SOL    HW2 1499   4.801   1.214   1.259
  491SOL     OW 1500   2.033   2.374   3.047
  491SOL    HW1 1501   1.988   2.285   3.040
  491SOL    HW2 1502   2.114   2.375   2.989
  492SOL     OW 1503   4.244   1.681   0.955
  492SOL    HW1 1504   4.148   1.682   0.983
  492SOL    HW2 1505   4.267   1.591   0.919
  493SOL     OW 1506   4.227   1.127   2.357
  493SOL    HW1 1507   4.170   1.080   2.290
  493SOL    HW2 1508   4.169   1.183   2.417
  494SOL     OW 1509   3.763   0.412   4.839
  494SOL    HW1 1510   3.705   0.353   4.784
  494SOL    HW2 1511   3.715   0.498   4.859
  495SOL     OW 1512   0.539   2.987   2.653
  495SOL    HW1 1513   0.493   2.954   2.571
  495SOL    HW2 1514   0.511   3.080   2.672
  496SOL     OW 1515   2.333   4.225   3.407
  496SOL    HW1 1516   2.295   4.257   3.493
  496SOL    HW2 1517   2.382   4.300   3.363
  497SOL     OW 1518   3.084   0.138   3.973
  497SOL    HW1 1519   3.057   0.179   3.885
  497SOL    HW2 1520   3.048   0.044   3.978
  498SOL     OW 1521   2.777   1.648   3.796
  498SOL    HW1 1522   2.699   1.615   3.743
  498SOL    HW2 1523   2.770   1.614   3.890
  499SOL     OW 1524   3.912   0.616   1.283
  499SOL    HW1 1525   3.891   0.594   1.188
  499SOL    HW2 1526   3.944   0.534   1.330
  500SOL     OW 1527   3.538   2.317   3.481
  500SOL    HW1 1528   3.440   2.333   3.490
  500SOL    HW2 1529   3.557   2.271   3.394
  501SOL     OW 1530   1.456   2.704   4.627
  501SOL    HW1 1531   1.476   2.606   4.626
  501SOL    HW2 1532   1.452   2.735   4.722
  502SOL     OW 1533   1.946   3.853   2.429
  502SOL    HW1 1534   1.943   3.906   2.344
  502SOL    HW2 1535   2.041   3.841   2.458
  503SOL     OW 1536   3.015   4.553   1.439
  503SOL    HW1 1537   2.941   4.485   1.444
  503SOL    HW2 1538   3.003   4.608   1.356
  504SOL     OW 1539   1.960   3.159   3.627
  504SOL    HW1 1540   2.057   3.140   3.609
  504SOL    HW2 1541   1.903   3.092   3.580
  505SOL     OW 1542   1.234   4.300   1.462
  505SOL    HW1 1543   1.200   4.345   1.544
  505SOL    HW2 1544   1.302   4.231   1.487
  506SOL     OW 1545   4.079   2.202   1.885
  506SOL    HW1 1546   4.031   2.233   1.803
  506SOL    HW2 1547   4.100   2.280   1.943
  507SOL     OW 1548   1.042   0.233   2.067
  507SOL    HW1 1549   1.126   0.267   2.109
  507SOL    HW2 1550   1.003   0.160   2.123
  508SOL     OW 1551   0.224   3.136   0.318
  508SOL    HW1 1552   0.187   3.181   0.236
  508SOL    HW2 1553   0.318   3.108   0.301
  509SOL     OW 1554   1.926   3.909   1.270
  509SOL    HW1 1555   1.831   3.880   1.260
  509SOL    HW2 1556   1.931   4.009   1.271
  510SOL     OW 1557   0.917   3.781   2.331
  510SOL    HW1 1558   0.841   3.803   2.392
  510SOL    HW2 1559   0.895   3.701   2.276
  511SOL     OW 1560   0.980   0.521   4.072
  511SOL    HW1 1561   1.040   0.472   4.009
  511SOL    HW2 1562   0.904   0.562   4.021
  512SOL     OW 1563   4.746   0.815   1.705
  512SOL    HW1 1564   4.835   0.769   1.707
  512SOL    HW2 1565   4.682   0.765   1.764
  513SOL     OW 1566   4.478   3.371   4.206
  513SOL    HW1 1567   4.560   3.411   4.246
  513SOL    HW2 1568   4.483   3.373   4.107
  514SOL     OW 1569   2.981   1.877   3.023
  514SOL    HW1 1570   3.014   1.932   2.947
  514SOL    HW2 1571   2.887   1.904   3.045
  515SOL     OW 1572   4.680   3.972   0.384
  515SOL    HW1 1573   4.668   3.918   0.467
  515SOL    HW2 1574   4.748   3.927   0.325
  516SOL     OW 1575   3.806   1.512   3.859
  516SOL    HW1 1576   3.858   1.594   3.885
  516SOL    HW2 1577   3.726   1.503   3.919
  517SOL     OW 1578   3.377   1.529   0.860
  517SOL    HW1 1579   3.307   1.477   0.909
  517SOL    HW2 1580   3.368   1.626   0.882
  518SOL     OW 1581   3.942   4.810   2.132
  518SOL    HW1 1582   4.027   4.856   2.105
  518SOL    HW2 1583   3.904   4.762   2.053
  519SOL     OW 1584   1.096   0.532   2.252
  519SOL    HW1 1585   1.082   0.598   2.177
  519SOL    HW2 1586   1.018   0.534   2.314
  520SOL     OW 1587   1.191   0.011   4.663
  520SOL    HW1 1588   1.272   0.042   4.713
  520SOL    HW2 1589   1.183   0.062   4.577
  521SOL     OW 1590   3.942   4.016   0.554
  521SOL    HW1 1591   4.027   4.049   0.512
  521SOL    HW2 1592   3.864   4.047   0.500
  522SOL     OW 1593   2.597   0.504   0.914
  522SOL    HW1 1594   2.535   0.582   0.925
  522SOL    HW2 1595   2.665   0.526   0.843
  523SOL     OW 1596   5.008   0.125   2.806
  523SOL    HW1 1597   4.953   0.045   2.782
  523SOL    HW2 1598   0.021   0.157   2.724
  524SOL     OW 1599   0.583   2.352   3.107
  524SOL    HW1 1600   0.580   2.447   3.077
  524SOL    HW2 1601   0.493   2.311   3.096
  525SOL     OW 1602   0.225   4.116   2.714
  525SOL    HW1 1603   0.261   4.062   2.790
  525SOL    HW2 1604   0.301   4.160   2.666
  526SOL     OW 1605   0.482   2.818   1.796
  526SOL    HW1 1606   0.420   2.886   1.758
  526SOL    HW2 1607   0.570   2.823   1.749
  527SOL     OW 1608   3.110   4.701   2.300
  527SOL    HW1 1609   3.039   4.650   2.252
  527SOL    HW2 1610   3.179   4.732   2.234
  528SOL     OW 1611   4.026   0.890   3.541
  528SOL    HW1 1612   4.068   0.979   3.559
  528SOL    HW2 1613   4.014   0.878   3.442
  529SOL     OW 1614   1.021   2.010   3.276
  529SOL    HW1 1615   0.983   1.946   3.209
  529SOL    HW2 1616   0.992   1.984   3.368
  530SOL     OW 1617   4.197   0.908   3.804
  530SOL    HW1 1618   4.254   0.864   3.735
  530SOL    HW2 1619   4.143   0.837   3.852
  531SOL     OW 1620   0.861   4.713   1.090
  531SOL    HW1 1621   0.843   4.669   1.002
  531SOL    HW2 1622   0.955   4.748   1.091
  532SOL     OW 1623   4.896   0.747   0.363
  532SOL    HW1 1624   4.894   0.715   0.269
  532SOL    HW2 1625   4.893   0.847   0.364
  533SOL     OW 1626   3.945   0.892   3.274
  533SOL    HW1 1627   3.868   0.947   3.307
  533SOL    HW2 1628   3.960   0.910   3.177
  534SOL     OW 1629   3.727   2.883   0.560
  534SOL    HW1 1630   3.790   2.921   0.627
  534SOL    HW2 1631   3.757   2.791   0.535
  535SOL     OW 1632   4.402   2.566   0.452
  535SOL    HW1 1633   4.314   2.520   0.466
  535SOL    HW2 1634   4.386   2.652   0.403
  536SOL     OW 1635   1.787   2.718   4.618
  536SOL    HW1 1636   1.755   2.673   4.535
  536SOL    HW2 1637   1.844   2.797   4.593
  537SOL     OW 1638   0.776   4.166   2.722
  537SOL    HW1 1639   0.739   4.209   2.639
  537SOL    HW2 1640   0.700   4.140   2.781
  538SOL     OW 1641   4.223   4.353   1.231
  538SOL    HW1 1642   4.132   4.316   1.249
  538SOL    HW2 1643   4.271   4.368   1.317
  539SOL     OW 1644   2.510   1.693   3.714
  539SOL    HW1 1645   2.435   1.632   3.689
  539SOL    HW2 1646   2.473   1.773   3.762
  540SOL     OW 1647   3.492   3.678   1.017
  540SOL    HW1 1648   3.406   3.630   1.036
  540SOL    HW2 1649   3.482   3.730   0.932
  541SOL     OW 1650   5.000   2.056   3.038
  541SOL    HW1 1651   5.033   2.017   2.953
  541SOL    HW2 1652   4.955   1.985   3.092
  542SOL     OW 1653   0.827   0.156   3.152
  542SOL    HW1 1654   0.812   0.218   3.075
  542SOL    HW2 1655   0.877   0.203   3.224
  543SOL     OW 1656   4.193   4.469   3.251
  543SOL    HW1 1657   4.249   4.551   3.259
  543SOL    HW2 1658   4.252   4.389   3.238
  544SOL     OW 1659   4.825   1.466   3.886
  544SOL    HW1 1660   4.879   1.501   3.962
  544SOL    HW2 1661   4.728   1.484   3.904
  545SOL     OW 1662   1.015   3.582   3.161
  545SOL    HW1 1663   1.053   3.523   3.090
  545SOL    HW2 1664   1.035   3.677   3.140
  546SOL     OW 1665   0.515   0.694   3.279
  546SOL    HW1 1666   0.521   0.767   3.210
  546SOL    HW2 1667   0.603   0.648   3.286
  547SOL     OW 1668   2.949   2.579   3.710
  547SOL    HW1 1669   2.954   2.576   3.809
  547SOL    HW2 1670   2.855   2.564   3.680
  548SOL     OW 1671   0.095   3.039   2.807
  548SOL    HW1 1672   0.020   3.077   2.753
  548SOL    HW2 1673   0.159   2.992   2.747
  549SOL     OW 1674   3.095   0.606   3.609
  549SOL    HW1 1675   3.050   0.580   3.695
  549SOL    HW2 1676   3.041   0.677   3.563
  550SOL     OW 1677   4.954   0.925   0.658
  550SOL    HW1 1678   4.870   0.893   0.614
  550SOL    HW2 1679   4.955   0.897   0.754
  551SOL     OW 1680   1.556   2.322   2.877
  551SOL    HW1 1681   1.616   2.284   2.806
  551SOL    HW2 1682   1.483   2.257   2.896
  552SOL     OW 1683   2.866   3.712   2.711
  552SOL    HW1 1684   2.787   3.704   2.773
  552SOL    HW2 1685   2.943   3.753   2.759
  553SOL     OW 1686   1.216   1.471   1.175
  553SOL    HW1 1687   1.143   1.463   1.107
  553SOL    HW2 1688   1.177   1.494   1.264
  554SOL     OW 1689   2.287   1.804   1.813
  554SOL    HW1 1690   2.370   1.798   1.758
  554SOL    HW2 1691   2.211   1.834   1.755
  555SOL     OW 1692   3.636   3.666   0.767
  555SOL    HW1 1693   3.710   3.723   0.802
  555SOL    HW2 1694   3.624   3.587   0.828
  556SOL     OW 1695   1.821   3.202   0.299
  556SOL    HW1 1696   1.787   3.293   0.273
  556SOL    HW2 1697   1.756   3.159   0.362
  557SOL     OW 1698   4.409   4.120   4.623
  557SOL    HW1 1699   4.361   4.136   4.537
  557SOL    HW2 1700   4.507   4.119   4.607
  558SOL     OW 1701   3.697   1.671   3.650
  558SOL    HW1 1702   3.726   1.587   3.695
  558SOL    HW2 1703   3.656   1.648   3.561
  559SOL     OW 1704   1.844   1.961   3.338
  559SOL    HW1 1705   1.795   2.032   3.286
  559SOL    HW2 1706   1.795   1.944   3.424
  560SOL     OW 1707   4.211   4.729   0.292
  560SOL    HW1 1708   4.248   4.813   0.332
  560SOL    HW2 1709   4.182   4.747   0.198
  561SOL     OW 1710   3.919   1.185   3.292
  561SOL    HW1 1711   3.920   1.279   3.256
  561SOL    HW2 1712   3.941   1.187   3.390
  562SOL     OW 1713   2.990   0.449   2.462
  562SOL    HW1 1714   2.915   0.455   2.528
  562SOL    HW2 1715   3.073   0.484   2.504
  563SOL     OW 1716   3.257   4.945   1.856
  563SOL    HW1 1717   3.353   4.935   1.830
  563SOL    HW2 1718   3.199   4.927   1.777
  564SOL     OW 1719   1.283   3.983   1.618
  564SOL    HW1 1720   1.316   4.004   1.526
  564SOL    HW2 1721   1.196   4.030   1.634
  565SOL     OW 1722   3.377   1.744   1.537
  565SOL    HW1 1723   3.411   1.829   1.496
  565SOL    HW2 1724   3.443   1.711   1.604
  566SOL     OW 1725   2.629   0.957   1.812
  566SOL    HW1 1726   2.633   1.010   1.896
  566SOL    HW2 1727   2.699   0.885   1.815
  567SOL     OW 1728   0.674   3.836   3.268
  567SOL    HW1 1729   0.653   3.871   3.359
  567SOL    HW2 1730   0.668   3.736   3.269
  568SOL     OW 1731   0.785   0.237   1.935
  568SOL    HW1 1732   0.773   0.315   1.875
  568SOL    HW2 1733   0.877   0.239   1.975
  569SOL     OW 1734   1.120   4.718   1.457
  569SOL    HW1 1735   1.128   4.750   1.551
  569SOL    HW2 1736   1.143   4.793   1.394
  570SOL     OW 1737   1.283   1.483   0.888
  570SOL    HW1 1738   1.257   1.430   0.968
  570SOL    HW2 1739   1.347   1.430   0.832
  571SOL     OW 1740   2.314   0.587   0.872
  571SOL    HW1 1741   2.268   0.633   0.796
  571SOL    HW2 1742   2.364   0.655   0.926
  572SOL     OW 1743   0.268   0.033   3.684
  572SOL    HW1 1744   0.295   0.011   3.778
  572SOL    HW2 1745   0.169   0.026   3.676
  573SOL     OW 1746   1.276   0.574   4.229
  573SOL    HW1 1747   1.246   0.588   4.323
  573SOL    HW2 1748   1.226   0.496   4.189
  574SOL     OW 1749   0.809   1.064   1.319
  574SOL    HW1 1750   0.762   1.021   1.242
  574SOL    HW2 1751   0.741   1.105   1.381
  575SOL     OW 1752   2.254   1.085   0.644
  575SOL    HW1 1753   2.186   1.130   0.702
  575SOL    HW2 1754   2.341   1.135   0.651
  576SOL     OW 1755   1.852   1.664   2.423
  576SOL    HW1 1756   1.948   1.655   2.396
  576SOL    HW2 1757   1.805   1.726   2.360
  577SOL     OW 1758   3.026   3.902   0.452
  577SOL    HW1 1759   3.090   3.887   0.376
  577SOL    HW2 1760   3.036   3.995   0.485
  578SOL     OW 1761   2.405   1.723   4.299
  578SOL    HW1 1762   2.407   1.747   4.396
  578SOL    HW2 1763   2.423   1.805   4.244
  579SOL     OW 1764   4.380   4.674   1.004
  579SOL    HW1 1765   4.294   4.678   0.954
  579SOL    HW2 1766   4.379   4.597   1.067
  580SOL     OW 1767   2.183   4.677   1.196
  580SOL    HW1 1768   2.137   4.682   1.285
  580SOL    HW2 1769   2.246   4.600   1.196
  581SOL     OW 1770   1.047   1.820   1.826
  581SOL    HW1 1771   1.072   1.915   1.844
  581SOL    HW2 1772   0.955   1.817   1.787
  582SOL     OW 1773   1.470   4.752   0.168
  582SOL    HW1 1774   1.504   4.846   0.180
  582SOL    HW2 1775   1.545   4.688   0.181
  583SOL     OW 1776   2.866   2.281   0.131
  583SOL    HW1 1777   2.959   2.299   0.163
  583SOL    HW2 1778   2.867   2.270   0.031
  584SOL     OW 1779   1.595   0.743   0.671
  584SOL    HW1 1780   1.572   0.682   0.748
  584SOL    HW2 1781   1.688   0.721   0.639
  585SOL     OW 1782   1.509   3.286   3.629
  585SOL    HW1 1783   1.494   3.264   3.726
  585SOL    HW2 1784   1.508   3.385   3.617
  586SOL     OW 1785   2.362   3.213   0.062
  586SOL    HW1 1786   2.431   3.233   0.132
  586SOL    HW2 1787   2.371   3.280   5.022
  587SOL     OW 1788   3.052   3.296   4.789
  587SOL    HW1 1789   3.001   3.231   4.845
  587SOL    HW2 1790   3.010   3.302   4.698
  588SOL     OW 1791   0.186   4.346   3.274
  588SOL    HW1 1792   0.158   4.315   3.183
  588SOL    HW2 1793   0.126   4.421   3.302
  589SOL     OW 1794   2.816   3.567   4.699
  589SOL    HW1 1795   2.911   3.593   4.684
  589SOL    HW2 1796   2.810   3.507   4.779
  590SOL     OW 1797   0.421   2.103   3.539
  590SOL    HW1 1798   0.359   2.176   3.568
  590SOL    HW2 1799   0.483   2.139   3.468
  591SOL     OW 1800   3.153   3.619   0.210
  591SOL    HW1 1801   3.178   3.548   0.145
  591SOL    HW2 1802   3.182   3.592   0.302
  592SOL     OW 1803   4.023   2.679   3.474
  592SOL    HW1 1804   3.981   2.730   3.549
  592SOL    HW2 1805   3.963   2.681   3.395
  593SOL     OW 1806   1.405   0.127   4.767
  593SOL    HW1 1807   1.492   0.078   4.765
  593SOL    HW2 1808   1.421   0.222   4.794
  594SOL     OW 1809   4.673   2.984   0.951
  594SOL    HW1 1810   4.656   2.895   0.909
  594SOL    HW2 1811   4.680   2.974   1.050
  595SOL     OW 1812   2.906   2.775   4.596
  595SOL    HW1 1813   2.937   2.870   4.586
  595SOL    HW2 1814   2.919   2.747   4.691
  596SOL     OW 1815   1.063   4.229   1.260
  596SOL    HW1 1816   1.124   4.242   1.338
  596SOL    HW2 1817   1.082   4.140   1.218
  597SOL     OW 1818   3.362   0.786   3.611
  597SOL    HW1 1819   3.410   0.823   3.691
  597SOL    HW2 1820   3.413   0.708   3.576
  598SOL     OW 1821   4.346   0.861   3.573
  598SOL    HW1 1822   4.287   0.891   3.499
  598SOL    HW2 1823   4.392   0.940   3.614
  599SOL     OW 1824   3.136   3.902   4.950
  599SOL    HW1 1825   3.212   3.957   4.984
  599SOL    HW2 1826   3.080   3.957   4.889
  600SOL     OW 1827   4.862   2.618   0.390
  600SOL    HW1 1828   4.770   2.592   0.361
  600SOL    HW2 1829   4.858   2.708   0.435
  601SOL     OW 1830   0.046   3.479   0.887
  601SOL    HW1 1831   0.017   3.574   0.880
  601SOL    HW2 1832   5.001   3.420   0.899
  602SOL     OW 1833   4.924   4.363   3.374
  602SOL    HW1 1834   4.979   4.288   3.413
  602SOL    HW2 1835   4.948   4.448   3.421
  603SOL     OW 1836   4.211   1.533   4.440
  603SOL    HW1 1837   4.189   1.436   4.435
  603SOL    HW2 1838   4.147   1.578   4.504
  604SOL     OW 1839   2.877   3.504   2.416
  604SOL    HW1 1840   2.817   3.569   2.463
  604SOL    HW2 1841   2.916   3.546   2.335
  605SOL     OW 1842   3.167   1.948   1.852
  605SOL    HW1 1843   3.122   2.029   1.815
  605SOL    HW2 1844   3.143   1.939   1.949
  606SOL     OW 1845   1.783   4.942   4.519
  606SOL    HW1 1846   1.853   4.877   4.548
  606SOL    HW2 1847   1.699   4.892   4.496
  607SOL     OW 1848   1.433   2.077   4.818
  607SOL    HW1 1849   1.502   2.150   4.824
  607SOL    HW2 1850   1.432   2.040   4.726
  608SOL     OW 1851   3.787   4.179   2.106
  608SOL    HW1 1852   3.727   4.119   2.053
  608SOL    HW2 1853   3.810   4.136   2.193
  609SOL     OW 1854   4.457   1.073   4.751
  609SOL    HW1 1855   4.536   1.033   4.798
  609SOL    HW2 1856   4.489   1.130   4.675
  610SOL     OW 1857   4.307   0.225   3.655
  610SOL    HW1 1858   4.212   0.253   3.663
  610SOL    HW2 1859   4.317   0.163   3.577
  611SOL     OW 1860   0.933   0.098   3.495
  611SOL    HW1 1861   0.963   0.131   3.584
  611SOL    HW2 1862   0.837   0.070   3.501
  612SOL     OW 1863   0.231   2.901   3.431
  612SOL    HW1 1864   0.249   2.998   3.445
  612SOL    HW2 1865   0.317   2.852   3.420
  613SOL     OW 1866   1.561   2.618   3.851
  613SOL    HW1 1867   1.660   2.627   3.843
  613SOL    HW2 1868   1.531   2.531   3.812
  614SOL     OW 1869   1.270   2.321   0.494
  614SOL    HW1 1870   1.262   2.336   0.396
  614SOL    HW2 1871   1.350   2.369   0.529
  615SOL     OW 1872   1.743   3.308   0.750
  615SOL    HW1 1873   1.650   3.294   0.785
  615SOL    HW2 1874   1.808   3.299   0.826
  616SOL     OW 1875   1.876   2.232   3.908
  616SOL    HW1 1876   1.914   2.140   3.919
  616SOL    HW2 1877   1.912   2.273   3.823
  617SOL     OW 1878   1.468   2.396   3.706
  617SOL    HW1 1879   1.399   2.388   3.778
  617SOL    HW2 1880   1.425   2.428   3.622
  618SOL     OW 1881   3.319   0.450   3.725
  618SOL    HW1 1882   3.297   0.547   3.716
  618SOL    HW2 1883   3.324   0.426   3.822
  619SOL     OW 1884   1.222   2.136   3.646
  619SOL    HW1 1885   1.278   2.186   3.580
  619SOL    HW2 1886   1.282   2.087   3.709
  620SOL     OW 1887   1.908   1.682   1.783
  620SOL    HW1 1888   1.902   1.774   1.821
  620SOL    HW2 1889   2.004   1.659   1.767
  621SOL     OW 1890   1.265   1.560   0.108
  621SOL    HW1 1891   1.339   1.587   0.170
  621SOL    HW2 1892   1.191   1.627   0.113
  622SOL     OW 1893   2.577   0.564   2.944
  622SOL    HW1 1894   2.535   0.652   2.919
  622SOL    HW2 1895   2.525   0.522   3.018
  623SOL     OW 1896   0.884   0.944   4.100
  623SOL    HW1 1897   0.945   0.879   4.147
  623SOL    HW2 1898   0.842   0.899   4.022
  624SOL     OW 1899   3.398   1.478   0.312
  624SOL    HW1 1900   3.429   1.574   0.309
  624SOL    HW2 1901   3.389   1.449   0.407
  625SOL     OW 1902   3.336   4.613   3.154
  625SOL    HW1 1903   3.326   4.555   3.073
  625SOL    HW2 1904   3.268   4.588   3.222
  626SOL     OW 1905   3.720   2.883   3.690
  626SOL    HW1 1906   3.670   2.888   3.776
  626SOL    HW2 1907   3.813   2.850   3.708
  627SOL     OW 1908   2.680   2.454   3.988
  627SOL    HW1 1909   2.595   2.472   4.037
  627SOL    HW2 1910   2.659   2.440   3.891
  628SOL     OW 1911   4.124   2.598   3.125
  628SOL    HW1 1912   4.134   2.680   3.070
  628SOL    HW2 1913   4.028   2.582   3.146
  629SOL     OW 1914   2.877   2.724   4.210
  629SOL    HW1 1915   2.948   2.778   4.255
  629SOL    HW2 1916   2.805   2.785   4.176
  630SOL     OW 1917   4.103   4.683   4.628
  630SOL    HW1 1918   4.042   4.604   4.640
  630SOL    HW2 1919   4.186   4.670   4.682
  631SOL     OW 1920   3.763   2.080   4.026
  631SOL    HW1 1921   3.731   2.175   4.032
  631SOL    HW2 1922   3.788   2.048   4.118
  632SOL     OW 1923   2.762   4.607   2.115
  632SOL    HW1 1924   2.676   4.638   2.073
  632SOL    HW2 1925   2.834   4.606   2.046
  633SOL     OW 1926   3.645   4.770   3.428
  633SOL    HW1 1927   3.720   4.728   3.480
  633SOL    HW2 1928   3.563   4.773   3.485
  634SOL     OW 1929   2.340   1.044   1.727
  634SOL    HW1 1930   2.244   1.070   1.739
  634SOL    HW2 1931   2.397   1.126   1.728
  635SOL     OW 1932   1.290   1.192   1.775
  635SOL    HW1 1933   1.223   1.259   1.744
  635SOL    HW2 1934   1.261   1.153   1.862
  636SOL     OW 1935   3.902   4.909   2.999
  636SOL    HW1 1936   3.941   4.831   2.951
  636SOL    HW2 1937   3.927   4.904   3.096
  637SOL     OW 1938   0.536   1.554   2.460
  637SOL    HW1 1939   0.445   1.577   2.497
  637SOL    HW2 1940   0.600   1.627   2.485
  638SOL     OW 1941   1.856   2.567   3.472
  638SOL    HW1 1942   1.770   2.614   3.453
  638SOL    HW2 1943   1.929   2.608   3.417
  639SOL     OW 1944   0.909   1.233   0.913
  639SOL    HW1 1945   0.815   1.229   0.945
  639SOL    HW2 1946   0.953   1.144   0.924
  640SOL     OW 1947   0.349   3.601   4.405
  640SOL    HW1 1948   0.279   3.556   4.349
  640SOL    HW2 1949   0.406   3.532   4.449
  641SOL     OW 1950   3.617   3.490   2.314
  641SOL    HW1 1951   3.679   3.432   2.367
  641SOL    HW2 1952   3.530   3.442   2.302
  642SOL     OW 1953   3.007   4.355   3.819
  642SOL    HW1 1954   3.081   4.423   3.815
  642SOL    HW2 1955   2.919   4.402   3.814
  643SOL     OW 1956   1.618   0.186   4.312
  643SOL    HW1 1957   1.609   0.261   4.247
  643SOL    HW2 1958   1.579   0.212   4.400
  644SOL     OW 1959   1.866   1.212   4.430
  644SOL    HW1 1960   1.870   1.183   4.526
  644SOL    HW2 1961   1.951   1.258   4.406
  645SOL     OW 1962   2.667   4.127   0.155
  645SOL    HW1 1963   2.640   4.165   0.067
  645SOL    HW2 1964   2.599   4.060   0.185
  646SOL     OW 1965   4.590   4.266   0.816
  646SOL    HW1 1966   4.533   4.211   0.878
  646SOL    HW2 1967   4.662   4.208   0.778
  647SOL     OW 1968   4.078   0.594   3.674
  647SOL    HW1 1969   4.096   0.681   3.629
  647SOL    HW2 1970   4.153   0.573   3.737
  648SOL     OW 1971   2.999   1.267   0.764
  648SOL    HW1 1972   3.040   1.316   0.840
  648SOL    HW2 1973   2.920   1.216   0.796
  649SOL     OW 1974   4.093   3.990   3.363
  649SOL    HW1 1975   4.012   3.987   3.304
  649SOL    HW2 1976   4.069   4.034   3.450
  650SOL     OW 1977   3.959   2.990   2.041
  650SOL    HW1 1978   3.957   2.966   2.138
  650SOL    HW2 1979   3.950   3.089   2.031
  651SOL     OW 1980   4.841   0.358   4.111
  651SOL    HW1 1981   4.905   0.434   4.103
  651SOL    HW2 1982   4.804   0.336   4.021
  652SOL     OW 1983   2.045   0.519   2.506
  652SOL    HW1 1984   2.043   0.505   2.605
  652SOL    HW2 1985   2.041   0.430   2.460
  653SOL     OW 1986   4.672   2.819   2.754
  653SOL    HW1 1987   4.761   2.860   2.735
  653SOL    HW2 1988   4.600   2.879   2.721
  654SOL     OW 1989   0.846   3.008   2.064
  654SOL    HW1 1990   0.803   3.098   2.061
  654SOL    HW2 1991   0.801   2.952   2.134
  655SOL     OW 1992   1.806   3.481   2.726
  655SOL    HW1 1993   1.797   3.551   2.797
  655SOL    HW2 1994   1.883   3.503   2.666
  656SOL     OW 1995   0.386   2.050   2.268
  656SOL    HW1 1996   0.433   1.966   2.239
  656SOL    HW2 1997   0.416   2.075   2.360
  657SOL     OW 1998   1.685   4.901   2.327
  657SOL    HW1 1999   1.774   4.909   2.372
  657SOL    HW2 2000   1.621   4.967   2.368
  658SOL     OW 2001   0.471   1.047   3.354
  658SOL    HW1 2002   0.564   1.077   3.331
  658SOL    HW2 2003   0.470   0.949   3.371
  659SOL     OW 2004   4.233   4.184   3.173
  659SOL    HW1 2005   4.185   4.096   3.167
  659SOL    HW2 2006   4.322   4.176   3.129
  660SOL     OW 2007   3.446   1.481   1.728
  660SOL    HW1 2008   3.461   1.383   1.713
  660SOL    HW2 2009   3.447   1.501   1.826
  661SOL     OW 2010   0.890   4.092   1.966
  661SOL    HW1 2011   0.832   4.091   1.885
  661SOL    HW2 2012   0.980   4.129   1.943
  662SOL     OW 2013   0.320   4.032   0.654
  662SOL    HW1 2014   0.291   4.095   0.582
  662SOL    HW2 2015   0.415   4.050   0.678
  663SOL     OW 2016   3.102   1.897   4.979
  663SOL    HW1 2017   3.095   1.941   4.890
  663SOL    HW2 2018   3.184   1.840   4.981
  664SOL     OW 2019   3.651   0.887   3.334
  664SOL    HW1 2020   3.703   0.806   3.307
  664SOL    HW2 2021   3.567   0.892   3.281
  665SOL     OW 2022   4.258   1.839   1.530
  665SOL    HW1 2023   4.240   1.772   1.458
  665SOL    HW2 2024   4.310   1.915   1.492
  666SOL     OW 2025   4.958   3.406   1.627
  666SOL    HW1 2026   4.859   3.392   1.639
  666SOL    HW2 2027   4.976   3.433   1.532
  667SOL     OW 2028   4.164   3.965   3.674
  667SOL    HW1 2029   4.219   3.920   3.604
  667SOL    HW2 2030   4.184   4.063   3.674
  668SOL     OW 2031   3.339   1.781   2.135
  668SOL    HW1 2032   3.255   1.736   2.104
  668SOL    HW2 2033   3.361   1.750   2.227
  669SOL     OW 2034   2.781   1.527   1.895
  669SOL    HW1 2035   2.800   1.508   1.991
  669SOL    HW2 2036   2.818   1.617   1.871
  670SOL     OW 2037   1.614   0.469   4.470
  670SOL    HW1 2038   1.528   0.443   4.427
  670SOL    HW2 2039   1.603   0.471   4.569
  671SOL     OW 2040   1.974   2.514   0.179
  671SOL    HW1 2041   1.911   2.578   0.222
  671SOL    HW2 2042   1.964   2.518   0.080
  672SOL     OW 2043   1.272   3.085   3.243
  672SOL    HW1 2044   1.181   3.125   3.241
  672SOL    HW2 2045   1.289   3.035   3.159
  673SOL     OW 2046   3.423   3.819   4.173
  673SOL    HW1 2047   3.474   3.734   4.159
  673SOL    HW2 2048   3.399   3.828   4.270
  674SOL     OW 2049   4.127   3.006   2.688
  674SOL    HW1 2050   4.164   3.071   2.754
  674SOL    HW2 2051   4.120   2.916   2.732
  675SOL     OW 2052   4.659   4.923   3.800
  675SOL    HW1 2053   4.577   4.980   3.811
  675SOL    HW2 2054   4.667   4.861   3.878
  676SOL     OW 2055   3.000   4.016   4.742
  676SOL    HW1 2056   3.004   4.114   4.723
  676SOL    HW2 2057   3.008   3.965   4.657
  677SOL     OW 2058   1.012   1.659   2.742
  677SOL    HW1 2059   1.037   1.581   2.686
  677SOL    HW2 2060   0.917   1.650   2.772
  678SOL     OW 2061   1.714   4.667   3.213
  678SOL    HW1 2062   1.624   4.710   3.217
  678SOL    HW2 2063   1.750   4.674   3.120
  679SOL     OW 2064   0.056   4.175   3.495
  679SOL    HW1 2065   0.056   4.129   3.406
  679SOL    HW2 2066   0.009   4.119   3.562
  680SOL     OW 2067   0.536   3.508   0.102
  680SOL    HW1 2068   0.471   3.447   0.057
  680SOL    HW2 2069   0.589   3.456   0.169
  681SOL     OW 2070   4.896   4.912   2.756
  681SOL    HW1 2071   4.971   4.869   2.807
  681SOL    HW2 2072   4.891   4.873   2.665
  682SOL     OW 2073   2.866   2.202   0.438
  682SOL    HW1 2074   2.937   2.143   0.400
  682SOL    HW2 2075   2.907   2.281   0.482
  683SOL     OW 2076   3.179   4.230   1.724
  683SOL    HW1 2077   3.130   4.243   1.810
  683SOL    HW2 2078   3.174   4.313   1.669
  684SOL     OW 2079   4.371   3.211   1.531
  684SOL    HW1 2080   4.418   3.279   1.474
  684SOL    HW2 2081   4.284   3.185   1.488
  685SOL     OW 2082   2.747   2.791   3.781
  685SOL    HW1 2083   2.832   2.740   3.797
  685SOL    HW2 2084   2.674   2.755   3.838
  686SOL     OW 2085   3.508   0.494   0.891
  686SOL    HW1 2086   3.419   0.455   0.913
  686SOL    HW2 2087   3.496   0.581   0.843
  687SOL     OW 2088   1.108   3.003   2.603
  687SOL    HW1 2089   1.033   2.940   2.626
  687SOL    HW2 2090   1.092   3.091   2.649
  688SOL     OW 2091   4.335   2.767   1.873
  688SOL    HW1 2092   4.368   2.675   1.895
  688SOL    HW2 2093   4.286   2.804   1.952
  689SOL     OW 2094   1.003   0.226   1.704
  689SOL    HW1 2095   0.947   0.166   1.761
  689SOL    HW2 2096   0.944   0.276   1.640
  690SOL     OW 2097   3.503   2.210   0.183
  690SOL    HW1 2098   3.429   2.276   0.181
  690SOL    HW2 2099   3.472   2.123   0.144
  691SOL     OW 2100   3.167   1.193   2.130
  691SOL    HW1 2101   3.101   1.212   2.057
  691SOL    HW2 2102   3.211   1.278   2.159
  692SOL     OW 2103   1.781   1.045   1.253
  692SOL    HW1 2104   1.881   1.044   1.257
  692SOL    HW2 2105   1.747   1.127   1.299
  693SOL     OW 2106   0.106   3.940   2.191
  693SOL    HW1 2107   0.034   3.902   2.249
  693SOL    HW2 2108   0.194   3.930   2.237
  694SOL     OW 2109   1.779   3.927   4.298
  694SOL    HW1 2110   1.711   3.994   4.268
  694SOL    HW2 2111   1.736   3.862   4.361
  695SOL     OW 2112   1.225   2.469   1.077
  695SOL    HW1 2113   1.127   2.465   1.062
  695SOL    HW2 2114   1.244   2.521   1.160
  696SOL     OW 2115   0.607   3.600   4.221
  696SOL    HW1 2116   0.658   3.645   4.294
  696SOL    HW2 2117   0.557   3.522   4.258
  697SOL     OW 2118   1.903   4.580   0.878
  697SOL    HW1 2119   1.831   4.527   0.834
  697SOL    HW2 2120   1.949   4.638   0.810
  698SOL     OW 2121   0.240   3.464   1.445
  698SOL    HW1 2122   0.159   3.435   1.394
  698SOL    HW2 2123   0.321   3.421   1.406
  699SOL     OW 2124   3.725   1.627   3.099
  699SOL    HW1 2125   3.631   1.648   3.127
  699SOL    HW2 2126   3.734   1.637   3.000
  700SOL     OW 2127   3.509   1.219   2.536
  700SOL    HW1 2128   3.577   1.239   2.466
  700SOL    HW2 2129   3.489   1.121   2.537
  701SOL     OW 2130   3.932   0.234   0.219
  701SOL    HW1 2131   3.953   0.285   0.303
  701SOL    HW2 2132   3.838   0.255   0.192
  702SOL     OW 2133   0.077   3.125   2.373
  702SOL    HW1 2134   0.061   3.026   2.373
  702SOL    HW2 2135   0.173   3.144   2.353
  703SOL     OW 2136   4.565   0.300   2.537
  703SOL    HW1 2137   4.512   0.248   2.605
  703SOL    HW2 2138   4.504   0.359   2.485
  704SOL     OW 2139   0.166   0.959   3.398
  704SOL    HW1 2140   0.177   1.002   3.308
  704SOL    HW2 2141   0.217   1.012   3.466
  705SOL     OW 2142   3.677   1.060   2.753
  705SOL    HW1 2143   3.739   1.001   2.702
  705SOL    HW2 2144   3.716   1.081   2.842
  706SOL     OW 2145   3.056   3.363   3.343
  706SOL    HW1 2146   3.134   3.426   3.347
  706SOL    HW2 2147   3.083   3.278   3.299
  707SOL     OW 2148   4.348   2.963   1.360
  707SOL    HW1 2149   4.434   2.987   1.404
  707SOL    HW2 2150   4.361   2.962   1.260
  708SOL     OW 2151   3.937   4.131   4.987
  708SOL    HW1 2152   3.849   4.119   5.033
  708SOL    HW2 2153   3.950   4.058   4.920
  709SOL     OW 2154   2.808   4.823   4.727
  709SOL    HW1 2155   2.760   4.789   4.808
  709SOL    HW2 2156   2.906   4.829   4.747
  710SOL     OW 2157   2.505   4.642   1.551
  710SOL    HW1 2158   2.531   4.591   1.469
  710SOL    HW2 2159   2.536   4.737   1.543
  711SOL     OW 2160   4.912   4.787   4.280
  711SOL    HW1 2161   4.844   4.714   4.282
  711SOL    HW2 2162   4.996   4.757   4.326
  712SOL     OW 2163   1.918   3.509   4.367
  712SOL    HW1 2164   1.851   3.497   4.440
  712SOL    HW2 2165   1.881   3.570   4.297
  713SOL     OW 2166   3.497   2.033   0.982
  713SOL    HW1 2167   3.539   1.973   0.914
  713SOL    HW2 2168   3.568   2.086   1.028
  714SOL     OW 2169   4.424   1.484   0.857
  714SOL    HW1 2170   4.468   1.568   0.824
  714SOL    HW2 2171   4.474   1.449   0.936
  715SOL     OW 2172   0.417   2.821   4.859
  715SOL    HW1 2173   0.358   2.795   4.783
  715SOL    HW2 2174   0.366   2.817   4.945
  716SOL     OW 2175   0.273   4.294   1.461
  716SOL    HW1 2176   0.285   4.255   1.552
  716SOL    HW2 2177   0.209   4.238   1.408
  717SOL     OW 2178   1.376   0.104   4.000
  717SOL    HW1 2179   1.476   0.103   3.998
  717SOL    HW2 2180   1.344   0.044   4.073
  718SOL     OW 2181   4.343   0.392   2.400
  718SOL    HW1 2182   4.388   0.354   2.319
  718SOL    HW2 2183   4.335   0.491   2.391
  719SOL     OW 2184   0.381   3.325   0.762
  719SOL    HW1 2185   0.382   3.424   0.776
  719SOL    HW2 2186   0.406   3.304   0.667
  720SOL     OW 2187   2.658   2.784   3.215
  720SOL    HW1 2188   2.691   2.877   3.200
  720SOL    HW2 2189   2.600   2.756   3.139
  721SOL     OW 2190   4.842   0.781   3.358
  721SOL    HW1 2191   4.917   0.718   3.377
  721SOL    HW2 2192   4.826   0.785   3.260
  722SOL     OW 2193   4.301   2.799   1.585
  722SOL    HW1 2194   4.354   2.820   1.668
  722SOL    HW2 2195   4.324   2.866   1.514
  723SOL     OW 2196   4.188   0.424   4.091
  723SOL    HW1 2197   4.180   0.354   4.163
  723SOL    HW2 2198   4.217   0.510   4.132
  724SOL     OW 2199   1.373   2.669   3.610
  724SOL    HW1 2200   1.400   2.689   3.516
  724SOL    HW2 2201   1.449   2.690   3.671
  725SOL     OW 2202   4.367   3.463   0.902
  725SOL    HW1 2203   4.294   3.499   0.843
  725SOL    HW2 2204   4.426   3.537   0.931
  726SOL     OW 2205   0.437   2.714   3.389
  726SOL    HW1 2206   0.480   2.626   3.368
  726SOL    HW2 2207   0.461   2.741   3.483
  727SOL     OW 2208   3.477   1.431   0.063
  727SOL    HW1 2209   3.406   1.434   5.028
  727SOL    HW2 2210   3.434   1.438   0.153
  728SOL     OW 2211   2.703   2.985   3.027
  728SOL    HW1 2212   2.656   2.913   2.976
  728SOL    HW2 2213   2.694   3.072   2.978
  729SOL     OW 2214   1.144   1.572   3.969
  729SOL    HW1 2215   1.066   1.606   4.021
  729SOL    HW2 2216   1.118   1.564   3.872
  730SOL     OW 2217   2.945   2.304   2.047
  730SOL    HW1 2218   2.915   2.213   2.075
  730SOL    HW2 2219   3.044   2.304   2.034
  731SOL     OW 2220   4.626   3.118   2.357
  731SOL    HW1 2221   4.556   3.186   2.378
  731SOL    HW2 2222   4.678   3.147   2.276
  732SOL     OW 2223   1.437   1.237   2.738
  732SOL    HW1 2224   1.354   1.287   2.713
  732SOL    HW2 2225   1.448   1.239   2.837
  733SOL     OW 2226   3.076   0.283   1.197
  733SOL    HW1 2227   2.985   0.325   1.207
  733SOL    HW2 2228   3.077   0.223   1.117
  734SOL     OW 2229   1.855   3.946   0.648
  734SOL    HW1 2230   1.913   3.868   0.672
  734SOL    HW2 2231   1.834   3.998   0.730
  735SOL     OW 2232   0.924   3.146   1.232
  735SOL    HW1 2233   0.836   3.166   1.276
  735SOL    HW2 2234   0.910   3.138   1.133
  736SOL     OW 2235   2.494   0.258   3.921
  736SOL    HW1 2236   2.543   0.192   3.979
  736SOL    HW2 2237   2.513   0.350   3.953
  737SOL     OW 2238   4.584   2.360   0.894
  737SOL    HW1 2239   4.489   2.390   0.884
  737SOL    HW2 2240   4.625   2.345   0.804
  738SOL     OW 2241   0.715   4.030   2.298
  738SOL    HW1 2242   0.686   3.935   2.285
  738SOL    HW2 2243   0.706   4.080   2.212
  739SOL     OW 2244   0.556   3.504   4.643
  739SOL    HW1 2245   0.494   3.577   4.671
  739SOL    HW2 2246   0.583   3.451   4.723
  740SOL     OW 2247   0.406   3.470   0.393
  740SOL    HW1 2248   0.311   3.445   0.370
  740SOL    HW2 2249   0.436   3.416   0.471
  741SOL     OW 2250   4.629   3.657   4.583
  741SOL    HW1 2251   4.719   3.682   4.617
  741SOL    HW2 2252   4.587   3.590   4.645
  742SOL     OW 2253   0.798   1.026   3.626
  742SOL    HW1 2254   0.726   0.960   3.646
  742SOL    HW2 2255   0.875   1.013   3.689
  743SOL     OW 2256   2.831   4.442   0.234
  743SOL    HW1 2257   2.740   4.444   0.274
  743SOL    HW2 2258   2.875   4.531   0.243
  744SOL     OW 2259   3.163   0.145   4.483
  744SOL    HW1 2260   3.110   0.063   4.504
  744SOL    HW2 2261   3.176   0.151   4.384
  745SOL     OW 2262   2.462   4.670   3.726
  745SOL    HW1 2263   2.486   4.579   3.693
  745SOL    HW2 2264   2.363   4.677   3.736
  746SOL     OW 2265   4.638   0.989   3.060
  746SOL    HW1 2266   4.568   0.920   3.077
  746SOL    HW2 2267   4.704   0.990   3.135
  747SOL     OW 2268   0.532   4.734   1.515
  747SOL    HW1 2269   0.616   4.681   1.520
  747SOL    HW2 2270   0.509   4.752   1.420
  748SOL     OW 2271   3.920   0.617   4.645
  748SOL    HW1 2272   3.958   0.703   4.610
  748SOL    HW2 2273   3.907   0.625   4.744
  749SOL     OW 2274   1.672   4.863   3.530
  749SOL    HW1 2275   1.758   4.914   3.525
  749SOL    HW2 2276   1.671   4.806   3.612
  750SOL     OW 2277   3.651   4.516   3.292
  750SOL    HW1 2278   3.570   4.554   3.336
  750SOL    HW2 2279   3.729   4.578   3.304
  751SOL     OW 2280   1.511   0.580   2.470
  751SOL    HW1 2281   1.503   0.649   2.542
  751SOL    HW2 2282   1.449   0.603   2.395
  752SOL     OW 2283   1.259   0.318   2.218
  752SOL    HW1 2284   1.347   0.350   2.182
  752SOL    HW2 2285   1.200   0.397   2.234
  753SOL     OW 2286   0.394   0.388   1.158
  753SOL    HW1 2287   0.414   0.486   1.165
  753SOL    HW2 2288   0.468   0.335   1.198
  754SOL     OW 2289   4.880   3.949   0.173
  754SOL    HW1 2290   4.886   3.928   0.076
  754SOL    HW2 2291   4.962   4.000   0.202
  755SOL     OW 2292   4.330   0.207   4.802
  755SOL    HW1 2293   4.426   0.182   4.787
  755SOL    HW2 2294   4.278   0.125   4.826
  756SOL     OW 2295   1.223   4.426   2.872
  756SOL    HW1 2296   1.298   4.363   2.852
  756SOL    HW2 2297   1.192   4.469   2.787
  757SOL     OW 2298   3.032   0.944   0.771
  757SOL    HW1 2299   2.993   0.966   0.860
  757SOL    HW2 2300   3.040   1.028   0.717
  758SOL     OW 2301   0.638   3.565   3.231
  758SOL    HW1 2302   0.666   3.524   3.145
  758SOL    HW2 2303   0.587   3.497   3.285
  759SOL     OW 2304   2.567   1.397   1.780
  759SOL    HW1 2305   2.633   1.462   1.817
  759SOL    HW2 2306   2.608   1.306   1.776
  760SOL     OW 2307   0.882   3.573   3.391
  760SOL    HW1 2308   0.816   3.498   3.391
  760SOL    HW2 2309   0.928   3.578   3.303
  761SOL     OW 2310   1.178   0.935   3.989
  761SOL    HW1 2311   1.177   0.962   4.086
  761SOL    HW2 2312   1.223   0.846   3.980
  762SOL     OW 2313   4.868   3.339   3.213
  762SOL    HW1 2314   4.808   3.261   3.197
  762SOL    HW2 2315   4.823   3.404   3.274
  763SOL     OW 2316   4.408   0.333   3.938
  763SOL    HW1 2317   4.326   0.345   3.993
  763SOL    HW2 2318   4.479   0.289   3.993
  764SOL     OW 2319   0.766   3.931   4.755
  764SOL    HW1 2320   0.755   4.006   4.690
  764SOL    HW2 2321   0.697   3.939   4.826
  765SOL     OW 2322   3.990   1.340   3.041
  765SOL    HW1 2323   4.006   1.434   3.071
  765SOL    HW2 2324   3.892   1.321   3.042
  766SOL     OW 2325   1.879   4.316   3.553
  766SOL    HW1 2326   1.937   4.381   3.504
  766SOL    HW2 2327   1.820   4.268   3.487
  767SOL     OW 2328   2.909   3.650   3.118
  767SOL    HW1 2329   2.980   3.711   3.084
  767SOL    HW2 2330   2.948   3.558   3.132
  768SOL     OW 2331   1.246   3.180   2.811
  768SOL    HW1 2332   1.189   3.228   2.878
  768SOL    HW2 2333   1.337   3.164   2.849
  769SOL     OW 2334   0.080   1.873   3.262
  769SOL    HW1 2335   0.059   1.815   3.341
  769SOL    HW2 2336   0.094   1.816   3.182
  770SOL     OW 2337   3.702   4.192   0.126
  770SOL    HW1 2338   3.711   4.260   0.054
  770SOL    HW2 2339   3.695   4.238   0.215
  771SOL     OW 2340   1.972   0.089   5.007
  771SOL    HW1 2341   1.970   0.146   4.924
  771SOL    HW2 2342   1.900   0.119   0.034
  772SOL     OW 2343   4.256   2.108   0.627
  772SOL    HW1 2344   4.320   2.073   0.694
  772SOL    HW2 2345   4.303   2.171   0.565
  773SOL     OW 2346   2.905   0.491   1.055
  773SOL    HW1 2347   2.843   0.460   0.983
  773SOL    HW2 2348   2.971   0.555   1.016
  774SOL     OW 2349   2.078   1.332   2.329
  774SOL    HW1 2350   2.133   1.249   2.328
  774SOL    HW2 2351   2.085   1.376   2.418
  775SOL     OW 2352   1.144   3.105   4.893
  775SOL    HW1 2353   1.115   3.201   4.894
  775SOL    HW2 2354   1.128   3.065   4.983
  776SOL     OW 2355   1.856   4.227   3.998
  776SOL    HW1 2356   1.815   4.158   3.939
  776SOL    HW2 2357   1.824   4.318   3.970
  777SOL     OW 2358   2.762   0.634   3.428
  777SOL    HW1 2359   2.849   0.584   3.429
  777SOL    HW2 2360   2.763   0.705   3.498
  778SOL     OW 2361   2.300   4.699   3.445
  778SOL    HW1 2362   2.283   4.747   3.359
  778SOL    HW2 2363   2.384   4.646   3.438
  779SOL     OW 2364   2.760   4.665   0.795
  779SOL    HW1 2365   2.779   4.572   0.825
  779SOL    HW2 2366   2.770   4.671   0.695
  780SOL     OW 2367   0.058   3.120   1.138
  780SOL    HW1 2368   0.144   3.158   1.104
  780SOL    HW2 2369   0.008   3.077   1.062
  781SOL     OW 2370   4.675   0.881   4.234
  781SOL    HW1 2371   4.660   0.817   4.309
  781SOL    HW2 2372   4.722   0.962   4.268
  782SOL     OW 2373   4.081   4.368   4.240
  782SOL    HW1 2374   4.047   4.423   4.164
  782SOL    HW2 2375   4.015   4.295   4.260
  783SOL     OW 2376   1.662   1.112   3.871
  783SOL    HW1 2377   1.580   1.079   3.824
  783SOL    HW2 2378   1.652   1.098   3.969
  784SOL     OW 2379   2.075   3.982   0.387
  784SOL    HW1 2380   2.001   3.918   0.365
  784SOL    HW2 2381   2.036   4.064   0.428
  785SOL     OW 2382   2.711   0.160   3.539
  785SOL    HW1 2383   2.721   0.089   3.609
  785SOL    HW2 2384   2.620   0.201   3.546
  786SOL     OW 2385   4.094   3.370   0.342
  786SOL    HW1 2386   4.007   3.358   0.391
  786SOL    HW2 2387   4.163   3.310   0.382
  787SOL     OW 2388   2.495   0.919   0.316
  787SOL    HW1 2389   2.411   0.973   0.327
  787SOL    HW2 2390   2.572   0.981   0.298
  788SOL     OW 2391   4.955   0.437   0.506
  788SOL    HW1 2392   5.005   0.506   0.454
  788SOL    HW2 2393   4.858   0.442   0.482
  789SOL     OW 2394   0.764   2.763   0.303
  789SOL    HW1 2395   0.728   2.748   0.395
  789SOL    HW2 2396   0.864   2.762   0.306
  790SOL     OW 2397   0.146   1.696   2.788
  790SOL    HW1 2398   0.061   1.662   2.748
  790SOL    HW2 2399   0.218   1.698   2.718
  791SOL     OW 2400   2.881   2.174   3.000
  791SOL    HW1 2401   2.796   2.188   2.948
  791SOL    HW2 2402   2.883   2.237   3.077
  792SOL     OW 2403   3.152   2.040   0.608
  792SOL    HW1 2404   3.202   1.967   0.655
  792SOL    HW2 2405   3.086   1.999   0.545
  793SOL     OW 2406   1.339   2.251   1.325
  793SOL    HW1 2407   1.411   2.308   1.366
  793SOL    HW2 2408   1.375   2.203   1.246
  794SOL     OW 2409   4.148   4.151   0.413
  794SOL    HW1 2410   4.165   4.123   0.319
  794SOL    HW2 2411   4.191   4.239   0.431
  795SOL     OW 2412   1.147   2.057   1.445
  795SOL    HW1 2413   1.237   2.048   1.403
  795SOL    HW2 2414   1.122   1.971   1.489
  796SOL     OW 2415   1.234   2.389   3.512
  796SOL    HW1 2416   1.164   2.321   3.489
  796SOL    HW2 2417   1.199   2.450   3.583
  797SOL     OW 2418   1.941   0.614   3.950
  797SOL    HW1 2419   1.930   0.522   3.987
  797SOL    HW2 2420   2.036   0.627   3.922
  798SOL     OW 2421   0.246   3.014   1.897
  798SOL    HW1 2422   0.161   3.057   1.927
  798SOL    HW2 2423   0.249   3.010   1.797
  799SOL     OW 2424   2.527   2.697   3.905
  799SOL    HW1 2425   2.462   2.726   3.834
  799SOL    HW2 2426   2.495   2.727   3.994
  800SOL     OW 2427   4.359   2.852   4.042
  800SOL    HW1 2428   4.418   2.790   3.990
  800SOL    HW2 2429   4.400   2.943   4.045
  801SOL     OW 2430   0.436   1.707   0.506
  801SOL    HW1 2431   0.441   1.801   0.542
  801SOL    HW2 2432   0.523   1.683   0.463
  802SOL     OW 2433   2.606   0.039   0.929
  802SOL    HW1 2434   2.556   5.022   0.999
  802SOL    HW2 2435   2.690   0.077   0.969
  803SOL     OW 2436   0.611   4.329   3.929
  803SOL    HW1 2437   0.635   4.384   4.009
  803SOL    HW2 2438   0.693   4.311   3.875
  804SOL     OW 2439   4.284   3.821   3.460
  804SOL    HW1 2440   4.232   3.737   3.470
  804SOL    HW2 2441   4.233   3.884   3.400
  805SOL     OW 2442   3.857   1.240   0.753
  805SOL    HW1 2443   3.871   1.141   0.750
  805SOL    HW2 2444   3.765   1.260   0.788
  806SOL     OW 2445   1.035   4.442   0.030
  806SOL    HW1 2446   1.101   4.371   0.006
  806SOL    HW2 2447   1.052   4.473   0.124
  807SOL     OW 2448   0.549   0.600   2.451
  807SOL    HW1 2449   0.593   0.631   2.535
  807SOL    HW2 2450   0.449   0.600   2.464
  808SOL     OW 2451   2.900   1.795   2.528
  808SOL    HW1 2452   2.864   1.715   2.479
  808SOL    HW2 2453   2.885   1.783   2.627
  809SOL     OW 2454   3.460   3.863   3.440
  809SOL    HW1 2455   3.533   3.798   3.461
  809SOL    HW2 2456   3.431   3.908   3.524
  810SOL     OW 2457   2.261   1.393   0.167
  810SOL    HW1 2458   2.244   1.491   0.162
  810SOL    HW2 2459   2.274   1.356   0.075
  811SOL     OW 2460   4.088   1.439   0.794
  811SOL    HW1 2461   4.077   1.347   0.758
  811SOL    HW2 2462   4.070   1.439   0.893
  812SOL     OW 2463   3.745   3.186   1.477
  812SOL    HW1 2464   3.701   3.276   1.470
  812SOL    HW2 2465   3.771   3.154   1.386
  813SOL     OW 2466   2.996   1.002   3.778
  813SOL    HW1 2467   3.005   0.977   3.682
  813SOL    HW2 2468   3.073   0.965   3.830
  814SOL     OW 2469   1.382   3.007   3.537
  814SOL    HW1 2470   1.349   2.949   3.612
  814SOL    HW2 2471   1.352   2.969   3.450
  815SOL     OW 2472   2.541   3.087   4.921
  815SOL    HW1 2473   2.475   3.141   4.973
  815SOL    HW2 2474   2.519   2.990   4.928
  816SOL     OW 2475   1.576   3.496   1.395
  816SOL    HW1 2476   1.658   3.547   1.423
  816SOL    HW2 2477   1.567   3.501   1.296
  817SOL     OW 2478   2.603   3.246   1.707
  817SOL    HW1 2479   2.692   3.201   1.698
  817SOL    HW2 2480   2.543   3.215   1.633
  818SOL     OW 2481   3.946   0.651   2.734
  818SOL    HW1 2482   3.849   0.625   2.727
  818SOL    HW2 2483   3.958   0.712   2.813
  819SOL     OW 2484   4.833   1.700   2.600
  819SOL    HW1 2485   4.906   1.631   2.599
  819SOL    HW2 2486   4.760   1.670   2.662
  820SOL     OW 2487   3.564   2.733   3.108
  820SOL    HW1 2488   3.564   2.754   3.206
  820SOL    HW2 2489   3.595   2.639   3.094
  821SOL     OW 2490   0.408   0.730   1.257
  821SOL    HW1 2491   0.380   0.804   1.196
  821SOL    HW2 2492   0.433   0.767   1.346
  822SOL     OW 2493   3.799   3.219   3.846
  822SOL    HW1 2494   3.843   3.170   3.771
  822SOL    HW2 2495   3.787   3.315   3.822
  823SOL     OW 2496   1.399   4.877   3.289
  823SOL    HW1 2497   1.483   4.896   3.237
  823SOL    HW2 2498   1.409   4.791   3.339
  824SOL     OW 2499   4.427   0.642   2.342
  824SOL    HW1 2500   4.526   0.647   2.325
  824SOL    HW2 2501   4.406   0.681   2.431
  825SOL     OW 2502   1.918   1.142   2.578
  825SOL    HW1 2503   1.886   1.064   2.632
  825SOL    HW2 2504   2.018   1.144   2.577
  826SOL     OW 2505   3.264   3.692   3.090
  826SOL    HW1 2506   3.224   3.602   3.071
  826SOL    HW2 2507   3.251   3.752   3.011
  827SOL     OW 2508   2.109   3.678   4.469
  827SOL    HW1 2509   2.081   3.761   4.420
  827SOL    HW2 2510   2.045   3.604   4.447
  828SOL     OW 2511   4.314   4.782   3.754
  828SOL    HW1 2512   4.301   4.801   3.852
  828SOL    HW2 2513   4.375   4.851   3.715
  829SOL     OW 2514   2.895   0.427   0.240
  829SOL    HW1 2515   2.957   0.402   0.314
  829SOL    HW2 2516   2.850   0.514   0.263
  830SOL     OW 2517   1.109   2.511   3.283
  830SOL    HW1 2518   1.179   2.460   3.335
  830SOL    HW2 2519   1.150   2.547   3.200
  831SOL     OW 2520   3.221   3.850   3.984
  831SOL    HW1 2521   3.165   3.933   3.984
  831SOL    HW2 2522   3.277   3.848   4.068
  832SOL     OW 2523   2.031   2.292   0.957
  832SOL    HW1 2524   2.072   2.269   1.046
  832SOL    HW2 2525   2.032   2.391   0.946
  833SOL     OW 2526   3.369   2.423   2.059
  833SOL    HW1 2527   3.446   2.406   1.998
  833SOL    HW2 2528   3.368   2.353   2.131
  834SOL     OW 2529   4.136   1.101   4.966
  834SOL    HW1 2530   4.211   1.109   4.901
  834SOL    HW2 2531   4.090   1.189   4.975
  835SOL     OW 2532   3.223   4.156   3.773
  835SOL    HW1 2533   3.229   4.187   3.868
  835SOL    HW2 2534   3.133   4.179   3.736
  836SOL     OW 2535   0.387   1.893   1.821
  836SOL    HW1 2536   0.460   1.836   1.859
  836SOL    HW2 2537   0.299   1.864   1.858
  837SOL     OW 2538   0.932   1.367   4.806
  837SOL    HW1 2539   0.890   1.284   4.770
  837SOL    HW2 2540   0.933   1.438   4.735
  838SOL     OW 2541   0.397   1.953   0.624
  838SOL    HW1 2542   0.390   1.989   0.717
  838SOL    HW2 2543   0.336   2.004   0.564
  839SOL     OW 2544   3.350   3.911   0.671
  839SOL    HW1 2545   3.370   3.970   0.594
  839SOL    HW2 2546   3.407   3.938   0.749
  840SOL     OW 2547   2.116   3.501   1.484
  840SOL    HW1 2548   2.208   3.471   1.508
  840SOL    HW2 2549   2.088   3.576   1.544
  841SOL     OW 2550   3.180   3.744   0.974
  841SOL    HW1 2551   3.144   3.680   1.043
  841SOL    HW2 2552   3.220   3.691   0.899
  842SOL     OW 2553   2.338   3.093   0.938
  842SOL    HW1 2554   2.427   3.067   0.900
  842SOL    HW2 2555   2.336   3.071   1.035
  843SOL     OW 2556   1.940   2.848   3.472
  843SOL    HW1 2557   1.880   2.835   3.551
  843SOL    HW2 2558   2.035   2.833   3.499
  844SOL     OW 2559   3.202   0.056   3.617
  844SOL    HW1 2560   3.169   0.148   3.641
  844SOL    HW2 2561   3.191   0.042   3.519
  845SOL     OW 2562   2.505   3.445   2.852
  845SOL    HW1 2563   2.579   3.385   2.884
  845SOL    HW2 2564   2.443   3.465   2.927
  846SOL     OW 2565   4.908   1.041   1.669
  846SOL    HW1 2566   4.866   0.990   1.744
  846SOL    HW2 2567   4.920   0.981   1.590
  847SOL     OW 2568   4.634   0.176   3.244
  847SOL    HW1 2569   4.593   0.191   3.154
  847SOL    HW2 2570   4.569   0.206   3.315
  848SOL     OW 2571   0.185   2.343   4.734
  848SOL    HW1 2572   0.253   2.294   4.679
  848SOL    HW2 2573   0.188   2.309   4.828
  849SOL     OW 2574   2.080   0.178   2.482
  849SOL    HW1 2575   2.115   0.159   2.574
  849SOL    HW2 2576   1.992   0.132   2.470
  850SOL     OW 2577   4.849   4.934   3.047
  850SOL    HW1 2578   4.812   4.914   2.957
  850SOL    HW2 2579   4.885   4.850   3.088
  851SOL     OW 2580   4.848   4.017   3.535
  851SOL    HW1 2581   4.785   4.081   3.492
  851SOL    HW2 2582   4.815   3.992   3.626
  852SOL     OW 2583   1.954   1.356   0.304
  852SOL    HW1 2584   1.872   1.412   0.312
  852SOL    HW2 2585   2.020   1.402   0.245
  853SOL     OW 2586   2.234   3.513   2.742
  853SOL    HW1 2587   2.326   3.501   2.780
  853SOL    HW2 2588   2.211   3.611   2.741
  854SOL     OW 2589   1.479   2.076   2.528
  854SOL    HW1 2590   1.574   2.043   2.531
  854SOL    HW2 2591   1.472   2.160   2.581
  855SOL     OW 2592   1.403   2.213   1.645
  855SOL    HW1 2593   1.450   2.301   1.643
  855SOL    HW2 2594   1.304   2.228   1.656
  856SOL     OW 2595   4.315   4.670   4.251
  856SOL    HW1 2596   4.225   4.698   4.282
  856SOL    HW2 2597   4.385   4.724   4.298
  857SOL     OW 2598   2.661   0.443   4.947
  857SOL    HW1 2599   2.624   0.437   4.854
  857SOL    HW2 2600   2.596   0.492   5.005
  858SOL     OW 2601   3.420   1.977   3.062
  858SOL    HW1 2602   3.368   1.901   3.024
  858SOL    HW2 2603   3.463   2.029   2.988
  859SOL     OW 2604   0.558   4.837   2.260
  859SOL    HW1 2605   0.497   4.764   2.230
  859SOL    HW2 2606   0.538   4.920   2.208
  860SOL     OW 2607   2.829   4.070   3.142
  860SOL    HW1 2608   2.812   3.988   3.197
  860SOL    HW2 2609   2.921   4.066   3.103
  861SOL     OW 2610   3.727   1.288   1.833
  861SOL    HW1 2611   3.642   1.324   1.871
  861SOL    HW2 2612   3.772   1.359   1.778
  862SOL     OW 2613   2.666   3.228   4.043
  862SOL    HW1 2614   2.695   3.171   3.966
  862SOL    HW2 2615   2.628   3.169   4.115
  863SOL     OW 2616   2.001   1.611   0.089
  863SOL    HW1 2617   2.037   1.701   0.062
  863SOL    HW2 2618   1.901   1.615   0.089
  864SOL     OW 2619   3.166   1.889   3.516
  864SOL    HW1 2620   3.134   1.846   3.432
  864SOL    HW2 2621   3.109   1.859   3.592
  865SOL     OW 2622   1.228   4.914   3.010
  865SOL    HW1 2623   1.319   4.954   3.022
  865SOL    HW2 2624   1.209   4.851   3.084
  866SOL     OW 2625   0.914   2.597   0.536
  866SOL    HW1 2626   0.947   2.547   0.456
  866SOL    HW2 2627   0.866   2.534   0.597
  867SOL     OW 2628   3.408   0.253   2.307
  867SOL    HW1 2629   3.505   0.233   2.322
  867SOL    HW2 2630   3.354   0.220   2.385
  868SOL     OW 2631   2.578   1.180   4.455
  868SOL    HW1 2632   2.613   1.125   4.530
  868SOL    HW2 2633   2.648   1.185   4.383
  869SOL     OW 2634   2.682   1.725   4.157
  869SOL    HW1 2635   2.749   1.653   4.139
  869SOL    HW2 2636   2.730   1.810   4.178
  870SOL     OW 2637   0.168   4.893   0.537
  870SOL    HW1 2638   0.157   4.928   0.631
  870SOL    HW2 2639   0.189   4.970   0.476
  871SOL     OW 2640   4.789   5.005   4.844
  871SOL    HW1 2641   4.869   4.996   4.904
  871SOL    HW2 2642   4.818   5.022   4.751
  872SOL     OW 2643   3.930   3.585   4.726
  872SOL    HW1 2644   4.025   3.605   4.752
  872SOL    HW2 2645   3.870   3.656   4.763
  873SOL     OW 2646   3.836   1.764   3.326
  873SOL    HW1 2647   3.737   1.750   3.326
  873SOL    HW2 2648   3.867   1.786   3.419
  874SOL     OW 2649   3.629   4.890   2.579
  874SOL    HW1 2650   3.560   4.889   2.507
  874SOL    HW2 2651   3.590   4.929   2.662
  875SOL     OW 2652   3.782   3.953   2.322
  875SOL    HW1 2653   3.861   4.006   2.352
  875SOL    HW2 2654   3.754   3.889   2.394
  876SOL     OW 2655   1.921   1.550   4.732
  876SOL    HW1 2656   1.952   1.499   4.651
  876SOL    HW2 2657   1.871   1.631   4.702
  877SOL     OW 2658   1.931   3.328   4.153
  877SOL    HW1 2659   1.944   3.421   4.121
  877SOL    HW2 2660   1.911   3.329   4.251
  878SOL     OW 2661   0.625   3.293   0.273
  878SOL    HW1 2662   0.585   3.334   0.355
  878SOL    HW2 2663   0.711   3.247   0.297
  879SOL     OW 2664   2.733   3.698   3.991
  879SOL    HW1 2665   2.749   3.628   3.921
  879SOL    HW2 2666   2.816   3.711   4.044
  880SOL     OW 2667   0.622   3.619   0.423
  880SOL    HW1 2668   0.618   3.672   0.508
  880SOL    HW2 2669   0.537   3.568   0.411
  881SOL     OW 2670   0.709   1.789   2.579
  881SOL    HW1 2671   0.712   1.809   2.677
  881SOL    HW2 2672   0.798   1.810   2.538
  882SOL     OW 2673   4.957   1.778   1.671
  882SOL    HW1 2674   4.927   1.684   1.688
  882SOL    HW2 2675   5.015   1.782   1.590
  883SOL     OW 2676   0.505   1.798   3.450
  883SOL    HW1 2677   0.450   1.867   3.403
  883SOL    HW2 2678   0.536   1.835   3.538
  884SOL     OW 2679   3.274   0.602   2.906
  884SOL    HW1 2680   3.341   0.588   2.979
  884SOL    HW2 2681   3.191   0.549   2.926
  885SOL     OW 2682   1.272   0.572   1.958
  885SOL    HW1 2683   1.235   0.492   1.911
  885SOL    HW2 2684   1.305   0.638   1.890
  886SOL     OW 2685   1.481   0.764   2.967
  886SOL    HW1 2686   1.494   0.788   3.063
  886SOL    HW2 2687   1.386   0.737   2.951
  887SOL     OW 2688   4.401   4.546   0.621
  887SOL    HW1 2689   4.451   4.620   0.666
  887SOL    HW2 2690   4.455   4.511   0.545
  888SOL     OW 2691   0.565   0.078   3.244
  888SOL    HW1 2692   0.633   0.115   3.180
  888SOL    HW2 2693   0.605   0.073   3.336
  889SOL     OW 2694   1.900   3.822   2.046
  889SOL    HW1 2695   1.943   3.888   2.108
  889SOL    HW2 2696   1.804   3.847   2.033
  890SOL     OW 2697   4.335   0.935   3.070
  890SOL    HW1 2698   4.258   0.894   3.119
  890SOL    HW2 2699   4.370   0.870   3.003
  891SOL     OW 2700   1.141   1.664   0.366
  891SOL    HW1 2701   1.051   1.708   0.378
  891SOL    HW2 2702   1.129   1.575   0.323
  892SOL     OW 2703   3.005   3.475   2.669
  892SOL    HW1 2704   2.959   3.561   2.692
  892SOL    HW2 2705   2.976   3.445   2.578
  893SOL     OW 2706   3.310   0.165   0.348
  893SOL    HW1 2707   3.289   0.229   0.274
  893SOL    HW2 2708   3.230   0.153   0.406
  894SOL     OW 2709   1.050   2.191   3.026
  894SOL    HW1 2710   1.057   2.244   3.111
  894SOL    HW2 2711   0.960   2.207   2.985
  895SOL     OW 2712   0.467   0.639   1.718
  895SOL    HW1 2713   0.396   0.603   1.779
  895SOL    HW2 2714   0.529   0.697   1.770
  896SOL     OW 2715   4.143   0.686   1.484
  896SOL    HW1 2716   4.127   0.589   1.469
  896SOL    HW2 2717   4.055   0.734   1.487
  897SOL     OW 2718   0.273   3.100   1.349
  897SOL    HW1 2719   0.183   3.140   1.334
  897SOL    HW2 2720   0.276   3.007   1.311
  898SOL     OW 2721   3.663   2.239   1.151
  898SOL    HW1 2722   3.676   2.229   1.250
  898SOL    HW2 2723   3.646   2.334   1.128
  899SOL     OW 2724   4.825   2.132   0.073
  899SOL    HW1 2725   4.908   2.121   0.018
  899SOL    HW2 2726   4.834   2.080   0.158
  900SOL     OW 2727   2.635   1.424   3.655
  900SOL    HW1 2728   2.552   1.382   3.616
  900SOL    HW2 2729   2.714   1.368   3.630
  901SOL     OW 2730   4.056   3.535   3.579
  901SOL    HW1 2731   3.988   3.504   3.513
  901SOL    HW2 2732   4.148   3.518   3.544
  902SOL     OW 2733   2.852   3.096   0.210
  902SOL    HW1 2734   2.799   3.012   0.202
  902SOL    HW2 2735   2.906   3.094   0.294
  903SOL     OW 2736   0.013   3.457   2.992
  903SOL    HW1 2737   5.008   3.403   3.066
  903SOL    HW2 2738   5.023   3.416   2.904
  904SOL     OW 2739   4.426   3.013   2.966
  904SOL    HW1 2740   4.389   2.933   3.013
  904SOL    HW2 2741   4.525   3.004   2.959
  905SOL     OW 2742   3.971   2.928   0.331
  905SOL    HW1 2743   4.063   2.918   0.293
  905SOL    HW2 2744   3.910   2.965   0.261
  906SOL     OW 2745   4.059   2.989   3.405
  906SOL    HW1 2746   3.970   3.011   3.446
  906SOL    HW2 2747   4.125   2.971   3.478
  907SOL     OW 2748   2.274   2.735   2.930
  907SOL    HW1 2749   2.250   2.781   3.016
  907SOL    HW2 2750   2.284   2.803   2.858
  908SOL     OW 2751   4.494   4.084   3.633
  908SOL    HW1 2752   4.564   4.052   3.570
  908SOL    HW2 2753   4.414   4.113   3.581
  909SOL     OW 2754   1.220   4.483   4.169
  909SOL    HW1 2755   1.237   4.481   4.268
  909SOL    HW2 2756   1.272   4.558   4.129
  910SOL     OW 2757   0.488   4.864   3.750
  910SOL    HW1 2758   0.481   4.930   3.824
  910SOL    HW2 2759   0.437   4.896   3.670
  911SOL     OW 2760   0.994   4.700   4.996
  911SOL    HW1 2761   1.084   4.706   4.954
  911SOL    HW2 2762   0.979   4.607   5.029
  912SOL     OW 2763   1.696   0.811   2.090
  912SOL    HW1 2764   1.607   0.786   2.052
  912SOL    HW2 2765   1.717   0.905   2.064
  913SOL     OW 2766   2.487   3.214   3.118
  913SOL    HW1 2767   2.469   3.178   3.026
  913SOL    HW2 2768   2.563   3.279   3.114
  914SOL     OW 2769   2.036   0.337   3.965
  914SOL    HW1 2770   1.955   0.279   3.982
  914SOL    HW2 2771   2.090   0.343   4.048
  915SOL     OW 2772   3.646   0.960   4.992
  915SOL    HW1 2773   3.581   0.906   0.011
  915SOL    HW2 2774   3.632   1.057   5.010
  916SOL     OW 2775   2.850   1.812   0.234
  916SOL    HW1 2776   2.836   1.720   0.197
  916SOL    HW2 2777   2.813   1.880   0.170
  917SOL     OW 2778   4.704   4.412   2.888
  917SOL    HW1 2779   4.796   4.405   2.926
  917SOL    HW2 2780   4.707   4.399   2.789
  918SOL     OW 2781   2.296   1.261   1.949
  918SOL    HW1 2782   2.378   1.222   1.991
  918SOL    HW2 2783   2.323   1.324   1.875
  919SOL     OW 2784   2.625   0.810   3.608
  919SOL    HW1 2785   2.556   0.831   3.538
  919SOL    HW2 2786   2.587   0.743   3.672
  920SOL     OW 2787   0.979   1.657   2.439
  920SOL    HW1 2788   1.029   1.570   2.435
  920SOL    HW2 2789   1.022   1.717   2.507
  921SOL     OW 2790   0.006   3.117   0.473
  921SOL    HW1 2791   0.086   3.135   0.416
  921SOL    HW2 2792   0.034   3.066   0.555
  922SOL     OW 2793   4.395   1.221   1.620
  922SOL    HW1 2794   4.409   1.216   1.522
  922SOL    HW2 2795   4.474   1.181   1.667
  923SOL     OW 2796   3.524   0.209   4.462
  923SOL    HW1 2797   3.475   0.290   4.432
  923SOL    HW2 2798   3.460   0.142   4.499
  924SOL     OW 2799   3.945   4.470   2.752
  924SOL    HW1 2800   4.027   4.486   2.697
  924SOL    HW2 2801   3.900   4.557   2.771
  925SOL     OW 2802   5.011   3.144   4.086
  925SOL    HW1 2803   0.009   3.068   4.031
  925SOL    HW2 2804   5.016   3.119   4.183
  926SOL     OW 2805   4.199   2.887   3.646
  926SOL    HW1 2806   4.284   2.928   3.678
  926SOL    HW2 2807   4.212   2.788   3.634
  927SOL     OW 2808   0.048   2.367   1.067
  927SOL    HW1 2809   5.017   2.292   1.076
  927SOL    HW2 2810   0.000   2.454   1.074
  928SOL     OW 2811   4.635   4.949   4.325
  928SOL    HW1 2812   4.705   4.911   4.265
  928SOL    HW2 2813   4.600   4.877   4.386
  929SOL     OW 2814   3.155   1.960   4.240
  929SOL    HW1 2815   3.129   1.866   4.217
  929SOL    HW2 2816   3.107   2.024   4.179
  930SOL     OW 2817   0.749   1.317   3.271
  930SOL    HW1 2818   0.715   1.377   3.344
  930SOL    HW2 2819   0.779   1.373   3.194
  931SOL     OW 2820   1.364   3.882   4.399
  931SOL    HW1 2821   1.264   3.881   4.389
  931SOL    HW2 2822   1.405   3.823   4.330
  932SOL     OW 2823   1.729   1.183   4.969
  932SOL    HW1 2824   1.659   1.172   4.899
  932SOL    HW2 2825   1.792   1.105   4.966
  933SOL     OW 2826   4.558   4.624   2.576
  933SOL    HW1 2827   4.616   4.695   2.538
  933SOL    HW2 2828   4.514   4.658   2.659
  934SOL     OW 2829   0.892   2.259   3.250
  934SOL    HW1 2830   0.938   2.170   3.244
  934SOL    HW2 2831   0.876   2.281   3.346
  935SOL     OW 2832   2.235   2.065   2.926
  935SOL    HW1 2833   2.203   1.970   2.923
  935SOL    HW2 2834   2.218   2.103   3.017
  936SOL     OW 2835   0.805   4.717   4.596
  936SOL    HW1 2836   0.903   4.719   4.574
  936SOL    HW2 2837   0.791   4.749   4.689
  937SOL     OW 2838   1.078   3.766   0.436
  937SOL    HW1 2839   1.039   3.853   0.408
  937SOL    HW2 2840   1.047   3.744   0.529
  938SOL     OW 2841   1.336   3.055   0.701
  938SOL    HW1 2842   1.399   2.988   0.661
  938SOL    HW2 2843   1.385   3.111   0.767
  939SOL     OW 2844   2.773   3.392   1.940
  939SOL    HW1 2845   2.855   3.364   1.890
  939SOL    HW2 2846   2.704   3.319   1.935
  940SOL     OW 2847   4.821   2.041   3.809
  940SOL    HW1 2848   4.727   2.070   3.792
  940SOL    HW2 2849   4.823   1.975   3.883
  941SOL     OW 2850   0.965   3.783   1.197
  941SOL    HW1 2851   1.006   3.700   1.159
  941SOL    HW2 2852   0.991   3.792   1.293
  942SOL     OW 2853   2.119   4.356   4.452
  942SOL    HW1 2854   2.213   4.336   4.479
  942SOL    HW2 2855   2.061   4.359   4.534
  943SOL     OW 2856   3.965   3.707   0.105
  943SOL    HW1 2857   3.974   3.608   0.106
  943SOL    HW2 2858   3.988   3.743   0.196
  944SOL     OW 2859   2.622   1.217   4.171
  944SOL    HW1 2860   2.535   1.196   4.216
  944SOL    HW2 2861   2.607   1.279   4.095
  945SOL     OW 2862   3.981   4.543   4.052
  945SOL    HW1 2863   3.949   4.590   3.970
  945SOL    HW2 2864   3.984   4.608   4.128
  946SOL     OW 2865   0.667   1.987   3.621
  946SOL    HW1 2866   0.579   2.027   3.596
  946SOL    HW2 2867   0.691   2.015   3.714
  947SOL     OW 2868   0.556   3.480   2.959
  947SOL    HW1 2869   0.471   3.433   2.985
  947SOL    HW2 2870   0.568   3.474   2.860
  948SOL     OW 2871   2.597   2.502   4.357
  948SOL    HW1 2872   2.508   2.477   4.396
  948SOL    HW2 2873   2.616   2.445   4.278
  949SOL     OW 2874   1.218   2.883   4.745
  949SOL    HW1 2875   1.188   2.950   4.813
  949SOL    HW2 2876   1.149   2.877   4.672
  950SOL     OW 2877   3.984   4.129   2.367
  950SOL    HW1 2878   3.947   4.222   2.368
  950SOL    HW2 2879   4.063   4.124   2.428
  951SOL     OW 2880   2.454   4.311   3.976
  951SOL    HW1 2881   2.500   4.300   3.888
  951SOL    HW2 2882   2.418   4.222   4.006
  952SOL     OW 2883   0.939   4.548   2.994
  952SOL    HW1 2884   1.036   4.522   2.999
  952SOL    HW2 2885   0.895   4.528   3.082
  953SOL     OW 2886   2.123   0.785   1.231
  953SOL    HW1 2887   2.203   0.782   1.290
  953SOL    HW2 2888   2.108   0.879   1.200
  954SOL     OW 2889   3.513   1.966   0.486
  954SOL    HW1 2890   3.481   1.874   0.466
  954SOL    HW2 2891   3.468   1.999   0.570
  955SOL     OW 2892   2.626   3.182   0.712
  955SOL    HW1 2893   2.585   3.101   0.670
  955SOL    HW2 2894   2.556   3.251   0.728
  956SOL     OW 2895   1.225   4.435   0.994
  956SOL    HW1 2896   1.228   4.479   1.084
  956SOL    HW2 2897   1.132   4.407   0.973
  957SOL     OW 2898   3.713   1.341   3.085
  957SOL    HW1 2899   3.727   1.419   3.146
  957SOL    HW2 2900   3.670   1.372   3.001
  958SOL     OW 2901   4.857   3.879   2.260
  958SOL    HW1 2902   4.868   3.939   2.181
  958SOL    HW2 2903   4.763   3.886   2.294
  959SOL     OW 2904   4.200   4.227   3.703
  959SOL    HW1 2905   4.243   4.267   3.622
  959SOL    HW2 2906   4.215   4.287   3.781
  960SOL     OW 2907   3.619   5.010   1.455
  960SOL    HW1 2908   3.701   0.027   1.480
  960SOL    HW2 2909   3.642   4.914   1.441
  961SOL     OW 2910   0.820   3.037   2.571
  961SOL    HW1 2911   0.826   2.945   2.611
  961SOL    HW2 2912   0.877   3.100   2.625
  962SOL     OW 2913   1.236   0.092   2.605
  962SOL    HW1 2914   1.224   0.004   2.651
  962SOL    HW2 2915   1.253   0.076   2.508
  963SOL     OW 2916   1.677   0.591   0.924
  963SOL    HW1 2917   1.639   0.501   0.942
  963SOL    HW2 2918   1.693   0.639   1.010
  964SOL     OW 2919   2.488   1.674   4.735
  964SOL    HW1 2920   2.433   1.667   4.819
  964SOL    HW2 2921   2.428   1.700   4.659
  965SOL     OW 2922   4.857   4.728   0.239
  965SOL    HW1 2923   4.955   4.748   0.234
  965SOL    HW2 2924   4.806   4.793   0.184
  966SOL     OW 2925   3.124   2.575   0.072
  966SOL    HW1 2926   3.205   2.613   0.027
  966SOL    HW2 2927   3.056   2.647   0.084
  967SOL     OW 2928   4.240   1.133   1.993
  967SOL    HW1 2929   4.148   1.122   1.956
  967SOL    HW2 2930   4.307   1.122   1.920
  968SOL     OW 2931   4.654   0.926   3.496
  968SOL    HW1 2932   4.650   0.892   3.590
  968SOL    HW2 2933   4.720   0.871   3.444
  969SOL     OW 2934   2.252   0.923   4.215
  969SOL    HW1 2935   2.303   0.974   4.284
  969SOL    HW2 2936   2.178   0.980   4.179
  970SOL     OW 2937   0.125   3.679   1.975
  970SOL    HW1 2938   0.215   3.701   1.938
  970SOL    HW2 2939   0.136   3.630   2.062
  971SOL     OW 2940   3.967   3.536   3.835
  971SOL    HW1 2941   4.043   3.569   3.890
  971SOL    HW2 2942   3.990   3.545   3.738
  972SOL     OW 2943   1.474   1.652   4.509
  972SOL    HW1 2944   1.440   1.558   4.508
  972SOL    HW2 2945   1.414   1.709   4.453
  973SOL     OW 2946   3.484   0.244   2.945
  973SOL    HW1 2947   3.527   0.324   2.903
  973SOL    HW2 2948   3.555   0.184   2.983
  974SOL     OW 2949   0.848   1.464   3.069
  974SOL    HW1 2950   0.939   1.437   3.100
  974SOL    HW2 2951   0.832   1.560   3.093
  975SOL     OW 2952   4.153   0.125   0.096
  975SOL    HW1 2953   4.067   0.143   0.144
  975SOL    HW2 2954   4.220   0.195   0.121
  976SOL     OW 2955   1.667   4.434   1.415
  976SOL    HW1 2956   1.765   4.456   1.409
  976SOL    HW2 2957   1.653   4.364   1.485
  977SOL     OW 2958   0.118   0.990   3.117
  977SOL    HW1 2959   0.046   1.042   3.163
  977SOL    HW2 2960   0.076   0.926   3.052
  978SOL     OW 2961   2.069   4.300   4.757
  978SOL    HW1 2962   2.123   4.218   4.742
  978SOL    HW2 2963   2.081   4.332   4.851
  979SOL     OW 2964   2.771   0.228   4.074
  979SOL    HW1 2965   2.846   0.220   4.139
  979SOL    HW2 2966   2.800   0.189   3.986
  980SOL     OW 2967   1.164   0.298   3.958
  980SOL    HW1 2968   1.116   0.210   3.961
  980SOL    HW2 2969   1.241   0.292   3.894
  981SOL     OW 2970   0.321   4.170   2.027
  981SOL    HW1 2971   0.373   4.112   2.090
  981SOL    HW2 2972   0.313   4.262   2.065
  982SOL     OW 2973   3.430   1.325   3.165
  982SOL    HW1 2974   3.515   1.280   3.139
  982SOL    HW2 2975   3.352   1.268   3.137
  983SOL     OW 2976   2.395   1.036   2.714
  983SOL    HW1 2977   2.401   0.989   2.802
  983SOL    HW2 2978   2.401   0.968   2.640
  984SOL     OW 2979   0.458   0.426   0.377
  984SOL    HW1 2980   0.521   0.446   0.452
  984SOL    HW2 2981   0.364   0.437   0.410
  985SOL     OW 2982   1.766   2.729   2.897
  985SOL    HW1 2983   1.841   2.697   2.955
  985SOL    HW2 2984   1.787   2.708   2.801
  986SOL     OW 2985   0.993   2.580   3.517
  986SOL    HW1 2986   1.024   2.556   3.425
  986SOL    HW2 2987   1.028   2.671   3.540
  987SOL     OW 2988   2.644   1.353   3.915
  987SOL    HW1 2989   2.653   1.392   3.824
  987SOL    HW2 2990   2.641   1.253   3.909
  988SOL     OW 2991   3.681   2.516   4.740
  988SOL    HW1 2992   3.754   2.564   4.788
  988SOL    HW2 2993   3.703   2.419   4.734
  989SOL     OW 2994   1.862   0.724   0.495
  989SOL    HW1 2995   1.847   0.818   0.524
  989SOL    HW2 2996   1.873   0.720   0.396
  990SOL     OW 2997   1.356   2.839   1.274
  990SOL    HW1 2998   1.308   2.799   1.197
  990SOL    HW2 2999   1.295   2.901   1.323
  991SOL     OW 3000   0.557   3.075   4.800
  991SOL    HW1 3001   0.488   3.143   4.775
  991SOL    HW2 3002   0.513   2.986   4.812
  992SOL     OW 3003   3.133   3.950   1.879
  992SOL    HW1 3004   3.185   3.954   1.964
  992SOL    HW2 3005   3.103   3.856   1.862
  993SOL     OW 3006   3.350   2.359   3.787
  993SOL    HW1 3007   3.337   2.318   3.697
  993SOL    HW2 3008   3.384   2.290   3.851
  994SOL     OW 3009   4.016   3.540   1.076
  994SOL    HW1 3010   4.069   3.621   1.101
  994SOL    HW2 3011   3.994   3.487   1.158
  995SOL     OW 3012   3.030   2.143   4.690
  995SOL    HW1 3013   3.006   2.190   4.605
  995SOL    HW2 3014   3.129   2.139   4.699
  996SOL     OW 3015   2.519   3.301   0.336
  996SOL    HW1 3016   2.592   3.294   0.404
  996SOL    HW2 3017   2.558   3.321   0.246
  997SOL     OW 3018   1.951   3.310   1.982
  997SOL    HW1 3019   2.038   3.282   1.941
  997SOL    HW2 3020   1.960   3.309   2.082
  998SOL     OW 3021   5.003   0.267   3.046
  998SOL    HW1 3022   4.983   0.185   3.100
  998SOL    HW2 3023   5.012   0.242   2.950
  999SOL     OW 3024   3.783   1.161   2.481
  999SOL    HW1 3025   3.828   1.076   2.456
  999SOL    HW2 3026   3.739   1.152   2.570
 1000SOL     OW 3027   1.509   1.017   1.135
 1000SOL    HW1 3028   1.513   0.959   1.054
 1000SOL    HW2 3029   1.585   0.995   1.196
 1001SOL     OW 3030   4.714   3.834   3.400
 1001SOL    HW1 3031   4.684   3.771   3.471
 1001SOL    HW2 3032   4.783   3.896   3.437
 1002SOL     OW 3033   1.948   0.439   2.216
 1002SOL    HW1 3034   1.898   0.518   2.252
 1002SOL    HW2 3035   1.953   0.446   2.116
 1003SOL     OW 3036   3.821   0.040   1.212
 1003SOL    HW1 3037   3.753   5.032   1.153
 1003SOL    HW2 3038   3.868   5.005   1.265
 1004SOL     OW 3039   3.870   1.408   3.499
 1004SOL    HW1 3040   3.811   1.340   3.543
 1004SOL    HW2 3041   3.813   1.478   3.456
 1005SOL     OW 3042   3.205   3.009   3.460
 1005SOL    HW1 3043   3.217   3.057   3.547
 1005SOL    HW2 3044   3.267   2.930   3.456
 1006SOL     OW 3045   1.643   0.259   0.613
 1006SOL    HW1 3046   1.638   0.195   0.536
 1006SOL    HW2 3047   1.582   0.336   0.597
 1007SOL     OW 3048   1.711   3.958   1.503
 1007SOL    HW1 3049   1.670   3.943   1.413
 1007SOL    HW2 3050   1.777   4.033   1.498
 1008SOL     OW 3051   3.065   0.421   1.475
 1008SOL    HW1 3052   3.130   0.367   1.423
 1008SOL    HW2 3053   3.008   0.474   1.413
 1009SOL     OW 3054   0.122   1.964   4.145
 1009SOL    HW1 3055   0.141   2.059   4.118
 1009SOL    HW2 3056   0.179   1.940   4.223
 1010SOL     OW 3057   3.518   1.916   3.625
 1010SOL    HW1 3058   3.455   1.992   3.610
 1010SOL    HW2 3059   3.602   1.949   3.668
 1011SOL     OW 3060   4.413   2.547   3.359
 1011SOL    HW1 3061   4.508   2.531   3.334
 1011SOL    HW2 3062   4.353   2.492   3.300
 1012SOL     OW 3063   2.087   3.024   1.527
 1012SOL    HW1 3064   2.016   3.067   1.583
 1012SOL    HW2 3065   2.077   2.925   1.530
 1013SOL     OW 3066   3.240   3.137   2.997
 1013SOL    HW1 3067   3.157   3.136   2.942
 1013SOL    HW2 3068   3.217   3.160   3.092
 1014SOL     OW 3069   0.732   1.194   4.629
 1014SOL    HW1 3070   0.732   1.290   4.601
 1014SOL    HW2 3071   0.821   1.153   4.606
 1015SOL     OW 3072   3.578   3.665   1.319
 1015SOL    HW1 3073   3.615   3.741   1.266
 1015SOL    HW2 3074   3.479   3.675   1.327
 1016SOL     OW 3075   2.563   0.923   4.124
 1016SOL    HW1 3076   2.627   0.995   4.153
 1016SOL    HW2 3077   2.612   0.855   4.070
 1017SOL     OW 3078   5.032   0.033   1.663
 1017SOL    HW1 3079   4.959   5.000   1.673
 1017SOL    HW2 3080   0.024   0.039   1.567
 1018SOL     OW 3081   0.267   2.617   3.640
 1018SOL    HW1 3082   0.331   2.692   3.660
 1018SOL    HW2 3083   0.193   2.652   3.583
 1019SOL     OW 3084   1.872   4.150   1.920
 1019SOL    HW1 3085   1.892   4.058   1.885
 1019SOL    HW2 3086   1.887   4.152   2.019
 1020SOL     OW 3087   1.185   1.199   1.067
 1020SOL    HW1 3088   1.175   1.105   1.034
 1020SOL    HW2 3089   1.181   1.199   1.167
 1021SOL     OW 3090   4.966   0.659   1.747
 1021SOL    HW1 3091   0.021   0.617   1.754
 1021SOL    HW2 3092   4.897   0.588   1.735
 1022SOL     OW 3093   0.848   4.109   4.973
 1022SOL    HW1 3094   0.806   4.169   4.906
 1022SOL    HW2 3095   0.777   4.064   5.028
 1023SOL     OW 3096   3.762   2.613   3.561
 1023SOL    HW1 3097   3.690   2.654   3.617
 1023SOL    HW2 3098   3.772   2.516   3.586
 1024SOL     OW 3099   4.225   1.191   2.908
 1024SOL    HW1 3100   4.159   1.264   2.927
 1024SOL    HW2 3101   4.288   1.221   2.837
 1025SOL     OW 3102   3.645   3.281   2.005
 1025SOL    HW1 3103   3.552   3.251   1.984
 1025SOL    HW2 3104   3.673   3.242   2.093
 1026SOL     OW 3105   1.991   4.623   1.558
 1026SOL    HW1 3106   1.986   4.563   1.637
 1026SOL    HW2 3107   1.962   4.715   1.585
 1027SOL     OW 3108   3.527   0.605   0.444
 1027SOL    HW1 3109   3.510   0.704   0.444
 1027SOL    HW2 3110   3.477   0.563   0.368
 1028SOL     OW 3111   2.758   3.367   4.267
 1028SOL    HW1 3112   2.661   3.392   4.271
 1028SOL    HW2 3113   2.777   3.322   4.180
 1029SOL     OW 3114   3.338   0.499   4.242
 1029SOL    HW1 3115   3.391   0.578   4.210
 1029SOL    HW2 3116   3.368   0.474   4.334
 1030SOL     OW 3117   3.614   4.723   2.107
 1030SOL    HW1 3118   3.611   4.631   2.146
 1030SOL    HW2 3119   3.582   4.720   2.012
 1031SOL     OW 3120   2.671   1.150   1.341
 1031SOL    HW1 3121   2.577   1.141   1.373
 1031SOL    HW2 3122   2.731   1.175   1.417
 1032SOL     OW 3123   0.279   3.543   3.097
 1032SOL    HW1 3124   0.182   3.568   3.092
 1032SOL    HW2 3125   0.330   3.614   3.146
 1033SOL     OW 3126   0.823   0.403   3.823
 1033SOL    HW1 3127   0.817   0.491   3.777
 1033SOL    HW2 3128   0.731   0.364   3.833
 1034SOL     OW 3129   1.513   1.801   2.767
 1034SOL    HW1 3130   1.454   1.779   2.844
 1034SOL    HW2 3131   1.476   1.880   2.718
 1035SOL     OW 3132   0.903   2.131   1.109
 1035SOL    HW1 3133   0.956   2.129   1.024
 1035SOL    HW2 3134   0.956   2.178   1.180
 1036SOL     OW 3135   1.139   1.535   4.890
 1036SOL    HW1 3136   1.171   1.548   4.983
 1036SOL    HW2 3137   1.092   1.447   4.883
 1037SOL     OW 3138   3.943   1.477   0.343
 1037SOL    HW1 3139   3.845   1.462   0.327
 1037SOL    HW2 3140   3.955   1.521   0.432
 1038SOL     OW 3141   1.673   4.118   2.202
 1038SOL    HW1 3142   1.704   4.023   2.197
 1038SOL    HW2 3143   1.636   4.145   2.113
 1039SOL     OW 3144   1.858   1.869   4.052
 1039SOL    HW1 3145   1.762   1.845   4.058
 1039SOL    HW2 3146   1.877   1.911   3.963
 1040SOL     OW 3147   4.452   1.121   0.329
 1040SOL    HW1 3148   4.445   1.059   0.407
 1040SOL    HW2 3149   4.389   1.198   0.342
 1041SOL     OW 3150   4.877   0.831   0.927
 1041SOL    HW1 3151   4.863   0.819   1.025
 1041SOL    HW2 3152   4.800   0.791   0.877
 1042SOL     OW 3153   1.482   2.897   0.506
 1042SOL    HW1 3154   1.519   2.811   0.540
 1042SOL    HW2 3155   1.501   2.906   0.409
 1043SOL     OW 3156   3.865   3.024   0.747
 1043SOL    HW1 3157   3.864   3.038   0.846
 1043SOL    HW2 3158   3.813   3.096   0.702
 1044SOL     OW 3159   2.989   1.716   4.252
 1044SOL    HW1 3160   2.920   1.643   4.244
 1044SOL    HW2 3161   3.017   1.725   4.348
 1045SOL     OW 3162   2.111   0.452   0.179
 1045SOL    HW1 3163   2.016   0.446   0.149
 1045SOL    HW2 3164   2.114   0.458   0.279
 1046SOL     OW 3165   1.093   0.824   0.478
 1046SOL    HW1 3166   1.163   0.802   0.545
 1046SOL    HW2 3167   1.128   0.891   0.412
 1047SOL     OW 3168   1.026   4.529   2.582
 1047SOL    HW1 3169   1.097   4.595   2.603
 1047SOL    HW2 3170   0.940   4.558   2.624
 1048SOL     OW 3171   3.322   3.714   1.350
 1048SOL    HW1 3172   3.255   3.640   1.360
 1048SOL    HW2 3173   3.308   3.782   1.423
 1049SOL     OW 3174   1.252   2.437   4.140
 1049SOL    HW1 3175   1.312   2.494   4.084
 1049SOL    HW2 3176   1.198   2.377   4.081
 1050SOL     OW 3177   4.595   3.331   4.597
 1050SOL    HW1 3178   4.598   3.331   4.697
 1050SOL    HW2 3179   4.534   3.259   4.566
 1051SOL     OW 3180   2.236   4.496   0.553
 1051SOL    HW1 3181   2.200   4.521   0.463
 1051SOL    HW2 3182   2.195   4.555   0.623
 1052SOL     OW 3183   0.872   3.507   2.755
 1052SOL    HW1 3184   0.867   3.592   2.806
 1052SOL    HW2 3185   0.848   3.523   2.659
 1053SOL     OW 3186   4.319   4.404   4.367
 1053SOL    HW1 3187   4.334   4.499   4.341
 1053SOL    HW2 3188   4.230   4.374   4.331
 1054SOL     OW 3189   2.349   2.988   2.472
 1054SOL    HW1 3190   2.391   3.065   2.423
 1054SOL    HW2 3191   2.345   2.908   2.412
 1055SOL     OW 3192   0.300   2.957   0.782
 1055SOL    HW1 3193   0.233   2.993   0.716
 1055SOL    HW2 3194   0.256   2.888   0.839
 1056SOL     OW 3195   0.407   0.980   0.785
 1056SOL    HW1 3196   0.464   1.062   0.774
 1056SOL    HW2 3197   0.334   0.981   0.717
 1057SOL     OW 3198   1.760   2.278   4.144
 1057SOL    HW1 3199   1.793   2.255   4.052
 1057SOL    HW2 3200   1.827   2.248   4.212
 1058SOL     OW 3201   4.922   2.306   4.815
 1058SOL    HW1 3202   4.978   2.289   4.896
 1058SOL    HW2 3203   4.967   2.266   4.735
 1059SOL     OW 3204   0.283   2.336   3.620
 1059SOL    HW1 3205   0.305   2.431   3.600
 1059SOL    HW2 3206   0.184   2.326   3.634
 1060SOL     OW 3207   3.143   1.185   3.573
 1060SOL    HW1 3208   3.124   1.283   3.569
 1060SOL    HW2 3209   3.152   1.156   3.669
 1061SOL     OW 3210   0.156   4.113   1.646
 1061SOL    HW1 3211   0.078   4.147   1.595
 1061SOL    HW2 3212   0.134   4.024   1.686
 1062SOL     OW 3213   0.888   0.689   0.834
 1062SOL    HW1 3214   0.881   0.664   0.737
 1062SOL    HW2 3215   0.973   0.740   0.849
 1063SOL     OW 3216   3.980   2.642   0.254
 1063SOL    HW1 3217   3.990   2.622   0.352
 1063SOL    HW2 3218   3.929   2.728   0.243
 1064SOL     OW 3219   5.034   3.452   3.414
 1064SOL    HW1 3220   5.006   3.461   3.319
 1064SOL    HW2 3221   5.017   3.359   3.446
 1065SOL     OW 3222   3.378   0.243   3.436
 1065SOL    HW1 3223   3.283   0.252   3.406
 1065SOL    HW2 3224   3.381   0.195   3.524
 1066SOL     OW 3225   2.411   2.907   3.751
 1066SOL    HW1 3226   2.418   2.952   3.840
 1066SOL    HW2 3227   2.380   2.974   3.683
 1067SOL     OW 3228   0.805   2.806   4.252
 1067SOL    HW1 3229   0.717   2.853   4.255
 1067SOL    HW2 3230   0.792   2.713   4.220
 1068SOL     OW 3231   0.776   1.025   3.351
 1068SOL    HW1 3232   0.835   1.103   3.329
 1068SOL    HW2 3233   0.762   1.021   3.449
 1069SOL     OW 3234   2.321   4.571   3.959
 1069SOL    HW1 3235   2.403   4.521   3.933
 1069SOL    HW2 3236   2.257   4.508   4.004
 1070SOL     OW 3237   3.341   1.987   2.750
 1070SOL    HW1 3238   3.385   2.073   2.776
 1070SOL    HW2 3239   3.364   1.965   2.655
 1071SOL     OW 3240   3.754   3.284   2.833
 1071SOL    HW1 3241   3.712   3.205   2.876
 1071SOL    HW2 3242   3.846   3.261   2.801
 1072SOL     OW 3243   3.497   2.751   1.504
 1072SOL    HW1 3244   3.515   2.791   1.414
 1072SOL    HW2 3245   3.455   2.820   1.564
 1073SOL     OW 3246   0.084   2.567   1.342
 1073SOL    HW1 3247   0.055   2.499   1.410
 1073SOL    HW2 3248   0.144   2.524   1.275
 1074SOL     OW 3249   0.313   1.612   4.061
 1074SOL    HW1 3250   0.364   1.655   4.136
 1074SOL    HW2 3251   0.248   1.678   4.024
 1075SOL     OW 3252   2.342   2.653   3.684
 1075SOL    HW1 3253   2.348   2.753   3.692
 1075SOL    HW2 3254   2.246   2.625   3.688
 1076SOL     OW 3255   3.127   4.174   0.456
 1076SOL    HW1 3256   3.073   4.182   0.372
 1076SOL    HW2 3257   3.147   4.265   0.492
 1077SOL     OW 3258   3.852   2.547   4.043
 1077SOL    HW1 3259   3.873   2.552   3.945
 1077SOL    HW2 3260   3.924   2.591   4.095
 1078SOL     OW 3261   3.471   3.552   2.056
 1078SOL    HW1 3262   3.562   3.522   2.085
 1078SOL    HW2 3263   3.402   3.490   2.094
 1079SOL     OW 3264   1.247   4.737   3.615
 1079SOL    HW1 3265   1.162   4.785   3.595
 1079SOL    HW2 3266   1.282   4.695   3.531
 1080SOL     OW 3267   4.267   4.737   1.273
 1080SOL    HW1 3268   4.330   4.707   1.345
 1080SOL    HW2 3269   4.319   4.766   1.193
 1081SOL     OW 3270   0.816   4.390   4.150
 1081SOL    HW1 3271   0.802   4.487   4.131
 1081SOL    HW2 3272   0.908   4.363   4.121
 1082SOL     OW 3273   1.532   2.480   0.771
 1082SOL    HW1 3274   1.547   2.389   0.811
 1082SOL    HW2 3275   1.580   2.549   0.826
 1083SOL     OW 3276   1.754   4.036   3.829
 1083SOL    HW1 3277   1.733   3.944   3.863
 1083SOL    HW2 3278   1.812   4.029   3.748
 1084SOL     OW 3279   2.971   2.970   3.052
 1084SOL    HW1 3280   2.996   2.874   3.041
 1084SOL    HW2 3281   2.872   2.979   3.054
 1085SOL     OW 3282   0.256   4.390   0.775
 1085SOL    HW1 3283   0.157   4.407   0.773
 1085SOL    HW2 3284   0.290   4.407   0.867
 1086SOL     OW 3285   3.090   2.653   1.321
 1086SOL    HW1 3286   3.036   2.613   1.247
 1086SOL    HW2 3287   3.084   2.595   1.402
 1087SOL     OW 3288   0.457   4.279   2.679
 1087SOL    HW1 3289   0.454   4.374   2.646
 1087SOL    HW2 3290   0.451   4.279   2.779
 1088SOL     OW 3291   1.916   3.333   1.399
 1088SOL    HW1 3292   1.883   3.379   1.316
 1088SOL    HW2 3293   1.998   3.379   1.433
 1089SOL     OW 3294   0.655   3.266   0.816
 1089SOL    HW1 3295   0.562   3.290   0.789
 1089SOL    HW2 3296   0.700   3.216   0.742
 1090SOL     OW 3297   1.146   0.310   0.889
 1090SOL    HW1 3298   1.151   0.225   0.838
 1090SOL    HW2 3299   1.193   0.383   0.838
 1091SOL     OW 3300   0.104   3.879   3.486
 1091SOL    HW1 3301   0.066   3.803   3.538
 1091SOL    HW2 3302   0.199   3.859   3.461
 1092SOL     OW 3303   1.794   0.101   2.828
 1092SOL    HW1 3304   1.865   0.166   2.801
 1092SOL    HW2 3305   1.796   0.089   2.927
 1093SOL     OW 3306   1.910   3.176   1.738
 1093SOL    HW1 3307   1.834   3.172   1.673
 1093SOL    HW2 3308   1.881   3.228   1.819
 1094SOL     OW 3309   0.823   4.273   3.541
 1094SOL    HW1 3310   0.869   4.361   3.555
 1094SOL    HW2 3311   0.735   4.288   3.495
 1095SOL     OW 3312   2.796   4.393   1.455
 1095SOL    HW1 3313   2.778   4.311   1.509
 1095SOL    HW2 3314   2.709   4.430   1.421
 1096SOL     OW 3315   0.849   1.799   3.563
 1096SOL    HW1 3316   0.788   1.872   3.593
 1096SOL    HW2 3317   0.844   1.791   3.463
 1097SOL     OW 3318   1.433   3.959   3.325
 1097SOL    HW1 3319   1.337   3.936   3.333
 1097SOL    HW2 3320   1.489   3.878   3.343
 1098SOL     OW 3321   4.400   0.406   3.076
 1098SOL    HW1 3322   4.359   0.340   3.139
 1098SOL    HW2 3323   4.476   0.452   3.122
 1099SOL     OW 3324   2.557   2.349   0.794
 1099SOL    HW1 3325   2.517   2.337   0.884
 1099SOL    HW2 3326   2.657   2.351   0.802
 1100SOL     OW 3327   1.505   2.722   1.018
 1100SOL    HW1 3328   1.450   2.746   0.939
 1100SOL    HW2 3329   1.579   2.789   1.029
 1101SOL     OW 3330   3.959   1.447   1.791
 1101SOL    HW1 3331   4.001   1.535   1.812
 1101SOL    HW2 3332   4.021   1.373   1.819
 1102SOL     OW 3333   0.804   3.310   3.269
 1102SOL    HW1 3334   0.842   3.333   3.179
 1102SOL    HW2 3335   0.865   3.246   3.315
 1103SOL     OW 3336   3.584   4.412   2.868
 1103SOL    HW1 3337   3.565   4.510   2.870
 1103SOL    HW2 3338   3.631   4.390   2.783
 1104SOL     OW 3339   0.661   4.219   3.284
 1104SOL    HW1 3340   0.571   4.237   3.245
 1104SOL    HW2 3341   0.691   4.128   3.257
 1105SOL     OW 3342   2.951   4.203   0.250
 1105SOL    HW1 3343   2.913   4.295   0.244
 1105SOL    HW2 3344   2.882   4.137   0.221
 1106SOL     OW 3345   3.850   2.435   2.872
 1106SOL    HW1 3346   3.927   2.412   2.932
 1106SOL    HW2 3347   3.812   2.351   2.833
 1107SOL     OW 3348   2.185   0.729   0.304
 1107SOL    HW1 3349   2.247   0.784   0.248
 1107SOL    HW2 3350   2.183   0.766   0.397
 1108SOL     OW 3351   3.347   0.430   1.394
 1108SOL    HW1 3352   3.426   0.479   1.430
 1108SOL    HW2 3353   3.375   0.374   1.317
 1109SOL     OW 3354   1.870   4.443   0.287
 1109SOL    HW1 3355   1.959   4.478   0.259
 1109SOL    HW2 3356   1.854   4.465   0.383
 1110SOL     OW 3357   5.000   3.335   0.277
 1110SOL    HW1 3358   4.959   3.267   0.338
 1110SOL    HW2 3359   4.980   3.310   0.182
 1111SOL     OW 3360   2.023   1.905   0.275
 1111SOL    HW1 3361   1.980   1.967   0.340
 1111SOL    HW2 3362   1.959   1.832   0.251
 1112SOL     OW 3363   0.042   2.189   3.677
 1112SOL    HW1 3364   5.003   2.130   3.710
 1112SOL    HW2 3365   0.076   2.154   3.590
 1113SOL     OW 3366   1.733   4.983   4.229
 1113SOL    HW1 3367   1.678   0.026   4.256
 1113SOL    HW2 3368   1.829   5.001   4.247
 1114SOL     OW 3369   4.397   2.499   2.261
 1114SOL    HW1 3370   4.494   2.524   2.264
 1114SOL    HW2 3371   4.362   2.487   2.354
 1115SOL     OW 3372   1.764   1.331   0.573
 1115SOL    HW1 3373   1.776   1.258   0.639
 1115SOL    HW2 3374   1.715   1.297   0.493
 1116SOL     OW 3375   4.913   4.532   1.511
 1116SOL    HW1 3376   4.996   4.581   1.538
 1116SOL    HW2 3377   4.885   4.471   1.585
 1117SOL     OW 3378   1.293   1.948   0.160
 1117SOL    HW1 3379   1.343   1.899   0.089
 1117SOL    HW2 3380   1.296   1.896   0.245
 1118SOL     OW 3381   0.201   3.617   2.289
 1118SOL    HW1 3382   0.209   3.519   2.268
 1118SOL    HW2 3383   0.122   3.633   2.347
 1119SOL     OW 3384   0.707   1.985   1.848
 1119SOL    HW1 3385   0.648   2.017   1.922
 1119SOL    HW2 3386   0.690   2.040   1.766
 1120SOL     OW 3387   4.533   1.744   1.400
 1120SOL    HW1 3388   4.563   1.768   1.308
 1120SOL    HW2 3389   4.584   1.798   1.467
 1121SOL     OW 3390   3.632   4.502   1.858
 1121SOL    HW1 3391   3.640   4.403   1.850
 1121SOL    HW2 3392   3.721   4.541   1.883
 1122SOL     OW 3393   4.269   2.701   1.163
 1122SOL    HW1 3394   4.306   2.789   1.133
 1122SOL    HW2 3395   4.281   2.692   1.262
 1123SOL     OW 3396   3.629   1.219   5.033
 1123SOL    HW1 3397   3.562   1.292   0.013
 1123SOL    HW2 3398   3.671   1.194   0.085
 1124SOL     OW 3399   3.850   2.286   4.587
 1124SOL    HW1 3400   3.946   2.313   4.586
 1124SOL    HW2 3401   3.799   2.347   4.526
 1125SOL     OW 3402   3.154   3.758   2.170
 1125SOL    HW1 3403   3.219   3.773   2.095
 1125SOL    HW2 3404   3.203   3.761   2.257
 1126SOL     OW 3405   2.932   0.216   4.292
 1126SOL    HW1 3406   2.936   0.170   4.381
 1126SOL    HW2 3407   2.986   0.300   4.296
 1127SOL     OW 3408   0.442   4.596   0.068
 1127SOL    HW1 3409   0.536   4.630   0.065
 1127SOL    HW2 3410   0.440   4.508   0.116
 1128SOL     OW 3411   2.486   1.567   0.370
 1128SOL    HW1 3412   2.574   1.599   0.403
 1128SOL    HW2 3413   2.480   1.583   0.271
 1129SOL     OW 3414   3.627   2.131   2.073
 1129SOL    HW1 3415   3.554   2.100   2.012
 1129SOL    HW2 3416   3.587   2.165   2.158
 1130SOL     OW 3417   0.512   0.213   1.468
 1130SOL    HW1 3418   0.598   0.185   1.512
 1130SOL    HW2 3419   0.509   0.178   1.375
 1131SOL     OW 3420   3.842   1.705   4.068
 1131SOL    HW1 3421   3.902   1.784   4.058
 1131SOL    HW2 3422   3.756   1.723   4.020
 1132SOL     OW 3423   2.273   1.066   0.355
 1132SOL    HW1 3424   2.272   1.106   0.447
 1132SOL    HW2 3425   2.230   1.130   0.291
 1133SOL     OW 3426   3.480   2.645   3.618
 1133SOL    HW1 3427   3.427   2.561   3.620
 1133SOL    HW2 3428   3.421   2.721   3.590
 1134SOL     OW 3429   0.255   0.303   3.751
 1134SOL    HW1 3430   0.159   0.292   3.777
 1134SOL    HW2 3431   0.289   0.217   3.712
 1135SOL     OW 3432   0.907   3.623   3.742
 1135SOL    HW1 3433   0.961   3.615   3.658
 1135SOL    HW2 3434   0.967   3.650   3.818
 1136SOL     OW 3435   1.360   2.083   4.166
 1136SOL    HW1 3436   1.342   2.119   4.258
 1136SOL    HW2 3437   1.306   1.999   4.152
 1137SOL     OW 3438   4.388   0.458   0.513
 1137SOL    HW1 3439   4.403   0.492   0.606
 1137SOL    HW2 3440   4.302   0.496   0.478
 1138SOL     OW 3441   3.954   2.187   0.480
 1138SOL    HW1 3442   4.029   2.157   0.420
 1138SOL    HW2 3443   3.867   2.173   0.432
 1139SOL     OW 3444   0.447   4.057   1.498
 1139SOL    HW1 3445   0.414   4.119   1.428
 1139SOL    HW2 3446   0.371   4.026   1.555
 1140SOL     OW 3447   0.257   3.530   0.172
 1140SOL    HW1 3448   0.261   3.497   0.077
 1140SOL    HW2 3449   0.350   3.537   0.209
 1141SOL     OW 3450   0.388   4.338   2.940
 1141SOL    HW1 3451   0.370   4.434   2.960
 1141SOL    HW2 3452   0.468   4.307   2.993
 1142SOL     OW 3453   3.226   0.882   3.882
 1142SOL    HW1 3454   3.190   0.811   3.822
 1142SOL    HW2 3455   3.298   0.844   3.939
 1143SOL     OW 3456   1.849   4.436   2.484
 1143SOL    HW1 3457   1.839   4.336   2.483
 1143SOL    HW2 3458   1.830   4.473   2.393
 1144SOL     OW 3459   3.355   2.732   0.061
 1144SOL    HW1 3460   3.372   2.675   0.141
 1144SOL    HW2 3461   3.438   2.738   0.005
 1145SOL     OW 3462   3.610   3.950   0.237
 1145SOL    HW1 3463   3.663   3.899   0.170
 1145SOL    HW2 3464   3.582   4.038   0.198
 1146SOL     OW 3465   2.490   4.029   3.901
 1146SOL    HW1 3466   2.442   3.944   3.923
 1146SOL    HW2 3467   2.479   4.050   3.804
 1147SOL     OW 3468   3.051   1.612   3.922
 1147SOL    HW1 3469   3.028   1.661   4.006
 1147SOL    HW2 3470   2.982   1.543   3.904
 1148SOL     OW 3471   2.302   1.372   3.985
 1148SOL    HW1 3472   2.360   1.451   4.002
 1148SOL    HW2 3473   2.214   1.385   4.032
 1149SOL     OW 3474   4.364   3.338   0.454
 1149SOL    HW1 3475   4.349   3.421   0.507
 1149SOL    HW2 3476   4.379   3.261   0.516
 1150SOL     OW 3477   1.684   4.659   4.421
 1150SOL    HW1 3478   1.746   4.608   4.361
 1150SOL    HW2 3479   1.613   4.702   4.365
 1151SOL     OW 3480   4.117   0.605   0.784
 1151SOL    HW1 3481   4.171   0.524   0.760
 1151SOL    HW2 3482   4.175   0.687   0.778
 1152SOL     OW 3483   2.442   2.565   0.648
 1152SOL    HW1 3484   2.453   2.470   0.678
 1152SOL    HW2 3485   2.498   2.624   0.706
 1153SOL     OW 3486   3.647   0.973   3.939
 1153SOL    HW1 3487   3.720   0.964   3.872
 1153SOL    HW2 3488   3.618   0.882   3.969
 1154SOL     OW 3489   0.624   0.892   2.397
 1154SOL    HW1 3490   0.541   0.949   2.400
 1154SOL    HW2 3491   0.598   0.798   2.376
 1155SOL     OW 3492   3.210   4.861   0.431
 1155SOL    HW1 3493   3.194   4.798   0.507
 1155SOL    HW2 3494   3.288   4.830   0.377
 1156SOL     OW 3495   0.627   4.487   3.649
 1156SOL    HW1 3496   0.603   4.535   3.565
 1156SOL    HW2 3497   0.725   4.499   3.668
 1157SOL     OW 3498   0.930   2.805   3.680
 1157SOL    HW1 3499   0.862   2.831   3.612
 1157SOL    HW2 3500   0.895   2.826   3.772
 1158SOL     OW 3501   1.584   1.817   3.451
 1158SOL    HW1 3502   1.529   1.822   3.534
 1158SOL    HW2 3503   1.564   1.732   3.402
 1159SOL     OW 3504   0.618   4.090   4.122
 1159SOL    HW1 3505   0.571   4.093   4.034
 1159SOL    HW2 3506   0.554   4.063   4.193
 1160SOL     OW 3507   4.471   1.540   5.025
 1160SOL    HW1 3508   4.418   1.584   4.952
 1160SOL    HW2 3509   4.549   1.597   0.014
 1161SOL     OW 3510   1.664   3.923   1.978
 1161SOL    HW1 3511   1.609   3.969   1.908
 1161SOL    HW2 3512   1.611   3.850   2.021
 1162SOL     OW 3513   4.909   1.082   3.500
 1162SOL    HW1 3514   4.902   1.180   3.519
 1162SOL    HW2 3515   4.838   1.033   3.552
 1163SOL     OW 3516   3.926   0.981   0.405
 1163SOL    HW1 3517   4.024   0.999   0.413
 1163SOL    HW2 3518   3.884   1.047   0.343
 1164SOL     OW 3519   2.190   4.874   0.133
 1164SOL    HW1 3520   2.233   4.811   0.198
 1164SOL    HW2 3521   2.260   4.911   0.072
 1165SOL     OW 3522   1.186   3.177   1.692
 1165SOL    HW1 3523   1.138   3.180   1.780
 1165SOL    HW2 3524   1.206   3.081   1.669
 1166SOL     OW 3525   1.739   2.451   3.226
 1166SOL    HW1 3526   1.788   2.427   3.309
 1166SOL    HW2 3527   1.759   2.546   3.202
 1167SOL     OW 3528   4.075   1.935   1.288
 1167SOL    HW1 3529   4.033   1.872   1.353
 1167SOL    HW2 3530   4.080   1.892   1.198
 1168SOL     OW 3531   1.429   1.653   4.921
 1168SOL    HW1 3532   1.465   1.735   4.967
 1168SOL    HW2 3533   1.374   1.600   4.985
 1169SOL     OW 3534   1.028   0.591   1.078
 1169SOL    HW1 3535   0.961   0.625   1.013
 1169SOL    HW2 3536   0.994   0.605   1.171
 1170SOL     OW 3537   3.840   1.994   4.295
 1170SOL    HW1 3538   3.765   2.049   4.332
 1170SOL    HW2 3539   3.817   1.897   4.305
 1171SOL     OW 3540   2.657   1.542   2.919
 1171SOL    HW1 3541   2.745   1.588   2.907
 1171SOL    HW2 3542   2.635   1.536   3.016
 1172SOL     OW 3543   1.177   2.117   0.650
 1172SOL    HW1 3544   1.212   2.203   0.611
 1172SOL    HW2 3545   1.143   2.059   0.576
 1173SOL     OW 3546   3.260   0.694   4.904
 1173SOL    HW1 3547   3.237   0.763   4.973
 1173SOL    HW2 3548   3.321   0.734   4.836
 1174SOL     OW 3549   1.928   4.468   1.348
 1174SOL    HW1 3550   1.925   4.527   1.267
 1174SOL    HW2 3551   1.963   4.520   1.426
 1175SOL     OW 3552   0.934   4.379   1.081
 1175SOL    HW1 3553   0.921   4.472   1.116
 1175SOL    HW2 3554   0.986   4.325   1.148
 1176SOL     OW 3555   0.330   1.607   4.415
 1176SOL    HW1 3556   0.367   1.692   4.454
 1176SOL    HW2 3557   0.232   1.603   4.431
 1177SOL     OW 3558   4.022   0.220   2.598
 1177SOL    HW1 3559   3.987   0.309   2.626
 1177SOL    HW2 3560   4.094   0.191   2.662
 1178SOL     OW 3561   2.924   2.503   0.306
 1178SOL    HW1 3562   2.995   2.526   0.239
 1178SOL    HW2 3563   2.845   2.465   0.259
 1179SOL     OW 3564   0.362   1.963   1.359
 1179SOL    HW1 3565   0.433   1.960   1.430
 1179SOL    HW2 3566   0.403   1.947   1.270
 1180SOL     OW 3567   3.002   2.432   0.562
 1180SOL    HW1 3568   2.990   2.467   0.470
 1180SOL    HW2 3569   2.996   2.507   0.628
 1181SOL     OW 3570   4.767   0.265   1.591
 1181SOL    HW1 3571   4.698   0.199   1.621
 1181SOL    HW2 3572   4.805   0.236   1.503
 1182SOL     OW 3573   1.829   2.329   1.446
 1182SOL    HW1 3574   1.774   2.366   1.521
 1182SOL    HW2 3575   1.770   2.283   1.380
 1183SOL     OW 3576   0.443   2.515   4.715
 1183SOL    HW1 3577   0.419   2.460   4.795
 1183SOL    HW2 3578   0.503   2.590   4.744
 1184SOL     OW 3579   2.823   3.518   0.180
 1184SOL    HW1 3580   2.849   3.604   0.225
 1184SOL    HW2 3581   2.730   3.494   0.205
 1185SOL     OW 3582   0.112   3.308   0.683
 1185SOL    HW1 3583   0.073   3.382   0.740
 1185SOL    HW2 3584   0.196   3.275   0.725
 1186SOL     OW 3585   4.909   0.638   0.111
 1186SOL    HW1 3586   4.972   0.590   0.050
 1186SOL    HW2 3587   4.848   0.572   0.156
 1187SOL     OW 3588   1.646   1.143   0.787
 1187SOL    HW1 3589   1.715   1.185   0.846
 1187SOL    HW2 3590   1.683   1.060   0.746
 1188SOL     OW 3591   3.646   1.662   1.344
 1188SOL    HW1 3592   3.587   1.602   1.398
 1188SOL    HW2 3593   3.661   1.622   1.254
 1189SOL     OW 3594   4.846   1.301   2.830
 1189SOL    HW1 3595   4.932   1.312   2.880
 1189SOL    HW2 3596   4.827   1.203   2.818
 1190SOL     OW 3597   2.049   1.501   1.959
 1190SOL    HW1 3598   2.046   1.409   1.997
 1190SOL    HW2 3599   2.009   1.500   1.867
 1191SOL     OW 3600   2.030   4.488   3.241
 1191SOL    HW1 3601   2.044   4.574   3.290
 1191SOL    HW2 3602   2.009   4.507   3.145
 1192SOL     OW 3603   0.817   4.055   0.401
 1192SOL    HW1 3604   0.904   4.022   0.364
 1192SOL    HW2 3605   0.812   4.155   0.389
 1193SOL     OW 3606   0.997   4.099   1.641
 1193SOL    HW1 3607   0.900   4.078   1.644
 1193SOL    HW2 3608   1.019   4.163   1.715
 1194SOL     OW 3609   1.563   2.467   4.246
 1194SOL    HW1 3610   1.581   2.440   4.151
 1194SOL    HW2 3611   1.565   2.385   4.304
 1195SOL     OW 3612   4.844   3.989   2.670
 1195SOL    HW1 3613   4.900   4.022   2.746
 1195SOL    HW2 3614   4.892   4.006   2.584
 1196SOL     OW 3615   0.452   1.917   4.592
 1196SOL    HW1 3616   0.508   1.834   4.585
 1196SOL    HW2 3617   0.510   1.997   4.579
 1197SOL     OW 3618   0.058   1.254   2.942
 1197SOL    HW1 3619   0.058   1.245   3.042
 1197SOL    HW2 3620   0.046   1.165   2.900
 1198SOL     OW 3621   2.243   3.709   2.479
 1198SOL    HW1 3622   2.321   3.768   2.501
 1198SOL    HW2 3623   2.216   3.724   2.384
 1199SOL     OW 3624   1.144   2.657   4.295
 1199SOL    HW1 3625   1.133   2.567   4.254
 1199SOL    HW2 3626   1.213   2.653   4.367
 1200SOL     OW 3627   1.757   2.242   1.021
 1200SOL    HW1 3628   1.756   2.300   0.940
 1200SOL    HW2 3629   1.839   2.261   1.075
 1201SOL     OW 3630   0.957   3.074   2.868
 1201SOL    HW1 3631   0.883   3.138   2.886
 1201SOL    HW2 3632   0.952   2.997   2.932
 1202SOL     OW 3633   4.906   2.957   4.912
 1202SOL    HW1 3634   4.884   3.002   4.825
 1202SOL    HW2 3635   5.004   2.937   4.915
 1203SOL     OW 3636   0.379   4.553   4.358
 1203SOL    HW1 3637   0.453   4.506   4.310
 1203SOL    HW2 3638   0.336   4.490   4.422
 1204SOL     OW 3639   1.816   3.457   1.686
 1204SOL    HW1 3640   1.891   3.419   1.632
 1204SOL    HW2 3641   1.844   3.545   1.724
 1205SOL     OW 3642   3.561   0.564   4.450
 1205SOL    HW1 3643   3.610   0.538   4.533
 1205SOL    HW2 3644   3.517   0.653   4.464
 1206SOL     OW 3645   3.870   3.807   2.569
 1206SOL    HW1 3646   3.880   3.874   2.642
 1206SOL    HW2 3647   3.956   3.799   2.519
 1207SOL     OW 3648   3.463   1.996   2.401
 1207SOL    HW1 3649   3.507   1.961   2.318
 1207SOL    HW2 3650   3.523   2.065   2.443
 1208SOL     OW 3651   4.573   2.869   3.468
 1208SOL    HW1 3652   4.534   2.948   3.420
 1208SOL    HW2 3653   4.649   2.832   3.415
 1209SOL     OW 3654   4.334   0.739   0.244
 1209SOL    HW1 3655   4.414   0.680   0.230
 1209SOL    HW2 3656   4.263   0.688   0.292
 1210SOL     OW 3657   0.523   2.613   1.244
 1210SOL    HW1 3658   0.469   2.543   1.291
 1210SOL    HW2 3659   0.527   2.591   1.146
 1211SOL     OW 3660   2.058   0.941   2.039
 1211SOL    HW1 3661   1.969   0.974   2.069
 1211SOL    HW2 3662   2.061   0.842   2.046
 1212SOL     OW 3663   3.329   3.344   3.849
 1212SOL    HW1 3664   3.400   3.399   3.893
 1212SOL    HW2 3665   3.266   3.403   3.799
 1213SOL     OW 3666   1.647   2.206   1.281
 1213SOL    HW1 3667   1.661   2.212   1.182
 1213SOL    HW2 3668   1.596   2.122   1.302
 1214SOL     OW 3669   1.759   0.800   1.421
 1214SOL    HW1 3670   1.681   0.769   1.475
 1214SOL    HW2 3671   1.729   0.815   1.326
 1215SOL     OW 3672   1.701   4.327   0.986
 1215SOL    HW1 3673   1.663   4.390   0.919
 1215SOL    HW2 3674   1.800   4.339   0.991
 1216SOL     OW 3675   4.031   4.779   2.412
 1216SOL    HW1 3676   4.013   4.851   2.479
 1216SOL    HW2 3677   3.955   4.773   2.348
 1217SOL     OW 3678   4.759   1.106   4.930
 1217SOL    HW1 3679   4.711   1.190   4.906
 1217SOL    HW2 3680   4.698   1.047   4.984
 1218SOL     OW 3681   2.638   0.652   1.699
 1218SOL    HW1 3682   2.733   0.642   1.729
 1218SOL    HW2 3683   2.591   0.565   1.707
 1219SOL     OW 3684   2.100   1.338   4.405
 1219SOL    HW1 3685   2.166   1.339   4.480
 1219SOL    HW2 3686   2.145   1.313   4.320
 1220SOL     OW 3687   1.177   1.928   4.888
 1220SOL    HW1 3688   1.092   1.981   4.887
 1220SOL    HW2 3689   1.255   1.990   4.876
 1221SOL     OW 3690   1.013   5.010   3.873
 1221SOL    HW1 3691   0.945   4.943   3.844
 1221SOL    HW2 3692   1.032   0.039   3.799
 1222SOL     OW 3693   0.459   4.148   0.893
 1222SOL    HW1 3694   0.550   4.189   0.901
 1222SOL    HW2 3695   0.406   4.198   0.824
 1223SOL     OW 3696   2.161   2.863   1.801
 1223SOL    HW1 3697   2.066   2.859   1.833
 1223SOL    HW2 3698   2.222   2.830   1.873
 1224SOL     OW 3699   0.803   2.642   3.199
 1224SOL    HW1 3700   0.866   2.566   3.186
 1224SOL    HW2 3701   0.739   2.621   3.273
 1225SOL     OW 3702   1.252   4.687   2.606
 1225SOL    HW1 3703   1.214   4.778   2.593
 1225SOL    HW2 3704   1.352   4.694   2.609
 1226SOL     OW 3705   3.984   4.986   0.930
 1226SOL    HW1 3706   4.034   4.917   0.877
 1226SOL    HW2 3707   3.970   4.952   1.023
 1227SOL     OW 3708   3.291   0.295   1.643
 1227SOL    HW1 3709   3.305   0.393   1.628
 1227SOL    HW2 3710   3.211   0.264   1.591
 1228SOL     OW 3711   4.039   2.851   2.950
 1228SOL    HW1 3712   4.016   2.947   2.933
 1228SOL    HW2 3713   3.962   2.793   2.923
 1229SOL     OW 3714   3.118   4.930   4.303
 1229SOL    HW1 3715   3.058   5.009   4.313
 1229SOL    HW2 3716   3.106   4.868   4.381
 1230SOL     OW 3717   2.590   1.544   4.408
 1230SOL    HW1 3718   2.551   1.601   4.335
 1230SOL    HW2 3719   2.639   1.468   4.367
 1231SOL     OW 3720   0.908   1.756   3.069
 1231SOL    HW1 3721   0.846   1.798   3.003
 1231SOL    HW2 3722   0.987   1.718   3.021
 1232SOL     OW 3723   3.206   0.324   2.791
 1232SOL    HW1 3724   3.302   0.311   2.769
 1232SOL    HW2 3725   3.151   0.251   2.751
 1233SOL     OW 3726   1.597   4.301   1.920
 1233SOL    HW1 3727   1.573   4.227   1.857
 1233SOL    HW2 3728   1.696   4.307   1.928
 1234SOL     OW 3729   2.399   4.728   2.504
 1234SOL    HW1 3730   2.448   4.810   2.473
 1234SOL    HW2 3731   2.443   4.647   2.466
 1235SOL     OW 3732   3.496   1.731   0.138
 1235SOL    HW1 3733   3.523   1.643   0.098
 1235SOL    HW2 3734   3.439   1.781   0.072
 1236SOL     OW 3735   2.327   1.361   0.644
 1236SOL    HW1 3736   2.307   1.446   0.596
 1236SOL    HW2 3737   2.426   1.354   0.660
 1237SOL     OW 3738   1.767   2.982   2.702
 1237SOL    HW1 3739   1.686   2.941   2.660
 1237SOL    HW2 3740   1.809   3.046   2.638
 1238SOL     OW 3741   3.296   1.786   0.919
 1238SOL    HW1 3742   3.353   1.858   0.959
 1238SOL    HW2 3743   3.201   1.800   0.945
 1239SOL     OW 3744   2.200   2.851   3.514
 1239SOL    HW1 3745   2.218   2.941   3.552
 1239SOL    HW2 3746   2.286   2.808   3.487
 1240SOL     OW 3747   4.792   0.271   2.670
 1240SOL    HW1 3748   4.715   0.280   2.606
 1240SOL    HW2 3749   4.864   0.216   2.628
 1241SOL     OW 3750   4.145   2.907   0.072
 1241SOL    HW1 3751   4.201   2.832   0.036
 1241SOL    HW2 3752   4.049   2.890   0.049
 1242SOL     OW 3753   1.238   1.028   4.271
 1242SOL    HW1 3754   1.252   1.033   4.370
 1242SOL    HW2 3755   1.148   1.065   4.247
 1243SOL     OW 3756   0.072   3.950   4.570
 1243SOL    HW1 3757   0.048   4.046   4.579
 1243SOL    HW2 3758   0.009   3.904   4.507
 1244SOL     OW 3759   2.167   3.585   4.089
 1244SOL    HW1 3760   2.264   3.582   4.068
 1244SOL    HW2 3761   2.145   3.671   4.136
 1245SOL     OW 3762   3.822   4.997   0.188
 1245SOL    HW1 3763   3.728   5.026   0.175
 1245SOL    HW2 3764   3.856   5.032   0.275
 1246SOL     OW 3765   0.069   2.016   2.768
 1246SOL    HW1 3766   0.061   2.101   2.717
 1246SOL    HW2 3767   0.163   2.002   2.797
 1247SOL     OW 3768   2.261   2.822   3.197
 1247SOL    HW1 3769   2.219   2.901   3.241
 1247SOL    HW2 3770   2.207   2.740   3.218
 1248SOL     OW 3771   2.410   1.014   1.171
 1248SOL    HW1 3772   2.451   1.057   1.091
 1248SOL    HW2 3773   2.326   1.062   1.196
 1249SOL     OW 3774   3.911   4.281   0.443
 1249SOL    HW1 3775   3.993   4.228   0.420
 1249SOL    HW2 3776   3.929   4.337   0.523
 1250SOL     OW 3777   0.107   4.989   2.978
 1250SOL    HW1 3778   0.014   4.977   3.015
 1250SOL    HW2 3779   0.105   0.021   2.904
 1251SOL     OW 3780   0.676   1.012   1.712
 1251SOL    HW1 3781   0.719   1.086   1.763
 1251SOL    HW2 3782   0.741   0.937   1.700
 1252SOL     OW 3783   4.896   4.256   2.039
 1252SOL    HW1 3784   4.970   4.203   1.998
 1252SOL    HW2 3785   4.819   4.196   2.060
 1253SOL     OW 3786   1.684   0.495   1.602
 1253SOL    HW1 3787   1.670   0.404   1.639
 1253SOL    HW2 3788   1.602   0.526   1.555
 1254SOL     OW 3789   3.972   1.324   4.998
 1254SOL    HW1 3790   3.879   1.320   4.961
 1254SOL    HW2 3791   4.010   1.415   4.984
 1255SOL     OW 3792   0.436   1.715   4.952
 1255SOL    HW1 3793   0.516   1.733   5.008
 1255SOL    HW2 3794   0.464   1.674   4.865
 1256SOL     OW 3795   3.064   0.054   0.435
 1256SOL    HW1 3796   3.120   5.006   0.447
 1256SOL    HW2 3797   2.973   0.028   0.404
 1257SOL     OW 3798   5.032   2.400   4.460
 1257SOL    HW1 3799   4.970   2.329   4.427
 1257SOL    HW2 3800   5.023   2.409   4.559
 1258SOL     OW 3801   1.412   4.775   1.362
 1258SOL    HW1 3802   1.472   4.853   1.342
 1258SOL    HW2 3803   1.389   4.775   1.460
 1259SOL     OW 3804   1.371   0.107   3.313
 1259SOL    HW1 3805   1.455   0.126   3.364
 1259SOL    HW2 3806   1.362   0.008   3.300
 1260SOL     OW 3807   3.413   3.163   1.553
 1260SOL    HW1 3808   3.349   3.098   1.594
 1260SOL    HW2 3809   3.434   3.135   1.460
 1261SOL     OW 3810   1.602   4.478   2.619
 1261SOL    HW1 3811   1.569   4.566   2.585
 1261SOL    HW2 3812   1.690   4.456   2.577
 1262SOL     OW 3813   2.720   0.818   2.327
 1262SOL    HW1 3814   2.700   0.720   2.331
 1262SOL    HW2 3815   2.650   0.869   2.377
 1263SOL     OW 3816   0.851   2.211   3.520
 1263SOL    HW1 3817   0.859   2.118   3.555
 1263SOL    HW2 3818   0.870   2.276   3.593
 1264SOL     OW 3819   0.600   3.435   2.312
 1264SOL    HW1 3820   0.686   3.477   2.284
 1264SOL    HW2 3821   0.618   3.368   2.384
 1265SOL     OW 3822   4.665   3.950   2.892
 1265SOL    HW1 3823   4.726   3.980   2.819
 1265SOL    HW2 3824   4.716   3.945   2.978
 1266SOL     OW 3825   3.416   4.715   1.099
 1266SOL    HW1 3826   3.407   4.810   1.129
 1266SOL    HW2 3827   3.465   4.662   1.169
 1267SOL     OW 3828   0.594   4.509   1.195
 1267SOL    HW1 3829   0.662   4.575   1.162
 1267SOL    HW2 3830   0.633   4.417   1.191
 1268SOL     OW 3831   0.957   1.193   2.087
 1268SOL    HW1 3832   0.892   1.202   2.162
 1268SOL    HW2 3833   1.012   1.276   2.080
 1269SOL     OW 3834   0.594   3.754   1.727
 1269SOL    HW1 3835   0.495   3.762   1.718
 1269SOL    HW2 3836   0.632   3.712   1.645
 1270SOL     OW 3837   3.343   4.650   4.838
 1270SOL    HW1 3838   3.429   4.604   4.858
 1270SOL    HW2 3839   3.348   4.690   4.746
 1271SOL     OW 3840   4.932   0.968   3.924
 1271SOL    HW1 3841   4.904   1.041   3.861
 1271SOL    HW2 3842   5.028   0.946   3.907
 1272SOL     OW 3843   1.566   3.913   4.597
 1272SOL    HW1 3844   1.484   3.895   4.543
 1272SOL    HW2 3845   1.584   4.011   4.599
 1273SOL     OW 3846   4.620   1.549   1.083
 1273SOL    HW1 3847   4.566   1.517   1.161
 1273SOL    HW2 3848   4.589   1.640   1.056
 1274SOL     OW 3849   1.923   0.294   0.799
 1274SOL    HW1 3850   1.945   0.377   0.850
 1274SOL    HW2 3851   1.849   0.313   0.734
 1275SOL     OW 3852   0.356   3.594   3.898
 1275SOL    HW1 3853   0.346   3.679   3.845
 1275SOL    HW2 3854   0.359   3.516   3.835
 1276SOL     OW 3855   1.041   4.004   2.904
 1276SOL    HW1 3856   1.098   4.076   2.942
 1276SOL    HW2 3857   0.945   4.034   2.903
 1277SOL     OW 3858   3.892   0.072   1.923
 1277SOL    HW1 3859   3.987   0.066   1.951
 1277SOL    HW2 3860   3.834   0.081   2.004
 1278SOL     OW 3861   1.122   4.229   1.885
 1278SOL    HW1 3862   1.109   4.326   1.908
 1278SOL    HW2 3863   1.202   4.194   1.933
 1279SOL     OW 3864   1.964   3.218   0.918
 1279SOL    HW1 3865   1.988   3.199   1.013
 1279SOL    HW2 3866   2.029   3.171   0.857
 1280SOL     OW 3867   3.772   4.298   1.288
 1280SOL    HW1 3868   3.699   4.334   1.347
 1280SOL    HW2 3869   3.736   4.284   1.196
 1281SOL     OW 3870   0.644   2.158   0.138
 1281SOL    HW1 3871   0.642   2.102   0.055
 1281SOL    HW2 3872   0.586   2.116   0.208
 1282SOL     OW 3873   2.188   1.931   4.135
 1282SOL    HW1 3874   2.112   1.960   4.077
 1282SOL    HW2 3875   2.272   1.976   4.106
 1283SOL     OW 3876   1.712   1.665   3.855
 1283SOL    HW1 3877   1.671   1.576   3.873
 1283SOL    HW2 3878   1.809   1.663   3.879
 1284SOL     OW 3879   4.178   0.896   1.841
 1284SOL    HW1 3880   4.181   0.929   1.746
 1284SOL    HW2 3881   4.270   0.899   1.880
 1285SOL     OW 3882   4.653   2.198   4.116
 1285SOL    HW1 3883   4.614   2.173   4.027
 1285SOL    HW2 3884   4.607   2.146   4.188
 1286SOL     OW 3885   3.752   1.731   1.886
 1286SOL    HW1 3886   3.849   1.755   1.890
 1286SOL    HW2 3887   3.734   1.651   1.943
 1287SOL     OW 3888   0.737   4.167   4.603
 1287SOL    HW1 3889   0.832   4.195   4.592
 1287SOL    HW2 3890   0.683   4.245   4.634
 1288SOL     OW 3891   4.368   4.962   4.652
 1288SOL    HW1 3892   4.329   4.995   4.566
 1288SOL    HW2 3893   4.438   5.026   4.684
 1289SOL     OW 3894   3.548   3.740   3.133
 1289SOL    HW1 3895   3.471   3.802   3.121
 1289SOL    HW2 3896   3.556   3.679   3.054
 1290SOL     OW 3897   0.188   1.506   2.584
 1290SOL    HW1 3898   0.227   1.443   2.651
 1290SOL    HW2 3899   0.185   1.462   2.495
 1291SOL     OW 3900   4.365   3.852   0.812
 1291SOL    HW1 3901   4.444   3.887   0.761
 1291SOL    HW2 3902   4.281   3.868   0.759
 1292SOL     OW 3903   1.908   1.459   1.021
 1292SOL    HW1 3904   1.839   1.482   1.089
 1292SOL    HW2 3905   1.933   1.541   0.969
 1293SOL     OW 3906   2.227   1.729   3.614
 1293SOL    HW1 3907   2.195   1.787   3.538
 1293SOL    HW2 3908   2.208   1.633   3.593
 1294SOL     OW 3909   3.594   0.999   0.658
 1294SOL    HW1 3910   3.532   1.075   0.677
 1294SOL    HW2 3911   3.563   0.949   0.578
 1295SOL     OW 3912   4.514   0.349   1.875
 1295SOL    HW1 3913   4.545   0.255   1.891
 1295SOL    HW2 3914   4.473   0.355   1.784
 1296SOL     OW 3915   1.005   0.239   3.718
 1296SOL    HW1 3916   1.093   0.287   3.723
 1296SOL    HW2 3917   0.936   0.290   3.771
 1297SOL     OW 3918   2.341   4.926   2.730
 1297SOL    HW1 3919   2.385   5.011   2.759
 1297SOL    HW2 3920   2.412   4.862   2.698
 1298SOL     OW 3921   4.420   3.066   3.340
 1298SOL    HW1 3922   4.453   3.091   3.249
 1298SOL    HW2 3923   4.356   2.990   3.333
 1299SOL     OW 3924   0.718   1.711   3.827
 1299SOL    HW1 3925   0.787   1.645   3.858
 1299SOL    HW2 3926   0.731   1.728   3.729
 1300SOL     OW 3927   4.230   2.278   2.304
 1300SOL    HW1 3928   4.142   2.323   2.321
 1300SOL    HW2 3929   4.288   2.339   2.250
 1301SOL     OW 3930   3.908   4.000   2.756
 1301SOL    HW1 3931   3.908   4.085   2.704
 1301SOL    HW2 3932   3.839   4.005   2.828
 1302SOL     OW 3933   4.591   2.910   4.341
 1302SOL    HW1 3934   4.571   3.008   4.340
 1302SOL    HW2 3935   4.660   2.891   4.411
 1303SOL     OW 3936   3.058   3.947   1.119
 1303SOL    HW1 3937   3.110   3.891   1.054
 1303SOL    HW2 3938   2.971   3.902   1.139
 1304SOL     OW 3939   2.370   2.563   0.287
 1304SOL    HW1 3940   2.315   2.587   0.367
 1304SOL    HW2 3941   2.317   2.580   0.204
 1305SOL     OW 3942   0.155   2.535   0.125
 1305SOL    HW1 3943   0.191   2.628   0.132
 1305SOL    HW2 3944   0.131   2.502   0.216
 1306SOL     OW 3945   3.969   0.359   2.214
 1306SOL    HW1 3946   3.872   0.360   2.188
 1306SOL    HW2 3947   4.012   0.445   2.186
 1307SOL     OW 3948   4.474   4.907   0.772
 1307SOL    HW1 3949   4.467   4.835   0.842
 1307SOL    HW2 3950   4.547   4.885   0.709
 1308SOL     OW 3951   4.427   4.675   0.055
 1308SOL    HW1 3952   4.466   4.583   0.055
 1308SOL    HW2 3953   4.501   4.742   0.067
 1309SOL     OW 3954   2.585   1.177   4.977
 1309SOL    HW1 3955   2.645   1.252   4.951
 1309SOL    HW2 3956   2.495   1.189   4.935
 1310SOL     OW 3957   3.869   1.660   0.137
 1310SOL    HW1 3958   3.798   1.701   0.194
 1310SOL    HW2 3959   3.914   1.586   0.187
 1311SOL     OW 3960   4.950   3.858   1.968
 1311SOL    HW1 3961   4.860   3.819   1.987
 1311SOL    HW2 3962   5.021   3.795   1.997
 1312SOL     OW 3963   0.572   0.420   2.052
 1312SOL    HW1 3964   0.623   0.505   2.064
 1312SOL    HW2 3965   0.634   0.347   2.025
 1313SOL     OW 3966   2.370   0.318   0.871
 1313SOL    HW1 3967   2.354   0.417   0.871
 1313SOL    HW2 3968   2.460   0.299   0.912
 1314SOL     OW 3969   2.318   3.749   0.572
 1314SOL    HW1 3970   2.415   3.730   0.589
 1314SOL    HW2 3971   2.284   3.688   0.501
 1315SOL     OW 3972   2.293   0.606   2.430
 1315SOL    HW1 3973   2.294   0.664   2.349
 1315SOL    HW2 3974   2.200   0.579   2.452
 1316SOL     OW 3975   3.518   1.284   2.842
 1316SOL    HW1 3976   3.441   1.315   2.787
 1316SOL    HW2 3977   3.574   1.221   2.787
 1317SOL     OW 3978   1.746   0.983   0.560
 1317SOL    HW1 3979   1.657   0.937   0.555
 1317SOL    HW2 3980   1.769   1.022   0.471
 1318SOL     OW 3981   3.480   3.748   0.474
 1318SOL    HW1 3982   3.396   3.793   0.503
 1318SOL    HW2 3983   3.547   3.751   0.547
 1319SOL     OW 3984   4.461   2.112   0.035
 1319SOL    HW1 3985   4.537   2.054   0.006
 1319SOL    HW2 3986   4.463   2.197   5.017
 1320SOL     OW 3987   1.390   3.876   2.018
 1320SOL    HW1 3988   1.378   3.827   1.931
 1320SOL    HW2 3989   1.306   3.925   2.040
 1321SOL     OW 3990   1.047   3.135   0.831
 1321SOL    HW1 3991   0.979   3.200   0.867
 1321SOL    HW2 3992   1.020   3.042   0.854
 1322SOL     OW 3993   4.389   4.408   1.752
 1322SOL    HW1 3994   4.482   4.420   1.787
 1322SOL    HW2 3995   4.334   4.487   1.778
 1323SOL     OW 3996   0.371   2.665   2.687
 1323SOL    HW1 3997   0.280   2.697   2.715
 1323SOL    HW2 3998   0.364   2.575   2.645
 1324SOL     OW 3999   4.211   0.523   4.911
 1324SOL    HW1 4000   4.308   0.514   4.933
 1324SOL    HW2 4001   4.162   0.442   4.945
 1325SOL     OW 4002   3.247   3.535   0.455
 1325SOL    HW1 4003   3.296   3.448   0.468
 1325SOL    HW2 4004   3.252   3.589   0.539
 1326SOL     OW 4005   0.853   1.655   0.614
 1326SOL    HW1 4006   0.772   1.598   0.626
 1326SOL    HW2 4007   0.935   1.599   0.630
 1327SOL     OW 4008   1.676   2.437   2.208
 1327SOL    HW1 4009   1.641   2.345   2.225
 1327SOL    HW2 4010   1.776   2.435   2.213
 1328SOL     OW 4011   4.143   1.986   2.881
 1328SOL    HW1 4012   4.114   1.909   2.939
 1328SOL    HW2 4013   4.184   1.950   2.797
 1329SOL     OW 4014   4.082   2.100   2.171
 1329SOL    HW1 4015   4.139   2.147   2.238
 1329SOL    HW2 4016   4.131   2.089   2.085
 1330SOL     OW 4017   2.033   0.446   2.798
 1330SOL    HW1 4018   1.963   0.466   2.866
 1330SOL    HW2 4019   2.003   0.371   2.740
 1331SOL     OW 4020   4.681   3.456   4.373
 1331SOL    HW1 4021   4.687   3.554   4.389
 1331SOL    HW2 4022   4.633   3.412   4.449
 1332SOL     OW 4023   3.747   0.634   3.230
 1332SOL    HW1 4024   3.712   0.568   3.163
 1332SOL    HW2 4025   3.737   0.597   3.322
 1333SOL     OW 4026   3.759   1.082   3.017
 1333SOL    HW1 4027   3.732   1.169   3.057
 1333SOL    HW2 4028   3.844   1.050   3.060
 1334SOL     OW 4029   3.612   2.510   1.140
 1334SOL    HW1 4030   3.696   2.526   1.193
 1334SOL    HW2 4031   3.535   2.555   1.185
 1335SOL     OW 4032   0.872   2.677   4.676
 1335SOL    HW1 4033   0.922   2.750   4.631
 1335SOL    HW2 4034   0.777   2.705   4.690
 1336SOL     OW 4035   0.878   4.103   4.216
 1336SOL    HW1 4036   0.791   4.126   4.173
 1336SOL    HW2 4037   0.950   4.162   4.181
 1337SOL     OW 4038   1.745   4.052   0.914
 1337SOL    HW1 4039   1.785   4.031   1.002
 1337SOL    HW2 4040   1.702   4.143   0.918
 1338SOL     OW 4041   2.441   4.780   4.705
 1338SOL    HW1 4042   2.483   4.800   4.793
 1338SOL    HW2 4043   2.496   4.820   4.632
 1339SOL     OW 4044   0.642   1.465   4.727
 1339SOL    HW1 4045   0.543   1.451   4.731
 1339SOL    HW2 4046   0.684   1.437   4.814
 1340SOL     OW 4047   1.091   1.211   0.323
 1340SOL    HW1 4048   1.123   1.161   0.242
 1340SOL    HW2 4049   0.992   1.218   0.321
 1341SOL     OW 4050   2.160   0.123   2.734
 1341SOL    HW1 4051   2.254   0.151   2.755
 1341SOL    HW2 4052   2.148   0.027   2.761
 1342SOL     OW 4053   2.970   2.609   0.766
 1342SOL    HW1 4054   3.049   2.599   0.826
 1342SOL    HW2 4055   2.893   2.647   0.817
 1343SOL     OW 4056   4.701   1.797   1.884
 1343SOL    HW1 4057   4.734   1.849   1.963
 1343SOL    HW2 4058   4.615   1.837   1.852
 1344SOL     OW 4059   0.881   1.993   1.373
 1344SOL    HW1 4060   0.949   2.035   1.433
 1344SOL    HW2 4061   0.925   1.932   1.308
 1345SOL     OW 4062   3.895   4.732   4.830
 1345SOL    HW1 4063   3.970   4.782   4.786
 1345SOL    HW2 4064   3.897   4.748   4.928
 1346SOL     OW 4065   1.193   1.313   3.760
 1346SOL    HW1 4066   1.234   1.315   3.669
 1346SOL    HW2 4067   1.264   1.315   3.830
 1347SOL     OW 4068   1.955   1.984   2.455
 1347SOL    HW1 4069   1.952   1.912   2.386
 1347SOL    HW2 4070   1.908   1.952   2.538
 1348SOL     OW 4071   3.228   2.885   0.928
 1348SOL    HW1 4072   3.220   2.824   0.849
 1348SOL    HW2 4073   3.293   2.958   0.907
 1349SOL     OW 4074   2.527   2.166   2.800
 1349SOL    HW1 4075   2.595   2.100   2.767
 1349SOL    HW2 4076   2.459   2.183   2.729
 1350SOL     OW 4077   1.454   0.159   2.754
 1350SOL    HW1 4078   1.373   0.147   2.697
 1350SOL    HW2 4079   1.491   0.251   2.742
 1351SOL     OW 4080   1.830   2.471   1.908
 1351SOL    HW1 4081   1.763   2.522   1.964
 1351SOL    HW2 4082   1.840   2.516   1.820
 1352SOL     OW 4083   2.028   4.954   3.886
 1352SOL    HW1 4084   2.108   4.895   3.878
 1352SOL    HW2 4085   1.991   4.947   3.979
 1353SOL     OW 4086   4.852   4.402   0.629
 1353SOL    HW1 4087   4.858   4.307   0.661
 1353SOL    HW2 4088   4.771   4.412   0.570
 1354SOL     OW 4089   3.930   1.025   4.731
 1354SOL    HW1 4090   3.990   0.961   4.683
 1354SOL    HW2 4091   3.959   1.032   4.827
 1355SOL     OW 4092   3.643   2.387   1.933
 1355SOL    HW1 4093   3.686   2.329   2.002
 1355SOL    HW2 4094   3.637   2.337   1.847
 1356SOL     OW 4095   4.454   0.728   1.586
 1356SOL    HW1 4096   4.525   0.796   1.607
 1356SOL    HW2 4097   4.397   0.762   1.511
 1357SOL     OW 4098   1.488   2.754   4.915
 1357SOL    HW1 4099   1.583   2.775   4.940
 1357SOL    HW2 4100   1.456   2.676   4.969
 1358SOL     OW 4101   3.013   2.971   1.101
 1358SOL    HW1 4102   3.064   2.942   1.020
 1358SOL    HW2 4103   2.925   2.922   1.105
 1359SOL     OW 4104   0.744   1.419   0.755
 1359SOL    HW1 4105   0.828   1.372   0.731
 1359SOL    HW2 4106   0.698   1.371   0.829
 1360SOL     OW 4107   0.474   0.037   3.938
 1360SOL    HW1 4108   0.508   0.122   3.896
 1360SOL    HW2 4109   0.435   0.057   4.027
 1361SOL     OW 4110   1.497   0.453   2.176
 1361SOL    HW1 4111   1.581   0.424   2.222
 1361SOL    HW2 4112   1.520   0.492   2.087
 1362SOL     OW 4113   2.494   4.776   2.095
 1362SOL    HW1 4114   2.463   4.698   2.150
 1362SOL    HW2 4115   2.419   4.808   2.037
 1363SOL     OW 4116   0.305   3.759   0.355
 1363SOL    HW1 4117   0.293   3.663   0.381
 1363SOL    HW2 4118   0.256   3.817   0.419
 1364SOL     OW 4119   3.976   0.994   4.072
 1364SOL    HW1 4120   3.885   1.021   4.038
 1364SOL    HW2 4121   4.007   0.912   4.024
 1365SOL     OW 4122   2.660   1.795   4.914
 1365SOL    HW1 4123   2.623   1.740   4.839
 1365SOL    HW2 4124   2.743   1.753   4.949
 1366SOL     OW 4125   4.172   2.615   3.898
 1366SOL    HW1 4126   4.255   2.666   3.878
 1366SOL    HW2 4127   4.132   2.649   3.983
 1367SOL     OW 4128   2.920   2.446   1.720
 1367SOL    HW1 4129   2.823   2.424   1.730
 1367SOL    HW2 4130   2.958   2.473   1.808
 1368SOL     OW 4131   0.868   4.442   4.554
 1368SOL    HW1 4132   0.814   4.525   4.565
 1368SOL    HW2 4133   0.886   4.402   4.644
 1369SOL     OW 4134   1.855   0.780   0.822
 1369SOL    HW1 4135   1.894   0.689   0.807
 1369SOL    HW2 4136   1.773   0.772   0.879
 1370SOL     OW 4137   2.834   1.953   4.178
 1370SOL    HW1 4138   2.825   1.980   4.082
 1370SOL    HW2 4139   2.924   1.913   4.192
 1371SOL     OW 4140   4.117   3.171   0.103
 1371SOL    HW1 4141   4.136   3.074   0.088
 1371SOL    HW2 4142   4.066   3.182   0.188
 1372SOL     OW 4143   0.978   4.604   4.023
 1372SOL    HW1 4144   0.890   4.637   4.059
 1372SOL    HW2 4145   1.040   4.586   4.100
 1373SOL     OW 4146   0.126   3.234   1.707
 1373SOL    HW1 4147   0.062   3.304   1.675
 1373SOL    HW2 4148   0.122   3.229   1.807
 1374SOL     OW 4149   1.198   1.464   4.622
 1374SOL    HW1 4150   1.101   1.446   4.606
 1374SOL    HW2 4151   1.208   1.529   4.697
 1375SOL     OW 4152   3.230   0.169   4.214
 1375SOL    HW1 4153   3.184   0.182   4.127
 1375SOL    HW2 4154   3.299   0.097   4.205
 1376SOL     OW 4155   4.638   4.545   3.566
 1376SOL    HW1 4156   4.695   4.617   3.604
 1376SOL    HW2 4157   4.628   4.558   3.467
 1377SOL     OW 4158   3.648   3.338   3.334
 1377SOL    HW1 4159   3.624   3.431   3.360
 1377SOL    HW2 4160   3.579   3.275   3.370
 1378SOL     OW 4161   0.658   1.627   4.290
 1378SOL    HW1 4162   0.607   1.703   4.333
 1378SOL    HW2 4163   0.616   1.606   4.202
 1379SOL     OW 4164   3.296   2.402   0.199
 1379SOL    HW1 4165   3.232   2.469   0.161
 1379SOL    HW2 4166   3.286   2.399   0.299
 1380SOL     OW 4167   3.403   1.659   2.673
 1380SOL    HW1 4168   3.378   1.563   2.679
 1380SOL    HW2 4169   3.503   1.668   2.674
 1381SOL     OW 4170   4.405   0.093   4.428
 1381SOL    HW1 4171   4.495   0.052   4.417
 1381SOL    HW2 4172   4.406   0.156   4.505
 1382SOL     OW 4173   1.745   3.756   3.889
 1382SOL    HW1 4174   1.648   3.740   3.871
 1382SOL    HW2 4175   1.798   3.734   3.807
 1383SOL     OW 4176   3.615   3.856   1.592
 1383SOL    HW1 4177   3.543   3.855   1.660
 1383SOL    HW2 4178   3.641   3.762   1.568
 1384SOL     OW 4179   3.705   3.200   0.638
 1384SOL    HW1 4180   3.633   3.225   0.702
 1384SOL    HW2 4181   3.675   3.220   0.544
 1385SOL     OW 4182   2.899   2.467   1.422
 1385SOL    HW1 4183   2.881   2.468   1.520
 1385SOL    HW2 4184   2.812   2.466   1.372
 1386SOL     OW 4185   0.532   2.980   0.913
 1386SOL    HW1 4186   0.440   2.990   0.876
 1386SOL    HW2 4187   0.539   2.895   0.964
 1387SOL     OW 4188   0.968   1.331   4.022
 1387SOL    HW1 4189   0.895   1.293   3.966
 1387SOL    HW2 4190   1.023   1.394   3.968
 1388SOL     OW 4191   3.748   4.043   0.749
 1388SOL    HW1 4192   3.817   4.041   0.676
 1388SOL    HW2 4193   3.734   3.951   0.785
 1389SOL     OW 4194   0.637   3.909   5.031
 1389SOL    HW1 4195   0.649   3.874   0.089
 1389SOL    HW2 4196   0.548   3.881   4.995
 1390SOL     OW 4197   4.143   0.729   1.110
 1390SOL    HW1 4198   4.130   0.631   1.093
 1390SOL    HW2 4199   4.064   0.765   1.159
 1391SOL     OW 4200   1.834   0.701   4.742
 1391SOL    HW1 4201   1.889   0.617   4.737
 1391SOL    HW2 4202   1.816   0.723   4.838
 1392SOL     OW 4203   4.138   3.134   1.382
 1392SOL    HW1 4204   4.195   3.053   1.388
 1392SOL    HW2 4205   4.145   3.174   1.290
 1393SOL     OW 4206   0.580   2.170   0.740
 1393SOL    HW1 4207   0.619   2.261   0.756
 1393SOL    HW2 4208   0.653   2.105   0.722
 1394SOL     OW 4209   2.183   1.269   0.909
 1394SOL    HW1 4210   2.212   1.345   0.851
 1394SOL    HW2 4211   2.173   1.301   1.003
 1395SOL     OW 4212   3.772   0.068   3.242
 1395SOL    HW1 4213   3.828   0.017   3.177
 1395SOL    HW2 4214   3.677   0.041   3.234
 1396SOL     OW 4215   1.123   2.552   0.193
 1396SOL    HW1 4216   1.096   2.539   0.097
 1396SOL    HW2 4217   1.221   2.532   0.202
 1397SOL     OW 4218   1.149   2.141   4.569
 1397SOL    HW1 4219   1.142   2.191   4.483
 1397SOL    HW2 4220   1.118   2.199   4.644
 1398SOL     OW 4221   1.817   1.074   2.082
 1398SOL    HW1 4222   1.782   1.087   2.174
 1398SOL    HW2 4223   1.867   1.156   2.053
 1399SOL     OW 4224   1.040   1.473   0.683
 1399SOL    HW1 4225   1.091   1.388   0.667
 1399SOL    HW2 4226   1.042   1.495   0.781
 1400SOL     OW 4227   4.191   3.234   1.762
 1400SOL    HW1 4228   4.160   3.183   1.842
 1400SOL    HW2 4229   4.270   3.188   1.721
 1401SOL     OW 4230   4.192   5.007   2.114
 1401SOL    HW1 4231   4.229   4.921   2.078
 1401SOL    HW2 4232   4.227   5.023   2.206
 1402SOL     OW 4233   4.866   4.050   1.717
 1402SOL    HW1 4234   4.950   4.001   1.738
 1402SOL    HW2 4235   4.818   4.072   1.802
 1403SOL     OW 4236   4.104   0.422   1.424
 1403SOL    HW1 4237   4.109   0.349   1.492
 1403SOL    HW2 4238   4.132   0.388   1.335
 1404SOL     OW 4239   3.119   3.401   3.659
 1404SOL    HW1 4240   3.037   3.375   3.711
 1404SOL    HW2 4241   3.154   3.321   3.611
 1405SOL     OW 4242   2.227   3.457   0.541
 1405SOL    HW1 4243   2.141   3.408   0.526
 1405SOL    HW2 4244   2.276   3.416   0.617
 1406SOL     OW 4245   1.809   4.422   2.074
 1406SOL    HW1 4246   1.867   4.367   2.134
 1406SOL    HW2 4247   1.855   4.509   2.054
 1407SOL     OW 4248   3.526   4.143   1.381
 1407SOL    HW1 4249   3.617   4.105   1.393
 1407SOL    HW2 4250   3.479   4.096   1.306
 1408SOL     OW 4251   4.689   3.963   4.665
 1408SOL    HW1 4252   4.747   3.886   4.692
 1408SOL    HW2 4253   4.725   4.005   4.582
 1409SOL     OW 4254   4.078   2.293   3.115
 1409SOL    HW1 4255   4.073   2.270   3.212
 1409SOL    HW2 4256   4.103   2.389   3.104
 1410SOL     OW 4257   1.723   3.062   3.489
 1410SOL    HW1 4258   1.727   3.161   3.478
 1410SOL    HW2 4259   1.689   3.020   3.405
 1411SOL     OW 4260   2.334   2.814   4.067
 1411SOL    HW1 4261   2.248   2.827   4.019
 1411SOL    HW2 4262   2.329   2.857   4.157
 1412SOL     OW 4263   1.991   0.298   1.535
 1412SOL    HW1 4264   2.001   0.386   1.582
 1412SOL    HW2 4265   2.054   0.294   1.458
 1413SOL     OW 4266   3.581   2.995   0.359
 1413SOL    HW1 4267   3.524   3.061   0.408
 1413SOL    HW2 4268   3.651   2.959   0.420
 1414SOL     OW 4269   4.649   3.564   0.353
 1414SOL    HW1 4270   4.741   3.580   0.388
 1414SOL    HW2 4271   4.645   3.592   0.257
 1415SOL     OW 4272   3.827   2.015   2.260
 1415SOL    HW1 4273   3.925   2.002   2.273
 1415SOL    HW2 4274   3.811   2.070   2.179
 1416SOL     OW 4275   3.547   3.754   2.444
 1416SOL    HW1 4276   3.481   3.714   2.508
 1416SOL    HW2 4277   3.569   3.687   2.373
 1417SOL     OW 4278   3.668   0.723   2.947
 1417SOL    HW1 4279   3.750   0.744   2.999
 1417SOL    HW2 4280   3.690   0.716   2.850
 1418SOL     OW 4281   2.587   1.694   2.653
 1418SOL    HW1 4282   2.554   1.600   2.663
 1418SOL    HW2 4283   2.509   1.756   2.641
 1419SOL     OW 4284   1.511   2.241   0.897
 1419SOL    HW1 4285   1.582   2.190   0.945
 1419SOL    HW2 4286   1.473   2.311   0.958
 1420SOL     OW 4287   1.959   0.340   1.921
 1420SOL    HW1 4288   1.886   0.272   1.917
 1420SOL    HW2 4289   1.983   0.368   1.829
 1421SOL     OW 4290   0.484   4.346   0.174
 1421SOL    HW1 4291   0.517   4.304   0.089
 1421SOL    HW2 4292   0.468   4.275   0.242
 1422SOL     OW 4293   1.488   0.629   0.222
 1422SOL    HW1 4294   1.490   0.572   0.139
 1422SOL    HW2 4295   1.394   0.653   0.243
 1423SOL     OW 4296   0.774   3.554   2.511
 1423SOL    HW1 4297   0.692   3.517   2.555
 1423SOL    HW2 4298   0.773   3.654   2.518
 1424SOL     OW 4299   4.538   3.058   0.373
 1424SOL    HW1 4300   4.449   3.087   0.409
 1424SOL    HW2 4301   4.529   3.038   0.276
 1425SOL     OW 4302   2.364   2.519   3.310
 1425SOL    HW1 4303   2.403   2.598   3.358
 1425SOL    HW2 4304   2.270   2.540   3.283
 1426SOL     OW 4305   2.858   3.224   2.584
 1426SOL    HW1 4306   2.786   3.291   2.567
 1426SOL    HW2 4307   2.884   3.227   2.680
 1427SOL     OW 4308   1.725   3.406   2.141
 1427SOL    HW1 4309   1.629   3.403   2.113
 1427SOL    HW2 4310   1.783   3.392   2.062
 1428SOL     OW 4311   2.557   4.558   1.811
 1428SOL    HW1 4312   2.542   4.579   1.714
 1428SOL    HW2 4313   2.564   4.459   1.822
 1429SOL     OW 4314   0.776   0.306   1.536
 1429SOL    HW1 4315   0.751   0.362   1.457
 1429SOL    HW2 4316   0.789   0.211   1.506
 1430SOL     OW 4317   2.245   2.381   0.791
 1430SOL    HW1 4318   2.198   2.306   0.837
 1430SOL    HW2 4319   2.196   2.405   0.707
 1431SOL     OW 4320   2.011   0.886   3.676
 1431SOL    HW1 4321   1.963   0.926   3.754
 1431SOL    HW2 4322   2.095   0.842   3.706
 1432SOL     OW 4323   3.980   4.928   5.009
 1432SOL    HW1 4324   4.055   4.868   0.001
 1432SOL    HW2 4325   3.927   4.953   0.056
 1433SOL     OW 4326   0.215   1.394   3.563
 1433SOL    HW1 4327   0.270   1.320   3.525
 1433SOL    HW2 4328   0.123   1.391   3.525
 1434SOL     OW 4329   2.983   4.328   3.500
 1434SOL    HW1 4330   2.976   4.229   3.503
 1434SOL    HW2 4331   3.010   4.362   3.590
 1435SOL     OW 4332   3.684   2.385   3.698
 1435SOL    HW1 4333   3.640   2.443   3.766
 1435SOL    HW2 4334   3.620   2.364   3.625
 1436SOL     OW 4335   1.244   1.730   2.258
 1436SOL    HW1 4336   1.148   1.760   2.259
 1436SOL    HW2 4337   1.301   1.801   2.299
 1437SOL     OW 4338   1.842   1.658   2.967
 1437SOL    HW1 4339   1.901   1.732   2.999
 1437SOL    HW2 4340   1.857   1.643   2.869
 1438SOL     OW 4341   5.016   4.640   3.915
 1438SOL    HW1 4342   0.014   4.551   3.887
 1438SOL    HW2 4343   0.034   4.673   3.994
 1439SOL     OW 4344   0.109   4.122   1.323
 1439SOL    HW1 4345   0.122   4.025   1.345
 1439SOL    HW2 4346   0.134   4.138   1.228
 1440SOL     OW 4347   1.077   3.148   1.946
 1440SOL    HW1 4348   1.162   3.134   1.996
 1440SOL    HW2 4349   1.022   3.064   1.950
 1441SOL     OW 4350   3.282   2.706   4.709
 1441SOL    HW1 4351   3.256   2.691   4.613
 1441SOL    HW2 4352   3.364   2.653   4.730
 1442SOL     OW 4353   1.908   0.461   3.225
 1442SOL    HW1 4354   1.828   0.519   3.242
 1442SOL    HW2 4355   1.890   0.401   3.147
 1443SOL     OW 4356   3.542   3.136   3.758
 1443SOL    HW1 4357   3.614   3.131   3.828
 1443SOL    HW2 4358   3.583   3.154   3.669
 1444SOL     OW 4359   0.592   4.906   0.882
 1444SOL    HW1 4360   0.528   4.975   0.847
 1444SOL    HW2 4361   0.617   4.929   0.976
 1445SOL     OW 4362   4.475   2.746   3.097
 1445SOL    HW1 4363   4.436   2.672   3.043
 1445SOL    HW2 4364   4.430   2.750   3.186
 1446SOL     OW 4365   3.382   2.837   4.383
 1446SOL    HW1 4366   3.456   2.777   4.354
 1446SOL    HW2 4367   3.303   2.823   4.324
 1447SOL     OW 4368   3.353   3.781   1.980
 1447SOL    HW1 4369   3.435   3.833   1.958
 1447SOL    HW2 4370   3.377   3.687   2.004
 1448SOL     OW 4371   2.851   0.194   0.773
 1448SOL    HW1 4372   2.839   0.100   0.742
 1448SOL    HW2 4373   2.775   0.250   0.740
 1449SOL     OW 4374   0.419   0.070   1.790
 1449SOL    HW1 4375   0.498   0.126   1.768
 1449SOL    HW2 4376   0.355   0.071   1.712
 1450SOL     OW 4377   1.737   0.920   3.251
 1450SOL    HW1 4378   1.770   0.974   3.174
 1450SOL    HW2 4379   1.784   0.948   3.334
 1451SOL     OW 4380   1.874   3.760   0.872
 1451SOL    HW1 4381   1.917   3.673   0.847
 1451SOL    HW2 4382   1.780   3.762   0.837
 1452SOL     OW 4383   4.733   0.051   1.015
 1452SOL    HW1 4384   4.664   0.118   1.043
 1452SOL    HW2 4385   4.723   5.002   1.068
 1453SOL     OW 4386   1.458   0.647   1.282
 1453SOL    HW1 4387   1.527   0.584   1.246
 1453SOL    HW2 4388   1.408   0.688   1.207
 1454SOL     OW 4389   1.490   1.452   2.972
 1454SOL    HW1 4390   1.409   1.510   2.976
 1454SOL    HW2 4391   1.542   1.472   2.888
 1455SOL     OW 4392   1.396   4.175   1.070
 1455SOL    HW1 4393   1.456   4.251   1.044
 1455SOL    HW2 4394   1.305   4.211   1.091
 1456SOL     OW 4395   4.578   2.913   5.014
 1456SOL    HW1 4396   4.654   2.960   4.970
 1456SOL    HW2 4397   4.609   2.827   0.020
 1457SOL     OW 4398   3.651   3.322   2.557
 1457SOL    HW1 4399   3.722   3.385   2.589
 1457SOL    HW2 4400   3.611   3.274   2.635
 1458SOL     OW 4401   0.431   4.579   4.002
 1458SOL    HW1 4402   0.447   4.560   3.905
 1458SOL    HW2 4403   0.402   4.496   4.048
 1459SOL     OW 4404   2.230   0.830   0.556
 1459SOL    HW1 4405   2.323   0.797   0.541
 1459SOL    HW2 4406   2.233   0.924   0.590
 1460SOL     OW 4407   0.072   1.504   1.628
 1460SOL    HW1 4408   0.034   1.583   1.581
 1460SOL    HW2 4409   0.107   1.532   1.717
 1461SOL     OW 4410   0.951   4.934   1.259
 1461SOL    HW1 4411   0.933   4.835   1.265
 1461SOL    HW2 4412   1.042   4.953   1.294
 1462SOL     OW 4413   1.930   0.880   2.710
 1462SOL    HW1 4414   2.011   0.921   2.753
 1462SOL    HW2 4415   1.863   0.857   2.781
 1463SOL     OW 4416   1.474   2.756   4.365
 1463SOL    HW1 4417   1.477   2.670   4.314
 1463SOL    HW2 4418   1.458   2.736   4.462
 1464SOL     OW 4419   0.921   0.048   4.149
 1464SOL    HW1 4420   0.846   5.034   4.103
 1464SOL    HW2 4421   1.007   0.026   4.104
 1465SOL     OW 4422   2.947   2.770   1.776
 1465SOL    HW1 4423   2.879   2.707   1.813
 1465SOL    HW2 4424   2.989   2.822   1.850
 1466SOL     OW 4425   3.264   0.435   1.061
 1466SOL    HW1 4426   3.199   0.474   0.996
 1466SOL    HW2 4427   3.215   0.384   1.132
 1467SOL     OW 4428   1.067   2.615   0.761
 1467SOL    HW1 4429   1.138   2.547   0.781
 1467SOL    HW2 4430   1.028   2.597   0.671
 1468SOL     OW 4431   3.015   0.865   1.302
 1468SOL    HW1 4432   3.055   0.794   1.360
 1468SOL    HW2 4433   2.933   0.828   1.257
 1469SOL     OW 4434   1.860   1.940   2.716
 1469SOL    HW1 4435   1.899   1.850   2.734
 1469SOL    HW2 4436   1.818   1.975   2.799
 1470SOL     OW 4437   1.626   1.508   2.476
 1470SOL    HW1 4438   1.612   1.411   2.453
 1470SOL    HW2 4439   1.711   1.540   2.435
 1471SOL     OW 4440   2.269   4.916   0.506
 1471SOL    HW1 4441   2.189   4.932   0.565
 1471SOL    HW2 4442   2.239   4.906   0.411
 1472SOL     OW 4443   2.259   0.631   3.765
 1472SOL    HW1 4444   2.275   0.703   3.831
 1472SOL    HW2 4445   2.277   0.665   3.673
 1473SOL     OW 4446   4.257   1.407   0.527
 1473SOL    HW1 4447   4.304   1.392   0.614
 1473SOL    HW2 4448   4.187   1.477   0.538
 1474SOL     OW 4449   2.823   2.372   0.840
 1474SOL    HW1 4450   2.869   2.426   0.770
 1474SOL    HW2 4451   2.880   2.366   0.921
 1475SOL     OW 4452   1.547   0.025   2.519
 1475SOL    HW1 4453   1.504   0.107   2.481
 1475SOL    HW2 4454   1.544   0.030   2.619
 1476SOL     OW 4455   2.847   2.781   1.382
 1476SOL    HW1 4456   2.780   2.707   1.382
 1476SOL    HW2 4457   2.939   2.743   1.375
 1477SOL     OW 4458   1.144   3.987   1.144
 1477SOL    HW1 4459   1.070   3.926   1.173
 1477SOL    HW2 4460   1.135   4.005   1.046
 1478SOL     OW 4461   2.576   0.735   2.051
 1478SOL    HW1 4462   2.572   0.714   1.953
 1478SOL    HW2 4463   2.631   0.817   2.065
 1479SOL     OW 4464   1.719   4.160   3.298
 1479SOL    HW1 4465   1.734   4.246   3.249
 1479SOL    HW2 4466   1.621   4.143   3.307
 1480SOL     OW 4467   3.475   3.990   0.904
 1480SOL    HW1 4468   3.541   4.065   0.914
 1480SOL    HW2 4469   3.390   4.014   0.950
 1481SOL     OW 4470   4.087   4.702   1.475
 1481SOL    HW1 4471   4.156   4.720   1.405
 1481SOL    HW2 4472   4.037   4.619   1.452
 1482SOL     OW 4473   0.279   2.747   3.160
 1482SOL    HW1 4474   0.332   2.730   3.243
 1482SOL    HW2 4475   0.206   2.813   3.179
 1483SOL     OW 4476   0.743   3.823   2.547
 1483SOL    HW1 4477   0.822   3.843   2.606
 1483SOL    HW2 4478   0.703   3.909   2.515
 1484SOL     OW 4479   1.656   3.724   0.533
 1484SOL    HW1 4480   1.630   3.798   0.595
 1484SOL    HW2 4481   1.735   3.676   0.570
 1485SOL     OW 4482   4.550   1.515   1.551
 1485SOL    HW1 4483   4.509   1.604   1.528
 1485SOL    HW2 4484   4.542   1.453   1.473
 1486SOL     OW 4485   1.428   4.402   1.281
 1486SOL    HW1 4486   1.519   4.403   1.324
 1486SOL    HW2 4487   1.362   4.360   1.343
 1487SOL     OW 4488   2.556   1.737   0.141
 1487SOL    HW1 4489   2.572   1.795   0.061
 1487SOL    HW2 4490   2.581   1.787   0.224
 1488SOL     OW 4491   3.134   4.039   1.366
 1488SOL    HW1 4492   3.112   4.136   1.362
 1488SOL    HW2 4493   3.090   3.991   1.289
 1489SOL     OW 4494   3.078   4.447   0.968
 1489SOL    HW1 4495   3.033   4.358   0.980
 1489SOL    HW2 4496   3.122   4.473   1.054
 1490SOL     OW 4497   1.855   1.215   0.929
 1490SOL    HW1 4498   1.876   1.154   1.006
 1490SOL    HW2 4499   1.888   1.307   0.950
 1491SOL     OW 4500   1.840   3.728   3.513
 1491SOL    HW1 4501   1.816   3.723   3.416
 1491SOL    HW2 4502   1.857   3.636   3.549
 1492SOL     OW 4503   4.923   1.443   2.546
 1492SOL    HW1 4504   4.892   1.497   2.468
 1492SOL    HW2 4505   4.844   1.422   2.605
 1493SOL     OW 4506   0.253   4.930   4.528
 1493SOL    HW1 4507   0.214   4.849   4.572
 1493SOL    HW2 4508   0.193   4.960   4.454
 1494SOL     OW 4509   4.138   0.227   4.605
 1494SOL    HW1 4510   4.069   0.186   4.665
 1494SOL    HW2 4511   4.220   0.247   4.658
 1495SOL     OW 4512   4.378   1.773   2.444
 1495SOL    HW1 4513   4.329   1.747   2.528
 1495SOL    HW2 4514   4.394   1.692   2.388
 1496SOL     OW 4515   0.304   4.840   1.369
 1496SOL    HW1 4516   0.282   4.935   1.388
 1496SOL    HW2 4517   0.279   4.783   1.447
 1497SOL     OW 4518   2.866   3.146   1.751
 1497SOL    HW1 4519   2.945   3.101   1.792
 1497SOL    HW2 4520   2.896   3.206   1.677
 1498SOL     OW 4521   3.386   2.121   3.307
 1498SOL    HW1 4522   3.389   2.027   3.273
 1498SOL    HW2 4523   3.454   2.176   3.259
 1499SOL     OW 4524   4.016   2.234   0.182
 1499SOL    HW1 4525   4.092   2.187   0.226
 1499SOL    HW2 4526   4.036   2.246   0.085
 1500SOL     OW 4527   0.307   4.954   3.165
 1500SOL    HW1 4528   0.390   5.008   3.152
 1500SOL    HW2 4529   0.240   4.977   3.094
 1501SOL     OW 4530   4.199   1.263   3.191
 1501SOL    HW1 4531   4.118   1.292   3.140
 1501SOL    HW2 4532   4.247   1.191   3.140
 1502SOL     OW 4533   4.149   2.023   0.937
 1502SOL    HW1 4534   4.219   2.077   0.890
 1502SOL    HW2 4535   4.066   2.078   0.947
 1503SOL     OW 4536   3.413   4.607   4.439
 1503SOL    HW1 4537   3.418   4.648   4.348
 1503SOL    HW2 4538   3.497   4.627   4.489
 1504SOL     OW 4539   0.939   1.000   4.614
 1504SOL    HW1 4540   0.966   0.926   4.676
 1504SOL    HW2 4541   0.873   0.966   4.548
 1505SOL     OW 4542   1.875   0.001   3.526
 1505SOL    HW1 4543   1.892   0.052   3.611
 1505SOL    HW2 4544   1.953   0.012   3.465
 1506SOL     OW 4545   2.120   0.417   4.876
 1506SOL    HW1 4546   2.213   0.380   4.880
 1506SOL    HW2 4547   2.074   0.383   4.794
 1507SOL     OW 4548   2.464   2.434   1.144
 1507SOL    HW1 4549   2.406   2.479   1.076
 1507SOL    HW2 4550   2.476   2.338   1.119
 1508SOL     OW 4551   4.421   2.238   0.447
 1508SOL    HW1 4552   4.497   2.187   0.407
 1508SOL    HW2 4553   4.430   2.334   0.424
 1509SOL     OW 4554   1.120   2.799   4.004
 1509SOL    HW1 4555   1.093   2.730   3.937
 1509SOL    HW2 4556   1.131   2.756   4.093
 1510SOL     OW 4557   4.573   3.645   0.602
 1510SOL    HW1 4558   4.599   3.630   0.507
 1510SOL    HW2 4559   4.531   3.562   0.639
 1511SOL     OW 4560   3.448   0.866   0.469
 1511SOL    HW1 4561   3.381   0.871   0.543
 1511SOL    HW2 4562   3.402   0.871   0.381
 1512SOL     OW 4563   0.234   3.369   2.167
 1512SOL    HW1 4564   0.331   3.372   2.146
 1512SOL    HW2 4565   0.182   3.348   2.084
 1513SOL     OW 4566   3.188   3.905   0.217
 1513SOL    HW1 4567   3.274   3.904   0.269
 1513SOL    HW2 4568   3.184   3.825   0.158
 1514SOL     OW 4569   2.934   4.967   2.359
 1514SOL    HW1 4570   2.884   4.977   2.445
 1514SOL    HW2 4571   2.940   0.020   2.313
 1515SOL     OW 4572   4.048   3.583   2.480
 1515SOL    HW1 4573   4.058   3.521   2.403
 1515SOL    HW2 4574   4.138   3.617   2.506
 1516SOL     OW 4575   2.459   4.017   1.478
 1516SOL    HW1 4576   2.438   4.045   1.385
 1516SOL    HW2 4577   2.487   3.921   1.478
 1517SOL     OW 4578   2.200   0.070   2.137
 1517SOL    HW1 4579   2.121   0.025   2.178
 1517SOL    HW2 4580   2.200   0.167   2.162
 1518SOL     OW 4581   2.329   4.424   4.221
 1518SOL    HW1 4582   2.393   4.412   4.145
 1518SOL    HW2 4583   2.238   4.392   4.194
 1519SOL     OW 4584   1.275   4.690   4.980
 1519SOL    HW1 4585   1.322   4.749   0.010
 1519SOL    HW2 4586   1.323   4.692   4.892
 1520SOL     OW 4587   2.971   1.890   0.469
 1520SOL    HW1 4588   2.964   1.818   0.537
 1520SOL    HW2 4589   2.917   1.866   0.388
 1521SOL     OW 4590   3.862   3.219   4.991
 1521SOL    HW1 4591   3.961   3.220   4.977
 1521SOL    HW2 4592   3.815   3.226   4.903
 1522SOL     OW 4593   1.157   2.823   1.076
 1522SOL    HW1 4594   1.162   2.830   0.977
 1522SOL    HW2 4595   1.075   2.870   1.109
 1523SOL     OW 4596   3.387   0.109   2.715
 1523SOL    HW1 4597   3.419   0.136   2.805
 1523SOL    HW2 4598   3.371   0.010   2.713
 1524SOL     OW 4599   4.063   3.602   4.195
 1524SOL    HW1 4600   4.133   3.660   4.237
 1524SOL    HW2 4601   4.094   3.506   4.197
 1525SOL     OW 4602   0.191   0.669   3.846
 1525SOL    HW1 4603   0.187   0.768   3.833
 1525SOL    HW2 4604   0.285   0.641   3.864
 1526SOL     OW 4605   0.677   4.321   0.901
 1526SOL    HW1 4606   0.736   4.390   0.943
 1526SOL    HW2 4607   0.705   4.306   0.806
 1527SOL     OW 4608   3.659   1.816   2.176
 1527SOL    HW1 4609   3.666   1.811   2.076
 1527SOL    HW2 4610   3.724   1.884   2.211
 1528SOL     OW 4611   0.028   0.491   3.980
 1528SOL    HW1 4612   0.111   0.443   4.009
 1528SOL    HW2 4613   0.049   0.549   3.902
 1529SOL     OW 4614   0.926   1.913   0.564
 1529SOL    HW1 4615   0.885   1.823   0.581
 1529SOL    HW2 4616   0.874   1.983   0.613
 1530SOL     OW 4617   1.455   0.764   4.919
 1530SOL    HW1 4618   1.391   0.722   4.984
 1530SOL    HW2 4619   1.406   0.833   4.866
 1531SOL     OW 4620   4.629   0.609   3.658
 1531SOL    HW1 4621   4.685   0.685   3.691
 1531SOL    HW2 4622   4.532   0.631   3.672
 1532SOL     OW 4623   3.019   3.036   4.611
 1532SOL    HW1 4624   2.982   3.056   4.701
 1532SOL    HW2 4625   3.117   3.056   4.610
 1533SOL     OW 4626   0.348   3.691   2.803
 1533SOL    HW1 4627   0.394   3.691   2.892
 1533SOL    HW2 4628   0.278   3.620   2.801
 1534SOL     OW 4629   0.728   1.135   4.325
 1534SOL    HW1 4630   0.750   1.042   4.355
 1534SOL    HW2 4631   0.715   1.194   4.405
 1535SOL     OW 4632   0.817   4.848   4.837
 1535SOL    HW1 4633   0.844   4.780   4.906
 1535SOL    HW2 4634   0.871   4.931   4.849
 1536SOL     OW 4635   3.098   0.166   2.554
 1536SOL    HW1 4636   3.194   0.140   2.561
 1536SOL    HW2 4637   3.090   0.247   2.496
 1537SOL     OW 4638   3.181   2.815   3.220
 1537SOL    HW1 4639   3.112   2.815   3.293
 1537SOL    HW2 4640   3.144   2.770   3.139
 1538SOL     OW 4641   4.602   4.260   0.360
 1538SOL    HW1 4642   4.584   4.307   0.274
 1538SOL    HW2 4643   4.592   4.161   0.348
 1539SOL     OW 4644   3.938   0.392   0.878
 1539SOL    HW1 4645   3.961   0.454   0.803
 1539SOL    HW2 4646   3.986   0.421   0.961
 1540SOL     OW 4647   0.262   1.101   4.465
 1540SOL    HW1 4648   0.309   1.167   4.523
 1540SOL    HW2 4649   0.212   1.149   4.393
 1541SOL     OW 4650   4.244   3.929   2.401
 1541SOL    HW1 4651   4.251   3.948   2.303
 1541SOL    HW2 4652   4.310   3.986   2.450
 1542SOL     OW 4653   1.190   0.996   0.850
 1542SOL    HW1 4654   1.104   1.019   0.805
 1542SOL    HW2 4655   1.184   0.904   0.889
 1543SOL     OW 4656   2.395   2.084   1.278
 1543SOL    HW1 4657   2.321   2.063   1.342
 1543SOL    HW2 4658   2.483   2.070   1.323
 1544SOL     OW 4659   1.955   4.163   4.345
 1544SOL    HW1 4660   2.028   4.227   4.371
 1544SOL    HW2 4661   1.936   4.101   4.421
 1545SOL     OW 4662   4.244   2.769   0.321
 1545SOL    HW1 4663   4.198   2.716   0.249
 1545SOL    HW2 4664   4.193   2.760   0.407
 1546SOL     OW 4665   4.316   4.389   1.477
 1546SOL    HW1 4666   4.326   4.343   1.565
 1546SOL    HW2 4667   4.327   4.488   1.490
 1547SOL     OW 4668   2.441   4.882   0.770
 1547SOL    HW1 4669   2.469   4.970   0.733
 1547SOL    HW2 4670   2.519   4.837   0.813
 1548SOL     OW 4671   4.316   1.802   0.222
 1548SOL    HW1 4672   4.247   1.808   0.294
 1548SOL    HW2 4673   4.271   1.789   0.134
 1549SOL     OW 4674   4.903   1.572   0.290
 1549SOL    HW1 4675   4.818   1.570   0.238
 1549SOL    HW2 4676   4.884   1.600   0.384
 1550SOL     OW 4677   4.567   1.344   0.657
 1550SOL    HW1 4678   4.525   1.355   0.747
 1550SOL    HW2 4679   4.551   1.251   0.624
 1551SOL     OW 4680   3.890   4.641   0.492
 1551SOL    HW1 4681   3.886   4.553   0.539
 1551SOL    HW2 4682   3.923   4.711   0.555
 1552SOL     OW 4683   3.054   0.111   0.944
 1552SOL    HW1 4684   2.987   0.150   0.881
 1552SOL    HW2 4685   3.006   0.068   1.021
 1553SOL     OW 4686   2.986   0.517   3.318
 1553SOL    HW1 4687   3.060   0.579   3.294
 1553SOL    HW2 4688   3.024   0.428   3.343
 1554SOL     OW 4689   2.804   0.779   2.674
 1554SOL    HW1 4690   2.710   0.747   2.662
 1554SOL    HW2 4691   2.855   0.765   2.589
 1555SOL     OW 4692   3.462   2.912   0.612
 1555SOL    HW1 4693   3.559   2.892   0.596
 1555SOL    HW2 4694   3.418   2.832   0.653
 1556SOL     OW 4695   1.857   3.174   2.525
 1556SOL    HW1 4696   1.954   3.168   2.549
 1556SOL    HW2 4697   1.839   3.260   2.477
 1557SOL     OW 4698   1.011   1.151   4.207
 1557SOL    HW1 4699   1.006   1.224   4.139
 1557SOL    HW2 4700   0.952   1.076   4.179
 1558SOL     OW 4701   4.407   4.500   2.035
 1558SOL    HW1 4702   4.418   4.533   2.129
 1558SOL    HW2 4703   4.310   4.489   2.014
 1559SOL     OW 4704   3.504   0.505   2.485
 1559SOL    HW1 4705   3.471   0.552   2.402
 1559SOL    HW2 4706   3.465   0.549   2.566
 1560SOL     OW 4707   0.696   4.764   4.330
 1560SOL    HW1 4708   0.725   4.715   4.412
 1560SOL    HW2 4709   0.764   4.834   4.307
 1561SOL     OW 4710   4.176   1.618   2.162
 1561SOL    HW1 4711   4.214   1.613   2.254
 1561SOL    HW2 4712   4.115   1.540   2.147
 1562SOL     OW 4713   0.633   0.563   1.173
 1562SOL    HW1 4714   0.588   0.642   1.131
 1562SOL    HW2 4715   0.596   0.548   1.264
 1563SOL     OW 4716   2.363   4.819   4.378
 1563SOL    HW1 4717   2.287   4.762   4.346
 1563SOL    HW2 4718   2.333   4.872   4.457
 1564SOL     OW 4719   4.342   5.018   1.264
 1564SOL    HW1 4720   4.408   0.036   1.212
 1564SOL    HW2 4721   4.390   4.963   1.333
 1565SOL     OW 4722   1.937   4.894   1.635
 1565SOL    HW1 4723   2.034   4.916   1.622
 1565SOL    HW2 4724   1.882   4.946   1.571
 1566SOL     OW 4725   3.450   3.344   3.124
 1566SOL    HW1 4726   3.543   3.360   3.157
 1566SOL    HW2 4727   3.384   3.381   3.190
 1567SOL     OW 4728   2.511   1.249   3.278
 1567SOL    HW1 4729   2.603   1.214   3.297
 1567SOL    HW2 4730   2.462   1.183   3.221
 1568SOL     OW 4731   2.033   3.609   3.849
 1568SOL    HW1 4732   2.066   3.601   3.943
 1568SOL    HW2 4733   2.066   3.695   3.809
 1569SOL     OW 4734   4.007   4.324   3.459
 1569SOL    HW1 4735   4.060   4.355   3.380
 1569SOL    HW2 4736   3.965   4.403   3.505
 1570SOL     OW 4737   2.785   0.731   4.975
 1570SOL    HW1 4738   2.827   0.641   4.963
 1570SOL    HW2 4739   2.687   0.720   4.992
 1571SOL     OW 4740   3.291   4.425   4.645
 1571SOL    HW1 4741   3.371   4.421   4.585
 1571SOL    HW2 4742   3.295   4.349   4.710
 1572SOL     OW 4743   3.694   0.835   0.307
 1572SOL    HW1 4744   3.768   0.816   0.243
 1572SOL    HW2 4745   3.731   0.887   0.385
 1573SOL     OW 4746   1.859   0.221   4.135
 1573SOL    HW1 4747   1.946   0.249   4.175
 1573SOL    HW2 4748   1.795   0.298   4.137
 1574SOL     OW 4749   3.188   0.185   4.925
 1574SOL    HW1 4750   3.092   0.183   4.894
 1574SOL    HW2 4751   3.200   0.121   5.001
 1575SOL     OW 4752   3.057   4.074   4.024
 1575SOL    HW1 4753   3.032   4.170   4.020
 1575SOL    HW2 4754   3.111   4.057   4.107
 1576SOL     OW 4755   3.380   1.185   0.398
 1576SOL    HW1 4756   3.322   1.196   0.317
 1576SOL    HW2 4757   3.372   1.266   0.456
 1577SOL     OW 4758   0.980   0.116   4.466
 1577SOL    HW1 4759   0.946   0.157   4.381
 1577SOL    HW2 4760   0.914   0.049   4.500
 1578SOL     OW 4761   2.494   4.437   0.629
 1578SOL    HW1 4762   2.515   4.502   0.702
 1578SOL    HW2 4763   2.401   4.452   0.596
 1579SOL     OW 4764   4.328   2.919   4.739
 1579SOL    HW1 4765   4.369   2.961   4.820
 1579SOL    HW2 4766   4.270   2.986   4.692
 1580SOL     OW 4767   0.981   3.323   0.193
 1580SOL    HW1 4768   0.948   3.406   0.237
 1580SOL    HW2 4769   0.903   3.272   0.157
 1581SOL     OW 4770   1.744   2.039   2.944
 1581SOL    HW1 4771   1.650   2.006   2.937
 1581SOL    HW2 4772   1.746   2.125   2.995
 1582SOL     OW 4773   0.102   0.651   0.604
 1582SOL    HW1 4774   0.004   0.646   0.627
 1582SOL    HW2 4775   0.150   0.702   0.675
 1583SOL     OW 4776   2.859   4.493   1.812
 1583SOL    HW1 4777   2.865   4.514   1.714
 1583SOL    HW2 4778   2.776   4.532   1.850
 1584SOL     OW 4779   1.862   4.517   4.274
 1584SOL    HW1 4780   1.955   4.489   4.249
 1584SOL    HW2 4781   1.800   4.439   4.266
 1585SOL     OW 4782   1.323   2.296   3.175
 1585SOL    HW1 4783   1.405   2.354   3.179
 1585SOL    HW2 4784   1.290   2.291   3.080
 1586SOL     OW 4785   5.000   1.951   1.871
 1586SOL    HW1 4786   4.979   1.885   1.800
 1586SOL    HW2 4787   0.000   1.904   1.952
 1587SOL     OW 4788   3.858   3.574   1.559
 1587SOL    HW1 4789   3.928   3.633   1.601
 1587SOL    HW2 4790   3.828   3.505   1.625
 1588SOL     OW 4791   2.521   0.909   1.501
 1588SOL    HW1 4792   2.475   0.821   1.510
 1588SOL    HW2 4793   2.532   0.951   1.591
 1589SOL     OW 4794   3.362   0.374   3.983
 1589SOL    HW1 4795   3.459   0.398   3.984
 1589SOL    HW2 4796   3.323   0.386   4.074
 1590SOL     OW 4797   1.851   3.215   4.854
 1590SOL    HW1 4798   1.878   3.213   4.951
 1590SOL    HW2 4799   1.869   3.126   4.813
 1591SOL     OW 4800   4.443   3.979   1.219
 1591SOL    HW1 4801   4.353   3.989   1.175
 1591SOL    HW2 4802   4.453   3.886   1.253
 1592SOL     OW 4803   2.481   4.991   4.046
 1592SOL    HW1 4804   2.436   4.959   4.130
 1592SOL    HW2 4805   2.542   4.920   4.011
 1593SOL     OW 4806   3.902   2.470   0.994
 1593SOL    HW1 4807   3.941   2.480   1.086
 1593SOL    HW2 4808   3.877   2.561   0.959
 1594SOL     OW 4809   2.360   4.123   1.729
 1594SOL    HW1 4810   2.363   4.056   1.655
 1594SOL    HW2 4811   2.273   4.116   1.777
 1595SOL     OW 4812   1.671   1.525   3.383
 1595SOL    HW1 4813   1.663   1.582   3.301
 1595SOL    HW2 4814   1.590   1.468   3.393
 1596SOL     OW 4815   3.898   0.754   0.871
 1596SOL    HW1 4816   3.971   0.694   0.839
 1596SOL    HW2 4817   3.883   0.827   0.804
 1597SOL     OW 4818   0.769   4.339   1.441
 1597SOL    HW1 4819   0.718   4.309   1.360
 1597SOL    HW2 4820   0.823   4.263   1.477
 1598SOL     OW 4821   2.531   4.846   0.475
 1598SOL    HW1 4822   2.441   4.873   0.507
 1598SOL    HW2 4823   2.601   4.881   0.537
 1599SOL     OW 4824   1.029   2.383   1.860
 1599SOL    HW1 4825   0.970   2.464   1.860
 1599SOL    HW2 4826   1.094   2.389   1.784
 1600SOL     OW 4827   0.354   0.927   4.088
 1600SOL    HW1 4828   0.359   0.911   3.990
 1600SOL    HW2 4829   0.332   0.842   4.135
 1601SOL     OW 4830   2.453   0.485   2.121
 1601SOL    HW1 4831   2.458   0.554   2.049
 1601SOL    HW2 4832   2.545   0.451   2.142
 1602SOL     OW 4833   3.984   3.878   4.868
 1602SOL    HW1 4834   4.072   3.868   4.821
 1602SOL    HW2 4835   3.995   3.856   4.965
 1603SOL     OW 4836   3.159   4.523   3.360
 1603SOL    HW1 4837   3.093   4.461   3.401
 1603SOL    HW2 4838   3.247   4.513   3.406
 1604SOL     OW 4839   0.860   1.667   0.901
 1604SOL    HW1 4840   0.890   1.748   0.851
 1604SOL    HW2 4841   0.795   1.615   0.845
 1605SOL     OW 4842   0.701   0.593   0.168
 1605SOL    HW1 4843   0.722   0.626   0.260
 1605SOL    HW2 4844   0.713   0.493   0.165
 1606SOL     OW 4845   3.263   1.089   0.938
 1606SOL    HW1 4846   3.202   1.024   0.983
 1606SOL    HW2 4847   3.313   1.044   0.865
 1607SOL     OW 4848   1.154   1.237   2.944
 1607SOL    HW1 4849   1.075   1.222   3.004
 1607SOL    HW2 4850   1.132   1.205   2.852
 1608SOL     OW 4851   3.659   3.505   0.554
 1608SOL    HW1 4852   3.631   3.572   0.622
 1608SOL    HW2 4853   3.738   3.539   0.503
 1609SOL     OW 4854   0.304   0.529   3.273
 1609SOL    HW1 4855   0.229   0.585   3.239
 1609SOL    HW2 4856   0.388   0.582   3.275
 1610SOL     OW 4857   1.671   1.380   4.524
 1610SOL    HW1 4858   1.739   1.319   4.482
 1610SOL    HW2 4859   1.582   1.334   4.525
 1611SOL     OW 4860   3.572   2.558   0.153
 1611SOL    HW1 4861   3.605   2.652   0.154
 1611SOL    HW2 4862   3.648   2.496   0.175
 1612SOL     OW 4863   2.518   4.425   3.627
 1612SOL    HW1 4864   2.530   4.463   3.536
 1612SOL    HW2 4865   2.541   4.328   3.626
 1613SOL     OW 4866   4.193   1.953   1.910
 1613SOL    HW1 4867   4.119   2.020   1.904
 1613SOL    HW2 4868   4.280   1.996   1.888
 1614SOL     OW 4869   3.932   4.026   4.635
 1614SOL    HW1 4870   3.912   3.975   4.719
 1614SOL    HW2 4871   3.967   3.963   4.565
 1615SOL     OW 4872   0.158   2.825   0.998
 1615SOL    HW1 4873   0.242   2.827   1.052
 1615SOL    HW2 4874   0.115   2.735   1.005
 1616SOL     OW 4875   1.940   2.371   2.182
 1616SOL    HW1 4876   1.919   2.277   2.209
 1616SOL    HW2 4877   1.940   2.377   2.082
 1617SOL     OW 4878   2.026   2.162   4.177
 1617SOL    HW1 4879   2.118   2.181   4.213
 1617SOL    HW2 4880   1.984   2.090   4.231
 1618SOL     OW 4881   4.017   0.937   2.999
 1618SOL    HW1 4882   4.085   1.002   2.966
 1618SOL    HW2 4883   4.058   0.846   3.006
 1619SOL     OW 4884   2.120   4.179   0.167
 1619SOL    HW1 4885   2.021   4.165   0.176
 1619SOL    HW2 4886   2.168   4.111   0.222
 1620SOL     OW 4887   4.309   3.751   0.076
 1620SOL    HW1 4888   4.265   3.697   0.003
 1620SOL    HW2 4889   4.292   3.707   0.164
 1621SOL     OW 4890   1.028   0.692   2.919
 1621SOL    HW1 4891   0.994   0.631   2.990
 1621SOL    HW2 4892   1.100   0.646   2.866
 1622SOL     OW 4893   4.588   2.971   1.484
 1622SOL    HW1 4894   4.649   2.941   1.410
 1622SOL    HW2 4895   4.628   2.946   1.572
 1623SOL     OW 4896   0.805   3.162   0.607
 1623SOL    HW1 4897   0.904   3.171   0.590
 1623SOL    HW2 4898   0.762   3.116   0.529
 1624SOL     OW 4899   2.589   0.047   1.215
 1624SOL    HW1 4900   2.526   0.116   1.179
 1624SOL    HW2 4901   2.593   0.055   1.314
 1625SOL     OW 4902   0.151   0.862   0.236
 1625SOL    HW1 4903   0.079   0.849   0.305
 1625SOL    HW2 4904   0.143   0.791   0.166
 1626SOL     OW 4905   3.628   0.410   4.037
 1626SOL    HW1 4906   3.627   0.367   4.128
 1626SOL    HW2 4907   3.673   0.348   3.972
 1627SOL     OW 4908   0.734   0.624   3.683
 1627SOL    HW1 4909   0.670   0.700   3.671
 1627SOL    HW2 4910   0.708   0.548   3.622
 1628SOL     OW 4911   0.563   0.384   4.743
 1628SOL    HW1 4912   0.615   0.318   4.687
 1628SOL    HW2 4913   0.585   0.369   4.840
 1629SOL     OW 4914   4.434   2.118   1.914
 1629SOL    HW1 4915   4.520   2.153   1.877
 1629SOL    HW2 4916   4.438   2.119   2.014
 1630SOL     OW 4917   2.113   2.671   2.144
 1630SOL    HW1 4918   2.090   2.756   2.097
 1630SOL    HW2 4919   2.034   2.640   2.196
 1631SOL     OW 4920   0.898   0.743   3.283
 1631SOL    HW1 4921   0.984   0.741   3.333
 1631SOL    HW2 4922   0.871   0.838   3.267
 1632SOL     OW 4923   2.926   0.572   1.310
 1632SOL    HW1 4924   2.909   0.549   1.214
 1632SOL    HW2 4925   2.856   0.636   1.341
 1633SOL     OW 4926   0.597   2.362   3.998
 1633SOL    HW1 4927   0.650   2.411   3.928
 1633SOL    HW2 4928   0.508   2.336   3.960
 1634SOL     OW 4929   0.476   1.072   2.781
 1634SOL    HW1 4930   0.428   1.075   2.869
 1634SOL    HW2 4931   0.418   1.027   2.713
 1635SOL     OW 4932   3.927   4.462   4.656
 1635SOL    HW1 4933   3.873   4.397   4.710
 1635SOL    HW2 4934   3.929   4.432   4.560
 1636SOL     OW 4935   4.067   0.829   4.527
 1636SOL    HW1 4936   4.041   0.797   4.436
 1636SOL    HW2 4937   4.162   0.859   4.526
 1637SOL     OW 4938   0.081   4.753   3.662
 1637SOL    HW1 4939   0.110   4.753   3.758
 1637SOL    HW2 4940   0.011   4.683   3.649
 1638SOL     OW 4941   3.466   1.009   2.965
 1638SOL    HW1 4942   3.564   0.993   2.971
 1638SOL    HW2 4943   3.447   1.072   2.889
 1639SOL     OW 4944   4.167   4.460   0.511
 1639SOL    HW1 4945   4.101   4.526   0.476
 1639SOL    HW2 4946   4.238   4.507   0.564
 1640SOL     OW 4947   3.885   4.757   1.086
 1640SOL    HW1 4948   3.803   4.742   1.142
 1640SOL    HW2 4949   3.955   4.690   1.109
 1641SOL     OW 4950   0.529   0.344   4.294
 1641SOL    HW1 4951   0.438   0.355   4.333
 1641SOL    HW2 4952   0.549   0.246   4.283
 1642SOL     OW 4953   3.449   2.165   3.948
 1642SOL    HW1 4954   3.406   2.178   4.037
 1642SOL    HW2 4955   3.536   2.117   3.960
 1643SOL     OW 4956   1.882   2.248   4.698
 1643SOL    HW1 4957   1.787   2.280   4.705
 1643SOL    HW2 4958   1.882   2.149   4.684
 1644SOL     OW 4959   1.369   3.668   4.156
 1644SOL    HW1 4960   1.287   3.628   4.117
 1644SOL    HW2 4961   1.397   3.616   4.237
 1645SOL     OW 4962   3.724   3.098   4.076
 1645SOL    HW1 4963   3.787   3.110   4.153
 1645SOL    HW2 4964   3.757   3.150   3.997
 1646SOL     OW 4965   3.741   1.406   0.169
 1646SOL    HW1 4966   3.642   1.410   0.160
 1646SOL    HW2 4967   3.783   1.428   0.081
 1647SOL     OW 4968   4.158   4.088   1.249
 1647SOL    HW1 4969   4.226   4.159   1.230
 1647SOL    HW2 4970   4.118   4.057   1.162
 1648SOL     OW 4971   4.602   3.469   2.409
 1648SOL    HW1 4972   4.684   3.528   2.412
 1648SOL    HW2 4973   4.547   3.492   2.329
 1649SOL     OW 4974   1.606   4.384   3.173
 1649SOL    HW1 4975   1.573   4.382   3.268
 1649SOL    HW2 4976   1.636   4.477   3.150
 1650SOL     OW 4977   1.571   0.567   4.744
 1650SOL    HW1 4978   1.529   0.642   4.795
 1650SOL    HW2 4979   1.668   0.562   4.766
 1651SOL     OW 4980   1.863   4.940   4.825
 1651SOL    HW1 4981   1.938   4.983   4.774
 1651SOL    HW2 4982   1.852   4.985   4.913
 1652SOL     OW 4983   1.030   4.490   1.578
 1652SOL    HW1 4984   1.088   4.569   1.601
 1652SOL    HW2 4985   0.987   4.505   1.489
 1653SOL     OW 4986   0.714   2.426   0.639
 1653SOL    HW1 4987   0.617   2.448   0.652
 1653SOL    HW2 4988   0.722   2.351   0.573
 1654SOL     OW 4989   2.947   0.406   1.921
 1654SOL    HW1 4990   3.040   0.393   1.888
 1654SOL    HW2 4991   2.947   0.415   2.020
 1655SOL     OW 4992   4.157   0.948   0.220
 1655SOL    HW1 4993   4.076   0.922   0.167
 1655SOL    HW2 4994   4.217   0.868   0.230
 1656SOL     OW 4995   1.205   0.047   0.327
 1656SOL    HW1 4996   1.269   0.110   0.281
 1656SOL    HW2 4997   1.147   0.003   0.259
 1657SOL     OW 4998   0.455   1.194   3.996
 1657SOL    HW1 4999   0.429   1.126   4.066
 1657SOL    HW2 5000   0.505   1.269   4.040
 1658SOL     OW 5001   1.520   3.417   3.016
 1658SOL    HW1 5002   1.521   3.326   2.976
 1658SOL    HW2 5003   1.612   3.455   3.016
 1659SOL     OW 5004   0.231   4.592   2.358
 1659SOL    HW1 5005   0.225   4.673   2.416
 1659SOL    HW2 5006   0.291   4.611   2.280
 1660SOL     OW 5007   0.371   1.165   2.491
 1660SOL    HW1 5008   0.356   1.216   2.576
 1660SOL    HW2 5009   0.315   1.205   2.418
 1661SOL     OW 5010   3.164   3.093   0.026
 1661SOL    HW1 5011   3.078   3.094   5.010
 1661SOL    HW2 5012   3.235   3.052   5.004
 1662SOL     OW 5013   0.905   4.984   1.878
 1662SOL    HW1 5014   0.843   4.963   1.954
 1662SOL    HW2 5015   0.998   4.996   1.914
 1663SOL     OW 5016   0.449   3.607   2.172
 1663SOL    HW1 5017   0.360   3.632   2.210
 1663SOL    HW2 5018   0.495   3.544   2.234
 1664SOL     OW 5019   2.138   2.122   3.181
 1664SOL    HW1 5020   2.088   2.036   3.187
 1664SOL    HW2 5021   2.112   2.181   3.257
 1665SOL     OW 5022   1.231   2.659   1.503
 1665SOL    HW1 5023   1.169   2.643   1.427
 1665SOL    HW2 5024   1.320   2.617   1.483
 1666SOL     OW 5025   1.716   2.245   4.921
 1666SOL    HW1 5026   1.808   2.227   4.886
 1666SOL    HW2 5027   1.717   2.238   5.021
 1667SOL     OW 5028   4.923   2.116   1.040
 1667SOL    HW1 5029   4.825   2.122   1.061
 1667SOL    HW2 5030   4.936   2.061   0.958
 1668SOL     OW 5031   3.765   1.724   4.345
 1668SOL    HW1 5032   3.831   1.649   4.345
 1668SOL    HW2 5033   3.702   1.712   4.269
 1669SOL     OW 5034   3.569   1.849   3.328
 1669SOL    HW1 5035   3.632   1.926   3.322
 1669SOL    HW2 5036   3.532   1.842   3.420
 1670SOL     OW 5037   1.507   0.483   0.456
 1670SOL    HW1 5038   1.520   0.401   0.400
 1670SOL    HW2 5039   1.526   0.564   0.400
 1671SOL     OW 5040   2.608   1.241   2.948
 1671SOL    HW1 5041   2.598   1.145   2.922
 1671SOL    HW2 5042   2.532   1.268   3.008
 1672SOL     OW 5043   2.884   0.120   2.098
 1672SOL    HW1 5044   2.885   0.021   2.085
 1672SOL    HW2 5045   2.806   0.160   2.051
 1673SOL     OW 5046   3.012   3.442   1.769
 1673SOL    HW1 5047   3.103   3.401   1.778
 1673SOL    HW2 5048   2.977   3.423   1.677
 1674SOL     OW 5049   2.257   2.068   1.932
 1674SOL    HW1 5050   2.213   2.153   1.903
 1674SOL    HW2 5051   2.263   2.006   1.853
 1675SOL     OW 5052   3.683   4.961   0.983
 1675SOL    HW1 5053   3.650   4.874   0.948
 1675SOL    HW2 5054   3.780   4.973   0.958
 1676SOL     OW 5055   4.346   2.468   4.617
 1676SOL    HW1 5056   4.283   2.429   4.550
 1676SOL    HW2 5057   4.302   2.545   4.664
 1677SOL     OW 5058   4.906   3.287   4.803
 1677SOL    HW1 5059   4.821   3.234   4.811
 1677SOL    HW2 5060   4.968   3.240   4.740
 1678SOL     OW 5061   4.869   0.969   2.136
 1678SOL    HW1 5062   4.814   1.041   2.093
 1678SOL    HW2 5063   4.853   0.882   2.088
 1679SOL     OW 5064   2.099   2.281   1.888
 1679SOL    HW1 5065   2.010   2.274   1.843
 1679SOL    HW2 5066   2.128   2.377   1.891
 1680SOL     OW 5067   2.517   2.285   2.274
 1680SOL    HW1 5068   2.425   2.253   2.297
 1680SOL    HW2 5069   2.528   2.379   2.307
 1681SOL     OW 5070   2.353   3.607   2.200
 1681SOL    HW1 5071   2.446   3.632   2.226
 1681SOL    HW2 5072   2.332   3.516   2.236
 1682SOL     OW 5073   4.308   0.503   4.652
 1682SOL    HW1 5074   4.227   0.503   4.594
 1682SOL    HW2 5075   4.281   0.482   4.746
 1683SOL     OW 5076   1.304   4.646   4.645
 1683SOL    HW1 5077   1.237   4.593   4.696
 1683SOL    HW2 5078   1.314   4.607   4.553
 1684SOL     OW 5079   1.075   0.976   1.796
 1684SOL    HW1 5080   1.062   1.038   1.873
 1684SOL    HW2 5081   1.127   0.896   1.826
 1685SOL     OW 5082   0.366   4.047   3.998
 1685SOL    HW1 5083   0.279   4.096   3.997
 1685SOL    HW2 5084   0.369   3.984   3.920
 1686SOL     OW 5085   2.042   3.488   2.936
 1686SOL    HW1 5086   2.110   3.493   2.863
 1686SOL    HW2 5087   2.024   3.580   2.971
 1687SOL     OW 5088   0.369   1.453   4.787
 1687SOL    HW1 5089   0.301   1.481   4.720
 1687SOL    HW2 5090   0.326   1.446   4.877
 1688SOL     OW 5091   3.194   4.732   2.554
 1688SOL    HW1 5092   3.123   4.697   2.614
 1688SOL    HW2 5093   3.160   4.736   2.460
 1689SOL     OW 5094   0.415   2.358   0.243
 1689SOL    HW1 5095   0.339   2.303   0.208
 1689SOL    HW2 5096   0.461   2.404   0.167
 1690SOL     OW 5097   4.761   0.490   1.738
 1690SOL    HW1 5098   4.746   0.407   1.685
 1690SOL    HW2 5099   4.674   0.535   1.755
 1691SOL     OW 5100   3.631   2.475   3.075
 1691SOL    HW1 5101   3.609   2.415   3.153
 1691SOL    HW2 5102   3.619   2.424   2.990
 1692SOL     OW 5103   0.679   0.256   1.217
 1692SOL    HW1 5104   0.779   0.260   1.212
 1692SOL    HW2 5105   0.641   0.253   1.124
 1693SOL     OW 5106   4.900   3.184   2.187
 1693SOL    HW1 5107   4.917   3.280   2.211
 1693SOL    HW2 5108   4.958   3.125   2.242
 1694SOL     OW 5109   1.402   3.872   1.148
 1694SOL    HW1 5110   1.381   3.776   1.131
 1694SOL    HW2 5111   1.317   3.924   1.155
 1695SOL     OW 5112   1.773   3.859   3.238
 1695SOL    HW1 5113   1.693   3.910   3.270
 1695SOL    HW2 5114   1.784   3.872   3.140
 1696SOL     OW 5115   2.819   3.046   1.437
 1696SOL    HW1 5116   2.912   3.082   1.448
 1696SOL    HW2 5117   2.824   2.946   1.426
 1697SOL     OW 5118   1.706   0.773   5.032
 1697SOL    HW1 5119   1.612   0.761   4.998
 1697SOL    HW2 5120   1.703   0.818   0.086
 1698SOL     OW 5121   4.148   2.895   0.754
 1698SOL    HW1 5122   4.114   2.973   0.806
 1698SOL    HW2 5123   4.230   2.858   0.798
 1699SOL     OW 5124   1.343   1.532   2.667
 1699SOL    HW1 5125   1.314   1.549   2.761
 1699SOL    HW2 5126   1.443   1.540   2.661
 1700SOL     OW 5127   4.616   4.447   4.115
 1700SOL    HW1 5128   4.698   4.403   4.080
 1700SOL    HW2 5129   4.567   4.492   4.041
 1701SOL     OW 5130   2.683   2.090   4.360
 1701SOL    HW1 5131   2.672   2.027   4.436
 1701SOL    HW2 5132   2.758   2.060   4.302
 1702SOL     OW 5133   0.526   2.399   4.299
 1702SOL    HW1 5134   0.426   2.402   4.306
 1702SOL    HW2 5135   0.553   2.321   4.242
 1703SOL     OW 5136   4.574   0.123   1.380
 1703SOL    HW1 5137   4.581   0.024   1.393
 1703SOL    HW2 5138   4.662   0.159   1.347
 1704SOL     OW 5139   3.270   4.412   0.507
 1704SOL    HW1 5140   3.285   4.370   0.597
 1704SOL    HW2 5141   3.328   4.366   0.440
 1705SOL     OW 5142   3.626   2.978   1.641
 1705SOL    HW1 5143   3.678   2.944   1.563
 1705SOL    HW2 5144   3.624   3.078   1.639
 1706SOL     OW 5145   1.466   1.576   1.208
 1706SOL    HW1 5146   1.458   1.665   1.165
 1706SOL    HW2 5147   1.382   1.523   1.194
 1707SOL     OW 5148   4.543   4.611   1.286
 1707SOL    HW1 5149   4.572   4.588   1.193
 1707SOL    HW2 5150   4.522   4.526   1.336
 1708SOL     OW 5151   0.895   3.476   4.300
 1708SOL    HW1 5152   0.834   3.527   4.361
 1708SOL    HW2 5153   0.890   3.515   4.208
 1709SOL     OW 5154   0.140   3.438   0.449
 1709SOL    HW1 5155   0.084   3.404   0.373
 1709SOL    HW2 5156   0.126   3.380   0.529
 1710SOL     OW 5157   1.067   4.816   4.595
 1710SOL    HW1 5158   1.114   4.901   4.619
 1710SOL    HW2 5159   1.109   4.740   4.644
 1711SOL     OW 5160   0.814   4.839   1.534
 1711SOL    HW1 5161   0.874   4.767   1.501
 1711SOL    HW2 5162   0.762   4.806   1.613
 1712SOL     OW 5163   1.436   0.438   3.962
 1712SOL    HW1 5164   1.403   0.415   3.870
 1712SOL    HW2 5165   1.367   0.412   4.029
 1713SOL     OW 5166   0.108   1.971   1.115
 1713SOL    HW1 5167   0.102   1.906   1.190
 1713SOL    HW2 5168   0.021   2.018   1.104
 1714SOL     OW 5169   2.723   4.968   4.237
 1714SOL    HW1 5170   2.761   0.011   4.186
 1714SOL    HW2 5171   2.687   4.901   4.173
 1715SOL     OW 5172   4.561   4.434   1.067
 1715SOL    HW1 5173   4.543   4.462   0.973
 1715SOL    HW2 5174   4.599   4.341   1.068
 1716SOL     OW 5175   3.081   0.721   4.664
 1716SOL    HW1 5176   3.125   0.675   4.741
 1716SOL    HW2 5177   3.049   0.653   4.598
 1717SOL     OW 5178   4.493   4.285   2.257
 1717SOL    HW1 5179   4.579   4.305   2.303
 1717SOL    HW2 5180   4.437   4.368   2.251
 1718SOL     OW 5181   4.443   1.833   1.747
 1718SOL    HW1 5182   4.380   1.817   1.671
 1718SOL    HW2 5183   4.412   1.781   1.827
 1719SOL     OW 5184   1.132   3.003   1.329
 1719SOL    HW1 5185   1.064   3.066   1.290
 1719SOL    HW2 5186   1.084   2.933   1.382
 1720SOL     OW 5187   2.870   0.577   2.889
 1720SOL    HW1 5188   2.772   0.572   2.909
 1720SOL    HW2 5189   2.889   0.657   2.834
 1721SOL     OW 5190   2.595   2.163   0.444
 1721SOL    HW1 5191   2.567   2.156   0.348
 1721SOL    HW2 5192   2.693   2.184   0.447
 1722SOL     OW 5193   2.933   2.551   3.303
 1722SOL    HW1 5194   2.886   2.590   3.383
 1722SOL    HW2 5195   2.865   2.521   3.236
 1723SOL     OW 5196   1.696   4.779   4.045
 1723SOL    HW1 5197   1.739   4.843   4.110
 1723SOL    HW2 5198   1.735   4.793   3.954
 1724SOL     OW 5199   2.823   3.758   0.313
 1724SOL    HW1 5200   2.879   3.774   0.394
 1724SOL    HW2 5201   2.846   3.826   0.243
 1725SOL     OW 5202   2.616   0.570   2.350
 1725SOL    HW1 5203   2.528   0.592   2.309
 1725SOL    HW2 5204   2.610   0.481   2.396
 1726SOL     OW 5205   3.865   2.007   1.947
 1726SOL    HW1 5206   3.774   2.045   1.964
 1726SOL    HW2 5207   3.892   2.028   1.853
 1727SOL     OW 5208   0.589   1.171   3.109
 1727SOL    HW1 5209   0.539   1.248   3.068
 1727SOL    HW2 5210   0.651   1.205   3.179
 1728SOL     OW 5211   4.354   4.426   4.755
 1728SOL    HW1 5212   4.277   4.478   4.793
 1728SOL    HW2 5213   4.382   4.467   4.668
 1729SOL     OW 5214   0.883   3.270   1.544
 1729SOL    HW1 5215   0.979   3.298   1.540
 1729SOL    HW2 5216   0.836   3.299   1.461
 1730SOL     OW 5217   0.929   3.473   3.990
 1730SOL    HW1 5218   0.837   3.501   3.965
 1730SOL    HW2 5219   0.975   3.435   3.909
 1731SOL     OW 5220   2.640   0.390   3.274
 1731SOL    HW1 5221   2.699   0.470   3.280
 1731SOL    HW2 5222   2.695   0.307   3.285
 1732SOL     OW 5223   4.241   0.909   0.918
 1732SOL    HW1 5224   4.246   0.855   1.002
 1732SOL    HW2 5225   4.152   0.894   0.875
 1733SOL     OW 5226   0.167   4.357   0.049
 1733SOL    HW1 5227   0.077   4.329   0.082
 1733SOL    HW2 5228   0.222   4.389   0.126
 1734SOL     OW 5229   1.646   1.201   3.375
 1734SOL    HW1 5230   1.598   1.213   3.288
 1734SOL    HW2 5231   1.741   1.175   3.357
 1735SOL     OW 5232   2.121   4.256   2.560
 1735SOL    HW1 5233   2.133   4.264   2.659
 1735SOL    HW2 5234   2.141   4.344   2.517
 1736SOL     OW 5235   4.601   1.590   2.907
 1736SOL    HW1 5236   4.548   1.505   2.902
 1736SOL    HW2 5237   4.634   1.604   3.000
 1737SOL     OW 5238   0.870   1.681   2.015
 1737SOL    HW1 5239   0.937   1.755   2.005
 1737SOL    HW2 5240   0.830   1.683   2.106
 1738SOL     OW 5241   1.492   4.333   2.351
 1738SOL    HW1 5242   1.547   4.268   2.404
 1738SOL    HW2 5243   1.411   4.358   2.404
 1739SOL     OW 5244   1.611   3.488   1.115
 1739SOL    HW1 5245   1.579   3.485   1.021
 1739SOL    HW2 5246   1.670   3.568   1.129
 1740SOL     OW 5247   4.902   0.095   4.208
 1740SOL    HW1 5248   4.857   0.179   4.178
 1740SOL    HW2 5249   4.901   0.028   4.133
 1741SOL     OW 5250   0.946   0.983   1.023
 1741SOL    HW1 5251   0.865   0.923   1.026
 1741SOL    HW2 5252   1.009   0.955   1.096
 1742SOL     OW 5253   2.010   2.174   4.950
 1742SOL    HW1 5254   2.007   2.171   4.850
 1742SOL    HW2 5255   2.099   2.208   4.980
 1743SOL     OW 5256   1.259   2.301   2.891
 1743SOL    HW1 5257   1.231   2.364   2.818
 1743SOL    HW2 5258   1.179   2.252   2.925
 1744SOL     OW 5259   3.971   4.657   4.310
 1744SOL    HW1 5260   4.025   4.592   4.363
 1744SOL    HW2 5261   3.874   4.630   4.312
 1745SOL     OW 5262   2.168   3.149   1.805
 1745SOL    HW1 5263   2.202   3.055   1.794
 1745SOL    HW2 5264   2.072   3.153   1.776
 1746SOL     OW 5265   1.019   0.463   3.079
 1746SOL    HW1 5266   1.001   0.372   3.116
 1746SOL    HW2 5267   1.100   0.461   3.020
 1747SOL     OW 5268   1.066   4.115   3.325
 1747SOL    HW1 5269   1.029   4.028   3.355
 1747SOL    HW2 5270   0.994   4.184   3.321
 1748SOL     OW 5271   4.611   0.891   0.208
 1748SOL    HW1 5272   4.654   0.974   0.243
 1748SOL    HW2 5273   4.516   0.887   0.239
 1749SOL     OW 5274   3.553   3.128   0.120
 1749SOL    HW1 5275   3.638   3.151   0.073
 1749SOL    HW2 5276   3.575   3.085   0.208
 1750SOL     OW 5277   0.060   4.100   1.949
 1750SOL    HW1 5278   0.016   4.012   1.970
 1750SOL    HW2 5279   0.146   4.107   1.999
 1751SOL     OW 5280   4.301   4.783   2.404
 1751SOL    HW1 5281   4.321   4.823   2.494
 1751SOL    HW2 5282   4.202   4.777   2.392
 1752SOL     OW 5283   2.786   1.517   0.715
 1752SOL    HW1 5284   2.859   1.559   0.768
 1752SOL    HW2 5285   2.698   1.556   0.742
 1753SOL     OW 5286   1.456   3.516   3.280
 1753SOL    HW1 5287   1.486   3.442   3.221
 1753SOL    HW2 5288   1.483   3.497   3.375
 1754SOL     OW 5289   2.114   2.939   3.796
 1754SOL    HW1 5290   2.022   2.975   3.812
 1754SOL    HW2 5291   2.108   2.845   3.762
 1755SOL     OW 5292   2.578   1.625   3.173
 1755SOL    HW1 5293   2.518   1.612   3.252
 1755SOL    HW2 5294   2.614   1.718   3.174
 1756SOL     OW 5295   1.212   0.659   2.477
 1756SOL    HW1 5296   1.192   0.739   2.422
 1756SOL    HW2 5297   1.180   0.577   2.430
 1757SOL     OW 5298   1.691   0.141   4.954
 1757SOL    HW1 5299   1.622   0.068   4.947
 1757SOL    HW2 5300   1.705   0.183   4.865
 1758SOL     OW 5301   0.083   4.900   3.439
 1758SOL    HW1 5302   5.024   4.877   3.415
 1758SOL    HW2 5303   0.107   4.856   3.525
 1759SOL     OW 5304   3.807   4.066   1.735
 1759SOL    HW1 5305   3.726   4.009   1.724
 1759SOL    HW2 5306   3.877   4.037   1.670
 1760SOL     OW 5307   3.985   5.009   4.304
 1760SOL    HW1 5308   3.933   0.038   4.248
 1760SOL    HW2 5309   3.991   0.008   4.398
 1761SOL     OW 5310   1.648   0.570   1.873
 1761SOL    HW1 5311   1.735   0.581   1.921
 1761SOL    HW2 5312   1.663   0.575   1.774
 1762SOL     OW 5313   1.941   4.186   1.592
 1762SOL    HW1 5314   2.022   4.244   1.598
 1762SOL    HW2 5315   1.969   4.092   1.575
 1763SOL     OW 5316   3.479   1.763   4.618
 1763SOL    HW1 5317   3.453   1.762   4.522
 1763SOL    HW2 5318   3.482   1.858   4.650
 1764SOL     OW 5319   3.118   0.683   0.533
 1764SOL    HW1 5320   3.127   0.763   0.474
 1764SOL    HW2 5321   3.199   0.625   0.525
 1765SOL     OW 5322   2.172   2.575   4.346
 1765SOL    HW1 5323   2.176   2.478   4.371
 1765SOL    HW2 5324   2.245   2.596   4.280
 1766SOL     OW 5325   3.626   0.948   3.602
 1766SOL    HW1 5326   3.627   0.915   3.507
 1766SOL    HW2 5327   3.671   1.037   3.607
 1767SOL     OW 5328   3.812   3.762   1.797
 1767SOL    HW1 5329   3.765   3.674   1.799
 1767SOL    HW2 5330   3.904   3.752   1.835
 1768SOL     OW 5331   2.062   3.862   3.444
 1768SOL    HW1 5332   2.100   3.791   3.385
 1768SOL    HW2 5333   1.989   3.823   3.500
 1769SOL     OW 5334   0.988   3.729   0.690
 1769SOL    HW1 5335   0.925   3.787   0.741
 1769SOL    HW2 5336   0.962   3.634   0.700
 1770SOL     OW 5337   2.357   2.543   4.143
 1770SOL    HW1 5338   2.291   2.471   4.119
 1770SOL    HW2 5339   2.353   2.615   4.074
 1771SOL     OW 5340   2.052   3.879   4.293
 1771SOL    HW1 5341   2.125   3.942   4.319
 1771SOL    HW2 5342   1.965   3.928   4.287
 1772SOL     OW 5343   0.317   1.249   3.262
 1772SOL    HW1 5344   0.362   1.334   3.292
 1772SOL    HW2 5345   0.369   1.171   3.297
 1773SOL     OW 5346   2.390   2.907   2.025
 1773SOL    HW1 5347   2.442   2.977   1.976
 1773SOL    HW2 5348   2.312   2.948   2.071
 1774SOL     OW 5349   2.682   0.157   2.962
 1774SOL    HW1 5350   2.707   0.061   2.951
 1774SOL    HW2 5351   2.626   0.168   3.044
 1775SOL     OW 5352   2.485   1.302   4.733
 1775SOL    HW1 5353   2.563   1.240   4.738
 1775SOL    HW2 5354   2.453   1.308   4.639
 1776SOL     OW 5355   3.242   1.151   3.039
 1776SOL    HW1 5356   3.193   1.131   3.124
 1776SOL    HW2 5357   3.319   1.088   3.029
 1777SOL     OW 5358   1.480   4.066   1.818
 1777SOL    HW1 5359   1.433   4.021   1.742
 1777SOL    HW2 5360   1.429   4.050   1.902
 1778SOL     OW 5361   4.425   2.980   3.759
 1778SOL    HW1 5362   4.389   3.022   3.842
 1778SOL    HW2 5363   4.446   2.884   3.776
 1779SOL     OW 5364   1.259   1.154   3.308
 1779SOL    HW1 5365   1.197   1.184   3.235
 1779SOL    HW2 5366   1.351   1.144   3.271
 1780SOL     OW 5367   3.952   3.963   3.097
 1780SOL    HW1 5368   3.927   4.040   3.038
 1780SOL    HW2 5369   3.871   3.930   3.144
 1781SOL     OW 5370   4.648   0.750   4.492
 1781SOL    HW1 5371   4.600   0.738   4.580
 1781SOL    HW2 5372   4.673   0.660   4.456
 1782SOL     OW 5373   2.262   2.956   4.311
 1782SOL    HW1 5374   2.203   2.975   4.232
 1782SOL    HW2 5375   2.217   2.987   4.394
 1783SOL     OW 5376   1.880   3.492   0.972
 1783SOL    HW1 5377   1.929   3.544   1.043
 1783SOL    HW2 5378   1.889   3.395   0.991
 1784SOL     OW 5379   1.660   1.487   4.179
 1784SOL    HW1 5380   1.748   1.499   4.225
 1784SOL    HW2 5381   1.618   1.401   4.210
 1785SOL     OW 5382   3.064   0.323   0.438
 1785SOL    HW1 5383   3.058   0.223   0.446
 1785SOL    HW2 5384   3.148   0.355   0.481
 1786SOL     OW 5385   3.667   3.933   4.817
 1786SOL    HW1 5386   3.675   3.866   4.744
 1786SOL    HW2 5387   3.602   3.900   4.886
 1787SOL     OW 5388   1.752   2.261   3.637
 1787SOL    HW1 5389   1.664   2.292   3.672
 1787SOL    HW2 5390   1.737   2.193   3.565
 1788SOL     OW 5391   0.072   2.680   3.416
 1788SOL    HW1 5392   0.115   2.770   3.418
 1788SOL    HW2 5393   5.026   2.683   3.358
 1789SOL     OW 5394   3.242   4.944   3.344
 1789SOL    HW1 5395   3.216   4.863   3.290
 1789SOL    HW2 5396   3.274   4.914   3.434
 1790SOL     OW 5397   4.759   4.974   1.570
 1790SOL    HW1 5398   4.691   4.917   1.524
 1790SOL    HW2 5399   4.825   5.008   1.504
 1791SOL     OW 5400   2.348   2.578   4.982
 1791SOL    HW1 5401   2.386   2.490   5.011
 1791SOL    HW2 5402   2.268   2.562   4.924
 1792SOL     OW 5403   4.415   3.938   0.245
 1792SOL    HW1 5404   4.374   3.885   0.171
 1792SOL    HW2 5405   4.493   3.990   0.210
 1793SOL     OW 5406   1.960   4.639   3.930
 1793SOL    HW1 5407   1.973   4.684   4.018
 1793SOL    HW2 5408   1.894   4.564   3.941
 1794SOL     OW 5409   0.535   3.063   0.625
 1794SOL    HW1 5410   0.541   3.023   0.716
 1794SOL    HW2 5411   0.464   3.016   0.572
 1795SOL     OW 5412   3.818   1.863   0.420
 1795SOL    HW1 5413   3.765   1.853   0.505
 1795SOL    HW2 5414   3.758   1.891   0.346
 1796SOL     OW 5415   4.314   0.037   3.468
 1796SOL    HW1 5416   4.405   0.002   3.446
 1796SOL    HW2 5417   4.246   5.001   3.452
 1797SOL     OW 5418   4.297   2.184   1.197
 1797SOL    HW1 5419   4.281   2.117   1.124
 1797SOL    HW2 5420   4.209   2.206   1.241
 1798SOL     OW 5421   3.526   3.586   2.905
 1798SOL    HW1 5422   3.588   3.537   2.843
 1798SOL    HW2 5423   3.452   3.525   2.933
 1799SOL     OW 5424   0.115   1.426   3.996
 1799SOL    HW1 5425   0.183   1.495   4.019
 1799SOL    HW2 5426   0.157   1.356   3.938
 1800SOL     OW 5427   3.527   1.971   1.475
 1800SOL    HW1 5428   3.624   1.948   1.462
 1800SOL    HW2 5429   3.497   2.028   1.398
 1801SOL     OW 5430   1.401   1.600   3.621
 1801SOL    HW1 5431   1.359   1.542   3.692
 1801SOL    HW2 5432   1.491   1.563   3.598
 1802SOL     OW 5433   4.817   3.327   3.836
 1802SOL    HW1 5434   4.843   3.420   3.862
 1802SOL    HW2 5435   4.793   3.275   3.919
 1803SOL     OW 5436   1.823   2.549   4.090
 1803SOL    HW1 5437   1.736   2.592   4.066
 1803SOL    HW2 5438   1.807   2.454   4.117
 1804SOL     OW 5439   1.742   1.542   1.222
 1804SOL    HW1 5440   1.714   1.636   1.202
 1804SOL    HW2 5441   1.662   1.486   1.242
 1805SOL     OW 5442   3.249   3.765   4.748
 1805SOL    HW1 5443   3.226   3.669   4.767
 1805SOL    HW2 5444   3.218   3.822   4.824
 1806SOL     OW 5445   0.821   2.556   2.848
 1806SOL    HW1 5446   0.746   2.576   2.910
 1806SOL    HW2 5447   0.787   2.501   2.771
 1807SOL     OW 5448   3.052   1.901   2.099
 1807SOL    HW1 5449   2.983   1.838   2.066
 1807SOL    HW2 5450   3.046   1.909   2.199
 1808SOL     OW 5451   3.885   2.289   2.091
 1808SOL    HW1 5452   3.893   2.292   1.992
 1808SOL    HW2 5453   3.951   2.224   2.128
 1809SOL     OW 5454   1.424   4.616   3.386
 1809SOL    HW1 5455   1.403   4.601   3.290
 1809SOL    HW2 5456   1.495   4.553   3.415
 1810SOL     OW 5457   1.759   2.355   0.278
 1810SOL    HW1 5458   1.855   2.367   0.252
 1810SOL    HW2 5459   1.702   2.418   0.225
 1811SOL     OW 5460   1.120   0.903   3.377
 1811SOL    HW1 5461   1.169   0.990   3.388
 1811SOL    HW2 5462   1.101   0.864   3.467
 1812SOL     OW 5463   1.559   2.972   3.254
 1812SOL    HW1 5464   1.478   2.914   3.266
 1812SOL    HW2 5465   1.532   3.059   3.214
 1813SOL     OW 5466   1.357   0.592   3.701
 1813SOL    HW1 5467   1.356   0.692   3.700
 1813SOL    HW2 5468   1.451   0.559   3.697
 1814SOL     OW 5469   4.779   3.119   4.487
 1814SOL    HW1 5470   4.840   3.039   4.486
 1814SOL    HW2 5471   4.717   3.113   4.565
 1815SOL     OW 5472   1.997   0.976   1.499
 1815SOL    HW1 5473   1.934   0.900   1.480
 1815SOL    HW2 5474   1.999   0.993   1.597
 1816SOL     OW 5475   4.827   1.589   2.346
 1816SOL    HW1 5476   4.771   1.644   2.409
 1816SOL    HW2 5477   4.794   1.602   2.252
 1817SOL     OW 5478   3.173   2.574   4.457
 1817SOL    HW1 5479   3.081   2.578   4.495
 1817SOL    HW2 5480   3.168   2.559   4.358
 1818SOL     OW 5481   1.805   1.236   2.356
 1818SOL    HW1 5482   1.873   1.294   2.312
 1818SOL    HW2 5483   1.843   1.199   2.441
 1819SOL     OW 5484   2.349   3.418   4.568
 1819SOL    HW1 5485   2.446   3.392   4.575
 1819SOL    HW2 5486   2.339   3.515   4.590
 1820SOL     OW 5487   2.327   4.053   4.948
 1820SOL    HW1 5488   2.311   4.013   0.003
 1820SOL    HW2 5489   2.266   4.010   4.881
 1821SOL     OW 5490   1.630   1.402   3.888
 1821SOL    HW1 5491   1.540   1.411   3.930
 1821SOL    HW2 5492   1.640   1.310   3.849
 1822SOL     OW 5493   3.177   2.882   4.171
 1822SOL    HW1 5494   3.109   2.923   4.233
 1822SOL    HW2 5495   3.201   2.948   4.100
 1823SOL     OW 5496   0.949   2.093   4.876
 1823SOL    HW1 5497   0.989   2.159   4.939
 1823SOL    HW2 5498   0.883   2.138   4.817
 1824SOL     OW 5499   4.808   4.110   0.696
 1824SOL    HW1 5500   4.887   4.061   0.734
 1824SOL    HW2 5501   4.819   4.119   0.597
 1825SOL     OW 5502   2.856   1.270   3.657
 1825SOL    HW1 5503   2.897   1.276   3.748
 1825SOL    HW2 5504   2.815   1.179   3.644
 1826SOL     OW 5505   3.698   0.382   2.160
 1826SOL    HW1 5506   3.642   0.320   2.104
 1826SOL    HW2 5507   3.645   0.465   2.179
 1827SOL     OW 5508   0.089   2.483   0.418
 1827SOL    HW1 5509   0.146   2.455   0.495
 1827SOL    HW2 5510   0.031   2.559   0.446
 1828SOL     OW 5511   3.628   1.954   1.776
 1828SOL    HW1 5512   3.636   1.948   1.676
 1828SOL    HW2 5513   3.666   1.872   1.817
 1829SOL     OW 5514   3.621   1.850   2.917
 1829SOL    HW1 5515   3.580   1.769   2.875
 1829SOL    HW2 5516   3.575   1.869   3.004
 1830SOL     OW 5517   1.600   4.404   3.462
 1830SOL    HW1 5518   1.651   4.424   3.546
 1830SOL    HW2 5519   1.534   4.331   3.480
 1831SOL     OW 5520   1.576   2.450   4.590
 1831SOL    HW1 5521   1.636   2.464   4.512
 1831SOL    HW2 5522   1.630   2.457   4.675
 1832SOL     OW 5523   2.182   0.682   0.006
 1832SOL    HW1 5524   2.167   0.602   0.064
 1832SOL    HW2 5525   2.128   0.758   0.041
 1833SOL     OW 5526   1.402   4.244   2.100
 1833SOL    HW1 5527   1.438   4.266   2.191
 1833SOL    HW2 5528   1.469   4.271   2.030
 1834SOL     OW 5529   4.316   2.816   3.360
 1834SOL    HW1 5530   4.392   2.813   3.425
 1834SOL    HW2 5531   4.265   2.730   3.364
 1835SOL     OW 5532   0.082   0.154   0.610
 1835SOL    HW1 5533   0.060   0.171   0.514
 1835SOL    HW2 5534   0.002   0.115   0.657
 1836SOL     OW 5535   3.828   3.044   1.009
 1836SOL    HW1 5536   3.862   3.108   1.078
 1836SOL    HW2 5537   3.762   2.982   1.051
 1837SOL     OW 5538   2.863   1.024   0.319
 1837SOL    HW1 5539   2.957   0.996   0.338
 1837SOL    HW2 5540   2.856   1.056   0.225
 1838SOL     OW 5541   1.712   1.545   0.291
 1838SOL    HW1 5542   1.735   1.630   0.338
 1838SOL    HW2 5543   1.632   1.503   0.335
 1839SOL     OW 5544   4.276   3.608   0.309
 1839SOL    HW1 5545   4.362   3.592   0.358
 1839SOL    HW2 5546   4.218   3.527   0.316
 1840SOL     OW 5547   2.289   3.919   0.896
 1840SOL    HW1 5548   2.275   3.974   0.814
 1840SOL    HW2 5549   2.233   3.956   0.970
 1841SOL     OW 5550   4.455   1.886   4.562
 1841SOL    HW1 5551   4.356   1.895   4.569
 1841SOL    HW2 5552   4.478   1.835   4.479
 1842SOL     OW 5553   3.686   3.518   1.826
 1842SOL    HW1 5554   3.670   3.434   1.878
 1842SOL    HW2 5555   3.600   3.547   1.783
 1843SOL     OW 5556   4.956   1.156   4.454
 1843SOL    HW1 5557   4.861   1.127   4.459
 1843SOL    HW2 5558   5.016   1.082   4.482
 1844SOL     OW 5559   3.844   2.998   0.108
 1844SOL    HW1 5560   3.846   3.086   0.061
 1844SOL    HW2 5561   3.857   2.924   0.042
 1845SOL     OW 5562   1.345   1.909   3.191
 1845SOL    HW1 5563   1.261   1.922   3.138
 1845SOL    HW2 5564   1.392   1.827   3.160
 1846SOL     OW 5565   4.737   1.905   3.166
 1846SOL    HW1 5566   4.683   1.988   3.148
 1846SOL    HW2 5567   4.688   1.826   3.130
 1847SOL     OW 5568   0.112   0.739   1.371
 1847SOL    HW1 5569   0.212   0.741   1.379
 1847SOL    HW2 5570   0.084   0.791   1.291
 1848SOL     OW 5571   4.423   3.059   1.752
 1848SOL    HW1 5572   4.428   3.098   1.660
 1848SOL    HW2 5573   4.504   3.085   1.804
 1849SOL     OW 5574   0.408   3.955   2.248
 1849SOL    HW1 5575   0.461   3.908   2.319
 1849SOL    HW2 5576   0.453   3.942   2.159
 1850SOL     OW 5577   2.355   1.449   4.519
 1850SOL    HW1 5578   2.353   1.473   4.616
 1850SOL    HW2 5579   2.436   1.489   4.477
 1851SOL     OW 5580   2.154   3.943   1.831
 1851SOL    HW1 5581   2.144   3.904   1.740
 1851SOL    HW2 5582   2.226   3.895   1.880
 1852SOL     OW 5583   3.551   0.534   4.987
 1852SOL    HW1 5584   3.600   0.453   5.020
 1852SOL    HW2 5585   3.454   0.525   5.009
 1853SOL     OW 5586   3.600   4.964   2.905
 1853SOL    HW1 5587   3.590   4.890   2.971
 1853SOL    HW2 5588   3.697   4.991   2.900
 1854SOL     OW 5589   4.330   0.508   3.744
 1854SOL    HW1 5590   4.362   0.438   3.807
 1854SOL    HW2 5591   4.327   0.471   3.651
 1855SOL     OW 5592   3.576   2.263   1.695
 1855SOL    HW1 5593   3.491   2.262   1.747
 1855SOL    HW2 5594   3.593   2.172   1.657
 1856SOL     OW 5595   3.002   3.802   3.763
 1856SOL    HW1 5596   2.975   3.731   3.828
 1856SOL    HW2 5597   3.096   3.830   3.781
 1857SOL     OW 5598   2.699   4.789   1.829
 1857SOL    HW1 5599   2.634   4.713   1.826
 1857SOL    HW2 5600   2.682   4.844   1.911
 1858SOL     OW 5601   4.351   0.268   0.874
 1858SOL    HW1 5602   4.275   0.219   0.916
 1858SOL    HW2 5603   4.341   0.266   0.774
 1859SOL     OW 5604   3.972   3.455   2.733
 1859SOL    HW1 5605   3.879   3.464   2.767
 1859SOL    HW2 5606   3.988   3.520   2.659
 1860SOL     OW 5607   3.411   4.103   1.787
 1860SOL    HW1 5608   3.324   4.143   1.759
 1860SOL    HW2 5609   3.394   4.027   1.850
 1861SOL     OW 5610   4.879   4.530   2.016
 1861SOL    HW1 5611   4.937   4.560   2.092
 1861SOL    HW2 5612   4.875   4.430   2.015
 1862SOL     OW 5613   2.502   3.377   1.295
 1862SOL    HW1 5614   2.561   3.300   1.322
 1862SOL    HW2 5615   2.432   3.391   1.365
 1863SOL     OW 5616   4.689   3.732   1.394
 1863SOL    HW1 5617   4.735   3.741   1.482
 1863SOL    HW2 5618   4.753   3.757   1.321
 1864SOL     OW 5619   0.477   0.682   4.180
 1864SOL    HW1 5620   0.542   0.758   4.185
 1864SOL    HW2 5621   0.461   0.646   4.271
 1865SOL     OW 5622   4.188   1.170   0.997
 1865SOL    HW1 5623   4.098   1.148   1.033
 1865SOL    HW2 5624   4.230   1.088   0.957
 1866SOL     OW 5625   3.695   2.615   1.658
 1866SOL    HW1 5626   3.643   2.559   1.722
 1866SOL    HW2 5627   3.631   2.666   1.599
 1867SOL     OW 5628   0.568   0.650   0.879
 1867SOL    HW1 5629   0.561   0.710   0.800
 1867SOL    HW2 5630   0.482   0.601   0.892
 1868SOL     OW 5631   2.604   4.191   0.745
 1868SOL    HW1 5632   2.666   4.189   0.666
 1868SOL    HW2 5633   2.522   4.243   0.721
 1869SOL     OW 5634   4.075   2.896   1.743
 1869SOL    HW1 5635   4.005   2.828   1.768
 1869SOL    HW2 5636   4.151   2.850   1.698
 1870SOL     OW 5637   0.096   3.665   0.594
 1870SOL    HW1 5638   0.105   3.589   0.530
 1870SOL    HW2 5639   0.184   3.682   0.638
 1871SOL     OW 5640   1.410   2.520   1.933
 1871SOL    HW1 5641   1.459   2.550   2.015
 1871SOL    HW2 5642   1.332   2.580   1.917
 1872SOL     OW 5643   1.331   0.894   0.121
 1872SOL    HW1 5644   1.394   0.904   0.044
 1872SOL    HW2 5645   1.365   0.947   0.198
 1873SOL     OW 5646   0.772   4.756   2.416
 1873SOL    HW1 5647   0.787   4.658   2.404
 1873SOL    HW2 5648   0.686   4.782   2.372
 1874SOL     OW 5649   4.239   1.278   4.742
 1874SOL    HW1 5650   4.284   1.208   4.687
 1874SOL    HW2 5651   4.307   1.322   4.801
 1875SOL     OW 5652   1.275   1.715   1.731
 1875SOL    HW1 5653   1.187   1.755   1.753
 1875SOL    HW2 5654   1.273   1.617   1.751
 1876SOL     OW 5655   3.301   2.036   0.322
 1876SOL    HW1 5656   3.388   2.019   0.368
 1876SOL    HW2 5657   3.312   2.024   0.223
 1877SOL     OW 5658   4.330   4.484   0.298
 1877SOL    HW1 5659   4.305   4.578   0.275
 1877SOL    HW2 5660   4.272   4.452   0.373
 1878SOL     OW 5661   2.600   4.364   2.500
 1878SOL    HW1 5662   2.699   4.376   2.486
 1878SOL    HW2 5663   2.551   4.434   2.448
 1879SOL     OW 5664   3.343   3.936   1.516
 1879SOL    HW1 5665   3.291   3.991   1.450
 1879SOL    HW2 5666   3.441   3.949   1.499
 1880SOL     OW 5667   2.983   3.704   4.106
 1880SOL    HW1 5668   3.016   3.767   4.177
 1880SOL    HW2 5669   3.062   3.670   4.054
 1881SOL     OW 5670   4.335   2.160   1.646
 1881SOL    HW1 5671   4.365   2.112   1.563
 1881SOL    HW2 5672   4.368   2.111   1.727
 1882SOL     OW 5673   3.621   2.231   0.424
 1882SOL    HW1 5674   3.577   2.234   0.334
 1882SOL    HW2 5675   3.620   2.137   0.459
 1883SOL     OW 5676   0.363   1.682   2.234
 1883SOL    HW1 5677   0.328   1.700   2.326
 1883SOL    HW2 5678   0.371   1.583   2.219
 1884SOL     OW 5679   1.501   3.169   2.903
 1884SOL    HW1 5680   1.534   3.078   2.926
 1884SOL    HW2 5681   1.547   3.202   2.821
 1885SOL     OW 5682   2.443   4.680   3.014
 1885SOL    HW1 5683   2.516   4.626   3.055
 1885SOL    HW2 5684   2.400   4.737   3.083
 1886SOL     OW 5685   4.154   1.316   0.185
 1886SOL    HW1 5686   4.153   1.401   0.237
 1886SOL    HW2 5687   4.105   1.329   0.099
 1887SOL     OW 5688   1.348   4.350   3.609
 1887SOL    HW1 5689   1.314   4.444   3.610
 1887SOL    HW2 5690   1.384   4.326   3.699
 1888SOL     OW 5691   0.433   2.855   2.913
 1888SOL    HW1 5692   0.355   2.910   2.941
 1888SOL    HW2 5693   0.420   2.823   2.819
 1889SOL     OW 5694   1.814   3.705   1.807
 1889SOL    HW1 5695   1.724   3.668   1.825
 1889SOL    HW2 5696   1.840   3.768   1.881
 1890SOL     OW 5697   0.549   2.087   4.292
 1890SOL    HW1 5698   0.622   2.055   4.232
 1890SOL    HW2 5699   0.460   2.062   4.254
 1891SOL     OW 5700   3.722   0.533   1.666
 1891SOL    HW1 5701   3.729   0.554   1.763
 1891SOL    HW2 5702   3.690   0.438   1.655
 1892SOL     OW 5703   1.197   0.545   2.763
 1892SOL    HW1 5704   1.147   0.458   2.765
 1892SOL    HW2 5705   1.202   0.578   2.669
 1893SOL     OW 5706   4.694   1.874   4.022
 1893SOL    HW1 5707   4.643   1.913   4.098
 1893SOL    HW2 5708   4.642   1.799   3.981
 1894SOL     OW 5709   0.190   3.560   4.145
 1894SOL    HW1 5710   0.236   3.609   4.071
 1894SOL    HW2 5711   0.120   3.618   4.185
 1895SOL     OW 5712   4.483   4.219   3.967
 1895SOL    HW1 5713   4.455   4.127   3.941
 1895SOL    HW2 5714   4.525   4.217   4.058
 1896SOL     OW 5715   2.484   1.963   4.192
 1896SOL    HW1 5716   2.553   1.981   4.262
 1896SOL    HW2 5717   2.525   1.976   4.102
 1897SOL     OW 5718   3.881   2.507   3.191
 1897SOL    HW1 5719   3.845   2.477   3.280
 1897SOL    HW2 5720   3.810   2.500   3.122
 1898SOL     OW 5721   4.297   3.739   2.019
 1898SOL    HW1 5722   4.206   3.762   2.054
 1898SOL    HW2 5723   4.319   3.797   1.940
 1899SOL     OW 5724   2.109   1.007   2.873
 1899SOL    HW1 5725   2.190   0.960   2.907
 1899SOL    HW2 5726   2.040   1.012   2.945
 1900SOL     OW 5727   2.496   0.542   3.456
 1900SOL    HW1 5728   2.520   0.488   3.375
 1900SOL    HW2 5729   2.576   0.594   3.487
 1901SOL     OW 5730   3.993   3.900   3.878
 1901SOL    HW1 5731   3.922   3.857   3.822
 1901SOL    HW2 5732   4.056   3.951   3.820
 1902SOL     OW 5733   1.641   0.092   4.001
 1902SOL    HW1 5734   1.712   0.124   4.064
 1902SOL    HW2 5735   1.657   5.030   3.979
 1903SOL     OW 5736   4.465   2.617   4.849
 1903SOL    HW1 5737   4.531   2.625   4.923
 1903SOL    HW2 5738   4.459   2.522   4.819
 1904SOL     OW 5739   2.953   1.808   1.568
 1904SOL    HW1 5740   2.987   1.901   1.582
 1904SOL    HW2 5741   2.942   1.762   1.656
 1905SOL     OW 5742   3.121   2.259   0.770
 1905SOL    HW1 5743   3.123   2.177   0.713
 1905SOL    HW2 5744   3.087   2.337   0.716
 1906SOL     OW 5745   4.024   2.018   1.638
 1906SOL    HW1 5746   4.084   1.953   1.684
 1906SOL    HW2 5747   4.073   2.060   1.562
 1907SOL     OW 5748   4.317   4.829   4.021
 1907SOL    HW1 5749   4.283   4.921   4.041
 1907SOL    HW2 5750   4.306   4.771   4.102
 1908SOL     OW 5751   2.750   1.386   4.931
 1908SOL    HW1 5752   2.822   1.450   4.904
 1908SOL    HW2 5753   2.663   1.436   4.939
 1909SOL     OW 5754   0.698   3.448   3.651
 1909SOL    HW1 5755   0.777   3.449   3.711
 1909SOL    HW2 5756   0.687   3.537   3.608
 1910SOL     OW 5757   0.419   2.318   1.087
 1910SOL    HW1 5758   0.348   2.273   1.141
 1910SOL    HW2 5759   0.508   2.304   1.131
 1911SOL     OW 5760   1.588   3.207   4.604
 1911SOL    HW1 5761   1.610   3.127   4.548
 1911SOL    HW2 5762   1.488   3.217   4.609
 1912SOL     OW 5763   1.041   2.265   1.290
 1912SOL    HW1 5764   1.103   2.336   1.257
 1912SOL    HW2 5765   1.090   2.202   1.350
 1913SOL     OW 5766   4.706   4.126   3.321
 1913SOL    HW1 5767   4.663   4.099   3.234
 1913SOL    HW2 5768   4.803   4.144   3.305
 1914SOL     OW 5769   0.350   4.683   3.133
 1914SOL    HW1 5770   0.426   4.688   3.069
 1914SOL    HW2 5771   0.323   4.775   3.160
 1915SOL     OW 5772   3.611   4.746   1.664
 1915SOL    HW1 5773   3.653   4.656   1.647
 1915SOL    HW2 5774   3.553   4.740   1.745
 1916SOL     OW 5775   0.946   0.287   1.089
 1916SOL    HW1 5776   1.007   0.293   1.167
 1916SOL    HW2 5777   0.993   0.317   1.006
 1917SOL     OW 5778   2.696   2.779   1.644
 1917SOL    HW1 5779   2.794   2.773   1.625
 1917SOL    HW2 5780   2.681   2.828   1.729
 1918SOL     OW 5781   4.810   1.585   1.476
 1918SOL    HW1 5782   4.719   1.590   1.518
 1918SOL    HW2 5783   4.822   1.495   1.434
 1919SOL     OW 5784   3.429   2.941   1.824
 1919SOL    HW1 5785   3.440   3.013   1.892
 1919SOL    HW2 5786   3.505   2.945   1.758
 1920SOL     OW 5787   0.706   4.237   1.198
 1920SOL    HW1 5788   0.786   4.254   1.140
 1920SOL    HW2 5789   0.680   4.141   1.192
 1921SOL     OW 5790   3.752   2.813   3.960
 1921SOL    HW1 5791   3.809   2.767   3.892
 1921SOL    HW2 5792   3.707   2.744   4.018
 1922SOL     OW 5793   3.970   2.039   4.535
 1922SOL    HW1 5794   3.901   2.100   4.574
 1922SOL    HW2 5795   3.945   2.016   4.441
 1923SOL     OW 5796   3.280   0.688   0.904
 1923SOL    HW1 5797   3.359   0.656   0.958
 1923SOL    HW2 5798   3.225   0.749   0.960
 1924SOL     OW 5799   3.329   4.767   1.573
 1924SOL    HW1 5800   3.313   4.780   1.476
 1924SOL    HW2 5801   3.396   4.833   1.606
 1925SOL     OW 5802   0.357   4.187   0.416
 1925SOL    HW1 5803   0.388   4.111   0.358
 1925SOL    HW2 5804   0.433   4.219   0.472
 1926SOL     OW 5805   1.511   2.753   3.002
 1926SOL    HW1 5806   1.510   2.664   3.048
 1926SOL    HW2 5807   1.589   2.757   2.940
 1927SOL     OW 5808   2.164   1.795   0.802
 1927SOL    HW1 5809   2.209   1.885   0.797
 1927SOL    HW2 5810   2.091   1.799   0.870
 1928SOL     OW 5811   3.092   4.504   2.805
 1928SOL    HW1 5812   3.071   4.504   2.902
 1928SOL    HW2 5813   3.154   4.428   2.784
 1929SOL     OW 5814   1.822   1.299   3.176
 1929SOL    HW1 5815   1.791   1.348   3.258
 1929SOL    HW2 5816   1.761   1.321   3.100
 1930SOL     OW 5817   2.322   4.709   0.305
 1930SOL    HW1 5818   2.310   4.615   0.275
 1930SOL    HW2 5819   2.395   4.713   0.374
 1931SOL     OW 5820   1.023   0.752   4.220
 1931SOL    HW1 5821   1.087   0.746   4.297
 1931SOL    HW2 5822   1.021   0.665   4.171
 1932SOL     OW 5823   2.214   1.051   3.207
 1932SOL    HW1 5824   2.120   1.044   3.175
 1932SOL    HW2 5825   2.271   1.088   3.133
 1933SOL     OW 5826   2.164   1.818   2.638
 1933SOL    HW1 5827   2.124   1.905   2.612
 1933SOL    HW2 5828   2.248   1.834   2.690
 1934SOL     OW 5829   2.256   3.999   4.469
 1934SOL    HW1 5830   2.278   3.909   4.506
 1934SOL    HW2 5831   2.269   4.068   4.540
 1935SOL     OW 5832   2.118   3.303   3.128
 1935SOL    HW1 5833   2.085   3.220   3.084
 1935SOL    HW2 5834   2.103   3.381   3.067
 1936SOL     OW 5835   2.016   0.735   4.317
 1936SOL    HW1 5836   1.984   0.801   4.249
 1936SOL    HW2 5837   2.036   0.648   4.272
 1937SOL     OW 5838   4.773   3.222   1.340
 1937SOL    HW1 5839   4.839   3.183   1.404
 1937SOL    HW2 5840   4.792   3.189   1.248
 1938SOL     OW 5841   3.671   1.930   0.203
 1938SOL    HW1 5842   3.594   1.868   0.188
 1938SOL    HW2 5843   3.711   1.955   0.115
 1939SOL     OW 5844   3.106   4.164   2.961
 1939SOL    HW1 5845   3.079   4.249   3.006
 1939SOL    HW2 5846   3.180   4.184   2.896
 1940SOL     OW 5847   4.726   0.675   1.172
 1940SOL    HW1 5848   4.766   0.587   1.145
 1940SOL    HW2 5849   4.676   0.664   1.258
 1941SOL     OW 5850   0.474   2.762   2.269
 1941SOL    HW1 5851   0.471   2.829   2.195
 1941SOL    HW2 5852   0.537   2.689   2.245
 1942SOL     OW 5853   4.405   2.039   1.411
 1942SOL    HW1 5854   4.499   2.011   1.395
 1942SOL    HW2 5855   4.373   2.095   1.334
 1943SOL     OW 5856   4.623   1.727   0.695
 1943SOL    HW1 5857   4.660   1.782   0.620
 1943SOL    HW2 5858   4.693   1.665   0.729
 1944SOL     OW 5859   4.928   3.872   3.066
 1944SOL    HW1 5860   4.939   3.878   2.967
 1944SOL    HW2 5861   4.839   3.833   3.088
 1945SOL     OW 5862   2.570   3.494   2.373
 1945SOL    HW1 5863   2.619   3.580   2.361
 1945SOL    HW2 5864   2.633   3.418   2.361
 1946SOL     OW 5865   0.130   1.706   0.358
 1946SOL    HW1 5866   0.147   1.608   0.362
 1946SOL    HW2 5867   0.057   1.730   0.422
 1947SOL     OW 5868   2.203   2.272   4.376
 1947SOL    HW1 5869   2.106   2.256   4.395
 1947SOL    HW2 5870   2.252   2.285   4.461
 1948SOL     OW 5871   3.367   4.011   1.199
 1948SOL    HW1 5872   3.407   3.923   1.173
 1948SOL    HW2 5873   3.269   3.998   1.218
 1949SOL     OW 5874   1.459   0.833   4.584
 1949SOL    HW1 5875   1.403   0.912   4.608
 1949SOL    HW2 5876   1.415   0.750   4.619
 1950SOL     OW 5877   1.451   4.569   1.553
 1950SOL    HW1 5878   1.479   4.568   1.457
 1950SOL    HW2 5879   1.517   4.620   1.608
 1951SOL     OW 5880   2.693   3.728   2.352
 1951SOL    HW1 5881   2.773   3.781   2.322
 1951SOL    HW2 5882   2.623   3.791   2.385
 1952SOL     OW 5883   4.198   2.044   0.045
 1952SOL    HW1 5884   4.290   2.074   0.069
 1952SOL    HW2 5885   4.155   2.001   0.125
 1953SOL     OW 5886   4.538   4.079   4.872
 1953SOL    HW1 5887   4.571   4.172   4.852
 1953SOL    HW2 5888   4.553   4.021   4.793
 1954SOL     OW 5889   2.990   2.296   1.049
 1954SOL    HW1 5890   3.002   2.241   1.132
 1954SOL    HW2 5891   3.051   2.263   0.978
 1955SOL     OW 5892   2.614   2.084   1.959
 1955SOL    HW1 5893   2.524   2.125   1.943
 1955SOL    HW2 5894   2.618   2.046   2.051
 1956SOL     OW 5895   4.701   2.714   3.742
 1956SOL    HW1 5896   4.724   2.806   3.712
 1956SOL    HW2 5897   4.774   2.651   3.715
 1957SOL     OW 5898   1.740   4.725   0.290
 1957SOL    HW1 5899   1.734   4.823   0.269
 1957SOL    HW2 5900   1.789   4.678   0.217
 1958SOL     OW 5901   2.278   3.148   0.383
 1958SOL    HW1 5902   2.311   3.241   0.363
 1958SOL    HW2 5903   2.330   3.082   0.329
 1959SOL     OW 5904   1.313   2.886   2.724
 1959SOL    HW1 5905   1.315   2.799   2.674
 1959SOL    HW2 5906   1.235   2.940   2.693
 1960SOL     OW 5907   2.775   4.962   0.720
 1960SOL    HW1 5908   2.786   4.883   0.780
 1960SOL    HW2 5909   2.687   5.006   0.740
 1961SOL     OW 5910   1.336   0.159   1.312
 1961SOL    HW1 5911   1.322   0.121   1.403
 1961SOL    HW2 5912   1.324   0.087   1.243
 1962SOL     OW 5913   1.006   3.420   1.960
 1962SOL    HW1 5914   1.014   3.322   1.975
 1962SOL    HW2 5915   1.066   3.449   1.886
 1963SOL     OW 5916   5.008   2.051   0.644
 1963SOL    HW1 5917   4.967   2.139   0.619
 1963SOL    HW2 5918   0.021   2.013   0.565
 1964SOL     OW 5919   2.248   4.704   0.788
 1964SOL    HW1 5920   2.290   4.635   0.847
 1964SOL    HW2 5921   2.315   4.775   0.766
 1965SOL     OW 5922   3.978   3.434   1.358
 1965SOL    HW1 5923   4.076   3.456   1.357
 1965SOL    HW2 5924   3.936   3.474   1.440
 1966SOL     OW 5925   1.338   1.635   1.479
 1966SOL    HW1 5926   1.250   1.589   1.461
 1966SOL    HW2 5927   1.332   1.687   1.564
 1967SOL     OW 5928   2.182   4.252   2.849
 1967SOL    HW1 5929   2.173   4.351   2.860
 1967SOL    HW2 5930   2.128   4.205   2.919
 1968SOL     OW 5931   3.931   4.907   4.575
 1968SOL    HW1 5932   3.974   4.817   4.577
 1968SOL    HW2 5933   3.875   4.915   4.492
 1969SOL     OW 5934   0.430   0.051   0.739
 1969SOL    HW1 5935   0.474   0.093   0.659
 1969SOL    HW2 5936   0.332   0.074   0.738
 1970SOL     OW 5937   3.243   1.531   4.644
 1970SOL    HW1 5938   3.249   1.612   4.585
 1970SOL    HW2 5939   3.153   1.489   4.633
 1971SOL     OW 5940   0.122   3.591   4.614
 1971SOL    HW1 5941   0.190   3.663   4.624
 1971SOL    HW2 5942   0.102   3.577   4.517
 1972SOL     OW 5943   4.926   3.239   0.040
 1972SOL    HW1 5944   4.889   3.309   5.013
 1972SOL    HW2 5945   4.952   3.158   5.023
 1973SOL     OW 5946   1.494   3.308   1.610
 1973SOL    HW1 5947   1.412   3.303   1.553
 1973SOL    HW2 5948   1.555   3.379   1.575
 1974SOL     OW 5949   0.574   2.079   2.056
 1974SOL    HW1 5950   0.579   1.992   2.105
 1974SOL    HW2 5951   0.493   2.129   2.087
 1975SOL     OW 5952   0.928   2.535   1.523
 1975SOL    HW1 5953   0.899   2.495   1.610
 1975SOL    HW2 5954   1.003   2.481   1.485
 1976SOL     OW 5955   2.127   1.613   2.316
 1976SOL    HW1 5956   2.094   1.523   2.286
 1976SOL    HW2 5957   2.142   1.671   2.236
 1977SOL     OW 5958   2.844   1.361   3.281
 1977SOL    HW1 5959   2.786   1.347   3.201
 1977SOL    HW2 5960   2.835   1.282   3.342
 1978SOL     OW 5961   4.545   2.699   4.606
 1978SOL    HW1 5962   4.472   2.701   4.538
 1978SOL    HW2 5963   4.507   2.677   4.696
 1979SOL     OW 5964   2.691   2.573   1.245
 1979SOL    HW1 5965   2.762   2.561   1.175
 1979SOL    HW2 5966   2.611   2.519   1.219
 1980SOL     OW 5967   0.739   0.049   1.438
 1980SOL    HW1 5968   0.700   0.045   1.346
 1980SOL    HW2 5969   0.762   4.991   1.469
 1981SOL     OW 5970   0.423   3.167   2.857
 1981SOL    HW1 5971   0.361   3.201   2.928
 1981SOL    HW2 5972   0.490   3.104   2.897
 1982SOL     OW 5973   3.966   0.320   3.140
 1982SOL    HW1 5974   3.893   0.305   3.207
 1982SOL    HW2 5975   3.948   0.404   3.089
 1983SOL     OW 5976   4.855   3.611   3.833
 1983SOL    HW1 5977   4.756   3.614   3.817
 1983SOL    HW2 5978   4.886   3.700   3.868
 1984SOL     OW 5979   4.519   3.498   3.081
 1984SOL    HW1 5980   4.457   3.531   3.010
 1984SOL    HW2 5981   4.614   3.508   3.050
 1985SOL     OW 5982   1.380   2.398   0.228
 1985SOL    HW1 5983   1.467   2.445   0.208
 1985SOL    HW2 5984   1.386   2.303   0.199
 1986SOL     OW 5985   0.484   0.002   1.276
 1986SOL    HW1 5986   0.438   4.948   1.287
 1986SOL    HW2 5987   0.555   5.029   1.206
 1987SOL     OW 5988   4.443   4.117   2.458
 1987SOL    HW1 5989   4.483   4.161   2.539
 1987SOL    HW2 5990   4.455   4.176   2.379
 1988SOL     OW 5991   2.436   2.769   3.404
 1988SOL    HW1 5992   2.514   2.824   3.433
 1988SOL    HW2 5993   2.401   2.804   3.316
 1989SOL     OW 5994   0.554   0.310   2.797
 1989SOL    HW1 5995   0.507   0.393   2.826
 1989SOL    HW2 5996   0.529   0.235   2.858
 1990SOL     OW 5997   2.542   4.925   3.630
 1990SOL    HW1 5998   2.508   4.906   3.538
 1990SOL    HW2 5999   2.478   4.887   3.697
 1991SOL     OW 6000   3.796   2.825   2.211
 1991SOL    HW1 6001   3.720   2.889   2.213
 1991SOL    HW2 6002   3.806   2.786   2.119
 1992SOL     OW 6003   1.116   0.678   3.847
 1992SOL    HW1 6004   1.128   0.702   3.751
 1992SOL    HW2 6005   1.198   0.632   3.881
 1993SOL     OW 6006   1.009   0.030   4.870
 1993SOL    HW1 6007   1.072   0.018   4.792
 1993SOL    HW2 6008   1.062   0.030   4.955
 1994SOL     OW 6009   1.267   3.395   2.627
 1994SOL    HW1 6010   1.202   3.320   2.635
 1994SOL    HW2 6011   1.354   3.368   2.669
 1995SOL     OW 6012   2.929   3.925   0.126
 1995SOL    HW1 6013   3.012   3.942   0.180
 1995SOL    HW2 6014   2.954   3.881   0.040
 1996SOL     OW 6015   1.526   1.046   2.207
 1996SOL    HW1 6016   1.460   1.022   2.137
 1996SOL    HW2 6017   1.564   0.963   2.248
 1997SOL     OW 6018   2.182   4.141   3.865
 1997SOL    HW1 6019   2.103   4.194   3.895
 1997SOL    HW2 6020   2.159   4.091   3.782
 1998SOL     OW 6021   3.917   1.676   1.486
 1998SOL    HW1 6022   3.832   1.629   1.508
 1998SOL    HW2 6023   3.995   1.617   1.509
 1999SOL     OW 6024   2.305   1.851   0.261
 1999SOL    HW1 6025   2.206   1.865   0.266
 1999SOL    HW2 6026   2.341   1.833   0.353
 2000SOL     OW 6027   2.815   0.013   0.338
 2000SOL    HW1 6028   2.809   0.080   0.264
 2000SOL    HW2 6029   2.764   0.046   0.417
 2001SOL     OW 6030   1.604   5.008   3.156
 2001SOL    HW1 6031   1.537   0.024   3.103
 2001SOL    HW2 6032   1.623   0.023   3.241
 2002SOL     OW 6033   3.204   0.171   1.945
 2002SOL    HW1 6034   3.110   0.182   1.976
 2002SOL    HW2 6035   3.220   0.076   1.918
 2003SOL     OW 6036   1.264   1.824   4.148
 2003SOL    HW1 6037   1.294   1.795   4.057
 2003SOL    HW2 6038   1.252   1.744   4.206
 2004SOL     OW 6039   0.587   3.080   3.640
 2004SOL    HW1 6040   0.493   3.112   3.631
 2004SOL    HW2 6041   0.615   3.035   3.556
 2005SOL     OW 6042   3.765   5.004   4.758
 2005SOL    HW1 6043   3.773   4.955   4.845
 2005SOL    HW2 6044   3.837   4.975   4.696
 2006SOL     OW 6045   0.530   1.215   0.713
 2006SOL    HW1 6046   0.511   1.312   0.696
 2006SOL    HW2 6047   0.618   1.191   0.673
 2007SOL     OW 6048   3.340   2.461   3.089
 2007SOL    HW1 6049   3.423   2.504   3.054
 2007SOL    HW2 6050   3.319   2.380   3.034
 2008SOL     OW 6051   0.792   0.363   4.394
 2008SOL    HW1 6052   0.698   0.365   4.361
 2008SOL    HW2 6053   0.839   0.448   4.368
 2009SOL     OW 6054   4.006   1.392   2.119
 2009SOL    HW1 6055   3.954   1.307   2.125
 2009SOL    HW2 6056   4.083   1.379   2.055
 2010SOL     OW 6057   0.190   0.479   2.690
 2010SOL    HW1 6058   0.108   0.515   2.734
 2010SOL    HW2 6059   0.170   0.390   2.649
 2011SOL     OW 6060   3.867   2.741   0.882
 2011SOL    HW1 6061   3.916   2.694   0.810
 2011SOL    HW2 6062   3.911   2.828   0.902
 2012SOL     OW 6063   2.676   3.410   3.117
 2012SOL    HW1 6064   2.746   3.365   3.062
 2012SOL    HW2 6065   2.709   3.421   3.211
 2013SOL     OW 6066   0.183   1.357   2.357
 2013SOL    HW1 6067   0.084   1.350   2.371
 2013SOL    HW2 6068   0.205   1.342   2.261
 2014SOL     OW 6069   2.772   1.950   3.721
 2014SOL    HW1 6070   2.774   1.856   3.754
 2014SOL    HW2 6071   2.864   1.990   3.727
 2015SOL     OW 6072   3.814   2.707   2.841
 2015SOL    HW1 6073   3.826   2.608   2.846
 2015SOL    HW2 6074   3.717   2.729   2.829
 2016SOL     OW 6075   0.454   0.903   0.018
 2016SOL    HW1 6076   0.427   0.876   0.111
 2016SOL    HW2 6077   0.405   0.987   5.028
 2017SOL     OW 6078   0.538   2.578   2.895
 2017SOL    HW1 6079   0.476   2.621   2.960
 2017SOL    HW2 6080   0.528   2.622   2.806
 2018SOL     OW 6081   3.692   0.664   2.655
 2018SOL    HW1 6082   3.702   0.602   2.578
 2018SOL    HW2 6083   3.594   0.678   2.674
 2019SOL     OW 6084   4.148   2.688   2.140
 2019SOL    HW1 6085   4.075   2.721   2.079
 2019SOL    HW2 6086   4.135   2.726   2.231
 2020SOL     OW 6087   4.495   1.479   1.983
 2020SOL    HW1 6088   4.544   1.549   2.035
 2020SOL    HW2 6089   4.523   1.484   1.887
 2021SOL     OW 6090   1.724   2.737   3.220
 2021SOL    HW1 6091   1.679   2.802   3.159
 2021SOL    HW2 6092   1.686   2.745   3.312
 2022SOL     OW 6093   2.818   1.755   2.787
 2022SOL    HW1 6094   2.739   1.711   2.744
 2022SOL    HW2 6095   2.888   1.686   2.806
 2023SOL     OW 6096   4.520   2.727   0.208
 2023SOL    HW1 6097   4.448   2.796   0.198
 2023SOL    HW2 6098   4.571   2.744   0.292
 2024SOL     OW 6099   2.676   0.453   1.921
 2024SOL    HW1 6100   2.626   0.409   1.846
 2024SOL    HW2 6101   2.774   0.432   1.912
 2025SOL     OW 6102   4.113   2.363   4.109
 2025SOL    HW1 6103   4.047   2.367   4.184
 2025SOL    HW2 6104   4.166   2.279   4.117
 2026SOL     OW 6105   0.340   3.738   0.699
 2026SOL    HW1 6106   0.425   3.756   0.650
 2026SOL    HW2 6107   0.316   3.818   0.754
 2027SOL     OW 6108   2.004   4.318   2.233
 2027SOL    HW1 6109   2.038   4.308   2.327
 2027SOL    HW2 6110   2.058   4.388   2.186
 2028SOL     OW 6111   3.791   3.645   2.176
 2028SOL    HW1 6112   3.716   3.600   2.224
 2028SOL    HW2 6113   3.870   3.650   2.237
 2029SOL     OW 6114   0.374   2.453   1.401
 2029SOL    HW1 6115   0.383   2.365   1.447
 2029SOL    HW2 6116   0.327   2.518   1.461
 2030SOL     OW 6117   2.017   4.389   3.799
 2030SOL    HW1 6118   2.038   4.483   3.773
 2030SOL    HW2 6119   1.977   4.341   3.720
 2031SOL     OW 6120   4.816   1.553   1.801
 2031SOL    HW1 6121   4.837   1.602   1.885
 2031SOL    HW2 6122   4.748   1.604   1.749
 2032SOL     OW 6123   2.758   2.520   3.110
 2032SOL    HW1 6124   2.678   2.571   3.141
 2032SOL    HW2 6125   2.733   2.465   3.030
 2033SOL     OW 6126   3.827   3.607   4.068
 2033SOL    HW1 6127   3.832   3.599   3.969
 2033SOL    HW2 6128   3.919   3.617   4.106
 2034SOL     OW 6129   1.085   4.079   0.375
 2034SOL    HW1 6130   1.080   4.176   0.351
 2034SOL    HW2 6131   1.133   4.068   0.461
 2035SOL     OW 6132   1.297   3.845   3.633
 2035SOL    HW1 6133   1.210   3.825   3.678
 2035SOL    HW2 6134   1.316   3.943   3.639
 2036SOL     OW 6135   3.911   1.819   3.577
 2036SOL    HW1 6136   3.826   1.778   3.609
 2036SOL    HW2 6137   3.986   1.794   3.638
 2037SOL     OW 6138   2.743   0.634   0.728
 2037SOL    HW1 6139   2.795   0.563   0.681
 2037SOL    HW2 6140   2.754   0.721   0.681
 2038SOL     OW 6141   1.043   0.558   0.419
 2038SOL    HW1 6142   1.066   0.655   0.431
 2038SOL    HW2 6143   1.001   0.524   0.503
 2039SOL     OW 6144   1.515   1.275   4.268
 2039SOL    HW1 6145   1.469   1.293   4.355
 2039SOL    HW2 6146   1.551   1.182   4.269
 2040SOL     OW 6147   2.964   4.920   4.060
 2040SOL    HW1 6148   2.908   4.843   4.030
 2040SOL    HW2 6149   3.009   4.897   4.145
 2041SOL     OW 6150   2.542   4.462   1.350
 2041SOL    HW1 6151   2.502   4.379   1.312
 2041SOL    HW2 6152   2.522   4.539   1.289
 2042SOL     OW 6153   1.757   4.650   1.718
 2042SOL    HW1 6154   1.823   4.582   1.751
 2042SOL    HW2 6155   1.780   4.739   1.757
 2043SOL     OW 6156   2.725   3.675   3.689
 2043SOL    HW1 6157   2.812   3.625   3.687
 2043SOL    HW2 6158   2.739   3.766   3.728
 2044SOL     OW 6159   2.204   3.541   1.215
 2044SOL    HW1 6160   2.132   3.520   1.280
 2044SOL    HW2 6161   2.289   3.562   1.264
 2045SOL     OW 6162   4.761   0.401   2.900
 2045SOL    HW1 6163   4.828   0.370   2.967
 2045SOL    HW2 6164   4.778   0.356   2.813
 2046SOL     OW 6165   3.525   4.665   2.792
 2046SOL    HW1 6166   3.494   4.760   2.792
 2046SOL    HW2 6167   3.484   4.617   2.714
 2047SOL     OW 6168   3.432   0.965   2.605
 2047SOL    HW1 6169   3.354   1.001   2.657
 2047SOL    HW2 6170   3.506   0.942   2.668
 2048SOL     OW 6171   0.359   0.149   4.975
 2048SOL    HW1 6172   0.339   0.118   4.882
 2048SOL    HW2 6173   0.370   0.248   4.976
 2049SOL     OW 6174   0.215   2.823   1.349
 2049SOL    HW1 6175   0.159   2.778   1.279
 2049SOL    HW2 6176   0.189   2.789   1.439
 2050SOL     OW 6177   1.309   1.442   2.403
 2050SOL    HW1 6178   1.383   1.507   2.383
 2050SOL    HW2 6179   1.292   1.441   2.502
 2051SOL     OW 6180   1.374   0.612   1.539
 2051SOL    HW1 6181   1.386   0.632   1.442
 2051SOL    HW2 6182   1.383   0.513   1.554
 2052SOL     OW 6183   2.586   3.734   0.172
 2052SOL    HW1 6184   2.664   3.739   0.235
 2052SOL    HW2 6185   2.617   3.753   0.079
 2053SOL     OW 6186   4.435   0.038   3.820
 2053SOL    HW1 6187   4.400   0.114   3.766
 2053SOL    HW2 6188   4.383   0.031   3.905
 2054SOL     OW 6189   4.872   4.355   1.720
 2054SOL    HW1 6190   4.941   4.359   1.792
 2054SOL    HW2 6191   4.898   4.286   1.652
 2055SOL     OW 6192   1.664   2.524   0.086
 2055SOL    HW1 6193   1.607   2.487   0.013
 2055SOL    HW2 6194   1.699   2.613   0.059
 2056SOL     OW 6195   1.936   4.210   0.451
 2056SOL    HW1 6196   1.890   4.180   0.367
 2056SOL    HW2 6197   1.978   4.300   0.435
 2057SOL     OW 6198   3.732   1.517   1.119
 2057SOL    HW1 6199   3.806   1.535   1.055
 2057SOL    HW2 6200   3.722   1.418   1.131
 2058SOL     OW 6201   2.564   0.399   2.719
 2058SOL    HW1 6202   2.473   0.436   2.736
 2058SOL    HW2 6203   2.627   0.430   2.790
 2059SOL     OW 6204   1.610   0.101   3.440
 2059SOL    HW1 6205   1.673   0.029   3.470
 2059SOL    HW2 6206   1.640   0.189   3.477
 2060SOL     OW 6207   1.077   2.636   1.286
 2060SOL    HW1 6208   1.025   2.704   1.337
 2060SOL    HW2 6209   1.065   2.650   1.188
 2061SOL     OW 6210   0.661   1.228   1.010
 2061SOL    HW1 6211   0.649   1.282   1.093
 2061SOL    HW2 6212   0.596   1.152   1.009
 2062SOL     OW 6213   1.419   1.707   0.961
 2062SOL    HW1 6214   1.372   1.619   0.957
 2062SOL    HW2 6215   1.410   1.753   0.873
 2063SOL     OW 6216   2.426   4.157   2.473
 2063SOL    HW1 6217   2.473   4.237   2.511
 2063SOL    HW2 6218   2.366   4.117   2.543
 2064SOL     OW 6219   1.002   0.309   0.309
 2064SOL    HW1 6220   1.006   0.403   0.341
 2064SOL    HW2 6221   1.084   0.289   0.255
 2065SOL     OW 6222   2.034   1.712   4.497
 2065SOL    HW1 6223   1.949   1.714   4.445
 2065SOL    HW2 6224   2.032   1.783   4.568
 2066SOL     OW 6225   0.394   4.596   3.484
 2066SOL    HW1 6226   0.398   4.677   3.542
 2066SOL    HW2 6227   0.345   4.618   3.399
 2067SOL     OW 6228   1.237   2.314   5.006
 2067SOL    HW1 6229   1.329   2.348   5.025
 2067SOL    HW2 6230   1.205   2.261   0.049
 2068SOL     OW 6231   0.085   2.253   2.622
 2068SOL    HW1 6232   0.141   2.312   2.564
 2068SOL    HW2 6233   5.033   2.298   2.641
 2069SOL     OW 6234   0.464   1.171   4.278
 2069SOL    HW1 6235   0.563   1.163   4.289
 2069SOL    HW2 6236   0.418   1.095   4.325
 2070SOL     OW 6237   2.090   1.131   4.134
 2070SOL    HW1 6238   2.019   1.121   4.204
 2070SOL    HW2 6239   2.082   1.222   4.092
 2071SOL     OW 6240   1.424   3.154   4.143
 2071SOL    HW1 6241   1.445   3.057   4.130
 2071SOL    HW2 6242   1.379   3.189   4.061
 2072SOL     OW 6243   4.929   3.422   4.149
 2072SOL    HW1 6244   4.958   3.332   4.180
 2072SOL    HW2 6245   4.985   3.450   4.070
 2073SOL     OW 6246   2.492   2.010   4.901
 2073SOL    HW1 6247   2.559   1.936   4.904
 2073SOL    HW2 6248   2.488   2.046   4.808
 2074SOL     OW 6249   2.757   4.222   2.693
 2074SOL    HW1 6250   2.690   4.191   2.626
 2074SOL    HW2 6251   2.714   4.290   2.753
 2075SOL     OW 6252   3.800   4.685   2.838
 2075SOL    HW1 6253   3.710   4.651   2.810
 2075SOL    HW2 6254   3.788   4.771   2.889
 2076SOL     OW 6255   4.731   4.284   3.621
 2076SOL    HW1 6256   4.668   4.250   3.691
 2076SOL    HW2 6257   4.692   4.366   3.579
 2077SOL     OW 6258   2.927   2.238   4.053
 2077SOL    HW1 6259   2.926   2.338   4.041
 2077SOL    HW2 6260   2.836   2.201   4.033
 2078SOL     OW 6261   1.614   3.518   1.870
 2078SOL    HW1 6262   1.538   3.559   1.819
 2078SOL    HW2 6263   1.673   3.468   1.807
 2079SOL     OW 6264   1.306   4.849   1.625
 2079SOL    HW1 6265   1.380   4.799   1.670
 2079SOL    HW2 6266   1.230   4.861   1.688
 2080SOL     OW 6267   4.609   1.271   4.034
 2080SOL    HW1 6268   4.701   1.277   4.072
 2080SOL    HW2 6269   4.609   1.205   3.959
 2081SOL     OW 6270   3.576   0.240   2.559
 2081SOL    HW1 6271   3.502   0.197   2.612
 2081SOL    HW2 6272   3.550   0.333   2.534
 2082SOL     OW 6273   0.684   1.459   2.004
 2082SOL    HW1 6274   0.651   1.408   1.925
 2082SOL    HW2 6275   0.694   1.556   1.980
 2083SOL     OW 6276   4.314   0.547   3.400
 2083SOL    HW1 6277   4.355   0.637   3.389
 2083SOL    HW2 6278   4.215   0.554   3.393
 2084SOL     OW 6279   3.593   1.521   4.621
 2084SOL    HW1 6280   3.512   1.463   4.630
 2084SOL    HW2 6281   3.565   1.617   4.617
 2085SOL     OW 6282   2.456   2.281   3.655
 2085SOL    HW1 6283   2.520   2.356   3.670
 2085SOL    HW2 6284   2.503   2.206   3.609
 2086SOL     OW 6285   0.166   0.200   0.164
 2086SOL    HW1 6286   0.077   0.244   0.160
 2086SOL    HW2 6287   0.203   0.191   0.072
 2087SOL     OW 6288   0.537   1.103   2.025
 2087SOL    HW1 6289   0.538   1.190   2.074
 2087SOL    HW2 6290   0.541   1.120   1.927
 2088SOL     OW 6291   0.098   4.340   1.825
 2088SOL    HW1 6292   0.088   4.245   1.854
 2088SOL    HW2 6293   0.114   4.343   1.726
 2089SOL     OW 6294   0.153   3.737   4.900
 2089SOL    HW1 6295   0.113   3.645   4.903
 2089SOL    HW2 6296   0.210   3.751   4.981
 2090SOL     OW 6297   2.700   1.070   1.082
 2090SOL    HW1 6298   2.685   1.095   1.178
 2090SOL    HW2 6299   2.779   1.119   1.047
 2091SOL     OW 6300   1.384   4.083   0.375
 2091SOL    HW1 6301   1.308   4.137   0.411
 2091SOL    HW2 6302   1.446   4.059   0.450
 2092SOL     OW 6303   4.647   1.641   4.574
 2092SOL    HW1 6304   4.660   1.571   4.504
 2092SOL    HW2 6305   4.679   1.730   4.540
 2093SOL     OW 6306   4.916   4.385   4.110
 2093SOL    HW1 6307   4.927   4.474   4.154
 2093SOL    HW2 6308   4.990   4.324   4.139
 2094SOL     OW 6309   4.456   3.705   1.272
 2094SOL    HW1 6310   4.540   3.712   1.326
 2094SOL    HW2 6311   4.396   3.636   1.313
 2095SOL     OW 6312   4.284   1.507   1.702
 2095SOL    HW1 6313   4.253   1.522   1.796
 2095SOL    HW2 6314   4.357   1.439   1.702
 2096SOL     OW 6315   3.768   1.218   2.177
 2096SOL    HW1 6316   3.703   1.172   2.237
 2096SOL    HW2 6317   3.741   1.314   2.166
 2097SOL     OW 6318   3.165   0.420   4.718
 2097SOL    HW1 6319   3.134   0.462   4.803
 2097SOL    HW2 6320   3.085   0.389   4.666
 2098SOL     OW 6321   1.406   4.388   3.899
 2098SOL    HW1 6322   1.430   4.347   3.987
 2098SOL    HW2 6323   1.447   4.479   3.893
 2099SOL     OW 6324   2.700   4.509   2.942
 2099SOL    HW1 6325   2.636   4.523   2.867
 2099SOL    HW2 6326   2.707   4.412   2.963
 2100SOL     OW 6327   2.449   3.521   3.289
 2100SOL    HW1 6328   2.517   3.462   3.246
 2100SOL    HW2 6329   2.491   3.568   3.367
 2101SOL     OW 6330   3.235   1.163   3.869
 2101SOL    HW1 6331   3.240   1.063   3.872
 2101SOL    HW2 6332   3.325   1.202   3.890
 2102SOL     OW 6333   1.336   1.869   1.292
 2102SOL    HW1 6334   1.302   1.804   1.360
 2102SOL    HW2 6335   1.429   1.896   1.316
 2103SOL     OW 6336   0.344   2.232   1.565
 2103SOL    HW1 6337   0.337   2.271   1.657
 2103SOL    HW2 6338   0.271   2.164   1.553
 2104SOL     OW 6339   3.972   0.023   0.553
 2104SOL    HW1 6340   3.894   0.062   0.601
 2104SOL    HW2 6341   4.013   0.092   0.493
 2105SOL     OW 6342   0.723   3.171   2.360
 2105SOL    HW1 6343   0.738   3.106   2.434
 2105SOL    HW2 6344   0.809   3.218   2.338
 2106SOL     OW 6345   3.280   1.786   2.918
 2106SOL    HW1 6346   3.325   1.702   2.887
 2106SOL    HW2 6347   3.289   1.857   2.848
 2107SOL     OW 6348   1.615   2.774   3.468
 2107SOL    HW1 6349   1.637   2.794   3.564
 2107SOL    HW2 6350   1.562   2.849   3.430
 2108SOL     OW 6351   2.464   2.605   1.471
 2108SOL    HW1 6352   2.544   2.548   1.453
 2108SOL    HW2 6353   2.440   2.656   1.388
 2109SOL     OW 6354   3.274   3.513   2.716
 2109SOL    HW1 6355   3.177   3.492   2.708
 2109SOL    HW2 6356   3.320   3.443   2.771
 2110SOL     OW 6357   2.047   2.749   1.512
 2110SOL    HW1 6358   1.987   2.684   1.466
 2110SOL    HW2 6359   2.066   2.716   1.605
 2111SOL     OW 6360   3.657   0.718   3.769
 2111SOL    HW1 6361   3.656   0.799   3.710
 2111SOL    HW2 6362   3.696   0.641   3.719
 2112SOL     OW 6363   3.912   4.423   0.666
 2112SOL    HW1 6364   3.851   4.354   0.705
 2112SOL    HW2 6365   3.960   4.470   0.741
 2113SOL     OW 6366   3.876   2.966   2.446
 2113SOL    HW1 6367   3.864   2.882   2.393
 2113SOL    HW2 6368   3.972   2.977   2.470
 2114SOL     OW 6369   4.846   0.416   4.678
 2114SOL    HW1 6370   4.888   0.442   4.591
 2114SOL    HW2 6371   4.796   0.331   4.667
 2115SOL     OW 6372   0.135   0.150   1.955
 2115SOL    HW1 6373   0.125   0.135   1.857
 2115SOL    HW2 6374   0.232   0.159   1.977
 2116SOL     OW 6375   0.011   0.860   3.647
 2116SOL    HW1 6376   0.016   0.893   3.553
 2116SOL    HW2 6377   0.072   0.915   3.705
 2117SOL     OW 6378   3.975   1.806   2.096
 2117SOL    HW1 6379   4.071   1.819   2.121
 2117SOL    HW2 6380   3.940   1.891   2.055
 2118SOL     OW 6381   4.163   4.705   5.032
 2118SOL    HW1 6382   4.142   4.633   4.966
 2118SOL    HW2 6383   4.262   4.708   0.013
 2119SOL     OW 6384   1.605   4.566   0.483
 2119SOL    HW1 6385   1.635   4.627   0.410
 2119SOL    HW2 6386   1.665   4.486   0.487
 2120SOL     OW 6387   4.121   2.025   3.601
 2120SOL    HW1 6388   4.188   1.970   3.552
 2120SOL    HW2 6389   4.030   2.009   3.564
 2121SOL     OW 6390   1.068   1.368   3.204
 2121SOL    HW1 6391   1.016   1.322   3.277
 2121SOL    HW2 6392   1.096   1.458   3.236
 2122SOL     OW 6393   1.094   1.942   2.920
 2122SOL    HW1 6394   1.086   2.026   2.975
 2122SOL    HW2 6395   1.005   1.919   2.881
 2123SOL     OW 6396   3.697   0.008   4.476
 2123SOL    HW1 6397   3.705   5.031   4.575
 2123SOL    HW2 6398   3.632   0.082   4.457
 2124SOL     OW 6399   1.559   3.736   3.408
 2124SOL    HW1 6400   1.540   3.674   3.484
 2124SOL    HW2 6401   1.576   3.683   3.325
 2125SOL     OW 6402   2.274   0.725   3.510
 2125SOL    HW1 6403   2.177   0.717   3.487
 2125SOL    HW2 6404   2.327   0.659   3.458
 2126SOL     OW 6405   2.724   0.869   2.974
 2126SOL    HW1 6406   2.772   0.851   2.888
 2126SOL    HW2 6407   2.751   0.801   3.042
 2127SOL     OW 6408   0.508   1.488   3.887
 2127SOL    HW1 6409   0.445   1.548   3.936
 2127SOL    HW2 6410   0.593   1.479   3.938
 2128SOL     OW 6411   1.727   4.221   1.232
 2128SOL    HW1 6412   1.748   4.293   1.298
 2128SOL    HW2 6413   1.702   4.262   1.145
 2129SOL     OW 6414   0.885   4.329   3.864
 2129SOL    HW1 6415   0.932   4.412   3.894
 2129SOL    HW2 6416   0.936   4.286   3.790
 2130SOL     OW 6417   3.860   4.036   1.261
 2130SOL    HW1 6418   3.876   3.987   1.346
 2130SOL    HW2 6419   3.858   4.135   1.279
 2131SOL     OW 6420   2.164   2.516   3.886
 2131SOL    HW1 6421   2.143   2.476   3.975
 2131SOL    HW2 6422   2.137   2.452   3.814
 2132SOL     OW 6423   4.494   3.421   1.420
 2132SOL    HW1 6424   4.504   3.414   1.321
 2132SOL    HW2 6425   4.573   3.468   1.459
 2133SOL     OW 6426   2.660   1.336   2.483
 2133SOL    HW1 6427   2.592   1.358   2.553
 2133SOL    HW2 6428   2.731   1.278   2.523
 2134SOL     OW 6429   2.494   1.565   4.038
 2134SOL    HW1 6430   2.545   1.637   4.085
 2134SOL    HW2 6431   2.555   1.517   3.975
 2135SOL     OW 6432   0.890   1.642   4.063
 2135SOL    HW1 6433   0.909   1.735   4.034
 2135SOL    HW2 6434   0.796   1.636   4.097
 2136SOL     OW 6435   3.296   1.425   2.164
 2136SOL    HW1 6436   3.356   1.395   2.090
 2136SOL    HW2 6437   3.239   1.501   2.132
 2137SOL     OW 6438   0.393   0.187   4.491
 2137SOL    HW1 6439   0.469   0.127   4.468
 2137SOL    HW2 6440   0.322   0.180   4.421
 2138SOL     OW 6441   2.843   4.118   4.395
 2138SOL    HW1 6442   2.863   4.103   4.298
 2138SOL    HW2 6443   2.795   4.038   4.432
 2139SOL     OW 6444   3.460   0.639   1.571
 2139SOL    HW1 6445   3.551   0.652   1.532
 2139SOL    HW2 6446   3.468   0.604   1.664
 2140SOL     OW 6447   2.690   0.086   2.407
 2140SOL    HW1 6448   2.600   0.091   2.363
 2140SOL    HW2 6449   2.710   0.173   2.451
 2141SOL     OW 6450   4.001   2.909   1.214
 2141SOL    HW1 6451   3.990   2.985   1.278
 2141SOL    HW2 6452   4.054   2.836   1.257
 2142SOL     OW 6453   4.536   1.238   0.951
 2142SOL    HW1 6454   4.445   1.230   0.910
 2142SOL    HW2 6455   4.575   1.147   0.962
 2143SOL     OW 6456   0.200   0.499   1.643
 2143SOL    HW1 6457   0.112   0.507   1.597
 2143SOL    HW2 6458   0.187   0.459   1.734
 2144SOL     OW 6459   1.439   2.575   1.347
 2144SOL    HW1 6460   1.426   2.671   1.321
 2144SOL    HW2 6461   1.506   2.533   1.286
 2145SOL     OW 6462   4.352   1.269   3.610
 2145SOL    HW1 6463   4.365   1.346   3.548
 2145SOL    HW2 6464   4.367   1.299   3.705
 2146SOL     OW 6465   1.807   4.687   2.962
 2146SOL    HW1 6466   1.792   4.754   2.889
 2146SOL    HW2 6467   1.808   4.595   2.922
 2147SOL     OW 6468   1.924   4.820   2.448
 2147SOL    HW1 6469   1.905   4.731   2.406
 2147SOL    HW2 6470   1.998   4.810   2.515
 2148SOL     OW 6471   2.642   4.391   0.923
 2148SOL    HW1 6472   2.637   4.314   0.859
 2148SOL    HW2 6473   2.660   4.356   1.015
 2149SOL     OW 6474   4.056   1.643   4.631
 2149SOL    HW1 6475   4.090   1.597   4.713
 2149SOL    HW2 6476   3.964   1.677   4.646
 2150SOL     OW 6477   2.704   1.799   1.188
 2150SOL    HW1 6478   2.679   1.743   1.267
 2150SOL    HW2 6479   2.803   1.802   1.180
 2151SOL     OW 6480   4.989   3.246   4.377
 2151SOL    HW1 6481   4.994   3.310   4.453
 2151SOL    HW2 6482   4.905   3.192   4.384
 2152SOL     OW 6483   1.782   0.724   3.013
 2152SOL    HW1 6484   1.734   0.677   3.086
 2152SOL    HW2 6485   1.755   0.821   3.012
 2153SOL     OW 6486   2.099   2.601   4.760
 2153SOL    HW1 6487   2.138   2.633   4.673
 2153SOL    HW2 6488   2.031   2.668   4.792
 2154SOL     OW 6489   3.201   2.524   3.307
 2154SOL    HW1 6490   3.102   2.539   3.296
 2154SOL    HW2 6491   3.244   2.518   3.216
 2155SOL     OW 6492   4.975   4.096   2.885
 2155SOL    HW1 6493   4.924   4.114   2.970
 2155SOL    HW2 6494   4.977   4.178   2.829
 2156SOL     OW 6495   0.969   3.197   4.508
 2156SOL    HW1 6496   0.945   3.228   4.599
 2156SOL    HW2 6497   1.063   3.225   4.487
 2157SOL     OW 6498   3.141   2.588   1.592
 2157SOL    HW1 6499   3.053   2.549   1.617
 2157SOL    HW2 6500   3.197   2.600   1.675
 2158SOL     OW 6501   1.885   0.967   4.932
 2158SOL    HW1 6502   1.835   0.892   4.974
 2158SOL    HW2 6503   1.980   0.941   4.918
 2159SOL     OW 6504   1.450   0.352   1.469
 2159SOL    HW1 6505   1.526   0.365   1.406
 2159SOL    HW2 6506   1.371   0.315   1.420
 2160SOL     OW 6507   1.313   2.937   0.265
 2160SOL    HW1 6508   1.258   2.935   0.349
 2160SOL    HW2 6509   1.364   2.851   0.257
 2161SOL     OW 6510   1.111   1.326   0.055
 2161SOL    HW1 6511   1.162   1.386   0.115
 2161SOL    HW2 6512   1.014   1.346   0.061
 2162SOL     OW 6513   3.152   3.016   2.198
 2162SOL    HW1 6514   3.131   2.919   2.209
 2162SOL    HW2 6515   3.104   3.069   2.268
 2163SOL     OW 6516   0.455   4.306   2.275
 2163SOL    HW1 6517   0.480   4.388   2.326
 2163SOL    HW2 6518   0.520   4.293   2.200
 2164SOL     OW 6519   4.658   2.155   1.592
 2164SOL    HW1 6520   4.690   2.223   1.526
 2164SOL    HW2 6521   4.650   2.197   1.682
 2165SOL     OW 6522   0.168   0.957   3.883
 2165SOL    HW1 6523   0.188   1.050   3.850
 2165SOL    HW2 6524   0.180   0.954   3.983
 2166SOL     OW 6525   0.491   3.185   0.011
 2166SOL    HW1 6526   0.557   3.129   4.996
 2166SOL    HW2 6527   0.488   3.157   0.107
 2167SOL     OW 6528   2.110   2.579   3.212
 2167SOL    HW1 6529   2.087   2.491   3.170
 2167SOL    HW2 6530   2.056   2.651   3.170
 2168SOL     OW 6531   3.966   3.267   3.455
 2168SOL    HW1 6532   4.055   3.252   3.411
 2168SOL    HW2 6533   3.963   3.217   3.541
 2169SOL     OW 6534   2.675   2.054   1.689
 2169SOL    HW1 6535   2.670   2.044   1.788
 2169SOL    HW2 6536   2.610   2.125   1.660
 2170SOL     OW 6537   2.231   2.123   3.660
 2170SOL    HW1 6538   2.231   2.061   3.582
 2170SOL    HW2 6539   2.321   2.168   3.667
 2171SOL     OW 6540   2.742   3.864   4.445
 2171SOL    HW1 6541   2.672   3.801   4.479
 2171SOL    HW2 6542   2.797   3.818   4.376
 2172SOL     OW 6543   3.303   4.290   1.190
 2172SOL    HW1 6544   3.336   4.196   1.187
 2172SOL    HW2 6545   3.258   4.307   1.278
 2173SOL     OW 6546   1.739   3.733   1.119
 2173SOL    HW1 6547   1.677   3.808   1.141
 2173SOL    HW2 6548   1.795   3.758   1.040
 2174SOL     OW 6549   0.961   0.825   2.670
 2174SOL    HW1 6550   1.010   0.771   2.738
 2174SOL    HW2 6551   0.910   0.898   2.716
 2175SOL     OW 6552   4.013   1.834   0.777
 2175SOL    HW1 6553   3.938   1.814   0.840
 2175SOL    HW2 6554   4.078   1.895   0.821
 2176SOL     OW 6555   1.322   0.212   0.123
 2176SOL    HW1 6556   1.317   0.307   0.154
 2176SOL    HW2 6557   1.407   0.197   0.072
 2177SOL     OW 6558   1.343   2.810   3.305
 2177SOL    HW1 6559   1.345   2.758   3.219
 2177SOL    HW2 6560   1.250   2.842   3.322
 2178SOL     OW 6561   2.360   4.506   4.716
 2178SOL    HW1 6562   2.356   4.605   4.732
 2178SOL    HW2 6563   2.413   4.489   4.633
 2179SOL     OW 6564   2.523   2.373   0.043
 2179SOL    HW1 6565   2.508   2.347   0.138
 2179SOL    HW2 6566   2.603   2.432   0.037
 2180SOL     OW 6567   4.174   3.313   3.791
 2180SOL    HW1 6568   4.165   3.319   3.891
 2180SOL    HW2 6569   4.099   3.363   3.748
 2181SOL     OW 6570   3.108   4.036   0.742
 2181SOL    HW1 6571   3.166   3.962   0.709
 2181SOL    HW2 6572   3.134   4.060   0.836
 2182SOL     OW 6573   4.499   1.559   0.434
 2182SOL    HW1 6574   4.426   1.491   0.426
 2182SOL    HW2 6575   4.486   1.611   0.519
 2183SOL     OW 6576   0.566   4.106   3.006
 2183SOL    HW1 6577   0.495   4.075   2.943
 2183SOL    HW2 6578   0.642   4.041   3.006
 2184SOL     OW 6579   0.203   0.774   2.630
 2184SOL    HW1 6580   0.179   0.692   2.578
 2184SOL    HW2 6581   0.255   0.749   2.711
 2185SOL     OW 6582   3.600   3.450   4.606
 2185SOL    HW1 6583   3.653   3.367   4.624
 2185SOL    HW2 6584   3.518   3.428   4.554
 2186SOL     OW 6585   0.605   1.040   0.222
 2186SOL    HW1 6586   0.591   1.023   0.125
 2186SOL    HW2 6587   0.589   0.956   0.274
 2187SOL     OW 6588   0.841   4.318   0.343
 2187SOL    HW1 6589   0.895   4.402   0.333
 2187SOL    HW2 6590   0.764   4.320   0.279
 2188SOL     OW 6591   4.132   1.301   1.593
 2188SOL    HW1 6592   4.146   1.392   1.632
 2188SOL    HW2 6593   4.213   1.246   1.607
 2189SOL     OW 6594   0.256   1.996   4.397
 2189SOL    HW1 6595   0.171   2.042   4.423
 2189SOL    HW2 6596   0.314   1.985   4.478
 2190SOL     OW 6597   4.784   1.481   0.539
 2190SOL    HW1 6598   4.822   1.389   0.534
 2190SOL    HW2 6599   4.686   1.477   0.558
 2191SOL     OW 6600   3.498   3.559   4.220
 2191SOL    HW1 6601   3.461   3.589   4.308
 2191SOL    HW2 6602   3.424   3.524   4.163
 2192SOL     OW 6603   3.379   1.743   0.415
 2192SOL    HW1 6604   3.293   1.706   0.449
 2192SOL    HW2 6605   3.370   1.761   0.317
 2193SOL     OW 6606   4.945   2.284   0.512
 2193SOL    HW1 6607   4.992   2.368   0.486
 2193SOL    HW2 6608   4.902   2.243   0.432
 2194SOL     OW 6609   0.006   4.265   2.676
 2194SOL    HW1 6610   0.079   4.204   2.707
 2194SOL    HW2 6611   0.040   4.321   2.600
 2195SOL     OW 6612   0.970   0.493   3.577
 2195SOL    HW1 6613   0.960   0.404   3.622
 2195SOL    HW2 6614   0.893   0.508   3.516
 2196SOL     OW 6615   4.418   3.634   4.407
 2196SOL    HW1 6616   4.491   3.660   4.470
 2196SOL    HW2 6617   4.362   3.714   4.386
 2197SOL     OW 6618   2.428   4.942   5.030
 2197SOL    HW1 6619   2.458   4.993   0.076
 2197SOL    HW2 6620   2.468   4.851   5.031
 2198SOL     OW 6621   0.153   2.398   1.722
 2198SOL    HW1 6622   0.121   2.348   1.642
 2198SOL    HW2 6623   0.076   2.446   1.764
 2199SOL     OW 6624   1.472   3.668   3.896
 2199SOL    HW1 6625   1.383   3.670   3.849
 2199SOL    HW2 6626   1.457   3.669   3.995
 2200SOL     OW 6627   3.883   4.460   3.032
 2200SOL    HW1 6628   3.905   4.553   3.061
 2200SOL    HW2 6629   3.898   4.451   2.933
 2201SOL     OW 6630   1.596   1.220   0.369
 2201SOL    HW1 6631   1.578   1.228   0.271
 2201SOL    HW2 6632   1.510   1.230   0.420
 2202SOL     OW 6633   2.213   2.681   0.817
 2202SOL    HW1 6634   2.215   2.602   0.757
 2202SOL    HW2 6635   2.285   2.674   0.886
 2203SOL     OW 6636   0.296   1.312   2.749
 2203SOL    HW1 6637   0.369   1.247   2.773
 2203SOL    HW2 6638   0.220   1.301   2.812
 2204SOL     OW 6639   1.667   1.467   4.781
 2204SOL    HW1 6640   1.765   1.480   4.797
 2204SOL    HW2 6641   1.653   1.433   4.688
 2205SOL     OW 6642   0.889   1.981   2.420
 2205SOL    HW1 6643   0.987   1.990   2.438
 2205SOL    HW2 6644   0.856   2.064   2.375
 2206SOL     OW 6645   0.315   4.131   3.578
 2206SOL    HW1 6646   0.226   4.147   3.537
 2206SOL    HW2 6647   0.330   4.198   3.651
 2207SOL     OW 6648   4.822   4.858   4.535
 2207SOL    HW1 6649   4.844   4.839   4.440
 2207SOL    HW2 6650   4.891   4.920   4.573
 2208SOL     OW 6651   0.834   1.172   0.270
 2208SOL    HW1 6652   0.886   1.109   0.214
 2208SOL    HW2 6653   0.736   1.150   0.263
 2209SOL     OW 6654   2.200   1.798   2.966
 2209SOL    HW1 6655   2.271   1.731   2.944
 2209SOL    HW2 6656   2.213   1.829   3.060
 2210SOL     OW 6657   3.464   4.875   4.682
 2210SOL    HW1 6658   3.419   4.964   4.687
 2210SOL    HW2 6659   3.555   4.881   4.724
 2211SOL     OW 6660   1.673   4.306   3.743
 2211SOL    HW1 6661   1.645   4.215   3.775
 2211SOL    HW2 6662   1.756   4.297   3.687
 2212SOL     OW 6663   0.355   3.913   3.766
 2212SOL    HW1 6664   0.450   3.891   3.744
 2212SOL    HW2 6665   0.309   3.949   3.685
 2213SOL     OW 6666   4.640   2.339   1.880
 2213SOL    HW1 6667   4.650   2.308   1.975
 2213SOL    HW2 6668   4.729   2.334   1.835
 2214SOL     OW 6669   3.369   4.867   4.985
 2214SOL    HW1 6670   3.363   4.791   4.921
 2214SOL    HW2 6671   3.287   4.925   4.976
 2215SOL     OW 6672   2.153   0.074   3.222
 2215SOL    HW1 6673   2.205   0.158   3.232
 2215SOL    HW2 6674   2.104   0.055   3.307
 2216SOL     OW 6675   0.370   2.374   2.773
 2216SOL    HW1 6676   0.435   2.442   2.808
 2216SOL    HW2 6677   0.320   2.334   2.850
 2217SOL     OW 6678   0.611   3.082   1.561
 2217SOL    HW1 6679   0.681   3.153   1.553
 2217SOL    HW2 6680   0.613   3.023   1.480
 2218SOL     OW 6681   4.906   2.942   4.273
 2218SOL    HW1 6682   4.855   2.923   4.190
 2218SOL    HW2 6683   4.930   2.855   4.318
 2219SOL     OW 6684   3.892   4.591   1.953
 2219SOL    HW1 6685   3.929   4.550   2.037
 2219SOL    HW2 6686   3.935   4.549   1.874
 2220SOL     OW 6687   1.439   3.362   3.896
 2220SOL    HW1 6688   1.367   3.388   3.960
 2220SOL    HW2 6689   1.525   3.405   3.925
 2221SOL     OW 6690   2.365   0.328   1.524
 2221SOL    HW1 6691   2.366   0.365   1.431
 2221SOL    HW2 6692   2.271   0.305   1.550
 2222SOL     OW 6693   1.996   3.587   2.560
 2222SOL    HW1 6694   1.947   3.675   2.566
 2222SOL    HW2 6695   2.090   3.603   2.531
 2223SOL     OW 6696   2.428   0.141   0.390
 2223SOL    HW1 6697   2.463   0.060   0.343
 2223SOL    HW2 6698   2.388   0.204   0.323
 2224SOL     OW 6699   1.184   3.386   3.329
 2224SOL    HW1 6700   1.199   3.485   3.320
 2224SOL    HW2 6701   1.182   3.361   3.425
 2225SOL     OW 6702   2.283   3.808   1.218
 2225SOL    HW1 6703   2.370   3.817   1.169
 2225SOL    HW2 6704   2.228   3.737   1.175
 2226SOL     OW 6705   4.248   3.445   2.692
 2226SOL    HW1 6706   4.270   3.379   2.621
 2226SOL    HW2 6707   4.154   3.431   2.723
 2227SOL     OW 6708   0.666   0.044   3.504
 2227SOL    HW1 6709   0.618   0.117   3.553
 2227SOL    HW2 6710   0.607   4.999   3.498
 2228SOL     OW 6711   0.976   2.048   3.714
 2228SOL    HW1 6712   0.960   2.114   3.788
 2228SOL    HW2 6713   1.066   2.064   3.674
 2229SOL     OW 6714   2.182   0.616   2.046
 2229SOL    HW1 6715   2.218   0.529   2.080
 2229SOL    HW2 6716   2.255   0.685   2.047
 2230SOL     OW 6717   4.669   1.049   2.704
 2230SOL    HW1 6718   4.646   0.951   2.705
 2230SOL    HW2 6719   4.763   1.061   2.674
 2231SOL     OW 6720   0.519   0.243   3.607
 2231SOL    HW1 6721   0.446   0.247   3.539
 2231SOL    HW2 6722   0.501   0.311   3.679
 2232SOL     OW 6723   4.513   0.881   4.004
 2232SOL    HW1 6724   4.568   0.882   4.088
 2232SOL    HW2 6725   4.506   0.788   3.970
 2233SOL     OW 6726   2.930   0.437   2.198
 2233SOL    HW1 6727   2.849   0.379   2.199
 2233SOL    HW2 6728   2.962   0.451   2.292
 2234SOL     OW 6729   0.870   0.497   1.310
 2234SOL    HW1 6730   0.950   0.442   1.287
 2234SOL    HW2 6731   0.802   0.490   1.236
 2235SOL     OW 6732   2.498   2.375   1.998
 2235SOL    HW1 6733   2.418   2.429   2.027
 2235SOL    HW2 6734   2.533   2.323   2.076
 2236SOL     OW 6735   1.370   4.550   0.779
 2236SOL    HW1 6736   1.304   4.622   0.759
 2236SOL    HW2 6737   1.349   4.508   0.867
 2237SOL     OW 6738   0.114   0.730   3.257
 2237SOL    HW1 6739   0.172   0.762   3.183
 2237SOL    HW2 6740   0.112   0.798   3.330
 2238SOL     OW 6741   2.305   1.179   3.481
 2238SOL    HW1 6742   2.316   1.243   3.405
 2238SOL    HW2 6743   2.355   1.213   3.560
 2239SOL     OW 6744   1.656   4.103   2.702
 2239SOL    HW1 6745   1.595   4.028   2.676
 2239SOL    HW2 6746   1.700   4.081   2.789
 2240SOL     OW 6747   2.304   1.662   0.042
 2240SOL    HW1 6748   2.348   1.710   0.117
 2240SOL    HW2 6749   2.277   1.728   5.006
 2241SOL     OW 6750   3.577   2.366   1.417
 2241SOL    HW1 6751   3.573   2.351   1.516
 2241SOL    HW2 6752   3.501   2.426   1.389
 2242SOL     OW 6753   0.001   2.709   4.725
 2242SOL    HW1 6754   0.003   2.651   4.806
 2242SOL    HW2 6755   0.089   2.701   4.677
 2243SOL     OW 6756   0.688   2.928   2.879
 2243SOL    HW1 6757   0.608   2.883   2.919
 2243SOL    HW2 6758   0.664   2.965   2.789
 2244SOL     OW 6759   4.376   0.762   2.572
 2244SOL    HW1 6760   4.328   0.706   2.639
 2244SOL    HW2 6761   4.308   0.811   2.516
 2245SOL     OW 6762   3.925   2.462   1.762
 2245SOL    HW1 6763   3.866   2.481   1.683
 2245SOL    HW2 6764   3.893   2.514   1.841
 2246SOL     OW 6765   1.495   3.214   0.871
 2246SOL    HW1 6766   1.423   3.202   0.939
 2246SOL    HW2 6767   1.577   3.165   0.901
 2247SOL     OW 6768   1.216   1.394   4.267
 2247SOL    HW1 6769   1.160   1.415   4.348
 2247SOL    HW2 6770   1.203   1.298   4.241
 2248SOL     OW 6771   3.435   0.275   5.026
 2248SOL    HW1 6772   3.358   0.303   4.969
 2248SOL    HW2 6773   3.509   0.240   4.969
 2249SOL     OW 6774   3.532   5.012   4.234
 2249SOL    HW1 6775   3.511   4.935   4.174
 2249SOL    HW2 6776   3.587   4.981   4.311
 2250SOL     OW 6777   1.768   4.179   2.455
 2250SOL    HW1 6778   1.717   4.148   2.535
 2250SOL    HW2 6779   1.721   4.151   2.372
 2251SOL     OW 6780   1.783   4.988   1.185
 2251SOL    HW1 6781   1.852   4.955   1.250
 2251SOL    HW2 6782   1.696   5.002   1.232
 2252SOL     OW 6783   4.747   0.434   0.180
 2252SOL    HW1 6784   4.706   0.368   0.242
 2252SOL    HW2 6785   4.762   0.392   0.091
 2253SOL     OW 6786   2.962   1.217   2.965
 2253SOL    HW1 6787   2.937   1.260   2.878
 2253SOL    HW2 6788   3.036   1.270   3.007
 2254SOL     OW 6789   3.320   3.339   4.713
 2254SOL    HW1 6790   3.270   3.411   4.665
 2254SOL    HW2 6791   3.257   3.287   4.770
 2255SOL     OW 6792   1.707   2.224   2.671
 2255SOL    HW1 6793   1.728   2.288   2.598
 2255SOL    HW2 6794   1.786   2.165   2.689
 2256SOL     OW 6795   2.323   1.123   4.395
 2256SOL    HW1 6796   2.414   1.161   4.413
 2256SOL    HW2 6797   2.280   1.100   4.483
 2257SOL     OW 6798   0.319   3.393   2.727
 2257SOL    HW1 6799   0.348   3.306   2.766
 2257SOL    HW2 6800   0.219   3.396   2.723
 2258SOL     OW 6801   4.948   4.060   4.841
 2258SOL    HW1 6802   4.894   3.980   4.865
 2258SOL    HW2 6803   4.937   4.131   4.911
 2259SOL     OW 6804   3.944   1.373   2.518
 2259SOL    HW1 6805   4.034   1.339   2.545
 2259SOL    HW2 6806   3.885   1.296   2.493
 2260SOL     OW 6807   2.522   4.034   2.757
 2260SOL    HW1 6808   2.513   4.133   2.768
 2260SOL    HW2 6809   2.612   4.005   2.790
 2261SOL     OW 6810   0.340   2.339   3.885
 2261SOL    HW1 6811   0.263   2.388   3.927
 2261SOL    HW2 6812   0.327   2.335   3.786
 2262SOL     OW 6813   3.372   1.723   2.409
 2262SOL    HW1 6814   3.379   1.689   2.503
 2262SOL    HW2 6815   3.368   1.823   2.410
 2263SOL     OW 6816   2.821   1.099   0.577
 2263SOL    HW1 6817   2.813   1.081   0.479
 2263SOL    HW2 6818   2.848   1.194   0.591
 2264SOL     OW 6819   4.283   1.561   3.608
 2264SOL    HW1 6820   4.253   1.499   3.680
 2264SOL    HW2 6821   4.240   1.535   3.522
 2265SOL     OW 6822   2.761   3.239   0.488
 2265SOL    HW1 6823   2.720   3.218   0.577
 2265SOL    HW2 6824   2.800   3.331   0.490
 2266SOL     OW 6825   0.630   0.982   3.869
 2266SOL    HW1 6826   0.647   1.068   3.918
 2266SOL    HW2 6827   0.707   0.920   3.883
 2267SOL     OW 6828   1.641   4.027   0.485
 2267SOL    HW1 6829   1.724   3.986   0.523
 2267SOL    HW2 6830   1.638   4.009   0.386
 2268SOL     OW 6831   1.710   3.039   0.047
 2268SOL    HW1 6832   1.661   3.047   4.996
 2268SOL    HW2 6833   1.669   3.100   0.115
 2269SOL     OW 6834   3.298   4.739   2.115
 2269SOL    HW1 6835   3.309   4.799   2.035
 2269SOL    HW2 6836   3.328   4.647   2.092
 2270SOL     OW 6837   2.501   1.487   4.969
 2270SOL    HW1 6838   2.467   1.444   4.885
 2270SOL    HW2 6839   2.428   1.540   5.011
 2271SOL     OW 6840   3.705   3.801   0.038
 2271SOL    HW1 6841   3.754   3.721   0.072
 2271SOL    HW2 6842   3.750   3.836   4.990
 2272SOL     OW 6843   3.630   1.761   3.900
 2272SOL    HW1 6844   3.544   1.811   3.903
 2272SOL    HW2 6845   3.658   1.748   3.805
 2273SOL     OW 6846   0.551   3.995   3.467
 2273SOL    HW1 6847   0.453   4.004   3.446
 2273SOL    HW2 6848   0.581   4.076   3.518
 2274SOL     OW 6849   3.125   1.595   2.346
 2274SOL    HW1 6850   3.222   1.618   2.351
 2274SOL    HW2 6851   3.090   1.578   2.438
 2275SOL     OW 6852   3.105   3.503   2.968
 2275SOL    HW1 6853   3.061   3.415   2.949
 2275SOL    HW2 6854   3.091   3.565   2.890
 2276SOL     OW 6855   3.180   2.907   1.309
 2276SOL    HW1 6856   3.121   2.937   1.234
 2276SOL    HW2 6857   3.168   2.808   1.323
 2277SOL     OW 6858   2.584   1.775   1.923
 2277SOL    HW1 6859   2.546   1.690   1.959
 2277SOL    HW2 6860   2.531   1.853   1.958
 2278SOL     OW 6861   4.499   1.760   0.959
 2278SOL    HW1 6862   4.400   1.746   0.957
 2278SOL    HW2 6863   4.531   1.783   0.867
 2279SOL     OW 6864   1.118   3.439   0.459
 2279SOL    HW1 6865   1.120   3.404   0.365
 2279SOL    HW2 6866   1.208   3.476   0.482
 2280SOL     OW 6867   4.719   4.435   3.222
 2280SOL    HW1 6868   4.767   4.486   3.151
 2280SOL    HW2 6869   4.786   4.401   3.289
 2281SOL     OW 6870   4.743   4.959   3.538
 2281SOL    HW1 6871   4.713   4.938   3.631
 2281SOL    HW2 6872   4.768   0.020   3.532
 2282SOL     OW 6873   3.042   1.510   2.594
 2282SOL    HW1 6874   3.052   1.547   2.686
 2282SOL    HW2 6875   3.058   1.411   2.597
 2283SOL     OW 6876   3.992   1.914   4.012
 2283SOL    HW1 6877   3.914   1.973   3.989
 2283SOL    HW2 6878   4.063   1.923   3.942
 2284SOL     OW 6879   0.275   0.360   4.014
 2284SOL    HW1 6880   0.246   0.274   4.056
 2284SOL    HW2 6881   0.278   0.349   3.915
 2285SOL     OW 6882   3.793   4.220   4.752
 2285SOL    HW1 6883   3.857   4.160   4.704
 2285SOL    HW2 6884   3.738   4.167   4.815
 2286SOL     OW 6885   2.589   3.616   4.399
 2286SOL    HW1 6886   2.537   3.571   4.327
 2286SOL    HW2 6887   2.686   3.593   4.391
 2287SOL     OW 6888   1.969   0.937   4.568
 2287SOL    HW1 6889   1.939   0.883   4.489
 2287SOL    HW2 6890   1.970   0.879   4.649
 2288SOL     OW 6891   2.455   1.120   0.923
 2288SOL    HW1 6892   2.367   1.092   0.883
 2288SOL    HW2 6893   2.528   1.063   0.885
 2289SOL     OW 6894   4.401   2.825   0.827
 2289SOL    HW1 6895   4.436   2.732   0.832
 2289SOL    HW2 6896   4.442   2.873   0.750
 2290SOL     OW 6897   1.098   1.468   1.471
 2290SOL    HW1 6898   1.051   1.412   1.402
 2290SOL    HW2 6899   1.030   1.521   1.523
 2291SOL     OW 6900   3.905   1.194   0.232
 2291SOL    HW1 6901   3.996   1.231   0.219
 2291SOL    HW2 6902   3.836   1.264   0.214
 2292SOL     OW 6903   3.820   4.648   3.605
 2292SOL    HW1 6904   3.914   4.632   3.633
 2292SOL    HW2 6905   3.759   4.587   3.657
 2293SOL     OW 6906   0.013   3.942   0.686
 2293SOL    HW1 6907   0.106   3.972   0.664
 2293SOL    HW2 6908   0.012   3.842   0.699
 2294SOL     OW 6909   2.455   2.702   4.644
 2294SOL    HW1 6910   2.475   2.763   4.720
 2294SOL    HW2 6911   2.362   2.719   4.610
 2295SOL     OW 6912   3.391   2.901   3.782
 2295SOL    HW1 6913   3.429   2.974   3.725
 2295SOL    HW2 6914   3.422   2.912   3.876
 2296SOL     OW 6915   4.548   1.750   4.818
 2296SOL    HW1 6916   4.569   1.846   4.803
 2296SOL    HW2 6917   4.574   1.697   4.738
 2297SOL     OW 6918   1.698   1.935   1.663
 2297SOL    HW1 6919   1.666   2.025   1.635
 2297SOL    HW2 6920   1.644   1.902   1.741
 2298SOL     OW 6921   1.990   0.363   3.504
 2298SOL    HW1 6922   1.977   0.281   3.559
 2298SOL    HW2 6923   1.918   0.369   3.435
 2299SOL     OW 6924   2.651   2.097   3.996
 2299SOL    HW1 6925   2.640   2.139   4.085
 2299SOL    HW2 6926   2.577   2.127   3.935
 2300SOL     OW 6927   2.000   1.235   1.196
 2300SOL    HW1 6928   1.910   1.277   1.186
 2300SOL    HW2 6929   2.064   1.303   1.233
 2301SOL     OW 6930   3.030   1.354   0.329
 2301SOL    HW1 6931   2.944   1.390   0.366
 2301SOL    HW2 6932   3.011   1.307   0.243
 2302SOL     OW 6933   1.995   0.537   1.671
 2302SOL    HW1 6934   1.899   0.561   1.686
 2302SOL    HW2 6935   2.053   0.616   1.689
 2303SOL     OW 6936   4.964   2.248   1.976
 2303SOL    HW1 6937   0.023   2.229   2.003
 2303SOL    HW2 6938   4.961   2.268   1.878
 2304SOL     OW 6939   4.512   2.926   2.533
 2304SOL    HW1 6940   4.551   2.991   2.468
 2304SOL    HW2 6941   4.549   2.834   2.515
 2305SOL     OW 6942   1.510   4.731   4.791
 2305SOL    HW1 6943   1.440   4.704   4.726
 2305SOL    HW2 6944   1.559   4.651   4.824
 2306SOL     OW 6945   4.951   2.491   1.567
 2306SOL    HW1 6946   4.853   2.496   1.547
 2306SOL    HW2 6947   4.971   2.546   1.648
 2307SOL     OW 6948   2.264   2.994   1.207
 2307SOL    HW1 6949   2.173   3.003   1.246
 2307SOL    HW2 6950   2.330   3.038   1.267
 2308SOL     OW 6951   0.413   4.025   1.791
 2308SOL    HW1 6952   0.416   4.118   1.753
 2308SOL    HW2 6953   0.350   4.024   1.869
 2309SOL     OW 6954   1.513   2.486   3.084
 2309SOL    HW1 6955   1.592   2.470   3.144
 2309SOL    HW2 6956   1.524   2.435   2.999
 2310SOL     OW 6957   2.979   1.208   4.785
 2310SOL    HW1 6958   3.020   1.125   4.749
 2310SOL    HW2 6959   3.019   1.229   4.874
 2311SOL     OW 6960   2.140   2.222   1.489
 2311SOL    HW1 6961   2.083   2.184   1.562
 2311SOL    HW2 6962   2.154   2.320   1.504
 2312SOL     OW 6963   3.447   4.780   0.306
 2312SOL    HW1 6964   3.456   4.710   0.236
 2312SOL    HW2 6965   3.520   4.770   0.374
 2313SOL     OW 6966   3.468   0.133   3.821
 2313SOL    HW1 6967   3.403   0.208   3.809
 2313SOL    HW2 6968   3.533   0.156   3.893
 2314SOL     OW 6969   2.090   2.864   0.982
 2314SOL    HW1 6970   2.138   2.810   0.914
 2314SOL    HW2 6971   2.156   2.901   1.047
 2315SOL     OW 6972   4.552   4.872   1.413
 2315SOL    HW1 6973   4.573   4.797   1.350
 2315SOL    HW2 6974   4.487   4.840   1.482
 2316SOL     OW 6975   4.627   2.262   3.827
 2316SOL    HW1 6976   4.570   2.344   3.829
 2316SOL    HW2 6977   4.715   2.282   3.870
 2317SOL     OW 6978   3.871   4.501   2.436
 2317SOL    HW1 6979   3.835   4.593   2.452
 2317SOL    HW2 6980   3.967   4.507   2.409
 2318SOL     OW 6981   0.709   4.949   4.050
 2318SOL    HW1 6982   0.741   4.860   4.017
 2318SOL    HW2 6983   0.636   4.982   3.991
 2319SOL     OW 6984   2.523   4.639   0.937
 2319SOL    HW1 6985   2.523   4.541   0.953
 2319SOL    HW2 6986   2.612   4.667   0.900
 2320SOL     OW 6987   0.826   4.352   0.666
 2320SOL    HW1 6988   0.914   4.344   0.714
 2320SOL    HW2 6989   0.834   4.418   0.592
 2321SOL     OW 6990   1.263   1.724   4.722
 2321SOL    HW1 6991   1.201   1.764   4.789
 2321SOL    HW2 6992   1.343   1.685   4.768
 2322SOL     OW 6993   3.237   3.729   1.655
 2322SOL    HW1 6994   3.262   3.818   1.619
 2322SOL    HW2 6995   3.146   3.734   1.697
 2323SOL     OW 6996   4.232   2.112   4.122
 2323SOL    HW1 6997   4.210   2.107   4.024
 2323SOL    HW2 6998   4.213   2.024   4.165
 2324SOL     OW 6999   3.885   3.232   1.195
 2324SOL    HW1 7000   3.933   3.283   1.266
 2324SOL    HW2 7001   3.798   3.276   1.173
 2325SOL     OW 7002   4.147   3.602   4.517
 2325SOL    HW1 7003   4.158   3.694   4.481
 2325SOL    HW2 7004   4.231   3.549   4.501
 2326SOL     OW 7005   0.057   0.450   0.024
 2326SOL    HW1 7006   0.132   0.453   4.992
 2326SOL    HW2 7007   0.094   0.467   0.115
 2327SOL     OW 7008   1.879   1.514   4.336
 2327SOL    HW1 7009   1.817   1.530   4.412
 2327SOL    HW2 7010   1.962   1.469   4.370
 2328SOL     OW 7011   0.085   4.998   4.320
 2328SOL    HW1 7012   0.106   4.916   4.268
 2328SOL    HW2 7013   5.032   0.000   4.290
 2329SOL     OW 7014   2.016   0.997   1.059
 2329SOL    HW1 7015   2.033   1.088   1.096
 2329SOL    HW2 7016   2.004   1.004   0.960
 2330SOL     OW 7017   2.128   4.031   1.078
 2330SOL    HW1 7018   2.110   4.127   1.100
 2330SOL    HW2 7019   2.087   3.972   1.148
 2331SOL     OW 7020   4.042   3.119   0.543
 2331SOL    HW1 7021   3.968   3.101   0.478
 2331SOL    HW2 7022   4.031   3.060   0.623
 2332SOL     OW 7023   2.577   0.679   4.273
 2332SOL    HW1 7024   2.544   0.771   4.251
 2332SOL    HW2 7025   2.594   0.673   4.372
 2333SOL     OW 7026   2.914   3.230   1.099
 2333SOL    HW1 7027   2.816   3.218   1.080
 2333SOL    HW2 7028   2.958   3.140   1.100
 2334SOL     OW 7029   4.474   0.325   3.412
 2334SOL    HW1 7030   4.404   0.394   3.396
 2334SOL    HW2 7031   4.512   0.337   3.504
 2335SOL     OW 7032   0.589   0.845   3.644
 2335SOL    HW1 7033   0.502   0.821   3.603
 2335SOL    HW2 7034   0.573   0.896   3.729
 2336SOL     OW 7035   2.708   4.289   1.169
 2336SOL    HW1 7036   2.744   4.374   1.206
 2336SOL    HW2 7037   2.692   4.224   1.243
 2337SOL     OW 7038   2.569   3.771   1.461
 2337SOL    HW1 7039   2.514   3.691   1.485
 2337SOL    HW2 7040   2.637   3.787   1.534
 2338SOL     OW 7041   4.388   1.346   3.868
 2338SOL    HW1 7042   4.468   1.339   3.928
 2338SOL    HW2 7043   4.325   1.415   3.904
 2339SOL     OW 7044   4.243   1.527   1.403
 2339SOL    HW1 7045   4.278   1.445   1.356
 2339SOL    HW2 7046   4.276   1.527   1.497
 2340SOL     OW 7047   3.426   2.116   1.275
 2340SOL    HW1 7048   3.455   2.212   1.271
 2340SOL    HW2 7049   3.430   2.077   1.183
 2341SOL     OW 7050   0.135   2.977   4.822
 2341SOL    HW1 7051   0.058   2.964   4.760
 2341SOL    HW2 7052   0.221   2.967   4.771
 2342SOL     OW 7053   1.376   3.766   0.388
 2342SOL    HW1 7054   1.418   3.764   0.478
 2342SOL    HW2 7055   1.282   3.801   0.396
 2343SOL     OW 7056   0.603   4.106   0.636
 2343SOL    HW1 7057   0.628   4.016   0.601
 2343SOL    HW2 7058   0.655   4.176   0.588
 2344SOL     OW 7059   4.893   0.501   3.520
 2344SOL    HW1 7060   4.874   0.422   3.462
 2344SOL    HW2 7061   4.808   0.531   3.564
 2345SOL     OW 7062   3.226   3.087   4.001
 2345SOL    HW1 7063   3.147   3.141   3.974
 2345SOL    HW2 7064   3.310   3.135   3.974
 2346SOL     OW 7065   1.207   4.061   2.091
 2346SOL    HW1 7066   1.128   4.060   2.152
 2346SOL    HW2 7067   1.263   4.141   2.111
 2347SOL     OW 7068   4.975   0.229   4.864
 2347SOL    HW1 7069   4.990   0.292   4.788
 2347SOL    HW2 7070   4.928   0.278   4.938
 2348SOL     OW 7071   0.911   1.517   4.584
 2348SOL    HW1 7072   0.934   1.561   4.497
 2348SOL    HW2 7073   0.819   1.544   4.611
 2349SOL     OW 7074   3.577   2.953   4.709
 2349SOL    HW1 7075   3.500   2.961   4.772
 2349SOL    HW2 7076   3.543   2.924   4.619
 2350SOL     OW 7077   4.471   2.580   0.721
 2350SOL    HW1 7078   4.411   2.499   0.724
 2350SOL    HW2 7079   4.478   2.613   0.627
 2351SOL     OW 7080   1.279   0.874   2.733
 2351SOL    HW1 7081   1.238   0.874   2.642
 2351SOL    HW2 7082   1.321   0.963   2.751
 2352SOL     OW 7083   4.130   0.805   2.360
 2352SOL    HW1 7084   4.039   0.795   2.320
 2352SOL    HW2 7085   4.197   0.816   2.287
 2353SOL     OW 7086   3.826   0.208   4.294
 2353SOL    HW1 7087   3.815   0.306   4.309
 2353SOL    HW2 7088   3.780   0.158   4.367
 2354SOL     OW 7089   4.696   4.734   4.993
 2354SOL    HW1 7090   4.764   4.662   5.006
 2354SOL    HW2 7091   4.727   4.796   4.920
 2355SOL     OW 7092   2.566   1.419   2.113
 2355SOL    HW1 7093   2.522   1.463   2.035
 2355SOL    HW2 7094   2.522   1.449   2.198
 2356SOL     OW 7095   1.643   0.570   3.205
 2356SOL    HW1 7096   1.646   0.480   3.163
 2356SOL    HW2 7097   1.548   0.596   3.223
 2357SOL     OW 7098   3.499   1.209   1.018
 2357SOL    HW1 7099   3.409   1.168   1.006
 2357SOL    HW2 7100   3.527   1.254   0.933
 2358SOL     OW 7101   1.693   1.275   1.363
 2358SOL    HW1 7102   1.595   1.279   1.346
 2358SOL    HW2 7103   1.714   1.323   1.449
 2359SOL     OW 7104   3.063   0.463   4.310
 2359SOL    HW1 7105   3.159   0.476   4.285
 2359SOL    HW2 7106   3.027   0.548   4.349
 2360SOL     OW 7107   4.054   1.685   1.864
 2360SOL    HW1 7108   4.039   1.698   1.962
 2360SOL    HW2 7109   4.116   1.756   1.831
 2361SOL     OW 7110   2.242   1.970   1.085
 2361SOL    HW1 7111   2.301   2.015   1.152
 2361SOL    HW2 7112   2.262   1.872   1.083
 2362SOL     OW 7113   0.953   1.505   1.777
 2362SOL    HW1 7114   1.051   1.496   1.795
 2362SOL    HW2 7115   0.920   1.592   1.814
 2363SOL     OW 7116   5.024   0.264   4.385
 2363SOL    HW1 7117   4.984   0.189   4.331
 2363SOL    HW2 7118   0.010   0.341   4.324
 2364SOL     OW 7119   2.681   0.580   0.410
 2364SOL    HW1 7120   2.672   0.481   0.403
 2364SOL    HW2 7121   2.752   0.602   0.477
 2365SOL     OW 7122   1.448   3.819   0.765
 2365SOL    HW1 7123   1.376   3.753   0.791
 2365SOL    HW2 7124   1.513   3.827   0.841
 2366SOL     OW 7125   1.227   3.266   3.583
 2366SOL    HW1 7126   1.323   3.274   3.609
 2366SOL    HW2 7127   1.209   3.175   3.546
 2367SOL     OW 7128   1.904   0.114   4.401
 2367SOL    HW1 7129   1.843   0.179   4.355
 2367SOL    HW2 7130   1.849   0.041   4.442
 2368SOL     OW 7131   0.599   3.932   2.776
 2368SOL    HW1 7132   0.695   3.917   2.799
 2368SOL    HW2 7133   0.569   3.862   2.712
 2369SOL     OW 7134   1.249   3.382   4.098
 2369SOL    HW1 7135   1.307   3.363   4.177
 2369SOL    HW2 7136   1.164   3.331   4.105
 2370SOL     OW 7137   2.874   4.869   2.115
 2370SOL    HW1 7138   2.920   4.897   2.199
 2370SOL    HW2 7139   2.812   4.793   2.134
 2371SOL     OW 7140   1.844   2.947   3.864
 2371SOL    HW1 7141   1.769   2.916   3.806
 2371SOL    HW2 7142   1.867   2.876   3.931
 2372SOL     OW 7143   2.756   2.608   1.923
 2372SOL    HW1 7144   2.718   2.537   1.863
 2372SOL    HW2 7145   2.714   2.602   2.013
 2373SOL     OW 7146   4.495   1.057   2.417
 2373SOL    HW1 7147   4.408   1.091   2.381
 2373SOL    HW2 7148   4.479   1.009   2.503
 2374SOL     OW 7149   1.574   4.212   1.561
 2374SOL    HW1 7150   1.509   4.253   1.625
 2374SOL    HW2 7151   1.616   4.131   1.602
 2375SOL     OW 7152   0.656   3.590   0.756
 2375SOL    HW1 7153   0.714   3.537   0.694
 2375SOL    HW2 7154   0.702   3.601   0.844
 2376SOL     OW 7155   2.653   0.303   0.404
 2376SOL    HW1 7156   2.565   0.256   0.412
 2376SOL    HW2 7157   2.695   0.282   0.316
 2377SOL     OW 7158   2.880   3.256   3.041
 2377SOL    HW1 7159   2.880   3.198   3.122
 2377SOL    HW2 7160   2.935   3.213   2.969
 2378SOL     OW 7161   2.124   3.072   0.754
 2378SOL    HW1 7162   2.156   3.107   0.666
 2378SOL    HW2 7163   2.201   3.055   0.814
 2379SOL     OW 7164   3.197   4.694   0.111
 2379SOL    HW1 7165   3.223   4.785   0.143
 2379SOL    HW2 7166   3.243   4.674   0.025
 2380SOL     OW 7167   1.871   3.339   4.603
 2380SOL    HW1 7168   1.783   3.300   4.576
 2380SOL    HW2 7169   1.884   3.328   4.701
 2381SOL     OW 7170   1.840   0.133   1.742
 2381SOL    HW1 7171   1.889   0.054   1.779
 2381SOL    HW2 7172   1.869   0.149   1.648
 2382SOL     OW 7173   1.855   2.990   0.828
 2382SOL    HW1 7174   1.864   3.074   0.881
 2382SOL    HW2 7175   1.945   2.962   0.796
 2383SOL     OW 7176   1.964   5.001   0.596
 2383SOL    HW1 7177   1.958   0.013   0.684
 2383SOL    HW2 7178   1.880   5.018   0.544
 2384SOL     OW 7179   4.299   1.833   3.829
 2384SOL    HW1 7180   4.357   1.839   3.910
 2384SOL    HW2 7181   4.350   1.865   3.749
 2385SOL     OW 7182   0.621   1.790   2.976
 2385SOL    HW1 7183   0.572   1.841   3.046
 2385SOL    HW2 7184   0.588   1.696   2.974
 2386SOL     OW 7185   1.277   1.844   0.642
 2386SOL    HW1 7186   1.330   1.928   0.650
 2386SOL    HW2 7187   1.218   1.834   0.723
 2387SOL     OW 7188   2.841   4.540   1.127
 2387SOL    HW1 7189   2.807   4.633   1.142
 2387SOL    HW2 7190   2.901   4.539   1.047
 2388SOL     OW 7191   1.817   2.778   1.091
 2388SOL    HW1 7192   1.784   2.698   1.040
 2388SOL    HW2 7193   1.876   2.833   1.033
 2389SOL     OW 7194   4.688   3.792   3.142
 2389SOL    HW1 7195   4.693   3.806   3.241
 2389SOL    HW2 7196   4.654   3.699   3.123
 2390SOL     OW 7197   1.169   0.303   4.238
 2390SOL    HW1 7198   1.186   0.285   4.141
 2390SOL    HW2 7199   1.176   0.217   4.289
 2391SOL     OW 7200   4.618   0.093   1.763
 2391SOL    HW1 7201   4.638   0.021   1.697
 2391SOL    HW2 7202   4.676   0.082   1.843
 2392SOL     OW 7203   4.460   1.106   3.256
 2392SOL    HW1 7204   4.450   1.068   3.163
 2392SOL    HW2 7205   4.533   1.057   3.304
 2393SOL     OW 7206   3.297   0.430   0.558
 2393SOL    HW1 7207   3.387   0.463   0.530
 2393SOL    HW2 7208   3.307   0.365   0.633
 2394SOL     OW 7209   3.270   3.158   4.292
 2394SOL    HW1 7210   3.185   3.106   4.283
 2394SOL    HW2 7211   3.311   3.169   4.201
 2395SOL     OW 7212   4.355   3.559   3.717
 2395SOL    HW1 7213   4.364   3.500   3.637
 2395SOL    HW2 7214   4.334   3.503   3.797
 2396SOL     OW 7215   3.922   2.815   3.246
 2396SOL    HW1 7216   3.994   2.859   3.300
 2396SOL    HW2 7217   3.899   2.873   3.167
 2397SOL     OW 7218   3.216   3.565   4.233
 2397SOL    HW1 7219   3.180   3.654   4.263
 2397SOL    HW2 7220   3.236   3.509   4.312
 2398SOL     OW 7221   2.365   0.833   2.902
 2398SOL    HW1 7222   2.311   0.750   2.920
 2398SOL    HW2 7223   2.407   0.865   2.987
 2399SOL     OW 7224   4.246   4.017   0.992
 2399SOL    HW1 7225   4.288   3.944   0.939
 2399SOL    HW2 7226   4.200   4.081   0.930
 2400SOL     OW 7227   4.047   2.207   1.294
 2400SOL    HW1 7228   3.957   2.223   1.254
 2400SOL    HW2 7229   4.060   2.108   1.307
 2401SOL     OW 7230   4.946   2.934   4.625
 2401SOL    HW1 7231   4.967   2.843   4.660
 2401SOL    HW2 7232   5.012   2.958   4.554
 2402SOL     OW 7233   3.933   4.025   0.219
 2402SOL    HW1 7234   3.847   4.076   0.221
 2402SOL    HW2 7235   3.994   4.064   0.151
 2403SOL     OW 7236   1.739   4.976   0.195
 2403SOL    HW1 7237   1.739   0.031   0.237
 2403SOL    HW2 7238   1.824   4.962   0.144
 2404SOL     OW 7239   3.149   3.288   1.561
 2404SOL    HW1 7240   3.232   3.326   1.601
 2404SOL    HW2 7241   3.156   3.188   1.556
 2405SOL     OW 7242   2.113   3.770   2.791
 2405SOL    HW1 7243   2.086   3.837   2.721
 2405SOL    HW2 7244   2.082   3.801   2.881
 2406SOL     OW 7245   2.956   4.672   0.270
 2406SOL    HW1 7246   3.049   4.685   0.235
 2406SOL    HW2 7247   2.958   4.664   0.370
 2407SOL     OW 7248   0.887   3.325   0.928
 2407SOL    HW1 7249   0.802   3.309   0.877
 2407SOL    HW2 7250   0.865   3.355   1.021
 2408SOL     OW 7251   0.903   2.884   0.540
 2408SOL    HW1 7252   0.918   2.786   0.535
 2408SOL    HW2 7253   0.823   2.903   0.597
 2409SOL     OW 7254   3.629   3.986   2.950
 2409SOL    HW1 7255   3.612   4.078   2.916
 2409SOL    HW2 7256   3.624   3.921   2.875
 2410SOL     OW 7257   0.246   0.751   0.812
 2410SOL    HW1 7258   0.321   0.816   0.819
 2410SOL    HW2 7259   0.271   0.665   0.857
 2411SOL     OW 7260   4.116   4.321   1.746
 2411SOL    HW1 7261   4.190   4.275   1.796
 2411SOL    HW2 7262   4.029   4.306   1.793
 2412SOL     OW 7263   1.201   1.104   4.539
 2412SOL    HW1 7264   1.115   1.150   4.516
 2412SOL    HW2 7265   1.183   1.029   4.602
 2413SOL     OW 7266   4.659   3.754   1.727
 2413SOL    HW1 7267   4.578   3.716   1.683
 2413SOL    HW2 7268   4.633   3.799   1.812
 2414SOL     OW 7269   4.271   3.537   0.620
 2414SOL    HW1 7270   4.205   3.463   0.636
 2414SOL    HW2 7271   4.248   3.615   0.678
 2415SOL     OW 7272   0.650   0.231   4.959
 2415SOL    HW1 7273   0.593   0.150   4.975
 2415SOL    HW2 7274   0.732   0.205   4.909
 2416SOL     OW 7275   0.196   4.164   1.072
 2416SOL    HW1 7276   0.273   4.227   1.061
 2416SOL    HW2 7277   0.122   4.190   1.009
 2417SOL     OW 7278   0.796   0.303   2.935
 2417SOL    HW1 7279   0.724   0.311   2.867
 2417SOL    HW2 7280   0.885   0.317   2.891
 2418SOL     OW 7281   4.761   3.553   3.326
 2418SOL    HW1 7282   4.674   3.600   3.345
 2418SOL    HW2 7283   4.832   3.620   3.310
 2419SOL     OW 7284   4.867   0.434   2.349
 2419SOL    HW1 7285   4.936   0.388   2.292
 2419SOL    HW2 7286   4.775   0.410   2.316
 2420SOL     OW 7287   1.097   3.615   3.541
 2420SOL    HW1 7288   1.025   3.586   3.478
 2420SOL    HW2 7289   1.149   3.689   3.498
 2421SOL     OW 7290   3.248   0.990   1.436
 2421SOL    HW1 7291   3.205   0.903   1.459
 2421SOL    HW2 7292   3.311   0.977   1.360
 2422SOL     OW 7293   4.872   3.501   1.383
 2422SOL    HW1 7294   4.795   3.491   1.319
 2422SOL    HW2 7295   4.934   3.572   1.348
 2423SOL     OW 7296   2.582   4.233   4.950
 2423SOL    HW1 7297   2.543   4.318   4.986
 2423SOL    HW2 7298   2.508   4.175   4.916
 2424SOL     OW 7299   0.113   2.920   4.010
 2424SOL    HW1 7300   0.083   2.838   4.058
 2424SOL    HW2 7301   0.205   2.945   4.041
 2425SOL     OW 7302   0.241   2.789   0.159
 2425SOL    HW1 7303   0.195   2.805   0.246
 2425SOL    HW2 7304   0.256   2.877   0.113
 2426SOL     OW 7305   1.200   4.957   1.371
 2426SOL    HW1 7306   1.243   4.912   1.293
 2426SOL    HW2 7307   1.251   4.935   1.455
 2427SOL     OW 7308   1.415   3.565   4.417
 2427SOL    HW1 7309   1.509   3.557   4.386
 2427SOL    HW2 7310   1.408   3.530   4.510
 2428SOL     OW 7311   4.372   3.283   0.179
 2428SOL    HW1 7312   4.285   3.235   0.169
 2428SOL    HW2 7313   4.382   3.315   0.273
 2429SOL     OW 7314   2.249   4.272   2.009
 2429SOL    HW1 7315   2.219   4.364   2.035
 2429SOL    HW2 7316   2.207   4.205   2.071
 2430SOL     OW 7317   1.405   4.188   0.101
 2430SOL    HW1 7318   1.411   4.133   0.185
 2430SOL    HW2 7319   1.423   4.284   0.122
 2431SOL     OW 7320   2.705   2.638   0.937
 2431SOL    HW1 7321   2.668   2.690   0.861
 2431SOL    HW2 7322   2.642   2.565   0.963
 2432SOL     OW 7323   2.996   0.971   1.899
 2432SOL    HW1 7324   2.970   1.030   1.822
 2432SOL    HW2 7325   3.074   1.011   1.947
 2433SOL     OW 7326   2.246   1.049   4.643
 2433SOL    HW1 7327   2.262   1.097   4.729
 2433SOL    HW2 7328   2.154   1.011   4.642
 2434SOL     OW 7329   2.573   4.292   1.859
 2434SOL    HW1 7330   2.485   4.243   1.860
 2434SOL    HW2 7331   2.622   4.269   1.775
 2435SOL     OW 7332   4.370   1.104   0.595
 2435SOL    HW1 7333   4.281   1.092   0.550
 2435SOL    HW2 7334   4.381   1.034   0.666
 2436SOL     OW 7335   2.584   0.547   1.318
 2436SOL    HW1 7336   2.519   0.565   1.392
 2436SOL    HW2 7337   2.604   0.632   1.270
 2437SOL     OW 7338   1.577   5.004   1.372
 2437SOL    HW1 7339   1.622   4.926   1.416
 2437SOL    HW2 7340   1.523   0.019   1.439
 2438SOL     OW 7341   2.241   4.327   3.638
 2438SOL    HW1 7342   2.231   4.291   3.731
 2438SOL    HW2 7343   2.217   4.423   3.637
 2439SOL     OW 7344   0.672   0.490   4.113
 2439SOL    HW1 7345   0.731   0.410   4.103
 2439SOL    HW2 7346   0.593   0.465   4.169
 2440SOL     OW 7347   0.456   0.515   3.661
 2440SOL    HW1 7348   0.366   0.531   3.621
 2440SOL    HW2 7349   0.454   0.536   3.759
 2441SOL     OW 7350   1.843   4.111   0.202
 2441SOL    HW1 7351   1.743   4.116   0.199
 2441SOL    HW2 7352   1.872   4.019   0.177
 2442SOL     OW 7353   3.031   4.202   4.988
 2442SOL    HW1 7354   2.931   4.195   4.982
 2442SOL    HW2 7355   3.061   4.168   0.042
 2443SOL     OW 7356   4.780   2.208   2.946
 2443SOL    HW1 7357   4.858   2.148   2.929
 2443SOL    HW2 7358   4.784   2.244   3.039
 2444SOL     OW 7359   0.837   4.986   2.583
 2444SOL    HW1 7360   0.826   4.906   2.524
 2444SOL    HW2 7361   0.840   4.956   2.679
 2445SOL     OW 7362   2.385   3.949   0.259
 2445SOL    HW1 7363   2.383   3.999   0.345
 2445SOL    HW2 7364   2.434   3.863   0.272
 2446SOL     OW 7365   0.812   3.098   0.316
 2446SOL    HW1 7366   0.901   3.076   0.357
 2446SOL    HW2 7367   0.797   3.039   0.237
 2447SOL     OW 7368   4.397   2.321   4.217
 2447SOL    HW1 7369   4.365   2.226   4.223
 2447SOL    HW2 7370   4.398   2.349   4.121
 2448SOL     OW 7371   0.204   2.443   2.462
 2448SOL    HW1 7372   0.217   2.442   2.363
 2448SOL    HW2 7373   0.189   2.537   2.493
 2449SOL     OW 7374   4.427   2.080   0.848
 2449SOL    HW1 7375   4.423   2.179   0.843
 2449SOL    HW2 7376   4.487   2.053   0.923
 2450SOL     OW 7377   3.170   2.994   1.570
 2450SOL    HW1 7378   3.132   2.913   1.614
 2450SOL    HW2 7379   3.184   2.976   1.473
 2451SOL     OW 7380   1.418   1.092   1.559
 2451SOL    HW1 7381   1.360   1.111   1.638
 2451SOL    HW2 7382   1.445   1.178   1.516
 2452SOL     OW 7383   1.788   2.128   0.422
 2452SOL    HW1 7384   1.778   2.220   0.384
 2452SOL    HW2 7385   1.779   2.132   0.522
 2453SOL     OW 7386   1.325   1.234   0.455
 2453SOL    HW1 7387   1.236   1.229   0.410
 2453SOL    HW2 7388   1.342   1.327   0.486
 2454SOL     OW 7389   0.472   3.225   3.873
 2454SOL    HW1 7390   0.444   3.176   3.956
 2454SOL    HW2 7391   0.564   3.197   3.846
 2455SOL     OW 7392   0.506   2.446   2.014
 2455SOL    HW1 7393   0.564   2.377   2.058
 2455SOL    HW2 7394   0.439   2.400   1.955
 2456SOL     OW 7395   2.029   2.938   2.357
 2456SOL    HW1 7396   2.097   2.937   2.430
 2456SOL    HW2 7397   2.000   3.033   2.340
 2457SOL     OW 7398   0.983   3.275   2.639
 2457SOL    HW1 7399   0.945   3.328   2.563
 2457SOL    HW2 7400   0.974   3.326   2.724
 2458SOL     OW 7401   4.911   1.016   0.337
 2458SOL    HW1 7402   4.969   1.041   0.414
 2458SOL    HW2 7403   4.849   1.092   0.316
 2459SOL     OW 7404   4.965   3.184   2.967
 2459SOL    HW1 7405   5.027   3.114   2.931
 2459SOL    HW2 7406   4.929   3.238   2.891
 2460SOL     OW 7407   1.200   4.140   0.618
 2460SOL    HW1 7408   1.268   4.132   0.690
 2460SOL    HW2 7409   1.110   4.115   0.654
 2461SOL     OW 7410   0.114   1.133   3.619
 2461SOL    HW1 7411   0.041   1.098   3.560
 2461SOL    HW2 7412   0.091   1.225   3.649
 2462SOL     OW 7413   3.956   0.652   4.913
 2462SOL    HW1 7414   4.012   0.572   4.935
 2462SOL    HW2 7415   4.016   0.730   4.894
 2463SOL     OW 7416   2.572   2.807   2.873
 2463SOL    HW1 7417   2.504   2.849   2.813
 2463SOL    HW2 7418   2.545   2.713   2.893
 2464SOL     OW 7419   2.922   1.087   2.275
 2464SOL    HW1 7420   2.831   1.101   2.236
 2464SOL    HW2 7421   2.963   1.175   2.297
 2465SOL     OW 7422   2.184   4.983   1.284
 2465SOL    HW1 7423   2.249   0.016   1.250
 2465SOL    HW2 7424   2.144   4.935   1.206
 2466SOL     OW 7425   4.940   2.774   0.857
 2466SOL    HW1 7426   4.964   2.864   0.892
 2466SOL    HW2 7427   4.842   2.773   0.834
 2467SOL     OW 7428   4.271   3.218   3.532
 2467SOL    HW1 7429   4.340   3.161   3.488
 2467SOL    HW2 7430   4.295   3.232   3.628
 2468SOL     OW 7431   3.053   4.053   2.260
 2468SOL    HW1 7432   3.091   3.962   2.278
 2468SOL    HW2 7433   2.954   4.051   2.274
 2469SOL     OW 7434   0.122   2.527   3.068
 2469SOL    HW1 7435   0.180   2.580   3.129
 2469SOL    HW2 7436   0.103   2.580   2.985
 2470SOL     OW 7437   0.555   2.577   3.810
 2470SOL    HW1 7438   0.492   2.527   3.750
 2470SOL    HW2 7439   0.506   2.606   3.892
 2471SOL     OW 7440   4.253   0.873   2.124
 2471SOL    HW1 7441   4.184   0.831   2.064
 2471SOL    HW2 7442   4.267   0.968   2.097
 2472SOL     OW 7443   1.121   0.334   1.288
 2472SOL    HW1 7444   1.079   0.271   1.354
 2472SOL    HW2 7445   1.212   0.301   1.263
 2473SOL     OW 7446   2.613   2.815   2.384
 2473SOL    HW1 7447   2.525   2.767   2.390
 2473SOL    HW2 7448   2.609   2.881   2.308
 2474SOL     OW 7449   2.477   0.296   3.578
 2474SOL    HW1 7450   2.452   0.305   3.675
 2474SOL    HW2 7451   2.473   0.386   3.534
 2475SOL     OW 7452   2.882   3.752   2.089
 2475SOL    HW1 7453   2.898   3.851   2.099
 2475SOL    HW2 7454   2.963   3.702   2.121
 2476SOL     OW 7455   2.616   1.490   1.213
 2476SOL    HW1 7456   2.656   1.425   1.278
 2476SOL    HW2 7457   2.638   1.461   1.119
 2477SOL     OW 7458   1.751   0.242   2.213
 2477SOL    HW1 7459   1.786   0.182   2.141
 2477SOL    HW2 7460   1.814   0.318   2.228
 2478SOL     OW 7461   3.733   2.070   2.504
 2478SOL    HW1 7462   3.768   2.057   2.411
 2478SOL    HW2 7463   3.803   2.042   2.570
 2479SOL     OW 7464   0.586   1.991   2.450
 2479SOL    HW1 7465   0.625   1.917   2.504
 2479SOL    HW2 7466   0.636   2.001   2.364
 2480SOL     OW 7467   2.778   1.591   0.085
 2480SOL    HW1 7468   2.682   1.619   0.089
 2480SOL    HW2 7469   2.784   1.496   0.056
 2481SOL     OW 7470   3.508   1.197   3.855
 2481SOL    HW1 7471   3.488   1.198   3.757
 2481SOL    HW2 7472   3.562   1.116   3.878
 2482SOL     OW 7473   3.777   3.323   0.191
 2482SOL    HW1 7474   3.820   3.297   0.105
 2482SOL    HW2 7475   3.718   3.402   0.177
 2483SOL     OW 7476   0.378   4.296   1.744
 2483SOL    HW1 7477   0.307   4.273   1.810
 2483SOL    HW2 7478   0.388   4.395   1.740
 2484SOL     OW 7479   4.766   1.530   2.078
 2484SOL    HW1 7480   4.767   1.483   1.990
 2484SOL    HW2 7481   4.721   1.474   2.147
 2485SOL     OW 7482   0.100   4.631   1.746
 2485SOL    HW1 7483   0.187   4.615   1.699
 2485SOL    HW2 7484   0.087   4.561   1.817
 2486SOL     OW 7485   2.624   4.781   3.965
 2486SOL    HW1 7486   2.621   4.692   4.009
 2486SOL    HW2 7487   2.624   4.769   3.866
 2487SOL     OW 7488   3.656   2.807   0.181
 2487SOL    HW1 7489   3.596   2.869   0.231
 2487SOL    HW2 7490   3.741   2.854   0.158
 2488SOL     OW 7491   1.323   0.681   0.571
 2488SOL    HW1 7492   1.374   0.765   0.590
 2488SOL    HW2 7493   1.385   0.612   0.533
 2489SOL     OW 7494   2.943   0.078   4.831
 2489SOL    HW1 7495   3.002   0.016   4.779
 2489SOL    HW2 7496   2.847   0.060   4.807
 2490SOL     OW 7497   0.430   3.412   3.687
 2490SOL    HW1 7498   0.520   3.417   3.643
 2490SOL    HW2 7499   0.431   3.337   3.753
 2491SOL     OW 7500   2.259   2.344   2.904
 2491SOL    HW1 7501   2.349   2.385   2.915
 2491SOL    HW2 7502   2.269   2.245   2.894
 2492SOL     OW 7503   3.432   0.685   2.699
 2492SOL    HW1 7504   3.378   0.744   2.639
 2492SOL    HW2 7505   3.379   0.661   2.780
 2493SOL     OW 7506   4.378   2.510   0.122
 2493SOL    HW1 7507   4.433   2.584   0.160
 2493SOL    HW2 7508   4.316   2.475   0.192
 2494SOL     OW 7509   3.456   1.948   4.832
 2494SOL    HW1 7510   3.550   1.922   4.856
 2494SOL    HW2 7511   3.396   1.868   4.841
 2495SOL     OW 7512   0.043   2.202   1.452
 2495SOL    HW1 7513   0.090   2.249   1.377
 2495SOL    HW2 7514   0.023   2.108   1.424
 2496SOL     OW 7515   2.476   3.174   2.252
 2496SOL    HW1 7516   2.548   3.149   2.317
 2496SOL    HW2 7517   2.462   3.099   2.188
 2497SOL     OW 7518   1.277   0.887   3.637
 2497SOL    HW1 7519   1.273   0.981   3.671
 2497SOL    HW2 7520   1.358   0.876   3.578
 2498SOL     OW 7521   3.563   0.782   0.854
 2498SOL    HW1 7522   3.638   0.776   0.920
 2498SOL    HW2 7523   3.556   0.876   0.821
 2499SOL     OW 7524   2.432   1.486   1.561
 2499SOL    HW1 7525   2.477   1.467   1.648
 2499SOL    HW2 7526   2.343   1.527   1.577
 2500SOL     OW 7527   3.974   0.159   4.053
 2500SOL    HW1 7528   3.984   0.198   4.145
 2500SOL    HW2 7529   3.956   0.232   3.987
 2501SOL     OW 7530   2.375   2.408   1.691
 2501SOL    HW1 7531   2.358   2.485   1.629
 2501SOL    HW2 7532   2.359   2.438   1.785
 2502SOL     OW 7533   3.126   2.212   3.264
 2502SOL    HW1 7534   3.221   2.192   3.289
 2502SOL    HW2 7535   3.120   2.307   3.233
 2503SOL     OW 7536   1.279   3.763   4.681
 2503SOL    HW1 7537   1.250   3.764   4.586
 2503SOL    HW2 7538   1.337   3.683   4.698
 2504SOL     OW 7539   3.551   4.533   0.086
 2504SOL    HW1 7540   3.552   4.500   0.180
 2504SOL    HW2 7541   3.623   4.489   0.034
 2505SOL     OW 7542   2.923   3.151   3.525
 2505SOL    HW1 7543   2.971   3.137   3.438
 2505SOL    HW2 7544   2.929   3.248   3.550
 2506SOL     OW 7545   4.716   2.299   2.348
 2506SOL    HW1 7546   4.800   2.255   2.380
 2506SOL    HW2 7547   4.665   2.237   2.288
 2507SOL     OW 7548   3.496   3.086   3.386
 2507SOL    HW1 7549   3.420   3.025   3.363
 2507SOL    HW2 7550   3.572   3.032   3.421
 2508SOL     OW 7551   0.319   0.916   1.067
 2508SOL    HW1 7552   0.370   0.964   0.996
 2508SOL    HW2 7553   0.236   0.876   1.028
 2509SOL     OW 7554   1.380   1.086   3.851
 2509SOL    HW1 7555   1.415   1.052   3.938
 2509SOL    HW2 7556   1.280   1.081   3.852
 2510SOL     OW 7557   4.501   4.356   3.355
 2510SOL    HW1 7558   4.485   4.262   3.384
 2510SOL    HW2 7559   4.585   4.360   3.301
 2511SOL     OW 7560   2.229   4.797   1.904
 2511SOL    HW1 7561   2.284   4.880   1.904
 2511SOL    HW2 7562   2.162   4.800   1.830
 2512SOL     OW 7563   0.227   3.334   4.354
 2512SOL    HW1 7564   0.128   3.329   4.368
 2512SOL    HW2 7565   0.246   3.365   4.261
 2513SOL     OW 7566   0.045   2.286   3.204
 2513SOL    HW1 7567   0.051   2.379   3.170
 2513SOL    HW2 7568   0.013   2.226   3.131
 2514SOL     OW 7569   2.315   3.412   2.497
 2514SOL    HW1 7570   2.381   3.473   2.454
 2514SOL    HW2 7571   2.268   3.460   2.572
 2515SOL     OW 7572   4.088   1.157   3.857
 2515SOL    HW1 7573   4.137   1.082   3.814
 2515SOL    HW2 7574   4.086   1.143   3.956
 2516SOL     OW 7575   5.003   4.033   3.271
 2516SOL    HW1 7576   4.990   3.978   3.354
 2516SOL    HW2 7577   4.971   3.982   3.192
 2517SOL     OW 7578   3.599   2.997   2.589
 2517SOL    HW1 7579   3.637   2.958   2.505
 2517SOL    HW2 7580   3.674   3.026   2.649
 2518SOL     OW 7581   0.221   4.403   0.326
 2518SOL    HW1 7582   0.125   4.400   0.354
 2518SOL    HW2 7583   0.270   4.326   0.366
 2519SOL     OW 7584   0.266   3.023   0.020
 2519SOL    HW1 7585   0.338   3.091   0.008
 2519SOL    HW2 7586   0.213   3.015   4.970
 2520SOL     OW 7587   2.700   4.888   2.932
 2520SOL    HW1 7588   2.714   4.869   2.835
 2520SOL    HW2 7589   2.669   4.805   2.979
 2521SOL     OW 7590   4.623   1.102   1.709
 2521SOL    HW1 7591   4.624   1.017   1.762
 2521SOL    HW2 7592   4.706   1.106   1.653
 2522SOL     OW 7593   3.612   4.216   0.971
 2522SOL    HW1 7594   3.538   4.282   0.959
 2522SOL    HW2 7595   3.700   4.262   0.955
 2523SOL     OW 7596   3.872   4.869   1.444
 2523SOL    HW1 7597   3.948   4.847   1.505
 2523SOL    HW2 7598   3.849   4.789   1.389
 2524SOL     OW 7599   4.846   2.203   4.378
 2524SOL    HW1 7600   4.766   2.256   4.347
 2524SOL    HW2 7601   4.865   2.130   4.313
 2525SOL     OW 7602   0.374   4.331   3.783
 2525SOL    HW1 7603   0.456   4.316   3.838
 2525SOL    HW2 7604   0.395   4.396   3.709
 2526SOL     OW 7605   1.497   1.227   3.139
 2526SOL    HW1 7606   1.495   1.311   3.086
 2526SOL    HW2 7607   1.457   1.153   3.085
 2527SOL     OW 7608   4.051   0.315   3.644
 2527SOL    HW1 7609   4.066   0.413   3.634
 2527SOL    HW2 7610   3.952   0.297   3.646
 2528SOL     OW 7611   4.920   1.540   4.660
 2528SOL    HW1 7612   4.878   1.458   4.620
 2528SOL    HW2 7613   4.852   1.588   4.716
 2529SOL     OW 7614   4.185   2.433   0.299
 2529SOL    HW1 7615   4.159   2.424   0.395
 2529SOL    HW2 7616   4.110   2.401   0.241
 2530SOL     OW 7617   1.354   2.747   0.792
 2530SOL    HW1 7618   1.283   2.677   0.789
 2530SOL    HW2 7619   1.403   2.749   0.705
 2531SOL     OW 7620   3.934   4.050   0.998
 2531SOL    HW1 7621   3.853   4.094   0.959
 2531SOL    HW2 7622   3.916   4.026   1.093
 2532SOL     OW 7623   3.836   0.128   1.549
 2532SOL    HW1 7624   3.928   0.137   1.512
 2532SOL    HW2 7625   3.840   0.117   1.648
 2533SOL     OW 7626   3.396   3.116   2.121
 2533SOL    HW1 7627   3.459   3.104   2.198
 2533SOL    HW2 7628   3.307   3.076   2.145
 2534SOL     OW 7629   2.015   2.561   0.976
 2534SOL    HW1 7630   2.059   2.628   0.916
 2534SOL    HW2 7631   2.048   2.573   1.069
 2535SOL     OW 7632   3.122   2.072   1.189
 2535SOL    HW1 7633   3.189   2.114   1.128
 2535SOL    HW2 7634   3.142   2.098   1.283
 2536SOL     OW 7635   2.115   3.235   1.146
 2536SOL    HW1 7636   2.197   3.185   1.118
 2536SOL    HW2 7637   2.113   3.325   1.103
 2537SOL     OW 7638   2.188   4.525   2.723
 2537SOL    HW1 7639   2.200   4.616   2.682
 2537SOL    HW2 7640   2.097   4.520   2.765
 2538SOL     OW 7641   4.876   3.746   4.661
 2538SOL    HW1 7642   4.961   3.730   4.711
 2538SOL    HW2 7643   4.897   3.769   4.566
 2539SOL     OW 7644   3.837   2.969   4.803
 2539SOL    HW1 7645   3.744   2.959   4.769
 2539SOL    HW2 7646   3.876   3.055   4.770
 2540SOL     OW 7647   4.221   3.212   2.520
 2540SOL    HW1 7648   4.140   3.263   2.492
 2540SOL    HW2 7649   4.195   3.141   2.585
 2541SOL     OW 7650   0.978   4.632   4.306
 2541SOL    HW1 7651   1.013   4.590   4.389
 2541SOL    HW2 7652   0.978   4.732   4.316
 2542SOL     OW 7653   0.787   1.362   2.507
 2542SOL    HW1 7654   0.694   1.396   2.494
 2542SOL    HW2 7655   0.829   1.344   2.419
 2543SOL     OW 7656   3.908   4.935   2.630
 2543SOL    HW1 7657   3.899   5.021   2.681
 2543SOL    HW2 7658   3.816   4.901   2.606
 2544SOL     OW 7659   1.686   4.961   0.517
 2544SOL    HW1 7660   1.702   4.958   0.616
 2544SOL    HW2 7661   1.655   4.872   0.486
 2545SOL     OW 7662   0.357   4.902   0.127
 2545SOL    HW1 7663   0.415   4.877   0.049
 2545SOL    HW2 7664   0.337   5.000   0.123
 2546SOL     OW 7665   0.445   0.834   1.517
 2546SOL    HW1 7666   0.500   0.907   1.559
 2546SOL    HW2 7667   0.435   0.759   1.582
 2547SOL     OW 7668   2.398   1.614   2.958
 2547SOL    HW1 7669   2.486   1.594   2.915
 2547SOL    HW2 7670   2.411   1.623   3.057
 2548SOL     OW 7671   0.036   2.946   0.678
 2548SOL    HW1 7672   0.052   2.850   0.702
 2548SOL    HW2 7673   0.003   2.995   0.758
 2549SOL     OW 7674   1.614   2.961   0.742
 2549SOL    HW1 7675   1.704   2.979   0.780
 2549SOL    HW2 7676   1.597   3.023   0.665
 2550SOL     OW 7677   1.278   2.539   3.873
 2550SOL    HW1 7678   1.328   2.609   3.821
 2550SOL    HW2 7679   1.179   2.551   3.858
 2551SOL     OW 7680   2.384   3.795   1.700
 2551SOL    HW1 7681   2.468   3.848   1.687
 2551SOL    HW2 7682   2.367   3.784   1.798
 2552SOL     OW 7683   4.284   2.614   4.236
 2552SOL    HW1 7684   4.253   2.531   4.192
 2552SOL    HW2 7685   4.239   2.624   4.325
 2553SOL     OW 7686   4.712   2.868   1.192
 2553SOL    HW1 7687   4.670   2.778   1.178
 2553SOL    HW2 7688   4.792   2.859   1.252
 2554SOL     OW 7689   1.361   2.106   3.380
 2554SOL    HW1 7690   1.364   2.026   3.319
 2554SOL    HW2 7691   1.334   2.187   3.328
 2555SOL     OW 7692   4.110   2.296   4.658
 2555SOL    HW1 7693   4.183   2.317   4.723
 2555SOL    HW2 7694   4.078   2.202   4.673
 2556SOL     OW 7695   2.250   4.580   1.447
 2556SOL    HW1 7696   2.213   4.498   1.491
 2556SOL    HW2 7697   2.339   4.602   1.487
 2557SOL     OW 7698   4.346   1.963   3.462
 2557SOL    HW1 7699   4.332   2.047   3.409
 2557SOL    HW2 7700   4.400   1.984   3.544
 2558SOL     OW 7701   1.396   0.544   0.828
 2558SOL    HW1 7702   1.443   0.463   0.863
 2558SOL    HW2 7703   1.363   0.525   0.735
 2559SOL     OW 7704   1.749   3.508   3.695
 2559SOL    HW1 7705   1.682   3.497   3.769
 2559SOL    HW2 7706   1.841   3.487   3.729
 2560SOL     OW 7707   2.476   0.930   3.128
 2560SOL    HW1 7708   2.448   0.928   3.224
 2560SOL    HW2 7709   2.575   0.931   3.121
 2561SOL     OW 7710   2.324   2.727   1.260
 2561SOL    HW1 7711   2.314   2.823   1.234
 2561SOL    HW2 7712   2.249   2.701   1.321
 2562SOL     OW 7713   1.072   1.167   2.423
 2562SOL    HW1 7714   1.123   1.184   2.339
 2562SOL    HW2 7715   1.134   1.131   2.493
 2563SOL     OW 7716   3.570   1.974   4.358
 2563SOL    HW1 7717   3.511   1.955   4.279
 2563SOL    HW2 7718   3.530   2.047   4.413
 2564SOL     OW 7719   2.730   4.805   5.000
 2564SOL    HW1 7720   2.778   4.742   0.027
 2564SOL    HW2 7721   2.735   4.898   0.001
 2565SOL     OW 7722   0.833   3.010   4.059
 2565SOL    HW1 7723   0.845   2.937   4.125
 2565SOL    HW2 7724   0.861   3.097   4.100
 2566SOL     OW 7725   1.619   2.905   3.712
 2566SOL    HW1 7726   1.627   2.979   3.646
 2566SOL    HW2 7727   1.528   2.908   3.754
 2567SOL     OW 7728   0.189   1.816   2.068
 2567SOL    HW1 7729   0.275   1.784   2.109
 2567SOL    HW2 7730   0.113   1.759   2.100
 2568SOL     OW 7731   4.589   2.237   3.505
 2568SOL    HW1 7732   4.626   2.162   3.450
 2568SOL    HW2 7733   4.653   2.257   3.579
 2569SOL     OW 7734   2.228   2.798   4.557
 2569SOL    HW1 7735   2.208   2.891   4.586
 2569SOL    HW2 7736   2.236   2.795   4.457
 2570SOL     OW 7737   2.330   0.383   1.241
 2570SOL    HW1 7738   2.388   0.451   1.196
 2570SOL    HW2 7739   2.343   0.294   1.197
 2571SOL     OW 7740   1.914   2.934   4.529
 2571SOL    HW1 7741   1.955   3.015   4.571
 2571SOL    HW2 7742   1.829   2.959   4.483
 2572SOL     OW 7743   3.557   0.310   1.720
 2572SOL    HW1 7744   3.473   0.295   1.668
 2572SOL    HW2 7745   3.545   0.278   1.814
 2573SOL     OW 7746   0.109   4.686   0.340
 2573SOL    HW1 7747   0.134   4.744   0.418
 2573SOL    HW2 7748   0.180   4.618   0.324
 2574SOL     OW 7749   0.308   0.486   0.892
 2574SOL    HW1 7750   0.330   0.412   0.955
 2574SOL    HW2 7751   0.251   0.450   0.817
 2575SOL     OW 7752   3.028   4.370   4.654
 2575SOL    HW1 7753   2.994   4.394   4.745
 2575SOL    HW2 7754   3.126   4.386   4.650
 2576SOL     OW 7755   3.099   3.777   3.507
 2576SOL    HW1 7756   3.076   3.851   3.444
 2576SOL    HW2 7757   3.044   3.785   3.590
 2577SOL     OW 7758   0.136   4.273   3.010
 2577SOL    HW1 7759   0.094   4.196   2.964
 2577SOL    HW2 7760   0.231   4.284   2.978
 2578SOL     OW 7761   3.909   3.897   2.082
 2578SOL    HW1 7762   3.856   3.913   2.166
 2578SOL    HW2 7763   3.878   3.813   2.038
 2579SOL     OW 7764   1.744   3.941   2.970
 2579SOL    HW1 7765   1.714   4.035   2.984
 2579SOL    HW2 7766   1.665   3.879   2.977
 2580SOL     OW 7767   3.638   3.902   1.195
 2580SOL    HW1 7768   3.609   3.938   1.106
 2580SOL    HW2 7769   3.730   3.937   1.216
 2581SOL     OW 7770   2.409   2.680   1.002
 2581SOL    HW1 7771   2.468   2.758   0.981
 2581SOL    HW2 7772   2.392   2.676   1.101
 2582SOL     OW 7773   0.082   1.778   1.302
 2582SOL    HW1 7774   5.019   1.767   1.291
 2582SOL    HW2 7775   0.126   1.688   1.303
 2583SOL     OW 7776   0.312   3.465   4.955
 2583SOL    HW1 7777   0.370   3.525   4.901
 2583SOL    HW2 7778   0.223   3.455   4.911
 2584SOL     OW 7779   2.637   3.106   2.446
 2584SOL    HW1 7780   2.728   3.069   2.466
 2584SOL    HW2 7781   2.579   3.094   2.526
 2585SOL     OW 7782   3.841   0.023   2.214
 2585SOL    HW1 7783   3.842   4.960   2.192
 2585SOL    HW2 7784   3.890   0.039   2.299
 2586SOL     OW 7785   3.562   4.260   1.626
 2586SOL    HW1 7786   3.519   4.202   1.694
 2586SOL    HW2 7787   3.539   4.227   1.534
 2587SOL     OW 7788   4.203   1.535   2.950
 2587SOL    HW1 7789   4.175   1.625   2.986
 2587SOL    HW2 7790   4.158   1.519   2.862
 2588SOL     OW 7791   0.202   1.886   3.595
 2588SOL    HW1 7792   0.252   1.966   3.561
 2588SOL    HW2 7793   0.234   1.864   3.687
 2589SOL     OW 7794   2.111   2.211   1.203
 2589SOL    HW1 7795   2.143   2.125   1.163
 2589SOL    HW2 7796   2.134   2.213   1.300
 2590SOL     OW 7797   0.845   4.342   4.814
 2590SOL    HW1 7798   0.774   4.402   4.851
 2590SOL    HW2 7799   0.923   4.339   4.878
 2591SOL     OW 7800   2.192   1.174   2.588
 2591SOL    HW1 7801   2.230   1.121   2.663
 2591SOL    HW2 7802   2.261   1.185   2.516
 2592SOL     OW 7803   2.141   3.659   3.290
 2592SOL    HW1 7804   2.212   3.618   3.347
 2592SOL    HW2 7805   2.181   3.692   3.205
 2593SOL     OW 7806   2.834   3.943   4.179
 2593SOL    HW1 7807   2.734   3.939   4.177
 2593SOL    HW2 7808   2.870   3.920   4.088
 2594SOL     OW 7809   1.014   3.847   2.601
 2594SOL    HW1 7810   1.018   3.802   2.512
 2594SOL    HW2 7811   1.037   3.944   2.591
 2595SOL     OW 7812   1.067   4.932   0.554
 2595SOL    HW1 7813   0.976   4.913   0.515
 2595SOL    HW2 7814   1.130   4.955   0.480
 2596SOL     OW 7815   2.137   1.513   4.889
 2596SOL    HW1 7816   2.128   1.531   4.987
 2596SOL    HW2 7817   2.048   1.526   4.844
 2597SOL     OW 7818   1.442   0.271   2.451
 2597SOL    HW1 7819   1.445   0.345   2.519
 2597SOL    HW2 7820   1.387   0.300   2.373
 2598SOL     OW 7821   4.329   1.553   3.282
 2598SOL    HW1 7822   4.401   1.497   3.323
 2598SOL    HW2 7823   4.248   1.497   3.266
 2599SOL     OW 7824   4.372   1.997   2.231
 2599SOL    HW1 7825   4.328   1.926   2.285
 2599SOL    HW2 7826   4.355   2.087   2.272
 2600SOL     OW 7827   4.244   2.685   4.994
 2600SOL    HW1 7828   4.319   2.691   4.928
 2600SOL    HW2 7829   4.260   2.607   0.020
 2601SOL     OW 7830   0.462   3.695   1.044
 2601SOL    HW1 7831   0.510   3.676   0.959
 2601SOL    HW2 7832   0.390   3.763   1.028
 2602SOL     OW 7833   3.230   2.684   3.823
 2602SOL    HW1 7834   3.203   2.623   3.748
 2602SOL    HW2 7835   3.284   2.759   3.786
 2603SOL     OW 7836   4.361   0.534   2.004
 2603SOL    HW1 7837   4.316   0.580   1.928
 2603SOL    HW2 7838   4.415   0.457   1.970
 2604SOL     OW 7839   1.236   4.833   1.127
 2604SOL    HW1 7840   1.253   4.850   1.030
 2604SOL    HW2 7841   1.249   4.736   1.147
 2605SOL     OW 7842   0.068   4.049   3.951
 2605SOL    HW1 7843   0.091   4.067   3.855
 2605SOL    HW2 7844   5.015   4.002   3.956
 2606SOL     OW 7845   3.477   3.242   4.086
 2606SOL    HW1 7846   3.567   3.218   4.123
 2606SOL    HW2 7847   3.479   3.233   3.987
 2607SOL     OW 7848   0.117   1.456   0.518
 2607SOL    HW1 7849   0.167   1.515   0.581
 2607SOL    HW2 7850   0.019   1.467   0.533
 2608SOL     OW 7851   4.565   4.142   2.714
 2608SOL    HW1 7852   4.545   4.044   2.722
 2608SOL    HW2 7853   4.481   4.194   2.727
 2609SOL     OW 7854   4.121   4.699   0.889
 2609SOL    HW1 7855   4.090   4.722   0.981
 2609SOL    HW2 7856   4.108   4.601   0.874
 2610SOL     OW 7857   0.842   0.616   4.922
 2610SOL    HW1 7858   0.847   0.555   4.843
 2610SOL    HW2 7859   0.747   0.623   4.952
 2611SOL     OW 7860   3.506   0.225   2.031
 2611SOL    HW1 7861   3.441   0.243   2.104
 2611SOL    HW2 7862   3.481   0.141   1.983
 2612SOL     OW 7863   3.375   0.783   4.659
 2612SOL    HW1 7864   3.442   0.824   4.597
 2612SOL    HW2 7865   3.286   0.779   4.613
 2613SOL     OW 7866   0.324   3.751   1.730
 2613SOL    HW1 7867   0.253   3.688   1.699
 2613SOL    HW2 7868   0.292   3.845   1.721
 2614SOL     OW 7869   2.851   0.393   3.595
 2614SOL    HW1 7870   2.811   0.316   3.546
 2614SOL    HW2 7871   2.792   0.418   3.672
 2615SOL     OW 7872   1.951   4.033   2.220
 2615SOL    HW1 7873   1.912   4.117   2.257
 2615SOL    HW2 7874   2.044   4.049   2.190
 2616SOL     OW 7875   0.247   2.678   4.618
 2616SOL    HW1 7876   0.283   2.597   4.665
 2616SOL    HW2 7877   0.314   2.709   4.550
 2617SOL     OW 7878   0.693   4.644   4.087
 2617SOL    HW1 7879   0.601   4.637   4.047
 2617SOL    HW2 7880   0.686   4.681   4.180
 2618SOL     OW 7881   3.204   1.742   4.469
 2618SOL    HW1 7882   3.215   1.839   4.491
 2618SOL    HW2 7883   3.236   1.725   4.376
 2619SOL     OW 7884   1.891   0.087   2.036
 2619SOL    HW1 7885   1.976   0.124   1.998
 2619SOL    HW2 7886   1.913   0.017   2.103
 2620SOL     OW 7887   1.944   2.146   1.669
 2620SOL    HW1 7888   1.889   2.128   1.751
 2620SOL    HW2 7889   1.894   2.117   1.588
 2621SOL     OW 7890   1.464   4.171   4.248
 2621SOL    HW1 7891   1.396   4.116   4.199
 2621SOL    HW2 7892   1.424   4.206   4.333
 2622SOL     OW 7893   3.753   2.115   3.671
 2622SOL    HW1 7894   3.826   2.178   3.699
 2622SOL    HW2 7895   3.665   2.153   3.696
 2623SOL     OW 7896   0.326   2.434   3.322
 2623SOL    HW1 7897   0.261   2.490   3.374
 2623SOL    HW2 7898   0.303   2.338   3.333
 2624SOL     OW 7899   2.252   1.649   1.379
 2624SOL    HW1 7900   2.163   1.607   1.360
 2624SOL    HW2 7901   2.311   1.640   1.300
 2625SOL     OW 7902   2.576   1.371   0.952
 2625SOL    HW1 7903   2.623   1.329   0.874
 2625SOL    HW2 7904   2.497   1.315   0.978
 2626SOL     OW 7905   4.954   3.126   1.552
 2626SOL    HW1 7906   0.010   3.122   1.593
 2626SOL    HW2 7907   4.910   3.212   1.578
 2627SOL     OW 7908   3.403   1.925   4.119
 2627SOL    HW1 7909   3.330   1.967   4.173
 2627SOL    HW2 7910   3.380   1.930   4.022
 2628SOL     OW 7911   2.482   0.891   0.758
 2628SOL    HW1 7912   2.494   0.842   0.672
 2628SOL    HW2 7913   2.385   0.893   0.782
 2629SOL     OW 7914   2.914   1.081   4.193
 2629SOL    HW1 7915   2.920   1.064   4.291
 2629SOL    HW2 7916   2.828   1.129   4.173
 2630SOL     OW 7917   4.449   2.532   1.955
 2630SOL    HW1 7918   4.492   2.456   1.908
 2630SOL    HW2 7919   4.385   2.497   2.024
 2631SOL     OW 7920   0.879   2.912   3.083
 2631SOL    HW1 7921   0.877   2.821   3.124
 2631SOL    HW2 7922   0.798   2.924   3.025
 2632SOL     OW 7923   2.423   0.935   3.411
 2632SOL    HW1 7924   2.359   0.865   3.443
 2632SOL    HW2 7925   2.381   1.025   3.418
 2633SOL     OW 7926   0.199   1.030   2.715
 2633SOL    HW1 7927   0.187   0.943   2.668
 2633SOL    HW2 7928   0.158   1.103   2.660
 2634SOL     OW 7929   4.191   0.239   4.290
 2634SOL    HW1 7930   4.270   0.292   4.321
 2634SOL    HW2 7931   4.159   0.180   4.364
 2635SOL     OW 7932   2.447   1.228   1.490
 2635SOL    HW1 7933   2.444   1.326   1.510
 2635SOL    HW2 7934   2.354   1.196   1.470
 2636SOL     OW 7935   3.832   1.539   0.679
 2636SOL    HW1 7936   3.909   1.591   0.643
 2636SOL    HW2 7937   3.865   1.456   0.724
 2637SOL     OW 7938   1.404   3.238   4.986
 2637SOL    HW1 7939   1.488   3.288   4.963
 2637SOL    HW2 7940   1.356   3.213   4.902
 2638SOL     OW 7941   1.704   1.027   4.309
 2638SOL    HW1 7942   1.693   0.975   4.394
 2638SOL    HW2 7943   1.770   1.101   4.324
 2639SOL     OW 7944   3.122   3.753   2.806
 2639SOL    HW1 7945   3.133   3.839   2.857
 2639SOL    HW2 7946   3.209   3.728   2.764
 2640SOL     OW 7947   3.984   1.556   3.216
 2640SOL    HW1 7948   3.899   1.608   3.219
 2640SOL    HW2 7949   4.053   1.602   3.271
 2641SOL     OW 7950   3.468   0.799   3.138
 2641SOL    HW1 7951   3.530   0.737   3.091
 2641SOL    HW2 7952   3.440   0.873   3.077
 2642SOL     OW 7953   1.881   3.685   4.157
 2642SOL    HW1 7954   1.805   3.733   4.113
 2642SOL    HW2 7955   1.941   3.751   4.202
 2643SOL     OW 7956   1.226   1.474   1.877
 2643SOL    HW1 7957   1.316   1.508   1.905
 2643SOL    HW2 7958   1.176   1.440   1.957
 2644SOL     OW 7959   3.800   1.929   1.498
 2644SOL    HW1 7960   3.874   1.972   1.550
 2644SOL    HW2 7961   3.825   1.835   1.476
 2645SOL     OW 7962   2.830   0.852   4.720
 2645SOL    HW1 7963   2.830   0.825   4.816
 2645SOL    HW2 7964   2.907   0.808   4.673
 2646SOL     OW 7965   3.540   2.776   2.761
 2646SOL    HW1 7966   3.466   2.794   2.825
 2646SOL    HW2 7967   3.557   2.858   2.706
 2647SOL     OW 7968   4.947   3.253   3.592
 2647SOL    HW1 7969   4.867   3.299   3.553
 2647SOL    HW2 7970   4.939   3.251   3.692
 2648SOL     OW 7971   0.825   4.819   3.783
 2648SOL    HW1 7972   0.863   4.728   3.764
 2648SOL    HW2 7973   0.737   4.829   3.737
 2649SOL     OW 7974   1.311   3.635   3.084
 2649SOL    HW1 7975   1.357   3.721   3.063
 2649SOL    HW2 7976   1.372   3.575   3.136
 2650SOL     OW 7977   2.859   3.827   1.479
 2650SOL    HW1 7978   2.884   3.730   1.487
 2650SOL    HW2 7979   2.920   3.882   1.536
 2651SOL     OW 7980   2.573   4.875   2.348
 2651SOL    HW1 7981   2.635   4.952   2.364
 2651SOL    HW2 7982   2.556   4.867   2.250
 2652SOL     OW 7983   3.489   4.491   0.353
 2652SOL    HW1 7984   3.392   4.506   0.334
 2652SOL    HW2 7985   3.523   4.565   0.412
 2653SOL     OW 7986   2.329   0.532   1.780
 2653SOL    HW1 7987   2.299   0.462   1.716
 2653SOL    HW2 7988   2.251   0.563   1.834
 2654SOL     OW 7989   1.490   0.926   0.850
 2654SOL    HW1 7990   1.495   1.024   0.831
 2654SOL    HW2 7991   1.518   0.874   0.769
 2655SOL     OW 7992   4.116   3.420   2.271
 2655SOL    HW1 7993   4.207   3.455   2.292
 2655SOL    HW2 7994   4.107   3.408   2.172
 2656SOL     OW 7995   1.191   1.669   4.424
 2656SOL    HW1 7996   1.096   1.658   4.396
 2656SOL    HW2 7997   1.205   1.627   4.513
 2657SOL     OW 7998   3.701   0.338   0.999
 2657SOL    HW1 7999   3.620   0.387   0.966
 2657SOL    HW2 8000   3.777   0.354   0.936
 2658SOL     OW 8001   4.076   2.752   0.528
 2658SOL    HW1 8002   4.001   2.801   0.483
 2658SOL    HW2 8003   4.088   2.786   0.621
 2659SOL     OW 8004   0.967   4.539   3.651
 2659SOL    HW1 8005   1.008   4.561   3.562
 2659SOL    HW2 8006   1.038   4.514   3.716
 2660SOL     OW 8007   1.500   0.724   2.695
 2660SOL    HW1 8008   1.537   0.714   2.787
 2660SOL    HW2 8009   1.411   0.770   2.700
 2661SOL     OW 8010   0.669   3.247   1.332
 2661SOL    HW1 8011   0.656   3.263   1.234
 2661SOL    HW2 8012   0.597   3.186   1.366
 2662SOL     OW 8013   3.083   1.009   5.016
 2662SOL    HW1 8014   2.986   1.028   5.000
 2662SOL    HW2 8015   3.092   0.919   0.025
 2663SOL     OW 8016   1.575   1.430   5.034
 2663SOL    HW1 8017   1.651   1.371   0.026
 2663SOL    HW2 8018   1.590   1.463   4.940
 2664SOL     OW 8019   1.897   0.898   4.137
 2664SOL    HW1 8020   1.883   0.936   4.046
 2664SOL    HW2 8021   1.813   0.907   4.190
 2665SOL     OW 8022   3.922   2.793   4.993
 2665SOL    HW1 8023   3.895   2.841   4.909
 2665SOL    HW2 8024   3.949   2.700   4.970
 2666SOL     OW 8025   1.586   3.983   0.218
 2666SOL    HW1 8026   1.497   3.982   0.263
 2666SOL    HW2 8027   1.590   3.911   0.149
 2667SOL     OW 8028   4.819   0.222   1.315
 2667SOL    HW1 8029   4.908   0.178   1.330
 2667SOL    HW2 8030   4.832   0.304   1.260
 2668SOL     OW 8031   1.833   1.990   4.314
 2668SOL    HW1 8032   1.814   1.971   4.218
 2668SOL    HW2 8033   1.827   1.905   4.367
 2669SOL     OW 8034   3.691   1.873   4.938
 2669SOL    HW1 8035   3.726   1.965   4.953
 2669SOL    HW2 8036   3.768   1.810   4.928
 2670SOL     OW 8037   0.234   1.231   3.854
 2670SOL    HW1 8038   0.320   1.222   3.905
 2670SOL    HW2 8039   0.254   1.228   3.756
 2671SOL     OW 8040   0.578   0.292   3.908
 2671SOL    HW1 8041   0.649   0.274   3.976
 2671SOL    HW2 8042   0.530   0.377   3.931
 2672SOL     OW 8043   4.146   1.142   0.442
 2672SOL    HW1 8044   4.161   1.145   0.343
 2672SOL    HW2 8045   4.141   1.236   0.477
 2673SOL     OW 8046   1.238   0.459   0.232
 2673SOL    HW1 8047   1.199   0.490   0.318
 2673SOL    HW2 8048   1.183   0.493   0.155
 2674SOL     OW 8049   4.000   0.122   4.826
 2674SOL    HW1 8050   3.906   0.091   4.812
 2674SOL    HW2 8051   4.040   0.074   4.904
 2675SOL     OW 8052   2.406   0.524   0.339
 2675SOL    HW1 8053   2.463   0.604   0.319
 2675SOL    HW2 8054   2.312   0.554   0.355
 2676SOL     OW 8055   4.589   3.884   2.343
 2676SOL    HW1 8056   4.531   3.964   2.360
 2676SOL    HW2 8057   4.608   3.837   2.429
 2677SOL     OW 8058   0.533   3.368   4.375
 2677SOL    HW1 8059   0.617   3.315   4.372
 2677SOL    HW2 8060   0.475   3.342   4.298
 2678SOL     OW 8061   2.165   3.492   1.774
 2678SOL    HW1 8062   2.149   3.395   1.789
 2678SOL    HW2 8063   2.263   3.509   1.762
 2679SOL     OW 8064   1.183   2.920   0.513
 2679SOL    HW1 8065   1.093   2.963   0.510
 2679SOL    HW2 8066   1.243   2.974   0.573
 2680SOL     OW 8067   2.225   1.774   4.832
 2680SOL    HW1 8068   2.253   1.778   4.736
 2680SOL    HW2 8069   2.180   1.687   4.850
 2681SOL     OW 8070   1.729   2.911   1.697
 2681SOL    HW1 8071   1.655   2.955   1.749
 2681SOL    HW2 8072   1.745   2.963   1.613
 2682SOL     OW 8073   0.618   1.723   1.072
 2682SOL    HW1 8074   0.661   1.633   1.072
 2682SOL    HW2 8075   0.651   1.776   0.993
 2683SOL     OW 8076   1.855   3.835   4.652
 2683SOL    HW1 8077   1.773   3.888   4.671
 2683SOL    HW2 8078   1.869   3.769   4.727
 2684SOL     OW 8079   3.255   2.009   4.502
 2684SOL    HW1 8080   3.329   2.072   4.524
 2684SOL    HW2 8081   3.214   2.035   4.415
 2685SOL     OW 8082   4.224   3.026   1.961
 2685SOL    HW1 8083   4.133   2.990   1.944
 2685SOL    HW2 8084   4.283   3.009   1.882
 2686SOL     OW 8085   1.061   4.567   0.277
 2686SOL    HW1 8086   1.129   4.640   0.275
 2686SOL    HW2 8087   1.085   4.500   0.347
 2687SOL     OW 8088   4.919   3.705   0.821
 2687SOL    HW1 8089   4.840   3.765   0.814
 2687SOL    HW2 8090   4.935   3.660   0.733
 2688SOL     OW 8091   1.151   4.297   4.646
 2688SOL    HW1 8092   1.177   4.315   4.551
 2688SOL    HW2 8093   1.172   4.203   4.669
 2689SOL     OW 8094   3.421   4.719   4.180
 2689SOL    HW1 8095   3.369   4.795   4.142
 2689SOL    HW2 8096   3.468   4.671   4.106
 2690SOL     OW 8097   2.637   2.016   1.380
 2690SOL    HW1 8098   2.635   1.977   1.472
 2690SOL    HW2 8099   2.666   1.947   1.314
 2691SOL     OW 8100   3.900   1.350   4.726
 2691SOL    HW1 8101   3.966   1.322   4.797
 2691SOL    HW2 8102   3.931   1.317   4.637
 2692SOL     OW 8103   2.234   2.397   3.517
 2692SOL    HW1 8104   2.284   2.441   3.442
 2692SOL    HW2 8105   2.300   2.355   3.581
 2693SOL     OW 8106   1.583   3.692   0.204
 2693SOL    HW1 8107   1.485   3.707   0.204
 2693SOL    HW2 8108   1.620   3.712   0.295
 2694SOL     OW 8109   0.406   0.406   0.009
 2694SOL    HW1 8110   0.505   0.395   0.006
 2694SOL    HW2 8111   0.382   0.484   0.066
 2695SOL     OW 8112   3.090   3.443   1.054
 2695SOL    HW1 8113   3.028   3.366   1.041
 2695SOL    HW2 8114   3.157   3.420   1.125
 2696SOL     OW 8115   1.984   4.842   3.152
 2696SOL    HW1 8116   1.892   4.848   3.114
 2696SOL    HW2 8117   1.979   4.813   3.248
 2697SOL     OW 8118   3.040   1.491   3.624
 2697SOL    HW1 8119   2.964   1.429   3.647
 2697SOL    HW2 8120   3.061   1.483   3.527
 2698SOL     OW 8121   0.428   3.480   1.646
 2698SOL    HW1 8122   0.424   3.528   1.733
 2698SOL    HW2 8123   0.341   3.493   1.597
 2699SOL     OW 8124   0.283   3.464   3.461
 2699SOL    HW1 8125   0.248   3.556   3.477
 2699SOL    HW2 8126   0.335   3.433   3.541
 2700SOL     OW 8127   1.474   0.474   5.032
 2700SOL    HW1 8128   1.564   0.464   4.990
 2700SOL    HW2 8129   1.403   0.447   4.967
 2701SOL     OW 8130   4.233   1.397   1.968
 2701SOL    HW1 8131   4.319   1.444   1.986
 2701SOL    HW2 8132   4.244   1.299   1.985
 2702SOL     OW 8133   1.056   1.483   2.101
 2702SOL    HW1 8134   0.994   1.541   2.049
 2702SOL    HW2 8135   1.119   1.541   2.154
 2703SOL     OW 8136   4.325   3.723   3.157
 2703SOL    HW1 8137   4.402   3.685   3.208
 2703SOL    HW2 8138   4.283   3.652   3.102
 2704SOL     OW 8139   0.843   0.429   0.712
 2704SOL    HW1 8140   0.754   0.470   0.735
 2704SOL    HW2 8141   0.910   0.454   0.781
 2705SOL     OW 8142   0.575   3.326   0.546
 2705SOL    HW1 8143   0.583   3.229   0.571
 2705SOL    HW2 8144   0.666   3.368   0.551
 2706SOL     OW 8145   4.350   0.269   1.308
 2706SOL    HW1 8146   4.374   0.364   1.324
 2706SOL    HW2 8147   4.421   0.209   1.345
 2707SOL     OW 8148   4.354   0.637   4.189
 2707SOL    HW1 8149   4.315   0.726   4.214
 2707SOL    HW2 8150   4.385   0.640   4.094
 2708SOL     OW 8151   3.790   0.473   4.334
 2708SOL    HW1 8152   3.869   0.512   4.382
 2708SOL    HW2 8153   3.706   0.510   4.373
 2709SOL     OW 8154   3.177   0.355   0.136
 2709SOL    HW1 8155   3.208   0.291   0.065
 2709SOL    HW2 8156   3.078   0.344   0.149
 2710SOL     OW 8157   2.936   0.639   1.686
 2710SOL    HW1 8158   3.001   0.564   1.673
 2710SOL    HW2 8159   2.941   0.673   1.780
 2711SOL     OW 8160   4.459   4.984   3.095
 2711SOL    HW1 8161   4.474   4.932   3.011
 2711SOL    HW2 8162   4.534   4.967   3.159
 2712SOL     OW 8163   2.092   4.769   2.906
 2712SOL    HW1 8164   2.184   4.742   2.934
 2712SOL    HW2 8165   2.037   4.788   2.987
 2713SOL     OW 8166   4.826   1.890   2.114
 2713SOL    HW1 8167   4.853   1.981   2.083
 2713SOL    HW2 8168   4.842   1.882   2.212
 2714SOL     OW 8169   3.039   3.235   2.799
 2714SOL    HW1 8170   3.026   3.324   2.755
 2714SOL    HW2 8171   3.105   3.182   2.746
 2715SOL     OW 8172   2.082   2.979   4.116
 2715SOL    HW1 8173   2.004   3.041   4.123
 2715SOL    HW2 8174   2.056   2.899   4.062
 2716SOL     OW 8175   2.257   2.048   0.821
 2716SOL    HW1 8176   2.341   2.087   0.783
 2716SOL    HW2 8177   2.267   2.036   0.919
 2717SOL     OW 8178   0.405   0.858   4.496
 2717SOL    HW1 8179   0.344   0.936   4.482
 2717SOL    HW2 8180   0.423   0.847   4.594
 2718SOL     OW 8181   3.625   2.617   0.705
 2718SOL    HW1 8182   3.622   2.686   0.777
 2718SOL    HW2 8183   3.533   2.595   0.675
 2719SOL     OW 8184   0.977   1.853   1.125
 2719SOL    HW1 8185   0.963   1.808   1.037
 2719SOL    HW2 8186   0.994   1.951   1.110
 2720SOL     OW 8187   4.751   2.924   2.036
 2720SOL    HW1 8188   4.654   2.933   2.056
 2720SOL    HW2 8189   4.778   2.993   1.968
 2721SOL     OW 8190   4.942   3.046   0.918
 2721SOL    HW1 8191   4.945   3.144   0.901
 2721SOL    HW2 8192   4.848   3.018   0.936
 2722SOL     OW 8193   0.821   1.205   2.949
 2722SOL    HW1 8194   0.816   1.300   2.977
 2722SOL    HW2 8195   0.733   1.160   2.966
 2723SOL     OW 8196   3.635   4.523   4.062
 2723SOL    HW1 8197   3.666   4.551   4.153
 2723SOL    HW2 8198   3.712   4.487   4.010
 2724SOL     OW 8199   1.374   4.507   4.409
 2724SOL    HW1 8200   1.427   4.512   4.324
 2724SOL    HW2 8201   1.432   4.469   4.481
 2725SOL     OW 8202   1.071   3.844   3.129
 2725SOL    HW1 8203   1.059   3.900   3.047
 2725SOL    HW2 8204   1.140   3.886   3.188
 2726SOL     OW 8205   2.675   2.882   4.115
 2726SOL    HW1 8206   2.626   2.878   4.202
 2726SOL    HW2 8207   2.616   2.922   4.045
 2727SOL     OW 8208   2.422   1.733   1.114
 2727SOL    HW1 8209   2.504   1.754   1.168
 2727SOL    HW2 8210   2.448   1.719   1.019
 2728SOL     OW 8211   3.113   1.207   4.483
 2728SOL    HW1 8212   3.174   1.200   4.562
 2728SOL    HW2 8213   3.166   1.232   4.402
 2729SOL     OW 8214   3.495   1.110   2.219
 2729SOL    HW1 8215   3.447   1.184   2.268
 2729SOL    HW2 8216   3.428   1.044   2.186
 2730SOL     OW 8217   0.983   0.773   3.587
 2730SOL    HW1 8218   0.967   0.676   3.606
 2730SOL    HW2 8219   0.895   0.818   3.569
 2731SOL     OW 8220   3.414   4.477   3.491
 2731SOL    HW1 8221   3.478   4.400   3.488
 2731SOL    HW2 8222   3.343   4.458   3.559
 2732SOL     OW 8223   4.146   4.175   4.012
 2732SOL    HW1 8224   4.079   4.167   4.086
 2732SOL    HW2 8225   4.185   4.267   4.013
 2733SOL     OW 8226   3.278   2.204   0.988
 2733SOL    HW1 8227   3.353   2.141   0.968
 2733SOL    HW2 8228   3.231   2.228   0.903
 2734SOL     OW 8229   0.588   2.330   3.641
 2734SOL    HW1 8230   0.675   2.377   3.658
 2734SOL    HW2 8231   0.575   2.258   3.710
 2735SOL     OW 8232   3.802   0.373   2.735
 2735SOL    HW1 8233   3.809   0.273   2.738
 2735SOL    HW2 8234   3.801   0.403   2.639
 2736SOL     OW 8235   4.496   4.604   3.923
 2736SOL    HW1 8236   4.448   4.561   3.847
 2736SOL    HW2 8237   4.444   4.683   3.957
 2737SOL     OW 8238   0.611   3.390   4.888
 2737SOL    HW1 8239   0.558   3.315   4.927
 2737SOL    HW2 8240   0.622   3.462   4.958
 2738SOL     OW 8241   3.098   3.031   1.844
 2738SOL    HW1 8242   3.146   3.034   1.756
 2738SOL    HW2 8243   3.162   3.006   1.916
 2739SOL     OW 8244   0.788   1.221   1.858
 2739SOL    HW1 8245   0.840   1.305   1.841
 2739SOL    HW2 8246   0.818   1.181   1.944
 2740SOL     OW 8247   2.587   4.243   1.588
 2740SOL    HW1 8248   2.604   4.183   1.510
 2740SOL    HW2 8249   2.500   4.218   1.630
 2741SOL     OW 8250   1.097   3.745   4.928
 2741SOL    HW1 8251   1.131   3.816   4.990
 2741SOL    HW2 8252   1.155   3.743   4.846
 2742SOL     OW 8253   2.731   2.337   3.452
 2742SOL    HW1 8254   2.713   2.362   3.547
 2742SOL    HW2 8255   2.830   2.322   3.440
 2743SOL     OW 8256   1.461   2.098   3.836
 2743SOL    HW1 8257   1.532   2.077   3.902
 2743SOL    HW2 8258   1.472   2.041   3.755
 2744SOL     OW 8259   2.867   1.011   1.571
 2744SOL    HW1 8260   2.806   0.978   1.499
 2744SOL    HW2 8261   2.910   0.934   1.617
 2745SOL     OW 8262   3.765   1.243   0.489
 2745SOL    HW1 8263   3.797   1.244   0.584
 2745SOL    HW2 8264   3.843   1.253   0.427
 2746SOL     OW 8265   4.487   0.975   1.380
 2746SOL    HW1 8266   4.572   0.937   1.414
 2746SOL    HW2 8267   4.428   0.901   1.346
 2747SOL     OW 8268   4.871   4.336   4.791
 2747SOL    HW1 8269   4.896   4.386   4.708
 2747SOL    HW2 8270   4.863   4.239   4.770
 2748SOL     OW 8271   4.609   2.521   4.120
 2748SOL    HW1 8272   4.547   2.527   4.198
 2748SOL    HW2 8273   4.619   2.426   4.092
 2749SOL     OW 8274   3.728   0.694   2.166
 2749SOL    HW1 8275   3.662   0.751   2.116
 2749SOL    HW2 8276   3.748   0.736   2.254
 2750SOL     OW 8277   3.753   4.760   2.348
 2750SOL    HW1 8278   3.716   4.763   2.255
 2750SOL    HW2 8279   3.689   4.802   2.412
 2751SOL     OW 8280   0.760   2.785   0.786
 2751SOL    HW1 8281   0.773   2.872   0.834
 2751SOL    HW2 8282   0.849   2.746   0.763
 2752SOL     OW 8283   4.528   1.622   3.827
 2752SOL    HW1 8284   4.556   1.593   3.735
 2752SOL    HW2 8285   4.428   1.625   3.833
 2753SOL     OW 8286   1.991   4.952   2.218
 2753SOL    HW1 8287   1.973   4.929   2.313
 2753SOL    HW2 8288   2.031   4.873   2.171
 2754SOL     OW 8289   4.124   2.572   1.480
 2754SOL    HW1 8290   4.182   2.495   1.506
 2754SOL    HW2 8291   4.114   2.633   1.559
 2755SOL     OW 8292   0.033   0.262   2.563
 2755SOL    HW1 8293   0.055   0.240   2.468
 2755SOL    HW2 8294   5.018   0.348   2.566
 2756SOL     OW 8295   3.731   4.130   3.946
 2756SOL    HW1 8296   3.807   4.099   4.002
 2756SOL    HW2 8297   3.761   4.142   3.851
 2757SOL     OW 8298   0.675   4.133   0.177
 2757SOL    HW1 8299   0.715   4.077   0.250
 2757SOL    HW2 8300   0.604   4.082   0.130
 2758SOL     OW 8301   1.068   2.906   4.461
 2758SOL    HW1 8302   1.033   2.995   4.431
 2758SOL    HW2 8303   1.073   2.844   4.384
 2759SOL     OW 8304   0.244   2.699   1.977
 2759SOL    HW1 8305   0.333   2.731   2.008
 2759SOL    HW2 8306   0.244   2.689   1.878
 2760SOL     OW 8307   4.185   4.742   1.986
 2760SOL    HW1 8308   4.150   4.722   1.895
 2760SOL    HW2 8309   4.155   4.671   2.050
 2761SOL     OW 8310   4.700   3.304   1.619
 2761SOL    HW1 8311   4.620   3.314   1.678
 2761SOL    HW2 8312   4.671   3.273   1.528
 2762SOL     OW 8313   2.469   2.983   0.269
 2762SOL    HW1 8314   2.530   3.061   0.286
 2762SOL    HW2 8315   2.504   2.930   0.192
 2763SOL     OW 8316   2.511   2.967   1.535
 2763SOL    HW1 8317   2.607   2.960   1.562
 2763SOL    HW2 8318   2.461   2.887   1.566
 2764SOL     OW 8319   2.906   0.738   0.298
 2764SOL    HW1 8320   2.907   0.759   0.396
 2764SOL    HW2 8321   2.828   0.783   0.255
 2765SOL     OW 8322   2.360   2.040   4.521
 2765SOL    HW1 8323   2.396   2.124   4.561
 2765SOL    HW2 8324   2.353   2.051   4.422
 2766SOL     OW 8325   2.154   0.763   1.748
 2766SOL    HW1 8326   2.099   0.844   1.727
 2766SOL    HW2 8327   2.236   0.790   1.797
 2767SOL     OW 8328   0.970   1.621   3.324
 2767SOL    HW1 8329   1.025   1.700   3.294
 2767SOL    HW2 8330   1.008   1.585   3.409
 2768SOL     OW 8331   3.362   1.061   4.860
 2768SOL    HW1 8332   3.392   1.118   4.936
 2768SOL    HW2 8333   3.439   1.008   4.825
 2769SOL     OW 8334   3.136   2.255   1.405
 2769SOL    HW1 8335   3.049   2.212   1.431
 2769SOL    HW2 8336   3.118   2.342   1.360
 2770SOL     OW 8337   1.422   1.412   3.395
 2770SOL    HW1 8338   1.369   1.347   3.340
 2770SOL    HW2 8339   1.363   1.454   3.463
 2771SOL     OW 8340   4.897   2.548   4.080
 2771SOL    HW1 8341   4.811   2.565   4.030
 2771SOL    HW2 8342   4.883   2.565   4.177
 2772SOL     OW 8343   4.784   1.530   0.864
 2772SOL    HW1 8344   4.742   1.458   0.809
 2772SOL    HW2 8345   4.742   1.531   0.954
 2773SOL     OW 8346   3.974   0.390   3.912
 2773SOL    HW1 8347   4.016   0.435   3.990
 2773SOL    HW2 8348   4.045   0.356   3.850
 2774SOL     OW 8349   3.129   0.267   3.311
 2774SOL    HW1 8350   3.038   0.228   3.307
 2774SOL    HW2 8351   3.185   0.231   3.236
 2775SOL     OW 8352   3.008   2.154   1.770
 2775SOL    HW1 8353   2.909   2.171   1.773
 2775SOL    HW2 8354   3.054   2.235   1.734
 2776SOL     OW 8355   3.328   1.725   4.927
 2776SOL    HW1 8356   3.361   1.663   4.856
 2776SOL    HW2 8357   3.286   1.671   5.000
 2777SOL     OW 8358   3.004   3.711   1.813
 2777SOL    HW1 8359   2.942   3.729   1.889
 2777SOL    HW2 8360   3.008   3.613   1.795
 2778SOL     OW 8361   2.181   0.334   3.732
 2778SOL    HW1 8362   2.130   0.335   3.818
 2778SOL    HW2 8363   2.151   0.410   3.675
 2779SOL     OW 8364   2.186   0.308   2.273
 2779SOL    HW1 8365   2.109   0.367   2.247
 2779SOL    HW2 8366   2.162   0.256   2.354
 2780SOL     OW 8367   0.658   3.661   1.231
 2780SOL    HW1 8368   0.575   3.678   1.177
 2780SOL    HW2 8369   0.634   3.608   1.313
 2781SOL     OW 8370   2.521   2.276   3.266
 2781SOL    HW1 8371   2.450   2.343   3.285
 2781SOL    HW2 8372   2.605   2.301   3.315
 2782SOL     OW 8373   0.859   3.585   2.146
 2782SOL    HW1 8374   0.905   3.517   2.089
 2782SOL    HW2 8375   0.819   3.656   2.088
 2783SOL     OW 8376   4.029   3.813   0.353
 2783SOL    HW1 8377   4.004   3.897   0.305
 2783SOL    HW2 8378   4.105   3.832   0.415
 2784SOL     OW 8379   2.918   1.517   1.546
 2784SOL    HW1 8380   2.953   1.608   1.526
 2784SOL    HW2 8381   2.989   1.464   1.594
 2785SOL     OW 8382   4.413   0.407   4.332
 2785SOL    HW1 8383   4.508   0.433   4.318
 2785SOL    HW2 8384   4.354   0.486   4.315
 2786SOL     OW 8385   3.591   1.420   4.023
 2786SOL    HW1 8386   3.554   1.379   3.939
 2786SOL    HW2 8387   3.516   1.454   4.079
 2787SOL     OW 8388   1.498   3.844   3.057
 2787SOL    HW1 8389   1.480   3.937   3.091
 2787SOL    HW2 8390   1.461   3.836   2.964
 2788SOL     OW 8391   2.207   4.178   1.462
 2788SOL    HW1 8392   2.282   4.208   1.520
 2788SOL    HW2 8393   2.205   4.078   1.459
 2789SOL     OW 8394   4.905   1.252   4.091
 2789SOL    HW1 8395   4.949   1.224   4.177
 2789SOL    HW2 8396   4.971   1.302   4.036
 2790SOL     OW 8397   4.899   0.454   1.192
 2790SOL    HW1 8398   4.993   0.423   1.176
 2790SOL    HW2 8399   4.896   0.510   1.275
 2791SOL     OW 8400   0.627   3.775   2.287
 2791SOL    HW1 8401   0.572   3.730   2.218
 2791SOL    HW2 8402   0.631   3.718   2.369
 2792SOL     OW 8403   3.212   4.137   0.970
 2792SOL    HW1 8404   3.256   4.223   0.991
 2792SOL    HW2 8405   3.129   4.127   1.025
 2793SOL     OW 8406   0.947   1.323   1.274
 2793SOL    HW1 8407   0.970   1.304   1.178
 2793SOL    HW2 8408   0.950   1.237   1.326
 2794SOL     OW 8409   3.680   0.921   4.260
 2794SOL    HW1 8410   3.721   1.012   4.252
 2794SOL    HW2 8411   3.609   0.922   4.331
 2795SOL     OW 8412   4.133   1.411   3.428
 2795SOL    HW1 8413   4.035   1.418   3.446
 2795SOL    HW2 8414   4.150   1.339   3.361
 2796SOL     OW 8415   4.151   2.101   3.866
 2796SOL    HW1 8416   4.190   2.078   3.777
 2796SOL    HW2 8417   4.053   2.118   3.856
 2797SOL     OW 8418   4.327   2.457   1.051
 2797SOL    HW1 8419   4.340   2.382   1.116
 2797SOL    HW2 8420   4.299   2.539   1.100
 2798SOL     OW 8421   3.299   0.910   2.153
 2798SOL    HW1 8422   3.303   0.819   2.113
 2798SOL    HW2 8423   3.204   0.941   2.157
 2799SOL     OW 8424   3.350   2.056   2.085
 2799SOL    HW1 8425   3.296   2.057   2.170
 2799SOL    HW2 8426   3.363   1.962   2.055
 2800SOL     OW 8427   1.042   1.004   3.757
 2800SOL    HW1 8428   1.079   0.983   3.847
 2800SOL    HW2 8429   1.072   0.935   3.691
 2801SOL     OW 8430   2.741   0.195   0.160
 2801SOL    HW1 8431   2.801   0.273   0.143
 2801SOL    HW2 8432   2.706   0.160   0.073
 2802SOL     OW 8433   4.056   3.585   3.180
 2802SOL    HW1 8434   4.058   3.684   3.176
 2802SOL    HW2 8435   3.984   3.550   3.120
 2803SOL     OW 8436   2.372   3.363   4.873
 2803SOL    HW1 8437   2.305   3.436   4.884
 2803SOL    HW2 8438   2.385   3.343   4.776
 2804SOL     OW 8439   4.373   4.675   1.514
 2804SOL    HW1 8440   4.463   4.635   1.532
 2804SOL    HW2 8441   4.322   4.680   1.600
 2805SOL     OW 8442   2.787   2.828   1.107
 2805SOL    HW1 8443   2.776   2.805   1.204
 2805SOL    HW2 8444   2.763   2.749   1.051
 2806SOL     OW 8445   4.213   3.465   1.603
 2806SOL    HW1 8446   4.285   3.421   1.550
 2806SOL    HW2 8447   4.190   3.408   1.682
 2807SOL     OW 8448   2.117   1.647   1.138
 2807SOL    HW1 8449   2.152   1.554   1.129
 2807SOL    HW2 8450   2.053   1.665   1.063
 2808SOL     OW 8451   4.468   4.831   1.954
 2808SOL    HW1 8452   4.371   4.834   1.929
 2808SOL    HW2 8453   4.515   4.763   1.897
 2809SOL     OW 8454   3.650   2.818   1.122
 2809SOL    HW1 8455   3.616   2.834   1.029
 2809SOL    HW2 8456   3.740   2.775   1.117
 2810SOL     OW 8457   4.001   2.494   1.244
 2810SOL    HW1 8458   4.021   2.554   1.322
 2810SOL    HW2 8459   4.046   2.406   1.257
 2811SOL     OW 8460   0.586   1.712   1.900
 2811SOL    HW1 8461   0.669   1.764   1.917
 2811SOL    HW2 8462   0.579   1.689   1.803
 2812SOL     OW 8463   1.333   0.417   1.096
 2812SOL    HW1 8464   1.305   0.349   1.027
 2812SOL    HW2 8465   1.257   0.480   1.112
 2813SOL     OW 8466   3.396   3.323   3.491
 2813SOL    HW1 8467   3.434   3.348   3.580
 2813SOL    HW2 8468   3.416   3.227   3.472
 2814SOL     OW 8469   2.376   1.292   3.717
 2814SOL    HW1 8470   2.431   1.316   3.797
 2814SOL    HW2 8471   2.299   1.235   3.744
 2815SOL     OW 8472   4.702   3.019   3.003
 2815SOL    HW1 8473   4.690   3.095   3.066
 2815SOL    HW2 8474   4.729   3.055   2.913
 2816SOL     OW 8475   3.615   3.857   1.968
 2816SOL    HW1 8476   3.685   3.853   1.896
 2816SOL    HW2 8477   3.628   3.780   2.031
 2817SOL     OW 8478   4.136   3.624   4.933
 2817SOL    HW1 8479   4.127   3.525   4.939
 2817SOL    HW2 8480   4.076   3.668   5.000
 2818SOL     OW 8481   1.935   3.872   0.121
 2818SOL    HW1 8482   1.912   3.841   0.029
 2818SOL    HW2 8483   2.022   3.832   0.149
 2819SOL     OW 8484   3.489   1.600   1.974
 2819SOL    HW1 8485   3.438   1.684   1.955
 2819SOL    HW2 8486   3.520   1.600   2.069
 2820SOL     OW 8487   0.750   4.472   3.197
 2820SOL    HW1 8488   0.704   4.466   3.108
 2820SOL    HW2 8489   0.722   4.394   3.254
 2821SOL     OW 8490   1.420   4.515   1.926
 2821SOL    HW1 8491   1.494   4.449   1.932
 2821SOL    HW2 8492   1.396   4.547   2.018
 2822SOL     OW 8493   1.123   3.581   2.895
 2822SOL    HW1 8494   1.201   3.584   2.957
 2822SOL    HW2 8495   1.153   3.555   2.803
 2823SOL     OW 8496   4.989   3.421   2.279
 2823SOL    HW1 8497   0.050   3.392   2.279
 2823SOL    HW2 8498   4.979   3.504   2.335
 2824SOL     OW 8499   0.300   4.236   4.643
 2824SOL    HW1 8500   0.381   4.212   4.589
 2824SOL    HW2 8501   0.310   4.198   4.735
 2825SOL     OW 8502   1.156   2.335   1.573
 2825SOL    HW1 8503   1.095   2.256   1.582
 2825SOL    HW2 8504   1.215   2.323   1.494
 2826SOL     OW 8505   4.697   1.099   0.548
 2826SOL    HW1 8506   4.790   1.133   0.558
 2826SOL    HW2 8507   4.654   1.141   0.469
 2827SOL     OW 8508   1.518   2.447   1.080
 2827SOL    HW1 8509   1.503   2.542   1.054
 2827SOL    HW2 8510   1.600   2.441   1.136
 2828SOL     OW 8511   2.592   0.512   4.037
 2828SOL    HW1 8512   2.670   0.451   4.051
 2828SOL    HW2 8513   2.580   0.570   4.117
 2829SOL     OW 8514   2.306   1.885   3.202
 2829SOL    HW1 8515   2.299   1.831   3.286
 2829SOL    HW2 8516   2.314   1.982   3.225
 2830SOL     OW 8517   0.029   1.059   1.956
 2830SOL    HW1 8518   5.014   1.139   1.922
 2830SOL    HW2 8519   5.006   1.008   2.020
 2831SOL     OW 8520   2.663   1.780   0.679
 2831SOL    HW1 8521   2.630   1.816   0.592
 2831SOL    HW2 8522   2.586   1.752   0.735
 2832SOL     OW 8523   1.308   0.536   4.595
 2832SOL    HW1 8524   1.407   0.540   4.583
 2832SOL    HW2 8525   1.279   0.440   4.603
 2833SOL     OW 8526   0.772   1.529   2.784
 2833SOL    HW1 8527   0.690   1.534   2.841
 2833SOL    HW2 8528   0.783   1.435   2.749
 2834SOL     OW 8529   3.272   4.340   2.426
 2834SOL    HW1 8530   3.295   4.349   2.329
 2834SOL    HW2 8531   3.217   4.257   2.439
 2835SOL     OW 8532   2.013   0.780   3.150
 2835SOL    HW1 8533   1.968   0.799   3.237
 2835SOL    HW2 8534   1.944   0.762   3.080
 2836SOL     OW 8535   0.473   4.836   1.765
 2836SOL    HW1 8536   0.486   4.821   1.667
 2836SOL    HW2 8537   0.446   4.931   1.781
 2837SOL     OW 8538   2.737   0.964   2.090
 2837SOL    HW1 8539   2.822   0.971   2.038
 2837SOL    HW2 8540   2.754   0.913   2.175
 2838SOL     OW 8541   0.809   4.857   2.123
 2838SOL    HW1 8542   0.747   4.872   2.200
 2838SOL    HW2 8543   0.760   4.813   2.048
 2839SOL     OW 8544   0.739   0.218   4.621
 2839SOL    HW1 8545   0.820   0.173   4.658
 2839SOL    HW2 8546   0.756   0.246   4.526
 2840SOL     OW 8547   2.765   2.021   0.089
 2840SOL    HW1 8548   2.692   2.083   0.060
 2840SOL    HW2 8549   2.832   2.072   0.144
 2841SOL     OW 8550   4.207   3.587   1.335
 2841SOL    HW1 8551   4.180   3.679   1.305
 2841SOL    HW2 8552   4.208   3.583   1.435
 2842SOL     OW 8553   0.511   4.773   4.722
 2842SOL    HW1 8554   0.545   4.722   4.801
 2842SOL    HW2 8555   0.556   4.740   4.639
 2843SOL     OW 8556   2.886   2.801   0.342
 2843SOL    HW1 8557   2.851   2.708   0.343
 2843SOL    HW2 8558   2.954   2.811   0.269
 2844SOL     OW 8559   3.112   3.122   3.239
 2844SOL    HW1 8560   3.155   3.077   3.318
 2844SOL    HW2 8561   3.077   3.052   3.177
 2845SOL     OW 8562   0.055   3.812   4.141
 2845SOL    HW1 8563   0.103   3.819   4.053
 2845SOL    HW2 8564   0.097   3.876   4.206
 2846SOL     OW 8565   0.761   0.252   0.510
 2846SOL    HW1 8566   0.809   0.305   0.580
 2846SOL    HW2 8567   0.676   0.215   0.548
 2847SOL     OW 8568   1.621   1.679   1.531
 2847SOL    HW1 8569   1.539   1.669   1.474
 2847SOL    HW2 8570   1.630   1.775   1.559
 2848SOL     OW 8571   4.350   3.598   2.894
 2848SOL    HW1 8572   4.317   3.693   2.886
 2848SOL    HW2 8573   4.318   3.546   2.815
 2849SOL     OW 8574   2.592   2.690   4.901
 2849SOL    HW1 8575   2.505   2.660   4.940
 2849SOL    HW2 8576   2.615   2.632   4.823
 2850SOL     OW 8577   2.173   1.732   2.074
 2850SOL    HW1 8578   2.202   1.804   2.011
 2850SOL    HW2 8579   2.151   1.649   2.022
 2851SOL     OW 8580   0.504   4.161   4.449
 2851SOL    HW1 8581   0.588   4.135   4.496
 2851SOL    HW2 8582   0.518   4.246   4.399
 2852SOL     OW 8583   3.515   1.547   2.926
 2852SOL    HW1 8584   3.518   1.455   2.887
 2852SOL    HW2 8585   3.474   1.543   3.017
 2853SOL     OW 8586   2.647   3.917   1.709
 2853SOL    HW1 8587   2.668   3.922   1.806
 2853SOL    HW2 8588   2.677   4.001   1.663
 2854SOL     OW 8589   0.257   2.699   0.635
 2854SOL    HW1 8590   0.209   2.682   0.549
 2854SOL    HW2 8591   0.325   2.771   0.620
 2855SOL     OW 8592   2.149   4.641   4.375
 2855SOL    HW1 8593   2.092   4.637   4.457
 2855SOL    HW2 8594   2.181   4.549   4.352
 2856SOL     OW 8595   3.734   4.386   4.975
 2856SOL    HW1 8596   3.816   4.356   4.926
 2856SOL    HW2 8597   3.653   4.358   4.925
 2857SOL     OW 8598   4.377   3.113   4.944
 2857SOL    HW1 8599   4.448   3.173   4.982
 2857SOL    HW2 8600   4.355   3.042   5.010
 2858SOL     OW 8601   2.679   2.948   1.847
 2858SOL    HW1 8602   2.752   3.009   1.818
 2858SOL    HW2 8603   2.638   2.984   1.931
 2859SOL     OW 8604   3.096   4.933   4.685
 2859SOL    HW1 8605   3.096   4.849   4.631
 2859SOL    HW2 8606   3.190   4.964   4.699
 2860SOL     OW 8607   1.868   0.502   4.377
 2860SOL    HW1 8608   1.867   0.601   4.361
 2860SOL    HW2 8609   1.779   0.473   4.413
 2861SOL     OW 8610   4.458   1.696   4.330
 2861SOL    HW1 8611   4.391   1.649   4.388
 2861SOL    HW2 8612   4.511   1.629   4.279
 2862SOL     OW 8613   0.654   1.818   1.466
 2862SOL    HW1 8614   0.729   1.772   1.419
 2862SOL    HW2 8615   0.650   1.914   1.437
 2863SOL     OW 8616   1.421   4.337   0.538
 2863SOL    HW1 8617   1.439   4.421   0.589
 2863SOL    HW2 8618   1.507   4.299   0.504
 2864SOL     OW 8619   1.473   2.057   2.990
 2864SOL    HW1 8620   1.406   2.033   2.920
 2864SOL    HW2 8621   1.438   2.031   3.080
 2865SOL     OW 8622   0.475   4.031   4.793
 2865SOL    HW1 8623   0.491   3.978   4.710
 2865SOL    HW2 8624   0.388   4.005   4.834
 2866SOL     OW 8625   0.765   2.651   0.023
 2866SOL    HW1 8626   0.840   2.596   5.022
 2866SOL    HW2 8627   0.746   2.624   0.117
 2867SOL     OW 8628   3.033   0.168   3.004
 2867SOL    HW1 8629   3.042   0.249   2.947
 2867SOL    HW2 8630   3.124   0.138   3.035
 2868SOL     OW 8631   2.449   4.386   3.203
 2868SOL    HW1 8632   2.542   4.397   3.169
 2868SOL    HW2 8633   2.414   4.297   3.174
 2869SOL     OW 8634   4.148   1.685   4.179
 2869SOL    HW1 8635   4.171   1.660   4.274
 2869SOL    HW2 8636   4.050   1.697   4.171
 2870SOL     OW 8637   4.467   0.764   4.726
 2870SOL    HW1 8638   4.370   0.741   4.725
 2870SOL    HW2 8639   4.490   0.811   4.811
 2871SOL     OW 8640   0.748   1.478   1.583
 2871SOL    HW1 8641   0.820   1.464   1.652
 2871SOL    HW2 8642   0.676   1.535   1.622
 2872SOL     OW 8643   4.195   2.382   4.396
 2872SOL    HW1 8644   4.266   2.375   4.325
 2872SOL    HW2 8645   4.182   2.292   4.439
 2873SOL     OW 8646   3.746   1.518   4.941
 2873SOL    HW1 8647   3.743   1.590   5.010
 2873SOL    HW2 8648   3.668   1.529   4.878
 2874SOL     OW 8649   4.103   2.407   0.554
 2874SOL    HW1 8650   4.053   2.469   0.614
 2874SOL    HW2 8651   4.050   2.323   0.540
 2875SOL     OW 8652   3.967   0.738   0.520
 2875SOL    HW1 8653   3.899   0.743   0.593
 2875SOL    HW2 8654   3.950   0.811   0.454
 2876SOL     OW 8655   2.418   1.932   2.104
 2876SOL    HW1 8656   2.350   1.968   2.041
 2876SOL    HW2 8657   2.374   1.875   2.173
 2877SOL     OW 8658   1.710   4.287   4.285
 2877SOL    HW1 8659   1.791   4.228   4.275
 2877SOL    HW2 8660   1.630   4.239   4.250
 2878SOL     OW 8661   4.240   0.870   4.242
 2878SOL    HW1 8662   4.299   0.950   4.251
 2878SOL    HW2 8663   4.150   0.898   4.208
 2879SOL     OW 8664   2.872   4.993   4.466
 2879SOL    HW1 8665   2.842   4.933   4.540
 2879SOL    HW2 8666   2.817   4.975   4.384
 2880SOL     OW 8667   0.424   2.854   0.475
 2880SOL    HW1 8668   0.399   2.774   0.419
 2880SOL    HW2 8669   0.522   2.854   0.491
 2881SOL     OW 8670   0.913   3.754   2.879
 2881SOL    HW1 8671   0.963   3.831   2.841
 2881SOL    HW2 8672   0.977   3.682   2.906
 2882SOL     OW 8673   2.174   1.482   2.874
 2882SOL    HW1 8674   2.144   1.534   2.793
 2882SOL    HW2 8675   2.254   1.528   2.914
 2883SOL     OW 8676   3.092   1.433   3.368
 2883SOL    HW1 8677   3.140   1.466   3.286
 2883SOL    HW2 8678   3.005   1.393   3.342
 2884SOL     OW 8679   2.190   0.350   3.297
 2884SOL    HW1 8680   2.160   0.425   3.238
 2884SOL    HW2 8681   2.128   0.343   3.376
 2885SOL     OW 8682   4.562   2.374   4.432
 2885SOL    HW1 8683   4.502   2.419   4.498
 2885SOL    HW2 8684   4.511   2.355   4.348
 2886SOL     OW 8685   1.189   0.219   3.147
 2886SOL    HW1 8686   1.172   0.302   3.199
 2886SOL    HW2 8687   1.248   0.158   3.200
 2887SOL     OW 8688   1.304   0.834   3.190
 2887SOL    HW1 8689   1.212   0.840   3.230
 2887SOL    HW2 8690   1.369   0.881   3.250
 2888SOL     OW 8691   2.959   3.342   4.512
 2888SOL    HW1 8692   2.863   3.356   4.488
 2888SOL    HW2 8693   3.006   3.297   4.436
 2889SOL     OW 8694   1.391   4.360   1.700
 2889SOL    HW1 8695   1.383   4.397   1.793
 2889SOL    HW2 8696   1.410   4.435   1.636
 2890SOL     OW 8697   4.155   0.575   0.418
 2890SOL    HW1 8698   4.114   0.549   0.330
 2890SOL    HW2 8699   4.085   0.616   0.476
 2891SOL     OW 8700   2.795   4.019   3.861
 2891SOL    HW1 8701   2.884   4.030   3.906
 2891SOL    HW2 8702   2.722   4.037   3.928
 2892SOL     OW 8703   0.291   3.145   4.091
 2892SOL    HW1 8704   0.212   3.161   4.032
 2892SOL    HW2 8705   0.333   3.233   4.116
 2893SOL     OW 8706   4.583   2.630   1.156
 2893SOL    HW1 8707   4.508   2.627   1.222
 2893SOL    HW2 8708   4.568   2.563   1.084
 2894SOL     OW 8709   3.160   4.694   4.567
 2894SOL    HW1 8710   3.127   4.618   4.622
 2894SOL    HW2 8711   3.246   4.669   4.523
 2895SOL     OW 8712   1.420   0.114   3.015
 2895SOL    HW1 8713   1.330   0.153   3.037
 2895SOL    HW2 8714   1.436   0.121   2.916
 2896SOL     OW 8715   2.112   1.905   3.439
 2896SOL    HW1 8716   2.048   1.944   3.505
 2896SOL    HW2 8717   2.064   1.881   3.355
 2897SOL     OW 8718   0.287   0.048   0.353
 2897SOL    HW1 8719   0.377   0.046   0.308
 2897SOL    HW2 8720   0.221   0.094   0.293
 2898SOL     OW 8721   4.754   1.929   0.902
 2898SOL    HW1 8722   4.801   1.840   0.903
 2898SOL    HW2 8723   4.736   1.956   0.808
 2899SOL     OW 8724   1.944   4.436   1.760
 2899SOL    HW1 8725   1.990   4.404   1.842
 2899SOL    HW2 8726   1.899   4.359   1.714
 2900SOL     OW 8727   3.427   4.885   0.646
 2900SOL    HW1 8728   3.407   4.838   0.560
 2900SOL    HW2 8729   3.342   4.922   0.684
 2901SOL     OW 8730   4.589   0.543   3.201
 2901SOL    HW1 8731   4.569   0.556   3.299
 2901SOL    HW2 8732   4.670   0.596   3.177
 2902SOL     OW 8733   0.615   1.505   0.014
 2902SOL    HW1 8734   0.658   1.586   5.008
 2902SOL    HW2 8735   0.516   1.519   0.019
 2903SOL     OW 8736   4.191   4.856   4.416
 2903SOL    HW1 8737   4.159   4.833   4.508
 2903SOL    HW2 8738   4.114   4.886   4.360
 2904SOL     OW 8739   3.560   4.750   0.835
 2904SOL    HW1 8740   3.532   4.804   0.755
 2904SOL    HW2 8741   3.491   4.759   0.907
 2905SOL     OW 8742   0.070   4.647   2.920
 2905SOL    HW1 8743   0.078   4.694   2.832
 2905SOL    HW2 8744   0.091   4.550   2.908
 2906SOL     OW 8745   4.410   0.564   0.767
 2906SOL    HW1 8746   4.410   0.519   0.856
 2906SOL    HW2 8747   4.471   0.643   0.769
 2907SOL     OW 8748   3.276   1.441   4.008
 2907SOL    HW1 8749   3.264   1.540   4.018
 2907SOL    HW2 8750   3.215   1.408   3.936
 2908SOL     OW 8751   0.243   1.511   2.979
 2908SOL    HW1 8752   0.208   1.586   2.923
 2908SOL    HW2 8753   0.176   1.436   2.979
 2909SOL     OW 8754   2.838   1.512   4.099
 2909SOL    HW1 8755   2.765   1.444   4.103
 2909SOL    HW2 8756   2.924   1.470   4.127
 2910SOL     OW 8757   2.152   4.518   2.107
 2910SOL    HW1 8758   2.211   4.532   2.186
 2910SOL    HW2 8759   2.156   4.598   2.048
 2911SOL     OW 8760   1.307   1.740   2.941
 2911SOL    HW1 8761   1.247   1.814   2.912
 2911SOL    HW2 8762   1.254   1.656   2.952
 2912SOL     OW 8763   4.750   2.083   1.919
 2912SOL    HW1 8764   4.777   2.013   1.853
 2912SOL    HW2 8765   4.827   2.143   1.937
 2913SOL     OW 8766   3.339   4.876   2.731
 2913SOL    HW1 8767   3.287   4.853   2.814
 2913SOL    HW2 8768   3.294   4.835   2.652
 2914SOL     OW 8769   1.151   0.538   3.373
 2914SOL    HW1 8770   1.077   0.482   3.334
 2914SOL    HW2 8771   1.130   0.558   3.468
 2915SOL     OW 8772   2.513   3.839   3.151
 2915SOL    HW1 8773   2.504   3.933   3.120
 2915SOL    HW2 8774   2.572   3.789   3.088
 2916SOL     OW 8775   3.837   2.618   1.992
 2916SOL    HW1 8776   3.744   2.642   1.965
 2916SOL    HW2 8777   3.835   2.550   2.065
 2917SOL     OW 8778   0.154   1.504   1.367
 2917SOL    HW1 8779   0.121   1.495   1.461
 2917SOL    HW2 8780   0.246   1.464   1.361
 2918SOL     OW 8781   3.385   1.174   0.694
 2918SOL    HW1 8782   3.350   1.139   0.607
 2918SOL    HW2 8783   3.308   1.199   0.753
 2919SOL     OW 8784   2.735   3.583   1.715
 2919SOL    HW1 8785   2.758   3.536   1.800
 2919SOL    HW2 8786   2.739   3.682   1.729
 2920SOL     OW 8787   2.624   4.132   3.416
 2920SOL    HW1 8788   2.642   4.144   3.514
 2920SOL    HW2 8789   2.528   4.109   3.403
 2921SOL     OW 8790   4.348   4.698   3.034
 2921SOL    HW1 8791   4.376   4.632   2.965
 2921SOL    HW2 8792   4.405   4.688   3.116
 2922SOL     OW 8793   4.577   0.809   0.591
 2922SOL    HW1 8794   4.564   0.867   0.672
 2922SOL    HW2 8795   4.614   0.864   0.516
 2923SOL     OW 8796   4.766   0.539   1.443
 2923SOL    HW1 8797   4.783   0.629   1.485
 2923SOL    HW2 8798   4.825   0.471   1.486
 2924SOL     OW 8799   1.070   0.518   4.408
 2924SOL    HW1 8800   1.077   0.440   4.346
 2924SOL    HW2 8801   1.108   0.493   4.497
 2925SOL     OW 8802   2.278   2.319   4.632
 2925SOL    HW1 8803   2.205   2.380   4.664
 2925SOL    HW2 8804   2.354   2.321   4.696
 2926SOL     OW 8805   3.725   4.535   4.324
 2926SOL    HW1 8806   3.712   4.437   4.308
 2926SOL    HW2 8807   3.698   4.556   4.418
 2927SOL     OW 8808   0.116   2.801   1.643
 2927SOL    HW1 8809   0.179   2.878   1.635
 2927SOL    HW2 8810   0.058   2.813   1.724
 2928SOL     OW 8811   2.920   1.531   2.153
 2928SOL    HW1 8812   2.834   1.528   2.204
 2928SOL    HW2 8813   2.995   1.555   2.216
 2929SOL     OW 8814   2.145   3.265   3.999
 2929SOL    HW1 8815   2.088   3.236   3.923
 2929SOL    HW2 8816   2.087   3.290   4.077
 2930SOL     OW 8817   2.156   4.491   2.415
 2930SOL    HW1 8818   2.067   4.534   2.405
 2930SOL    HW2 8819   2.219   4.554   2.461
 2931SOL     OW 8820   2.403   0.083   3.404
 2931SOL    HW1 8821   2.311   0.059   3.434
 2931SOL    HW2 8822   2.439   0.156   3.461
 2932SOL     OW 8823   2.822   1.547   2.426
 2932SOL    HW1 8824   2.901   1.527   2.484
 2932SOL    HW2 8825   2.754   1.474   2.437
 2933SOL     OW 8826   3.251   3.895   3.268
 2933SOL    HW1 8827   3.255   3.812   3.212
 2933SOL    HW2 8828   3.323   3.891   3.338
 2934SOL     OW 8829   0.347   0.789   3.546
 2934SOL    HW1 8830   0.342   0.776   3.447
 2934SOL    HW2 8831   0.265   0.751   3.588
 2935SOL     OW 8832   1.275   1.838   2.014
 2935SOL    HW1 8833   1.249   1.781   1.936
 2935SOL    HW2 8834   1.266   1.786   2.099
 2936SOL     OW 8835   3.614   4.836   0.049
 2936SOL    HW1 8836   3.611   4.822   0.148
 2936SOL    HW2 8837   3.521   4.849   0.014
 2937SOL     OW 8838   2.025   3.990   3.698
 2937SOL    HW1 8839   2.085   3.912   3.684
 2937SOL    HW2 8840   1.980   4.014   3.612
 2938SOL     OW 8841   3.519   2.530   0.420
 2938SOL    HW1 8842   3.547   2.439   0.450
 2938SOL    HW2 8843   3.507   2.530   0.321
 2939SOL     OW 8844   1.322   3.618   1.102
 2939SOL    HW1 8845   1.261   3.544   1.130
 2939SOL    HW2 8846   1.303   3.642   1.006
 2940SOL     OW 8847   4.845   3.259   0.614
 2940SOL    HW1 8848   4.921   3.211   0.571
 2940SOL    HW2 8849   4.790   3.304   0.544
 2941SOL     OW 8850   0.881   4.284   2.219
 2941SOL    HW1 8851   0.937   4.356   2.258
 2941SOL    HW2 8852   0.933   4.236   2.148
 2942SOL     OW 8853   4.947   4.479   3.083
 2942SOL    HW1 8854   5.005   4.554   3.053
 2942SOL    HW2 8855   4.986   4.437   3.165
 2943SOL     OW 8856   4.575   1.358   3.346
 2943SOL    HW1 8857   4.591   1.301   3.265
 2943SOL    HW2 8858   4.591   1.304   3.428
 2944SOL     OW 8859   2.194   3.503   3.661
 2944SOL    HW1 8860   2.131   3.493   3.584
 2944SOL    HW2 8861   2.143   3.530   3.742
 2945SOL     OW 8862   3.973   4.811   0.681
 2945SOL    HW1 8863   3.989   4.899   0.635
 2945SOL    HW2 8864   4.054   4.785   0.733
 2946SOL     OW 8865   2.537   3.835   1.080
 2946SOL    HW1 8866   2.595   3.756   1.098
 2946SOL    HW2 8867   2.533   3.852   0.982
 2947SOL     OW 8868   1.449   2.063   0.577
 2947SOL    HW1 8869   1.502   2.031   0.498
 2947SOL    HW2 8870   1.363   2.104   0.544
 2948SOL     OW 8871   3.012   1.790   3.711
 2948SOL    HW1 8872   3.027   1.728   3.788
 2948SOL    HW2 8873   2.944   1.751   3.649
 2949SOL     OW 8874   0.188   0.561   0.298
 2949SOL    HW1 8875   0.178   0.607   0.386
 2949SOL    HW2 8876   0.264   0.602   0.247
 2950SOL     OW 8877   1.220   2.197   0.962
 2950SOL    HW1 8878   1.293   2.193   0.894
 2950SOL    HW2 8879   1.248   2.258   1.036
 2951SOL     OW 8880   2.211   3.778   3.713
 2951SOL    HW1 8881   2.286   3.823   3.761
 2951SOL    HW2 8882   2.236   3.684   3.693
 2952SOL     OW 8883   0.454   1.434   3.390
 2952SOL    HW1 8884   0.428   1.530   3.404
 2952SOL    HW2 8885   0.494   1.398   3.474
 2953SOL     OW 8886   2.376   1.543   1.952
 2953SOL    HW1 8887   2.303   1.491   1.997
 2953SOL    HW2 8888   2.336   1.601   1.881
 2954SOL     OW 8889   4.096   4.937   1.187
 2954SOL    HW1 8890   4.107   4.842   1.216
 2954SOL    HW2 8891   4.180   4.987   1.204
 2955SOL     OW 8892   1.033   3.957   3.674
 2955SOL    HW1 8893   1.049   4.047   3.714
 2955SOL    HW2 8894   1.021   3.967   3.575
 2956SOL     OW 8895   3.001   3.016   4.331
 2956SOL    HW1 8896   2.908   3.036   4.300
 2956SOL    HW2 8897   3.003   3.020   4.431
 2957SOL     OW 8898   4.343   4.604   3.462
 2957SOL    HW1 8899   4.375   4.510   3.470
 2957SOL    HW2 8900   4.295   4.631   3.546
 2958SOL     OW 8901   0.721   0.640   1.485
 2958SOL    HW1 8902   0.784   0.588   1.429
 2958SOL    HW2 8903   0.633   0.593   1.489
 2959SOL     OW 8904   1.772   1.821   0.417
 2959SOL    HW1 8905   1.820   1.838   0.503
 2959SOL    HW2 8906   1.722   1.903   0.389
 2960SOL     OW 8907   2.114   2.798   0.083
 2960SOL    HW1 8908   2.136   2.777   0.179
 2960SOL    HW2 8909   2.198   2.807   0.030
 2961SOL     OW 8910   2.769   4.371   3.332
 2961SOL    HW1 8911   2.727   4.281   3.317
 2961SOL    HW2 8912   2.847   4.362   3.394
 2962SOL     OW 8913   4.430   2.635   1.390
 2962SOL    HW1 8914   4.515   2.677   1.422
 2962SOL    HW2 8915   4.360   2.646   1.461
 2963SOL     OW 8916   1.095   4.511   1.897
 2963SOL    HW1 8917   1.169   4.552   1.844
 2963SOL    HW2 8918   1.028   4.470   1.834
 2964SOL     OW 8919   1.311   3.334   2.319
 2964SOL    HW1 8920   1.272   3.243   2.333
 2964SOL    HW2 8921   1.251   3.402   2.360
 2965SOL     OW 8922   0.645   2.974   3.394
 2965SOL    HW1 8923   0.578   3.006   3.327
 2965SOL    HW2 8924   0.715   2.920   3.348
 2966SOL     OW 8925   1.642   3.966   1.230
 2966SOL    HW1 8926   1.548   3.949   1.200
 2966SOL    HW2 8927   1.661   4.064   1.227
 2967SOL     OW 8928   4.795   4.105   1.317
 2967SOL    HW1 8929   4.889   4.078   1.296
 2967SOL    HW2 8930   4.754   4.149   1.237
 2968SOL     OW 8931   0.826   2.584   1.802
 2968SOL    HW1 8932   0.806   2.624   1.891
 2968SOL    HW2 8933   0.804   2.650   1.730
 2969SOL     OW 8934   0.584   3.209   1.069
 2969SOL    HW1 8935   0.614   3.255   0.985
 2969SOL    HW2 8936   0.537   3.124   1.045
 2970SOL     OW 8937   0.401   3.714   2.506
 2970SOL    HW1 8938   0.330   3.758   2.451
 2970SOL    HW2 8939   0.358   3.660   2.579
 2971SOL     OW 8940   1.485   0.086   0.418
 2971SOL    HW1 8941   1.396   0.041   0.425
 2971SOL    HW2 8942   1.557   0.022   0.445
 2972SOL     OW 8943   1.017   3.144   3.165
 2972SOL    HW1 8944   1.070   3.185   3.091
 2972SOL    HW2 8945   0.973   3.060   3.132
 2973SOL     OW 8946   3.534   0.321   4.717
 2973SOL    HW1 8947   3.435   0.320   4.731
 2973SOL    HW2 8948   3.555   0.304   4.620
 2974SOL     OW 8949   4.955   2.603   1.061
 2974SOL    HW1 8950   4.928   2.649   1.145
 2974SOL    HW2 8951   4.947   2.666   0.984
 2975SOL     OW 8952   3.778   4.424   0.266
 2975SOL    HW1 8953   3.810   4.378   0.349
 2975SOL    HW2 8954   3.855   4.433   0.202
 2976SOL     OW 8955   4.153   0.735   3.143
 2976SOL    HW1 8956   4.148   0.641   3.111
 2976SOL    HW2 8957   4.086   0.749   3.217
 2977SOL     OW 8958   2.668   2.085   2.389
 2977SOL    HW1 8959   2.622   2.158   2.339
 2977SOL    HW2 8960   2.605   2.044   2.455
 2978SOL     OW 8961   2.792   3.303   3.724
 2978SOL    HW1 8962   2.704   3.317   3.770
 2978SOL    HW2 8963   2.797   3.209   3.692
 2979SOL     OW 8964   2.617   3.710   2.001
 2979SOL    HW1 8965   2.707   3.716   2.043
 2979SOL    HW2 8966   2.600   3.616   1.970
 2980SOL     OW 8967   4.676   2.478   1.575
 2980SOL    HW1 8968   4.674   2.537   1.656
 2980SOL    HW2 8969   4.585   2.441   1.557
 2981SOL     OW 8970   1.672   0.715   4.228
 2981SOL    HW1 8971   1.597   0.775   4.199
 2981SOL    HW2 8972   1.695   0.734   4.323
 2982SOL     OW 8973   4.578   2.303   0.208
 2982SOL    HW1 8974   4.533   2.232   0.153
 2982SOL    HW2 8975   4.588   2.386   0.153
 2983SOL     OW 8976   0.437   0.563   3.931
 2983SOL    HW1 8977   0.375   0.503   3.982
 2983SOL    HW2 8978   0.492   0.616   3.994
 2984SOL     OW 8979   4.578   0.761   2.114
 2984SOL    HW1 8980   4.638   0.736   2.190
 2984SOL    HW2 8981   4.483   0.750   2.142
 2985SOL     OW 8982   3.153   4.429   0.149
 2985SOL    HW1 8983   3.167   4.527   0.136
 2985SOL    HW2 8984   3.057   4.407   0.130
 2986SOL     OW 8985   0.775   3.660   0.988
 2986SOL    HW1 8986   0.873   3.682   0.986
 2986SOL    HW2 8987   0.737   3.683   1.077
 2987SOL     OW 8988   3.621   1.148   0.275
 2987SOL    HW1 8989   3.523   1.155   0.292
 2987SOL    HW2 8990   3.672   1.171   0.358
 2988SOL     OW 8991   4.270   0.410   2.700
 2988SOL    HW1 8992   4.298   0.327   2.652
 2988SOL    HW2 8993   4.220   0.470   2.638
 2989SOL     OW 8994   2.303   0.124   1.104
 2989SOL    HW1 8995   2.331   0.078   1.019
 2989SOL    HW2 8996   2.206   0.149   1.099
 2990SOL     OW 8997   3.102   3.289   0.304
 2990SOL    HW1 8998   3.153   3.374   0.321
 2990SOL    HW2 8999   3.127   3.253   0.214
 2991SOL     OW 9000   4.944   2.848   2.670
 2991SOL    HW1 9001   0.006   2.871   2.664
 2991SOL    HW2 9002   4.933   2.762   2.721
 2992SOL     OW 9003   0.494   0.488   1.476
 2992SOL    HW1 9004   0.483   0.389   1.480
 2992SOL    HW2 9005   0.451   0.529   1.557
 2993SOL     OW 9006   2.607   3.383   4.652
 2993SOL    HW1 9007   2.670   3.459   4.635
 2993SOL    HW2 9008   2.609   3.359   4.749
 2994SOL     OW 9009   1.899   1.602   3.535
 2994SOL    HW1 9010   1.822   1.572   3.479
 2994SOL    HW2 9011   1.921   1.532   3.603
 2995SOL     OW 9012   0.043   4.215   4.560
 2995SOL    HW1 9013   0.016   4.311   4.550
 2995SOL    HW2 9014   0.138   4.211   4.592
 2996SOL     OW 9015   3.312   1.687   4.223
 2996SOL    HW1 9016   3.375   1.611   4.242
 2996SOL    HW2 9017   3.362   1.762   4.181
 2997SOL     OW 9018   1.853   3.558   0.637
 2997SOL    HW1 9019   1.950   3.545   0.620
 2997SOL    HW2 9020   1.807   3.470   0.636
 2998SOL     OW 9021   0.639   1.852   0.690
 2998SOL    HW1 9022   0.599   1.778   0.744
 2998SOL    HW2 9023   0.566   1.908   0.652
 2999SOL     OW 9024   2.665   3.587   1.153
 2999SOL    HW1 9025   2.606   3.562   1.230
 2999SOL    HW2 9026   2.681   3.507   1.096
 3000SOL     OW 9027   0.512   0.333   2.320
 3000SOL    HW1 9028   0.552   0.414   2.364
 3000SOL    HW2 9029   0.524   0.339   2.221
 3001SOL     OW 9030   0.492   0.736   2.861
 3001SOL    HW1 9031   0.551   0.752   2.781
 3001SOL    HW2 9032   0.537   0.772   2.943
 3002SOL     OW 9033   4.119   0.106   1.436
 3002SOL    HW1 9034   4.094   0.009   1.439
 3002SOL    HW2 9035   4.204   0.117   1.384
 3003SOL     OW 9036   0.848   3.466   0.583
 3003SOL    HW1 9037   0.909   3.495   0.509
 3003SOL    HW2 9038   0.895   3.399   0.640
 3004SOL     OW 9039   2.105   0.323   1.051
 3004SOL    HW1 9040   2.201   0.322   1.023
 3004SOL    HW2 9041   2.062   0.407   1.020
 3005SOL     OW 9042   2.216   1.468   3.567
 3005SOL    HW1 9043   2.133   1.423   3.534
 3005SOL    HW2 9044   2.265   1.406   3.628
 3006SOL     OW 9045   2.403   1.517   2.319
 3006SOL    HW1 9046   2.307   1.543   2.330
 3006SOL    HW2 9047   2.447   1.517   2.409
 3007SOL     OW 9048   4.789   3.129   0.309
 3007SOL    HW1 9049   4.809   3.055   0.244
 3007SOL    HW2 9050   4.699   3.114   0.350
 3008SOL     OW 9051   2.126   2.022   4.712
 3008SOL    HW1 9052   2.192   2.064   4.650
 3008SOL    HW2 9053   2.174   1.960   4.774
 3009SOL     OW 9054   1.219   4.569   1.239
 3009SOL    HW1 9055   1.309   4.526   1.248
 3009SOL    HW2 9056   1.194   4.611   1.326
 3010SOL     OW 9057   4.067   1.706   3.770
 3010SOL    HW1 9058   4.086   1.619   3.724
 3010SOL    HW2 9059   4.152   1.753   3.790
 3011SOL     OW 9060   1.583   1.833   4.189
 3011SOL    HW1 9061   1.533   1.747   4.189
 3011SOL    HW2 9062   1.526   1.905   4.150
 3012SOL     OW 9063   3.047   2.915   3.808
 3012SOL    HW1 9064   3.039   2.838   3.744
 3012SOL    HW2 9065   3.109   2.891   3.882
 3013SOL     OW 9066   2.590   4.565   3.408
 3013SOL    HW1 9067   2.647   4.489   3.378
 3013SOL    HW2 9068   2.608   4.645   3.351
 3014SOL     OW 9069   1.044   1.241   3.458
 3014SOL    HW1 9070   1.028   1.204   3.550
 3014SOL    HW2 9071   1.134   1.213   3.426
 3015SOL     OW 9072   0.190   3.880   3.144
 3015SOL    HW1 9073   0.129   3.948   3.183
 3015SOL    HW2 9074   0.284   3.899   3.172
 3016SOL     OW 9075   0.061   2.915   3.136
 3016SOL    HW1 9076   5.001   2.888   3.121
 3016SOL    HW2 9077   0.064   3.010   3.166
 3017SOL     OW 9078   1.634   3.685   2.115
 3017SOL    HW1 9079   1.606   3.619   2.045
 3017SOL    HW2 9080   1.718   3.651   2.159
 3018SOL     OW 9081   4.792   2.812   3.313
 3018SOL    HW1 9082   4.781   2.769   3.224
 3018SOL    HW2 9083   4.815   2.909   3.301
 3019SOL     OW 9084   3.035   3.976   1.624
 3019SOL    HW1 9085   3.085   3.982   1.711
 3019SOL    HW2 9086   3.096   4.003   1.549
 3020SOL     OW 9087   3.034   1.213   1.466
 3020SOL    HW1 9088   3.072   1.141   1.409
 3020SOL    HW2 9089   2.973   1.173   1.534
 3021SOL     OW 9090   1.486   0.153   2.094
 3021SOL    HW1 9091   1.560   0.194   2.147
 3021SOL    HW2 9092   1.507   0.058   2.074
 3022SOL     OW 9093   1.806   0.110   2.458
 3022SOL    HW1 9094   1.724   0.072   2.500
 3022SOL    HW2 9095   1.782   0.149   2.369
 3023SOL     OW 9096   2.858   0.821   0.567
 3023SOL    HW1 9097   2.949   0.815   0.610
 3023SOL    HW2 9098   2.828   0.917   0.568
 3024SOL     OW 9099   2.866   0.695   1.976
 3024SOL    HW1 9100   2.791   0.640   2.013
 3024SOL    HW2 9101   2.937   0.704   2.045
 3025SOL     OW 9102   3.425   4.691   1.854
 3025SOL    HW1 9103   3.464   4.600   1.867
 3025SOL    HW2 9104   3.339   4.683   1.803
 3026SOL     OW 9105   2.335   0.896   1.962
 3026SOL    HW1 9106   2.255   0.956   1.966
 3026SOL    HW2 9107   2.396   0.926   1.889
 3027SOL     OW 9108   3.822   4.092   3.422
 3027SOL    HW1 9109   3.776   4.053   3.341
 3027SOL    HW2 9110   3.869   4.176   3.396
 3028SOL     OW 9111   3.772   0.877   2.356
 3028SOL    HW1 9112   3.837   0.932   2.305
 3028SOL    HW2 9113   3.790   0.885   2.454
 3029SOL     OW 9114   1.848   0.325   2.630
 3029SOL    HW1 9115   1.838   0.392   2.556
 3029SOL    HW2 9116   1.834   0.233   2.592
 3030SOL     OW 9117   0.272   0.255   3.127
 3030SOL    HW1 9118   0.294   0.257   3.224
 3030SOL    HW2 9119   0.173   0.268   3.115
 3031SOL     OW 9120   3.830   3.211   3.182
 3031SOL    HW1 9121   3.757   3.247   3.241
 3031SOL    HW2 9122   3.899   3.165   3.238
 3032SOL     OW 9123   1.847   3.124   2.191
 3032SOL    HW1 9124   1.788   3.138   2.111
 3032SOL    HW2 9125   1.791   3.121   2.274
 3033SOL     OW 9126   4.421   4.557   2.299
 3033SOL    HW1 9127   4.349   4.623   2.322
 3033SOL    HW2 9128   4.497   4.567   2.363
 3034SOL     OW 9129   0.275   3.021   1.621
 3034SOL    HW1 9130   0.248   3.113   1.650
 3034SOL    HW2 9131   0.302   3.023   1.525
 3035SOL     OW 9132   4.753   4.035   4.125
 3035SOL    HW1 9133   4.785   4.083   4.207
 3035SOL    HW2 9134   4.663   3.996   4.143
 3036SOL     OW 9135   0.651   4.535   2.256
 3036SOL    HW1 9136   0.657   4.616   2.197
 3036SOL    HW2 9137   0.649   4.453   2.200
 3037SOL     OW 9138   0.131   0.427   1.168
 3037SOL    HW1 9139   0.116   0.515   1.123
 3037SOL    HW2 9140   0.224   0.395   1.149
 3038SOL     OW 9141   4.648   0.782   2.615
 3038SOL    HW1 9142   4.550   0.763   2.610
 3038SOL    HW2 9143   4.686   0.740   2.697
 3039SOL     OW 9144   0.133   4.750   1.154
 3039SOL    HW1 9145   0.062   4.685   1.181
 3039SOL    HW2 9146   0.199   4.760   1.229
 3040SOL     OW 9147   3.015   4.158   2.528
 3040SOL    HW1 9148   2.999   4.163   2.429
 3040SOL    HW2 9149   2.943   4.209   2.576
 3041SOL     OW 9150   2.819   1.353   2.765
 3041SOL    HW1 9151   2.752   1.284   2.739
 3041SOL    HW2 9152   2.787   1.401   2.847
 3042SOL     OW 9153   2.868   1.574   0.445
 3042SOL    HW1 9154   2.964   1.601   0.440
 3042SOL    HW2 9155   2.842   1.562   0.541
 3043SOL     OW 9156   4.410   2.413   1.598
 3043SOL    HW1 9157   4.392   2.315   1.608
 3043SOL    HW2 9158   4.355   2.464   1.663
 3044SOL     OW 9159   5.006   0.359   1.781
 3044SOL    HW1 9160   4.991   0.261   1.765
 3044SOL    HW2 9161   4.917   0.403   1.796
 3045SOL     OW 9162   4.327   0.770   1.312
 3045SOL    HW1 9163   4.290   0.753   1.221
 3045SOL    HW2 9164   4.260   0.741   1.381
 3046SOL     OW 9165   4.635   4.129   1.084
 3046SOL    HW1 9166   4.641   4.060   1.011
 3046SOL    HW2 9167   4.569   4.099   1.153
 3047SOL     OW 9168   1.401   4.092   1.382
 3047SOL    HW1 9169   1.482   4.129   1.427
 3047SOL    HW2 9170   1.405   4.110   1.284
 3048SOL     OW 9171   4.499   4.039   0.643
 3048SOL    HW1 9172   4.526   4.131   0.614
 3048SOL    HW2 9173   4.429   4.004   0.581
 3049SOL     OW 9174   3.703   0.717   0.627
 3049SOL    HW1 9175   3.637   0.742   0.699
 3049SOL    HW2 9176   3.653   0.680   0.549
 3050SOL     OW 9177   4.901   4.922   4.032
 3050SOL    HW1 9178   4.840   4.863   3.980
 3050SOL    HW2 9179   4.931   4.874   4.115
 3051SOL     OW 9180   4.601   3.225   3.162
 3051SOL    HW1 9181   4.573   3.288   3.234
 3051SOL    HW2 9182   4.554   3.250   3.077
 3052SOL     OW 9183   3.708   0.431   3.452
 3052SOL    HW1 9184   3.752   0.345   3.428
 3052SOL    HW2 9185   3.729   0.454   3.547
 3053SOL     OW 9186   0.479   3.066   0.259
 3053SOL    HW1 9187   0.531   2.985   0.228
 3053SOL    HW2 9188   0.543   3.141   0.276
 3054SOL     OW 9189   1.137   0.301   4.592
 3054SOL    HW1 9190   1.076   0.241   4.540
 3054SOL    HW2 9191   1.108   0.302   4.688
 3055SOL     OW 9192   0.561   3.283   3.404
 3055SOL    HW1 9193   0.591   3.243   3.490
 3055SOL    HW2 9194   0.637   3.284   3.339
 3056SOL     OW 9195   0.606   2.241   0.451
 3056SOL    HW1 9196   0.533   2.269   0.388
 3056SOL    HW2 9197   0.566   2.200   0.533
 3057SOL     OW 9198   0.554   3.894   4.558
 3057SOL    HW1 9199   0.491   3.941   4.496
 3057SOL    HW2 9200   0.646   3.898   4.520
 3058SOL     OW 9201   0.459   0.112   2.964
 3058SOL    HW1 9202   0.391   0.095   2.893
 3058SOL    HW2 9203   0.416   0.157   3.042
 3059SOL     OW 9204   0.247   4.140   2.398
 3059SOL    HW1 9205   0.338   4.115   2.365
 3059SOL    HW2 9206   0.186   4.156   2.319
 3060SOL     OW 9207   2.536   0.068   0.640
 3060SOL    HW1 9208   2.481   0.092   0.561
 3060SOL    HW2 9209   2.563   0.150   0.689
 3061SOL     OW 9210   0.585   3.181   2.121
 3061SOL    HW1 9211   0.635   3.187   2.207
 3061SOL    HW2 9212   0.614   3.255   2.060
 3062SOL     OW 9213   2.512   4.201   2.215
 3062SOL    HW1 9214   2.478   4.199   2.309
 3062SOL    HW2 9215   2.440   4.173   2.152
 3063SOL     OW 9216   1.111   1.697   1.292
 3063SOL    HW1 9217   1.198   1.696   1.242
 3063SOL    HW2 9218   1.042   1.744   1.237
 3064SOL     OW 9219   4.101   0.421   1.104
 3064SOL    HW1 9220   4.152   0.348   1.057
 3064SOL    HW2 9221   4.022   0.381   1.150
 3065SOL     OW 9222   4.455   2.054   3.698
 3065SOL    HW1 9223   4.492   2.137   3.657
 3065SOL    HW2 9224   4.450   2.065   3.797
 3066SOL     OW 9225   3.005   3.211   3.910
 3066SOL    HW1 9226   2.939   3.283   3.889
 3066SOL    HW2 9227   2.995   3.136   3.845
 3067SOL     OW 9228   1.305   2.008   2.774
 3067SOL    HW1 9229   1.290   2.069   2.696
 3067SOL    HW2 9230   1.218   1.987   2.817
 3068SOL     OW 9231   1.027   2.042   0.882
 3068SOL    HW1 9232   1.102   2.101   0.911
 3068SOL    HW2 9233   1.056   1.986   0.805
 3069SOL     OW 9234   3.721   2.916   3.425
 3069SOL    HW1 9235   3.767   2.848   3.368
 3069SOL    HW2 9236   3.711   2.880   3.518
 3070SOL     OW 9237   3.710   3.946   3.213
 3070SOL    HW1 9238   3.658   3.861   3.218
 3070SOL    HW2 9239   3.687   3.994   3.128
 3071SOL     OW 9240   1.003   0.141   1.417
 3071SOL    HW1 9241   1.033   0.077   1.487
 3071SOL    HW2 9242   0.929   0.099   1.363
 3072SOL     OW 9243   1.048   4.769   3.184
 3072SOL    HW1 9244   0.998   4.774   3.097
 3072SOL    HW2 9245   1.051   4.859   3.226
 3073SOL     OW 9246   4.538   2.058   4.324
 3073SOL    HW1 9247   4.551   2.117   4.403
 3073SOL    HW2 9248   4.444   2.025   4.322
 3074SOL     OW 9249   1.261   0.057   2.337
 3074SOL    HW1 9250   1.327   5.030   2.294
 3074SOL    HW2 9251   1.260   0.144   2.287
 3075SOL     OW 9252   4.628   2.011   4.731
 3075SOL    HW1 9253   4.553   1.981   4.671
 3075SOL    HW2 9254   4.637   2.110   4.726
 3076SOL     OW 9255   2.897   2.497   4.379
 3076SOL    HW1 9256   2.900   2.567   4.307
 3076SOL    HW2 9257   2.804   2.490   4.415
 3077SOL     OW 9258   2.530   3.197   3.542
 3077SOL    HW1 9259   2.549   3.295   3.545
 3077SOL    HW2 9260   2.450   3.180   3.484
 3078SOL     OW 9261   4.411   2.829   2.199
 3078SOL    HW1 9262   4.356   2.753   2.167
 3078SOL    HW2 9263   4.354   2.891   2.253
 3079SOL     OW 9264   0.722   1.387   4.133
 3079SOL    HW1 9265   0.820   1.395   4.113
 3079SOL    HW2 9266   0.709   1.335   4.217
 3080SOL     OW 9267   0.315   2.899   4.245
 3080SOL    HW1 9268   0.300   2.997   4.237
 3080SOL    HW2 9269   0.343   2.877   4.338
 3081SOL     OW 9270   1.939   0.738   0.181
 3081SOL    HW1 9271   1.932   0.835   0.159
 3081SOL    HW2 9272   2.025   0.721   0.228
 3082SOL     OW 9273   0.729   4.559   1.606
 3082SOL    HW1 9274   0.733   4.483   1.541
 3082SOL    HW2 9275   0.789   4.539   1.683
 3083SOL     OW 9276   1.236   4.074   3.959
 3083SOL    HW1 9277   1.309   4.081   3.891
 3083SOL    HW2 9278   1.222   3.978   3.984
 3084SOL     OW 9279   4.077   4.623   3.701
 3084SOL    HW1 9280   4.076   4.714   3.741
 3084SOL    HW2 9281   4.157   4.572   3.734
 3085SOL     OW 9282   2.390   0.814   2.240
 3085SOL    HW1 9283   2.461   0.767   2.188
 3085SOL    HW2 9284   2.358   0.894   2.189
 3086SOL     OW 9285   2.859   0.597   4.151
 3086SOL    HW1 9286   2.914   0.514   4.167
 3086SOL    HW2 9287   2.775   0.592   4.205
 3087SOL     OW 9288   0.162   0.545   3.524
 3087SOL    HW1 9289   0.180   0.549   3.426
 3087SOL    HW2 9290   0.064   0.544   3.541
 3088SOL     OW 9291   2.115   2.681   0.349
 3088SOL    HW1 9292   2.054   2.706   0.425
 3088SOL    HW2 9293   2.072   2.608   0.295
 3089SOL     OW 9294   0.672   0.786   2.664
 3089SOL    HW1 9295   0.668   0.878   2.624
 3089SOL    HW2 9296   0.763   0.748   2.648
 3090SOL     OW 9297   4.637   0.839   4.953
 3090SOL    HW1 9298   4.726   0.822   4.912
 3090SOL    HW2 9299   4.643   0.826   0.017
 3091SOL     OW 9300   4.465   1.053   3.794
 3091SOL    HW1 9301   4.396   1.121   3.819
 3091SOL    HW2 9302   4.475   0.988   3.869
 3092SOL     OW 9303   3.324   4.248   2.818
 3092SOL    HW1 9304   3.376   4.242   2.903
 3092SOL    HW2 9305   3.371   4.309   2.754
 3093SOL     OW 9306   4.610   2.967   4.657
 3093SOL    HW1 9307   4.679   2.896   4.671
 3093SOL    HW2 9308   4.521   2.924   4.641
 3094SOL     OW 9309   2.127   4.607   3.641
 3094SOL    HW1 9310   2.177   4.641   3.561
 3094SOL    HW2 9311   2.112   4.682   3.705
 3095SOL     OW 9312   0.607   2.695   2.009
 3095SOL    HW1 9313   0.568   2.603   2.013
 3095SOL    HW2 9314   0.563   2.746   1.935
 3096SOL     OW 9315   4.817   4.424   2.632
 3096SOL    HW1 9316   4.838   4.522   2.635
 3096SOL    HW2 9317   4.900   4.372   2.652
 3097SOL     OW 9318   4.747   3.122   2.756
 3097SOL    HW1 9319   4.783   3.087   2.669
 3097SOL    HW2 9320   4.722   3.218   2.745
 3098SOL     OW 9321   0.500   3.738   3.035
 3098SOL    HW1 9322   0.556   3.784   3.104
 3098SOL    HW2 9323   0.535   3.645   3.019
 3099SOL     OW 9324   4.853   1.767   1.275
 3099SOL    HW1 9325   4.772   1.817   1.243
 3099SOL    HW2 9326   4.827   1.708   1.351
 3100SOL     OW 9327   1.044   3.309   3.795
 3100SOL    HW1 9328   1.056   3.220   3.841
 3100SOL    HW2 9329   1.086   3.305   3.705
 3101SOL     OW 9330   4.781   3.536   3.029
 3101SOL    HW1 9331   4.793   3.465   3.100
 3101SOL    HW2 9332   4.870   3.577   3.009
 3102SOL     OW 9333   1.854   1.842   3.652
 3102SOL    HW1 9334   1.784   1.801   3.711
 3102SOL    HW2 9335   1.893   1.772   3.593
 3103SOL     OW 9336   4.386   3.981   3.883
 3103SOL    HW1 9337   4.297   4.017   3.855
 3103SOL    HW2 9338   4.442   3.962   3.803
 3104SOL     OW 9339   3.881   2.158   2.983
 3104SOL    HW1 9340   3.859   2.073   3.032
 3104SOL    HW2 9341   3.958   2.203   3.028
 3105SOL     OW 9342   3.240   0.032   0.102
 3105SOL    HW1 9343   3.339   0.037   0.099
 3105SOL    HW2 9344   3.209   0.026   0.198
 3106SOL     OW 9345   2.016   4.728   0.659
 3106SOL    HW1 9346   1.980   4.821   0.648
 3106SOL    HW2 9347   2.101   4.732   0.711
 3107SOL     OW 9348   1.266   2.614   3.087
 3107SOL    HW1 9349   1.346   2.554   3.086
 3107SOL    HW2 9350   1.270   2.676   3.008
 3108SOL     OW 9351   1.088   1.886   4.595
 3108SOL    HW1 9352   1.162   1.834   4.638
 3108SOL    HW2 9353   1.116   1.982   4.586
 3109SOL     OW 9354   0.930   4.534   1.327
 3109SOL    HW1 9355   1.020   4.509   1.291
 3109SOL    HW2 9356   0.877   4.451   1.344
 3110SOL     OW 9357   1.180   4.985   4.123
 3110SOL    HW1 9358   1.163   4.889   4.146
 3110SOL    HW2 9359   1.182   4.996   4.024
 3111SOL     OW 9360   3.349   1.392   2.653
 3111SOL    HW1 9361   3.418   1.340   2.603
 3111SOL    HW2 9362   3.257   1.359   2.629
 3112SOL     OW 9363   3.500   1.306   2.000
 3112SOL    HW1 9364   3.553   1.378   2.045
 3112SOL    HW2 9365   3.510   1.221   2.051
 3113SOL     OW 9366   0.680   3.817   0.249
 3113SOL    HW1 9367   0.645   3.743   0.306
 3113SOL    HW2 9368   0.774   3.796   0.220
 3114SOL     OW 9369   3.459   2.447   0.913
 3114SOL    HW1 9370   3.510   2.521   0.957
 3114SOL    HW2 9371   3.434   2.378   0.981
 3115SOL     OW 9372   2.937   4.223   1.033
 3115SOL    HW1 9373   2.858   4.265   1.076
 3115SOL    HW2 9374   2.912   4.131   1.000
 3116SOL     OW 9375   2.260   3.767   3.077
 3116SOL    HW1 9376   2.206   3.847   3.051
 3116SOL    HW2 9377   2.349   3.797   3.110
 3117SOL     OW 9378   2.173   3.910   1.454
 3117SOL    HW1 9379   2.211   3.863   1.374
 3117SOL    HW2 9380   2.121   3.845   1.509
 3118SOL     OW 9381   1.283   3.109   1.016
 3118SOL    HW1 9382   1.228   3.096   0.934
 3118SOL    HW2 9383   1.266   3.033   1.079
 3119SOL     OW 9384   0.664   0.783   4.697
 3119SOL    HW1 9385   0.624   0.711   4.641
 3119SOL    HW2 9386   0.631   0.774   4.791
 3120SOL     OW 9387   4.547   2.366   1.306
 3120SOL    HW1 9388   4.470   2.399   1.362
 3120SOL    HW2 9389   4.620   2.435   1.306
 3121SOL     OW 9390   4.193   2.437   1.766
 3121SOL    HW1 9391   4.094   2.448   1.753
 3121SOL    HW2 9392   4.216   2.340   1.764
 3122SOL     OW 9393   2.901   0.778   0.973
 3122SOL    HW1 9394   2.805   0.800   0.986
 3122SOL    HW2 9395   2.917   0.750   0.878
 3123SOL     OW 9396   4.680   4.999   2.043
 3123SOL    HW1 9397   4.619   4.958   1.975
 3123SOL    HW2 9398   4.647   4.979   2.135
 3124SOL     OW 9399   0.242   1.323   2.088
 3124SOL    HW1 9400   0.329   1.277   2.108
 3124SOL    HW2 9401   0.231   1.332   1.990
 3125SOL     OW 9402   0.666   2.678   1.458
 3125SOL    HW1 9403   0.606   2.661   1.380
 3125SOL    HW2 9404   0.647   2.611   1.530
 3126SOL     OW 9405   2.062   3.004   3.291
 3126SOL    HW1 9406   2.022   3.094   3.305
 3126SOL    HW2 9407   2.022   2.939   3.357
 3127SOL     OW 9408   3.431   3.746   0.142
 3127SOL    HW1 9409   3.526   3.775   0.127
 3127SOL    HW2 9410   3.417   3.730   0.240
 3128SOL     OW 9411   0.309   0.605   4.391
 3128SOL    HW1 9412   0.339   0.687   4.439
 3128SOL    HW2 9413   0.256   0.631   4.310
 3129SOL     OW 9414   3.355   4.997   1.162
 3129SOL    HW1 9415   3.310   5.026   1.246
 3129SOL    HW2 9416   3.347   0.034   1.093
 3130SOL     OW 9417   3.274   1.651   3.764
 3130SOL    HW1 9418   3.185   1.621   3.799
 3130SOL    HW2 9419   3.278   1.636   3.665
 3131SOL     OW 9420   3.537   4.057   4.329
 3131SOL    HW1 9421   3.581   3.979   4.283
 3131SOL    HW2 9422   3.465   4.023   4.389
 3132SOL     OW 9423   3.372   1.993   0.054
 3132SOL    HW1 9424   3.419   1.982   5.002
 3132SOL    HW2 9425   3.280   2.031   0.038
 3133SOL     OW 9426   2.954   2.574   1.103
 3133SOL    HW1 9427   2.977   2.649   1.041
 3133SOL    HW2 9428   2.995   2.489   1.069
 3134SOL     OW 9429   4.940   4.219   0.953
 3134SOL    HW1 9430   4.878   4.175   1.017
 3134SOL    HW2 9431   4.894   4.297   0.910
 3135SOL     OW 9432   4.816   2.851   0.193
 3135SOL    HW1 9433   4.800   2.809   0.104
 3135SOL    HW2 9434   4.874   2.791   0.249
 3136SOL     OW 9435   3.689   4.265   4.265
 3136SOL    HW1 9436   3.634   4.189   4.301
 3136SOL    HW2 9437   3.692   4.259   4.165
 3137SOL     OW 9438   4.958   2.885   2.398
 3137SOL    HW1 9439   4.895   2.828   2.346
 3137SOL    HW2 9440   4.942   2.872   2.496
 3138SOL     OW 9441   3.996   2.879   4.356
 3138SOL    HW1 9442   4.076   2.840   4.402
 3138SOL    HW2 9443   3.969   2.819   4.281
 3139SOL     OW 9444   2.811   3.658   0.783
 3139SOL    HW1 9445   2.828   3.637   0.879
 3139SOL    HW2 9446   2.887   3.711   0.746
 3140SOL     OW 9447   2.618   1.883   4.524
 3140SOL    HW1 9448   2.528   1.903   4.563
 3140SOL    HW2 9449   2.638   1.786   4.538
 3141SOL     OW 9450   4.103   3.325   4.373
 3141SOL    HW1 9451   4.157   3.319   4.456
 3141SOL    HW2 9452   4.016   3.372   4.392
 3142SOL     OW 9453   2.135   1.230   4.857
 3142SOL    HW1 9454   2.136   1.330   4.857
 3142SOL    HW2 9455   2.041   1.198   4.869
 3143SOL     OW 9456   2.402   4.066   1.218
 3143SOL    HW1 9457   2.460   4.029   1.145
 3143SOL    HW2 9458   2.317   4.013   1.224
 3144SOL     OW 9459   3.965   2.517   4.813
 3144SOL    HW1 9460   4.016   2.564   4.741
 3144SOL    HW2 9461   3.984   2.419   4.810
 3145SOL     OW 9462   0.865   4.580   0.861
 3145SOL    HW1 9463   0.949   4.574   0.807
 3145SOL    HW2 9464   0.786   4.575   0.801
 3146SOL     OW 9465   2.076   2.453   0.590
 3146SOL    HW1 9466   2.067   2.377   0.525
 3146SOL    HW2 9467   1.986   2.482   0.621
 3147SOL     OW 9468   2.486   0.726   2.662
 3147SOL    HW1 9469   2.431   0.757   2.739
 3147SOL    HW2 9470   2.427   0.682   2.595
 3148SOL     OW 9471   2.986   3.663   1.207
 3148SOL    HW1 9472   2.966   3.595   1.137
 3148SOL    HW2 9473   2.910   3.728   1.211
 3149SOL     OW 9474   3.658   4.252   3.249
 3149SOL    HW1 9475   3.625   4.217   3.337
 3149SOL    HW2 9476   3.659   4.352   3.252
 3150SOL     OW 9477   1.898   2.293   4.402
 3150SOL    HW1 9478   1.816   2.236   4.408
 3150SOL    HW2 9479   1.888   2.371   4.465
 3151SOL     OW 9480   0.247   1.665   3.412
 3151SOL    HW1 9481   0.160   1.671   3.463
 3151SOL    HW2 9482   0.320   1.705   3.467
 3152SOL     OW 9483   4.117   3.802   1.528
 3152SOL    HW1 9484   4.159   3.879   1.480
 3152SOL    HW2 9485   4.161   3.790   1.617
 3153SOL     OW 9486   4.951   3.899   1.416
 3153SOL    HW1 9487   4.860   3.937   1.399
 3153SOL    HW2 9488   4.948   3.843   1.499
 3154SOL     OW 9489   2.149   3.196   2.449
 3154SOL    HW1 9490   2.196   3.282   2.432
 3154SOL    HW2 9491   2.206   3.137   2.506
 3155SOL     OW 9492   0.888   0.458   4.693
 3155SOL    HW1 9493   0.835   0.401   4.631
 3155SOL    HW2 9494   0.910   0.545   4.648
 3156SOL     OW 9495   1.433   1.355   1.434
 3156SOL    HW1 9496   1.439   1.447   1.471
 3156SOL    HW2 9497   1.365   1.353   1.361
 3157SOL     OW 9498   4.719   3.080   1.805
 3157SOL    HW1 9499   4.756   3.148   1.742
 3157SOL    HW2 9500   4.725   2.989   1.764
 3158SOL     OW 9501   4.371   1.855   2.752
 3158SOL    HW1 9502   4.392   1.895   2.842
 3158SOL    HW2 9503   4.358   1.929   2.686
 3159SOL     OW 9504   4.685   3.147   4.838
 3159SOL    HW1 9505   4.626   3.087   4.786
 3159SOL    HW2 9506   4.638   3.178   4.921
 3160SOL     OW 9507   1.526   4.733   2.520
 3160SOL    HW1 9508   1.540   4.832   2.531
 3160SOL    HW2 9509   1.521   4.711   2.423
 3161SOL     OW 9510   0.720   4.689   0.136
 3161SOL    HW1 9511   0.718   4.789   0.128
 3161SOL    HW2 9512   0.681   4.661   0.224
 3162SOL     OW 9513   4.683   2.679   0.859
 3162SOL    HW1 9514   4.609   2.638   0.806
 3162SOL    HW2 9515   4.732   2.606   0.907
 3163SOL     OW 9516   0.173   1.080   2.231
 3163SOL    HW1 9517   0.162   1.116   2.139
 3163SOL    HW2 9518   0.089   1.096   2.284
 3164SOL     OW 9519   4.315   2.879   4.344
 3164SOL    HW1 9520   4.405   2.916   4.365
 3164SOL    HW2 9521   4.324   2.802   4.281
 3165SOL     OW 9522   4.065   2.230   4.936
 3165SOL    HW1 9523   4.127   2.161   4.974
 3165SOL    HW2 9524   3.978   2.188   4.911
 3166SOL     OW 9525   0.159   4.573   4.151
 3166SOL    HW1 9526   0.244   4.563   4.204
 3166SOL    HW2 9527   0.172   4.534   4.060
 3167SOL     OW 9528   0.514   3.719   4.815
 3167SOL    HW1 9529   0.609   3.692   4.831
 3167SOL    HW2 9530   0.508   3.773   4.731
 3168SOL     OW 9531   0.051   1.244   3.211
 3168SOL    HW1 9532   0.146   1.257   3.239
 3168SOL    HW2 9533   5.030   1.316   3.250
 3169SOL     OW 9534   2.226   4.781   2.296
 3169SOL    HW1 9535   2.275   4.756   2.379
 3169SOL    HW2 9536   2.258   4.871   2.265
 3170SOL     OW 9537   0.544   1.993   3.157
 3170SOL    HW1 9538   0.448   2.024   3.161
 3170SOL    HW2 9539   0.601   2.058   3.207
 3171SOL     OW 9540   1.306   2.934   3.012
 3171SOL    HW1 9541   1.386   2.874   3.006
 3171SOL    HW2 9542   1.269   2.949   2.920
 3172SOL     OW 9543   2.787   4.258   4.055
 3172SOL    HW1 9544   2.825   4.270   3.963
 3172SOL    HW2 9545   2.857   4.279   4.123
 3173SOL     OW 9546   1.624   3.237   0.506
 3173SOL    HW1 9547   1.683   3.259   0.584
 3173SOL    HW2 9548   1.607   3.320   0.453
 3174SOL     OW 9549   1.802   0.472   0.214
 3174SOL    HW1 9550   1.797   0.563   0.171
 3174SOL    HW2 9551   1.726   0.460   0.277
 3175SOL     OW 9552   1.246   3.741   3.337
 3175SOL    HW1 9553   1.334   3.715   3.377
 3175SOL    HW2 9554   1.237   3.700   3.246
 3176SOL     OW 9555   0.517   1.523   2.895
 3176SOL    HW1 9556   0.440   1.515   2.959
 3176SOL    HW2 9557   0.486   1.500   2.803
 3177SOL     OW 9558   1.651   3.415   0.250
 3177SOL    HW1 9559   1.590   3.343   0.216
 3177SOL    HW2 9560   1.615   3.504   0.224
 3178SOL     OW 9561   3.705   0.789   4.802
 3178SOL    HW1 9562   3.715   0.867   4.864
 3178SOL    HW2 9563   3.675   0.709   4.853
 3179SOL     OW 9564   0.306   2.298   3.029
 3179SOL    HW1 9565   0.288   2.209   3.069
 3179SOL    HW2 9566   0.239   2.365   3.064
 3180SOL     OW 9567   2.918   2.093   1.420
 3180SOL    HW1 9568   2.928   2.045   1.333
 3180SOL    HW2 9569   2.839   2.057   1.469
 3181SOL     OW 9570   3.593   4.262   4.582
 3181SOL    HW1 9571   3.670   4.235   4.640
 3181SOL    HW2 9572   3.628   4.310   4.502
 3182SOL     OW 9573   0.093   0.338   2.244
 3182SOL    HW1 9574   0.149   0.417   2.222
 3182SOL    HW2 9575   0.052   0.302   2.160
 3183SOL     OW 9576   1.823   0.064   1.463
 3183SOL    HW1 9577   1.734   0.052   1.419
 3183SOL    HW2 9578   1.861   0.154   1.438
 3184SOL     OW 9579   3.290   2.164   4.782
 3184SOL    HW1 9580   3.363   2.096   4.777
 3184SOL    HW2 9581   3.272   2.187   4.878
 3185SOL     OW 9582   2.558   4.978   0.240
 3185SOL    HW1 9583   2.543   4.908   0.310
 3185SOL    HW2 9584   2.652   5.009   0.243
 3186SOL     OW 9585   2.447   0.117   2.301
 3186SOL    HW1 9586   2.442   0.201   2.355
 3186SOL    HW2 9587   2.378   0.120   2.228
 3187SOL     OW 9588   3.797   4.621   0.848
 3187SOL    HW1 9589   3.708   4.666   0.842
 3187SOL    HW2 9590   3.869   4.690   0.855
 3188SOL     OW 9591   2.300   1.776   4.566
 3188SOL    HW1 9592   2.230   1.728   4.512
 3188SOL    HW2 9593   2.300   1.873   4.542
 3189SOL     OW 9594   4.741   1.887   4.473
 3189SOL    HW1 9595   4.697   1.931   4.394
 3189SOL    HW2 9596   4.737   1.949   4.551
 3190SOL     OW 9597   2.998   2.812   3.472
 3190SOL    HW1 9598   2.902   2.785   3.481
 3190SOL    HW2 9599   3.008   2.908   3.497
 3191SOL     OW 9600   5.000   1.358   0.762
 3191SOL    HW1 9601   4.985   1.449   0.801
 3191SOL    HW2 9602   4.922   1.299   0.783
 3192SOL     OW 9603   4.272   3.479   3.402
 3192SOL    HW1 9604   4.279   3.379   3.410
 3192SOL    HW2 9605   4.227   3.502   3.316
 3193SOL     OW 9606   4.453   1.206   2.703
 3193SOL    HW1 9607   4.468   1.279   2.637
 3193SOL    HW2 9608   4.538   1.153   2.715
 3194SOL     OW 9609   1.710   2.523   1.263
 3194SOL    HW1 9610   1.798   2.541   1.220
 3194SOL    HW2 9611   1.719   2.534   1.362
 3195SOL     OW 9612   0.244   2.178   1.236
 3195SOL    HW1 9613   0.185   2.136   1.167
 3195SOL    HW2 9614   0.286   2.107   1.293
 3196SOL     OW 9615   3.740   1.482   2.076
 3196SOL    HW1 9616   3.802   1.436   2.012
 3196SOL    HW2 9617   3.793   1.536   2.142
 3197SOL     OW 9618   0.523   1.978   1.132
 3197SOL    HW1 9619   0.590   2.043   1.095
 3197SOL    HW2 9620   0.552   1.885   1.111
 3198SOL     OW 9621   1.543   4.144   3.017
 3198SOL    HW1 9622   1.476   4.161   2.944
 3198SOL    HW2 9623   1.548   4.224   3.076
 3199SOL     OW 9624   0.615   1.781   0.156
 3199SOL    HW1 9625   0.697   1.828   0.187
 3199SOL    HW2 9626   0.607   1.693   0.203
 3200SOL     OW 9627   3.197   0.700   1.459
 3200SOL    HW1 9628   3.293   0.689   1.484
 3200SOL    HW2 9629   3.154   0.610   1.454
 3201SOL     OW 9630   4.475   2.351   4.957
 3201SOL    HW1 9631   4.435   2.413   5.025
 3201SOL    HW2 9632   4.567   2.381   4.934
 3202SOL     OW 9633   4.214   0.155   2.374
 3202SOL    HW1 9634   4.122   0.184   2.348
 3202SOL    HW2 9635   4.270   0.235   2.395
 3203SOL     OW 9636   1.746   2.521   4.789
 3203SOL    HW1 9637   1.758   2.603   4.733
 3203SOL    HW2 9638   1.836   2.484   4.813
 3204SOL     OW 9639   1.726   0.767   4.500
 3204SOL    HW1 9640   1.628   0.772   4.522
 3204SOL    HW2 9641   1.777   0.742   4.582
 3205SOL     OW 9642   1.350   0.263   3.757
 3205SOL    HW1 9643   1.308   0.215   3.680
 3205SOL    HW2 9644   1.418   0.203   3.800
 3206SOL     OW 9645   2.059   3.209   4.430
 3206SOL    HW1 9646   2.123   3.253   4.368
 3206SOL    HW2 9647   2.004   3.278   4.477
 3207SOL     OW 9648   0.345   0.896   2.026
 3207SOL    HW1 9649   0.426   0.945   2.059
 3207SOL    HW2 9650   0.308   0.944   1.947
 3208SOL     OW 9651   1.324   1.901   4.400
 3208SOL    HW1 9652   1.327   1.886   4.301
 3208SOL    HW2 9653   1.257   1.840   4.441
 3209SOL     OW 9654   4.353   0.936   0.009
 3209SOL    HW1 9655   4.271   0.990   0.026
 3209SOL    HW2 9656   4.366   0.869   0.083
 3210SOL     OW 9657   4.786   4.196   3.055
 3210SOL    HW1 9658   4.707   4.214   2.996
 3210SOL    HW2 9659   4.800   4.273   3.116
 3211SOL     OW 9660   0.706   4.988   1.129
 3211SOL    HW1 9661   0.765   5.023   1.056
 3211SOL    HW2 9662   0.759   4.930   1.190
 3212SOL     OW 9663   0.198   4.883   4.065
 3212SOL    HW1 9664   0.230   4.977   4.076
 3212SOL    HW2 9665   0.274   4.819   4.080
 3213SOL     OW 9666   0.195   1.256   4.228
 3213SOL    HW1 9667   0.294   1.245   4.225
 3213SOL    HW2 9668   0.167   1.329   4.166
 3214SOL     OW 9669   2.751   3.442   4.936
 3214SOL    HW1 9670   2.706   3.531   4.948
 3214SOL    HW2 9671   2.826   3.434   5.002
 3215SOL     OW 9672   2.734   4.411   3.823
 3215SOL    HW1 9673   2.716   4.497   3.775
 3215SOL    HW2 9674   2.679   4.406   3.906
 3216SOL     OW 9675   4.676   3.832   0.776
 3216SOL    HW1 9676   4.637   3.760   0.719
 3216SOL    HW2 9677   4.665   3.921   0.731
 3217SOL     OW 9678   2.381   1.815   1.549
 3217SOL    HW1 9679   2.474   1.805   1.516
 3217SOL    HW2 9680   2.321   1.752   1.499
 3218SOL     OW 9681   2.388   3.072   0.620
 3218SOL    HW1 9682   2.369   2.974   0.615
 3218SOL    HW2 9683   2.354   3.117   0.537
 3219SOL     OW 9684   3.446   3.732   4.447
 3219SOL    HW1 9685   3.412   3.813   4.495
 3219SOL    HW2 9686   3.470   3.661   4.513
 3220SOL     OW 9687   1.506   2.164   0.090
 3220SOL    HW1 9688   1.469   2.139   0.001
 3220SOL    HW2 9689   1.602   2.133   0.096
 3221SOL     OW 9690   1.336   2.441   4.423
 3221SOL    HW1 9691   1.411   2.420   4.486
 3221SOL    HW2 9692   1.371   2.444   4.329
 3222SOL     OW 9693   4.232   0.984   3.339
 3222SOL    HW1 9694   4.305   1.050   3.319
 3222SOL    HW2 9695   4.143   1.026   3.319
 3223SOL     OW 9696   4.216   3.833   4.379
 3223SOL    HW1 9697   4.223   3.872   4.288
 3223SOL    HW2 9698   4.275   3.883   4.442
 3224SOL     OW 9699   4.228   3.942   4.138
 3224SOL    HW1 9700   4.224   4.032   4.094
 3224SOL    HW2 9701   4.236   3.871   4.068
 3225SOL     OW 9702   1.838   1.607   2.124
 3225SOL    HW1 9703   1.761   1.545   2.138
 3225SOL    HW2 9704   1.909   1.560   2.070
 3226SOL     OW 9705   1.908   1.423   3.767
 3226SOL    HW1 9706   1.968   1.477   3.826
 3226SOL    HW2 9707   1.814   1.428   3.803
 3227SOL     OW 9708   0.572   4.559   0.332
 3227SOL    HW1 9709   0.526   4.481   0.291
 3227SOL    HW2 9710   0.506   4.632   0.349
 3228SOL     OW 9711   2.748   4.641   3.638
 3228SOL    HW1 9712   2.734   4.739   3.626
 3228SOL    HW2 9713   2.697   4.592   3.567
 3229SOL     OW 9714   4.932   1.853   2.356
 3229SOL    HW1 9715   5.016   1.885   2.313
 3229SOL    HW2 9716   4.941   1.757   2.380
 3230SOL     OW 9717   1.478   3.478   4.679
 3230SOL    HW1 9718   1.541   3.412   4.637
 3230SOL    HW2 9719   1.492   3.478   4.778
 3231SOL     OW 9720   0.733   3.639   4.454
 3231SOL    HW1 9721   0.799   3.678   4.518
 3231SOL    HW2 9722   0.661   3.593   4.505
 3232SOL     OW 9723   1.528   1.852   1.860
 3232SOL    HW1 9724   1.483   1.801   1.934
 3232SOL    HW2 9725   1.460   1.875   1.790
 3233SOL     OW 9726   3.206   2.659   3.543
 3233SOL    HW1 9727   3.125   2.716   3.532
 3233SOL    HW2 9728   3.219   2.604   3.461
 3234SOL     OW 9729   0.183   1.681   0.661
 3234SOL    HW1 9730   0.254   1.713   0.599
 3234SOL    HW2 9731   0.196   1.722   0.751
 3235SOL     OW 9732   2.024   3.755   1.624
 3235SOL    HW1 9733   1.928   3.782   1.612
 3235SOL    HW2 9734   2.036   3.718   1.716
 3236SOL     OW 9735   0.969   1.450   3.766
 3236SOL    HW1 9736   0.885   1.396   3.766
 3236SOL    HW2 9737   1.048   1.389   3.762
 3237SOL     OW 9738   0.295   0.057   1.527
 3237SOL    HW1 9739   0.386   0.069   1.488
 3237SOL    HW2 9740   0.246   0.145   1.524
 3238SOL     OW 9741   3.661   4.590   4.582
 3238SOL    HW1 9742   3.619   4.545   4.661
 3238SOL    HW2 9743   3.734   4.651   4.614
 3239SOL     OW 9744   0.290   1.893   2.920
 3239SOL    HW1 9745   0.377   1.851   2.894
 3239SOL    HW2 9746   0.216   1.826   2.909
 3240SOL     OW 9747   2.762   4.172   4.749
 3240SOL    HW1 9748   2.709   4.186   4.833
 3240SOL    HW2 9749   2.805   4.082   4.752
 3241SOL     OW 9750   4.944   1.336   2.244
 3241SOL    HW1 9751   4.949   1.248   2.292
 3241SOL    HW2 9752   4.886   1.399   2.296
 3242SOL     OW 9753   0.036   4.923   0.136
 3242SOL    HW1 9754   0.070   4.946   0.045
 3242SOL    HW2 9755   0.109   4.877   0.187
 3243SOL     OW 9756   4.327   3.879   0.495
 3243SOL    HW1 9757   4.353   3.784   0.511
 3243SOL    HW2 9758   4.356   3.907   0.404
 3244SOL     OW 9759   3.151   2.589   4.132
 3244SOL    HW1 9760   3.096   2.587   4.049
 3244SOL    HW2 9761   3.215   2.665   4.128
 3245SOL     OW 9762   1.477   0.429   2.708
 3245SOL    HW1 9763   1.505   0.493   2.636
 3245SOL    HW2 9764   1.410   0.474   2.767
 3246SOL     OW 9765   2.149   0.113   3.518
 3246SOL    HW1 9766   2.150   0.064   3.605
 3246SOL    HW2 9767   2.182   0.206   3.532
 3247SOL     OW 9768   2.929   3.509   3.898
 3247SOL    HW1 9769   3.026   3.524   3.882
 3247SOL    HW2 9770   2.912   3.503   3.997
 3248SOL     OW 9771   3.244   4.217   4.815
 3248SOL    HW1 9772   3.164   4.227   4.875
 3248SOL    HW2 9773   3.263   4.120   4.802
 3249SOL     OW 9774   3.754   2.085   0.671
 3249SOL    HW1 9775   3.699   2.168   0.682
 3249SOL    HW2 9776   3.846   2.110   0.640
 3250SOL     OW 9777   0.310   0.078   4.217
 3250SOL    HW1 9778   0.357   5.030   4.248
 3250SOL    HW2 9779   0.216   0.077   4.249
 3251SOL     OW 9780   1.004   0.868   4.862
 3251SOL    HW1 9781   0.935   0.802   4.891
 3251SOL    HW2 9782   0.975   0.960   4.887
 3252SOL     OW 9783   1.437   4.058   3.777
 3252SOL    HW1 9784   1.463   4.102   3.691
 3252SOL    HW2 9785   1.494   3.978   3.792
 3253SOL     OW 9786   4.338   1.526   2.696
 3253SOL    HW1 9787   4.265   1.594   2.697
 3253SOL    HW2 9788   4.391   1.532   2.780
 3254SOL     OW 9789   1.560   2.338   0.517
 3254SOL    HW1 9790   1.558   2.261   0.581
 3254SOL    HW2 9791   1.562   2.304   0.423
 3255SOL     OW 9792   0.840   1.082   2.588
 3255SOL    HW1 9793   0.753   1.129   2.576
 3255SOL    HW2 9794   0.898   1.098   2.509
 3256SOL     OW 9795   2.216   3.093   2.119
 3256SOL    HW1 9796   2.234   3.162   2.049
 3256SOL    HW2 9797   2.189   3.139   2.204
 3257SOL     OW 9798   0.547   2.533   1.679
 3257SOL    HW1 9799   0.454   2.565   1.698
 3257SOL    HW2 9800   0.602   2.539   1.763
 3258SOL     OW 9801   0.060   4.253   2.229
 3258SOL    HW1 9802   0.054   4.317   2.305
 3258SOL    HW2 9803   5.016   4.267   2.168
 3259SOL     OW 9804   3.322   3.381   1.812
 3259SOL    HW1 9805   3.322   3.433   1.898
 3259SOL    HW2 9806   3.397   3.412   1.754
 3260SOL     OW 9807   3.205   2.213   0.000
 3260SOL    HW1 9808   3.115   2.242   5.003
 3260SOL    HW2 9809   3.254   2.292   0.038
 3261SOL     OW 9810   0.350   2.031   0.906
 3261SOL    HW1 9811   0.371   2.004   1.000
 3261SOL    HW2 9812   0.392   2.120   0.887
 3262SOL     OW 9813   4.630   1.579   3.173
 3262SOL    HW1 9814   4.547   1.526   3.155
 3262SOL    HW2 9815   4.663   1.560   3.265
 3263SOL     OW 9816   3.331   3.945   4.567
 3263SOL    HW1 9817   3.250   3.999   4.547
 3263SOL    HW2 9818   3.313   3.883   4.644
 3264SOL     OW 9819   1.146   2.173   0.184
 3264SOL    HW1 9820   1.058   2.154   0.229
 3264SOL    HW2 9821   1.202   2.090   0.183
 3265SOL     OW 9822   2.225   1.104   2.227
 3265SOL    HW1 9823   2.170   1.036   2.179
 3265SOL    HW2 9824   2.308   1.122   2.174
 3266SOL     OW 9825   0.916   3.736   0.140
 3266SOL    HW1 9826   1.015   3.737   0.130
 3266SOL    HW2 9827   0.873   3.742   0.050
 3267SOL     OW 9828   4.186   3.712   3.904
 3267SOL    HW1 9829   4.116   3.783   3.900
 3267SOL    HW2 9830   4.231   3.703   3.815
 3268SOL     OW 9831   2.489   0.751   0.994
 3268SOL    HW1 9832   2.538   0.779   1.077
 3268SOL    HW2 9833   2.501   0.820   0.923
 3269SOL     OW 9834   0.574   3.502   1.427
 3269SOL    HW1 9835   0.579   3.414   1.379
 3269SOL    HW2 9836   0.526   3.489   1.514
 3270SOL     OW 9837   2.236   1.075   1.397
 3270SOL    HW1 9838   2.156   1.032   1.439
 3270SOL    HW2 9839   2.317   1.020   1.416
 3271SOL     OW 9840   4.704   4.681   2.960
 3271SOL    HW1 9841   4.697   4.587   2.925
 3271SOL    HW2 9842   4.642   4.692   3.037
 3272SOL     OW 9843   3.187   0.547   2.606
 3272SOL    HW1 9844   3.186   0.647   2.605
 3272SOL    HW2 9845   3.203   0.515   2.699
 3273SOL     OW 9846   0.701   0.437   1.769
 3273SOL    HW1 9847   0.723   0.407   1.677
 3273SOL    HW2 9848   0.608   0.473   1.772
 3274SOL     OW 9849   1.943   4.733   3.394
 3274SOL    HW1 9850   1.855   4.704   3.358
 3274SOL    HW2 9851   1.938   4.740   3.494
 3275SOL     OW 9852   2.638   1.181   0.202
 3275SOL    HW1 9853   2.559   1.227   0.245
 3275SOL    HW2 9854   2.624   1.176   0.104
 3276SOL     OW 9855   0.012   1.205   2.601
 3276SOL    HW1 9856   4.988   1.181   2.524
 3276SOL    HW2 9857   0.007   1.304   2.617
 3277SOL     OW 9858   3.840   1.683   2.802
 3277SOL    HW1 9859   3.852   1.584   2.800
 3277SOL    HW2 9860   3.773   1.710   2.733
 3278SOL     OW 9861   2.593   2.792   0.754
 3278SOL    HW1 9862   2.586   2.871   0.815
 3278SOL    HW2 9863   2.632   2.820   0.667
 3279SOL     OW 9864   1.078   0.269   0.565
 3279SOL    HW1 9865   1.041   0.264   0.473
 3279SOL    HW2 9866   1.023   0.212   0.626
 3280SOL     OW 9867   1.312   3.103   2.074
 3280SOL    HW1 9868   1.392   3.152   2.039
 3280SOL    HW2 9869   1.315   3.101   2.174
 3281SOL     OW 9870   1.268   4.026   0.873
 3281SOL    HW1 9871   1.307   3.942   0.836
 3281SOL    HW2 9872   1.328   4.062   0.944
 3282SOL     OW 9873   2.334   3.510   3.044
 3282SOL    HW1 9874   2.369   3.506   3.137
 3282SOL    HW2 9875   2.291   3.599   3.029
 3283SOL     OW 9876   0.040   1.302   0.300
 3283SOL    HW1 9877   0.126   1.323   0.347
 3283SOL    HW2 9878   0.008   1.383   0.252
 3284SOL     OW 9879   3.374   2.410   4.111
 3284SOL    HW1 9880   3.315   2.439   4.185
 3284SOL    HW2 9881   3.343   2.451   4.025
 3285SOL     OW 9882   4.929   0.530   0.780
 3285SOL    HW1 9883   4.949   0.475   0.699
 3285SOL    HW2 9884   4.859   0.484   0.835
 3286SOL     OW 9885   3.724   0.724   1.468
 3286SOL    HW1 9886   3.741   0.656   1.540
 3286SOL    HW2 9887   3.782   0.704   1.389
 3287SOL     OW 9888   3.846   0.449   2.469
 3287SOL    HW1 9889   3.906   0.377   2.435
 3287SOL    HW2 9890   3.794   0.488   2.393
 3288SOL     OW 9891   4.285   3.470   1.938
 3288SOL    HW1 9892   4.195   3.426   1.938
 3288SOL    HW2 9893   4.276   3.564   1.972
 3289SOL     OW 9894   3.024   2.338   3.595
 3289SOL    HW1 9895   3.015   2.437   3.611
 3289SOL    HW2 9896   2.980   2.289   3.670
 3290SOL     OW 9897   4.081   1.419   3.762
 3290SOL    HW1 9898   4.101   1.325   3.790
 3290SOL    HW2 9899   3.984   1.425   3.737
 3291SOL     OW 9900   0.279   2.578   1.083
 3291SOL    HW1 9901   0.320   2.505   1.137
 3291SOL    HW2 9902   0.275   2.551   0.986
 3292SOL     OW 9903   2.502   2.196   1.029
 3292SOL    HW1 9904   2.529   2.155   0.942
 3292SOL    HW2 9905   2.488   2.124   1.097
 3293SOL     OW 9906   2.093   2.426   4.124
 3293SOL    HW1 9907   2.070   2.494   4.193
 3293SOL    HW2 9908   2.044   2.341   4.143
 3294SOL     OW 9909   2.896   1.371   4.340
 3294SOL    HW1 9910   2.944   1.441   4.392
 3294SOL    HW2 9911   2.962   1.312   4.294
 3295SOL     OW 9912   3.354   3.340   1.233
 3295SOL    HW1 9913   3.407   3.423   1.211
 3295SOL    HW2 9914   3.309   3.352   1.321
 3296SOL     OW 9915   1.896   3.603   2.263
 3296SOL    HW1 9916   1.839   3.521   2.261
 3296SOL    HW2 9917   1.890   3.645   2.354
 3297SOL     OW 9918   4.631   1.196   3.556
 3297SOL    HW1 9919   4.557   1.202   3.623
 3297SOL    HW2 9920   4.644   1.101   3.528
 3298SOL     OW 9921   3.279   2.364   3.499
 3298SOL    HW1 9922   3.194   2.339   3.546
 3298SOL    HW2 9923   3.258   2.419   3.419
 3299SOL     OW 9924   2.195   2.188   3.951
 3299SOL    HW1 9925   2.104   2.198   3.992
 3299SOL    HW2 9926   2.185   2.172   3.853
 3300SOL     OW 9927   1.725   4.477   3.949
 3300SOL    HW1 9928   1.684   4.428   3.872
 3300SOL    HW2 9929   1.653   4.519   4.004
 3301SOL     OW 9930   4.374   2.951   1.089
 3301SOL    HW1 9931   4.305   2.993   1.029
 3301SOL    HW2 9932   4.456   2.930   1.036
 3302SOL     OW 9933   1.458   1.305   3.670
 3302SOL    HW1 9934   1.444   1.215   3.711
 3302SOL    HW2 9935   1.536   1.301   3.606
 3303SOL     OW 9936   2.989   2.696   3.054
 3303SOL    HW1 9937   2.940   2.653   2.978
 3303SOL    HW2 9938   2.959   2.655   3.140
 3304SOL     OW 9939   3.534   4.447   1.209
 3304SOL    HW1 9940   3.462   4.391   1.250
 3304SOL    HW2 9941   3.525   4.446   1.110
 3305SOL     OW 9942   1.634   4.999   1.785
 3305SOL    HW1 9943   1.706   0.032   1.773
 3305SOL    HW2 9944   1.569   5.004   1.709
 3306SOL     OW 9945   0.878   2.806   2.722
 3306SOL    HW1 9946   0.885   2.711   2.750
 3306SOL    HW2 9947   0.821   2.856   2.787
 3307SOL     OW 9948   1.054   4.590   3.397
 3307SOL    HW1 9949   1.120   4.622   3.329
 3307SOL    HW2 9950   0.964   4.629   3.377
 3308SOL     OW 9951   4.164   3.773   2.722
 3308SOL    HW1 9952   4.069   3.747   2.705
 3308SOL    HW2 9953   4.166   3.853   2.782
 3309SOL     OW 9954   3.315   0.383   4.499
 3309SOL    HW1 9955   3.253   0.316   4.459
 3309SOL    HW2 9956   3.278   0.415   4.586
 3310SOL     OW 9957   0.972   1.031   0.675
 3310SOL    HW1 9958   0.927   0.962   0.618
 3310SOL    HW2 9959   1.039   1.080   0.620
 3311SOL     OW 9960   4.706   0.171   0.031
 3311SOL    HW1 9961   4.695   0.244   4.998
 3311SOL    HW2 9962   4.714   0.083   5.019
 3312SOL     OW 9963   1.882   0.627   2.000
 3312SOL    HW1 9964   1.843   0.707   2.045
 3312SOL    HW2 9965   1.982   0.633   2.003
 3313SOL     OW 9966   1.500   4.144   4.873
 3313SOL    HW1 9967   1.470   4.138   4.968
 3313SOL    HW2 9968   1.424   4.121   4.812
 3314SOL     OW 9969   1.221   3.557   3.773
 3314SOL    HW1 9970   1.212   3.463   3.808
 3314SOL    HW2 9971   1.164   3.568   3.692
 3315SOL     OW 9972   0.729   0.901   4.457
 3315SOL    HW1 9973   0.684   0.847   4.387
 3315SOL    HW2 9974   0.692   0.877   4.547
 3316SOL     OW 9975   3.977   1.108   4.329
 3316SOL    HW1 9976   3.984   1.024   4.275
 3316SOL    HW2 9977   3.927   1.177   4.277
 3317SOL     OW 9978   4.424   1.388   4.276
 3317SOL    HW1 9979   4.448   1.340   4.191
 3317SOL    HW2 9980   4.337   1.436   4.263
 3318SOL     OW 9981   3.366   1.198   4.344
 3318SOL    HW1 9982   3.447   1.178   4.289
 3318SOL    HW2 9983   3.386   1.184   4.441
 3319SOL     OW 9984   1.500   2.464   1.642
 3319SOL    HW1 9985   1.543   2.527   1.577
 3319SOL    HW2 9986   1.506   2.503   1.734
 3320SOL     OW 9987   0.352   2.647   4.017
 3320SOL    HW1 9988   0.286   2.699   3.964
 3320SOL    HW2 9989   0.305   2.577   4.070
 3321SOL     OW 9990   0.785   2.360   4.456
 3321SOL    HW1 9991   0.721   2.393   4.386
 3321SOL    HW2 9992   0.738   2.354   4.544
 3322SOL     OW 9993   1.539   1.143   4.792
 3322SOL    HW1 9994   1.458   1.196   4.819
 3322SOL    HW2 9995   1.525   1.106   4.700
 3323SOL     OW 9996   4.736   3.219   4.080
 3323SOL    HW1 9997   4.813   3.155   4.089
 3323SOL    HW2 9998   4.759   3.305   4.127
 3324SOL     OW 9999   1.570   3.832   3.673
 3324SOL    HW110000   1.628   3.817   3.593
 3324SOL    HW210001   1.474   3.823   3.646
 3325SOL     OW10002   1.439   1.747   3.911
 3325SOL    HW110003   1.413   1.652   3.932
 3325SOL    HW210004   1.533   1.749   3.877
 3326SOL     OW10005   4.642   1.370   2.253
 3326SOL    HW110006   4.595   1.295   2.206
 3326SOL    HW210007   4.650   1.349   2.350
 3327SOL     OW10008   3.358   2.513   1.329
 3327SOL    HW110009   3.314   2.535   1.416
 3327SOL    HW210010   3.323   2.574   1.258
 3328SOL     OW10011   3.433   0.490   3.100
 3328SOL    HW110012   3.458   0.396   3.076
 3328SOL    HW210013   3.458   0.507   3.195
 3329SOL     OW10014   4.454   2.434   3.651
 3329SOL    HW110015   4.511   2.405   3.574
 3329SOL    HW210016   4.372   2.377   3.654
 3330SOL     OW10017   1.725   1.879   2.054
 3330SOL    HW110018   1.659   1.896   1.980
 3330SOL    HW210019   1.753   1.783   2.051
 3331SOL     OW10020   1.200   4.257   4.970
 3331SOL    HW110021   1.272   4.215   5.025
 3331SOL    HW210022   1.176   4.196   4.895
 3332SOL     OW10023   2.618   0.809   1.231
 3332SOL    HW110024   2.557   0.888   1.227
 3332SOL    HW210025   2.676   0.815   1.312
 3333SOL     OW10026   1.533   0.301   0.880
 3333SOL    HW110027   1.581   0.253   0.954
 3333SOL    HW210028   1.568   0.269   0.792
 3334SOL     OW10029   2.716   2.016   2.687
 3334SOL    HW110030   2.811   2.041   2.670
 3334SOL    HW210031   2.702   1.920   2.666
 3335SOL     OW10032   3.189   1.592   0.079
 3335SOL    HW110033   3.130   1.516   0.105
 3335SOL    HW210034   3.179   1.666   0.146
 3336SOL     OW10035   2.143   3.768   2.234
 3336SOL    HW110036   2.215   3.708   2.199
 3336SOL    HW210037   2.054   3.726   2.216
 3337SOL     OW10038   1.203   2.615   1.768
 3337SOL    HW110039   1.261   2.534   1.761
 3337SOL    HW210040   1.185   2.651   1.676
 3338SOL     OW10041   3.470   3.597   1.679
 3338SOL    HW110042   3.381   3.640   1.689
 3338SOL    HW210043   3.491   3.585   1.582
 3339SOL     OW10044   3.622   4.700   0.500
 3339SOL    HW110045   3.717   4.697   0.469
 3339SOL    HW210046   3.616   4.662   0.592
 3340SOL     OW10047   0.408   0.225   2.570
 3340SOL    HW110048   0.437   0.261   2.482
 3340SOL    HW210049   0.473   0.253   2.641
 3341SOL     OW10050   4.371   4.278   4.982
 3341SOL    HW110051   4.370   4.330   4.897
 3341SOL    HW210052   4.400   4.184   4.963
 3342SOL     OW10053   2.330   0.480   4.513
 3342SOL    HW110054   2.296   0.388   4.492
 3342SOL    HW210055   2.289   0.546   4.451
 3343SOL     OW10056   0.119   2.118   3.418
 3343SOL    HW110057   0.115   2.025   3.382
 3343SOL    HW210058   0.094   2.183   3.345
 3344SOL     OW10059   3.626   0.445   1.301
 3344SOL    HW110060   3.589   0.354   1.321
 3344SOL    HW210061   3.714   0.436   1.255
 3345SOL     OW10062   4.169   3.011   3.154
 3345SOL    HW110063   4.133   2.938   3.096
 3345SOL    HW210064   4.137   2.998   3.248
 3346SOL     OW10065   0.120   4.702   4.382
 3346SOL    HW110066   0.215   4.719   4.404
 3346SOL    HW210067   0.114   4.648   4.297
 3347SOL     OW10068   4.962   4.532   3.612
 3347SOL    HW110069   4.905   4.468   3.663
 3347SOL    HW210070   0.019   4.494   3.602
 3348SOL     OW10071   2.407   0.260   1.975
 3348SOL    HW110072   2.503   0.254   1.950
 3348SOL    HW210073   2.394   0.333   2.042
 3349SOL     OW10074   2.455   3.536   0.894
 3349SOL    HW110075   2.376   3.482   0.866
 3349SOL    HW210076   2.424   3.625   0.927
 3350SOL     OW10077   2.409   4.072   3.027
 3350SOL    HW110078   2.406   4.038   2.933
 3350SOL    HW210079   2.316   4.082   3.062
 3351SOL     OW10080   4.676   0.486   0.477
 3351SOL    HW110081   4.577   0.472   0.475
 3351SOL    HW210082   4.696   0.584   0.473
 3352SOL     OW10083   2.764   0.423   1.528
 3352SOL    HW110084   2.741   0.459   1.437
 3352SOL    HW210085   2.852   0.461   1.557
 3353SOL     OW10086   1.500   2.468   4.913
 3353SOL    HW110087   1.590   2.476   4.869
 3353SOL    HW210088   1.429   2.474   4.844
 3354SOL     OW10089   4.490   3.651   3.367
 3354SOL    HW110090   4.436   3.725   3.407
 3354SOL    HW210091   4.440   3.565   3.376
 3355SOL     OW10092   2.810   0.153   1.080
 3355SOL    HW110093   2.796   0.237   1.027
 3355SOL    HW210094   2.739   0.146   1.150
 3356SOL     OW10095   3.334   2.460   0.656
 3356SOL    HW110096   3.309   2.385   0.595
 3356SOL    HW210097   3.346   2.425   0.749
 3357SOL     OW10098   1.674   0.365   3.415
 3357SOL    HW110099   1.687   0.317   3.328
 3357SOL    HW210100   1.600   0.430   3.407
 3358SOL     OW10101   1.806   2.461   0.631
 3358SOL    HW110102   1.764   2.544   0.666
 3358SOL    HW210103   1.736   2.391   0.616
 3359SOL     OW10104   2.375   0.375   4.204
 3359SOL    HW110105   2.380   0.472   4.231
 3359SOL    HW210106   2.351   0.368   4.108
 3360SOL     OW10107   4.760   3.534   1.006
 3360SOL    HW110108   4.834   3.602   1.002
 3360SOL    HW210109   4.672   3.582   1.000
 3361SOL     OW10110   2.020   1.312   3.442
 3361SOL    HW110111   2.039   1.348   3.350
 3361SOL    HW210112   2.045   1.215   3.445
 3362SOL     OW10113   4.323   4.014   1.503
 3362SOL    HW110114   4.337   4.073   1.423
 3362SOL    HW210115   4.412   3.992   1.543
 3363SOL     OW10116   0.539   3.925   2.014
 3363SOL    HW110117   0.512   3.950   1.921
 3363SOL    HW210118   0.621   3.867   2.011
 3364SOL     OW10119   2.418   2.680   1.862
 3364SOL    HW110120   2.428   2.760   1.922
 3364SOL    HW210121   2.492   2.679   1.795
 3365SOL     OW10122   4.714   2.473   4.918
 3365SOL    HW110123   4.788   2.418   4.880
 3365SOL    HW210124   4.746   2.567   4.933
 3366SOL     OW10125   2.160   0.513   1.408
 3366SOL    HW110126   2.066   0.542   1.388
 3366SOL    HW210127   2.198   0.467   1.328
 3367SOL     OW10128   2.119   0.143   0.449
 3367SOL    HW110129   2.217   0.123   0.452
 3367SOL    HW210130   2.071   0.081   0.512
 3368SOL     OW10131   1.685   3.168   3.847
 3368SOL    HW110132   1.764   3.107   3.855
 3368SOL    HW210133   1.690   3.219   3.761
 3369SOL     OW10134   0.067   5.030   4.887
 3369SOL    HW110135   0.158   0.009   4.849
 3369SOL    HW210136   0.018   0.083   4.891
 3370SOL     OW10137   4.175   4.197   0.140
 3370SOL    HW110138   4.101   4.263   0.129
 3370SOL    HW210139   4.251   4.222   0.080
 3371SOL     OW10140   2.487   1.433   2.694
 3371SOL    HW110141   2.538   1.417   2.778
 3371SOL    HW210142   2.389   1.420   2.711
 3372SOL     OW10143   4.576   4.311   4.382
 3372SOL    HW110144   4.625   4.383   4.331
 3372SOL    HW210145   4.480   4.338   4.393
 3373SOL     OW10146   2.024   3.074   0.420
 3373SOL    HW110147   1.967   3.123   0.354
 3373SOL    HW210148   2.120   3.094   0.402
 3374SOL     OW10149   2.892   3.617   4.358
 3374SOL    HW110150   2.927   3.530   4.392
 3374SOL    HW210151   2.907   3.623   4.259
 3375SOL     OW10152   1.044   2.863   0.824
 3375SOL    HW110153   1.058   2.766   0.806
 3375SOL    HW210154   1.079   2.917   0.748
 3376SOL     OW10155   3.312   1.906   3.856
 3376SOL    HW110156   3.326   1.975   3.784
 3376SOL    HW210157   3.297   1.817   3.813
 3377SOL     OW10158   3.343   3.224   2.450
 3377SOL    HW110159   3.361   3.176   2.536
 3377SOL    HW210160   3.330   3.322   2.468
 3378SOL     OW10161   3.125   0.987   4.702
 3378SOL    HW110162   3.103   0.891   4.688
 3378SOL    HW210163   3.187   0.995   4.781
 3379SOL     OW10164   4.164   4.518   2.452
 3379SOL    HW110165   4.127   4.601   2.493
 3379SOL    HW210166   4.250   4.494   2.497
 3380SOL     OW10167   4.961   1.083   2.354
 3380SOL    HW110168   4.928   1.045   2.267
 3380SOL    HW210169   4.954   1.014   2.426
 3381SOL     OW10170   4.613   0.185   4.248
 3381SOL    HW110171   4.515   0.202   4.257
 3381SOL    HW210172   4.630   0.087   4.258
 3382SOL     OW10173   0.724   0.330   0.215
 3382SOL    HW110174   0.652   0.262   0.201
 3382SOL    HW210175   0.791   0.295   0.281
 3383SOL     OW10176   3.206   2.217   2.972
 3383SOL    HW110177   3.235   2.130   3.013
 3383SOL    HW210178   3.106   2.219   2.967
 3384SOL     OW10179   1.410   1.922   3.628
 3384SOL    HW110180   1.346   1.849   3.650
 3384SOL    HW210181   1.377   1.973   3.548
 3385SOL     OW10182   4.964   3.667   2.409
 3385SOL    HW110183   4.919   3.736   2.353
 3385SOL    HW210184   4.979   3.704   2.501
 3386SOL     OW10185   2.068   1.067   1.785
 3386SOL    HW110186   2.053   1.015   1.869
 3386SOL    HW210187   2.024   1.156   1.791
 3387SOL     OW10188   1.023   3.061   0.100
 3387SOL    HW110189   0.948   3.088   0.038
 3387SOL    HW210190   1.050   3.140   0.155
 3388SOL     OW10191   0.402   0.450   2.982
 3388SOL    HW110192   0.353   0.386   3.041
 3388SOL    HW210193   0.401   0.541   3.024
 3389SOL     OW10194   0.783   4.884   0.556
 3389SOL    HW110195   0.695   4.883   0.508
 3389SOL    HW210196   0.767   4.890   0.655
 3390SOL     OW10197   0.074   0.774   2.328
 3390SOL    HW110198   0.170   0.798   2.345
 3390SOL    HW210199   0.033   0.844   2.270
 3391SOL     OW10200   1.210   3.701   0.862
 3391SOL    HW110201   1.159   3.726   0.779
 3391SOL    HW210202   1.149   3.654   0.925
 3392SOL     OW10203   1.728   0.656   3.513
 3392SOL    HW110204   1.709   0.636   3.417
 3392SOL    HW210205   1.822   0.630   3.535
 3393SOL     OW10206   4.148   3.976   2.898
 3393SOL    HW110207   4.065   4.006   2.851
 3393SOL    HW210208   4.124   3.939   2.987
 3394SOL     OW10209   2.100   0.330   4.237
 3394SOL    HW110210   2.199   0.342   4.245
 3394SOL    HW210211   2.058   0.344   4.327
 3395SOL     OW10212   1.686   0.291   3.739
 3395SOL    HW110213   1.640   0.346   3.809
 3395SOL    HW210214   1.704   0.348   3.658
 3396SOL     OW10215   3.496   4.474   0.943
 3396SOL    HW110216   3.452   4.557   0.976
 3396SOL    HW210217   3.531   4.489   0.851
 3397SOL     OW10218   1.764   4.648   2.287
 3397SOL    HW110219   1.731   4.740   2.306
 3397SOL    HW210220   1.690   4.593   2.248
 3398SOL     OW10221   3.231   1.088   2.382
 3398SOL    HW110222   3.291   1.008   2.377
 3398SOL    HW210223   3.199   1.111   2.290
 3399SOL     OW10224   1.880   1.016   3.468
 3399SOL    HW110225   1.849   1.091   3.526
 3399SOL    HW210226   1.938   0.954   3.521
 3400SOL     OW10227   1.929   1.724   0.948
 3400SOL    HW110228   1.877   1.711   0.863
 3400SOL    HW210229   1.875   1.780   1.011
 3401SOL     OW10230   2.482   3.436   4.189
 3401SOL    HW110231   2.504   3.391   4.103
 3401SOL    HW210232   2.391   3.409   4.218
 3402SOL     OW10233   0.484   0.169   0.494
 3402SOL    HW110234   0.399   0.126   0.465
 3402SOL    HW210235   0.493   0.258   0.451
 3403SOL     OW10236   2.081   1.902   1.670
 3403SOL    HW110237   2.031   1.849   1.600
 3403SOL    HW210238   2.036   1.991   1.681
 3404SOL     OW10239   1.998   3.305   0.581
 3404SOL    HW110240   1.994   3.224   0.523
 3404SOL    HW210241   1.947   3.288   0.665
 3405SOL     OW10242   0.534   1.647   1.633
 3405SOL    HW110243   0.568   1.713   1.567
 3405SOL    HW210244   0.451   1.603   1.597
 3406SOL     OW10245   4.870   3.742   0.406
 3406SOL    HW110246   4.910   3.731   0.315
 3406SOL    HW210247   4.940   3.770   0.471
 3407SOL     OW10248   3.502   3.552   3.904
 3407SOL    HW110249   3.537   3.638   3.941
 3407SOL    HW210250   3.507   3.554   3.804
 3408SOL     OW10251   1.079   4.875   0.152
 3408SOL    HW110252   1.049   4.816   0.078
 3408SOL    HW210253   1.047   4.838   0.240
 3409SOL     OW10254   2.845   3.393   1.550
 3409SOL    HW110255   2.793   3.355   1.474
 3409SOL    HW210256   2.790   3.462   1.597
 3410SOL     OW10257   3.063   1.910   3.975
 3410SOL    HW110258   3.011   1.904   3.890
 3410SOL    HW210259   3.161   1.912   3.954
 3411SOL     OW10260   3.816   0.731   0.085
 3411SOL    HW110261   3.829   0.828   0.065
 3411SOL    HW210262   3.850   0.676   0.009
 3412SOL     OW10263   4.187   0.790   4.836
 3412SOL    HW110264   4.245   0.826   4.909
 3412SOL    HW210265   4.188   0.690   4.840
 3413SOL     OW10266   0.660   2.851   4.558
 3413SOL    HW110267   0.744   2.855   4.503
 3413SOL    HW210268   0.620   2.942   4.564
 3414SOL     OW10269   0.577   1.845   2.188
 3414SOL    HW110270   0.499   1.783   2.188
 3414SOL    HW210271   0.657   1.798   2.224
 3415SOL     OW10272   3.712   1.551   1.651
 3415SOL    HW110273   3.779   1.590   1.714
 3415SOL    HW210274   3.621   1.559   1.691
 3416SOL     OW10275   0.626   2.183   3.350
 3416SOL    HW110276   0.659   2.239   3.273
 3416SOL    HW210277   0.693   2.185   3.424
 3417SOL     OW10278   3.746   2.045   3.406
 3417SOL    HW110279   3.837   2.044   3.367
 3417SOL    HW210280   3.752   2.055   3.505
 3418SOL     OW10281   1.153   0.840   1.567
 3418SOL    HW110282   1.081   0.813   1.503
 3418SOL    HW210283   1.116   0.906   1.632
 3419SOL     OW10284   4.073   1.948   4.823
 3419SOL    HW110285   4.139   1.879   4.853
 3419SOL    HW210286   3.983   1.907   4.813
 3420SOL     OW10287   4.694   0.690   2.352
 3420SOL    HW110288   4.742   0.612   2.392
 3420SOL    HW210289   4.675   0.758   2.423
 3421SOL     OW10290   1.024   2.355   0.653
 3421SOL    HW110291   1.097   2.336   0.719
 3421SOL    HW210292   1.064   2.360   0.561
 3422SOL     OW10293   1.466   1.338   0.741
 3422SOL    HW110294   1.521   1.415   0.774
 3422SOL    HW210295   1.521   1.254   0.745
 3423SOL     OW10296   4.272   1.816   4.964
 3423SOL    HW110297   4.370   1.820   4.945
 3423SOL    HW210298   4.242   1.903   5.003
 3424SOL     OW10299   1.219   3.322   3.062
 3424SOL    HW110300   1.314   3.341   3.040
 3424SOL    HW210301   1.203   3.341   3.159
 3425SOL     OW10302   3.497   2.942   4.035
 3425SOL    HW110303   3.590   2.979   4.038
 3425SOL    HW210304   3.453   2.955   4.124
 3426SOL     OW10305   3.567   4.300   3.729
 3426SOL    HW110306   3.511   4.380   3.751
 3426SOL    HW210307   3.557   4.232   3.803
 3427SOL     OW10308   0.435   4.431   3.213
 3427SOL    HW110309   0.353   4.386   3.248
 3427SOL    HW210310   0.414   4.527   3.192
 3428SOL     OW10311   3.113   1.242   2.575
 3428SOL    HW110312   3.051   1.180   2.622
 3428SOL    HW210313   3.158   1.194   2.500
 3429SOL     OW10314   0.278   0.083   4.723
 3429SOL    HW110315   0.284   0.002   4.666
 3429SOL    HW210316   0.306   0.163   4.670
 3430SOL     OW10317   0.520   4.245   4.956
 3430SOL    HW110318   0.523   4.165   4.896
 3430SOL    HW210319   0.432   4.291   4.944
 3431SOL     OW10320   3.162   1.583   3.140
 3431SOL    HW110321   3.243   1.634   3.167
 3431SOL    HW210322   3.091   1.646   3.109
 3432SOL     OW10323   1.925   1.656   2.689
 3432SOL    HW110324   2.018   1.686   2.669
 3432SOL    HW210325   1.870   1.659   2.605
 3433SOL     OW10326   5.004   5.023   3.749
 3433SOL    HW110327   4.987   4.979   3.661
 3433SOL    HW210328   4.975   4.963   3.823
 3434SOL     OW10329   1.439   4.459   0.108
 3434SOL    HW110330   1.392   4.547   0.117
 3434SOL    HW210331   1.465   4.445   0.012
 3435SOL     OW10332   1.034   0.961   2.965
 3435SOL    HW110333   0.945   0.995   2.993
 3435SOL    HW210334   1.032   0.861   2.959
 3436SOL     OW10335   4.582   2.174   1.089
 3436SOL    HW110336   4.591   2.247   1.021
 3436SOL    HW210337   4.551   2.213   1.176
 3437SOL     OW10338   4.605   4.893   2.655
 3437SOL    HW110339   4.678   4.929   2.712
 3437SOL    HW210340   4.528   4.956   2.655
 3438SOL     OW10341   3.761   0.449   0.632
 3438SOL    HW110342   3.781   0.543   0.660
 3438SOL    HW210343   3.664   0.441   0.611
 3439SOL     OW10344   0.391   3.357   1.241
 3439SOL    HW110345   0.356   3.267   1.218
 3439SOL    HW210346   0.414   3.406   1.157
 3440SOL     OW10347   0.768   4.984   4.529
 3440SOL    HW110348   0.797   4.891   4.552
 3440SOL    HW210349   0.691   5.010   4.586
 3441SOL     OW10350   3.664   1.515   0.469
 3441SOL    HW110351   3.636   1.419   0.460
 3441SOL    HW210352   3.718   1.526   0.552
 3442SOL     OW10353   1.454   0.989   4.096
 3442SOL    HW110354   1.390   1.013   4.169
 3442SOL    HW210355   1.440   0.894   4.069
 3443SOL     OW10356   4.577   3.778   2.081
 3443SOL    HW110357   4.581   3.795   2.179
 3443SOL    HW210358   4.485   3.746   2.057
 3444SOL     OW10359   2.660   4.178   3.685
 3444SOL    HW110360   2.699   4.264   3.718
 3444SOL    HW210361   2.702   4.101   3.733
 3445SOL     OW10362   3.019   2.117   3.783
 3445SOL    HW110363   3.107   2.143   3.743
 3445SOL    HW210364   3.021   2.134   3.882
 3446SOL     OW10365   2.778   0.738   1.465
 3446SOL    HW110366   2.689   0.727   1.509
 3446SOL    HW210367   2.851   0.718   1.531
 3447SOL     OW10368   3.348   4.218   4.457
 3447SOL    HW110369   3.419   4.192   4.522
 3447SOL    HW210370   3.392   4.253   4.374
 3448SOL     OW10371   1.686   3.701   4.461
 3448SOL    HW110372   1.766   3.724   4.517
 3448SOL    HW210373   1.605   3.743   4.501
 3449SOL     OW10374   3.794   3.447   3.053
 3449SOL    HW110375   3.811   3.369   3.113
 3449SOL    HW210376   3.761   3.414   2.965
 3450SOL     OW10377   3.528   0.190   1.310
 3450SOL    HW110378   3.563   0.114   1.364
 3450SOL    HW210379   3.512   0.160   1.216
 3451SOL     OW10380   3.398   1.216   1.535
 3451SOL    HW110381   3.451   1.182   1.458
 3451SOL    HW210382   3.309   1.170   1.538
 3452SOL     OW10383   3.444   1.218   3.543
 3452SOL    HW110384   3.442   1.120   3.529
 3452SOL    HW210385   3.376   1.262   3.485
 3453SOL     OW10386   4.452   1.386   2.492
 3453SOL    HW110387   4.434   1.446   2.569
 3453SOL    HW210388   4.442   1.437   2.406
 3454SOL     OW10389   1.736   3.431   2.450
 3454SOL    HW110390   1.713   3.466   2.540
 3454SOL    HW210391   1.653   3.410   2.399
 3455SOL     OW10392   2.639   4.386   4.319
 3455SOL    HW110393   2.607   4.296   4.289
 3455SOL    HW210394   2.580   4.420   4.393
 3456SOL     OW10395   3.439   0.698   3.927
 3456SOL    HW110396   3.517   0.689   3.865
 3456SOL    HW210397   3.467   0.674   4.020
 3457SOL     OW10398   3.791   3.431   0.836
 3457SOL    HW110399   3.885   3.444   0.865
 3457SOL    HW210400   3.787   3.423   0.736
 3458SOL     OW10401   0.094   3.209   4.668
 3458SOL    HW110402   0.138   3.162   4.745
 3458SOL    HW210403   0.140   3.297   4.653
 3459SOL     OW10404   1.754   0.162   0.996
 3459SOL    HW110405   1.830   0.203   0.946
 3459SOL    HW210406   1.789   0.113   1.076
 3460SOL     OW10407   3.981   2.973   3.959
 3460SOL    HW110408   3.885   2.950   3.976
 3460SOL    HW210409   4.013   3.035   4.029
 3461SOL     OW10410   0.469   1.271   3.681
 3461SOL    HW110411   0.515   1.188   3.714
 3461SOL    HW210412   0.482   1.344   3.749
 3462SOL     OW10413   4.252   4.846   3.305
 3462SOL    HW110414   4.309   4.881   3.230
 3462SOL    HW210415   4.306   4.782   3.359
 3463SOL     OW10416   3.228   5.016   1.405
 3463SOL    HW110417   3.154   4.953   1.428
 3463SOL    HW210418   3.284   5.032   1.486
 3464SOL     OW10419   0.176   2.893   2.590
 3464SOL    HW110420   0.253   2.943   2.552
 3464SOL    HW210421   0.153   2.816   2.530
 3465SOL     OW10422   3.866   3.925   1.502
 3465SOL    HW110423   3.933   3.853   1.518
 3465SOL    HW210424   3.776   3.894   1.532
 3466SOL     OW10425   0.052   0.189   3.913
 3466SOL    HW110426   0.017   0.111   3.862
 3466SOL    HW210427   5.014   0.256   3.928
 3467SOL     OW10428   5.007   4.059   2.467
 3467SOL    HW110429   0.009   4.130   2.526
 3467SOL    HW210430   5.008   4.090   2.372
 3468SOL     OW10431   1.236   3.440   1.770
 3468SOL    HW110432   1.248   3.347   1.736
 3468SOL    HW210433   1.307   3.461   1.837
 3469SOL     OW10434   3.355   2.706   1.118
 3469SOL    HW110435   3.298   2.762   1.058
 3469SOL    HW210436   3.427   2.763   1.158
 3470SOL     OW10437   3.887   2.028   0.011
 3470SOL    HW110438   3.892   2.084   0.094
 3470SOL    HW210439   3.976   1.988   5.028
 3471SOL     OW10440   4.945   1.035   2.783
 3471SOL    HW110441   4.993   1.096   2.720
 3471SOL    HW210442   4.982   0.943   2.774
 3472SOL     OW10443   1.981   0.222   3.055
 3472SOL    HW110444   2.025   0.141   3.094
 3472SOL    HW210445   2.051   0.293   3.039
 3473SOL     OW10446   4.199   2.099   0.330
 3473SOL    HW110447   4.281   2.140   0.370
 3473SOL    HW210448   4.176   2.015   0.378
 3474SOL     OW10449   2.880   1.574   3.090
 3474SOL    HW110450   2.882   1.670   3.118
 3474SOL    HW210451   2.879   1.516   3.172
 3475SOL     OW10452   1.948   3.711   3.057
 3475SOL    HW110453   1.858   3.667   3.056
 3475SOL    HW210454   1.979   3.719   3.152
 3476SOL     OW10455   3.849   4.141   3.696
 3476SOL    HW110456   3.948   4.152   3.704
 3476SOL    HW210457   3.824   4.136   3.599
 3477SOL     OW10458   2.854   0.198   3.229
 3477SOL    HW110459   2.879   0.111   3.186
 3477SOL    HW210460   2.860   0.272   3.161
 3478SOL     OW10461   0.666   4.739   1.930
 3478SOL    HW110462   0.600   4.795   1.879
 3478SOL    HW210463   0.657   4.644   1.902
 3479SOL     OW10464   3.129   1.214   0.536
 3479SOL    HW110465   3.101   1.271   0.459
 3479SOL    HW210466   3.081   1.243   0.618
 3480SOL     OW10467   3.300   0.866   0.696
 3480SOL    HW110468   3.200   0.870   0.687
 3480SOL    HW210469   3.324   0.802   0.769
 3481SOL     OW10470   3.522   0.755   0.096
 3481SOL    HW110471   3.537   0.678   0.033
 3481SOL    HW210472   3.599   0.763   0.159
 3482SOL     OW10473   2.123   2.222   0.398
 3482SOL    HW110474   2.092   2.257   0.309
 3482SOL    HW210475   2.208   2.267   0.424
 3483SOL     OW10476   3.881   0.953   3.775
 3483SOL    HW110477   3.924   0.929   3.688
 3483SOL    HW210478   3.910   1.045   3.802
 3484SOL     OW10479   0.792   2.492   3.679
 3484SOL    HW110480   0.724   2.557   3.712
 3484SOL    HW210481   0.848   2.536   3.608
 3485SOL     OW10482   3.190   1.859   3.238
 3485SOL    HW110483   3.176   1.857   3.139
 3485SOL    HW210484   3.175   1.952   3.272
 3486SOL     OW10485   1.979   3.102   3.007
 3486SOL    HW110486   1.991   3.030   2.940
 3486SOL    HW210487   1.903   3.079   3.068
 3487SOL     OW10488   3.497   2.159   4.562
 3487SOL    HW110489   3.464   2.250   4.540
 3487SOL    HW210490   3.556   2.163   4.642
 3488SOL     OW10491   3.623   2.229   4.806
 3488SOL    HW110492   3.539   2.278   4.830
 3488SOL    HW210493   3.686   2.230   4.885
 3489SOL     OW10494   4.076   3.356   0.672
 3489SOL    HW110495   4.013   3.423   0.633
 3489SOL    HW210496   4.062   3.267   0.628
 3490SOL     OW10497   1.057   0.299   2.551
 3490SOL    HW110498   0.979   0.269   2.496
 3490SOL    HW210499   1.128   0.228   2.549
 3491SOL     OW10500   1.242   2.920   1.607
 3491SOL    HW110501   1.219   2.835   1.559
 3491SOL    HW210502   1.333   2.950   1.579
 3492SOL     OW10503   0.677   4.379   2.948
 3492SOL    HW110504   0.685   4.283   2.975
 3492SOL    HW210505   0.759   4.406   2.897
 3493SOL     OW10506   4.061   1.291   4.510
 3493SOL    HW110507   4.130   1.274   4.581
 3493SOL    HW210508   4.042   1.205   4.461
 3494SOL     OW10509   1.843   1.289   4.041
 3494SOL    HW110510   1.853   1.242   3.953
 3494SOL    HW210511   1.764   1.350   4.037
 3495SOL     OW10512   3.368   2.851   2.959
 3495SOL    HW110513   3.436   2.801   3.012
 3495SOL    HW210514   3.328   2.923   3.016
 3496SOL     OW10515   2.286   3.224   2.899
 3496SOL    HW110516   2.283   3.282   2.980
 3496SOL    HW210517   2.196   3.226   2.854
 3497SOL     OW10518   3.228   1.030   2.780
 3497SOL    HW110519   3.197   0.950   2.830
 3497SOL    HW210520   3.213   1.112   2.836
 3498SOL     OW10521   3.289   1.440   4.896
 3498SOL    HW110522   3.220   1.491   4.946
 3498SOL    HW210523   3.280   1.458   4.798
 3499SOL     OW10524   0.115   3.578   1.718
 3499SOL    HW110525   0.100   3.606   1.812
 3499SOL    HW210526   0.045   3.511   1.691
 3500SOL     OW10527   0.134   1.767   3.931
 3500SOL    HW110528   0.093   1.835   3.992
 3500SOL    HW210529   0.067   1.741   3.861
 3501SOL     OW10530   2.444   4.096   0.485
 3501SOL    HW110531   2.540   4.123   0.493
 3501SOL    HW210532   2.409   4.068   0.575
 3502SOL     OW10533   5.033   3.133   1.945
 3502SOL    HW110534   4.999   3.047   1.907
 3502SOL    HW210535   4.978   3.158   2.024
 3503SOL     OW10536   4.429   1.404   3.050
 3503SOL    HW110537   4.395   1.335   3.114
 3503SOL    HW210538   4.356   1.467   3.027
 3504SOL     OW10539   2.271   0.638   4.195
 3504SOL    HW110540   2.248   0.727   4.235
 3504SOL    HW210541   2.305   0.651   4.102
 3505SOL     OW10542   0.686   3.938   1.329
 3505SOL    HW110543   0.744   3.857   1.318
 3505SOL    HW210544   0.688   3.967   1.425
 3506SOL     OW10545   0.210   2.715   2.379
 3506SOL    HW110546   0.308   2.722   2.364
 3506SOL    HW210547   0.161   2.767   2.308
 3507SOL     OW10548   1.972   1.637   3.952
 3507SOL    HW110549   1.937   1.712   4.008
 3507SOL    HW210550   2.067   1.618   3.978
 3508SOL     OW10551   4.872   0.881   2.500
 3508SOL    HW110552   4.904   0.805   2.444
 3508SOL    HW210553   4.792   0.853   2.553
 3509SOL     OW10554   3.846   0.903   2.612
 3509SOL    HW110555   3.944   0.924   2.616
 3509SOL    HW210556   3.832   0.806   2.632
 3510SOL     OW10557   3.041   4.400   0.702
 3510SOL    HW110558   3.059   4.434   0.794
 3510SOL    HW210559   3.073   4.306   0.694
 3511SOL     OW10560   1.219   3.078   2.353
 3511SOL    HW110561   1.139   3.060   2.296
 3511SOL    HW210562   1.204   3.039   2.444
 3512SOL     OW10563   0.539   4.466   4.604
 3512SOL    HW110564   0.510   4.522   4.527
 3512SOL    HW210565   0.475   4.476   4.680
 3513SOL     OW10566   2.663   3.705   4.891
 3513SOL    HW110567   2.714   3.679   4.809
 3513SOL    HW210568   2.587   3.765   4.867
 3514SOL     OW10569   4.164   3.333   4.924
 3514SOL    HW110570   4.249   3.341   4.873
 3514SOL    HW210571   4.177   3.270   5.000
 3515SOL     OW10572   4.176   4.207   2.539
 3515SOL    HW110573   4.177   4.235   2.635
 3515SOL    HW210574   4.270   4.202   2.505
 3516SOL     OW10575   4.156   2.599   0.826
 3516SOL    HW110576   4.226   2.649   0.775
 3516SOL    HW210577   4.176   2.605   0.924
 3517SOL     OW10578   1.695   2.665   1.563
 3517SOL    HW110579   1.699   2.718   1.478
 3517SOL    HW210580   1.713   2.726   1.641
 3518SOL     OW10581   3.595   3.519   0.175
 3518SOL    HW110582   3.565   3.537   0.269
 3518SOL    HW210583   3.531   3.561   0.111
 3519SOL     OW10584   0.184   3.167   3.254
 3519SOL    HW110585   0.157   3.238   3.318
 3519SOL    HW210586   0.220   3.209   3.171
 3520SOL     OW10587   4.735   0.122   4.511
 3520SOL    HW110588   4.759   0.176   4.430
 3520SOL    HW210589   4.738   0.025   4.489
 3521SOL     OW10590   3.844   3.377   4.445
 3521SOL    HW110591   3.814   3.469   4.470
 3521SOL    HW210592   3.793   3.345   4.366
 3522SOL     OW10593   3.599   1.184   4.169
 3522SOL    HW110594   3.610   1.272   4.123
 3522SOL    HW210595   3.607   1.110   4.102
 3523SOL     OW10596   3.874   1.414   2.778
 3523SOL    HW110597   3.907   1.331   2.823
 3523SOL    HW210598   3.885   1.405   2.679
 3524SOL     OW10599   3.780   0.435   0.361
 3524SOL    HW110600   3.805   0.435   0.458
 3524SOL    HW210601   3.719   0.512   0.342
 3525SOL     OW10602   2.323   0.813   3.953
 3525SOL    HW110603   2.413   0.843   3.921
 3525SOL    HW210604   2.300   0.861   4.038
 3526SOL     OW10605   2.312   0.100   3.758
 3526SOL    HW110606   2.263   0.187   3.748
 3526SOL    HW210607   2.404   0.117   3.793
 3527SOL     OW10608   1.536   0.040   3.726
 3527SOL    HW110609   1.540   0.003   3.633
 3527SOL    HW210610   1.606   0.110   3.738
 3528SOL     OW10611   3.715   3.904   3.610
 3528SOL    HW110612   3.723   3.940   3.517
 3528SOL    HW210613   3.764   3.964   3.673
 3529SOL     OW10614   4.579   0.679   1.859
 3529SOL    HW110615   4.588   0.712   1.953
 3529SOL    HW210616   4.484   0.654   1.841
 3530SOL     OW10617   1.810   4.801   3.779
 3530SOL    HW110618   1.868   4.882   3.773
 3530SOL    HW210619   1.861   4.727   3.823
 3531SOL     OW10620   2.743   2.699   3.460
 3531SOL    HW110621   2.702   2.765   3.523
 3531SOL    HW210622   2.712   2.718   3.367
 3532SOL     OW10623   3.611   1.386   0.835
 3532SOL    HW110624   3.525   1.437   0.833
 3532SOL    HW210625   3.678   1.435   0.890
 3533SOL     OW10626   0.839   3.527   0.291
 3533SOL    HW110627   0.763   3.554   0.350
 3533SOL    HW210628   0.866   3.604   0.233
 3534SOL     OW10629   4.831   2.892   1.620
 3534SOL    HW110630   4.854   2.818   1.556
 3534SOL    HW210631   4.884   2.973   1.597
 3535SOL     OW10632   1.261   2.226   3.948
 3535SOL    HW110633   1.336   2.195   3.889
 3535SOL    HW210634   1.282   2.202   4.043
 3536SOL     OW10635   1.660   1.557   1.794
 3536SOL    HW110636   1.758   1.574   1.794
 3536SOL    HW210637   1.618   1.603   1.716
 3537SOL     OW10638   0.650   3.491   3.979
 3537SOL    HW110639   0.595   3.529   3.905
 3537SOL    HW210640   0.634   3.545   4.062
 3538SOL     OW10641   3.628   1.533   3.414
 3538SOL    HW110642   3.597   1.540   3.319
 3538SOL    HW210643   3.552   1.509   3.473
 3539SOL     OW10644   0.631   2.079   1.390
 3539SOL    HW110645   0.728   2.062   1.370
 3539SOL    HW210646   0.586   2.113   1.308
 3540SOL     OW10647   1.606   1.508   0.909
 3540SOL    HW110648   1.570   1.443   0.976
 3540SOL    HW210649   1.568   1.599   0.927
 3541SOL     OW10650   0.332   1.108   3.005
 3541SOL    HW110651   0.380   1.146   3.083
 3541SOL    HW210652   0.244   1.070   3.035
 3542SOL     OW10653   1.485   3.056   2.564
 3542SOL    HW110654   1.437   3.127   2.513
 3542SOL    HW210655   1.422   3.012   2.628
 3543SOL     OW10656   1.084   1.118   2.713
 3543SOL    HW110657   0.989   1.119   2.682
 3543SOL    HW210658   1.100   1.036   2.769
 3544SOL     OW10659   1.195   3.631   0.223
 3544SOL    HW110660   1.285   3.644   0.265
 3544SOL    HW210661   1.124   3.651   0.290
 3545SOL     OW10662   0.798   0.265   4.066
 3545SOL    HW110663   0.861   0.317   4.008
 3545SOL    HW210664   0.848   0.191   4.112
 3546SOL     OW10665   4.693   1.265   3.096
 3546SOL    HW110666   4.691   1.171   3.063
 3546SOL    HW210667   4.623   1.319   3.047
 3547SOL     OW10668   0.904   3.034   1.683
 3547SOL    HW110669   0.919   3.115   1.627
 3547SOL    HW210670   0.847   3.058   1.762
 3548SOL     OW10671   3.927   3.122   4.257
 3548SOL    HW110672   3.951   3.033   4.294
 3548SOL    HW210673   3.986   3.192   4.298
 3549SOL     OW10674   4.695   4.073   2.096
 3549SOL    HW110675   4.644   3.990   2.070
 3549SOL    HW210676   4.642   4.125   2.162
 3550SOL     OW10677   4.696   1.889   1.556
 3550SOL    HW110678   4.775   1.862   1.611
 3550SOL    HW210679   4.674   1.985   1.574
 3551SOL     OW10680   1.065   3.189   0.557
 3551SOL    HW110681   1.094   3.172   0.651
 3551SOL    HW210682   1.095   3.279   0.528
 3552SOL     OW10683   2.646   4.245   3.046
 3552SOL    HW110684   2.714   4.183   3.086
 3552SOL    HW210685   2.562   4.195   3.027
 3553SOL     OW10686   1.283   0.949   4.814
 3553SOL    HW110687   1.286   1.036   4.863
 3553SOL    HW210688   1.193   0.907   4.827
 3554SOL     OW10689   1.852   0.187   0.287
 3554SOL    HW110690   1.932   0.183   0.346
 3554SOL    HW210691   1.852   0.274   0.238
 3555SOL     OW10692   1.550   2.946   4.014
 3555SOL    HW110693   1.584   3.003   3.940
 3555SOL    HW210694   1.626   2.898   4.057
 3556SOL     OW10695   1.165   4.987   1.964
 3556SOL    HW110696   1.207   0.015   1.898
 3556SOL    HW210697   1.193   5.012   2.057
 3557SOL     OW10698   2.751   1.324   0.407
 3557SOL    HW110699   2.713   1.271   0.332
 3557SOL    HW210700   2.753   1.421   0.382
 3558SOL     OW10701   4.487   0.953   0.809
 3558SOL    HW110702   4.395   0.919   0.827
 3558SOL    HW210703   4.539   0.956   0.895
 3559SOL     OW10704   0.662   3.692   3.530
 3559SOL    HW110705   0.669   3.773   3.588
 3559SOL    HW210706   0.747   3.679   3.479
 3560SOL     OW10707   4.477   4.148   3.012
 3560SOL    HW110708   4.525   4.126   2.927
 3560SOL    HW210709   4.464   4.065   3.066
 3561SOL     OW10710   4.194   1.302   2.593
 3561SOL    HW110711   4.227   1.386   2.636
 3561SOL    HW210712   4.272   1.248   2.561
 3562SOL     OW10713   2.792   4.973   3.713
 3562SOL    HW110714   2.695   4.955   3.697
 3562SOL    HW210715   2.845   4.947   3.633
 3563SOL     OW10716   4.731   0.424   4.936
 3563SOL    HW110717   4.701   0.508   4.981
 3563SOL    HW210718   4.775   0.447   4.849
 3564SOL     OW10719   4.392   0.218   0.314
 3564SOL    HW110720   4.466   0.213   0.247
 3564SOL    HW210721   4.415   0.285   0.385
 3565SOL     OW10722   3.762   3.894   4.289
 3565SOL    HW110723   3.791   3.912   4.383
 3565SOL    HW210724   3.742   3.797   4.278
 3566SOL     OW10725   2.427   0.933   4.868
 3566SOL    HW110726   2.509   0.956   4.815
 3566SOL    HW210727   2.372   0.866   4.816
 3567SOL     OW10728   0.991   2.401   0.364
 3567SOL    HW110729   0.969   2.311   0.327
 3567SOL    HW210730   1.033   2.458   0.293
 3568SOL     OW10731   4.314   2.088   4.761
 3568SOL    HW110732   4.332   2.158   4.830
 3568SOL    HW210733   4.229   2.040   4.783
 3569SOL     OW10734   0.132   2.841   0.397
 3569SOL    HW110735   0.042   2.877   0.419
 3569SOL    HW210736   0.201   2.911   0.413
 3570SOL     OW10737   3.532   3.068   3.105
 3570SOL    HW110738   3.468   3.141   3.080
 3570SOL    HW210739   3.546   3.067   3.204
 3571SOL     OW10740   1.138   0.527   1.701
 3571SOL    HW110741   1.194   0.588   1.646
 3571SOL    HW210742   1.135   0.437   1.657
 3572SOL     OW10743   2.652   3.416   2.618
 3572SOL    HW110744   2.607   3.454   2.537
 3572SOL    HW210745   2.590   3.423   2.697
 3573SOL     OW10746   1.008   2.273   3.870
 3573SOL    HW110747   1.106   2.255   3.883
 3573SOL    HW210748   0.997   2.360   3.823
 3574SOL     OW10749   2.853   1.796   1.881
 3574SOL    HW110750   2.754   1.794   1.895
 3574SOL    HW210751   2.882   1.890   1.861
 3575SOL     OW10752   2.846   3.017   0.817
 3575SOL    HW110753   2.789   3.098   0.822
 3575SOL    HW210754   2.830   2.970   0.730
 3576SOL     OW10755   0.201   4.096   4.888
 3576SOL    HW110756   0.165   4.187   4.907
 3576SOL    HW210757   0.131   4.042   4.841
 3577SOL     OW10758   3.917   1.636   2.462
 3577SOL    HW110759   3.920   1.538   2.483
 3577SOL    HW210760   3.914   1.649   2.363
 3578SOL     OW10761   3.403   3.069   1.293
 3578SOL    HW110762   3.322   3.010   1.283
 3578SOL    HW210763   3.387   3.155   1.246
 3579SOL     OW10764   3.981   4.872   3.252
 3579SOL    HW110765   3.922   4.814   3.308
 3579SOL    HW210766   4.070   4.881   3.297
 3580SOL     OW10767   4.476   0.335   2.176
 3580SOL    HW110768   4.406   0.280   2.130
 3580SOL    HW210769   4.467   0.430   2.148
 3581SOL     OW10770   1.524   3.762   1.721
 3581SOL    HW110771   1.587   3.810   1.660
 3581SOL    HW210772   1.432   3.765   1.682
 3582SOL     OW10773   2.755   2.917   0.565
 3582SOL    HW110774   2.724   2.976   0.491
 3582SOL    HW210775   2.835   2.866   0.536
 3583SOL     OW10776   0.642   2.941   1.328
 3583SOL    HW110777   0.572   2.923   1.259
 3583SOL    HW210778   0.694   2.857   1.345
 3584SOL     OW10779   2.605   2.517   3.674
 3584SOL    HW110780   2.547   2.573   3.733
 3584SOL    HW210781   2.602   2.553   3.580
 3585SOL     OW10782   4.630   4.388   1.548
 3585SOL    HW110783   4.678   4.373   1.635
 3585SOL    HW210784   4.656   4.316   1.483
 3586SOL     OW10785   2.401   0.680   4.716
 3586SOL    HW110786   2.360   0.650   4.629
 3586SOL    HW210787   2.380   0.613   4.787
 3587SOL     OW10788   3.958   2.759   3.782
 3587SOL    HW110789   4.031   2.691   3.788
 3587SOL    HW210790   3.984   2.841   3.832
 3588SOL     OW10791   2.391   1.645   3.371
 3588SOL    HW110792   2.345   1.582   3.433
 3588SOL    HW210793   2.467   1.689   3.418
 3589SOL     OW10794   4.906   2.264   1.712
 3589SOL    HW110795   4.922   2.341   1.649
 3589SOL    HW210796   4.933   2.179   1.668
 3590SOL     OW10797   3.633   2.234   3.223
 3590SOL    HW110798   3.647   2.142   3.185
 3590SOL    HW210799   3.720   2.269   3.258
 3591SOL     OW10800   1.778   2.089   0.119
 3591SOL    HW110801   1.832   2.091   0.203
 3591SOL    HW210802   1.833   2.052   0.044
 3592SOL     OW10803   0.525   4.370   0.551
 3592SOL    HW110804   0.617   4.407   0.556
 3592SOL    HW210805   0.460   4.444   0.534
 3593SOL     OW10806   3.037   0.533   4.946
 3593SOL    HW110807   3.128   0.564   4.972
 3593SOL    HW210808   3.012   0.453   5.000
 3594SOL     OW10809   1.902   0.551   4.974
 3594SOL    HW110810   1.993   0.517   4.951
 3594SOL    HW210811   1.909   0.616   0.014
 3595SOL     OW10812   4.521   3.338   3.835
 3595SOL    HW110813   4.602   3.297   3.794
 3595SOL    HW210814   4.538   3.435   3.853
 3596SOL     OW10815   0.399   3.678   3.603
 3596SOL    HW110816   0.483   3.695   3.551
 3596SOL    HW210817   0.406   3.588   3.647
 3597SOL     OW10818   4.890   2.624   2.807
 3597SOL    HW110819   4.791   2.637   2.803
 3597SOL    HW210820   4.911   2.547   2.867
 3598SOL     OW10821   2.467   0.184   3.154
 3598SOL    HW110822   2.491   0.277   3.183
 3598SOL    HW210823   2.442   0.130   3.233
 3599SOL     OW10824   4.878   4.158   0.441
 3599SOL    HW110825   4.804   4.112   0.392
 3599SOL    HW210826   4.906   4.240   0.390
 3600SOL     OW10827   1.478   4.072   2.489
 3600SOL    HW110828   1.550   4.008   2.462
 3600SOL    HW210829   1.392   4.045   2.447
 3601SOL     OW10830   0.777   3.933   3.035
 3601SOL    HW110831   0.825   3.861   2.986
 3601SOL    HW210832   0.756   3.903   3.128
 3602SOL     OW10833   1.331   1.248   2.217
 3602SOL    HW110834   1.318   1.323   2.282
 3602SOL    HW210835   1.402   1.186   2.251
 3603SOL     OW10836   2.063   2.088   2.123
 3603SOL    HW110837   2.103   2.079   2.215
 3603SOL    HW210838   2.136   2.082   2.055
 3604SOL     OW10839   1.312   0.042   4.343
 3604SOL    HW110840   1.255   0.001   4.272
 3604SOL    HW210841   1.405   0.006   4.336
 3605SOL     OW10842   0.949   3.253   4.143
 3605SOL    HW110843   0.932   3.296   4.231
 3605SOL    HW210844   0.945   3.322   4.071
 3606SOL     OW10845   2.210   4.021   2.147
 3606SOL    HW110846   2.193   3.936   2.198
 3606SOL    HW210847   2.242   3.998   2.055
 3607SOL     OW10848   4.575   3.624   3.882
 3607SOL    HW110849   4.566   3.675   3.968
 3607SOL    HW210850   4.490   3.632   3.830
 3608SOL     OW10851   0.513   1.335   2.185
 3608SOL    HW110852   0.576   1.399   2.141
 3608SOL    HW210853   0.511   1.354   2.283
 3609SOL     OW10854   1.718   3.235   3.188
 3609SOL    HW110855   1.639   3.249   3.247
 3609SOL    HW210856   1.701   3.156   3.128
 3610SOL     OW10857   3.911   2.159   0.961
 3610SOL    HW110858   3.887   2.249   0.999
 3610SOL    HW210859   3.834   2.122   0.910
 3611SOL     OW10860   0.549   3.510   2.652
 3611SOL    HW110861   0.527   3.605   2.631
 3611SOL    HW210862   0.465   3.460   2.673
 3612SOL     OW10863   4.106   0.572   2.112
 3612SOL    HW110864   4.067   0.580   2.020
 3612SOL    HW210865   4.204   0.554   2.106
 3613SOL     OW10866   0.971   2.822   1.473
 3613SOL    HW110867   0.953   2.893   1.541
 3613SOL    HW210868   0.942   2.733   1.509
 3614SOL     OW10869   4.979   3.361   2.742
 3614SOL    HW110870   4.947   3.310   2.662
 3614SOL    HW210871   5.002   3.454   2.715
 3615SOL     OW10872   0.912   0.040   0.976
 3615SOL    HW110873   0.984   5.027   1.025
 3615SOL    HW210874   0.907   0.135   1.009
 3616SOL     OW10875   3.820   1.925   3.103
 3616SOL    HW110876   3.835   1.868   3.184
 3616SOL    HW210877   3.776   1.870   3.031
 3617SOL     OW10878   2.741   1.104   3.185
 3617SOL    HW110879   2.736   1.142   3.092
 3617SOL    HW210880   2.816   1.038   3.190
 3618SOL     OW10881   3.877   4.299   1.869
 3618SOL    HW110882   3.828   4.243   1.803
 3618SOL    HW210883   3.846   4.276   1.961
 3619SOL     OW10884   4.727   1.195   2.455
 3619SOL    HW110885   4.799   1.143   2.411
 3619SOL    HW210886   4.640   1.145   2.447
 3620SOL     OW10887   1.568   3.214   1.331
 3620SOL    HW110888   1.530   3.303   1.353
 3620SOL    HW210889   1.652   3.199   1.383
 3621SOL     OW10890   3.234   4.516   1.618
 3621SOL    HW110891   3.139   4.532   1.591
 3621SOL    HW210892   3.285   4.602   1.610
 3622SOL     OW10893   3.952   1.019   2.212
 3622SOL    HW110894   3.901   1.104   2.198
 3622SOL    HW210895   3.950   0.965   2.127
 3623SOL     OW10896   3.225   1.136   3.318
 3623SOL    HW110897   3.265   1.044   3.326
 3623SOL    HW210898   3.178   1.159   3.403
 3624SOL     OW10899   1.260   0.377   4.881
 3624SOL    HW110900   1.201   0.446   4.839
 3624SOL    HW210901   1.208   0.326   4.949
 3625SOL     OW10902   3.298   3.375   2.146
 3625SOL    HW110903   3.319   3.280   2.125
 3625SOL    HW210904   3.241   3.379   2.228
 3626SOL     OW10905   1.155   1.771   0.881
 3626SOL    HW110906   1.210   1.810   0.955
 3626SOL    HW210907   1.155   1.671   0.889
 3627SOL     OW10908   3.003   1.594   4.850
 3627SOL    HW110909   3.065   1.671   4.866
 3627SOL    HW210910   2.989   1.582   4.752
 3628SOL     OW10911   1.774   1.244   1.714
 3628SOL    HW110912   1.731   1.167   1.667
 3628SOL    HW210913   1.713   1.277   1.786
 3629SOL     OW10914   3.159   4.417   4.353
 3629SOL    HW110915   3.069   4.428   4.395
 3629SOL    HW210916   3.229   4.450   4.415
 3630SOL     OW10917   1.071   3.053   3.915
 3630SOL    HW110918   1.102   2.966   3.954
 3630SOL    HW210919   0.977   3.072   3.945
 3631SOL     OW10920   0.824   1.395   2.227
 3631SOL    HW110921   0.917   1.429   2.213
 3631SOL    HW210922   0.772   1.407   2.143
 3632SOL     OW10923   3.203   5.010   0.738
 3632SOL    HW110924   3.154   0.001   0.821
 3632SOL    HW210925   3.227   0.058   0.687
 3633SOL     OW10926   4.102   1.660   2.689
 3633SOL    HW110927   4.044   1.644   2.609
 3633SOL    HW210928   4.047   1.704   2.761
 3634SOL     OW10929   2.438   0.565   0.012
 3634SOL    HW110930   2.406   0.471   0.015
 3634SOL    HW210931   2.360   0.627   0.005
 3635SOL     OW10932   4.516   1.167   0.065
 3635SOL    HW110933   4.498   1.167   0.163
 3635SOL    HW210934   4.473   1.087   0.023
 3636SOL     OW10935   1.702   4.261   0.607
 3636SOL    HW110936   1.662   4.172   0.586
 3636SOL    HW210937   1.796   4.265   0.572
 3637SOL     OW10938   3.876   2.469   0.714
 3637SOL    HW110939   3.776   2.465   0.712
 3637SOL    HW210940   3.908   2.444   0.805
 3638SOL     OW10941   2.788   3.368   3.362
 3638SOL    HW110942   2.768   3.271   3.368
 3638SOL    HW210943   2.886   3.383   3.357
 3639SOL     OW10944   4.709   0.388   0.854
 3639SOL    HW110945   4.716   0.340   0.767
 3639SOL    HW210946   4.631   0.354   0.906
 3640SOL     OW10947   0.076   1.249   1.534
 3640SOL    HW110948   5.019   1.250   1.495
 3640SOL    HW210949   0.092   1.334   1.584
 3641SOL     OW10950   0.553   0.676   4.937
 3641SOL    HW110951   0.477   0.627   4.894
 3641SOL    HW210952   0.520   0.765   4.970
 3642SOL     OW10953   1.276   3.230   1.437
 3642SOL    HW110954   1.268   3.150   1.378
 3642SOL    HW210955   1.238   3.209   1.527
 3643SOL     OW10956   0.064   3.879   1.736
 3643SOL    HW110957   0.030   3.863   1.829
 3643SOL    HW210958   0.026   3.810   1.674
 3644SOL     OW10959   3.776   0.908   1.210
 3644SOL    HW110960   3.756   0.822   1.164
 3644SOL    HW210961   3.692   0.944   1.252
 3645SOL     OW10962   2.989   1.301   1.950
 3645SOL    HW110963   2.981   1.378   2.014
 3645SOL    HW210964   2.970   1.332   1.858
 3646SOL     OW10965   3.462   2.457   4.556
 3646SOL    HW110966   3.365   2.477   4.563
 3646SOL    HW210967   3.507   2.480   4.642
 3647SOL     OW10968   4.291   4.402   4.003
 3647SOL    HW110969   4.370   4.343   3.986
 3647SOL    HW210970   4.311   4.463   4.080
 3648SOL     OW10971   1.596   2.854   0.256
 3648SOL    HW110972   1.680   2.882   0.302
 3648SOL    HW210973   1.592   2.898   0.166
 3649SOL     OW10974   2.643   2.326   1.426
 3649SOL    HW110975   2.600   2.271   1.354
 3649SOL    HW210976   2.716   2.273   1.469
 3650SOL     OW10977   0.363   1.679   3.162
 3650SOL    HW110978   0.326   1.682   3.255
 3650SOL    HW210979   0.318   1.606   3.110
 3651SOL     OW10980   4.887   0.736   2.005
 3651SOL    HW110981   4.870   0.651   2.055
 3651SOL    HW210982   4.914   0.714   1.911
 3652SOL     OW10983   3.889   0.231   3.415
 3652SOL    HW110984   3.845   0.160   3.360
 3652SOL    HW210985   3.969   0.192   3.461
 3653SOL     OW10986   0.110   2.460   3.975
 3653SOL    HW110987   0.051   2.411   3.911
 3653SOL    HW210988   0.053   2.513   4.039
 3654SOL     OW10989   0.274   3.816   4.672
 3654SOL    HW110990   0.247   3.790   4.765
 3654SOL    HW210991   0.204   3.874   4.631
 3655SOL     OW10992   3.237   3.133   3.693
 3655SOL    HW110993   3.282   3.205   3.746
 3655SOL    HW210994   3.223   3.053   3.751
 3656SOL     OW10995   1.535   4.105   3.532
 3656SOL    HW110996   1.624   4.060   3.543
 3656SOL    HW210997   1.489   4.067   3.452
 3657SOL     OW10998   2.142   4.947   4.513
 3657SOL    HW110999   2.129   4.962   4.415
 3657SOL    HW211000   2.096   4.862   4.540
 3658SOL     OW11001   3.852   0.682   3.504
 3658SOL    HW111002   3.896   0.760   3.548
 3658SOL    HW211003   3.902   0.659   3.420
 3659SOL     OW11004   0.075   4.391   3.860
 3659SOL    HW111005   0.166   4.367   3.827
 3659SOL    HW211006   0.052   4.332   3.938
 3660SOL     OW11007   0.222   3.874   1.346
 3660SOL    HW111008   0.280   3.816   1.404
 3660SOL    HW211009   0.272   3.899   1.264
 3661SOL     OW11010   1.752   1.761   4.458
 3661SOL    HW111011   1.694   1.747   4.377
 3661SOL    HW211012   1.701   1.736   4.540
 3662SOL     OW11013   2.716   3.093   3.325
 3662SOL    HW111014   2.618   3.098   3.307
 3662SOL    HW211015   2.732   3.045   3.411
 3663SOL     OW11016   3.615   1.874   0.773
 3663SOL    HW111017   3.630   1.786   0.728
 3663SOL    HW211018   3.669   1.944   0.727
 3664SOL     OW11019   4.163   3.354   4.644
 3664SOL    HW111020   4.131   3.316   4.731
 3664SOL    HW211021   4.117   3.441   4.626
 3665SOL     OW11022   0.196   1.046   0.607
 3665SOL    HW111023   0.210   1.142   0.583
 3665SOL    HW211024   0.099   1.029   0.620
 3666SOL     OW11025   3.813   0.482   3.708
 3666SOL    HW111026   3.854   0.447   3.792
 3666SOL    HW211027   3.875   0.548   3.666
 3667SOL     OW11028   1.087   3.599   1.604
 3667SOL    HW111029   1.145   3.651   1.543
 3667SOL    HW211030   1.143   3.549   1.670
 3668SOL     OW11031   2.905   2.593   3.976
 3668SOL    HW111032   2.910   2.648   4.060
 3668SOL    HW211033   2.820   2.541   3.976
 3669SOL     OW11034   3.320   0.892   3.362
 3669SOL    HW111035   3.362   0.828   3.298
 3669SOL    HW211036   3.326   0.855   3.455
 3670SOL     OW11037   4.124   0.179   0.731
 3670SOL    HW111038   4.118   0.087   0.693
 3670SOL    HW211039   4.063   0.186   0.810
 3671SOL     OW11040   4.413   4.119   2.005
 3671SOL    HW111041   4.359   4.172   2.070
 3671SOL    HW211042   4.490   4.173   1.973
 3672SOL     OW11043   0.356   2.135   4.086
 3672SOL    HW111044   0.439   2.191   4.094
 3672SOL    HW211045   0.313   2.153   3.998
 3673SOL     OW11046   0.006   0.506   1.449
 3673SOL    HW111047   0.041   0.597   1.427
 3673SOL    HW211048   0.048   0.439   1.388
 3674SOL     OW11049   0.410   2.856   1.161
 3674SOL    HW111050   0.451   2.768   1.136
 3674SOL    HW211051   0.352   2.844   1.241
 3675SOL     OW11052   3.998   2.407   3.624
 3675SOL    HW111053   3.996   2.506   3.632
 3675SOL    HW211054   3.973   2.366   3.712
 3676SOL     OW11055   1.072   5.015   3.296
 3676SOL    HW111056   1.024   0.014   3.376
 3676SOL    HW211057   1.063   0.046   3.221
 3677SOL     OW11058   0.121   4.374   2.466
 3677SOL    HW111059   0.162   4.459   2.432
 3677SOL    HW211060   0.186   4.298   2.453
 3678SOL     OW11061   0.498   0.427   0.662
 3678SOL    HW111062   0.400   0.410   0.650
 3678SOL    HW211063   0.521   0.421   0.760
 3679SOL     OW11064   4.189   2.948   2.369
 3679SOL    HW111065   4.229   2.944   2.460
 3679SOL    HW211066   4.195   3.041   2.333
 3680SOL     OW11067   4.040   1.860   0.192
 3680SOL    HW111068   4.026   1.868   0.290
 3680SOL    HW211069   3.978   1.791   0.154
 3681SOL     OW11070   0.915   3.520   1.394
 3681SOL    HW111071   0.847   3.592   1.375
 3681SOL    HW211072   0.954   3.534   1.485
 3682SOL     OW11073   0.095   4.217   4.161
 3682SOL    HW111074   0.078   4.156   4.084
 3682SOL    HW211075   0.127   4.163   4.239
 3683SOL     OW11076   3.149   3.509   1.354
 3683SOL    HW111077   3.098   3.443   1.409
 3683SOL    HW211078   3.084   3.565   1.302
 3684SOL     OW11079   3.875   0.317   1.205
 3684SOL    HW111080   3.869   0.233   1.259
 3684SOL    HW211081   3.811   0.313   1.129
 3685SOL     OW11082   2.665   1.062   3.710
 3685SOL    HW111083   2.596   1.069   3.782
 3685SOL    HW211084   2.659   0.972   3.666
 3686SOL     OW11085   4.885   1.415   3.270
 3686SOL    HW111086   4.810   1.379   3.214
 3686SOL    HW211087   4.881   1.515   3.270
 3687SOL     OW11088   0.644   3.236   4.111
 3687SOL    HW111089   0.668   3.319   4.061
 3687SOL    HW211090   0.698   3.231   4.195
 3688SOL     OW11091   0.577   0.576   4.557
 3688SOL    HW111092   0.573   0.504   4.625
 3688SOL    HW211093   0.563   0.537   4.466
 3689SOL     OW11094   0.621   1.194   4.877
 3689SOL    HW111095   0.530   1.236   4.870
 3689SOL    HW211096   0.653   1.171   4.785
 3690SOL     OW11097   1.805   2.637   0.378
 3690SOL    HW111098   1.788   2.546   0.417
 3690SOL    HW211099   1.732   2.699   0.405
 3691SOL     OW11100   0.679   0.011   0.347
 3691SOL    HW111101   0.750   0.021   0.416
 3691SOL    HW211102   0.613   0.085   0.357
 3692SOL     OW11103   3.111   3.278   0.608
 3692SOL    HW111104   3.044   3.350   0.592
 3692SOL    HW211105   3.112   3.253   0.705
 3693SOL     OW11106   4.586   1.324   4.882
 3693SOL    HW111107   4.578   1.422   4.900
 3693SOL    HW211108   4.551   1.272   4.960
 3694SOL     OW11109   4.680   3.685   0.109
 3694SOL    HW111110   4.623   3.757   0.148
 3694SOL    HW211111   4.761   3.725   0.066
 3695SOL     OW11112   1.095   2.859   1.860
 3695SOL    HW111113   1.121   2.764   1.847
 3695SOL    HW211114   1.086   2.904   1.771
 3696SOL     OW11115   0.687   1.563   0.301
 3696SOL    HW111116   0.689   1.506   0.219
 3696SOL    HW211117   0.767   1.542   0.358
 3697SOL     OW11118   1.101   4.711   0.739
 3697SOL    HW111119   1.026   4.774   0.721
 3697SOL    HW211120   1.119   4.656   0.657
 3698SOL     OW11121   1.728   0.992   0.180
 3698SOL    HW111122   1.639   1.037   0.192
 3698SOL    HW211123   1.797   1.061   0.156
 3699SOL     OW11124   0.320   2.976   4.632
 3699SOL    HW111125   0.257   2.956   4.558
 3699SOL    HW211126   0.408   3.006   4.594
 3700SOL     OW11127   1.990   1.014   0.396
 3700SOL    HW111128   1.981   1.113   0.404
 3700SOL    HW211129   2.048   0.980   0.470
 3701SOL     OW11130   4.993   1.132   0.040
 3701SOL    HW111131   4.973   1.083   0.124
 3701SOL    HW211132   4.911   1.138   5.019
 3702SOL     OW11133   0.769   0.487   2.639
 3702SOL    HW111134   0.799   0.484   2.734
 3702SOL    HW211135   0.721   0.403   2.616
 3703SOL     OW11136   1.560   2.996   1.174
 3703SOL    HW111137   1.541   3.077   1.229
 3703SOL    HW211138   1.486   2.930   1.184
 3704SOL     OW11139   3.311   2.138   1.583
 3704SOL    HW111140   3.366   2.067   1.538
 3704SOL    HW211141   3.261   2.189   1.513
 3705SOL     OW11142   0.467   1.975   0.263
 3705SOL    HW111143   0.511   1.907   0.204
 3705SOL    HW211144   0.406   1.929   0.327
 3706SOL     OW11145   2.085   1.425   2.589
 3706SOL    HW111146   1.994   1.446   2.625
 3706SOL    HW211147   2.111   1.332   2.615
 3707SOL     OW11148   0.964   3.880   3.408
 3707SOL    HW111149   0.931   3.816   3.477
 3707SOL    HW211150   0.969   3.834   3.319
 3708SOL     OW11151   4.274   4.301   0.768
 3708SOL    HW111152   4.366   4.339   0.779
 3708SOL    HW211153   4.246   4.312   0.672
 3709SOL     OW11154   4.187   0.508   2.948
 3709SOL    HW111155   4.184   0.470   2.856
 3709SOL    HW211156   4.263   0.468   2.999
 3710SOL     OW11157   4.974   1.365   3.524
 3710SOL    HW111158   4.974   1.447   3.580
 3710SOL    HW211159   4.932   1.385   3.435
 3711SOL     OW11160   0.422   4.495   4.850
 3711SOL    HW111161   0.515   4.465   4.869
 3711SOL    HW211162   0.385   4.543   4.930
 3712SOL     OW11163   0.272   0.722   3.018
 3712SOL    HW111164   0.187   0.693   2.974
 3712SOL    HW211165   0.345   0.724   2.950
 3713SOL     OW11166   4.978   4.212   1.513
 3713SOL    HW111167   5.030   4.195   1.429
 3713SOL    HW211168   4.905   4.144   1.520
 3714SOL     OW11169   4.476   0.475   1.034
 3714SOL    HW111170   4.476   0.487   1.133
 3714SOL    HW211171   4.433   0.388   1.011
 3715SOL     OW11172   4.081   1.766   3.026
 3715SOL    HW111173   3.990   1.723   3.030
 3715SOL    HW211174   4.112   1.785   3.119
 3716SOL     OW11175   2.522   1.154   2.064
 3716SOL    HW111176   2.556   1.246   2.084
 3716SOL    HW211177   2.591   1.086   2.089
 3717SOL     OW11178   4.368   4.984   0.071
 3717SOL    HW111179   4.286   0.005   0.071
 3717SOL    HW211180   4.373   4.931   0.155
 3718SOL     OW11181   1.667   0.948   2.821
 3718SOL    HW111182   1.657   0.947   2.722
 3718SOL    HW211183   1.585   0.907   2.863
 3719SOL     OW11184   3.718   3.173   3.556
 3719SOL    HW111185   3.734   3.083   3.517
 3719SOL    HW211186   3.757   3.243   3.496
 3720SOL     OW11187   0.211   1.783   0.914
 3720SOL    HW111188   0.230   1.881   0.909
 3720SOL    HW211189   0.151   1.764   0.992
 3721SOL     OW11190   0.457   2.494   0.648
 3721SOL    HW111191   0.374   2.509   0.702
 3721SOL    HW211192   0.457   2.556   0.569
 3722SOL     OW11193   4.110   4.491   4.861
 3722SOL    HW111194   4.119   4.391   4.869
 3722SOL    HW211195   4.027   4.512   4.809
 3723SOL     OW11196   1.996   0.121   4.665
 3723SOL    HW111197   2.084   0.083   4.695
 3723SOL    HW211198   1.982   0.102   4.568
 3724SOL     OW11199   3.585   1.025   4.665
 3724SOL    HW111200   3.619   1.113   4.698
 3724SOL    HW211201   3.641   0.951   4.702
 3725SOL     OW11202   1.660   4.500   4.849
 3725SOL    HW111203   1.679   4.414   4.897
 3725SOL    HW211204   1.742   4.557   4.848
 3726SOL     OW11205   2.924   4.453   2.537
 3726SOL    HW111206   3.018   4.451   2.502
 3726SOL    HW211207   2.926   4.446   2.636
 3727SOL     OW11208   1.011   1.466   0.996
 3727SOL    HW111209   0.974   1.379   0.963
 3727SOL    HW211210   0.947   1.539   0.973
 3728SOL     OW11211   1.913   1.750   1.508
 3728SOL    HW111212   1.854   1.707   1.439
 3728SOL    HW211213   1.871   1.741   1.598
 3729SOL     OW11214   1.396   3.778   2.820
 3729SOL    HW111215   1.407   3.679   2.816
 3729SOL    HW211216   1.321   3.806   2.760
 3730SOL     OW11217   3.801   0.875   1.743
 3730SOL    HW111218   3.733   0.936   1.784
 3730SOL    HW211219   3.785   0.867   1.645
 3731SOL     OW11220   4.423   4.470   2.907
 3731SOL    HW111221   4.505   4.420   2.933
 3731SOL    HW211222   4.343   4.427   2.947
 3732SOL     OW11223   1.183   1.254   0.718
 3732SOL    HW111224   1.282   1.261   0.717
 3732SOL    HW211225   1.151   1.234   0.811
 3733SOL     OW11226   4.186   0.176   3.083
 3733SOL    HW111227   4.194   0.097   3.143
 3733SOL    HW211228   4.107   0.231   3.109
 3734SOL     OW11229   1.906   0.834   2.317
 3734SOL    HW111230   1.984   0.800   2.370
 3734SOL    HW211231   1.837   0.762   2.310
 3735SOL     OW11232   4.691   2.530   2.597
 3735SOL    HW111233   4.740   2.616   2.589
 3735SOL    HW211234   4.712   2.473   2.517
 3736SOL     OW11235   1.452   3.558   3.606
 3736SOL    HW111236   1.491   3.594   3.690
 3736SOL    HW211237   1.352   3.552   3.615
 3737SOL     OW11238   2.337   1.060   0.056
 3737SOL    HW111239   2.362   1.012   5.007
 3737SOL    HW211240   2.419   1.079   0.110
 3738SOL     OW11241   1.633   1.740   4.712
 3738SOL    HW111242   1.631   1.665   4.778
 3738SOL    HW211243   1.553   1.734   4.653
 3739SOL     OW11244   1.946   3.244   3.323
 3739SOL    HW111245   2.015   3.280   3.260
 3739SOL    HW211246   1.857   3.243   3.278
 3740SOL     OW11247   4.481   0.145   1.090
 3740SOL    HW111248   4.418   0.201   1.143
 3740SOL    HW211249   4.439   0.120   1.003
 3741SOL     OW11250   1.323   4.762   2.279
 3741SOL    HW111251   1.317   4.681   2.337
 3741SOL    HW211252   1.241   4.768   2.222
 3742SOL     OW11253   0.761   3.478   1.701
 3742SOL    HW111254   0.798   3.399   1.651
 3742SOL    HW211255   0.662   3.470   1.709
 3743SOL     OW11256   0.041   3.339   1.308
 3743SOL    HW111257   4.991   3.391   1.317
 3743SOL    HW211258   0.034   3.278   1.229
 3744SOL     OW11259   1.303   0.153   1.826
 3744SOL    HW111260   1.345   0.178   1.913
 3744SOL    HW211261   1.231   0.218   1.804
 3745SOL     OW11262   2.994   0.667   3.880
 3745SOL    HW111263   2.913   0.726   3.884
 3745SOL    HW211264   3.013   0.633   3.972
 3746SOL     OW11265   3.119   3.195   0.861
 3746SOL    HW111266   3.053   3.120   0.863
 3746SOL    HW211267   3.211   3.160   0.879
 3747SOL     OW11268   3.378   3.509   2.475
 3747SOL    HW111269   3.333   3.523   2.563
 3747SOL    HW211270   3.475   3.488   2.490
 3748SOL     OW11271   1.088   3.843   4.379
 3748SOL    HW111272   1.067   3.753   4.340
 3748SOL    HW211273   1.004   3.883   4.416
 3749SOL     OW11274   4.480   0.706   2.977
 3749SOL    HW111275   4.514   0.623   2.931
 3749SOL    HW211276   4.439   0.681   3.064
 3750SOL     OW11277   2.498   3.147   1.938
 3750SOL    HW111278   2.464   3.227   1.988
 3750SOL    HW211279   2.527   3.175   1.846
 3751SOL     OW11280   3.202   0.944   4.395
 3751SOL    HW111281   3.214   1.006   4.318
 3751SOL    HW211282   3.155   0.992   4.469
 3752SOL     OW11283   0.809   3.750   1.534
 3752SOL    HW111284   0.829   3.704   1.621
 3752SOL    HW211285   0.887   3.805   1.508
 3753SOL     OW11286   2.054   1.429   3.142
 3753SOL    HW111287   2.058   1.482   3.057
 3753SOL    HW211288   1.968   1.379   3.146
 3754SOL     OW11289   0.854   4.635   0.447
 3754SOL    HW111290   0.893   4.629   0.356
 3754SOL    HW211291   0.823   4.729   0.464
 3755SOL     OW11292   1.159   0.720   0.858
 3755SOL    HW111293   1.237   0.689   0.805
 3755SOL    HW211294   1.164   0.682   0.950
 3756SOL     OW11295   0.956   3.765   1.796
 3756SOL    HW111296   0.985   3.685   1.849
 3756SOL    HW211297   1.000   3.764   1.707
 3757SOL     OW11298   4.877   2.874   0.482
 3757SOL    HW111299   4.932   2.899   0.562
 3757SOL    HW211300   4.866   2.954   0.424
 3758SOL     OW11301   2.071   0.637   0.664
 3758SOL    HW111302   1.993   0.639   0.602
 3758SOL    HW211303   2.131   0.714   0.645
 3759SOL     OW11304   4.429   3.187   0.814
 3759SOL    HW111305   4.409   3.278   0.849
 3759SOL    HW211306   4.504   3.147   0.865
 3760SOL     OW11307   3.303   3.079   4.577
 3760SOL    HW111308   3.365   3.153   4.600
 3760SOL    HW211309   3.319   3.051   4.482
 3761SOL     OW11310   1.599   4.179   4.545
 3761SOL    HW111311   1.564   4.250   4.606
 3761SOL    HW211312   1.644   4.222   4.466
 3762SOL     OW11313   0.200   1.862   0.153
 3762SOL    HW111314   0.182   1.807   0.234
 3762SOL    HW211315   0.179   1.809   0.071
 3763SOL     OW11316   1.771   0.810   1.110
 3763SOL    HW111317   1.866   0.780   1.101
 3763SOL    HW211318   1.768   0.907   1.134
 3764SOL     OW11319   0.427   3.979   3.214
 3764SOL    HW111320   0.509   3.950   3.263
 3764SOL    HW211321   0.453   4.031   3.132
 3765SOL     OW11322   1.864   4.939   0.889
 3765SOL    HW111323   1.944   4.916   0.944
 3765SOL    HW211324   1.810   5.008   0.937
 3766SOL     OW11325   3.884   4.283   4.455
 3766SOL    HW111326   3.922   4.196   4.485
 3766SOL    HW211327   3.825   4.267   4.375
 3767SOL     OW11328   1.792   3.103   1.469
 3767SOL    HW111329   1.848   3.182   1.444
 3767SOL    HW211330   1.819   3.023   1.415
 3768SOL     OW11331   2.823   4.835   1.186
 3768SOL    HW111332   2.921   4.853   1.177
 3768SOL    HW211333   2.774   4.921   1.199
 3769SOL     OW11334   2.323   4.235   4.654
 3769SOL    HW111335   2.421   4.237   4.637
 3769SOL    HW211336   2.293   4.323   4.690
 3770SOL     OW11337   1.779   3.102   4.125
 3770SOL    HW111338   1.691   3.122   4.081
 3770SOL    HW211339   1.839   3.182   4.117
 3771SOL     OW11340   0.062   4.874   2.401
 3771SOL    HW111341   0.025   4.838   2.315
 3771SOL    HW211342   0.107   4.961   2.383
 3772SOL     OW11343   1.389   0.733   4.041
 3772SOL    HW111344   1.462   0.683   3.995
 3772SOL    HW211345   1.350   0.676   4.113
 3773SOL     OW11346   3.964   4.467   1.388
 3773SOL    HW111347   3.902   4.406   1.338
 3773SOL    HW211348   4.010   4.416   1.460
 3774SOL     OW11349   0.430   4.852   4.238
 3774SOL    HW111350   0.523   4.889   4.233
 3774SOL    HW211351   0.432   4.760   4.275
 3775SOL     OW11352   2.355   3.802   1.971
 3775SOL    HW111353   2.312   3.727   2.020
 3775SOL    HW211354   2.455   3.797   1.984
 3776SOL     OW11355   3.657   0.129   4.046
 3776SOL    HW111356   3.600   0.084   4.115
 3776SOL    HW211357   3.751   0.133   4.078
 3777SOL     OW11358   4.149   0.149   1.031
 3777SOL    HW111359   4.094   0.076   0.991
 3777SOL    HW211360   4.131   0.155   1.129
 3778SOL     OW11361   4.447   4.924   0.338
 3778SOL    HW111362   4.537   4.881   0.333
 3778SOL    HW211363   4.458   5.024   0.335
 3779SOL     OW11364   3.150   1.805   0.241
 3779SOL    HW111365   3.178   1.879   0.303
 3779SOL    HW211366   3.058   1.823   0.208
 3780SOL     OW11367   3.238   2.508   1.839
 3780SOL    HW111368   3.251   2.424   1.787
 3780SOL    HW211369   3.275   2.497   1.931
 3781SOL     OW11370   3.659   1.746   2.591
 3781SOL    HW111371   3.604   1.820   2.553
 3781SOL    HW211372   3.725   1.715   2.522
 3782SOL     OW11373   2.556   2.042   3.560
 3782SOL    HW111374   2.585   2.004   3.472
 3782SOL    HW211375   2.613   2.003   3.633
 3783SOL     OW11376   4.054   4.007   1.884
 3783SOL    HW111377   4.014   3.957   1.961
 3783SOL    HW211378   3.982   4.059   1.838
 3784SOL     OW11379   3.740   3.624   4.340
 3784SOL    HW111380   3.810   3.606   4.271
 3784SOL    HW211381   3.652   3.587   4.311
 3785SOL     OW11382   0.097   1.865   2.541
 3785SOL    HW111383   0.089   1.907   2.631
 3785SOL    HW211384   0.012   1.880   2.490
 3786SOL     OW11385   1.242   4.920   0.854
 3786SOL    HW111386   1.260   4.995   0.790
 3786SOL    HW211387   1.188   4.849   0.808
 3787SOL     OW11388   1.038   2.123   4.121
 3787SOL    HW111389   1.010   2.178   4.043
 3787SOL    HW211390   1.047   2.181   4.202
 3788SOL     OW11391   2.239   0.889   0.882
 3788SOL    HW111392   2.158   0.941   0.855
 3788SOL    HW211393   2.234   0.866   0.979
 3789SOL     OW11394   1.089   4.243   4.114
 3789SOL    HW111395   1.144   4.327   4.123
 3789SOL    HW211396   1.135   4.180   4.052
 3790SOL     OW11397   4.905   3.203   2.531
 3790SOL    HW111398   4.986   3.178   2.478
 3790SOL    HW211399   4.824   3.199   2.472
 3791SOL     OW11400   2.535   0.019   4.446
 3791SOL    HW111401   2.465   0.031   4.376
 3791SOL    HW211402   2.608   4.995   4.411
 3792SOL     OW11403   0.684   2.282   1.175
 3792SOL    HW111404   0.695   2.338   1.093
 3792SOL    HW211405   0.762   2.220   1.184
 3793SOL     OW11406   0.414   2.974   2.102
 3793SOL    HW111407   0.362   2.983   2.018
 3793SOL    HW211408   0.473   3.054   2.114
 3794SOL     OW11409   0.025   0.135   1.399
 3794SOL    HW111410   0.091   0.106   1.330
 3794SOL    HW211411   0.062   0.214   1.449
 3795SOL     OW11412   4.654   3.809   2.595
 3795SOL    HW111413   4.679   3.727   2.647
 3795SOL    HW211414   4.716   3.884   2.619
 3796SOL     OW11415   2.462   4.494   2.073
 3796SOL    HW111416   2.473   4.396   2.062
 3796SOL    HW211417   2.467   4.539   1.984
 3797SOL     OW11418   1.292   0.096   0.679
 3797SOL    HW111419   1.347   0.179   0.691
 3797SOL    HW211420   1.229   0.108   0.602
 3798SOL     OW11421   0.945   1.614   4.334
 3798SOL    HW111422   0.862   1.670   4.337
 3798SOL    HW211423   0.966   1.592   4.239
 3799SOL     OW11424   1.781   2.953   0.451
 3799SOL    HW111425   1.773   2.932   0.549
 3799SOL    HW211426   1.873   2.989   0.432
 3800SOL     OW11427   0.964   0.313   3.336
 3800SOL    HW111428   0.976   0.235   3.396
 3800SOL    HW211429   0.882   0.363   3.362
 3801SOL     OW11430   3.877   3.256   4.718
 3801SOL    HW111431   3.865   3.356   4.714
 3801SOL    HW211432   3.937   3.227   4.644
 3802SOL     OW11433   1.051   0.702   2.031
 3802SOL    HW111434   1.135   0.659   1.998
 3802SOL    HW211435   0.977   0.683   1.967
 3803SOL     OW11436   4.766   0.962   1.385
 3803SOL    HW111437   4.712   1.039   1.352
 3803SOL    HW211438   4.862   0.975   1.360
 3804SOL     OW11439   1.642   1.416   2.133
 3804SOL    HW111440   1.601   1.355   2.201
 3804SOL    HW211441   1.632   1.376   2.042
 3805SOL     OW11442   4.770   0.298   3.853
 3805SOL    HW111443   4.760   0.206   3.815
 3805SOL    HW211444   4.723   0.363   3.794
 3806SOL     OW11445   4.374   1.751   2.003
 3806SOL    HW111446   4.333   1.843   2.001
 3806SOL    HW211447   4.317   1.691   2.061
 3807SOL     OW11448   3.517   5.015   3.221
 3807SOL    HW111449   3.490   4.947   3.153
 3807SOL    HW211450   3.515   4.974   3.312
 3808SOL     OW11451   4.166   1.517   4.990
 3808SOL    HW111452   4.238   1.490   0.019
 3808SOL    HW211453   4.208   1.553   4.907
 3809SOL     OW11454   2.577   4.276   4.584
 3809SOL    HW111455   2.591   4.220   4.503
 3809SOL    HW211456   2.653   4.262   4.648
 3810SOL     OW11457   4.135   2.642   4.462
 3810SOL    HW111458   4.127   2.543   4.455
 3810SOL    HW211459   4.140   2.668   4.559
 3811SOL     OW11460   1.616   1.547   2.742
 3811SOL    HW111461   1.635   1.528   2.646
 3811SOL    HW211462   1.608   1.646   2.755
 3812SOL     OW11463   2.945   3.309   0.067
 3812SOL    HW111464   2.934   3.229   0.126
 3812SOL    HW211465   2.924   3.391   0.120
 3813SOL     OW11466   1.850   0.852   1.729
 3813SOL    HW111467   1.806   0.942   1.734
 3813SOL    HW211468   1.791   0.789   1.679
 3814SOL     OW11469   0.842   0.473   2.122
 3814SOL    HW111470   0.839   0.449   2.219
 3814SOL    HW211471   0.934   0.461   2.086
 3815SOL     OW11472   3.503   1.481   3.749
 3815SOL    HW111473   3.406   1.464   3.764
 3815SOL    HW211474   3.524   1.577   3.767
 3816SOL     OW11475   4.748   3.896   4.966
 3816SOL    HW111476   4.718   3.954   0.007
 3816SOL    HW211477   4.670   3.872   4.909
 3817SOL     OW11478   0.313   2.078   2.605
 3817SOL    HW111479   0.227   2.106   2.564
 3817SOL    HW211480   0.351   2.153   2.659
 3818SOL     OW11481   3.171   1.635   0.595
 3818SOL    HW111482   3.192   1.678   0.683
 3818SOL    HW211483   3.207   1.542   0.594
 3819SOL     OW11484   3.315   4.437   2.027
 3819SOL    HW111485   3.224   4.396   2.018
 3819SOL    HW211486   3.380   4.386   1.970
 3820SOL     OW11487   3.519   0.705   4.194
 3820SOL    HW111488   3.559   0.796   4.191
 3820SOL    HW211489   3.556   0.654   4.271
 3821SOL     OW11490   2.578   1.933   0.947
 3821SOL    HW111491   2.607   1.875   1.024
 3821SOL    HW211492   2.654   1.993   0.920
 3822SOL     OW11493   1.627   2.082   3.475
 3822SOL    HW111494   1.540   2.129   3.458
 3822SOL    HW211495   1.613   1.983   3.466
 3823SOL     OW11496   2.479   1.099   3.927
 3823SOL    HW111497   2.511   1.040   4.001
 3823SOL    HW211498   2.393   1.143   3.954
 3824SOL     OW11499   2.017   0.548   0.917
 3824SOL    HW111500   2.044   0.623   0.978
 3824SOL    HW211501   2.051   0.567   0.825
 3825SOL     OW11502   2.341   3.227   1.581
 3825SOL    HW111503   2.301   3.149   1.532
 3825SOL    HW211504   2.305   3.229   1.674
 3826SOL     OW11505   1.346   1.052   3.001
 3826SOL    HW111506   1.309   0.961   3.022
 3826SOL    HW211507   1.271   1.113   2.977
 3827SOL     OW11508   3.386   4.011   5.003
 3827SOL    HW111509   3.413   3.920   5.034
 3827SOL    HW211510   3.468   4.067   4.989
 3828SOL     OW11511   3.277   0.491   2.249
 3828SOL    HW111512   3.187   0.463   2.217
 3828SOL    HW211513   3.330   0.410   2.275
 3829SOL     OW11514   0.230   1.089   0.106
 3829SOL    HW111515   0.147   1.138   0.082
 3829SOL    HW211516   0.207   1.009   0.162
 3830SOL     OW11517   4.818   1.191   3.828
 3830SOL    HW111518   4.817   1.289   3.807
 3830SOL    HW211519   4.832   1.179   3.926
 3831SOL     OW11520   1.706   3.219   1.062
 3831SOL    HW111521   1.671   3.138   1.110
 3831SOL    HW211522   1.668   3.301   1.104
 3832SOL     OW11523   0.531   2.105   3.832
 3832SOL    HW111524   0.445   2.127   3.786
 3832SOL    HW211525   0.526   2.011   3.868
 3833SOL     OW11526   2.672   2.932   0.073
 3833SOL    HW111527   2.658   3.013   0.017
 3833SOL    HW211528   2.705   2.857   0.015
 3834SOL     OW11529   3.935   3.794   4.491
 3834SOL    HW111530   3.948   3.719   4.556
 3834SOL    HW211531   3.970   3.767   4.401
 3835SOL     OW11532   3.982   4.084   4.259
 3835SOL    HW111533   4.063   4.036   4.292
 3835SOL    HW211534   3.908   4.018   4.247
 3836SOL     OW11535   2.538   4.566   2.338
 3836SOL    HW111536   2.619   4.621   2.355
 3836SOL    HW211537   2.541   4.530   2.244
 3837SOL     OW11538   1.751   2.786   4.984
 3837SOL    HW111539   1.751   2.874   5.031
 3837SOL    HW211540   1.781   2.799   4.889
 3838SOL     OW11541   2.299   2.112   2.301
 3838SOL    HW111542   2.312   2.023   2.345
 3838SOL    HW211543   2.338   2.109   2.209
 3839SOL     OW11544   1.024   3.895   1.455
 3839SOL    HW111545   1.118   3.865   1.439
 3839SOL    HW211546   1.024   3.981   1.506
 3840SOL     OW11547   1.034   1.415   2.624
 3840SOL    HW111548   0.937   1.410   2.600
 3840SOL    HW211549   1.076   1.325   2.613
 3841SOL     OW11550   2.085   1.499   1.640
 3841SOL    HW111551   2.048   1.565   1.575
 3841SOL    HW211552   2.067   1.406   1.608
 3842SOL     OW11553   4.507   4.738   4.486
 3842SOL    HW111554   4.547   4.698   4.568
 3842SOL    HW211555   4.427   4.793   4.510
 3843SOL     OW11556   0.623   2.622   4.112
 3843SOL    HW111557   0.527   2.651   4.108
 3843SOL    HW211558   0.628   2.523   4.105
 3844SOL     OW11559   2.780   2.105   0.923
 3844SOL    HW111560   2.788   2.177   0.992
 3844SOL    HW211561   2.815   2.138   0.835
 3845SOL     OW11562   4.604   2.804   1.799
 3845SOL    HW111563   4.510   2.822   1.828
 3845SOL    HW211564   4.657   2.769   1.877
 3846SOL     OW11565   1.343   3.426   0.762
 3846SOL    HW111566   1.392   3.340   0.745
 3846SOL    HW211567   1.360   3.457   0.855
 3847SOL     OW11568   4.006   3.110   3.678
 3847SOL    HW111569   4.096   3.151   3.662
 3847SOL    HW211570   4.013   3.039   3.748
 3848SOL     OW11571   3.175   2.905   0.552
 3848SOL    HW111572   3.251   2.905   0.488
 3848SOL    HW211573   3.095   2.949   0.510
 3849SOL     OW11574   0.022   1.694   3.055
 3849SOL    HW111575   5.033   1.598   3.060
 3849SOL    HW211576   5.023   1.732   2.969
 3850SOL     OW11577   3.329   4.224   0.191
 3850SOL    HW111578   3.314   4.162   0.114
 3850SOL    HW211579   3.269   4.304   0.182
 3851SOL     OW11580   2.334   3.833   4.130
 3851SOL    HW111581   2.248   3.853   4.084
 3851SOL    HW211582   2.360   3.911   4.187
 3852SOL     OW11583   1.491   3.240   3.340
 3852SOL    HW111584   1.504   3.246   3.439
 3852SOL    HW211585   1.400   3.206   3.320
 3853SOL     OW11586   4.071   2.740   4.116
 3853SOL    HW111587   4.158   2.720   4.161
 3853SOL    HW211588   4.076   2.831   4.074
 3854SOL     OW11589   3.705   1.232   3.624
 3854SOL    HW111590   3.612   1.250   3.591
 3854SOL    HW211591   3.706   1.240   3.724
 3855SOL     OW11592   1.640   3.271   2.703
 3855SOL    HW111593   1.670   3.210   2.629
 3855SOL    HW211594   1.705   3.345   2.714
 3856SOL     OW11595   4.130   4.696   2.687
 3856SOL    HW111596   4.097   4.781   2.648
 3856SOL    HW211597   4.122   4.700   2.787
 3857SOL     OW11598   0.921   1.880   0.237
 3857SOL    HW111599   0.891   1.965   0.279
 3857SOL    HW211600   1.021   1.880   0.231
 3858SOL     OW11601   0.307   0.152   2.225
 3858SOL    HW111602   0.221   0.203   2.234
 3858SOL    HW211603   0.380   0.201   2.273
 3859SOL     OW11604   0.093   0.900   4.711
 3859SOL    HW111605   0.010   0.858   4.747
 3859SOL    HW211606   0.090   0.998   4.728
 3860SOL     OW11607   1.100   2.289   4.346
 3860SOL    HW111608   1.183   2.343   4.331
 3860SOL    HW211609   1.033   2.343   4.397
 3861SOL     OW11610   2.796   0.966   3.971
 3861SOL    HW111611   2.830   0.993   3.881
 3861SOL    HW211612   2.865   0.987   4.040
 3862SOL     OW11613   3.345   2.814   0.343
 3862SOL    HW111614   3.431   2.798   0.391
 3862SOL    HW211615   3.364   2.857   0.255
 3863SOL     OW11616   4.190   0.773   2.816
 3863SOL    HW111617   4.210   0.686   2.860
 3863SOL    HW211618   4.272   0.830   2.816
 3864SOL     OW11619   4.900   3.725   1.613
 3864SOL    HW111620   4.819   3.742   1.670
 3864SOL    HW211621   4.905   3.627   1.591
 3865SOL     OW11622   4.164   2.427   2.041
 3865SOL    HW111623   4.171   2.458   1.946
 3865SOL    HW211624   4.159   2.506   2.101
 3866SOL     OW11625   0.112   2.000   2.288
 3866SOL    HW111626   0.170   1.968   2.363
 3866SOL    HW211627   0.169   2.026   2.211
 3867SOL     OW11628   3.608   2.310   0.725
 3867SOL    HW111629   3.547   2.319   0.646
 3867SOL    HW211630   3.575   2.368   0.799
 3868SOL     OW11631   2.533   3.384   2.096
 3868SOL    HW111632   2.626   3.420   2.108
 3868SOL    HW211633   2.515   3.315   2.167
 3869SOL     OW11634   3.358   4.038   0.427
 3869SOL    HW111635   3.270   4.080   0.447
 3869SOL    HW211636   3.394   4.075   0.342
 3870SOL     OW11637   1.994   2.901   2.060
 3870SOL    HW111638   1.958   2.894   2.153
 3870SOL    HW211639   2.017   2.996   2.040
 3871SOL     OW11640   4.031   4.439   0.108
 3871SOL    HW111641   3.985   4.526   0.090
 3871SOL    HW211642   4.128   4.448   0.086
 3872SOL     OW11643   1.847   1.178   4.700
 3872SOL    HW111644   1.807   1.206   4.787
 3872SOL    HW211645   1.850   1.078   4.695
 3873SOL     OW11646   1.314   0.377   0.626
 3873SOL    HW111647   1.224   0.344   0.597
 3873SOL    HW211648   1.365   0.410   0.546
 3874SOL     OW11649   2.352   4.408   1.637
 3874SOL    HW111650   2.356   4.475   1.711
 3874SOL    HW211651   2.428   4.423   1.575
 3875SOL     OW11652   3.772   3.756   0.453
 3875SOL    HW111653   3.695   3.776   0.392
 3875SOL    HW211654   3.850   3.812   0.428
 3876SOL     OW11655   1.092   1.549   3.550
 3876SOL    HW111656   1.136   1.637   3.566
 3876SOL    HW211657   1.042   1.521   3.633
 3877SOL     OW11658   0.068   3.612   2.745
 3877SOL    HW111659   0.084   3.704   2.709
 3877SOL    HW211660   0.037   3.619   2.841
 3878SOL     OW11661   1.056   4.060   4.820
 3878SOL    HW111662   0.976   4.080   4.876
 3878SOL    HW211663   1.033   3.991   4.751
 3879SOL     OW11664   1.111   4.523   4.781
 3879SOL    HW111665   1.116   4.434   4.734
 3879SOL    HW211666   1.096   4.508   4.879
 3880SOL     OW11667   4.574   3.406   2.678
 3880SOL    HW111668   4.483   3.384   2.714
 3880SOL    HW211669   4.565   3.433   2.582
 3881SOL     OW11670   2.401   0.399   4.792
 3881SOL    HW111671   2.397   0.438   4.701
 3881SOL    HW211672   2.421   0.301   4.786
 3882SOL     OW11673   2.443   2.281   3.976
 3882SOL    HW111674   2.427   2.320   3.885
 3882SOL    HW211675   2.359   2.242   4.012
 3883SOL     OW11676   3.944   1.119   1.100
 3883SOL    HW111677   3.868   1.093   1.041
 3883SOL    HW211678   3.932   1.076   1.190
 3884SOL     OW11679   3.304   3.596   3.604
 3884SOL    HW111680   3.232   3.528   3.618
 3884SOL    HW211681   3.264   3.678   3.563
 3885SOL     OW11682   4.182   1.874   4.556
 3885SOL    HW111683   4.151   1.782   4.577
 3885SOL    HW211684   4.105   1.938   4.566
 3886SOL     OW11685   2.754   2.901   4.822
 3886SOL    HW111686   2.722   2.942   4.737
 3886SOL    HW211687   2.702   2.817   4.840
 3887SOL     OW11688   0.818   3.029   0.986
 3887SOL    HW111689   0.730   3.074   0.973
 3887SOL    HW211690   0.808   2.954   1.051
 3888SOL     OW11691   0.876   1.451   0.018
 3888SOL    HW111692   0.777   1.451   0.030
 3888SOL    HW211693   0.898   1.421   4.961
 3889SOL     OW11694   1.157   2.000   2.456
 3889SOL    HW111695   1.184   1.914   2.498
 3889SOL    HW211696   1.239   2.054   2.434
 3890SOL     OW11697   1.482   3.028   1.546
 3890SOL    HW111698   1.489   3.123   1.578
 3890SOL    HW211699   1.543   3.014   1.468
 3891SOL     OW11700   2.608   3.495   3.521
 3891SOL    HW111701   2.683   3.452   3.471
 3891SOL    HW211702   2.644   3.565   3.581
 3892SOL     OW11703   0.261   0.156   2.788
 3892SOL    HW111704   0.298   0.169   2.696
 3892SOL    HW211705   0.247   0.244   2.832
 3893SOL     OW11706   4.701   3.383   3.592
 3893SOL    HW111707   4.649   3.298   3.579
 3893SOL    HW211708   4.748   3.379   3.680
 3894SOL     OW11709   4.760   2.743   3.057
 3894SOL    HW111710   4.796   2.806   2.989
 3894SOL    HW211711   4.660   2.748   3.058
 3895SOL     OW11712   1.069   1.813   1.533
 3895SOL    HW111713   1.065   1.757   1.450
 3895SOL    HW211714   1.015   1.770   1.605
 3896SOL     OW11715   2.974   1.113   1.028
 3896SOL    HW111716   3.026   1.199   1.027
 3896SOL    HW211717   2.983   1.070   1.118
 3897SOL     OW11718   0.478   0.179   0.189
 3897SOL    HW111719   0.438   0.266   0.218
 3897SOL    HW211720   0.446   0.157   0.097
 3898SOL     OW11721   3.494   2.376   2.843
 3898SOL    HW111722   3.550   2.316   2.786
 3898SOL    HW211723   3.414   2.406   2.791
 3899SOL     OW11724   4.386   3.702   2.573
 3899SOL    HW111725   4.311   3.728   2.633
 3899SOL    HW211726   4.469   3.750   2.602
 3900SOL     OW11727   3.057   1.610   2.852
 3900SOL    HW111728   3.113   1.691   2.869
 3900SOL    HW211729   3.053   1.554   2.934
 3901SOL     OW11730   1.774   0.354   1.352
 3901SOL    HW111731   1.821   0.365   1.440
 3901SOL    HW211732   1.789   0.435   1.296
 3902SOL     OW11733   2.201   0.744   4.518
 3902SOL    HW111734   2.129   0.749   4.449
 3902SOL    HW211735   2.258   0.826   4.513
 3903SOL     OW11736   1.224   1.095   2.025
 3903SOL    HW111737   1.264   1.158   2.091
 3903SOL    HW211738   1.145   1.050   2.066
 3904SOL     OW11739   0.687   4.260   2.488
 3904SOL    HW111740   0.588   4.250   2.499
 3904SOL    HW211741   0.715   4.221   2.401
 3905SOL     OW11742   3.695   3.185   2.296
 3905SOL    HW111743   3.784   3.149   2.325
 3905SOL    HW211744   3.641   3.209   2.377
 3906SOL     OW11745   4.702   1.489   3.623
 3906SOL    HW111746   4.770   1.493   3.696
 3906SOL    HW211747   4.706   1.399   3.579
 3907SOL     OW11748   3.403   2.690   4.024
 3907SOL    HW111749   3.443   2.782   4.029
 3907SOL    HW211750   3.333   2.689   3.953
 3908SOL     OW11751   2.446   1.300   0.344
 3908SOL    HW111752   2.466   1.381   0.399
 3908SOL    HW211753   2.367   1.319   0.285
 3909SOL     OW11754   3.602   2.107   2.738
 3909SOL    HW111755   3.639   2.033   2.796
 3909SOL    HW211756   3.646   2.103   2.648
 3910SOL     OW11757   3.397   1.421   0.575
 3910SOL    HW111758   3.443   1.502   0.610
 3910SOL    HW211759   3.416   1.343   0.636
 3911SOL     OW11760   0.268   2.057   3.142
 3911SOL    HW111761   0.288   1.976   3.085
 3911SOL    HW211762   0.172   2.056   3.168
 3912SOL     OW11763   4.890   3.425   4.570
 3912SOL    HW111764   4.880   3.403   4.667
 3912SOL    HW211765   4.803   3.407   4.523
 3913SOL     OW11766   0.092   4.753   2.651
 3913SOL    HW111767   0.060   4.793   2.565
 3913SOL    HW211768   0.192   4.758   2.654
 3914SOL     OW11769   2.004   2.005   3.815
 3914SOL    HW111770   1.954   1.953   3.746
 3914SOL    HW211771   2.098   1.971   3.821
 3915SOL     OW11772   2.449   3.649   3.831
 3915SOL    HW111773   2.492   3.647   3.921
 3915SOL    HW211774   2.516   3.626   3.761
 3916SOL     OW11775   0.027   1.559   3.717
 3916SOL    HW111776   0.001   1.510   3.800
 3916SOL    HW211777   0.126   1.557   3.706
 3917SOL     OW11778   0.747   3.185   4.357
 3917SOL    HW111779   0.738   3.087   4.342
 3917SOL    HW211780   0.829   3.202   4.412
 3918SOL     OW11781   5.022   2.567   4.949
 3918SOL    HW111782   5.003   2.470   4.934
 3918SOL    HW211783   0.063   2.577   5.013
 3919SOL     OW11784   3.593   0.060   0.531
 3919SOL    HW111785   3.632   5.018   0.581
 3919SOL    HW211786   3.499   0.040   0.505
 3920SOL     OW11787   4.032   0.562   0.178
 3920SOL    HW111788   4.020   0.487   0.112
 3920SOL    HW211789   3.953   0.623   0.173
 3921SOL     OW11790   0.792   3.930   4.401
 3921SOL    HW111791   0.750   3.866   4.336
 3921SOL    HW211792   0.822   4.012   4.352
 3922SOL     OW11793   2.207   4.870   1.533
 3922SOL    HW111794   2.208   4.919   1.446
 3922SOL    HW211795   2.205   4.772   1.517
 3923SOL     OW11796   1.857   2.125   1.923
 3923SOL    HW111797   1.776   2.164   1.968
 3923SOL    HW211798   1.931   2.117   1.990
 3924SOL     OW11799   2.803   1.727   0.909
 3924SOL    HW111800   2.757   1.763   0.828
 3924SOL    HW211801   2.734   1.701   0.977
 3925SOL     OW11802   3.580   4.768   3.107
 3925SOL    HW111803   3.635   4.772   3.190
 3925SOL    HW211804   3.512   4.696   3.116
 3926SOL     OW11805   0.484   3.566   1.905
 3926SOL    HW111806   0.491   3.577   2.004
 3926SOL    HW211807   0.535   3.640   1.860
 3927SOL     OW11808   1.687   0.429   4.125
 3927SOL    HW111809   1.702   0.510   4.183
 3927SOL    HW211810   1.616   0.450   4.057
 3928SOL     OW11811   2.990   1.295   3.897
 3928SOL    HW111812   3.062   1.235   3.864
 3928SOL    HW211813   2.977   1.282   3.995
 3929SOL     OW11814   1.117   2.065   1.933
 3929SOL    HW111815   1.181   2.139   1.915
 3929SOL    HW211816   1.155   2.003   2.002
 3930SOL     OW11817   3.380   1.501   1.402
 3930SOL    HW111818   3.369   1.595   1.432
 3930SOL    HW211819   3.393   1.442   1.482
 3931SOL     OW11820   1.574   4.462   4.590
 3931SOL    HW111821   1.620   4.533   4.536
 3931SOL    HW211822   1.600   4.471   4.686
 3932SOL     OW11823   4.956   4.182   3.746
 3932SOL    HW111824   4.883   4.199   3.680
 3932SOL    HW211825   4.998   4.269   3.771
 3933SOL     OW11826   1.235   3.240   4.623
 3933SOL    HW111827   1.281   3.154   4.603
 3933SOL    HW211828   1.167   3.226   4.695
 3934SOL     OW11829   1.205   1.141   1.347
 3934SOL    HW111830   1.151   1.131   1.430
 3934SOL    HW211831   1.301   1.124   1.367
 3935SOL     OW11832   0.707   2.234   4.802
 3935SOL    HW111833   0.632   2.238   4.736
 3935SOL    HW211834   0.679   2.178   4.880
 3936SOL     OW11835   1.111   4.412   0.690
 3936SOL    HW111836   1.196   4.427   0.739
 3936SOL    HW211837   1.124   4.343   0.619
 3937SOL     OW11838   1.948   1.883   0.624
 3937SOL    HW111839   2.030   1.939   0.633
 3937SOL    HW211840   1.963   1.794   0.667
 3938SOL     OW11841   4.606   2.125   2.153
 3938SOL    HW111842   4.548   2.054   2.193
 3938SOL    HW211843   4.658   2.086   2.077
 3939SOL     OW11844   0.597   4.382   4.314
 3939SOL    HW111845   0.674   4.413   4.369
 3939SOL    HW211846   0.630   4.339   4.230
 3940SOL     OW11847   1.150   4.460   3.843
 3940SOL    HW111848   1.131   4.522   3.918
 3940SOL    HW211849   1.238   4.414   3.859
 3941SOL     OW11850   4.072   4.684   3.054
 3941SOL    HW111851   4.072   4.751   3.128
 3941SOL    HW211852   4.166   4.663   3.028
 3942SOL     OW11853   2.225   0.219   4.507
 3942SOL    HW111854   2.230   0.125   4.473
 3942SOL    HW211855   2.151   0.226   4.574
 3943SOL     OW11856   3.932   0.771   4.283
 3943SOL    HW111857   3.908   0.747   4.189
 3943SOL    HW211858   3.848   0.785   4.336
 3944SOL     OW11859   0.987   1.277   4.446
 3944SOL    HW111860   0.924   1.355   4.449
 3944SOL    HW211861   0.978   1.230   4.359
 3945SOL     OW11862   3.653   0.661   1.119
 3945SOL    HW111863   3.628   0.602   1.043
 3945SOL    HW211864   3.626   0.618   1.205
 3946SOL     OW11865   1.385   4.873   3.852
 3946SOL    HW111866   1.426   4.964   3.845
 3946SOL    HW211867   1.372   4.835   3.761
 3947SOL     OW11868   2.235   3.367   3.396
 3947SOL    HW111869   2.317   3.420   3.420
 3947SOL    HW211870   2.234   3.349   3.297
 3948SOL     OW11871   0.982   3.883   4.036
 3948SOL    HW111872   0.948   3.883   4.130
 3948SOL    HW211873   0.964   3.972   3.994
 3949SOL     OW11874   3.599   3.862   2.710
 3949SOL    HW111875   3.619   3.846   2.613
 3949SOL    HW211876   3.500   3.875   2.722
 3950SOL     OW11877   1.683   1.032   1.581
 3950SOL    HW111878   1.719   0.968   1.513
 3950SOL    HW211879   1.583   1.027   1.581
 3951SOL     OW11880   0.633   1.391   4.418
 3951SOL    HW111881   0.648   1.477   4.371
 3951SOL    HW211882   0.536   1.368   4.415
 3952SOL     OW11883   3.951   3.562   0.529
 3952SOL    HW111884   4.036   3.580   0.479
 3952SOL    HW211885   3.890   3.640   0.521
 3953SOL     OW11886   4.397   0.167   2.852
 3953SOL    HW111887   4.332   0.144   2.925
 3953SOL    HW211888   4.465   0.232   2.888
 3954SOL     OW11889   2.121   0.813   4.796
 3954SOL    HW111890   2.163   0.779   4.712
 3954SOL    HW211891   2.153   0.758   4.874
 3955SOL     OW11892   1.502   1.140   0.098
 3955SOL    HW111893   1.581   1.150   0.037
 3955SOL    HW211894   1.422   1.185   0.057
 3956SOL     OW11895   0.421   2.239   1.843
 3956SOL    HW111896   0.504   2.248   1.789
 3956SOL    HW211897   0.400   2.142   1.856
 3957SOL     OW11898   4.968   1.151   1.253
 3957SOL    HW111899   4.989   1.190   1.164
 3957SOL    HW211900   0.018   1.136   1.304
 3958SOL     OW11901   4.437   3.613   1.665
 3958SOL    HW111902   4.464   3.560   1.745
 3958SOL    HW211903   4.343   3.590   1.640
 3959SOL     OW11904   0.618   1.998   4.955
 3959SOL    HW111905   0.694   1.957   4.904
 3959SOL    HW211906   0.538   1.940   4.948
 3960SOL     OW11907   2.894   0.307   4.987
 3960SOL    HW111908   2.886   0.215   4.948
 3960SOL    HW211909   2.806   0.354   4.980
 3961SOL     OW11910   1.620   0.311   3.111
 3961SOL    HW111911   1.546   0.245   3.095
 3961SOL    HW211912   1.668   0.329   3.026
 3962SOL     OW11913   2.671   2.991   4.573
 3962SOL    HW111914   2.661   3.085   4.543
 3962SOL    HW211915   2.672   2.930   4.494
 3963SOL     OW11916   1.601   1.924   1.332
 3963SOL    HW111917   1.659   1.929   1.251
 3963SOL    HW211918   1.657   1.941   1.414
 3964SOL     OW11919   2.920   3.090   4.920
 3964SOL    HW111920   2.873   3.155   4.980
 3964SOL    HW211921   2.856   3.019   4.892
 3965SOL     OW11922   1.043   4.795   1.720
 3965SOL    HW111923   0.991   4.879   1.701
 3965SOL    HW211924   1.011   4.754   1.805
 3966SOL     OW11925   2.114   4.787   2.639
 3966SOL    HW111926   2.199   4.839   2.641
 3966SOL    HW211927   2.079   4.775   2.732
 3967SOL     OW11928   4.731   0.801   2.882
 3967SOL    HW111929   4.640   0.760   2.898
 3967SOL    HW211930   4.732   0.895   2.916
 3968SOL     OW11931   4.702   4.622   4.306
 3968SOL    HW111932   4.632   4.645   4.374
 3968SOL    HW211933   4.661   4.570   4.231
 3969SOL     OW11934   3.799   4.417   1.020
 3969SOL    HW111935   3.744   4.449   1.097
 3969SOL    HW211936   3.808   4.491   0.953
 3970SOL     OW11937   0.062   4.595   3.340
 3970SOL    HW111938   0.041   4.663   3.269
 3970SOL    HW211939   0.095   4.642   3.422
 3971SOL     OW11940   4.966   0.856   4.239
 3971SOL    HW111941   4.878   0.839   4.193
 3971SOL    HW211942   4.988   0.953   4.233
 3972SOL     OW11943   0.428   2.387   4.960
 3972SOL    HW111944   0.527   2.385   4.964
 3972SOL    HW211945   0.391   2.306   5.007
 3973SOL     OW11946   3.653   1.038   1.926
 3973SOL    HW111947   3.637   1.117   1.867
 3973SOL    HW211948   3.700   1.067   2.009
 3974SOL     OW11949   4.870   0.882   4.804
 3974SOL    HW111950   4.857   0.965   4.857
 3974SOL    HW211951   4.837   0.896   4.711
 3975SOL     OW11952   4.595   3.248   0.039
 3975SOL    HW111953   4.515   3.274   0.094
 3975SOL    HW211954   4.672   3.228   0.100
 3976SOL     OW11955   2.628   2.935   3.555
 3976SOL    HW111956   2.646   2.903   3.649
 3976SOL    HW211957   2.589   3.027   3.558
 3977SOL     OW11958   3.936   0.973   0.056
 3977SOL    HW111959   3.893   1.045   0.111
 3977SOL    HW211960   4.012   1.011   0.005
 3978SOL     OW11961   3.334   1.216   4.640
 3978SOL    HW111962   3.324   1.144   4.708
 3978SOL    HW211963   3.402   1.282   4.671
 3979SOL     OW11964   3.459   4.874   2.368
 3979SOL    HW111965   3.494   4.899   2.277
 3979SOL    HW211966   3.373   4.823   2.357
 3980SOL     OW11967   0.901   0.861   2.402
 3980SOL    HW111968   0.805   0.889   2.393
 3980SOL    HW211969   0.925   0.859   2.499
 3981SOL     OW11970   2.669   3.144   2.810
 3981SOL    HW111971   2.594   3.163   2.746
 3981SOL    HW211972   2.729   3.073   2.772
 3982SOL     OW11973   1.709   0.926   2.528
 3982SOL    HW111974   1.756   0.967   2.450
 3982SOL    HW211975   1.768   0.858   2.571
 3983SOL     OW11976   3.062   0.519   0.810
 3983SOL    HW111977   3.000   0.504   0.733
 3983SOL    HW211978   3.129   0.589   0.785
 3984SOL     OW11979   4.463   0.799   3.304
 3984SOL    HW111980   4.385   0.852   3.271
 3984SOL    HW211981   4.492   0.836   3.392
 3985SOL     OW11982   1.393   2.944   1.849
 3985SOL    HW111983   1.333   2.959   1.927
 3985SOL    HW211984   1.341   2.904   1.774
 3986SOL     OW11985   4.807   2.723   4.980
 3986SOL    HW111986   4.887   2.664   4.980
 3986SOL    HW211987   4.832   2.814   4.948
 3987SOL     OW11988   2.488   0.751   0.525
 3987SOL    HW111989   2.504   0.813   0.448
 3987SOL    HW211990   2.539   0.666   0.510
 3988SOL     OW11991   0.976   4.894   4.328
 3988SOL    HW111992   0.965   4.975   4.272
 3988SOL    HW211993   1.018   4.919   4.415
 3989SOL     OW11994   0.318   0.303   3.432
 3989SOL    HW111995   0.248   0.322   3.501
 3989SOL    HW211996   0.339   0.386   3.381
 3990SOL     OW11997   1.573   0.762   1.637
 3990SOL    HW111998   1.495   0.718   1.595
 3990SOL    HW211999   1.556   0.773   1.735
 3991SOL     OW12000   4.571   4.685   1.709
 3991SOL    HW112001   4.642   4.674   1.639
 3991SOL    HW212002   4.572   4.605   1.769
 3992SOL     OW12003   0.773   1.867   3.292
 3992SOL    HW112004   0.677   1.893   3.285
 3992SOL    HW212005   0.802   1.820   3.209
 3993SOL     OW12006   1.516   1.730   0.143
 3993SOL    HW112007   1.567   1.650   0.110
 3993SOL    HW212008   1.547   1.754   0.235
 3994SOL     OW12009   2.522   1.893   0.469
 3994SOL    HW112010   2.504   1.963   0.538
 3994SOL    HW212011   2.561   1.935   0.387
 3995SOL     OW12012   1.439   2.058   1.118
 3995SOL    HW112013   1.366   1.995   1.145
 3995SOL    HW212014   1.524   2.007   1.106
 3996SOL     OW12015   4.229   0.047   4.073
 3996SOL    HW112016   4.245   0.085   4.164
 3996SOL    HW212017   4.137   0.068   4.043
 3997SOL     OW12018   0.567   2.660   0.966
 3997SOL    HW112019   0.529   2.644   0.875
 3997SOL    HW212020   0.661   2.692   0.957
 3998SOL     OW12021   4.342   3.390   1.169
 3998SOL    HW112022   4.286   3.461   1.213
 3998SOL    HW212023   4.348   3.409   1.071
 3999SOL     OW12024   1.960   4.728   0.077
 3999SOL    HW112025   1.998   4.670   0.149
 3999SOL    HW212026   2.018   4.808   0.063
 4000SOL     OW12027   1.005   4.236   2.545
 4000SOL    HW112028   1.017   4.335   2.548
 4000SOL    HW212029   0.918   4.211   2.588
 4001SOL     OW12030   1.833   2.847   4.196
 4001SOL    HW112031   1.812   2.943   4.177
 4001SOL    HW212032   1.916   2.842   4.252
 4002SOL     OW12033   2.771   4.659   3.216
 4002SOL    HW112034   2.860   4.666   3.260
 4002SOL    HW212035   2.765   4.574   3.165
 4003SOL     OW12036   3.757   2.927   3.042
 4003SOL    HW112037   3.676   2.984   3.058
 4003SOL    HW212038   3.736   2.832   3.063
 4004SOL     OW12039   0.762   0.195   2.481
 4004SOL    HW112040   0.787   0.107   2.521
 4004SOL    HW212041   0.696   0.181   2.407
 4005SOL     OW12042   2.005   2.491   1.659
 4005SOL    HW112043   1.976   2.399   1.631
 4005SOL    HW212044   2.069   2.484   1.735
 4006SOL     OW12045   0.705   4.716   3.369
 4006SOL    HW112046   0.736   4.695   3.276
 4006SOL    HW212047   0.614   4.677   3.383
 4007SOL     OW12048   0.380   2.964   2.428
 4007SOL    HW112049   0.381   3.054   2.386
 4007SOL    HW212050   0.413   2.896   2.362
 4008SOL     OW12051   3.918   1.717   4.879
 4008SOL    HW112052   3.974   1.698   4.960
 4008SOL    HW212053   3.861   1.638   4.858
 4009SOL     OW12054   2.375   1.689   0.631
 4009SOL    HW112055   2.280   1.711   0.649
 4009SOL    HW212056   2.412   1.752   0.563
 4010SOL     OW12057   3.961   1.142   2.790
 4010SOL    HW112058   3.941   1.075   2.862
 4010SOL    HW212059   4.049   1.120   2.748
 4011SOL     OW12060   3.376   3.093   0.798
 4011SOL    HW112061   3.401   3.187   0.775
 4011SOL    HW212062   3.378   3.037   0.716
 4012SOL     OW12063   4.101   1.152   3.556
 4012SOL    HW112064   4.051   1.237   3.573
 4012SOL    HW212065   4.199   1.168   3.568
 4013SOL     OW12066   4.890   1.684   3.267
 4013SOL    HW112067   4.953   1.709   3.193
 4013SOL    HW212068   4.820   1.755   3.276
 4014SOL     OW12069   2.344   1.430   1.164
 4014SOL    HW112070   2.429   1.482   1.164
 4014SOL    HW212071   2.356   1.346   1.217
 4015SOL     OW12072   2.841   4.139   1.734
 4015SOL    HW112073   2.875   4.197   1.808
 4015SOL    HW212074   2.916   4.085   1.697
 4016SOL     OW12075   1.453   1.283   1.040
 4016SOL    HW112076   1.513   1.204   1.048
 4016SOL    HW212077   1.357   1.255   1.048
 4017SOL     OW12078   1.201   4.222   4.382
 4017SOL    HW112079   1.170   4.131   4.412
 4017SOL    HW212080   1.134   4.259   4.318
 4018SOL     OW12081   0.492   2.217   4.531
 4018SOL    HW112082   0.478   2.313   4.505
 4018SOL    HW212083   0.506   2.163   4.448
 4019SOL     OW12084   3.160   0.817   2.583
 4019SOL    HW112085   3.174   0.910   2.616
 4019SOL    HW212086   3.140   0.819   2.485
 4020SOL     OW12087   2.562   3.636   0.646
 4020SOL    HW112088   2.646   3.663   0.693
 4020SOL    HW212089   2.509   3.574   0.704
 4021SOL     OW12090   4.037   0.495   3.370
 4021SOL    HW112091   3.958   0.470   3.426
 4021SOL    HW212092   4.067   0.416   3.318
 4022SOL     OW12093   4.021   4.878   3.544
 4022SOL    HW112094   4.035   4.779   3.551
 4022SOL    HW212095   3.923   4.899   3.552
 4023SOL     OW12096   0.742   1.979   4.125
 4023SOL    HW112097   0.789   1.988   4.037
 4023SOL    HW212098   0.809   1.957   4.196
 4024SOL     OW12099   4.178   0.981   1.588
 4024SOL    HW112100   4.092   0.959   1.543
 4024SOL    HW212101   4.240   1.023   1.522
 4025SOL     OW12102   0.803   3.423   1.156
 4025SOL    HW112103   0.832   3.437   1.250
 4025SOL    HW212104   0.748   3.500   1.125
 4026SOL     OW12105   3.868   4.607   1.643
 4026SOL    HW112106   3.832   4.699   1.659
 4026SOL    HW212107   3.809   4.560   1.577
 4027SOL     OW12108   3.482   4.227   3.034
 4027SOL    HW112109   3.532   4.198   3.116
 4027SOL    HW212110   3.529   4.306   2.994
 4028SOL     OW12111   4.666   2.277   4.679
 4028SOL    HW112112   4.749   2.308   4.727
 4028SOL    HW212113   4.655   2.328   4.594
 4029SOL     OW12114   3.262   2.284   0.463
 4029SOL    HW112115   3.166   2.308   0.477
 4029SOL    HW212116   3.269   2.190   0.430
 4030SOL     OW12117   3.773   3.709   1.013
 4030SOL    HW112118   3.816   3.621   1.036
 4030SOL    HW212119   3.677   3.707   1.040
 4031SOL     OW12120   1.424   0.238   4.501
 4031SOL    HW112121   1.422   0.191   4.589
 4031SOL    HW212122   1.364   0.191   4.436
 4032SOL     OW12123   3.136   0.748   3.139
 4032SOL    HW112124   3.201   0.693   3.191
 4032SOL    HW212125   3.118   0.833   3.189
 4033SOL     OW12126   1.787   3.477   3.044
 4033SOL    HW112127   1.780   3.406   3.113
 4033SOL    HW212128   1.869   3.461   2.989
 4034SOL     OW12129   3.149   1.270   0.027
 4034SOL    HW112130   3.149   1.171   0.017
 4034SOL    HW212131   3.216   1.310   4.999
 4035SOL     OW12132   1.718   2.011   3.837
 4035SOL    HW112133   1.742   2.107   3.848
 4035SOL    HW212134   1.753   1.978   3.749
 4036SOL     OW12135   2.789   3.838   3.280
 4036SOL    HW112136   2.690   3.824   3.281
 4036SOL    HW212137   2.833   3.761   3.234
 4037SOL     OW12138   1.131   1.806   3.655
 4037SOL    HW112139   1.033   1.822   3.645
 4037SOL    HW212140   1.163   1.847   3.740
 4038SOL     OW12141   3.985   1.137   1.886
 4038SOL    HW112142   3.993   1.042   1.858
 4038SOL    HW212143   3.893   1.170   1.865
 4039SOL     OW12144   4.068   4.424   0.912
 4039SOL    HW112145   4.133   4.357   0.876
 4039SOL    HW212146   3.993   4.376   0.957
 4040SOL     OW12147   4.225   3.089   4.186
 4040SOL    HW112148   4.247   3.009   4.242
 4040SOL    HW212149   4.303   3.112   4.128
 4041SOL     OW12150   0.694   1.601   3.350
 4041SOL    HW112151   0.788   1.631   3.331
 4041SOL    HW212152   0.637   1.681   3.366
 4042SOL     OW12153   2.076   1.416   4.127
 4042SOL    HW112154   2.090   1.496   4.185
 4042SOL    HW212155   1.978   1.401   4.113
 4043SOL     OW12156   0.773   0.652   4.302
 4043SOL    HW112157   0.849   0.708   4.270
 4043SOL    HW212158   0.733   0.602   4.225
 4044SOL     OW12159   3.293   0.153   3.123
 4044SOL    HW112160   3.348   0.100   3.187
 4044SOL    HW212161   3.353   0.191   3.052
 4045SOL     OW12162   2.886   0.445   4.717
 4045SOL    HW112163   2.913   0.450   4.814
 4045SOL    HW212164   2.845   0.356   4.699
 4046SOL     OW12165   4.627   3.457   4.873
 4046SOL    HW112166   4.649   3.550   4.905
 4046SOL    HW212167   4.618   3.397   4.952
 4047SOL     OW12168   0.320   3.927   0.971
 4047SOL    HW112169   0.373   3.992   0.917
 4047SOL    HW212170   0.246   3.975   1.018
 4048SOL     OW12171   2.484   4.688   1.219
 4048SOL    HW112172   2.489   4.689   1.119
 4048SOL    HW212173   2.422   4.760   1.250
 4049SOL     OW12174   5.014   0.800   2.983
 4049SOL    HW112175   5.018   0.754   3.072
 4049SOL    HW212176   4.919   0.814   2.956
 4050SOL     OW12177   4.319   4.157   3.440
 4050SOL    HW112178   4.344   4.082   3.379
 4050SOL    HW212179   4.246   4.211   3.398
 4051SOL     OW12180   1.157   3.418   1.244
 4051SOL    HW112181   1.229   3.351   1.260
 4051SOL    HW212182   1.079   3.398   1.303
 4052SOL     OW12183   2.341   2.941   2.752
 4052SOL    HW112184   2.348   2.955   2.653
 4052SOL    HW212185   2.317   3.027   2.796
 4053SOL     OW12186   1.272   2.663   0.476
 4053SOL    HW112187   1.194   2.611   0.440
 4053SOL    HW212188   1.246   2.758   0.489
 4054SOL     OW12189   1.996   0.998   0.780
 4054SOL    HW112190   1.942   0.914   0.781
 4054SOL    HW212191   1.941   1.074   0.746
 4055SOL     OW12192   2.631   1.730   3.467
 4055SOL    HW112193   2.609   1.719   3.564
 4055SOL    HW212194   2.730   1.735   3.456
 4056SOL     OW12195   3.822   2.338   3.421
 4056SOL    HW112196   3.891   2.346   3.493
 4056SOL    HW212197   3.744   2.285   3.456
 4057SOL     OW12198   0.882   2.049   2.073
 4057SOL    HW112199   0.950   2.058   2.001
 4057SOL    HW212200   0.790   2.044   2.033
 4058SOL     OW12201   3.582   2.580   3.856
 4058SOL    HW112202   3.545   2.621   3.772
 4058SOL    HW212203   3.519   2.597   3.932
 4059SOL     OW12204   2.477   2.056   0.202
 4059SOL    HW112205   2.475   2.065   0.103
 4059SOL    HW212206   2.409   1.989   0.231
 4060SOL     OW12207   2.400   1.893   2.770
 4060SOL    HW112208   2.359   1.974   2.812
 4060SOL    HW212209   2.461   1.848   2.836
 4061SOL     OW12210   1.708   2.152   0.701
 4061SOL    HW112211   1.769   2.091   0.752
 4061SOL    HW212212   1.619   2.155   0.746
 4062SOL     OW12213   1.966   1.274   1.524
 4062SOL    HW112214   1.896   1.262   1.595
 4062SOL    HW212215   1.976   1.189   1.473
 4063SOL     OW12216   2.239   3.381   4.313
 4063SOL    HW112217   2.179   3.455   4.282
 4063SOL    HW212218   2.271   3.400   4.406
 4064SOL     OW12219   1.417   0.758   2.217
 4064SOL    HW112220   1.377   0.681   2.167
 4064SOL    HW212221   1.343   0.813   2.255
 4065SOL     OW12222   0.975   3.330   4.764
 4065SOL    HW112223   0.893   3.352   4.817
 4065SOL    HW212224   1.001   3.409   4.708
 4066SOL     OW12225   4.533   0.366   4.575
 4066SOL    HW112226   4.498   0.348   4.484
 4066SOL    HW212227   4.467   0.423   4.625
 4067SOL     OW12228   0.041   2.007   4.678
 4067SOL    HW112229   5.017   1.969   4.607
 4067SOL    HW212230   0.001   1.990   4.768
 4068SOL     OW12231   3.611   3.283   0.404
 4068SOL    HW112232   3.624   3.373   0.444
 4068SOL    HW212233   3.643   3.283   0.309
 4069SOL     OW12234   1.868   4.673   4.852
 4069SOL    HW112235   1.852   4.769   4.831
 4069SOL    HW212236   1.908   4.665   4.943
 4070SOL     OW12237   4.223   3.286   3.131
 4070SOL    HW112238   4.251   3.190   3.135
 4070SOL    HW212239   4.123   3.291   3.126
 4071SOL     OW12240   0.437   3.744   1.438
 4071SOL    HW112241   0.472   3.651   1.430
 4071SOL    HW212242   0.510   3.810   1.419
 4072SOL     OW12243   0.688   1.403   1.234
 4072SOL    HW112244   0.785   1.383   1.246
 4072SOL    HW212245   0.642   1.399   1.323
 4073SOL     OW12246   2.356   3.712   4.569
 4073SOL    HW112247   2.427   3.703   4.498
 4073SOL    HW212248   2.266   3.696   4.528
 4074SOL     OW12249   2.578   3.026   1.282
 4074SOL    HW112250   2.677   3.040   1.293
 4074SOL    HW212251   2.539   2.996   1.369
 4075SOL     OW12252   1.028   0.548   0.079
 4075SOL    HW112253   0.970   0.534   0.159
 4075SOL    HW212254   0.972   0.579   0.002
 4076SOL     OW12255   3.292   3.497   3.298
 4076SOL    HW112256   3.299   3.593   3.270
 4076SOL    HW212257   3.337   3.485   3.386
 4077SOL     OW12258   0.217   1.767   1.568
 4077SOL    HW112259   0.303   1.790   1.614
 4077SOL    HW212260   0.223   1.794   1.472
 4078SOL     OW12261   2.931   4.055   3.548
 4078SOL    HW112262   2.924   4.005   3.634
 4078SOL    HW212263   2.861   4.021   3.484
 4079SOL     OW12264   2.229   4.010   2.608
 4079SOL    HW112265   2.212   4.004   2.707
 4079SOL    HW212266   2.177   4.087   2.570
 4080SOL     OW12267   4.607   4.082   0.092
 4080SOL    HW112268   4.568   4.078   5.035
 4080SOL    HW212269   4.676   4.155   0.096
 4081SOL     OW12270   1.720   2.830   1.343
 4081SOL    HW112271   1.639   2.880   1.311
 4081SOL    HW212272   1.773   2.798   1.265
 4082SOL     OW12273   4.093   1.889   0.470
 4082SOL    HW112274   4.136   1.923   0.553
 4082SOL    HW212275   3.993   1.893   0.481
 4083SOL     OW12276   2.308   1.850   2.370
 4083SOL    HW112277   2.211   1.849   2.398
 4083SOL    HW212278   2.350   1.763   2.393
 4084SOL     OW12279   4.741   3.607   2.749
 4084SOL    HW112280   4.733   3.618   2.848
 4084SOL    HW212281   4.691   3.526   2.720
 4085SOL     OW12282   2.770   3.044   3.873
 4085SOL    HW112283   2.770   2.959   3.820
 4085SOL    HW212284   2.839   3.038   3.945
 4086SOL     OW12285   4.856   0.299   3.333
 4086SOL    HW112286   4.776   0.248   3.304
 4086SOL    HW212287   4.909   0.327   3.253
 4087SOL     OW12288   4.744   4.107   4.422
 4087SOL    HW112289   4.830   4.144   4.458
 4087SOL    HW212290   4.680   4.182   4.406
 4088SOL     OW12291   2.282   4.405   1.149
 4088SOL    HW112292   2.301   4.319   1.196
 4088SOL    HW212293   2.188   4.404   1.114
 4089SOL     OW12294   0.261   2.089   0.429
 4089SOL    HW112295   0.306   2.082   0.340
 4089SOL    HW212296   0.266   2.184   0.461
 4090SOL     OW12297   4.759   1.232   0.279
 4090SOL    HW112298   4.826   1.304   0.299
 4090SOL    HW212299   4.700   1.262   0.204
 4091SOL     OW12300   0.401   3.389   4.128
 4091SOL    HW112301   0.469   3.386   4.055
 4091SOL    HW212302   0.346   3.472   4.120
 4092SOL     OW12303   2.679   0.387   4.289
 4092SOL    HW112304   2.708   0.317   4.224
 4092SOL    HW212305   2.580   0.380   4.302
 4093SOL     OW12306   3.739   4.247   2.665
 4093SOL    HW112307   3.798   4.320   2.630
 4093SOL    HW212308   3.684   4.210   2.591
 4094SOL     OW12309   2.363   3.097   3.323
 4094SOL    HW112310   2.263   3.095   3.311
 4094SOL    HW212311   2.406   3.134   3.241
 4095SOL     OW12312   2.593   0.346   1.125
 4095SOL    HW112313   2.596   0.405   1.045
 4095SOL    HW212314   2.601   0.401   1.208
 4096SOL     OW12315   0.896   4.368   1.767
 4096SOL    HW112316   0.938   4.393   1.680
 4096SOL    HW212317   0.804   4.332   1.751
 4097SOL     OW12318   2.624   0.329   0.679
 4097SOL    HW112319   2.542   0.378   0.709
 4097SOL    HW212320   2.639   0.345   0.582
 4098SOL     OW12321   4.338   2.227   3.346
 4098SOL    HW112322   4.415   2.249   3.405
 4098SOL    HW212323   4.265   2.293   3.360
 4099SOL     OW12324   4.123   3.643   0.834
 4099SOL    HW112325   4.078   3.730   0.813
 4099SOL    HW212326   4.073   3.597   0.907
 4100SOL     OW12327   1.584   3.023   4.847
 4100SOL    HW112328   1.503   2.965   4.850
 4100SOL    HW212329   1.578   3.086   4.769
 4101SOL     OW12330   2.211   0.080   4.031
 4101SOL    HW112331   2.177   0.027   3.954
 4101SOL    HW212332   2.298   0.122   4.008
 4102SOL     OW12333   4.990   0.610   2.508
 4102SOL    HW112334   0.009   0.669   2.447
 4102SOL    HW212335   4.945   0.539   2.454
 4103SOL     OW12336   3.116   1.304   4.182
 4103SOL    HW112337   3.188   1.358   4.139
 4103SOL    HW212338   3.133   1.207   4.165
 4104SOL     OW12339   3.109   4.098   4.491
 4104SOL    HW112340   3.019   4.136   4.467
 4104SOL    HW212341   3.177   4.172   4.491
 4105SOL     OW12342   1.927   0.614   1.305
 4105SOL    HW112343   1.864   0.673   1.356
 4105SOL    HW212344   2.000   0.670   1.266
 4106SOL     OW12345   0.090   4.080   0.118
 4106SOL    HW112346   0.156   4.127   0.177
 4106SOL    HW212347   0.132   4.061   0.030
 4107SOL     OW12348   0.253   3.288   3.024
 4107SOL    HW112349   0.159   3.283   2.987
 4107SOL    HW212350   0.270   3.381   3.057
 4108SOL     OW12351   0.165   4.413   3.566
 4108SOL    HW112352   0.131   4.324   3.536
 4108SOL    HW212353   0.249   4.436   3.516
 4109SOL     OW12354   3.629   4.652   4.863
 4109SOL    HW112355   3.721   4.685   4.844
 4109SOL    HW212356   3.608   4.667   4.960
 4110SOL     OW12357   4.698   2.799   2.308
 4110SOL    HW112358   4.719   2.896   2.299
 4110SOL    HW212359   4.625   2.775   2.243
 4111SOL     OW12360   3.256   0.583   3.324
 4111SOL    HW112361   3.268   0.487   3.301
 4111SOL    HW212362   3.283   0.598   3.419
 4112SOL     OW12363   2.814   1.018   5.003
 4112SOL    HW112364   2.789   0.922   4.997
 4112SOL    HW212365   2.735   1.075   4.981
 4113SOL     OW12366   2.596   0.104   1.476
 4113SOL    HW112367   2.678   0.120   1.532
 4113SOL    HW212368   2.521   0.160   1.511
 4114SOL     OW12369   4.384   1.838   4.103
 4114SOL    HW112370   4.291   1.802   4.096
 4114SOL    HW212371   4.427   1.802   4.186
 4115SOL     OW12372   0.455   1.684   0.810
 4115SOL    HW112373   0.415   1.645   0.726
 4115SOL    HW212374   0.382   1.726   0.864
 4116SOL     OW12375   3.514   3.624   4.858
 4116SOL    HW112376   3.460   3.539   4.859
 4116SOL    HW212377   3.557   3.635   4.769
 4117SOL     OW12378   3.697   3.426   1.332
 4117SOL    HW112379   3.795   3.447   1.341
 4117SOL    HW212380   3.645   3.511   1.328
 4118SOL     OW12381   4.356   1.811   0.673
 4118SOL    HW112382   4.454   1.793   0.679
 4118SOL    HW212383   4.326   1.859   0.756
 4119SOL     OW12384   4.353   3.021   0.614
 4119SOL    HW112385   4.271   2.969   0.641
 4119SOL    HW212386   4.377   3.085   0.687
 4120SOL     OW12387   0.517   0.890   3.093
 4120SOL    HW112388   0.423   0.893   3.058
 4120SOL    HW212389   0.551   0.984   3.101
 4121SOL     OW12390   4.020   1.368   1.349
 4121SOL    HW112391   4.039   1.323   1.436
 4121SOL    HW212392   4.073   1.453   1.343
 4122SOL     OW12393   2.045   4.229   1.253
 4122SOL    HW112394   2.111   4.210   1.326
 4122SOL    HW212395   1.982   4.301   1.283
 4123SOL     OW12396   2.902   2.180   4.920
 4123SOL    HW112397   2.944   2.169   4.830
 4123SOL    HW212398   2.870   2.092   4.954
 4124SOL     OW12399   4.077   0.468   4.491
 4124SOL    HW112400   4.087   0.373   4.518
 4124SOL    HW212401   4.012   0.513   4.552
 4125SOL     OW12402   2.894   4.428   4.419
 4125SOL    HW112403   2.913   4.389   4.509
 4125SOL    HW212404   2.804   4.399   4.388
 4126SOL     OW12405   3.566   0.972   1.381
 4126SOL    HW112406   3.605   1.022   1.458
 4126SOL    HW212407   3.565   0.874   1.403
 4127SOL     OW12408   4.047   1.402   1.065
 4127SOL    HW112409   4.113   1.332   1.037
 4127SOL    HW212410   3.997   1.370   1.146
 4128SOL     OW12411   0.162   2.761   2.901
 4128SOL    HW112412   0.110   2.846   2.901
 4128SOL    HW212413   0.214   2.754   2.986
 4129SOL     OW12414   1.869   4.635   1.144
 4129SOL    HW112415   1.903   4.629   1.050
 4129SOL    HW212416   1.769   4.634   1.144
 4130SOL     OW12417   4.312   1.582   4.767
 4130SOL    HW112418   4.361   1.670   4.765
 4130SOL    HW212419   4.308   1.544   4.675
 4131SOL     OW12420   0.309   0.516   4.747
 4131SOL    HW112421   0.391   0.460   4.735
 4131SOL    HW212422   0.282   0.555   4.658
 4132SOL     OW12423   2.536   0.624   3.793
 4132SOL    HW112424   2.441   0.598   3.783
 4132SOL    HW212425   2.572   0.589   3.880
 4133SOL     OW12426   2.441   4.550   4.438
 4133SOL    HW112427   2.429   4.650   4.433
 4133SOL    HW212428   2.398   4.508   4.358
 4134SOL     OW12429   2.196   1.944   0.511
 4134SOL    HW112430   2.184   2.035   0.472
 4134SOL    HW212431   2.123   1.884   0.478
 4135SOL     OW12432   1.745   2.717   0.724
 4135SOL    HW112433   1.681   2.793   0.733
 4135SOL    HW212434   1.826   2.748   0.674
 4136SOL     OW12435   1.368   4.253   3.343
 4136SOL    HW112436   1.311   4.178   3.310
 4136SOL    HW212437   1.347   4.271   3.439
 4137SOL     OW12438   3.572   2.722   1.979
 4137SOL    HW112439   3.531   2.736   1.889
 4137SOL    HW212440   3.504   2.739   2.050
 4138SOL     OW12441   4.158   4.588   1.728
 4138SOL    HW112442   4.141   4.490   1.726
 4138SOL    HW212443   4.100   4.633   1.660
 4139SOL     OW12444   2.753   0.270   4.552
 4139SOL    HW112445   2.764   0.365   4.522
 4139SOL    HW212446   2.741   0.211   4.472
 4140SOL     OW12447   2.141   4.063   3.285
 4140SOL    HW112448   2.207   4.122   3.332
 4140SOL    HW212449   2.106   3.994   3.349
 4141SOL     OW12450   2.317   4.370   4.977
 4141SOL    HW112451   2.301   4.271   4.970
 4141SOL    HW212452   2.331   4.408   4.885
 4142SOL     OW12453   1.730   1.950   1.090
 4142SOL    HW112454   1.808   1.919   1.144
 4142SOL    HW212455   1.762   2.008   1.015
 4143SOL     OW12456   1.293   4.410   2.506
 4143SOL    HW112457   1.198   4.439   2.510
 4143SOL    HW212458   1.342   4.443   2.588
 4144SOL     OW12459   2.704   4.221   0.493
 4144SOL    HW112460   2.648   4.299   0.463
 4144SOL    HW212461   2.793   4.224   0.448
 4145SOL     OW12462   0.454   2.720   4.443
 4145SOL    HW112463   0.489   2.642   4.390
 4145SOL    HW212464   0.530   2.763   4.491
 4146SOL     OW12465   2.092   4.363   4.080
 4146SOL    HW112466   2.077   4.388   3.985
 4146SOL    HW212467   2.024   4.294   4.108
 4147SOL     OW12468   0.747   5.027   2.932
 4147SOL    HW112469   0.801   0.023   3.010
 4147SOL    HW212470   0.703   0.070   2.888
 4148SOL     OW12471   3.724   0.413   3.010
 4148SOL    HW112472   3.717   0.467   2.926
 4148SOL    HW212473   3.781   0.333   2.993
 4149SOL     OW12474   3.927   3.309   1.652
 4149SOL    HW112475   3.866   3.234   1.625
 4149SOL    HW212476   4.012   3.302   1.598
 4150SOL     OW12477   2.928   4.604   0.552
 4150SOL    HW112478   2.983   4.676   0.593
 4150SOL    HW212479   2.956   4.515   0.588
 4151SOL     OW12480   1.412   1.950   1.589
 4151SOL    HW112481   1.324   1.916   1.622
 4151SOL    HW212482   1.415   2.050   1.599
 4152SOL     OW12483   0.484   3.000   3.168
 4152SOL    HW112484   0.485   2.913   3.120
 4152SOL    HW212485   0.390   3.024   3.193
 4153SOL     OW12486   0.881   0.570   2.404
 4153SOL    HW112487   0.866   0.669   2.394
 4153SOL    HW212488   0.841   0.539   2.490
 4154SOL     OW12489   2.492   0.158   4.713
 4154SOL    HW112490   2.579   0.171   4.665
 4154SOL    HW212491   2.421   0.131   4.648
 4155SOL     OW12492   1.149   4.213   3.023
 4155SOL    HW112493   1.161   4.290   2.960
 4155SOL    HW212494   1.146   4.246   3.117
 4156SOL     OW12495   1.370   4.598   3.124
 4156SOL    HW112496   1.295   4.551   3.078
 4156SOL    HW212497   1.411   4.664   3.061
 4157SOL     OW12498   5.021   3.548   4.374
 4157SOL    HW112499   4.972   3.514   4.454
 4157SOL    HW212500   4.983   3.506   4.291
 4158SOL     OW12501   1.402   0.743   1.022
 4158SOL    HW112502   1.412   0.657   0.971
 4158SOL    HW212503   1.424   0.820   0.962
 4159SOL     OW12504   4.836   0.621   3.103
 4159SOL    HW112505   4.893   0.544   3.129
 4159SOL    HW212506   4.809   0.611   3.007
 4160SOL     OW12507   2.119   2.510   1.223
 4160SOL    HW112508   2.086   2.415   1.229
 4160SOL    HW212509   2.217   2.512   1.237
 4161SOL     OW12510   1.230   0.141   3.551
 4161SOL    HW112511   1.215   0.226   3.502
 4161SOL    HW212512   1.250   0.068   3.486
 4162SOL     OW12513   2.093   0.965   0.127
 4162SOL    HW112514   2.178   1.008   0.098
 4162SOL    HW212515   2.077   0.985   0.224
 4163SOL     OW12516   1.980   3.033   0.041
 4163SOL    HW112517   2.019   2.943   0.062
 4163SOL    HW212518   1.883   3.033   0.062
 4164SOL     OW12519   4.679   1.412   2.658
 4164SOL    HW112520   4.723   1.380   2.742
 4164SOL    HW212521   4.667   1.335   2.595
 4165SOL     OW12522   4.243   3.062   0.347
 4165SOL    HW112523   4.193   3.075   0.433
 4165SOL    HW212524   4.258   2.965   0.332
 4166SOL     OW12525   0.764   1.272   3.752
 4166SOL    HW112526   0.772   1.184   3.704
 4166SOL    HW212527   0.727   1.341   3.689
 4167SOL     OW12528   1.880   4.187   2.873
 4167SOL    HW112529   1.919   4.097   2.851
 4167SOL    HW212530   1.894   4.206   2.970
 4168SOL     OW12531   5.010   0.605   2.789
 4168SOL    HW112532   5.012   0.687   2.846
 4168SOL    HW212533   4.986   0.630   2.696
 4169SOL     OW12534   1.718   3.000   2.981
 4169SOL    HW112535   1.737   3.055   2.899
 4169SOL    HW212536   1.729   2.903   2.960
 4170SOL     OW12537   0.765   1.668   2.277
 4170SOL    HW112538   0.838   1.671   2.346
 4170SOL    HW212539   0.722   1.578   2.279
 4171SOL     OW12540   2.352   2.758   2.277
 4171SOL    HW112541   2.265   2.712   2.261
 4171SOL    HW212542   2.395   2.780   2.189
 4172SOL     OW12543   2.449   4.339   2.782
 4172SOL    HW112544   2.436   4.414   2.717
 4172SOL    HW212545   2.362   4.318   2.826
 4173SOL     OW12546   3.005   3.052   2.437
 4173SOL    HW112547   2.952   3.122   2.484
 4173SOL    HW212548   3.065   3.005   2.502
 4174SOL     OW12549   4.527   0.478   1.311
 4174SOL    HW112550   4.610   0.424   1.294
 4174SOL    HW212551   4.536   0.525   1.399
 4175SOL     OW12552   0.621   4.579   0.741
 4175SOL    HW112553   0.565   4.496   0.750
 4175SOL    HW212554   0.563   4.659   0.754
 4176SOL     OW12555   2.175   1.928   1.374
 4176SOL    HW112556   2.191   1.940   1.472
 4176SOL    HW212557   2.203   1.836   1.346
 4177SOL     OW12558   0.739   0.811   1.057
 4177SOL    HW112559   0.751   0.745   1.132
 4177SOL    HW212560   0.719   0.761   0.973
 4178SOL     OW12561   0.420   0.633   0.167
 4178SOL    HW112562   0.454   0.591   0.251
 4178SOL    HW212563   0.497   0.649   0.104
 4179SOL     OW12564   1.220   4.735   4.001
 4179SOL    HW112565   1.127   4.731   3.964
 4179SOL    HW212566   1.278   4.789   3.939
 4180SOL     OW12567   1.936   3.343   3.824
 4180SOL    HW112568   1.956   3.281   3.749
 4180SOL    HW212569   2.009   3.412   3.831
 4181SOL     OW12570   3.201   0.283   0.780
 4181SOL    HW112571   3.148   0.367   0.791
 4181SOL    HW212572   3.178   0.219   0.854
 4182SOL     OW12573   1.308   1.577   0.612
 4182SOL    HW112574   1.244   1.543   0.681
 4182SOL    HW212575   1.291   1.674   0.596
 4183SOL     OW12576   3.520   0.275   0.684
 4183SOL    HW112577   3.563   0.203   0.629
 4183SOL    HW212578   3.588   0.312   0.747
 4184SOL     OW12579   2.817   4.951   3.428
 4184SOL    HW112580   2.789   0.012   3.434
 4184SOL    HW212581   2.795   4.916   3.337
 4185SOL     OW12582   0.733   2.822   1.685
 4185SOL    HW112583   0.799   2.897   1.692
 4185SOL    HW212584   0.713   2.805   1.588
 4186SOL     OW12585   4.134   0.585   2.556
 4186SOL    HW112586   4.059   0.609   2.619
 4186SOL    HW212587   4.111   0.616   2.464
 4187SOL     OW12588   3.133   1.415   1.702
 4187SOL    HW112589   3.188   1.498   1.711
 4187SOL    HW212590   3.194   1.335   1.700
 4188SOL     OW12591   3.679   2.336   4.036
 4188SOL    HW112592   3.734   2.419   4.039
 4188SOL    HW212593   3.582   2.360   4.023
 4189SOL     OW12594   2.519   3.091   4.252
 4189SOL    HW112595   2.481   3.022   4.313
 4189SOL    HW212596   2.445   3.141   4.207
 4190SOL     OW12597   2.788   4.122   2.322
 4190SOL    HW112598   2.732   4.181   2.264
 4190SOL    HW212599   2.755   4.127   2.416
 4191SOL     OW12600   0.425   3.998   0.230
 4191SOL    HW112601   0.371   3.954   0.158
 4191SOL    HW212602   0.478   3.929   0.278
 4192SOL     OW12603   1.997   2.812   0.611
 4192SOL    HW112604   2.027   2.887   0.553
 4192SOL    HW212605   2.075   2.775   0.662
 4193SOL     OW12606   0.222   0.325   1.428
 4193SOL    HW112607   0.238   0.361   1.336
 4193SOL    HW212608   0.239   0.397   1.495
 4194SOL     OW12609   1.662   2.980   4.431
 4194SOL    HW112610   1.614   2.893   4.445
 4194SOL    HW212611   1.649   3.010   4.337
 4195SOL     OW12612   1.200   3.685   1.366
 4195SOL    HW112613   1.277   3.688   1.302
 4195SOL    HW212614   1.149   3.600   1.355
 4196SOL     OW12615   0.131   1.651   1.843
 4196SOL    HW112616   0.113   1.735   1.792
 4196SOL    HW212617   0.113   1.665   1.940
 4197SOL     OW12618   0.106   2.725   4.202
 4197SOL    HW112619   0.190   2.775   4.225
 4197SOL    HW212620   0.048   2.719   4.283
 4198SOL     OW12621   0.010   3.634   0.223
 4198SOL    HW112622   5.012   3.543   0.246
 4198SOL    HW212623   0.109   3.631   0.207
 4199SOL     OW12624   1.484   4.737   1.785
 4199SOL    HW112625   1.471   4.649   1.832
 4199SOL    HW212626   1.504   4.808   1.853
 4200SOL     OW12627   1.351   1.292   4.954
 4200SOL    HW112628   1.422   1.358   4.981
 4200SOL    HW212629   1.264   1.317   4.997
 4201SOL     OW12630   1.542   1.277   1.909
 4201SOL    HW112631   1.486   1.285   1.826
 4201SOL    HW212632   1.483   1.254   1.986
 4202SOL     OW12633   1.452   0.404   1.773
 4202SOL    HW112634   1.509   0.466   1.827
 4202SOL    HW212635   1.477   0.310   1.793
 4203SOL     OW12636   0.525   3.086   4.506
 4203SOL    HW112637   0.567   3.162   4.556
 4203SOL    HW212638   0.537   3.101   4.407
 4204SOL     OW12639   4.896   2.729   1.401
 4204SOL    HW112640   4.964   2.657   1.409
 4204SOL    HW212641   4.939   2.812   1.367
 4205SOL     OW12642   1.906   4.085   4.900
 4205SOL    HW112643   1.856   4.145   4.837
 4205SOL    HW212644   1.899   4.123   4.993
 4206SOL     OW12645   4.173   4.386   2.983
 4206SOL    HW112646   4.155   4.431   3.071
 4206SOL    HW212647   4.096   4.326   2.960
 4207SOL     OW12648   2.270   4.831   3.912
 4207SOL    HW112649   2.290   4.736   3.936
 4207SOL    HW212650   2.345   4.890   3.942
 4208SOL     OW12651   2.688   2.574   4.660
 4208SOL    HW112652   2.597   2.601   4.629
 4208SOL    HW212653   2.758   2.625   4.609
 4209SOL     OW12654   0.609   0.912   4.185
 4209SOL    HW112655   0.668   0.992   4.190
 4209SOL    HW212656   0.521   0.938   4.145
 4210SOL     OW12657   4.793   4.288   0.058
 4210SOL    HW112658   4.776   4.360   5.026
 4210SOL    HW212659   4.805   4.329   0.149
 4211SOL     OW12660   4.522   4.411   0.132
 4211SOL    HW112661   4.458   4.440   0.203
 4211SOL    HW212662   4.473   4.359   0.062
 4212SOL     OW12663   3.681   4.062   0.469
 4212SOL    HW112664   3.642   4.021   0.551
 4212SOL    HW212665   3.646   4.015   0.388
 4213SOL     OW12666   4.571   2.825   0.544
 4213SOL    HW112667   4.668   2.846   0.531
 4213SOL    HW212668   4.517   2.908   0.530
 4214SOL     OW12669   3.589   1.288   4.773
 4214SOL    HW112670   3.658   1.349   4.734
 4214SOL    HW212671   3.614   1.265   4.866
 4215SOL     OW12672   0.321   0.890   2.374
 4215SOL    HW112673   0.299   0.960   2.305
 4215SOL    HW212674   0.316   0.931   2.465
 4216SOL     OW12675   1.292   4.052   4.637
 4216SOL    HW112676   1.282   3.961   4.677
 4216SOL    HW212677   1.348   4.046   4.554
 4217SOL     OW12678   0.325   0.524   1.924
 4217SOL    HW112679   0.398   0.496   1.987
 4217SOL    HW212680   0.243   0.545   1.977
 4218SOL     OW12681   1.510   2.022   4.541
 4218SOL    HW112682   1.430   1.980   4.499
 4218SOL    HW212683   1.593   1.978   4.506
 4219SOL     OW12684   5.023   3.666   3.225
 4219SOL    HW112685   5.030   3.747   3.166
 4219SOL    HW212686   0.055   3.674   3.299
 4220SOL     OW12687   2.454   2.563   3.045
 4220SOL    HW112688   2.381   2.617   3.003
 4220SOL    HW212689   2.424   2.531   3.135
 4221SOL     OW12690   3.743   4.631   1.281
 4221SOL    HW112691   3.826   4.583   1.309
 4221SOL    HW212692   3.663   4.573   1.300
 4222SOL     OW12693   2.629   2.018   3.287
 4222SOL    HW112694   2.580   2.104   3.303
 4222SOL    HW212695   2.645   2.007   3.189
 4223SOL     OW12696   5.029   1.643   2.112
 4223SOL    HW112697   5.021   1.546   2.135
 4223SOL    HW212698   4.937   1.683   2.108
 4224SOL     OW12699   1.688   4.782   1.467
 4224SOL    HW112700   1.668   4.710   1.401
 4224SOL    HW212701   1.720   4.740   1.552
 4225SOL     OW12702   4.109   3.321   4.075
 4225SOL    HW112703   4.016   3.289   4.055
 4225SOL    HW212704   4.148   3.266   4.149
 4226SOL     OW12705   0.847   2.770   1.092
 4226SOL    HW112706   0.825   2.688   1.145
 4226SOL    HW212707   0.908   2.745   1.017
 4227SOL     OW12708   2.219   1.843   3.852
 4227SOL    HW112709   2.224   1.772   3.923
 4227SOL    HW212710   2.218   1.800   3.762
 4228SOL     OW12711   3.370   3.076   2.716
 4228SOL    HW112712   3.353   3.022   2.799
 4228SOL    HW212713   3.448   3.037   2.666
 4229SOL     OW12714   4.952   2.700   4.408
 4229SOL    HW112715   4.872   2.705   4.468
 4229SOL    HW212716   4.997   2.612   4.418
 4230SOL     OW12717   0.087   2.259   0.268
 4230SOL    HW112718   0.085   2.340   0.326
 4230SOL    HW212719   0.093   2.177   0.325
 4231SOL     OW12720   4.115   4.479   2.139
 4231SOL    HW112721   4.107   4.381   2.121
 4231SOL    HW212722   4.141   4.492   2.235
 4232SOL     OW12723   1.937   4.210   3.131
 4232SOL    HW112724   2.008   4.261   3.181
 4232SOL    HW212725   1.884   4.155   3.196
 4233SOL     OW12726   0.022   0.650   1.053
 4233SOL    HW112727   4.981   0.586   1.066
 4233SOL    HW212728   0.003   0.707   0.973
 4234SOL     OW12729   1.695   3.452   3.435
 4234SOL    HW112730   1.784   3.461   3.390
 4234SOL    HW212731   1.704   3.470   3.533
 4235SOL     OW12732   4.120   3.116   0.906
 4235SOL    HW112733   4.131   3.208   0.869
 4235SOL    HW212734   4.055   3.118   0.983
 4236SOL     OW12735   4.288   4.187   2.795
 4236SOL    HW112736   4.284   4.242   2.878
 4236SOL    HW212737   4.255   4.095   2.814
 4237SOL     OW12738   2.493   2.313   4.794
 4237SOL    HW112739   2.575   2.357   4.759
 4237SOL    HW212740   2.503   2.297   4.893
 4238SOL     OW12741   4.961   1.278   1.821
 4238SOL    HW112742   5.002   1.221   1.749
 4238SOL    HW212743   4.920   1.359   1.779
 4239SOL     OW12744   3.396   0.019   1.618
 4239SOL    HW112745   3.374   0.112   1.646
 4239SOL    HW212746   3.485   0.018   1.572
 4240SOL     OW12747   0.877   2.153   0.285
 4240SOL    HW112748   0.814   2.158   0.208
 4240SOL    HW212749   0.827   2.173   0.370
 4241SOL     OW12750   3.242   4.080   4.224
 4241SOL    HW112751   3.297   4.141   4.167
 4241SOL    HW212752   3.235   4.118   4.317
   5.03500   5.03500   5.03500
