;
;	File 'topology.top' was generated
;	By user: root (131270)
;	On host: csky011
;	At date: Thu Sep  3 11:43:14 2026
;
;	This is a standalone topology file
;
;	Created by:
;	              :-) GROMACS - gmx pdb2gmx, 2021.4-plumed-2.8.0 (-:
;	
;	Executable:   /home/apps/centos7/gromacs/2021.4/gcc9.1_ompi4.1.2/bin/gmx_mpi
;	Data prefix:  /home/apps/centos7/gromacs/2021.4/gcc9.1_ompi4.1.2
;	Working dir:  /scratch/civil/visitor/satya.visitor/dev_gromacs/86_2OVN_peptide
;	Command line:
;	  gmx_mpi pdb2gmx -f 2OVN_clean.pdb -o 2OVN.gro -p topology.top -ignh
;	Force field was read from the standard GROMACS share directory.
;

; Include forcefield parameters
#include "amber99sb-ildn.ff/forcefield.itp"

[ moleculetype ]
; Name            nrexcl
Protein_chain_A     3

[ atoms ]
;   nr       type  resnr residue  atom   cgnr     charge       mass  typeB    chargeB      massB
; residue  16 ASN rtp NASN q +1.0
     1         N3     16    ASN      N      1     0.1801      14.01
     2          H     16    ASN     H1      2     0.1921      1.008
     3          H     16    ASN     H2      3     0.1921      1.008
     4          H     16    ASN     H3      4     0.1921      1.008
     5         CT     16    ASN     CA      5     0.0368      12.01
     6         HP     16    ASN     HA      6     0.1231      1.008
     7         CT     16    ASN     CB      7    -0.0283      12.01
     8         HC     16    ASN    HB1      8     0.0515      1.008
     9         HC     16    ASN    HB2      9     0.0515      1.008
    10          C     16    ASN     CG     10     0.5833      12.01
    11          O     16    ASN    OD1     11    -0.5744         16
    12          N     16    ASN    ND2     12    -0.8634      14.01
    13          H     16    ASN   HD21     13     0.4097      1.008
    14          H     16    ASN   HD22     14     0.4097      1.008
    15          C     16    ASN      C     15     0.6163      12.01
    16          O     16    ASN      O     16    -0.5722         16   ; qtot 1
; residue  17 TYR rtp TYR  q  0.0
    17          N     17    TYR      N     17    -0.4157      14.01
    18          H     17    TYR      H     18     0.2719      1.008
    19         CT     17    TYR     CA     19    -0.0014      12.01
    20         H1     17    TYR     HA     20     0.0876      1.008
    21         CT     17    TYR     CB     21    -0.0152      12.01
    22         HC     17    TYR    HB1     22     0.0295      1.008
    23         HC     17    TYR    HB2     23     0.0295      1.008
    24         CA     17    TYR     CG     24    -0.0011      12.01
    25         CA     17    TYR    CD1     25    -0.1906      12.01
    26         HA     17    TYR    HD1     26     0.1699      1.008
    27         CA     17    TYR    CE1     27    -0.2341      12.01
    28         HA     17    TYR    HE1     28     0.1656      1.008
    29          C     17    TYR     CZ     29     0.3226      12.01
    30         OH     17    TYR     OH     30    -0.5579         16
    31         HO     17    TYR     HH     31     0.3992      1.008
    32         CA     17    TYR    CE2     32    -0.2341      12.01
    33         HA     17    TYR    HE2     33     0.1656      1.008
    34         CA     17    TYR    CD2     34    -0.1906      12.01
    35         HA     17    TYR    HD2     35     0.1699      1.008
    36          C     17    TYR      C     36     0.5973      12.01
    37          O     17    TYR      O     37    -0.5679         16   ; qtot 1
; residue  18 HIS rtp HIE  q  0.0
    38          N     18    HIS      N     38    -0.4157      14.01
    39          H     18    HIS      H     39     0.2719      1.008
    40         CT     18    HIS     CA     40    -0.0581      12.01
    41         H1     18    HIS     HA     41      0.136      1.008
    42         CT     18    HIS     CB     42    -0.0074      12.01
    43         HC     18    HIS    HB1     43     0.0367      1.008
    44         HC     18    HIS    HB2     44     0.0367      1.008
    45         CC     18    HIS     CG     45     0.1868      12.01
    46         NB     18    HIS    ND1     46    -0.5432      14.01
    47         CR     18    HIS    CE1     47     0.1635      12.01
    48         H5     18    HIS    HE1     48     0.1435      1.008
    49         NA     18    HIS    NE2     49    -0.2795      14.01
    50          H     18    HIS    HE2     50     0.3339      1.008
    51         CW     18    HIS    CD2     51    -0.2207      12.01
    52         H4     18    HIS    HD2     52     0.1862      1.008
    53          C     18    HIS      C     53     0.5973      12.01
    54          O     18    HIS      O     54    -0.5679         16   ; qtot 1
; residue  19 LEU rtp LEU  q  0.0
    55          N     19    LEU      N     55    -0.4157      14.01
    56          H     19    LEU      H     56     0.2719      1.008
    57         CT     19    LEU     CA     57    -0.0518      12.01
    58         H1     19    LEU     HA     58     0.0922      1.008
    59         CT     19    LEU     CB     59    -0.1102      12.01
    60         HC     19    LEU    HB1     60     0.0457      1.008
    61         HC     19    LEU    HB2     61     0.0457      1.008
    62         CT     19    LEU     CG     62     0.3531      12.01
    63         HC     19    LEU     HG     63    -0.0361      1.008
    64         CT     19    LEU    CD1     64    -0.4121      12.01
    65         HC     19    LEU   HD11     65        0.1      1.008
    66         HC     19    LEU   HD12     66        0.1      1.008
    67         HC     19    LEU   HD13     67        0.1      1.008
    68         CT     19    LEU    CD2     68    -0.4121      12.01
    69         HC     19    LEU   HD21     69        0.1      1.008
    70         HC     19    LEU   HD22     70        0.1      1.008
    71         HC     19    LEU   HD23     71        0.1      1.008
    72          C     19    LEU      C     72     0.5973      12.01
    73          O     19    LEU      O     73    -0.5679         16   ; qtot 1
; residue  20 GLU rtp GLU  q -1.0
    74          N     20    GLU      N     74    -0.5163      14.01
    75          H     20    GLU      H     75     0.2936      1.008
    76         CT     20    GLU     CA     76     0.0397      12.01
    77         H1     20    GLU     HA     77     0.1105      1.008
    78         CT     20    GLU     CB     78      0.056      12.01
    79         HC     20    GLU    HB1     79    -0.0173      1.008
    80         HC     20    GLU    HB2     80    -0.0173      1.008
    81         CT     20    GLU     CG     81     0.0136      12.01
    82         HC     20    GLU    HG1     82    -0.0425      1.008
    83         HC     20    GLU    HG2     83    -0.0425      1.008
    84          C     20    GLU     CD     84     0.8054      12.01
    85         O2     20    GLU    OE1     85    -0.8188         16
    86         O2     20    GLU    OE2     86    -0.8188         16
    87          C     20    GLU      C     87     0.5366      12.01
    88          O     20    GLU      O     88    -0.5819         16   ; qtot 0
; residue  21 ASN rtp ASN  q  0.0
    89          N     21    ASN      N     89    -0.4157      14.01
    90          H     21    ASN      H     90     0.2719      1.008
    91         CT     21    ASN     CA     91     0.0143      12.01
    92         H1     21    ASN     HA     92     0.1048      1.008
    93         CT     21    ASN     CB     93    -0.2041      12.01
    94         HC     21    ASN    HB1     94     0.0797      1.008
    95         HC     21    ASN    HB2     95     0.0797      1.008
    96          C     21    ASN     CG     96      0.713      12.01
    97          O     21    ASN    OD1     97    -0.5931         16
    98          N     21    ASN    ND2     98    -0.9191      14.01
    99          H     21    ASN   HD21     99     0.4196      1.008
   100          H     21    ASN   HD22    100     0.4196      1.008
   101          C     21    ASN      C    101     0.5973      12.01
   102          O     21    ASN      O    102    -0.5679         16   ; qtot 0
; residue  22 GLU rtp GLU  q -1.0
   103          N     22    GLU      N    103    -0.5163      14.01
   104          H     22    GLU      H    104     0.2936      1.008
   105         CT     22    GLU     CA    105     0.0397      12.01
   106         H1     22    GLU     HA    106     0.1105      1.008
   107         CT     22    GLU     CB    107      0.056      12.01
   108         HC     22    GLU    HB1    108    -0.0173      1.008
   109         HC     22    GLU    HB2    109    -0.0173      1.008
   110         CT     22    GLU     CG    110     0.0136      12.01
   111         HC     22    GLU    HG1    111    -0.0425      1.008
   112         HC     22    GLU    HG2    112    -0.0425      1.008
   113          C     22    GLU     CD    113     0.8054      12.01
   114         O2     22    GLU    OE1    114    -0.8188         16
   115         O2     22    GLU    OE2    115    -0.8188         16
   116          C     22    GLU      C    116     0.5366      12.01
   117          O     22    GLU      O    117    -0.5819         16   ; qtot -1
; residue  23 VAL rtp VAL  q  0.0
   118          N     23    VAL      N    118    -0.4157      14.01
   119          H     23    VAL      H    119     0.2719      1.008
   120         CT     23    VAL     CA    120    -0.0875      12.01
   121         H1     23    VAL     HA    121     0.0969      1.008
   122         CT     23    VAL     CB    122     0.2985      12.01
   123         HC     23    VAL     HB    123    -0.0297      1.008
   124         CT     23    VAL    CG1    124    -0.3192      12.01
   125         HC     23    VAL   HG11    125     0.0791      1.008
   126         HC     23    VAL   HG12    126     0.0791      1.008
   127         HC     23    VAL   HG13    127     0.0791      1.008
   128         CT     23    VAL    CG2    128    -0.3192      12.01
   129         HC     23    VAL   HG21    129     0.0791      1.008
   130         HC     23    VAL   HG22    130     0.0791      1.008
   131         HC     23    VAL   HG23    131     0.0791      1.008
   132          C     23    VAL      C    132     0.5973      12.01
   133          O     23    VAL      O    133    -0.5679         16   ; qtot -1
; residue  24 ALA rtp ALA  q  0.0
   134          N     24    ALA      N    134    -0.4157      14.01
   135          H     24    ALA      H    135     0.2719      1.008
   136         CT     24    ALA     CA    136     0.0337      12.01
   137         H1     24    ALA     HA    137     0.0823      1.008
   138         CT     24    ALA     CB    138    -0.1825      12.01
   139         HC     24    ALA    HB1    139     0.0603      1.008
   140         HC     24    ALA    HB2    140     0.0603      1.008
   141         HC     24    ALA    HB3    141     0.0603      1.008
   142          C     24    ALA      C    142     0.5973      12.01
   143          O     24    ALA      O    143    -0.5679         16   ; qtot -1
; residue  25 ARG rtp ARG  q +1.0
   144          N     25    ARG      N    144    -0.3479      14.01
   145          H     25    ARG      H    145     0.2747      1.008
   146         CT     25    ARG     CA    146    -0.2637      12.01
   147         H1     25    ARG     HA    147      0.156      1.008
   148         CT     25    ARG     CB    148    -0.0007      12.01
   149         HC     25    ARG    HB1    149     0.0327      1.008
   150         HC     25    ARG    HB2    150     0.0327      1.008
   151         CT     25    ARG     CG    151      0.039      12.01
   152         HC     25    ARG    HG1    152     0.0285      1.008
   153         HC     25    ARG    HG2    153     0.0285      1.008
   154         CT     25    ARG     CD    154     0.0486      12.01
   155         H1     25    ARG    HD1    155     0.0687      1.008
   156         H1     25    ARG    HD2    156     0.0687      1.008
   157         N2     25    ARG     NE    157    -0.5295      14.01
   158          H     25    ARG     HE    158     0.3456      1.008
   159         CA     25    ARG     CZ    159     0.8076      12.01
   160         N2     25    ARG    NH1    160    -0.8627      14.01
   161          H     25    ARG   HH11    161     0.4478      1.008
   162          H     25    ARG   HH12    162     0.4478      1.008
   163         N2     25    ARG    NH2    163    -0.8627      14.01
   164          H     25    ARG   HH21    164     0.4478      1.008
   165          H     25    ARG   HH22    165     0.4478      1.008
   166          C     25    ARG      C    166     0.7341      12.01
   167          O     25    ARG      O    167    -0.5894         16   ; qtot 0
; residue  26 LEU rtp LEU  q  0.0
   168          N     26    LEU      N    168    -0.4157      14.01
   169          H     26    LEU      H    169     0.2719      1.008
   170         CT     26    LEU     CA    170    -0.0518      12.01
   171         H1     26    LEU     HA    171     0.0922      1.008
   172         CT     26    LEU     CB    172    -0.1102      12.01
   173         HC     26    LEU    HB1    173     0.0457      1.008
   174         HC     26    LEU    HB2    174     0.0457      1.008
   175         CT     26    LEU     CG    175     0.3531      12.01
   176         HC     26    LEU     HG    176    -0.0361      1.008
   177         CT     26    LEU    CD1    177    -0.4121      12.01
   178         HC     26    LEU   HD11    178        0.1      1.008
   179         HC     26    LEU   HD12    179        0.1      1.008
   180         HC     26    LEU   HD13    180        0.1      1.008
   181         CT     26    LEU    CD2    181    -0.4121      12.01
   182         HC     26    LEU   HD21    182        0.1      1.008
   183         HC     26    LEU   HD22    183        0.1      1.008
   184         HC     26    LEU   HD23    184        0.1      1.008
   185          C     26    LEU      C    185     0.5973      12.01
   186          O     26    LEU      O    186    -0.5679         16   ; qtot 0
; residue  27 LYS rtp LYS  q +1.0
   187          N     27    LYS      N    187    -0.3479      14.01
   188          H     27    LYS      H    188     0.2747      1.008
   189         CT     27    LYS     CA    189      -0.24      12.01
   190         H1     27    LYS     HA    190     0.1426      1.008
   191         CT     27    LYS     CB    191    -0.0094      12.01
   192         HC     27    LYS    HB1    192     0.0362      1.008
   193         HC     27    LYS    HB2    193     0.0362      1.008
   194         CT     27    LYS     CG    194     0.0187      12.01
   195         HC     27    LYS    HG1    195     0.0103      1.008
   196         HC     27    LYS    HG2    196     0.0103      1.008
   197         CT     27    LYS     CD    197    -0.0479      12.01
   198         HC     27    LYS    HD1    198     0.0621      1.008
   199         HC     27    LYS    HD2    199     0.0621      1.008
   200         CT     27    LYS     CE    200    -0.0143      12.01
   201         HP     27    LYS    HE1    201     0.1135      1.008
   202         HP     27    LYS    HE2    202     0.1135      1.008
   203         N3     27    LYS     NZ    203    -0.3854      14.01
   204          H     27    LYS    HZ1    204       0.34      1.008
   205          H     27    LYS    HZ2    205       0.34      1.008
   206          H     27    LYS    HZ3    206       0.34      1.008
   207          C     27    LYS      C    207     0.7341      12.01
   208          O     27    LYS      O    208    -0.5894         16   ; qtot 1
; residue  28 LYS rtp LYS  q +1.0
   209          N     28    LYS      N    209    -0.3479      14.01
   210          H     28    LYS      H    210     0.2747      1.008
   211         CT     28    LYS     CA    211      -0.24      12.01
   212         H1     28    LYS     HA    212     0.1426      1.008
   213         CT     28    LYS     CB    213    -0.0094      12.01
   214         HC     28    LYS    HB1    214     0.0362      1.008
   215         HC     28    LYS    HB2    215     0.0362      1.008
   216         CT     28    LYS     CG    216     0.0187      12.01
   217         HC     28    LYS    HG1    217     0.0103      1.008
   218         HC     28    LYS    HG2    218     0.0103      1.008
   219         CT     28    LYS     CD    219    -0.0479      12.01
   220         HC     28    LYS    HD1    220     0.0621      1.008
   221         HC     28    LYS    HD2    221     0.0621      1.008
   222         CT     28    LYS     CE    222    -0.0143      12.01
   223         HP     28    LYS    HE1    223     0.1135      1.008
   224         HP     28    LYS    HE2    224     0.1135      1.008
   225         N3     28    LYS     NZ    225    -0.3854      14.01
   226          H     28    LYS    HZ1    226       0.34      1.008
   227          H     28    LYS    HZ2    227       0.34      1.008
   228          H     28    LYS    HZ3    228       0.34      1.008
   229          C     28    LYS      C    229     0.7341      12.01
   230          O     28    LYS      O    230    -0.5894         16   ; qtot 2
; residue  29 LEU rtp LEU  q  0.0
   231          N     29    LEU      N    231    -0.4157      14.01
   232          H     29    LEU      H    232     0.2719      1.008
   233         CT     29    LEU     CA    233    -0.0518      12.01
   234         H1     29    LEU     HA    234     0.0922      1.008
   235         CT     29    LEU     CB    235    -0.1102      12.01
   236         HC     29    LEU    HB1    236     0.0457      1.008
   237         HC     29    LEU    HB2    237     0.0457      1.008
   238         CT     29    LEU     CG    238     0.3531      12.01
   239         HC     29    LEU     HG    239    -0.0361      1.008
   240         CT     29    LEU    CD1    240    -0.4121      12.01
   241         HC     29    LEU   HD11    241        0.1      1.008
   242         HC     29    LEU   HD12    242        0.1      1.008
   243         HC     29    LEU   HD13    243        0.1      1.008
   244         CT     29    LEU    CD2    244    -0.4121      12.01
   245         HC     29    LEU   HD21    245        0.1      1.008
   246         HC     29    LEU   HD22    246        0.1      1.008
   247         HC     29    LEU   HD23    247        0.1      1.008
   248          C     29    LEU      C    248     0.5973      12.01
   249          O     29    LEU      O    249    -0.5679         16   ; qtot 2
; residue  30 VAL rtp VAL  q  0.0
   250          N     30    VAL      N    250    -0.4157      14.01
   251          H     30    VAL      H    251     0.2719      1.008
   252         CT     30    VAL     CA    252    -0.0875      12.01
   253         H1     30    VAL     HA    253     0.0969      1.008
   254         CT     30    VAL     CB    254     0.2985      12.01
   255         HC     30    VAL     HB    255    -0.0297      1.008
   256         CT     30    VAL    CG1    256    -0.3192      12.01
   257         HC     30    VAL   HG11    257     0.0791      1.008
   258         HC     30    VAL   HG12    258     0.0791      1.008
   259         HC     30    VAL   HG13    259     0.0791      1.008
   260         CT     30    VAL    CG2    260    -0.3192      12.01
   261         HC     30    VAL   HG21    261     0.0791      1.008
   262         HC     30    VAL   HG22    262     0.0791      1.008
   263         HC     30    VAL   HG23    263     0.0791      1.008
   264          C     30    VAL      C    264     0.5973      12.01
   265          O     30    VAL      O    265    -0.5679         16   ; qtot 2
; residue  31 GLY rtp GLY  q  0.0
   266          N     31    GLY      N    266    -0.4157      14.01
   267          H     31    GLY      H    267     0.2719      1.008
   268         CT     31    GLY     CA    268    -0.0252      12.01
   269         H1     31    GLY    HA1    269     0.0698      1.008
   270         H1     31    GLY    HA2    270     0.0698      1.008
   271          C     31    GLY      C    271     0.5973      12.01
   272          O     31    GLY      O    272    -0.5679         16   ; qtot 2
; residue  32 GLU rtp CGLU q -2.0
   273          N     32    GLU      N    273    -0.5192      14.01
   274          H     32    GLU      H    274     0.3055      1.008
   275         CT     32    GLU     CA    275    -0.2059      12.01
   276         H1     32    GLU     HA    276     0.1399      1.008
   277         CT     32    GLU     CB    277     0.0071      12.01
   278         HC     32    GLU    HB1    278    -0.0078      1.008
   279         HC     32    GLU    HB2    279    -0.0078      1.008
   280         CT     32    GLU     CG    280     0.0675      12.01
   281         HC     32    GLU    HG1    281    -0.0548      1.008
   282         HC     32    GLU    HG2    282    -0.0548      1.008
   283          C     32    GLU     CD    283     0.8183      12.01
   284         O2     32    GLU    OE1    284     -0.822         16
   285         O2     32    GLU    OE2    285     -0.822         16
   286          C     32    GLU      C    286      0.742      12.01
   287         O2     32    GLU    OC1    287     -0.793         16
   288         O2     32    GLU    OC2    288     -0.793         16   ; qtot 0

[ bonds ]
;  ai    aj funct            c0            c1            c2            c3
    1     2     1 
    1     3     1 
    1     4     1 
    1     5     1 
    5     6     1 
    5     7     1 
    5    15     1 
    7     8     1 
    7     9     1 
    7    10     1 
   10    11     1 
   10    12     1 
   12    13     1 
   12    14     1 
   15    16     1 
   15    17     1 
   17    18     1 
   17    19     1 
   19    20     1 
   19    21     1 
   19    36     1 
   21    22     1 
   21    23     1 
   21    24     1 
   24    25     1 
   24    34     1 
   25    26     1 
   25    27     1 
   27    28     1 
   27    29     1 
   29    30     1 
   29    32     1 
   30    31     1 
   32    33     1 
   32    34     1 
   34    35     1 
   36    37     1 
   36    38     1 
   38    39     1 
   38    40     1 
   40    41     1 
   40    42     1 
   40    53     1 
   42    43     1 
   42    44     1 
   42    45     1 
   45    46     1 
   45    51     1 
   46    47     1 
   47    48     1 
   47    49     1 
   49    50     1 
   49    51     1 
   51    52     1 
   53    54     1 
   53    55     1 
   55    56     1 
   55    57     1 
   57    58     1 
   57    59     1 
   57    72     1 
   59    60     1 
   59    61     1 
   59    62     1 
   62    63     1 
   62    64     1 
   62    68     1 
   64    65     1 
   64    66     1 
   64    67     1 
   68    69     1 
   68    70     1 
   68    71     1 
   72    73     1 
   72    74     1 
   74    75     1 
   74    76     1 
   76    77     1 
   76    78     1 
   76    87     1 
   78    79     1 
   78    80     1 
   78    81     1 
   81    82     1 
   81    83     1 
   81    84     1 
   84    85     1 
   84    86     1 
   87    88     1 
   87    89     1 
   89    90     1 
   89    91     1 
   91    92     1 
   91    93     1 
   91   101     1 
   93    94     1 
   93    95     1 
   93    96     1 
   96    97     1 
   96    98     1 
   98    99     1 
   98   100     1 
  101   102     1 
  101   103     1 
  103   104     1 
  103   105     1 
  105   106     1 
  105   107     1 
  105   116     1 
  107   108     1 
  107   109     1 
  107   110     1 
  110   111     1 
  110   112     1 
  110   113     1 
  113   114     1 
  113   115     1 
  116   117     1 
  116   118     1 
  118   119     1 
  118   120     1 
  120   121     1 
  120   122     1 
  120   132     1 
  122   123     1 
  122   124     1 
  122   128     1 
  124   125     1 
  124   126     1 
  124   127     1 
  128   129     1 
  128   130     1 
  128   131     1 
  132   133     1 
  132   134     1 
  134   135     1 
  134   136     1 
  136   137     1 
  136   138     1 
  136   142     1 
  138   139     1 
  138   140     1 
  138   141     1 
  142   143     1 
  142   144     1 
  144   145     1 
  144   146     1 
  146   147     1 
  146   148     1 
  146   166     1 
  148   149     1 
  148   150     1 
  148   151     1 
  151   152     1 
  151   153     1 
  151   154     1 
  154   155     1 
  154   156     1 
  154   157     1 
  157   158     1 
  157   159     1 
  159   160     1 
  159   163     1 
  160   161     1 
  160   162     1 
  163   164     1 
  163   165     1 
  166   167     1 
  166   168     1 
  168   169     1 
  168   170     1 
  170   171     1 
  170   172     1 
  170   185     1 
  172   173     1 
  172   174     1 
  172   175     1 
  175   176     1 
  175   177     1 
  175   181     1 
  177   178     1 
  177   179     1 
  177   180     1 
  181   182     1 
  181   183     1 
  181   184     1 
  185   186     1 
  185   187     1 
  187   188     1 
  187   189     1 
  189   190     1 
  189   191     1 
  189   207     1 
  191   192     1 
  191   193     1 
  191   194     1 
  194   195     1 
  194   196     1 
  194   197     1 
  197   198     1 
  197   199     1 
  197   200     1 
  200   201     1 
  200   202     1 
  200   203     1 
  203   204     1 
  203   205     1 
  203   206     1 
  207   208     1 
  207   209     1 
  209   210     1 
  209   211     1 
  211   212     1 
  211   213     1 
  211   229     1 
  213   214     1 
  213   215     1 
  213   216     1 
  216   217     1 
  216   218     1 
  216   219     1 
  219   220     1 
  219   221     1 
  219   222     1 
  222   223     1 
  222   224     1 
  222   225     1 
  225   226     1 
  225   227     1 
  225   228     1 
  229   230     1 
  229   231     1 
  231   232     1 
  231   233     1 
  233   234     1 
  233   235     1 
  233   248     1 
  235   236     1 
  235   237     1 
  235   238     1 
  238   239     1 
  238   240     1 
  238   244     1 
  240   241     1 
  240   242     1 
  240   243     1 
  244   245     1 
  244   246     1 
  244   247     1 
  248   249     1 
  248   250     1 
  250   251     1 
  250   252     1 
  252   253     1 
  252   254     1 
  252   264     1 
  254   255     1 
  254   256     1 
  254   260     1 
  256   257     1 
  256   258     1 
  256   259     1 
  260   261     1 
  260   262     1 
  260   263     1 
  264   265     1 
  264   266     1 
  266   267     1 
  266   268     1 
  268   269     1 
  268   270     1 
  268   271     1 
  271   272     1 
  271   273     1 
  273   274     1 
  273   275     1 
  275   276     1 
  275   277     1 
  275   286     1 
  277   278     1 
  277   279     1 
  277   280     1 
  280   281     1 
  280   282     1 
  280   283     1 
  283   284     1 
  283   285     1 
  286   287     1 
  286   288     1 

[ pairs ]
;  ai    aj funct            c0            c1            c2            c3
    1     8     1 
    1     9     1 
    1    10     1 
    1    16     1 
    1    17     1 
    2     6     1 
    2     7     1 
    2    15     1 
    3     6     1 
    3     7     1 
    3    15     1 
    4     6     1 
    4     7     1 
    4    15     1 
    5    11     1 
    5    12     1 
    5    18     1 
    5    19     1 
    6     8     1 
    6     9     1 
    6    10     1 
    6    16     1 
    6    17     1 
    7    13     1 
    7    14     1 
    7    16     1 
    7    17     1 
    8    11     1 
    8    12     1 
    8    15     1 
    9    11     1 
    9    12     1 
    9    15     1 
   10    15     1 
   11    13     1 
   11    14     1 
   15    20     1 
   15    21     1 
   15    36     1 
   16    18     1 
   16    19     1 
   17    22     1 
   17    23     1 
   17    24     1 
   17    37     1 
   17    38     1 
   18    20     1 
   18    21     1 
   18    36     1 
   19    25     1 
   19    34     1 
   19    39     1 
   19    40     1 
   20    22     1 
   20    23     1 
   20    24     1 
   20    37     1 
   20    38     1 
   21    26     1 
   21    27     1 
   21    32     1 
   21    35     1 
   21    37     1 
   21    38     1 
   22    25     1 
   22    34     1 
   22    36     1 
   23    25     1 
   23    34     1 
   23    36     1 
   24    28     1 
   24    29     1 
   24    33     1 
   24    36     1 
   25    30     1 
   25    32     1 
   25    35     1 
   26    28     1 
   26    29     1 
   26    34     1 
   27    31     1 
   27    33     1 
   27    34     1 
   28    30     1 
   28    32     1 
   29    35     1 
   30    33     1 
   30    34     1 
   31    32     1 
   33    35     1 
   36    41     1 
   36    42     1 
   36    53     1 
   37    39     1 
   37    40     1 
   38    43     1 
   38    44     1 
   38    45     1 
   38    54     1 
   38    55     1 
   39    41     1 
   39    42     1 
   39    53     1 
   40    46     1 
   40    51     1 
   40    56     1 
   40    57     1 
   41    43     1 
   41    44     1 
   41    45     1 
   41    54     1 
   41    55     1 
   42    47     1 
   42    49     1 
   42    52     1 
   42    54     1 
   42    55     1 
   43    46     1 
   43    51     1 
   43    53     1 
   44    46     1 
   44    51     1 
   44    53     1 
   45    48     1 
   45    50     1 
   45    53     1 
   46    50     1 
   46    52     1 
   47    52     1 
   48    50     1 
   48    51     1 
   50    52     1 
   53    58     1 
   53    59     1 
   53    72     1 
   54    56     1 
   54    57     1 
   55    60     1 
   55    61     1 
   55    62     1 
   55    73     1 
   55    74     1 
   56    58     1 
   56    59     1 
   56    72     1 
   57    63     1 
   57    64     1 
   57    68     1 
   57    75     1 
   57    76     1 
   58    60     1 
   58    61     1 
   58    62     1 
   58    73     1 
   58    74     1 
   59    65     1 
   59    66     1 
   59    67     1 
   59    69     1 
   59    70     1 
   59    71     1 
   59    73     1 
   59    74     1 
   60    63     1 
   60    64     1 
   60    68     1 
   60    72     1 
   61    63     1 
   61    64     1 
   61    68     1 
   61    72     1 
   62    72     1 
   63    65     1 
   63    66     1 
   63    67     1 
   63    69     1 
   63    70     1 
   63    71     1 
   64    69     1 
   64    70     1 
   64    71     1 
   65    68     1 
   66    68     1 
   67    68     1 
   72    77     1 
   72    78     1 
   72    87     1 
   73    75     1 
   73    76     1 
   74    79     1 
   74    80     1 
   74    81     1 
   74    88     1 
   74    89     1 
   75    77     1 
   75    78     1 
   75    87     1 
   76    82     1 
   76    83     1 
   76    84     1 
   76    90     1 
   76    91     1 
   77    79     1 
   77    80     1 
   77    81     1 
   77    88     1 
   77    89     1 
   78    85     1 
   78    86     1 
   78    88     1 
   78    89     1 
   79    82     1 
   79    83     1 
   79    84     1 
   79    87     1 
   80    82     1 
   80    83     1 
   80    84     1 
   80    87     1 
   81    87     1 
   82    85     1 
   82    86     1 
   83    85     1 
   83    86     1 
   87    92     1 
   87    93     1 
   87   101     1 
   88    90     1 
   88    91     1 
   89    94     1 
   89    95     1 
   89    96     1 
   89   102     1 
   89   103     1 
   90    92     1 
   90    93     1 
   90   101     1 
   91    97     1 
   91    98     1 
   91   104     1 
   91   105     1 
   92    94     1 
   92    95     1 
   92    96     1 
   92   102     1 
   92   103     1 
   93    99     1 
   93   100     1 
   93   102     1 
   93   103     1 
   94    97     1 
   94    98     1 
   94   101     1 
   95    97     1 
   95    98     1 
   95   101     1 
   96   101     1 
   97    99     1 
   97   100     1 
  101   106     1 
  101   107     1 
  101   116     1 
  102   104     1 
  102   105     1 
  103   108     1 
  103   109     1 
  103   110     1 
  103   117     1 
  103   118     1 
  104   106     1 
  104   107     1 
  104   116     1 
  105   111     1 
  105   112     1 
  105   113     1 
  105   119     1 
  105   120     1 
  106   108     1 
  106   109     1 
  106   110     1 
  106   117     1 
  106   118     1 
  107   114     1 
  107   115     1 
  107   117     1 
  107   118     1 
  108   111     1 
  108   112     1 
  108   113     1 
  108   116     1 
  109   111     1 
  109   112     1 
  109   113     1 
  109   116     1 
  110   116     1 
  111   114     1 
  111   115     1 
  112   114     1 
  112   115     1 
  116   121     1 
  116   122     1 
  116   132     1 
  117   119     1 
  117   120     1 
  118   123     1 
  118   124     1 
  118   128     1 
  118   133     1 
  118   134     1 
  119   121     1 
  119   122     1 
  119   132     1 
  120   125     1 
  120   126     1 
  120   127     1 
  120   129     1 
  120   130     1 
  120   131     1 
  120   135     1 
  120   136     1 
  121   123     1 
  121   124     1 
  121   128     1 
  121   133     1 
  121   134     1 
  122   133     1 
  122   134     1 
  123   125     1 
  123   126     1 
  123   127     1 
  123   129     1 
  123   130     1 
  123   131     1 
  123   132     1 
  124   129     1 
  124   130     1 
  124   131     1 
  124   132     1 
  125   128     1 
  126   128     1 
  127   128     1 
  128   132     1 
  132   137     1 
  132   138     1 
  132   142     1 
  133   135     1 
  133   136     1 
  134   139     1 
  134   140     1 
  134   141     1 
  134   143     1 
  134   144     1 
  135   137     1 
  135   138     1 
  135   142     1 
  136   145     1 
  136   146     1 
  137   139     1 
  137   140     1 
  137   141     1 
  137   143     1 
  137   144     1 
  138   143     1 
  138   144     1 
  139   142     1 
  140   142     1 
  141   142     1 
  142   147     1 
  142   148     1 
  142   166     1 
  143   145     1 
  143   146     1 
  144   149     1 
  144   150     1 
  144   151     1 
  144   167     1 
  144   168     1 
  145   147     1 
  145   148     1 
  145   166     1 
  146   152     1 
  146   153     1 
  146   154     1 
  146   169     1 
  146   170     1 
  147   149     1 
  147   150     1 
  147   151     1 
  147   167     1 
  147   168     1 
  148   155     1 
  148   156     1 
  148   157     1 
  148   167     1 
  148   168     1 
  149   152     1 
  149   153     1 
  149   154     1 
  149   166     1 
  150   152     1 
  150   153     1 
  150   154     1 
  150   166     1 
  151   158     1 
  151   159     1 
  151   166     1 
  152   155     1 
  152   156     1 
  152   157     1 
  153   155     1 
  153   156     1 
  153   157     1 
  154   160     1 
  154   163     1 
  155   158     1 
  155   159     1 
  156   158     1 
  156   159     1 
  157   161     1 
  157   162     1 
  157   164     1 
  157   165     1 
  158   160     1 
  158   163     1 
  160   164     1 
  160   165     1 
  161   163     1 
  162   163     1 
  166   171     1 
  166   172     1 
  166   185     1 
  167   169     1 
  167   170     1 
  168   173     1 
  168   174     1 
  168   175     1 
  168   186     1 
  168   187     1 
  169   171     1 
  169   172     1 
  169   185     1 
  170   176     1 
  170   177     1 
  170   181     1 
  170   188     1 
  170   189     1 
  171   173     1 
  171   174     1 
  171   175     1 
  171   186     1 
  171   187     1 
  172   178     1 
  172   179     1 
  172   180     1 
  172   182     1 
  172   183     1 
  172   184     1 
  172   186     1 
  172   187     1 
  173   176     1 
  173   177     1 
  173   181     1 
  173   185     1 
  174   176     1 
  174   177     1 
  174   181     1 
  174   185     1 
  175   185     1 
  176   178     1 
  176   179     1 
  176   180     1 
  176   182     1 
  176   183     1 
  176   184     1 
  177   182     1 
  177   183     1 
  177   184     1 
  178   181     1 
  179   181     1 
  180   181     1 
  185   190     1 
  185   191     1 
  185   207     1 
  186   188     1 
  186   189     1 
  187   192     1 
  187   193     1 
  187   194     1 
  187   208     1 
  187   209     1 
  188   190     1 
  188   191     1 
  188   207     1 
  189   195     1 
  189   196     1 
  189   197     1 
  189   210     1 
  189   211     1 
  190   192     1 
  190   193     1 
  190   194     1 
  190   208     1 
  190   209     1 
  191   198     1 
  191   199     1 
  191   200     1 
  191   208     1 
  191   209     1 
  192   195     1 
  192   196     1 
  192   197     1 
  192   207     1 
  193   195     1 
  193   196     1 
  193   197     1 
  193   207     1 
  194   201     1 
  194   202     1 
  194   203     1 
  194   207     1 
  195   198     1 
  195   199     1 
  195   200     1 
  196   198     1 
  196   199     1 
  196   200     1 
  197   204     1 
  197   205     1 
  197   206     1 
  198   201     1 
  198   202     1 
  198   203     1 
  199   201     1 
  199   202     1 
  199   203     1 
  201   204     1 
  201   205     1 
  201   206     1 
  202   204     1 
  202   205     1 
  202   206     1 
  207   212     1 
  207   213     1 
  207   229     1 
  208   210     1 
  208   211     1 
  209   214     1 
  209   215     1 
  209   216     1 
  209   230     1 
  209   231     1 
  210   212     1 
  210   213     1 
  210   229     1 
  211   217     1 
  211   218     1 
  211   219     1 
  211   232     1 
  211   233     1 
  212   214     1 
  212   215     1 
  212   216     1 
  212   230     1 
  212   231     1 
  213   220     1 
  213   221     1 
  213   222     1 
  213   230     1 
  213   231     1 
  214   217     1 
  214   218     1 
  214   219     1 
  214   229     1 
  215   217     1 
  215   218     1 
  215   219     1 
  215   229     1 
  216   223     1 
  216   224     1 
  216   225     1 
  216   229     1 
  217   220     1 
  217   221     1 
  217   222     1 
  218   220     1 
  218   221     1 
  218   222     1 
  219   226     1 
  219   227     1 
  219   228     1 
  220   223     1 
  220   224     1 
  220   225     1 
  221   223     1 
  221   224     1 
  221   225     1 
  223   226     1 
  223   227     1 
  223   228     1 
  224   226     1 
  224   227     1 
  224   228     1 
  229   234     1 
  229   235     1 
  229   248     1 
  230   232     1 
  230   233     1 
  231   236     1 
  231   237     1 
  231   238     1 
  231   249     1 
  231   250     1 
  232   234     1 
  232   235     1 
  232   248     1 
  233   239     1 
  233   240     1 
  233   244     1 
  233   251     1 
  233   252     1 
  234   236     1 
  234   237     1 
  234   238     1 
  234   249     1 
  234   250     1 
  235   241     1 
  235   242     1 
  235   243     1 
  235   245     1 
  235   246     1 
  235   247     1 
  235   249     1 
  235   250     1 
  236   239     1 
  236   240     1 
  236   244     1 
  236   248     1 
  237   239     1 
  237   240     1 
  237   244     1 
  237   248     1 
  238   248     1 
  239   241     1 
  239   242     1 
  239   243     1 
  239   245     1 
  239   246     1 
  239   247     1 
  240   245     1 
  240   246     1 
  240   247     1 
  241   244     1 
  242   244     1 
  243   244     1 
  248   253     1 
  248   254     1 
  248   264     1 
  249   251     1 
  249   252     1 
  250   255     1 
  250   256     1 
  250   260     1 
  250   265     1 
  250   266     1 
  251   253     1 
  251   254     1 
  251   264     1 
  252   257     1 
  252   258     1 
  252   259     1 
  252   261     1 
  252   262     1 
  252   263     1 
  252   267     1 
  252   268     1 
  253   255     1 
  253   256     1 
  253   260     1 
  253   265     1 
  253   266     1 
  254   265     1 
  254   266     1 
  255   257     1 
  255   258     1 
  255   259     1 
  255   261     1 
  255   262     1 
  255   263     1 
  255   264     1 
  256   261     1 
  256   262     1 
  256   263     1 
  256   264     1 
  257   260     1 
  258   260     1 
  259   260     1 
  260   264     1 
  264   269     1 
  264   270     1 
  264   271     1 
  265   267     1 
  265   268     1 
  266   272     1 
  266   273     1 
  267   269     1 
  267   270     1 
  267   271     1 
  268   274     1 
  268   275     1 
  269   272     1 
  269   273     1 
  270   272     1 
  270   273     1 
  271   276     1 
  271   277     1 
  271   286     1 
  272   274     1 
  272   275     1 
  273   278     1 
  273   279     1 
  273   280     1 
  273   287     1 
  273   288     1 
  274   276     1 
  274   277     1 
  274   286     1 
  275   281     1 
  275   282     1 
  275   283     1 
  276   278     1 
  276   279     1 
  276   280     1 
  276   287     1 
  276   288     1 
  277   284     1 
  277   285     1 
  277   287     1 
  277   288     1 
  278   281     1 
  278   282     1 
  278   283     1 
  278   286     1 
  279   281     1 
  279   282     1 
  279   283     1 
  279   286     1 
  280   286     1 
  281   284     1 
  281   285     1 
  282   284     1 
  282   285     1 

[ angles ]
;  ai    aj    ak funct            c0            c1            c2            c3
    2     1     3     1 
    2     1     4     1 
    2     1     5     1 
    3     1     4     1 
    3     1     5     1 
    4     1     5     1 
    1     5     6     1 
    1     5     7     1 
    1     5    15     1 
    6     5     7     1 
    6     5    15     1 
    7     5    15     1 
    5     7     8     1 
    5     7     9     1 
    5     7    10     1 
    8     7     9     1 
    8     7    10     1 
    9     7    10     1 
    7    10    11     1 
    7    10    12     1 
   11    10    12     1 
   10    12    13     1 
   10    12    14     1 
   13    12    14     1 
    5    15    16     1 
    5    15    17     1 
   16    15    17     1 
   15    17    18     1 
   15    17    19     1 
   18    17    19     1 
   17    19    20     1 
   17    19    21     1 
   17    19    36     1 
   20    19    21     1 
   20    19    36     1 
   21    19    36     1 
   19    21    22     1 
   19    21    23     1 
   19    21    24     1 
   22    21    23     1 
   22    21    24     1 
   23    21    24     1 
   21    24    25     1 
   21    24    34     1 
   25    24    34     1 
   24    25    26     1 
   24    25    27     1 
   26    25    27     1 
   25    27    28     1 
   25    27    29     1 
   28    27    29     1 
   27    29    30     1 
   27    29    32     1 
   30    29    32     1 
   29    30    31     1 
   29    32    33     1 
   29    32    34     1 
   33    32    34     1 
   24    34    32     1 
   24    34    35     1 
   32    34    35     1 
   19    36    37     1 
   19    36    38     1 
   37    36    38     1 
   36    38    39     1 
   36    38    40     1 
   39    38    40     1 
   38    40    41     1 
   38    40    42     1 
   38    40    53     1 
   41    40    42     1 
   41    40    53     1 
   42    40    53     1 
   40    42    43     1 
   40    42    44     1 
   40    42    45     1 
   43    42    44     1 
   43    42    45     1 
   44    42    45     1 
   42    45    46     1 
   42    45    51     1 
   46    45    51     1 
   45    46    47     1 
   46    47    48     1 
   46    47    49     1 
   48    47    49     1 
   47    49    50     1 
   47    49    51     1 
   50    49    51     1 
   45    51    49     1 
   45    51    52     1 
   49    51    52     1 
   40    53    54     1 
   40    53    55     1 
   54    53    55     1 
   53    55    56     1 
   53    55    57     1 
   56    55    57     1 
   55    57    58     1 
   55    57    59     1 
   55    57    72     1 
   58    57    59     1 
   58    57    72     1 
   59    57    72     1 
   57    59    60     1 
   57    59    61     1 
   57    59    62     1 
   60    59    61     1 
   60    59    62     1 
   61    59    62     1 
   59    62    63     1 
   59    62    64     1 
   59    62    68     1 
   63    62    64     1 
   63    62    68     1 
   64    62    68     1 
   62    64    65     1 
   62    64    66     1 
   62    64    67     1 
   65    64    66     1 
   65    64    67     1 
   66    64    67     1 
   62    68    69     1 
   62    68    70     1 
   62    68    71     1 
   69    68    70     1 
   69    68    71     1 
   70    68    71     1 
   57    72    73     1 
   57    72    74     1 
   73    72    74     1 
   72    74    75     1 
   72    74    76     1 
   75    74    76     1 
   74    76    77     1 
   74    76    78     1 
   74    76    87     1 
   77    76    78     1 
   77    76    87     1 
   78    76    87     1 
   76    78    79     1 
   76    78    80     1 
   76    78    81     1 
   79    78    80     1 
   79    78    81     1 
   80    78    81     1 
   78    81    82     1 
   78    81    83     1 
   78    81    84     1 
   82    81    83     1 
   82    81    84     1 
   83    81    84     1 
   81    84    85     1 
   81    84    86     1 
   85    84    86     1 
   76    87    88     1 
   76    87    89     1 
   88    87    89     1 
   87    89    90     1 
   87    89    91     1 
   90    89    91     1 
   89    91    92     1 
   89    91    93     1 
   89    91   101     1 
   92    91    93     1 
   92    91   101     1 
   93    91   101     1 
   91    93    94     1 
   91    93    95     1 
   91    93    96     1 
   94    93    95     1 
   94    93    96     1 
   95    93    96     1 
   93    96    97     1 
   93    96    98     1 
   97    96    98     1 
   96    98    99     1 
   96    98   100     1 
   99    98   100     1 
   91   101   102     1 
   91   101   103     1 
  102   101   103     1 
  101   103   104     1 
  101   103   105     1 
  104   103   105     1 
  103   105   106     1 
  103   105   107     1 
  103   105   116     1 
  106   105   107     1 
  106   105   116     1 
  107   105   116     1 
  105   107   108     1 
  105   107   109     1 
  105   107   110     1 
  108   107   109     1 
  108   107   110     1 
  109   107   110     1 
  107   110   111     1 
  107   110   112     1 
  107   110   113     1 
  111   110   112     1 
  111   110   113     1 
  112   110   113     1 
  110   113   114     1 
  110   113   115     1 
  114   113   115     1 
  105   116   117     1 
  105   116   118     1 
  117   116   118     1 
  116   118   119     1 
  116   118   120     1 
  119   118   120     1 
  118   120   121     1 
  118   120   122     1 
  118   120   132     1 
  121   120   122     1 
  121   120   132     1 
  122   120   132     1 
  120   122   123     1 
  120   122   124     1 
  120   122   128     1 
  123   122   124     1 
  123   122   128     1 
  124   122   128     1 
  122   124   125     1 
  122   124   126     1 
  122   124   127     1 
  125   124   126     1 
  125   124   127     1 
  126   124   127     1 
  122   128   129     1 
  122   128   130     1 
  122   128   131     1 
  129   128   130     1 
  129   128   131     1 
  130   128   131     1 
  120   132   133     1 
  120   132   134     1 
  133   132   134     1 
  132   134   135     1 
  132   134   136     1 
  135   134   136     1 
  134   136   137     1 
  134   136   138     1 
  134   136   142     1 
  137   136   138     1 
  137   136   142     1 
  138   136   142     1 
  136   138   139     1 
  136   138   140     1 
  136   138   141     1 
  139   138   140     1 
  139   138   141     1 
  140   138   141     1 
  136   142   143     1 
  136   142   144     1 
  143   142   144     1 
  142   144   145     1 
  142   144   146     1 
  145   144   146     1 
  144   146   147     1 
  144   146   148     1 
  144   146   166     1 
  147   146   148     1 
  147   146   166     1 
  148   146   166     1 
  146   148   149     1 
  146   148   150     1 
  146   148   151     1 
  149   148   150     1 
  149   148   151     1 
  150   148   151     1 
  148   151   152     1 
  148   151   153     1 
  148   151   154     1 
  152   151   153     1 
  152   151   154     1 
  153   151   154     1 
  151   154   155     1 
  151   154   156     1 
  151   154   157     1 
  155   154   156     1 
  155   154   157     1 
  156   154   157     1 
  154   157   158     1 
  154   157   159     1 
  158   157   159     1 
  157   159   160     1 
  157   159   163     1 
  160   159   163     1 
  159   160   161     1 
  159   160   162     1 
  161   160   162     1 
  159   163   164     1 
  159   163   165     1 
  164   163   165     1 
  146   166   167     1 
  146   166   168     1 
  167   166   168     1 
  166   168   169     1 
  166   168   170     1 
  169   168   170     1 
  168   170   171     1 
  168   170   172     1 
  168   170   185     1 
  171   170   172     1 
  171   170   185     1 
  172   170   185     1 
  170   172   173     1 
  170   172   174     1 
  170   172   175     1 
  173   172   174     1 
  173   172   175     1 
  174   172   175     1 
  172   175   176     1 
  172   175   177     1 
  172   175   181     1 
  176   175   177     1 
  176   175   181     1 
  177   175   181     1 
  175   177   178     1 
  175   177   179     1 
  175   177   180     1 
  178   177   179     1 
  178   177   180     1 
  179   177   180     1 
  175   181   182     1 
  175   181   183     1 
  175   181   184     1 
  182   181   183     1 
  182   181   184     1 
  183   181   184     1 
  170   185   186     1 
  170   185   187     1 
  186   185   187     1 
  185   187   188     1 
  185   187   189     1 
  188   187   189     1 
  187   189   190     1 
  187   189   191     1 
  187   189   207     1 
  190   189   191     1 
  190   189   207     1 
  191   189   207     1 
  189   191   192     1 
  189   191   193     1 
  189   191   194     1 
  192   191   193     1 
  192   191   194     1 
  193   191   194     1 
  191   194   195     1 
  191   194   196     1 
  191   194   197     1 
  195   194   196     1 
  195   194   197     1 
  196   194   197     1 
  194   197   198     1 
  194   197   199     1 
  194   197   200     1 
  198   197   199     1 
  198   197   200     1 
  199   197   200     1 
  197   200   201     1 
  197   200   202     1 
  197   200   203     1 
  201   200   202     1 
  201   200   203     1 
  202   200   203     1 
  200   203   204     1 
  200   203   205     1 
  200   203   206     1 
  204   203   205     1 
  204   203   206     1 
  205   203   206     1 
  189   207   208     1 
  189   207   209     1 
  208   207   209     1 
  207   209   210     1 
  207   209   211     1 
  210   209   211     1 
  209   211   212     1 
  209   211   213     1 
  209   211   229     1 
  212   211   213     1 
  212   211   229     1 
  213   211   229     1 
  211   213   214     1 
  211   213   215     1 
  211   213   216     1 
  214   213   215     1 
  214   213   216     1 
  215   213   216     1 
  213   216   217     1 
  213   216   218     1 
  213   216   219     1 
  217   216   218     1 
  217   216   219     1 
  218   216   219     1 
  216   219   220     1 
  216   219   221     1 
  216   219   222     1 
  220   219   221     1 
  220   219   222     1 
  221   219   222     1 
  219   222   223     1 
  219   222   224     1 
  219   222   225     1 
  223   222   224     1 
  223   222   225     1 
  224   222   225     1 
  222   225   226     1 
  222   225   227     1 
  222   225   228     1 
  226   225   227     1 
  226   225   228     1 
  227   225   228     1 
  211   229   230     1 
  211   229   231     1 
  230   229   231     1 
  229   231   232     1 
  229   231   233     1 
  232   231   233     1 
  231   233   234     1 
  231   233   235     1 
  231   233   248     1 
  234   233   235     1 
  234   233   248     1 
  235   233   248     1 
  233   235   236     1 
  233   235   237     1 
  233   235   238     1 
  236   235   237     1 
  236   235   238     1 
  237   235   238     1 
  235   238   239     1 
  235   238   240     1 
  235   238   244     1 
  239   238   240     1 
  239   238   244     1 
  240   238   244     1 
  238   240   241     1 
  238   240   242     1 
  238   240   243     1 
  241   240   242     1 
  241   240   243     1 
  242   240   243     1 
  238   244   245     1 
  238   244   246     1 
  238   244   247     1 
  245   244   246     1 
  245   244   247     1 
  246   244   247     1 
  233   248   249     1 
  233   248   250     1 
  249   248   250     1 
  248   250   251     1 
  248   250   252     1 
  251   250   252     1 
  250   252   253     1 
  250   252   254     1 
  250   252   264     1 
  253   252   254     1 
  253   252   264     1 
  254   252   264     1 
  252   254   255     1 
  252   254   256     1 
  252   254   260     1 
  255   254   256     1 
  255   254   260     1 
  256   254   260     1 
  254   256   257     1 
  254   256   258     1 
  254   256   259     1 
  257   256   258     1 
  257   256   259     1 
  258   256   259     1 
  254   260   261     1 
  254   260   262     1 
  254   260   263     1 
  261   260   262     1 
  261   260   263     1 
  262   260   263     1 
  252   264   265     1 
  252   264   266     1 
  265   264   266     1 
  264   266   267     1 
  264   266   268     1 
  267   266   268     1 
  266   268   269     1 
  266   268   270     1 
  266   268   271     1 
  269   268   270     1 
  269   268   271     1 
  270   268   271     1 
  268   271   272     1 
  268   271   273     1 
  272   271   273     1 
  271   273   274     1 
  271   273   275     1 
  274   273   275     1 
  273   275   276     1 
  273   275   277     1 
  273   275   286     1 
  276   275   277     1 
  276   275   286     1 
  277   275   286     1 
  275   277   278     1 
  275   277   279     1 
  275   277   280     1 
  278   277   279     1 
  278   277   280     1 
  279   277   280     1 
  277   280   281     1 
  277   280   282     1 
  277   280   283     1 
  281   280   282     1 
  281   280   283     1 
  282   280   283     1 
  280   283   284     1 
  280   283   285     1 
  284   283   285     1 
  275   286   287     1 
  275   286   288     1 
  287   286   288     1 

[ dihedrals ]
;  ai    aj    ak    al funct            c0            c1            c2            c3            c4            c5
    2     1     5     6     9 
    2     1     5     7     9 
    2     1     5    15     9 
    3     1     5     6     9 
    3     1     5     7     9 
    3     1     5    15     9 
    4     1     5     6     9 
    4     1     5     7     9 
    4     1     5    15     9 
   15     5     7    10     9    torsion_ASN_C_CA_CB_CG_mult1
   15     5     7    10     9    torsion_ASN_C_CA_CB_CG_mult2
   15     5     7    10     9    torsion_ASN_C_CA_CB_CG_mult3
   15     5     7    10     9    torsion_ASN_C_CA_CB_CG_mult4
   15     5     7    10     9    torsion_ASN_C_CA_CB_CG_mult5
   15     5     7    10     9    torsion_ASN_C_CA_CB_CG_mult6
    1     5     7     8     9 
    1     5     7     9     9 
    1     5     7    10     9 
    6     5     7     8     9 
    6     5     7     9     9 
    6     5     7    10     9 
   15     5     7     8     9 
   15     5     7     9     9 
    1     5    15    16     9 
    1     5    15    17     9 
    6     5    15    16     9 
    6     5    15    17     9 
    7     5    15    16     9 
    7     5    15    17     9 
    5     7    10    12     9    torsion_ASN_CA_CB_CG_ND2_mult1
    5     7    10    12     9    torsion_ASN_CA_CB_CG_ND2_mult2
    5     7    10    12     9    torsion_ASN_CA_CB_CG_ND2_mult3
    5     7    10    12     9    torsion_ASN_CA_CB_CG_ND2_mult4
    5     7    10    12     9    torsion_ASN_CA_CB_CG_ND2_mult5
    5     7    10    12     9    torsion_ASN_CA_CB_CG_ND2_mult6
    5     7    10    11     9 
    8     7    10    11     9 
    8     7    10    12     9 
    9     7    10    11     9 
    9     7    10    12     9 
    7    10    12    13     9 
    7    10    12    14     9 
   11    10    12    13     9 
   11    10    12    14     9 
    5    15    17    18     9 
    5    15    17    19     9 
   16    15    17    18     9 
   16    15    17    19     9 
   15    17    19    20     9 
   15    17    19    21     9 
   15    17    19    36     9 
   18    17    19    20     9 
   18    17    19    21     9 
   18    17    19    36     9 
   17    19    21    22     9 
   17    19    21    23     9 
   17    19    21    24     9 
   20    19    21    22     9 
   20    19    21    23     9 
   20    19    21    24     9 
   36    19    21    22     9 
   36    19    21    23     9 
   36    19    21    24     9 
   17    19    36    37     9 
   17    19    36    38     9 
   20    19    36    37     9 
   20    19    36    38     9 
   21    19    36    37     9 
   21    19    36    38     9 
   19    21    24    25     9 
   19    21    24    34     9 
   22    21    24    25     9 
   22    21    24    34     9 
   23    21    24    25     9 
   23    21    24    34     9 
   21    24    25    26     9 
   21    24    25    27     9 
   34    24    25    26     9 
   34    24    25    27     9 
   21    24    34    32     9 
   21    24    34    35     9 
   25    24    34    32     9 
   25    24    34    35     9 
   24    25    27    28     9 
   24    25    27    29     9 
   26    25    27    28     9 
   26    25    27    29     9 
   25    27    29    30     9 
   25    27    29    32     9 
   28    27    29    30     9 
   28    27    29    32     9 
   27    29    30    31     9 
   32    29    30    31     9 
   27    29    32    33     9 
   27    29    32    34     9 
   30    29    32    33     9 
   30    29    32    34     9 
   29    32    34    24     9 
   29    32    34    35     9 
   33    32    34    24     9 
   33    32    34    35     9 
   19    36    38    39     9 
   19    36    38    40     9 
   37    36    38    39     9 
   37    36    38    40     9 
   36    38    40    41     9 
   36    38    40    42     9 
   36    38    40    53     9 
   39    38    40    41     9 
   39    38    40    42     9 
   39    38    40    53     9 
   38    40    42    43     9 
   38    40    42    44     9 
   38    40    42    45     9 
   41    40    42    43     9 
   41    40    42    44     9 
   41    40    42    45     9 
   53    40    42    43     9 
   53    40    42    44     9 
   53    40    42    45     9 
   38    40    53    54     9 
   38    40    53    55     9 
   41    40    53    54     9 
   41    40    53    55     9 
   42    40    53    54     9 
   42    40    53    55     9 
   40    42    45    46     9 
   40    42    45    51     9 
   43    42    45    46     9 
   43    42    45    51     9 
   44    42    45    46     9 
   44    42    45    51     9 
   42    45    46    47     9 
   51    45    46    47     9 
   42    45    51    49     9 
   42    45    51    52     9 
   46    45    51    49     9 
   46    45    51    52     9 
   45    46    47    48     9 
   45    46    47    49     9 
   46    47    49    50     9 
   46    47    49    51     9 
   48    47    49    50     9 
   48    47    49    51     9 
   47    49    51    45     9 
   47    49    51    52     9 
   50    49    51    45     9 
   50    49    51    52     9 
   40    53    55    56     9 
   40    53    55    57     9 
   54    53    55    56     9 
   54    53    55    57     9 
   53    55    57    58     9 
   53    55    57    59     9 
   53    55    57    72     9 
   56    55    57    58     9 
   56    55    57    59     9 
   56    55    57    72     9 
   72    57    59    62     9    torsion_LEU_C_CA_CB_CG_mult1
   72    57    59    62     9    torsion_LEU_C_CA_CB_CG_mult2
   72    57    59    62     9    torsion_LEU_C_CA_CB_CG_mult3
   55    57    59    60     9 
   55    57    59    61     9 
   55    57    59    62     9 
   58    57    59    60     9 
   58    57    59    61     9 
   58    57    59    62     9 
   72    57    59    60     9 
   72    57    59    61     9 
   55    57    72    73     9 
   55    57    72    74     9 
   58    57    72    73     9 
   58    57    72    74     9 
   59    57    72    73     9 
   59    57    72    74     9 
   57    59    62    63     9 
   57    59    62    64     9 
   57    59    62    68     9 
   60    59    62    63     9 
   60    59    62    64     9 
   60    59    62    68     9 
   61    59    62    63     9 
   61    59    62    64     9 
   61    59    62    68     9 
   59    62    64    65     9 
   59    62    64    66     9 
   59    62    64    67     9 
   63    62    64    65     9 
   63    62    64    66     9 
   63    62    64    67     9 
   68    62    64    65     9 
   68    62    64    66     9 
   68    62    64    67     9 
   59    62    68    69     9 
   59    62    68    70     9 
   59    62    68    71     9 
   63    62    68    69     9 
   63    62    68    70     9 
   63    62    68    71     9 
   64    62    68    69     9 
   64    62    68    70     9 
   64    62    68    71     9 
   57    72    74    75     9 
   57    72    74    76     9 
   73    72    74    75     9 
   73    72    74    76     9 
   72    74    76    77     9 
   72    74    76    78     9 
   72    74    76    87     9 
   75    74    76    77     9 
   75    74    76    78     9 
   75    74    76    87     9 
   74    76    78    79     9 
   74    76    78    80     9 
   74    76    78    81     9 
   77    76    78    79     9 
   77    76    78    80     9 
   77    76    78    81     9 
   87    76    78    79     9 
   87    76    78    80     9 
   87    76    78    81     9 
   74    76    87    88     9 
   74    76    87    89     9 
   77    76    87    88     9 
   77    76    87    89     9 
   78    76    87    88     9 
   78    76    87    89     9 
   76    78    81    82     9 
   76    78    81    83     9 
   76    78    81    84     9 
   79    78    81    82     9 
   79    78    81    83     9 
   79    78    81    84     9 
   80    78    81    82     9 
   80    78    81    83     9 
   80    78    81    84     9 
   78    81    84    85     9 
   78    81    84    86     9 
   82    81    84    85     9 
   82    81    84    86     9 
   83    81    84    85     9 
   83    81    84    86     9 
   76    87    89    90     9 
   76    87    89    91     9 
   88    87    89    90     9 
   88    87    89    91     9 
   87    89    91    92     9 
   87    89    91    93     9 
   87    89    91   101     9 
   90    89    91    92     9 
   90    89    91    93     9 
   90    89    91   101     9 
  101    91    93    96     9    torsion_ASN_C_CA_CB_CG_mult1
  101    91    93    96     9    torsion_ASN_C_CA_CB_CG_mult2
  101    91    93    96     9    torsion_ASN_C_CA_CB_CG_mult3
  101    91    93    96     9    torsion_ASN_C_CA_CB_CG_mult4
  101    91    93    96     9    torsion_ASN_C_CA_CB_CG_mult5
  101    91    93    96     9    torsion_ASN_C_CA_CB_CG_mult6
   89    91    93    94     9 
   89    91    93    95     9 
   89    91    93    96     9 
   92    91    93    94     9 
   92    91    93    95     9 
   92    91    93    96     9 
  101    91    93    94     9 
  101    91    93    95     9 
   89    91   101   102     9 
   89    91   101   103     9 
   92    91   101   102     9 
   92    91   101   103     9 
   93    91   101   102     9 
   93    91   101   103     9 
   91    93    96    98     9    torsion_ASN_CA_CB_CG_ND2_mult1
   91    93    96    98     9    torsion_ASN_CA_CB_CG_ND2_mult2
   91    93    96    98     9    torsion_ASN_CA_CB_CG_ND2_mult3
   91    93    96    98     9    torsion_ASN_CA_CB_CG_ND2_mult4
   91    93    96    98     9    torsion_ASN_CA_CB_CG_ND2_mult5
   91    93    96    98     9    torsion_ASN_CA_CB_CG_ND2_mult6
   91    93    96    97     9 
   94    93    96    97     9 
   94    93    96    98     9 
   95    93    96    97     9 
   95    93    96    98     9 
   93    96    98    99     9 
   93    96    98   100     9 
   97    96    98    99     9 
   97    96    98   100     9 
   91   101   103   104     9 
   91   101   103   105     9 
  102   101   103   104     9 
  102   101   103   105     9 
  101   103   105   106     9 
  101   103   105   107     9 
  101   103   105   116     9 
  104   103   105   106     9 
  104   103   105   107     9 
  104   103   105   116     9 
  103   105   107   108     9 
  103   105   107   109     9 
  103   105   107   110     9 
  106   105   107   108     9 
  106   105   107   109     9 
  106   105   107   110     9 
  116   105   107   108     9 
  116   105   107   109     9 
  116   105   107   110     9 
  103   105   116   117     9 
  103   105   116   118     9 
  106   105   116   117     9 
  106   105   116   118     9 
  107   105   116   117     9 
  107   105   116   118     9 
  105   107   110   111     9 
  105   107   110   112     9 
  105   107   110   113     9 
  108   107   110   111     9 
  108   107   110   112     9 
  108   107   110   113     9 
  109   107   110   111     9 
  109   107   110   112     9 
  109   107   110   113     9 
  107   110   113   114     9 
  107   110   113   115     9 
  111   110   113   114     9 
  111   110   113   115     9 
  112   110   113   114     9 
  112   110   113   115     9 
  105   116   118   119     9 
  105   116   118   120     9 
  117   116   118   119     9 
  117   116   118   120     9 
  116   118   120   121     9 
  116   118   120   122     9 
  116   118   120   132     9 
  119   118   120   121     9 
  119   118   120   122     9 
  119   118   120   132     9 
  118   120   122   123     9 
  118   120   122   124     9 
  118   120   122   128     9 
  121   120   122   123     9 
  121   120   122   124     9 
  121   120   122   128     9 
  132   120   122   123     9 
  132   120   122   124     9 
  132   120   122   128     9 
  118   120   132   133     9 
  118   120   132   134     9 
  121   120   132   133     9 
  121   120   132   134     9 
  122   120   132   133     9 
  122   120   132   134     9 
  120   122   124   125     9 
  120   122   124   126     9 
  120   122   124   127     9 
  123   122   124   125     9 
  123   122   124   126     9 
  123   122   124   127     9 
  128   122   124   125     9 
  128   122   124   126     9 
  128   122   124   127     9 
  120   122   128   129     9 
  120   122   128   130     9 
  120   122   128   131     9 
  123   122   128   129     9 
  123   122   128   130     9 
  123   122   128   131     9 
  124   122   128   129     9 
  124   122   128   130     9 
  124   122   128   131     9 
  120   132   134   135     9 
  120   132   134   136     9 
  133   132   134   135     9 
  133   132   134   136     9 
  132   134   136   137     9 
  132   134   136   138     9 
  132   134   136   142     9 
  135   134   136   137     9 
  135   134   136   138     9 
  135   134   136   142     9 
  134   136   138   139     9 
  134   136   138   140     9 
  134   136   138   141     9 
  137   136   138   139     9 
  137   136   138   140     9 
  137   136   138   141     9 
  142   136   138   139     9 
  142   136   138   140     9 
  142   136   138   141     9 
  134   136   142   143     9 
  134   136   142   144     9 
  137   136   142   143     9 
  137   136   142   144     9 
  138   136   142   143     9 
  138   136   142   144     9 
  136   142   144   145     9 
  136   142   144   146     9 
  143   142   144   145     9 
  143   142   144   146     9 
  142   144   146   147     9 
  142   144   146   148     9 
  142   144   146   166     9 
  145   144   146   147     9 
  145   144   146   148     9 
  145   144   146   166     9 
  144   146   148   149     9 
  144   146   148   150     9 
  144   146   148   151     9 
  147   146   148   149     9 
  147   146   148   150     9 
  147   146   148   151     9 
  166   146   148   149     9 
  166   146   148   150     9 
  166   146   148   151     9 
  144   146   166   167     9 
  144   146   166   168     9 
  147   146   166   167     9 
  147   146   166   168     9 
  148   146   166   167     9 
  148   146   166   168     9 
  146   148   151   152     9 
  146   148   151   153     9 
  146   148   151   154     9 
  149   148   151   152     9 
  149   148   151   153     9 
  149   148   151   154     9 
  150   148   151   152     9 
  150   148   151   153     9 
  150   148   151   154     9 
  148   151   154   155     9 
  148   151   154   156     9 
  148   151   154   157     9 
  152   151   154   155     9 
  152   151   154   156     9 
  152   151   154   157     9 
  153   151   154   155     9 
  153   151   154   156     9 
  153   151   154   157     9 
  151   154   157   158     9 
  151   154   157   159     9 
  155   154   157   158     9 
  155   154   157   159     9 
  156   154   157   158     9 
  156   154   157   159     9 
  154   157   159   160     9 
  154   157   159   163     9 
  158   157   159   160     9 
  158   157   159   163     9 
  157   159   160   161     9 
  157   159   160   162     9 
  163   159   160   161     9 
  163   159   160   162     9 
  157   159   163   164     9 
  157   159   163   165     9 
  160   159   163   164     9 
  160   159   163   165     9 
  146   166   168   169     9 
  146   166   168   170     9 
  167   166   168   169     9 
  167   166   168   170     9 
  166   168   170   171     9 
  166   168   170   172     9 
  166   168   170   185     9 
  169   168   170   171     9 
  169   168   170   172     9 
  169   168   170   185     9 
  185   170   172   175     9    torsion_LEU_C_CA_CB_CG_mult1
  185   170   172   175     9    torsion_LEU_C_CA_CB_CG_mult2
  185   170   172   175     9    torsion_LEU_C_CA_CB_CG_mult3
  168   170   172   173     9 
  168   170   172   174     9 
  168   170   172   175     9 
  171   170   172   173     9 
  171   170   172   174     9 
  171   170   172   175     9 
  185   170   172   173     9 
  185   170   172   174     9 
  168   170   185   186     9 
  168   170   185   187     9 
  171   170   185   186     9 
  171   170   185   187     9 
  172   170   185   186     9 
  172   170   185   187     9 
  170   172   175   176     9 
  170   172   175   177     9 
  170   172   175   181     9 
  173   172   175   176     9 
  173   172   175   177     9 
  173   172   175   181     9 
  174   172   175   176     9 
  174   172   175   177     9 
  174   172   175   181     9 
  172   175   177   178     9 
  172   175   177   179     9 
  172   175   177   180     9 
  176   175   177   178     9 
  176   175   177   179     9 
  176   175   177   180     9 
  181   175   177   178     9 
  181   175   177   179     9 
  181   175   177   180     9 
  172   175   181   182     9 
  172   175   181   183     9 
  172   175   181   184     9 
  176   175   181   182     9 
  176   175   181   183     9 
  176   175   181   184     9 
  177   175   181   182     9 
  177   175   181   183     9 
  177   175   181   184     9 
  170   185   187   188     9 
  170   185   187   189     9 
  186   185   187   188     9 
  186   185   187   189     9 
  185   187   189   190     9 
  185   187   189   191     9 
  185   187   189   207     9 
  188   187   189   190     9 
  188   187   189   191     9 
  188   187   189   207     9 
  187   189   191   192     9 
  187   189   191   193     9 
  187   189   191   194     9 
  190   189   191   192     9 
  190   189   191   193     9 
  190   189   191   194     9 
  207   189   191   192     9 
  207   189   191   193     9 
  207   189   191   194     9 
  187   189   207   208     9 
  187   189   207   209     9 
  190   189   207   208     9 
  190   189   207   209     9 
  191   189   207   208     9 
  191   189   207   209     9 
  189   191   194   195     9 
  189   191   194   196     9 
  189   191   194   197     9 
  192   191   194   195     9 
  192   191   194   196     9 
  192   191   194   197     9 
  193   191   194   195     9 
  193   191   194   196     9 
  193   191   194   197     9 
  191   194   197   198     9 
  191   194   197   199     9 
  191   194   197   200     9 
  195   194   197   198     9 
  195   194   197   199     9 
  195   194   197   200     9 
  196   194   197   198     9 
  196   194   197   199     9 
  196   194   197   200     9 
  194   197   200   201     9 
  194   197   200   202     9 
  194   197   200   203     9 
  198   197   200   201     9 
  198   197   200   202     9 
  198   197   200   203     9 
  199   197   200   201     9 
  199   197   200   202     9 
  199   197   200   203     9 
  197   200   203   204     9 
  197   200   203   205     9 
  197   200   203   206     9 
  201   200   203   204     9 
  201   200   203   205     9 
  201   200   203   206     9 
  202   200   203   204     9 
  202   200   203   205     9 
  202   200   203   206     9 
  189   207   209   210     9 
  189   207   209   211     9 
  208   207   209   210     9 
  208   207   209   211     9 
  207   209   211   212     9 
  207   209   211   213     9 
  207   209   211   229     9 
  210   209   211   212     9 
  210   209   211   213     9 
  210   209   211   229     9 
  209   211   213   214     9 
  209   211   213   215     9 
  209   211   213   216     9 
  212   211   213   214     9 
  212   211   213   215     9 
  212   211   213   216     9 
  229   211   213   214     9 
  229   211   213   215     9 
  229   211   213   216     9 
  209   211   229   230     9 
  209   211   229   231     9 
  212   211   229   230     9 
  212   211   229   231     9 
  213   211   229   230     9 
  213   211   229   231     9 
  211   213   216   217     9 
  211   213   216   218     9 
  211   213   216   219     9 
  214   213   216   217     9 
  214   213   216   218     9 
  214   213   216   219     9 
  215   213   216   217     9 
  215   213   216   218     9 
  215   213   216   219     9 
  213   216   219   220     9 
  213   216   219   221     9 
  213   216   219   222     9 
  217   216   219   220     9 
  217   216   219   221     9 
  217   216   219   222     9 
  218   216   219   220     9 
  218   216   219   221     9 
  218   216   219   222     9 
  216   219   222   223     9 
  216   219   222   224     9 
  216   219   222   225     9 
  220   219   222   223     9 
  220   219   222   224     9 
  220   219   222   225     9 
  221   219   222   223     9 
  221   219   222   224     9 
  221   219   222   225     9 
  219   222   225   226     9 
  219   222   225   227     9 
  219   222   225   228     9 
  223   222   225   226     9 
  223   222   225   227     9 
  223   222   225   228     9 
  224   222   225   226     9 
  224   222   225   227     9 
  224   222   225   228     9 
  211   229   231   232     9 
  211   229   231   233     9 
  230   229   231   232     9 
  230   229   231   233     9 
  229   231   233   234     9 
  229   231   233   235     9 
  229   231   233   248     9 
  232   231   233   234     9 
  232   231   233   235     9 
  232   231   233   248     9 
  248   233   235   238     9    torsion_LEU_C_CA_CB_CG_mult1
  248   233   235   238     9    torsion_LEU_C_CA_CB_CG_mult2
  248   233   235   238     9    torsion_LEU_C_CA_CB_CG_mult3
  231   233   235   236     9 
  231   233   235   237     9 
  231   233   235   238     9 
  234   233   235   236     9 
  234   233   235   237     9 
  234   233   235   238     9 
  248   233   235   236     9 
  248   233   235   237     9 
  231   233   248   249     9 
  231   233   248   250     9 
  234   233   248   249     9 
  234   233   248   250     9 
  235   233   248   249     9 
  235   233   248   250     9 
  233   235   238   239     9 
  233   235   238   240     9 
  233   235   238   244     9 
  236   235   238   239     9 
  236   235   238   240     9 
  236   235   238   244     9 
  237   235   238   239     9 
  237   235   238   240     9 
  237   235   238   244     9 
  235   238   240   241     9 
  235   238   240   242     9 
  235   238   240   243     9 
  239   238   240   241     9 
  239   238   240   242     9 
  239   238   240   243     9 
  244   238   240   241     9 
  244   238   240   242     9 
  244   238   240   243     9 
  235   238   244   245     9 
  235   238   244   246     9 
  235   238   244   247     9 
  239   238   244   245     9 
  239   238   244   246     9 
  239   238   244   247     9 
  240   238   244   245     9 
  240   238   244   246     9 
  240   238   244   247     9 
  233   248   250   251     9 
  233   248   250   252     9 
  249   248   250   251     9 
  249   248   250   252     9 
  248   250   252   253     9 
  248   250   252   254     9 
  248   250   252   264     9 
  251   250   252   253     9 
  251   250   252   254     9 
  251   250   252   264     9 
  250   252   254   255     9 
  250   252   254   256     9 
  250   252   254   260     9 
  253   252   254   255     9 
  253   252   254   256     9 
  253   252   254   260     9 
  264   252   254   255     9 
  264   252   254   256     9 
  264   252   254   260     9 
  250   252   264   265     9 
  250   252   264   266     9 
  253   252   264   265     9 
  253   252   264   266     9 
  254   252   264   265     9 
  254   252   264   266     9 
  252   254   256   257     9 
  252   254   256   258     9 
  252   254   256   259     9 
  255   254   256   257     9 
  255   254   256   258     9 
  255   254   256   259     9 
  260   254   256   257     9 
  260   254   256   258     9 
  260   254   256   259     9 
  252   254   260   261     9 
  252   254   260   262     9 
  252   254   260   263     9 
  255   254   260   261     9 
  255   254   260   262     9 
  255   254   260   263     9 
  256   254   260   261     9 
  256   254   260   262     9 
  256   254   260   263     9 
  252   264   266   267     9 
  252   264   266   268     9 
  265   264   266   267     9 
  265   264   266   268     9 
  264   266   268   269     9 
  264   266   268   270     9 
  264   266   268   271     9 
  267   266   268   269     9 
  267   266   268   270     9 
  267   266   268   271     9 
  266   268   271   272     9 
  266   268   271   273     9 
  269   268   271   272     9 
  269   268   271   273     9 
  270   268   271   272     9 
  270   268   271   273     9 
  268   271   273   274     9 
  268   271   273   275     9 
  272   271   273   274     9 
  272   271   273   275     9 
  271   273   275   276     9 
  271   273   275   277     9 
  271   273   275   286     9 
  274   273   275   276     9 
  274   273   275   277     9 
  274   273   275   286     9 
  273   275   277   278     9 
  273   275   277   279     9 
  273   275   277   280     9 
  276   275   277   278     9 
  276   275   277   279     9 
  276   275   277   280     9 
  286   275   277   278     9 
  286   275   277   279     9 
  286   275   277   280     9 
  273   275   286   287     9 
  273   275   286   288     9 
  276   275   286   287     9 
  276   275   286   288     9 
  277   275   286   287     9 
  277   275   286   288     9 
  275   277   280   281     9 
  275   277   280   282     9 
  275   277   280   283     9 
  278   277   280   281     9 
  278   277   280   282     9 
  278   277   280   283     9 
  279   277   280   281     9 
  279   277   280   282     9 
  279   277   280   283     9 
  277   280   283   284     9 
  277   280   283   285     9 
  281   280   283   284     9 
  281   280   283   285     9 
  282   280   283   284     9 
  282   280   283   285     9 

[ dihedrals ]
;  ai    aj    ak    al funct            c0            c1            c2            c3
    5    17    15    16     4 
    7    12    10    11     4 
   10    13    12    14     4 
   15    19    17    18     4 
   19    38    36    37     4 
   21    24    34    25     4 
   24    27    25    26     4 
   24    32    34    35     4 
   25    29    27    28     4 
   27    32    29    30     4 
   29    34    32    33     4 
   36    40    38    39     4 
   40    55    53    54     4 
   42    45    51    46     4 
   45    49    51    52     4 
   46    49    47    48     4 
   47    51    49    50     4 
   53    57    55    56     4 
   57    74    72    73     4 
   72    76    74    75     4 
   76    89    87    88     4 
   81    85    84    86     4 
   87    91    89    90     4 
   91   103   101   102     4 
   93    98    96    97     4 
   96    99    98   100     4 
  101   105   103   104     4 
  105   118   116   117     4 
  110   114   113   115     4 
  116   120   118   119     4 
  120   134   132   133     4 
  132   136   134   135     4 
  136   144   142   143     4 
  142   146   144   145     4 
  146   168   166   167     4 
  154   159   157   158     4 
  157   160   159   163     4 
  159   161   160   162     4 
  159   164   163   165     4 
  166   170   168   169     4 
  170   187   185   186     4 
  185   189   187   188     4 
  189   209   207   208     4 
  207   211   209   210     4 
  211   231   229   230     4 
  229   233   231   232     4 
  233   250   248   249     4 
  248   252   250   251     4 
  252   266   264   265     4 
  264   268   266   267     4 
  268   273   271   272     4 
  271   275   273   274     4 
  275   287   286   288     4 
  280   284   283   285     4 

; Include Position restraint file
#ifdef POSRES
#include "posre.itp"
#endif

; Include water topology
#include "amber99sb-ildn.ff/tip3p.itp"

#ifdef POSRES_WATER
; Position restraint for each water oxygen
[ position_restraints ]
;  i funct       fcx        fcy        fcz
   1    1       1000       1000       1000
#endif

; Include topology for ions
#include "amber99sb-ildn.ff/ions.itp"

[ system ]
; Name
GENERAL CONTROL PROTEIN GCN4 in water

[ molecules ]
; Compound        #mols
Protein_chain_A     1
SOL               789
