;
;	File 'topol.top' was generated
;	By user: msz208502 (93529)
;	On host: login02
;	At date: Sun Apr  5 09:50:14 2026
;
;	This is a standalone topology file
;
;	Created by:
;	              :-) GROMACS - gmx pdb2gmx, 2021.4-plumed-2.8.0 (-:
;	
;	Executable:   /home/apps/centos7/gromacs/2021.4/gcc9.1_ompi4.1.2/bin/gmx_mpi
;	Data prefix:  /home/apps/centos7/gromacs/2021.4/gcc9.1_ompi4.1.2
;	Working dir:  /scratch/mse/phd/msz208502/dev_gromacs/polymers/9_cys_wat
;	Command line:
;	  gmx_mpi pdb2gmx -f cys.pdb -o cys_processed.gro -p topol.top -ff charmm27 -water tip3p -ignh
;	Force field was read from current directory or a relative path - path added.
;

; Include forcefield parameters
#include "./charmm27.ff/forcefield.itp"

[ moleculetype ]
; Name            nrexcl
Protein             3

[ atoms ]
;   nr       type  resnr residue  atom   cgnr     charge       mass  typeB    chargeB      massB
; residue   1 CYS rtp CYS  q  0.0
     1        NH3      1    CYS      N      1       -0.3     14.007
     2         HC      1    CYS     H1      2       0.33      1.008
     3         HC      1    CYS     H2      3       0.33      1.008
     4         HC      1    CYS     H3      4       0.33      1.008
     5        CT1      1    CYS     CA      5       0.21     12.011
     6         HB      1    CYS     HA      6        0.1      1.008
     7        CT2      1    CYS     CB      7      -0.11     12.011
     8         HA      1    CYS    HB1      8       0.09      1.008
     9         HA      1    CYS    HB2      9       0.09      1.008
    10          S      1    CYS     SG     10      -0.23      32.06
    11         HS      1    CYS    HG1     11       0.16      1.008
    12         CC      1    CYS      C     12       0.34     12.011
    13         OC      1    CYS    OT1     13      -0.67    15.9994
    14         OC      1    CYS    OT2     14      -0.67    15.9994   ; qtot 0

[ bonds ]
;  ai    aj funct            c0            c1            c2            c3
    1     2     1 
    1     3     1 
    1     4     1 
    1     5     1 
    5     6     1 
    5     7     1 
    5    12     1 
    7     8     1 
    7     9     1 
    7    10     1 
   10    11     1 
   12    13     1 
   12    14     1 

[ pairs ]
;  ai    aj funct            c0            c1            c2            c3
    1     8     1 
    1     9     1 
    1    10     1 
    1    13     1 
    1    14     1 
    2     6     1 
    2     7     1 
    2    12     1 
    3     6     1 
    3     7     1 
    3    12     1 
    4     6     1 
    4     7     1 
    4    12     1 
    5    11     1 
    6     8     1 
    6     9     1 
    6    10     1 
    6    13     1 
    6    14     1 
    7    13     1 
    7    14     1 
    8    11     1 
    8    12     1 
    9    11     1 
    9    12     1 
   10    12     1 

[ angles ]
;  ai    aj    ak funct            c0            c1            c2            c3
    2     1     3     5 
    2     1     4     5 
    2     1     5     5 
    3     1     4     5 
    3     1     5     5 
    4     1     5     5 
    1     5     6     5 
    1     5     7     5 
    1     5    12     5 
    6     5     7     5 
    6     5    12     5 
    7     5    12     5 
    5     7     8     5 
    5     7     9     5 
    5     7    10     5 
    8     7     9     5 
    8     7    10     5 
    9     7    10     5 
    7    10    11     5 
    5    12    13     5 
    5    12    14     5 
   13    12    14     5 

[ dihedrals ]
;  ai    aj    ak    al funct            c0            c1            c2            c3            c4            c5
    2     1     5     6     9 
    2     1     5     7     9 
    2     1     5    12     9 
    3     1     5     6     9 
    3     1     5     7     9 
    3     1     5    12     9 
    4     1     5     6     9 
    4     1     5     7     9 
    4     1     5    12     9 
    1     5     7     8     9 
    1     5     7     9     9 
    1     5     7    10     9 
    6     5     7     8     9 
    6     5     7     9     9 
    6     5     7    10     9 
   12     5     7     8     9 
   12     5     7     9     9 
   12     5     7    10     9 
    1     5    12    13     9 
    1     5    12    14     9 
    6     5    12    13     9 
    6     5    12    14     9 
    7     5    12    13     9 
    7     5    12    14     9 
    5     7    10    11     9 
    8     7    10    11     9 
    9     7    10    11     9 

[ dihedrals ]
;  ai    aj    ak    al funct            c0            c1            c2            c3
   12     5    14    13     2 

; Include Position restraint file
#ifdef POSRES
#include "posre.itp"
#endif

; Include water topology
#include "./charmm27.ff/tip3p.itp"

#ifdef POSRES_WATER
; Position restraint for each water oxygen
[ position_restraints ]
;  i funct       fcx        fcy        fcz
   1    1       1000       1000       1000
#endif

; Include topology for ions
#include "./charmm27.ff/ions.itp"

[ system ]
; Name
L-cysteine in water

[ molecules ]
; Compound        #mols
Protein             100
SOL              3485
