Ethanol molecules in water
 4008
    1BIPQ    H6    1   8.880   0.248   0.170
    1BIPQ    O1    2   8.804   0.211   0.123
    1BIPQ    C2    3   8.709   0.166   0.220
    1BIPQ    H4    4   8.758   0.107   0.297
    1BIPQ    H5    5   8.633   0.104   0.173
    1BIPQ    C1    6   8.645   0.289   0.282
    1BIPQ    H1    7   8.558   0.261   0.341
    1BIPQ    H2    8   8.615   0.360   0.205
    1BIPQ    H3    9   8.715   0.339   0.349
    2BIPQ    H6   10   9.012   0.349   1.188
    2BIPQ    O1   11   8.999   0.349   1.092
    2BIPQ    C2   12   8.872   0.288   1.068
    2BIPQ    H4   13   8.870   0.188   1.111
    2BIPQ    H5   14   8.854   0.279   0.961
    2BIPQ    C1   15   8.763   0.373   1.132
    2BIPQ    H1   16   8.665   0.328   1.115
    2BIPQ    H2   17   8.762   0.473   1.090
    2BIPQ    H3   18   8.779   0.380   1.240
    3BIPQ    H6   19   8.960   0.369   1.934
    3BIPQ    O1   20   8.876   0.407   1.902
    3BIPQ    C2   21   8.797   0.298   1.855
    3BIPQ    H4   22   8.801   0.215   1.925
    3BIPQ    H5   23   8.836   0.263   1.759
    3BIPQ    C1   24   8.654   0.348   1.839
    3BIPQ    H1   25   8.589   0.267   1.806
    3BIPQ    H2   26   8.650   0.428   1.765
    3BIPQ    H3   27   8.616   0.386   1.933
    4BIPQ    H6   28   8.888   0.509   2.650
    4BIPQ    O1   29   8.929   0.448   2.586
    4BIPQ    C2   30   8.879   0.318   2.619
    4BIPQ    H4   31   8.893   0.298   2.725
    4BIPQ    H5   32   8.935   0.242   2.564
    4BIPQ    C1   33   8.732   0.312   2.583
    4BIPQ    H1   34   8.690   0.214   2.606
    4BIPQ    H2   35   8.717   0.330   2.476
    4BIPQ    H3   36   8.675   0.387   2.638
    5BIPQ    H6   37   8.976   1.219   0.242
    5BIPQ    O1   38   8.897   1.182   0.197
    5BIPQ    C2   39   8.846   1.078   0.280
    5BIPQ    H4   40   8.881   1.088   0.383
    5BIPQ    H5   41   8.878   0.980   0.243
    5BIPQ    C1   42   8.694   1.087   0.275
    5BIPQ    H1   43   8.648   1.009   0.336
    5BIPQ    H2   44   8.658   1.076   0.172
    5BIPQ    H3   45   8.661   1.184   0.312
    6BIPQ    H6   46   8.758   1.225   1.203
    6BIPQ    O1   47   8.770   1.228   1.107
    6BIPQ    C2   48   8.773   1.093   1.061
    6BIPQ    H4   49   8.822   1.029   1.134
    6BIPQ    H5   50   8.828   1.085   0.968
    6BIPQ    C1   51   8.628   1.049   1.042
    6BIPQ    H1   52   8.624   0.946   1.007
    6BIPQ    H2   53   8.579   1.111   0.967
    6BIPQ    H3   54   8.572   1.058   1.135
    7BIPQ    H6   55   8.877   1.107   1.874
    7BIPQ    O1   56   8.874   1.063   1.787
    7BIPQ    C2   57   8.759   0.979   1.790
    7BIPQ    H4   58   8.740   0.943   1.891
    7BIPQ    H5   59   8.774   0.892   1.727
    7BIPQ    C1   60   8.641   1.062   1.740
    7BIPQ    H1   61   8.548   1.006   1.749
    7BIPQ    H2   62   8.655   1.088   1.635
    7BIPQ    H3   63   8.632   1.155   1.796
    8BIPQ    H6   64   8.877   1.178   2.733
    8BIPQ    O1   65   8.894   1.208   2.642
    8BIPQ    C2   66   8.805   1.133   2.560
    8BIPQ    H4   67   8.806   1.027   2.588
    8BIPQ    H5   68   8.835   1.139   2.455
    8BIPQ    C1   69   8.665   1.189   2.578
    8BIPQ    H1   70   8.593   1.132   2.518
    8BIPQ    H2   71   8.661   1.293   2.545
    8BIPQ    H3   72   8.634   1.185   2.682
    9BIPQ    H6   73   8.914   2.040   0.281
    9BIPQ    O1   74   8.864   1.965   0.315
    9BIPQ    C2   75   8.755   1.949   0.224
    9BIPQ    H4   76   8.710   1.850   0.236
    9BIPQ    H5   77   8.790   1.958   0.121
    9BIPQ    C1   78   8.654   2.058   0.255
    9BIPQ    H1   79   8.566   2.048   0.191
    9BIPQ    H2   80   8.697   2.157   0.237
    9BIPQ    H3   81   8.622   2.053   0.359
   10BIPQ    H6   82   8.865   1.935   1.189
   10BIPQ    O1   83   8.899   1.866   1.129
   10BIPQ    C2   84   8.786   1.788   1.088
   10BIPQ    H4   85   8.738   1.743   1.175
   10BIPQ    H5   86   8.819   1.706   1.023
   10BIPQ    C1   87   8.689   1.878   1.014
   10BIPQ    H1   88   8.602   1.821   0.981
   10BIPQ    H2   89   8.736   1.922   0.927
   10BIPQ    H3   90   8.654   1.959   1.079
   11BIPQ    H6   91   8.969   2.053   1.863
   11BIPQ    O1   92   8.942   2.014   1.778
   11BIPQ    C2   93   8.864   1.898   1.804
   11BIPQ    H4   94   8.919   1.829   1.868
   11BIPQ    H5   95   8.842   1.845   1.711
   11BIPQ    C1   96   8.735   1.942   1.871
   11BIPQ    H1   97   8.670   1.856   1.890
   11BIPQ    H2   98   8.681   2.012   1.808
   11BIPQ    H3   99   8.755   1.991   1.967
   12BIPQ    H6  100   8.838   2.072   2.820
   12BIPQ    O1  101   8.865   2.081   2.727
   12BIPQ    C2  102   8.880   1.948   2.677
   12BIPQ    H4  103   8.922   1.882   2.753
   12BIPQ    H5  104   8.949   1.948   2.592
   12BIPQ    C1  105   8.743   1.900   2.633
   12BIPQ    H1  106   8.749   1.797   2.598
   12BIPQ    H2  107   8.704   1.961   2.552
   12BIPQ    H3  108   8.672   1.904   2.716
   13BIPQ    H6  109   8.826   2.817   0.225
   13BIPQ    O1  110   8.828   2.727   0.189
   13BIPQ    C2  111   8.731   2.654   0.263
   13BIPQ    H4  112   8.745   2.670   0.370
   13BIPQ    H5  113   8.742   2.547   0.244
   13BIPQ    C1  114   8.595   2.703   0.218
   13BIPQ    H1  115   8.516   2.645   0.267
   13BIPQ    H2  116   8.583   2.694   0.110
   13BIPQ    H3  117   8.581   2.807   0.246
   14BIPQ    H6  118   9.011   2.801   1.102
   14BIPQ    O1  119   8.977   2.763   1.019
   14BIPQ    C2  120   8.857   2.692   1.049
   14BIPQ    H4  121   8.874   2.621   1.130
   14BIPQ    H5  122   8.825   2.635   0.962
   14BIPQ    C1  123   8.749   2.792   1.088
   14BIPQ    H1  124   8.655   2.741   1.110
   14BIPQ    H2  125   8.731   2.863   1.006
   14BIPQ    H3  126   8.779   2.849   1.176
   15BIPQ    H6  127   8.845   2.750   1.971
   15BIPQ    O1  128   8.864   2.737   1.876
   15BIPQ    C2  129   8.744   2.685   1.818
   15BIPQ    H4  130   8.707   2.600   1.876
   15BIPQ    H5  131   8.765   2.650   1.717
   15BIPQ    C1  132   8.641   2.797   1.816
   15BIPQ    H1  133   8.549   2.764   1.768
   15BIPQ    H2  134   8.679   2.883   1.760
   15BIPQ    H3  135   8.618   2.830   1.917
   16BIPQ    H6  136   8.896   2.756   2.927
   16BIPQ    O1  137   8.932   2.750   2.837
   16BIPQ    C2  138   8.841   2.674   2.759
   16BIPQ    H4  139   8.819   2.579   2.808
   16BIPQ    H5  140   8.884   2.651   2.662
   16BIPQ    C1  141   8.712   2.754   2.741
   16BIPQ    H1  142   8.640   2.698   2.682
   16BIPQ    H2  143   8.732   2.848   2.690
   16BIPQ    H3  144   8.667   2.777   2.838
   17BIPQ    H6  145   9.709   0.367   0.470
   17BIPQ    O1  146   9.724   0.351   0.375
   17BIPQ    C2  147   9.614   0.274   0.325
   17BIPQ    H4  148   9.598   0.185   0.386
   17BIPQ    H5  149   9.636   0.240   0.224
   17BIPQ    C1  150   9.489   0.361   0.326
   17BIPQ    H1  151   9.405   0.307   0.283
   17BIPQ    H2  152   9.505   0.452   0.269
   17BIPQ    H3  153   9.462   0.388   0.429
   18BIPQ    H6  154   9.675   0.280   1.220
   18BIPQ    O1  155   9.598   0.337   1.205
   18BIPQ    C2  156   9.503   0.256   1.136
   18BIPQ    H4  157   9.484   0.165   1.192
   18BIPQ    H5  158   9.540   0.229   1.038
   18BIPQ    C1  159   9.374   0.336   1.123
   18BIPQ    H1  160   9.298   0.278   1.071
   18BIPQ    H2  161   9.392   0.428   1.066
   18BIPQ    H3  162   9.335   0.364   1.221
   19BIPQ    H6  163   9.688   0.190   1.893
   19BIPQ    O1  164   9.642   0.109   1.863
   19BIPQ    C2  165   9.532   0.088   1.951
   19BIPQ    H4  166   9.565   0.092   2.055
   19BIPQ    H5  167   9.487   3.190   1.934
   19BIPQ    C1  168   9.430   0.198   1.926
   19BIPQ    H1  169   9.343   0.185   1.991
   19BIPQ    H2  170   9.396   0.196   1.822
   19BIPQ    H3  171   9.473   0.296   1.946
   20BIPQ    H6  172   9.653   0.507   2.621
   20BIPQ    O1  173   9.699   0.445   2.563
   20BIPQ    C2  174   9.676   0.318   2.625
   20BIPQ    H4  175   9.718   0.317   2.726
   20BIPQ    H5  176   9.723   0.238   2.569
   20BIPQ    C1  177   9.525   0.295   2.633
   20BIPQ    H1  178   9.503   0.198   2.678
   20BIPQ    H2  179   9.480   0.299   2.534
   20BIPQ    H3  180   9.477   0.371   2.695
   21BIPQ    H6  181   9.695   1.261   0.253
   21BIPQ    O1  182   9.703   1.165   0.254
   21BIPQ    C2  183   9.577   1.110   0.293
   21BIPQ    H4  184   9.558   1.130   0.399
   21BIPQ    H5  185   9.578   1.002   0.280
   21BIPQ    C1  186   9.467   1.172   0.208
   21BIPQ    H1  187   9.372   1.121   0.225
   21BIPQ    H2  188   9.491   1.164   0.102
   21BIPQ    H3  189   9.453   1.277   0.233
   22BIPQ    H6  190   9.677   1.222   1.198
   22BIPQ    O1  191   9.594   1.245   1.154
   22BIPQ    C2  192   9.575   1.147   1.052
   22BIPQ    H4  193   9.596   1.048   1.090
   22BIPQ    H5  194   9.642   1.166   0.968
   22BIPQ    C1  195   9.430   1.156   1.006
   22BIPQ    H1  196   9.411   1.084   0.926
   22BIPQ    H2  197   9.407   1.256   0.967
   22BIPQ    H3  198   9.361   1.134   1.088
   23BIPQ    H6  199   9.772   1.140   1.853
   23BIPQ    O1  200   9.722   1.067   1.894
   23BIPQ    C2  201   9.601   1.057   1.817
   23BIPQ    H4  202   9.555   0.959   1.833
   23BIPQ    H5  203   9.622   1.065   1.711
   23BIPQ    C1  204   9.507   1.168   1.862
   23BIPQ    H1  205   9.416   1.167   1.802
   23BIPQ    H2  206   9.554   1.265   1.850
   23BIPQ    H3  207   9.479   1.156   1.967
   24BIPQ    H6  208   9.572   1.233   2.711
   24BIPQ    O1  209   9.586   1.226   2.615
   24BIPQ    C2  210   9.526   1.103   2.574
   24BIPQ    H4  211   9.582   1.019   2.615
   24BIPQ    H5  212   9.530   1.094   2.465
   24BIPQ    C1  213   9.382   1.098   2.622
   24BIPQ    H1  214   9.333   1.008   2.586
   24BIPQ    H2  215   9.326   1.185   2.585
   24BIPQ    H3  216   9.377   1.098   2.731
   25BIPQ    H6  217   9.652   1.923   0.392
   25BIPQ    O1  218   9.671   1.874   0.310
   25BIPQ    C2  219   9.557   1.791   0.286
   25BIPQ    H4  220   9.524   1.743   0.377
   25BIPQ    H5  221   9.583   1.713   0.214
   25BIPQ    C1  222   9.447   1.880   0.230
   25BIPQ    H1  223   9.356   1.822   0.211
   25BIPQ    H2  224   9.478   1.925   0.135
   25BIPQ    H3  225   9.423   1.960   0.299
   26BIPQ    H6  226   9.729   1.925   1.126
   26BIPQ    O1  227   9.639   1.961   1.128
   26BIPQ    C2  228   9.562   1.867   1.054
   26BIPQ    H4  229   9.574   1.767   1.096
   26BIPQ    H5  230   9.596   1.863   0.950
   26BIPQ    C1  231   9.416   1.908   1.060
   26BIPQ    H1  232   9.353   1.838   1.003
   26BIPQ    H2  233   9.403   2.007   1.017
   26BIPQ    H3  234   9.381   1.910   1.163
   27BIPQ    H6  235   9.538   1.873   1.782
   27BIPQ    O1  236   9.486   1.800   1.744
   27BIPQ    C2  237   9.370   1.791   1.828
   27BIPQ    H4  238   9.401   1.792   1.933
   27BIPQ    H5  239   9.320   1.696   1.809
   27BIPQ    C1  240   9.277   1.907   1.799
   27BIPQ    H1  241   9.189   1.902   1.864
   27BIPQ    H2  242   9.243   1.906   1.696
   27BIPQ    H3  243   9.326   2.003   1.818
   28BIPQ    H6  244   9.818   1.916   2.733
   28BIPQ    O1  245   9.790   1.959   2.650
   28BIPQ    C2  246   9.698   1.869   2.588
   28BIPQ    H4  247   9.700   1.771   2.636
   28BIPQ    H5  248   9.725   1.855   2.483
   28BIPQ    C1  249   9.559   1.930   2.599
   28BIPQ    H1  250   9.485   1.864   2.553
   28BIPQ    H2  251   9.556   2.026   2.548
   28BIPQ    H3  252   9.532   1.945   2.703
   29BIPQ    H6  253   9.695   2.846   0.172
   29BIPQ    O1  254   9.693   2.817   0.264
   29BIPQ    C2  255   9.628   2.690   0.267
   29BIPQ    H4  256   9.640   2.644   0.365
   29BIPQ    H5  257   9.674   2.623   0.194
   29BIPQ    C1  258   9.481   2.710   0.235
   29BIPQ    H1  259   9.429   2.614   0.233
   29BIPQ    H2  260   9.468   2.758   0.138
   29BIPQ    H3  261   9.433   2.772   0.311
   30BIPQ    H6  262   9.695   2.711   1.243
   30BIPQ    O1  263   9.632   2.757   1.184
   30BIPQ    C2  264   9.553   2.657   1.121
   30BIPQ    H4  265   9.505   2.594   1.196
   30BIPQ    H5  266   9.615   2.593   1.059
   30BIPQ    C1  267   9.449   2.728   1.036
   30BIPQ    H1  268   9.385   2.655   0.986
   30BIPQ    H2  269   9.497   2.789   0.960
   30BIPQ    H3  270   9.386   2.792   1.098
   31BIPQ    H6  271   9.714   2.813   1.880
   31BIPQ    O1  272   9.721   2.775   1.791
   31BIPQ    C2  273   9.641   2.657   1.789
   31BIPQ    H4  274   9.658   2.597   1.878
   31BIPQ    H5  275   9.667   2.596   1.702
   31BIPQ    C1  276   9.496   2.702   1.781
   31BIPQ    H1  277   9.430   2.615   1.774
   31BIPQ    H2  278   9.479   2.765   1.693
   31BIPQ    H3  279   9.468   2.759   1.870
   32BIPQ    H6  280   9.628   2.632   2.900
   32BIPQ    O1  281   9.670   2.594   2.822
   32BIPQ    C2  282   9.573   2.596   2.716
   32BIPQ    H4  283   9.487   2.536   2.744
   32BIPQ    H5  284   9.616   2.553   2.626
   32BIPQ    C1  285   9.531   2.740   2.691
   32BIPQ    H1  286   9.459   2.745   2.609
   32BIPQ    H2  287   9.617   2.802   2.664
   32BIPQ    H3  288   9.484   2.783   2.779
   33BIPQ    H6  289  10.385   0.355   0.323
   33BIPQ    O1  290  10.410   0.359   0.229
   33BIPQ    C2  291  10.304   0.296   0.157
   33BIPQ    H4  292  10.244   0.232   0.222
   33BIPQ    H5  293  10.344   0.234   0.076
   33BIPQ    C1  294  10.218   0.407   0.099
   33BIPQ    H1  295  10.131   0.365   0.047
   33BIPQ    H2  296  10.274   0.467   0.027
   33BIPQ    H3  297  10.182   0.473   0.178
   34BIPQ    H6  298  10.412   0.407   1.021
   34BIPQ    O1  299  10.448   0.318   1.035
   34BIPQ    C2  300  10.340   0.227   1.053
   34BIPQ    H4  301  10.377   0.136   1.101
   34BIPQ    H5  302  10.298   0.198   0.956
   34BIPQ    C1  303  10.232   0.290   1.141
   34BIPQ    H1  304  10.151   0.219   1.158
   34BIPQ    H2  305  10.191   0.378   1.093
   34BIPQ    H3  306  10.274   0.318   1.237
   35BIPQ    H6  307  10.407   0.334   2.017
   35BIPQ    O1  308  10.406   0.249   1.969
   35BIPQ    C2  309  10.268   0.211   1.966
   35BIPQ    H4  310  10.227   0.207   2.067
   35BIPQ    H5  311  10.257   0.112   1.922
   35BIPQ    C1  312  10.192   0.314   1.883
   35BIPQ    H1  313  10.086   0.289   1.878
   35BIPQ    H2  314  10.231   0.317   1.781
   35BIPQ    H3  315  10.201   0.414   1.926
   36BIPQ    H6  316  10.423   0.441   2.616
   36BIPQ    O1  317  10.449   0.354   2.582
   36BIPQ    C2  318  10.447   0.265   2.694
   36BIPQ    H4  319  10.496   0.312   2.779
   36BIPQ    H5  320  10.502   0.174   2.671
   36BIPQ    C1  321  10.302   0.233   2.728
   36BIPQ    H1  322  10.298   0.159   2.808
   36BIPQ    H2  323  10.249   0.194   2.641
   36BIPQ    H3  324  10.251   0.323   2.763
   37BIPQ    H6  325  10.636   1.156   0.352
   37BIPQ    O1  326  10.611   1.110   0.270
   37BIPQ    C2  327  10.483   1.050   0.290
   37BIPQ    H4  328  10.460   1.041   0.396
   37BIPQ    H5  329  10.482   0.949   0.248
   37BIPQ    C1  330  10.377   1.134   0.221
   37BIPQ    H1  331  10.278   1.095   0.241
   37BIPQ    H2  332  10.392   1.134   0.113
   37BIPQ    H3  333  10.381   1.237   0.257
   38BIPQ    H6  334  10.518   1.057   1.060
   38BIPQ    O1  335  10.492   0.978   1.011
   38BIPQ    C2  336  10.349   0.971   1.008
   38BIPQ    H4  337  10.311   0.930   1.102
   38BIPQ    H5  338  10.317   0.903   0.928
   38BIPQ    C1  339  10.291   1.109   0.984
   38BIPQ    H1  340  10.182   1.105   0.979
   38BIPQ    H2  341  10.327   1.151   0.890
   38BIPQ    H3  342  10.318   1.177   1.065
   39BIPQ    H6  343  10.411   1.087   1.933
   39BIPQ    O1  344  10.429   1.037   1.852
   39BIPQ    C2  345  10.319   0.946   1.838
   39BIPQ    H4  346  10.316   0.878   1.923
   39BIPQ    H5  347  10.332   0.887   1.748
   39BIPQ    C1  348  10.190   1.027   1.831
   39BIPQ    H1  349  10.104   0.961   1.818
   39BIPQ    H2  350  10.194   1.097   1.747
   39BIPQ    H3  351  10.175   1.085   1.922
   40BIPQ    H6  352  10.436   1.099   2.718
   40BIPQ    O1  353  10.388   1.034   2.663
   40BIPQ    C2  354  10.280   0.988   2.745
   40BIPQ    H4  355  10.319   0.951   2.840
   40BIPQ    H5  356  10.228   0.907   2.695
   40BIPQ    C1  357  10.185   1.105   2.768
   40BIPQ    H1  358  10.101   1.074   2.831
   40BIPQ    H2  359  10.145   1.143   2.674
   40BIPQ    H3  360  10.236   1.187   2.819
   41BIPQ    H6  361  10.378   2.140   0.267
   41BIPQ    O1  362  10.401   2.051   0.298
   41BIPQ    C2  363  10.316   1.960   0.228
   41BIPQ    H4  364  10.342   1.857   0.254
   41BIPQ    H5  365  10.330   1.970   0.120
   41BIPQ    C1  366  10.172   1.989   0.266
   41BIPQ    H1  367  10.104   1.918   0.217
   41BIPQ    H2  368  10.143   2.089   0.236
   41BIPQ    H3  369  10.157   1.980   0.374
   42BIPQ    H6  370  10.557   1.896   1.104
   42BIPQ    O1  371  10.514   1.825   1.054
   42BIPQ    C2  372  10.394   1.791   1.123
   42BIPQ    H4  373  10.413   1.779   1.230
   42BIPQ    H5  374  10.354   1.696   1.086
   42BIPQ    C1  375  10.292   1.902   1.100
   42BIPQ    H1  376  10.197   1.879   1.149
   42BIPQ    H2  377  10.273   1.915   0.993
   42BIPQ    H3  378  10.329   1.997   1.140
   43BIPQ    H6  379  10.493   1.978   1.814
   43BIPQ    O1  380  10.476   1.912   1.883
   43BIPQ    C2  381  10.356   1.845   1.848
   43BIPQ    H4  382  10.338   1.761   1.915
   43BIPQ    H5  383  10.363   1.804   1.747
   43BIPQ    C1  384  10.241   1.945   1.855
   43BIPQ    H1  385  10.147   1.898   1.825
   43BIPQ    H2  386  10.259   2.030   1.790
   43BIPQ    H3  387  10.229   1.982   1.957
   44BIPQ    H6  388  10.537   1.980   2.664
   44BIPQ    O1  389  10.471   2.042   2.627
   44BIPQ    C2  390  10.345   1.976   2.643
   44BIPQ    H4  391  10.340   1.926   2.739
   44BIPQ    H5  392  10.333   1.900   2.566
   44BIPQ    C1  393  10.236   2.081   2.632
   44BIPQ    H1  394  10.138   2.035   2.646
   44BIPQ    H2  395  10.238   2.129   2.535
   44BIPQ    H3  396  10.250   2.156   2.709
   45BIPQ    H6  397  10.560   2.815   0.243
   45BIPQ    O1  398  10.524   2.778   0.161
   45BIPQ    C2  399  10.418   2.689   0.197
   45BIPQ    H4  400  10.445   2.632   0.286
   45BIPQ    H5  401  10.399   2.618   0.116
   45BIPQ    C1  402  10.294   2.772   0.224
   45BIPQ    H1  403  10.210   2.708   0.253
   45BIPQ    H2  404  10.265   2.829   0.135
   45BIPQ    H3  405  10.312   2.844   0.305
   46BIPQ    H6  406  10.526   2.804   1.087
   46BIPQ    O1  407  10.500   2.741   1.019
   46BIPQ    C2  408  10.375   2.683   1.058
   46BIPQ    H4  409  10.373   2.665   1.166
   46BIPQ    H5  410  10.360   2.587   1.009
   46BIPQ    C1  411  10.265   2.781   1.019
   46BIPQ    H1  412  10.167   2.740   1.042
   46BIPQ    H2  413  10.269   2.802   0.912
   46BIPQ    H3  414  10.276   2.875   1.073
   47BIPQ    H6  415  10.561   2.696   1.908
   47BIPQ    O1  416  10.508   2.680   1.828
   47BIPQ    C2  417  10.381   2.631   1.871
   47BIPQ    H4  418  10.392   2.561   1.954
   47BIPQ    H5  419  10.332   2.579   1.789
   47BIPQ    C1  420  10.297   2.751   1.915
   47BIPQ    H1  421  10.199   2.719   1.949
   47BIPQ    H2  422  10.283   2.820   1.831
   47BIPQ    H3  423  10.346   2.805   1.996
   48BIPQ    H6  424  10.437   2.756   2.766
   48BIPQ    O1  425  10.444   2.735   2.671
   48BIPQ    C2  426  10.354   2.627   2.649
   48BIPQ    H4  427  10.371   2.548   2.721
   48BIPQ    H5  428  10.371   2.584   2.550
   48BIPQ    C1  429  10.211   2.680   2.660
   48BIPQ    H1  430  10.140   2.600   2.643
   48BIPQ    H2  431  10.193   2.758   2.586
   48BIPQ    H3  432  10.193   2.722   2.759
   49BIPQ    H6  433  11.118   0.316   0.256
   49BIPQ    O1  434  11.103   0.224   0.230
   49BIPQ    C2  435  10.981   0.182   0.291
   49BIPQ    H4  436  10.991   0.184   0.400
   49BIPQ    H5  437  10.958   0.079   0.262
   49BIPQ    C1  438  10.869   0.275   0.247
   49BIPQ    H1  439  10.773   0.242   0.288
   49BIPQ    H2  440  10.861   0.277   0.139
   49BIPQ    H3  441  10.887   0.377   0.282
   50BIPQ    H6  442  11.291   0.390   0.932
   50BIPQ    O1  443  11.296   0.315   0.992
   50BIPQ    C2  444  11.162   0.272   1.015
   50BIPQ    H4  445  11.161   0.171   1.059
   50BIPQ    H5  446  11.107   0.267   0.922
   50BIPQ    C1  447  11.097   0.370   1.112
   50BIPQ    H1  448  10.995   0.339   1.137
   50BIPQ    H2  449  11.093   0.470   1.068
   50BIPQ    H3  450  11.154   0.377   1.204
   51BIPQ    H6  451  11.321   0.273   1.888
   51BIPQ    O1  452  11.257   0.322   1.833
   51BIPQ    C2  453  11.142   0.238   1.823
   51BIPQ    H4  454  11.162   0.139   1.865
   51BIPQ    H5  455  11.114   0.224   1.719
   51BIPQ    C1  456  11.030   0.306   1.901
   51BIPQ    H1  457  10.943   0.241   1.906
   51BIPQ    H2  458  11.001   0.399   1.852
   51BIPQ    H3  459  11.065   0.330   2.001
   52BIPQ    H6  460  11.254   0.427   2.694
   52BIPQ    O1  461  11.265   0.401   2.601
   52BIPQ    C2  462  11.199   0.276   2.583
   52BIPQ    H4  463  11.216   0.211   2.669
   52BIPQ    H5  464  11.238   0.224   2.495
   52BIPQ    C1  465  11.051   0.305   2.566
   52BIPQ    H1  466  10.994   0.212   2.554
   52BIPQ    H2  467  11.034   0.368   2.479
   52BIPQ    H3  468  11.012   0.357   2.654
   53BIPQ    H6  469  11.179   1.251   0.373
   53BIPQ    O1  470  11.211   1.182   0.313
   53BIPQ    C2  471  11.124   1.071   0.333
   53BIPQ    H4  472  11.111   1.052   0.440
   53BIPQ    H5  473  11.167   0.980   0.290
   53BIPQ    C1  474  10.990   1.101   0.268
   53BIPQ    H1  475  10.922   1.017   0.279
   53BIPQ    H2  476  11.003   1.121   0.161
   53BIPQ    H3  477  10.944   1.189   0.313
   54BIPQ    H6  478  11.189   1.180   1.215
   54BIPQ    O1  479  11.203   1.116   1.142
   54BIPQ    C2  480  11.075   1.065   1.106
   54BIPQ    H4  481  11.039   0.996   1.182
   54BIPQ    H5  482  11.085   1.009   1.013
   54BIPQ    C1  483  10.977   1.180   1.087
   54BIPQ    H1  484  10.878   1.142   1.063
   54BIPQ    H2  485  11.009   1.245   1.006
   54BIPQ    H3  486  10.968   1.240   1.178
   55BIPQ    H6  487  11.095   1.209   1.937
   55BIPQ    O1  488  11.135   1.210   1.848
   55BIPQ    C2  489  11.137   1.074   1.803
   55BIPQ    H4  490  11.161   1.007   1.886
   55BIPQ    H5  491  11.213   1.061   1.727
   55BIPQ    C1  492  10.999   1.042   1.747
   55BIPQ    H1  493  10.994   0.938   1.715
   55BIPQ    H2  494  10.977   1.106   1.662
   55BIPQ    H3  495  10.922   1.058   1.823
   56BIPQ    H6  496  11.264   1.151   2.779
   56BIPQ    O1  497  11.282   1.119   2.689
   56BIPQ    C2  498  11.182   1.020   2.661
   56BIPQ    H4  499  11.185   0.941   2.735
   56BIPQ    H5  500  11.201   0.974   2.563
   56BIPQ    C1  501  11.046   1.089   2.662
   56BIPQ    H1  502  10.967   1.017   2.642
   56BIPQ    H2  503  11.042   1.168   2.587
   56BIPQ    H3  504  11.027   1.133   2.760
   57BIPQ    H6  505  11.220   2.001   0.353
   57BIPQ    O1  506  11.278   1.930   0.321
   57BIPQ    C2  507  11.201   1.831   0.253
   57BIPQ    H4  508  11.163   1.757   0.323
   57BIPQ    H5  509  11.263   1.779   0.180
   57BIPQ    C1  510  11.084   1.897   0.179
   57BIPQ    H1  511  11.028   1.823   0.122
   57BIPQ    H2  512  11.119   1.975   0.112
   57BIPQ    H3  513  11.015   1.942   0.251
   58BIPQ    H6  514  11.184   1.978   1.130
   58BIPQ    O1  515  11.204   1.930   1.049
   58BIPQ    C2  516  11.106   1.828   1.035
   58BIPQ    H4  517  11.085   1.781   1.131
   58BIPQ    H5  518  11.141   1.750   0.967
   58BIPQ    C1  519  10.980   1.894   0.980
   58BIPQ    H1  520  10.900   1.820   0.971
   58BIPQ    H2  521  10.999   1.935   0.881
   58BIPQ    H3  522  10.946   1.973   1.047
   59BIPQ    H6  523  11.232   1.971   2.073
   59BIPQ    O1  524  11.269   1.902   2.015
   59BIPQ    C2  525  11.161   1.820   1.971
   59BIPQ    H4  526  11.119   1.765   2.055
   59BIPQ    H5  527  11.197   1.747   1.898
   59BIPQ    C1  528  11.053   1.908   1.908
   59BIPQ    H1  529  10.973   1.846   1.868
   59BIPQ    H2  530  11.095   1.967   1.826
   59BIPQ    H3  531  11.012   1.976   1.982
   60BIPQ    H6  532  11.304   1.844   2.741
   60BIPQ    O1  533  11.253   1.823   2.662
   60BIPQ    C2  534  11.123   1.783   2.708
   60BIPQ    H4  535  11.132   1.726   2.801
   60BIPQ    H5  536  11.075   1.719   2.634
   60BIPQ    C1  537  11.042   1.910   2.731
   60BIPQ    H1  538  10.945   1.886   2.776
   60BIPQ    H2  539  11.022   1.960   2.636
   60BIPQ    H3  540  11.094   1.980   2.797
   61BIPQ    H6  541  11.305   2.774   0.166
   61BIPQ    O1  542  11.228   2.722   0.139
   61BIPQ    C2  543  11.138   2.722   0.250
   61BIPQ    H4  544  11.187   2.682   0.339
   61BIPQ    H5  545  11.052   2.659   0.228
   61BIPQ    C1  546  11.092   2.865   0.274
   61BIPQ    H1  547  11.023   2.869   0.358
   61BIPQ    H2  548  11.041   2.906   0.186
   61BIPQ    H3  549  11.177   2.930   0.297
   62BIPQ    H6  550  11.141   2.918   1.120
   62BIPQ    O1  551  11.201   2.842   1.120
   62BIPQ    C2  552  11.123   2.724   1.096
   62BIPQ    H4  553  11.070   2.696   1.187
   62BIPQ    H5  554  11.188   2.642   1.069
   62BIPQ    C1  555  11.023   2.751   0.984
   62BIPQ    H1  556  10.964   2.662   0.964
   62BIPQ    H2  557  11.074   2.780   0.893
   62BIPQ    H3  558  10.954   2.831   1.012
   63BIPQ    H6  559  11.321   2.749   1.986
   63BIPQ    O1  560  11.299   2.664   1.944
   63BIPQ    C2  561  11.158   2.645   1.956
   63BIPQ    H4  562  11.129   2.649   2.061
   63BIPQ    H5  563  11.130   2.547   1.918
   63BIPQ    C1  564  11.087   2.754   1.876
   63BIPQ    H1  565  10.979   2.740   1.882
   63BIPQ    H2  566  11.117   2.751   1.772
   63BIPQ    H3  567  11.111   2.853   1.916
   64BIPQ    H6  568  11.272   2.728   2.817
   64BIPQ    O1  569  11.232   2.687   2.738
   64BIPQ    C2  570  11.095   2.661   2.773
   64BIPQ    H4  571  11.089   2.613   2.871
   64BIPQ    H5  572  11.051   2.593   2.701
   64BIPQ    C1  573  11.020   2.793   2.774
   64BIPQ    H1  574  10.916   2.778   2.801
   64BIPQ    H2  575  11.024   2.840   2.675
   64BIPQ    H3  576  11.065   2.863   2.846
   65SOL     OW  577  10.028   0.682   0.116
   65SOL    HW1  578   9.999   0.607   0.167
   65SOL    HW2  579   9.947   0.720   0.080
   65SOL     MW  580  10.018   0.679   0.117
   66SOL     OW  581   9.901   0.581   1.107
   66SOL    HW1  582   9.866   0.653   1.159
   66SOL    HW2  583   9.987   0.611   1.078
   66SOL     MW  584   9.906   0.590   1.109
   67SOL     OW  585   9.997   1.563   0.536
   67SOL    HW1  586   9.984   1.531   0.625
   67SOL    HW2  587  10.030   1.488   0.487
   67SOL     MW  588   9.999   1.554   0.539
   68SOL     OW  589   9.416   1.513   1.408
   68SOL    HW1  590   9.401   1.537   1.317
   68SOL    HW2  591   9.416   1.417   1.407
   68SOL     MW  592   9.415   1.506   1.400
   69SOL     OW  593   9.881   1.065   1.035
   69SOL    HW1  594   9.864   0.978   0.999
   69SOL    HW2  595   9.880   1.123   0.958
   69SOL     MW  596   9.879   1.062   1.025
   70SOL     OW  597   9.037   0.312   0.187
   70SOL    HW1  598   9.053   0.399   0.225
   70SOL    HW2  599   9.059   0.323   0.094
   70SOL     MW  600   9.040   0.321   0.182
   71SOL     OW  601   8.537   0.802   1.233
   71SOL    HW1  602   8.608   0.823   1.172
   71SOL    HW2  603   8.574   0.816   1.320
   71SOL     MW  604   8.547   0.805   1.235
   72SOL     OW  605   9.019   0.053   0.272
   72SOL    HW1  606   9.040   0.143   0.245
   72SOL    HW2  607   8.975   0.015   0.196
   72SOL     MW  608   9.017   0.058   0.263
   73SOL     OW  609   9.098   1.106   0.586
   73SOL    HW1  610   9.164   1.075   0.648
   73SOL    HW2  611   9.130   1.075   0.501
   73SOL     MW  612   9.107   1.100   0.584
   74SOL     OW  613   9.053   1.318   1.466
   74SOL    HW1  614   9.121   1.347   1.526
   74SOL    HW2  615   9.100   1.289   1.388
   74SOL     MW  616   9.063   1.318   1.464
   75SOL     OW  617   8.868   0.539   0.435
   75SOL    HW1  618   8.859   0.460   0.488
   75SOL    HW2  619   8.959   0.538   0.406
   75SOL     MW  620   8.875   0.532   0.437
   76SOL     OW  621   9.165   1.233   1.234
   76SOL    HW1  622   9.150   1.287   1.156
   76SOL    HW2  623   9.126   1.149   1.213
   76SOL     MW  624   9.160   1.230   1.225
   77SOL     OW  625   8.743   0.882   0.774
   77SOL    HW1  626   8.711   0.840   0.694
   77SOL    HW2  627   8.727   0.976   0.760
   77SOL     MW  628   8.738   0.887   0.766
   78SOL     OW  629   8.488   1.693   0.745
   78SOL    HW1  630   8.578   1.661   0.753
   78SOL    HW2  631   8.436   1.616   0.722
   78SOL     MW  632   8.491   1.683   0.744
   79SOL     OW  633   9.743   1.057   0.016
   79SOL    HW1  634   9.730   1.094   0.103
   79SOL    HW2  635   9.796   1.122   3.170
   79SOL     MW  636   9.747   1.066   0.020
   80SOL     OW  637   8.710   1.152   0.719
   80SOL    HW1  638   8.682   1.213   0.788
   80SOL    HW2  639   8.785   1.195   0.679
   80SOL     MW  640   8.714   1.161   0.722
   81SOL     OW  641   9.224   0.798   0.524
   81SOL    HW1  642   9.134   0.776   0.546
   81SOL    HW2  643   9.274   0.719   0.544
   81SOL     MW  644   9.221   0.789   0.528
   82SOL     OW  645   8.718   1.487   1.334
   82SOL    HW1  646   8.638   1.493   1.280
   82SOL    HW2  647   8.726   1.394   1.354
   82SOL     MW  648   8.711   1.479   1.331
   83SOL     OW  649   9.126   1.269   0.305
   83SOL    HW1  650   9.171   1.320   0.372
   83SOL    HW2  651   9.160   1.180   0.314
   83SOL     MW  652   9.133   1.266   0.312
   84SOL     OW  653  10.028   0.226   0.624
   84SOL    HW1  654  10.008   0.232   0.717
   84SOL    HW2  655  10.040   0.132   0.608
   84SOL     MW  656  10.028   0.218   0.631
   85SOL     OW  657   9.238   1.629   0.065
   85SOL    HW1  658   9.217   1.645   0.157
   85SOL    HW2  659   9.183   1.554   0.041
   85SOL     MW  660   9.231   1.623   0.071
   86SOL     OW  661   9.852   0.980   0.379
   86SOL    HW1  662   9.804   0.902   0.352
   86SOL    HW2  663   9.811   1.052   0.331
   86SOL     MW  664   9.844   0.980   0.372
   87SOL     OW  665   9.794   0.565   1.457
   87SOL    HW1  666   9.842   0.498   1.409
   87SOL    HW2  667   9.704   0.556   1.426
   87SOL     MW  668   9.790   0.558   1.450
   88SOL     OW  669   8.457   1.505   0.972
   88SOL    HW1  670   8.449   1.512   1.067
   88SOL    HW2  671   8.469   1.595   0.942
   88SOL     MW  672   8.457   1.514   0.978
   89SOL     OW  673   9.478   0.988   1.375
   89SOL    HW1  674   9.457   1.082   1.376
   89SOL    HW2  675   9.566   0.983   1.411
   89SOL     MW  676   9.484   0.996   1.379
   90SOL     OW  677   9.242   0.406   1.655
   90SOL    HW1  678   9.333   0.407   1.626
   90SOL    HW2  679   9.206   0.325   1.620
   90SOL     MW  680   9.247   0.399   1.650
   91SOL     OW  681   9.756   0.776   0.743
   91SOL    HW1  682   9.763   0.738   0.656
   91SOL    HW2  683   9.845   0.776   0.777
   91SOL     MW  684   9.765   0.773   0.739
   92SOL     OW  685   9.134   0.170   1.565
   92SOL    HW1  686   9.083   0.106   1.516
   92SOL    HW2  687   9.126   0.143   1.657
   92SOL     MW  688   9.129   0.162   1.569
   93SOL     OW  689   8.833   1.556   0.515
   93SOL    HW1  690   8.830   1.652   0.517
   93SOL    HW2  691   8.763   1.532   0.455
   93SOL     MW  692   8.826   1.563   0.510
   94SOL     OW  693  10.063   3.177   0.514
   94SOL    HW1  694  10.027   3.095   0.548
   94SOL    HW2  695   9.995   0.012   0.458
   94SOL     MW  696  10.054   3.173   0.512
   95SOL     OW  697   8.515   1.601   0.104
   95SOL    HW1  698   8.547   1.682   0.064
   95SOL    HW2  699   8.419   1.608   0.097
   95SOL     MW  700   8.509   1.609   0.100
   96SOL     OW  701   9.351   3.079   1.028
   96SOL    HW1  702   9.331   3.133   0.952
   96SOL    HW2  703   9.442   3.099   1.048
   96SOL     MW  704   9.357   3.086   1.023
   97SOL     OW  705   9.872   1.518   0.053
   97SOL    HW1  706   9.924   1.598   0.055
   97SOL    HW2  707   9.798   1.538   3.196
   97SOL     MW  708   9.870   1.527   0.048
   98SOL     OW  709   9.295   0.535   0.072
   98SOL    HW1  710   9.328   0.454   0.032
   98SOL    HW2  711   9.374   0.583   0.098
   98SOL     MW  712   9.305   0.532   0.071
   99SOL     OW  713   9.923   0.468   0.258
   99SOL    HW1  714   9.986   0.464   0.330
   99SOL    HW2  715   9.840   0.439   0.297
   99SOL     MW  716   9.921   0.465   0.268
  100SOL     OW  717   9.241   0.858   1.404
  100SOL    HW1  718   9.209   0.866   1.494
  100SOL    HW2  719   9.326   0.900   1.405
  100SOL     MW  720   9.246   0.862   1.412
  101SOL     OW  721   9.197   3.103   1.249
  101SOL    HW1  722   9.243   3.093   1.165
  101SOL    HW2  723   9.258   3.153   1.303
  101SOL     MW  724   9.207   3.106   1.246
  102SOL     OW  725   9.948   0.403   1.309
  102SOL    HW1  726   9.903   0.319   1.299
  102SOL    HW2  727   9.933   0.449   1.227
  102SOL     MW  728   9.943   0.399   1.301
  103SOL     OW  729  10.037   1.542   1.207
  103SOL    HW1  730   9.973   1.499   1.264
  103SOL    HW2  731  10.065   1.619   1.257
  103SOL     MW  732  10.034   1.545   1.217
  104SOL     OW  733   9.348   0.048   1.430
  104SOL    HW1  734   9.282   0.093   1.483
  104SOL    HW2  735   9.380   3.177   1.485
  104SOL     MW  736   9.345   0.046   1.439
  105SOL     OW  737   9.754   0.967   1.477
  105SOL    HW1  738   9.832   1.015   1.508
  105SOL    HW2  739   9.734   0.907   1.548
  105SOL     MW  740   9.760   0.966   1.486
  106SOL     OW  741  10.070   0.446   0.484
  106SOL    HW1  742  10.164   0.433   0.466
  106SOL    HW2  743  10.042   0.365   0.526
  106SOL     MW  744  10.076   0.438   0.486
  107SOL     OW  745   8.567   0.088   0.552
  107SOL    HW1  746   8.568   0.025   0.480
  107SOL    HW2  747   8.510   0.049   0.618
  107SOL     MW  748   8.562   0.079   0.551
  108SOL     OW  749   8.374   0.262   0.807
  108SOL    HW1  750   8.409   0.317   0.877
  108SOL    HW2  751   8.406   0.303   0.727
  108SOL     MW  752   8.380   0.271   0.806
  109SOL     OW  753   8.900   1.569   0.209
  109SOL    HW1  754   8.825   1.539   0.260
  109SOL    HW2  755   8.968   1.586   0.274
  109SOL     MW  756   8.900   1.567   0.219
  110SOL     OW  757   9.984   1.089   1.562
  110SOL    HW1  758  10.039   1.014   1.579
  110SOL    HW2  759   9.965   1.126   1.648
  110SOL     MW  760   9.987   1.086   1.571
  111SOL     OW  761   8.915   1.102   3.148
  111SOL    HW1  762   8.863   1.022   3.145
  111SOL    HW2  763   8.896   1.139   0.034
  111SOL     MW  764   8.909   1.098   3.156
  112SOL     OW  765  10.139   0.704   1.048
  112SOL    HW1  766  10.108   0.752   0.972
  112SOL    HW2  767  10.142   0.770   1.118
  112SOL     MW  768  10.137   0.714   1.048
  113SOL     OW  769   9.968   1.465   0.788
  113SOL    HW1  770   9.930   1.519   0.858
  113SOL    HW2  771   9.926   1.380   0.798
  113SOL     MW  772   9.961   1.462   0.795
  114SOL     OW  773   9.659   1.576   3.102
  114SOL    HW1  774   9.581   1.551   3.151
  114SOL    HW2  775   9.650   1.671   3.089
  114SOL     MW  776   9.652   1.582   3.106
  115SOL     OW  777   8.469   0.468   0.975
  115SOL    HW1  778   8.483   0.471   1.069
  115SOL    HW2  779   8.394   0.525   0.959
  115SOL     MW  780   8.464   0.473   0.982
  116SOL     OW  781   9.886   1.270   3.125
  116SOL    HW1  782   9.850   1.305   3.043
  116SOL    HW2  783   9.898   1.347   3.181
  116SOL     MW  784   9.884   1.280   3.122
  117SOL     OW  785   9.003   0.087   3.082
  117SOL    HW1  786   8.934   0.053   3.139
  117SOL    HW2  787   9.083   0.046   3.115
  117SOL     MW  788   9.004   0.080   3.090
  118SOL     OW  789   8.552   1.664   1.461
  118SOL    HW1  790   8.581   1.754   1.446
  118SOL    HW2  791   8.628   1.610   1.439
  118SOL     MW  792   8.561   1.667   1.458
  119SOL     OW  793   9.199   0.850   0.996
  119SOL    HW1  794   9.176   0.758   0.989
  119SOL    HW2  795   9.213   0.879   0.906
  119SOL     MW  796   9.198   0.845   0.988
  120SOL     OW  797   8.550   0.754   0.319
  120SOL    HW1  798   8.609   0.764   0.394
  120SOL    HW2  799   8.497   0.677   0.341
  120SOL     MW  800   8.550   0.748   0.328
  121SOL     OW  801   9.009   3.171   1.432
  121SOL    HW1  802   8.929   0.009   1.394
  121SOL    HW2  803   9.064   3.150   1.357
  121SOL     MW  804   9.007   3.173   1.422
  122SOL     OW  805   8.681   0.498   1.446
  122SOL    HW1  806   8.772   0.526   1.441
  122SOL    HW2  807   8.644   0.551   1.517
  122SOL     MW  808   8.686   0.506   1.452
  123SOL     OW  809   9.089   1.728   0.737
  123SOL    HW1  810   9.169   1.749   0.786
  123SOL    HW2  811   9.109   1.753   0.647
  123SOL     MW  812   9.098   1.732   0.733
  124SOL     OW  813   9.698   3.177   1.655
  124SOL    HW1  814   9.786   0.005   1.630
  124SOL    HW2  815   9.676   0.030   1.731
  124SOL     MW  816   9.704   3.184   1.659
  125SOL     OW  817   8.471   1.375   0.473
  125SOL    HW1  818   8.440   1.412   0.556
  125SOL    HW2  819   8.479   1.282   0.490
  125SOL     MW  820   8.469   1.370   0.482
  126SOL     OW  821   9.248   1.438   0.514
  126SOL    HW1  822   9.338   1.463   0.536
  126SOL    HW2  823   9.203   1.435   0.598
  126SOL     MW  824   9.252   1.440   0.524
  127SOL     OW  825  10.114   0.519   0.742
  127SOL    HW1  826  10.209   0.507   0.742
  127SOL    HW2  827  10.088   0.502   0.652
  127SOL     MW  828  10.121   0.516   0.734
  128SOL     OW  829   9.968   0.650   1.668
  128SOL    HW1  830   9.926   0.583   1.614
  128SOL    HW2  831   9.982   0.609   1.753
  128SOL     MW  832   9.966   0.640   1.671
  129SOL     OW  833   8.903   1.498   3.070
  129SOL    HW1  834   8.900   1.586   3.107
  129SOL    HW2  835   8.962   1.450   3.128
  129SOL     MW  836   8.908   1.502   3.078
  130SOL     OW  837   9.550   0.618   0.828
  130SOL    HW1  838   9.613   0.684   0.801
  130SOL    HW2  839   9.487   0.614   0.756
  130SOL     MW  840   9.550   0.623   0.819
  131SOL     OW  841   8.963   0.874   0.611
  131SOL    HW1  842   8.913   0.875   0.693
  131SOL    HW2  843   9.003   0.960   0.606
  131SOL     MW  844   8.962   0.881   0.618
  132SOL     OW  845   9.739   0.392   0.637
  132SOL    HW1  846   9.739   0.296   0.639
  132SOL    HW2  847   9.741   0.418   0.728
  132SOL     MW  848   9.740   0.386   0.645
  133SOL     OW  849   8.723   0.084   1.506
  133SOL    HW1  850   8.650   0.146   1.497
  133SOL    HW2  851   8.703   0.015   1.443
  133SOL     MW  852   8.715   0.084   1.499
  134SOL     OW  853   9.369   0.586   0.620
  134SOL    HW1  854   9.293   0.546   0.663
  134SOL    HW2  855   9.410   0.514   0.572
  134SOL     MW  856   9.366   0.576   0.619
  135SOL     OW  857   8.651   1.505   0.323
  135SOL    HW1  858   8.602   1.542   0.249
  135SOL    HW2  859   8.587   1.456   0.373
  135SOL     MW  860   8.641   1.504   0.321
  136SOL     OW  861   9.176   1.003   0.345
  136SOL    HW1  862   9.157   0.978   0.255
  136SOL    HW2  863   9.204   0.922   0.387
  136SOL     MW  864   9.177   0.994   0.341
  137SOL     OW  865   9.611   1.485   1.050
  137SOL    HW1  866   9.530   1.529   1.078
  137SOL    HW2  867   9.605   1.398   1.090
  137SOL     MW  868   9.603   1.481   1.057
  138SOL     OW  869   9.732   1.558   0.467
  138SOL    HW1  870   9.719   1.516   0.382
  138SOL    HW2  871   9.827   1.561   0.478
  138SOL     MW  872   9.739   1.554   0.460
  139SOL     OW  873   9.708   0.122   0.615
  139SOL    HW1  874   9.725   0.068   0.693
  139SOL    HW2  875   9.613   0.123   0.607
  139SOL     MW  876   9.701   0.117   0.622
  140SOL     OW  877   8.498   1.120   0.553
  140SOL    HW1  878   8.573   1.129   0.613
  140SOL    HW2  879   8.498   1.027   0.529
  140SOL     MW  880   8.505   1.112   0.556
  141SOL     OW  881   8.903   1.106   1.533
  141SOL    HW1  882   8.961   1.181   1.520
  141SOL    HW2  883   8.896   1.097   1.628
  141SOL     MW  884   8.908   1.112   1.540
  142SOL     OW  885   8.396   1.375   1.659
  142SOL    HW1  886   8.412   1.468   1.676
  142SOL    HW2  887   8.400   1.366   1.564
  142SOL     MW  888   8.398   1.382   1.652
  143SOL     OW  889   9.572   0.191   3.185
  143SOL    HW1  890   9.498   0.244   3.157
  143SOL    HW2  891   9.641   0.254   0.003
  143SOL     MW  892   9.571   0.201   3.184
  144SOL     OW  893   9.224   3.168   3.164
  144SOL    HW1  894   9.278   3.190   3.089
  144SOL    HW2  895   9.200   3.076   3.150
  144SOL     MW  896   9.227   3.161   3.156
  145SOL     OW  897   9.800   0.790   0.033
  145SOL    HW1  898   9.789   0.882   0.011
  145SOL    HW2  899   9.771   0.782   0.123
  145SOL     MW  900   9.796   0.797   0.039
  146SOL     OW  901   9.412   1.248   1.341
  146SOL    HW1  902   9.325   1.242   1.302
  146SOL    HW2  903   9.472   1.253   1.267
  146SOL     MW  904   9.410   1.248   1.331
  147SOL     OW  905   8.778   3.132   1.721
  147SOL    HW1  906   8.819   3.060   1.673
  147SOL    HW2  907   8.760   3.198   1.655
  147SOL     MW  908   8.780   3.132   1.711
  148SOL     OW  909   8.669   1.350   0.902
  148SOL    HW1  910   8.712   1.313   0.979
  148SOL    HW2  911   8.594   1.398   0.937
  148SOL     MW  912   8.666   1.351   0.912
  149SOL     OW  913  10.122   0.854   1.296
  149SOL    HW1  914  10.029   0.836   1.282
  149SOL    HW2  915  10.134   0.847   1.391
  149SOL     MW  916  10.115   0.852   1.303
  150SOL     OW  917   9.157   1.422   1.029
  150SOL    HW1  918   9.144   1.421   0.934
  150SOL    HW2  919   9.113   1.502   1.058
  150SOL     MW  920   9.152   1.429   1.023
  151SOL     OW  921   8.785   0.868   3.119
  151SOL    HW1  922   8.711   0.840   3.174
  151SOL    HW2  923   8.746   0.882   3.033
  151SOL     MW  924   8.775   0.866   3.116
  152SOL     OW  925   9.789   0.183   1.292
  152SOL    HW1  926   9.727   0.172   1.364
  152SOL    HW2  927   9.804   0.094   1.260
  152SOL     MW  928   9.785   0.174   1.296
  153SOL     OW  929   8.365   1.308   1.393
  153SOL    HW1  930   8.409   1.223   1.394
  153SOL    HW2  931   8.274   1.288   1.413
  153SOL     MW  932   8.361   1.299   1.395
  154SOL     OW  933   9.065   3.180   0.524
  154SOL    HW1  934   9.040   0.007   0.435
  154SOL    HW2  935   9.158   3.159   0.517
  154SOL     MW  936   9.071   3.181   0.515
  155SOL     OW  937   9.360   1.568   1.143
  155SOL    HW1  938   9.307   1.501   1.100
  155SOL    HW2  939   9.301   1.643   1.152
  155SOL     MW  940   9.350   1.569   1.140
  156SOL     OW  941   9.514   1.549   0.624
  156SOL    HW1  942   9.585   1.542   0.560
  156SOL    HW2  943   9.532   1.631   0.669
  156SOL     MW  944   9.522   1.556   0.622
  157SOL     OW  945   9.862   1.592   1.004
  157SOL    HW1  946   9.922   1.561   1.072
  157SOL    HW2  947   9.778   1.552   1.027
  157SOL     MW  948   9.860   1.585   1.012
  158SOL     OW  949   8.998   0.550   1.701
  158SOL    HW1  950   9.080   0.501   1.696
  158SOL    HW2  951   8.950   0.507   1.773
  158SOL     MW  952   9.001   0.541   1.707
  159SOL     OW  953   9.859   0.777   1.304
  159SOL    HW1  954   9.813   0.849   1.347
  159SOL    HW2  955   9.841   0.701   1.359
  159SOL     MW  956   9.854   0.777   1.313
  160SOL     OW  957   9.466   3.055   1.575
  160SOL    HW1  958   9.484   2.986   1.511
  160SOL    HW2  959   9.552   3.083   1.606
  160SOL     MW  960   9.475   3.051   1.573
  161SOL     OW  961   8.797   0.384   3.132
  161SOL    HW1  962   8.791   0.321   0.004
  161SOL    HW2  963   8.891   0.396   3.118
  161SOL     MW  964   8.805   0.379   3.137
  162SOL     OW  965   9.858   1.221   0.810
  162SOL    HW1  966   9.884   1.187   0.724
  162SOL    HW2  967   9.772   1.260   0.795
  162SOL     MW  968   9.852   1.221   0.801
  163SOL     OW  969   9.444   0.842   1.133
  163SOL    HW1  970   9.449   0.905   1.205
  163SOL    HW2  971   9.365   0.866   1.085
  163SOL     MW  972   9.437   0.850   1.135
  164SOL     OW  973   9.806   0.344   0.044
  164SOL    HW1  974   9.768   0.417   3.196
  164SOL    HW2  975   9.859   0.385   0.113
  164SOL     MW  976   9.807   0.354   0.046
  165SOL     OW  977   8.804   3.198   0.667
  165SOL    HW1  978   8.877   0.001   0.606
  165SOL    HW2  979   8.733   0.044   0.622
  165SOL     MW  980   8.804   0.002   0.658
  166SOL     OW  981   8.489   1.065   1.384
  166SOL    HW1  982   8.532   1.002   1.443
  166SOL    HW2  983   8.461   1.012   1.310
  166SOL     MW  984   8.491   1.054   1.383
  167SOL     OW  985   9.030   0.356   1.350
  167SOL    HW1  986   9.003   0.442   1.383
  167SOL    HW2  987   9.065   0.310   1.426
  167SOL     MW  988   9.031   0.360   1.359
  168SOL     OW  989   9.520   0.668   0.127
  168SOL    HW1  990   9.578   0.621   0.068
  168SOL    HW2  991   9.510   0.755   0.087
  168SOL     MW  992   9.525   0.672   0.118
  169SOL     OW  993   8.737   0.762   0.519
  169SOL    HW1  994   8.817   0.813   0.533
  169SOL    HW2  995   8.768   0.674   0.496
  169SOL     MW  996   8.747   0.758   0.518
  170SOL     OW  997   9.857   0.105   0.385
  170SOL    HW1  998   9.801   0.086   0.460
  170SOL    HW2  999   9.853   0.200   0.374
  170SOL     MW 1000   9.852   0.111   0.390
  171SOL     OW 1001   9.441   0.135   0.596
  171SOL    HW1 1002   9.400   0.074   0.535
  171SOL    HW2 1003   9.400   0.116   0.680
  171SOL     MW 1004   9.434   0.128   0.598
  172SOL     OW 1005   9.368   1.294   3.063
  172SOL    HW1 1006   9.299   1.333   3.010
  172SOL    HW2 1007   9.337   1.205   3.082
  172SOL     MW 1008   9.359   1.289   3.060
  173SOL     OW 1009  10.127   0.845   1.569
  173SOL    HW1 1010  10.062   0.781   1.600
  173SOL    HW2 1011  10.211   0.804   1.587
  173SOL     MW 1012  10.128   0.836   1.574
  174SOL     OW 1013   8.365   1.448   0.719
  174SOL    HW1 1014   8.393   1.448   0.811
  174SOL    HW2 1015   8.294   1.384   0.715
  174SOL     MW 1016   8.361   1.442   0.727
  175SOL     OW 1017   8.422   0.521   0.364
  175SOL    HW1 1018   8.442   0.461   0.436
  175SOL    HW2 1019   8.416   0.465   0.287
  175SOL     MW 1020   8.423   0.511   0.364
  176SOL     OW 1021   9.814   1.697   1.637
  176SOL    HW1 1022   9.851   1.609   1.626
  176SOL    HW2 1023   9.846   1.726   1.723
  176SOL     MW 1024   9.820   1.691   1.644
  177SOL     OW 1025   9.505   0.398   1.586
  177SOL    HW1 1026   9.539   0.312   1.560
  177SOL    HW2 1027   9.510   0.451   1.507
  177SOL     MW 1028   9.509   0.395   1.577
  178SOL     OW 1029   9.593   0.161   1.483
  178SOL    HW1 1030   9.511   0.126   1.448
  178SOL    HW2 1031   9.626   0.092   1.541
  178SOL     MW 1032   9.589   0.152   1.485
  179SOL     OW 1033   8.893   0.006   0.922
  179SOL    HW1 1034   8.820   3.184   0.980
  179SOL    HW2 1035   8.857   3.196   0.834
  179SOL     MW 1036   8.883   0.003   0.919
  180SOL     OW 1037   8.978   1.558   1.369
  180SOL    HW1 1038   8.885   1.546   1.352
  180SOL    HW2 1039   9.007   1.475   1.406
  180SOL     MW 1040   8.973   1.549   1.370
  181SOL     OW 1041   9.989   0.321   0.882
  181SOL    HW1 1042   9.902   0.358   0.895
  181SOL    HW2 1043  10.039   0.391   0.841
  181SOL     MW 1044   9.986   0.330   0.880
  182SOL     OW 1045   9.745   0.790   1.703
  182SOL    HW1 1046   9.824   0.744   1.678
  182SOL    HW2 1047   9.760   0.814   1.795
  182SOL     MW 1048   9.753   0.788   1.709
  183SOL     OW 1049   9.703   3.158   3.168
  183SOL    HW1 1050   9.779   3.191   0.016
  183SOL    HW2 1051   9.640   0.029   3.172
  183SOL     MW 1052   9.705   3.167   3.173
  184SOL     OW 1053   9.717   0.761   0.292
  184SOL    HW1 1054   9.637   0.723   0.256
  184SOL    HW2 1055   9.740   0.704   0.366
  184SOL     MW 1056   9.712   0.753   0.296
  185SOL     OW 1057   9.106   0.165   0.930
  185SOL    HW1 1058   9.077   0.233   0.991
  185SOL    HW2 1059   9.036   0.099   0.935
  185SOL     MW 1060   9.097   0.165   0.936
  186SOL     OW 1061   9.080   1.663   1.143
  186SOL    HW1 1062   9.025   1.740   1.129
  186SOL    HW2 1063   9.048   1.624   1.224
  186SOL     MW 1064   9.073   1.667   1.149
  187SOL     OW 1065   9.812   1.176   1.273
  187SOL    HW1 1066   9.797   1.103   1.334
  187SOL    HW2 1067   9.850   1.135   1.196
  187SOL     MW 1068   9.814   1.166   1.272
  188SOL     OW 1069   8.903   0.871   1.403
  188SOL    HW1 1070   8.951   0.892   1.323
  188SOL    HW2 1071   8.907   0.950   1.456
  188SOL     MW 1072   8.908   0.880   1.401
  189SOL     OW 1073   9.083   0.967   1.213
  189SOL    HW1 1074   9.141   0.931   1.279
  189SOL    HW2 1075   9.113   0.928   1.131
  189SOL     MW 1076   9.091   0.961   1.211
  190SOL     OW 1077   9.078   0.342   3.117
  190SOL    HW1 1078   9.172   0.340   3.104
  190SOL    HW2 1079   9.048   0.253   3.098
  190SOL     MW 1080   9.083   0.334   3.114
  191SOL     OW 1081   9.845   1.436   1.360
  191SOL    HW1 1082   9.883   1.434   1.448
  191SOL    HW2 1083   9.837   1.344   1.335
  191SOL     MW 1084   9.848   1.428   1.365
  192SOL     OW 1085   9.602   3.175   1.055
  192SOL    HW1 1086   9.652   3.176   0.973
  192SOL    HW2 1087   9.668   3.159   1.123
  192SOL     MW 1088   9.612   3.174   1.054
  193SOL     OW 1089   8.560   0.797   0.048
  193SOL    HW1 1090   8.508   0.868   0.010
  193SOL    HW2 1091   8.542   0.802   0.142
  193SOL     MW 1092   8.554   0.803   0.053
  194SOL     OW 1093   9.462   1.474   0.051
  194SOL    HW1 1094   9.431   1.405   3.192
  194SOL    HW2 1095   9.387   1.532   0.060
  194SOL     MW 1096   9.452   1.473   0.047
  195SOL     OW 1097   8.728   1.579   0.767
  195SOL    HW1 1098   8.724   1.494   0.811
  195SOL    HW2 1099   8.772   1.561   0.684
  195SOL     MW 1100   8.731   1.570   0.763
  196SOL     OW 1101   8.458   1.518   1.245
  196SOL    HW1 1102   8.421   1.443   1.290
  196SOL    HW2 1103   8.466   1.585   1.313
  196SOL     MW 1104   8.456   1.518   1.255
  197SOL     OW 1105   9.346   0.081   0.844
  197SOL    HW1 1106   9.262   0.116   0.875
  197SOL    HW2 1107   9.411   0.123   0.900
  197SOL     MW 1108   9.344   0.088   0.852
  198SOL     OW 1109   8.932   0.597   1.447
  198SOL    HW1 1110   8.933   0.691   1.430
  198SOL    HW2 1111   8.956   0.589   1.540
  198SOL     MW 1112   8.934   0.605   1.454
  199SOL     OW 1113   9.822   3.122   1.215
  199SOL    HW1 1114   9.817   3.047   1.156
  199SOL    HW2 1115   9.911   3.118   1.251
  199SOL     MW 1116   9.830   3.115   1.213
  200SOL     OW 1117   9.957   1.464   1.604
  200SOL    HW1 1118   9.938   1.396   1.669
  200SOL    HW2 1119  10.031   1.512   1.641
  200SOL     MW 1120   9.962   1.462   1.613
  201SOL     OW 1121   8.824   0.330   0.595
  201SOL    HW1 1122   8.903   0.287   0.627
  201SOL    HW2 1123   8.780   0.359   0.675
  201SOL     MW 1124   8.827   0.329   0.605
  202SOL     OW 1125   8.459   1.645   1.717
  202SOL    HW1 1126   8.498   1.649   1.629
  202SOL    HW2 1127   8.432   1.735   1.735
  202SOL     MW 1128   8.460   1.653   1.711
  203SOL     OW 1129   9.107   1.453   0.756
  203SOL    HW1 1130   9.029   1.405   0.729
  203SOL    HW2 1131   9.082   1.545   0.750
  203SOL     MW 1132   9.098   1.457   0.753
  204SOL     OW 1133   8.567   3.095   0.354
  204SOL    HW1 1134   8.520   3.112   0.273
  204SOL    HW2 1135   8.512   3.032   0.401
  204SOL     MW 1136   8.558   3.091   0.351
  205SOL     OW 1137   8.352   0.495   1.474
  205SOL    HW1 1138   8.392   0.509   1.389
  205SOL    HW2 1139   8.258   0.495   1.456
  205SOL     MW 1140   8.347   0.496   1.465
  206SOL     OW 1141  10.081   1.334   0.414
  206SOL    HW1 1142  10.026   1.268   0.455
  206SOL    HW2 1143  10.168   1.318   0.449
  206SOL     MW 1144  10.084   1.327   0.421
  207SOL     OW 1145   9.328   3.150   0.431
  207SOL    HW1 1146   9.403   3.089   0.428
  207SOL    HW2 1147   9.305   3.164   0.339
  207SOL     MW 1148   9.333   3.146   0.423
  208SOL     OW 1149  10.029   0.769   0.797
  208SOL    HW1 1150  10.041   0.808   0.711
  208SOL    HW2 1151  10.056   0.677   0.786
  208SOL     MW 1152  10.033   0.764   0.789
  209SOL     OW 1153   8.492   0.536   1.246
  209SOL    HW1 1154   8.501   0.631   1.236
  209SOL    HW2 1155   8.569   0.510   1.297
  209SOL     MW 1156   8.500   0.543   1.250
  210SOL     OW 1157  10.045   0.824   0.524
  210SOL    HW1 1158  10.124   0.802   0.474
  210SOL    HW2 1159   9.990   0.870   0.461
  210SOL     MW 1160  10.047   0.827   0.514
  211SOL     OW 1161   8.538   0.645   1.624
  211SOL    HW1 1162   8.522   0.651   1.718
  211SOL    HW2 1163   8.461   0.600   1.589
  211SOL     MW 1164   8.529   0.641   1.630
  212SOL     OW 1165   8.692   3.161   1.100
  212SOL    HW1 1166   8.626   0.025   1.128
  212SOL    HW2 1167   8.720   3.118   1.181
  212SOL     MW 1168   8.688   3.163   1.110
  213SOL     OW 1169   8.749   0.604   0.202
  213SOL    HW1 1170   8.675   0.655   0.234
  213SOL    HW2 1171   8.787   0.565   0.282
  213SOL     MW 1172   8.746   0.605   0.212
  214SOL     OW 1173   9.537   0.533   1.358
  214SOL    HW1 1174   9.558   0.463   1.296
  214SOL    HW2 1175   9.458   0.574   1.323
  214SOL     MW 1176   9.532   0.530   1.349
  215SOL     OW 1177   8.496   0.357   0.582
  215SOL    HW1 1178   8.565   0.399   0.634
  215SOL    HW2 1179   8.532   0.271   0.560
  215SOL     MW 1180   8.505   0.353   0.585
  216SOL     OW 1181   9.991   1.759   0.030
  216SOL    HW1 1182  10.032   1.801   3.154
  216SOL    HW2 1183   9.924   1.822   0.059
  216SOL     MW 1184   9.988   1.769   0.026
  217SOL     OW 1185   9.142   0.570   1.026
  217SOL    HW1 1186   9.084   0.498   1.050
  217SOL    HW2 1187   9.203   0.578   1.099
  217SOL     MW 1188   9.142   0.564   1.035
  218SOL     OW 1189   9.851   1.723   1.371
  218SOL    HW1 1190   9.823   1.633   1.353
  218SOL    HW2 1191   9.825   1.738   1.462
  218SOL     MW 1192   9.846   1.716   1.378
  219SOL     OW 1193   8.443   0.999   3.104
  219SOL    HW1 1194   8.449   1.078   3.157
  219SOL    HW2 1195   8.354   0.999   3.070
  219SOL     MW 1196   8.436   1.006   3.106
  220SOL     OW 1197   9.756   3.172   0.834
  220SOL    HW1 1198   9.843   3.196   0.866
  220SOL    HW2 1199   9.763   3.079   0.814
  220SOL     MW 1200   9.764   3.166   0.835
  221SOL     OW 1201   9.806   0.633   0.517
  221SOL    HW1 1202   9.902   0.641   0.510
  221SOL    HW2 1203   9.792   0.547   0.555
  221SOL     MW 1204   9.814   0.626   0.519
  222SOL     OW 1205   8.880   1.737   0.003
  222SOL    HW1 1206   8.791   1.771   0.005
  222SOL    HW2 1207   8.889   1.685   0.083
  222SOL     MW 1208   8.873   1.735   0.010
  223SOL     OW 1209   9.312   0.640   1.245
  223SOL    HW1 1210   9.368   0.698   1.194
  223SOL    HW2 1211   9.270   0.698   1.309
  223SOL     MW 1212   9.313   0.651   1.246
  224SOL     OW 1213   8.635   0.853   1.475
  224SOL    HW1 1214   8.613   0.785   1.538
  224SOL    HW2 1215   8.731   0.847   1.466
  224SOL     MW 1216   8.642   0.847   1.480
  225SOL     OW 1217   9.677   0.557   3.138
  225SOL    HW1 1218   9.614   0.562   3.066
  225SOL    HW2 1219   9.722   0.642   3.137
  225SOL     MW 1220   9.675   0.565   3.131
  226SOL     OW 1221   8.916   1.305   0.629
  226SOL    HW1 1222   8.984   1.245   0.597
  226SOL    HW2 1223   8.908   1.371   0.560
  226SOL     MW 1224   8.921   1.305   0.620
  227SOL     OW 1225   9.153   0.482   0.734
  227SOL    HW1 1226   9.144   0.491   0.829
  227SOL    HW2 1227   9.122   0.393   0.715
  227SOL     MW 1228   9.149   0.475   0.741
  228SOL     OW 1229  10.080   3.091   1.291
  228SOL    HW1 1230  10.141   3.104   1.364
  228SOL    HW2 1231  10.131   3.111   1.213
  228SOL     MW 1232  10.090   3.094   1.291
  229SOL     OW 1233   9.270   0.947   0.743
  229SOL    HW1 1234   9.365   0.954   0.752
  229SOL    HW2 1235   9.257   0.888   0.668
  229SOL     MW 1236   9.277   0.943   0.737
  230SOL     OW 1237   9.106   0.957   0.084
  230SOL    HW1 1238   9.064   0.871   0.085
  230SOL    HW2 1239   9.047   1.013   0.034
  230SOL     MW 1240   9.097   0.954   0.080
  231SOL     OW 1241   9.631   1.371   0.799
  231SOL    HW1 1242   9.587   1.426   0.735
  231SOL    HW2 1243   9.620   1.417   0.882
  231SOL     MW 1244   9.626   1.380   0.801
  232SOL     OW 1245   8.664   0.465   0.779
  232SOL    HW1 1246   8.604   0.461   0.853
  232SOL    HW2 1247   8.706   0.551   0.786
  232SOL     MW 1248   8.663   0.473   0.786
  233SOL     OW 1249   9.658   1.351   1.597
  233SOL    HW1 1250   9.611   1.415   1.651
  233SOL    HW2 1251   9.653   1.386   1.508
  233SOL     MW 1252   9.653   1.360   1.594
  234SOL     OW 1253   9.893   0.088   0.111
  234SOL    HW1 1254   9.878   0.085   0.205
  234SOL    HW2 1255   9.867   0.176   0.084
  234SOL     MW 1256   9.890   0.095   0.117
  235SOL     OW 1257   9.094   0.568   0.255
  235SOL    HW1 1258   9.045   0.628   0.199
  235SOL    HW2 1259   9.177   0.555   0.210
  235SOL     MW 1260   9.097   0.572   0.246
  236SOL     OW 1261   8.529   0.286   1.525
  236SOL    HW1 1262   8.451   0.338   1.505
  236SOL    HW2 1263   8.603   0.343   1.502
  236SOL     MW 1264   8.529   0.296   1.521
  237SOL     OW 1265   9.145   1.617   0.331
  237SOL    HW1 1266   9.144   1.697   0.384
  237SOL    HW2 1267   9.182   1.550   0.389
  237SOL     MW 1268   9.148   1.618   0.341
  238SOL     OW 1269   9.999   0.052   0.918
  238SOL    HW1 1270  10.074   0.025   0.971
  238SOL    HW2 1271  10.002   0.148   0.921
  238SOL     MW 1272  10.006   0.059   0.923
  239SOL     OW 1273   8.443   3.090   0.993
  239SOL    HW1 1274   8.430   3.124   0.905
  239SOL    HW2 1275   8.538   3.094   1.007
  239SOL     MW 1276   8.451   3.094   0.987
  240SOL     OW 1277   9.968   1.133   0.571
  240SOL    HW1 1278   9.920   1.078   0.510
  240SOL    HW2 1279  10.045   1.082   0.594
  240SOL     MW 1280   9.971   1.124   0.568
  241SOL     OW 1281   8.720   1.215   1.364
  241SOL    HW1 1282   8.639   1.165   1.376
  241SOL    HW2 1283   8.781   1.177   1.426
  241SOL     MW 1284   8.718   1.207   1.370
  242SOL     OW 1285   8.639   3.154   3.147
  242SOL    HW1 1286   8.581   0.028   3.166
  242SOL    HW2 1287   8.647   3.155   3.051
  242SOL     MW 1288   8.635   3.161   3.140
  243SOL     OW 1289   9.755   0.461   0.906
  243SOL    HW1 1290   9.673   0.509   0.891
  243SOL    HW2 1291   9.796   0.505   0.980
  243SOL     MW 1292   9.751   0.469   0.911
  244SOL     OW 1293   8.479   0.176   3.166
  244SOL    HW1 1294   8.448   0.250   0.018
  244SOL    HW2 1295   8.523   0.215   3.091
  244SOL     MW 1296   8.480   0.186   3.164
  245SOL     OW 1297   8.454   1.220   0.053
  245SOL    HW1 1298   8.463   1.237   0.147
  245SOL    HW2 1299   8.512   1.284   0.011
  245SOL     MW 1300   8.460   1.227   0.058
  246SOL     OW 1301   9.682   1.429   0.228
  246SOL    HW1 1302   9.754   1.458   0.173
  246SOL    HW2 1303   9.604   1.443   0.174
  246SOL     MW 1304   9.681   1.433   0.218
  247SOL     OW 1305   9.994   0.613   1.950
  247SOL    HW1 1306  10.065   0.617   2.015
  247SOL    HW2 1307   9.950   0.699   1.958
  247SOL     MW 1308   9.996   0.621   1.957
  248SOL     OW 1309   8.920   0.916   2.152
  248SOL    HW1 1310   9.010   0.934   2.179
  248SOL    HW2 1311   8.892   0.997   2.109
  248SOL     MW 1312   8.925   0.925   2.151
  249SOL     OW 1313   9.930   1.556   2.383
  249SOL    HW1 1314   9.954   1.522   2.469
  249SOL    HW2 1315   9.959   1.489   2.321
  249SOL     MW 1316   9.935   1.547   2.385
  250SOL     OW 1317   9.746   1.043   2.828
  250SOL    HW1 1318   9.733   0.962   2.778
  250SOL    HW2 1319   9.802   1.097   2.772
  250SOL     MW 1320   9.750   1.041   2.818
  251SOL     OW 1321   9.149   0.309   2.235
  251SOL    HW1 1322   9.147   0.404   2.251
  251SOL    HW2 1323   9.132   0.300   2.141
  251SOL     MW 1324   9.147   0.317   2.228
  252SOL     OW 1325   8.530   0.346   2.271
  252SOL    HW1 1326   8.616   0.358   2.231
  252SOL    HW2 1327   8.530   0.255   2.299
  252SOL     MW 1328   8.538   0.339   2.270
  253SOL     OW 1329   8.923   0.183   2.289
  253SOL    HW1 1330   9.004   0.233   2.283
  253SOL    HW2 1331   8.858   0.239   2.245
  253SOL     MW 1332   8.924   0.193   2.285
  254SOL     OW 1333   9.099   1.108   2.399
  254SOL    HW1 1334   9.158   1.181   2.419
  254SOL    HW2 1335   9.142   1.059   2.330
  254SOL     MW 1336   9.108   1.110   2.395
  255SOL     OW 1337   9.068   1.414   0.066
  255SOL    HW1 1338   9.006   1.461   0.122
  255SOL    HW2 1339   9.108   1.350   0.124
  255SOL     MW 1340   9.066   1.413   0.076
  256SOL     OW 1341   8.905   0.556   2.343
  256SOL    HW1 1342   8.913   0.516   2.430
  256SOL    HW2 1343   8.995   0.571   2.315
  256SOL     MW 1344   8.914   0.554   2.348
  257SOL     OW 1345   8.488   1.675   2.596
  257SOL    HW1 1346   8.577   1.638   2.597
  257SOL    HW2 1347   8.430   1.598   2.594
  257SOL     MW 1348   8.491   1.664   2.596
  258SOL     OW 1349   9.256   0.811   2.428
  258SOL    HW1 1350   9.174   0.820   2.477
  258SOL    HW2 1351   9.297   0.733   2.466
  258SOL     MW 1352   9.252   0.805   2.436
  259SOL     OW 1353   8.611   1.410   3.138
  259SOL    HW1 1354   8.582   1.481   3.195
  259SOL    HW2 1355   8.707   1.416   3.139
  259SOL     MW 1356   8.617   1.417   3.143
  260SOL     OW 1357   9.244   1.303   2.134
  260SOL    HW1 1358   9.251   1.316   2.229
  260SOL    HW2 1359   9.150   1.288   2.119
  260SOL     MW 1360   9.236   1.303   2.142
  261SOL     OW 1361   8.586   1.128   2.054
  261SOL    HW1 1362   8.529   1.177   1.995
  261SOL    HW2 1363   8.569   1.036   2.032
  261SOL     MW 1364   8.579   1.124   2.046
  262SOL     OW 1365   9.215   1.666   2.048
  262SOL    HW1 1366   9.170   1.621   2.119
  262SOL    HW2 1367   9.166   1.644   1.969
  262SOL     MW 1368   9.207   1.660   2.048
  263SOL     OW 1369   9.891   0.956   2.235
  263SOL    HW1 1370   9.799   0.979   2.222
  263SOL    HW2 1371   9.919   0.922   2.150
  263SOL     MW 1372   9.885   0.955   2.226
  264SOL     OW 1373   8.519   1.439   2.878
  264SOL    HW1 1374   8.532   1.417   2.970
  264SOL    HW2 1375   8.507   1.534   2.877
  264SOL     MW 1376   8.519   1.445   2.886
  265SOL     OW 1377   9.728   0.816   2.671
  265SOL    HW1 1378   9.724   0.790   2.579
  265SOL    HW2 1379   9.815   0.789   2.700
  265SOL     MW 1380   9.735   0.811   2.665
  266SOL     OW 1381   9.428   0.504   2.252
  266SOL    HW1 1382   9.465   0.519   2.165
  266SOL    HW2 1383   9.433   0.409   2.264
  266SOL     MW 1384   9.432   0.497   2.245
  267SOL     OW 1385   8.814   1.493   2.358
  267SOL    HW1 1386   8.804   1.588   2.350
  267SOL    HW2 1387   8.765   1.457   2.284
  267SOL     MW 1388   8.809   1.498   2.351
  268SOL     OW 1389  10.199   3.033   2.367
  268SOL    HW1 1390  10.269   2.973   2.392
  268SOL    HW2 1391  10.118   2.987   2.391
  268SOL     MW 1392  10.198   3.024   2.371
  269SOL     OW 1393   8.489   1.520   1.968
  269SOL    HW1 1394   8.467   1.582   2.037
  269SOL    HW2 1395   8.482   1.569   1.887
  269SOL     MW 1396   8.487   1.530   1.967
  270SOL     OW 1397   9.314   0.095   2.933
  270SOL    HW1 1398   9.235   0.083   2.880
  270SOL    HW2 1399   9.383   0.051   2.885
  270SOL     MW 1400   9.313   0.090   2.924
  271SOL     OW 1401   9.790   1.488   1.899
  271SOL    HW1 1402   9.844   1.567   1.902
  271SOL    HW2 1403   9.713   1.513   1.848
  271SOL     MW 1404   9.788   1.497   1.895
  272SOL     OW 1405   9.258   0.514   1.901
  272SOL    HW1 1406   9.265   0.483   1.810
  272SOL    HW2 1407   9.349   0.519   1.931
  272SOL     MW 1408   9.267   0.512   1.895
  273SOL     OW 1409   9.832   0.485   2.131
  273SOL    HW1 1410   9.897   0.519   2.070
  273SOL    HW2 1411   9.774   0.560   2.147
  273SOL     MW 1412   9.832   0.495   2.127
  274SOL     OW 1413   9.468   0.540   2.958
  274SOL    HW1 1414   9.498   0.562   2.870
  274SOL    HW2 1415   9.385   0.586   2.967
  274SOL     MW 1416   9.463   0.546   2.951
  275SOL     OW 1417  10.106   0.443   2.371
  275SOL    HW1 1418  10.177   0.380   2.364
  275SOL    HW2 1419  10.026   0.391   2.369
  275SOL     MW 1420  10.105   0.433   2.370
  276SOL     OW 1421   8.543   0.074   2.338
  276SOL    HW1 1422   8.550   0.029   2.254
  276SOL    HW2 1423   8.484   0.020   2.390
  276SOL     MW 1424   8.538   0.065   2.335
  277SOL     OW 1425   8.931   1.502   2.034
  277SOL    HW1 1426   8.848   1.460   2.057
  277SOL    HW2 1427   8.978   1.508   2.118
  277SOL     MW 1428   8.928   1.499   2.044
  278SOL     OW 1429  10.164   0.749   2.907
  278SOL    HW1 1430  10.085   0.765   2.854
  278SOL    HW2 1431  10.145   0.791   2.990
  278SOL     MW 1432  10.155   0.754   2.909
  279SOL     OW 1433  10.013   1.437   2.614
  279SOL    HW1 1434   9.997   1.489   2.693
  279SOL    HW2 1435   9.962   1.357   2.627
  279SOL     MW 1436  10.007   1.435   2.622
  280SOL     OW 1437   9.555   1.537   1.771
  280SOL    HW1 1438   9.491   1.514   1.839
  280SOL    HW2 1439   9.540   1.630   1.755
  280SOL     MW 1440   9.548   1.543   1.776
  281SOL     OW 1441   8.577   0.523   2.877
  281SOL    HW1 1442   8.573   0.537   2.972
  281SOL    HW2 1443   8.505   0.577   2.842
  281SOL     MW 1444   8.570   0.529   2.882
  282SOL     OW 1445   9.847   1.260   1.764
  282SOL    HW1 1446   9.780   1.280   1.699
  282SOL    HW2 1447   9.839   1.330   1.829
  282SOL     MW 1448   9.841   1.268   1.764
  283SOL     OW 1449   9.125   0.086   1.822
  283SOL    HW1 1450   9.055   0.038   1.868
  283SOL    HW2 1451   9.194   0.021   1.808
  283SOL     MW 1452   9.125   0.076   1.825
  284SOL     OW 1453   8.641   0.945   2.907
  284SOL    HW1 1454   8.694   1.023   2.891
  284SOL    HW2 1455   8.572   0.976   2.966
  284SOL     MW 1456   8.639   0.955   2.911
  285SOL     OW 1457   9.213   0.873   2.907
  285SOL    HW1 1458   9.209   0.785   2.944
  285SOL    HW2 1459   9.164   0.866   2.824
  285SOL     MW 1460   9.208   0.865   2.903
  286SOL     OW 1461   8.531   0.840   2.290
  286SOL    HW1 1462   8.621   0.831   2.322
  286SOL    HW2 1463   8.492   0.754   2.304
  286SOL     MW 1464   8.535   0.832   2.294
  287SOL     OW 1465   9.049   1.662   2.637
  287SOL    HW1 1466   9.097   1.714   2.701
  287SOL    HW2 1467   9.056   1.713   2.555
  287SOL     MW 1468   9.054   1.671   2.635
  288SOL     OW 1469   8.480   1.382   2.340
  288SOL    HW1 1470   8.470   1.395   2.434
  288SOL    HW2 1471   8.461   1.289   2.327
  288SOL     MW 1472   8.477   1.374   2.347
  289SOL     OW 1473   9.223   1.361   2.413
  289SOL    HW1 1474   9.315   1.380   2.432
  289SOL    HW2 1475   9.179   1.372   2.498
  289SOL     MW 1476   9.227   1.364   2.423
  290SOL     OW 1477  10.113   0.509   2.637
  290SOL    HW1 1478  10.203   0.538   2.653
  290SOL    HW2 1479  10.110   0.491   2.543
  290SOL     MW 1480  10.121   0.510   2.630
  291SOL     OW 1481   9.089   1.577   1.823
  291SOL    HW1 1482   9.038   1.624   1.757
  291SOL    HW2 1483   9.023   1.540   1.882
  291SOL     MW 1484   9.079   1.577   1.823
  292SOL     OW 1485   9.353   0.324   3.081
  292SOL    HW1 1486   9.345   0.246   3.026
  292SOL    HW2 1487   9.396   0.388   3.025
  292SOL     MW 1488   9.356   0.323   3.071
  293SOL     OW 1489   9.560   0.610   2.713
  293SOL    HW1 1490   9.606   0.693   2.707
  293SOL    HW2 1491   9.493   0.615   2.645
  293SOL     MW 1492   9.558   0.618   2.706
  294SOL     OW 1493   9.013   0.878   2.530
  294SOL    HW1 1494   8.933   0.855   2.483
  294SOL    HW2 1495   9.033   0.967   2.502
  294SOL     MW 1496   9.008   0.884   2.524
  295SOL     OW 1497   9.852   0.337   2.358
  295SOL    HW1 1498   9.836   0.393   2.282
  295SOL    HW2 1499   9.796   0.372   2.427
  295SOL     MW 1500   9.846   0.345   2.357
  296SOL     OW 1501   9.381   0.586   2.511
  296SOL    HW1 1502   9.314   0.522   2.532
  296SOL    HW2 1503   9.413   0.560   2.425
  296SOL     MW 1504   9.378   0.578   2.505
  297SOL     OW 1505   8.675   1.417   2.140
  297SOL    HW1 1506   8.622   1.450   2.067
  297SOL    HW2 1507   8.611   1.383   2.203
  297SOL     MW 1508   8.664   1.417   2.139
  298SOL     OW 1509   9.187   0.935   2.206
  298SOL    HW1 1510   9.187   0.872   2.135
  298SOL    HW2 1511   9.219   0.886   2.282
  298SOL     MW 1512   9.190   0.925   2.206
  299SOL     OW 1513   9.764   1.410   2.924
  299SOL    HW1 1514   9.720   1.471   2.983
  299SOL    HW2 1515   9.695   1.350   2.895
  299SOL     MW 1516   9.754   1.410   2.927
  300SOL     OW 1517   9.660   1.593   2.372
  300SOL    HW1 1518   9.648   1.567   2.281
  300SOL    HW2 1519   9.755   1.587   2.387
  300SOL     MW 1520   9.667   1.590   2.365
  301SOL     OW 1521   8.451   1.113   2.284
  301SOL    HW1 1522   8.467   1.022   2.311
  301SOL    HW2 1523   8.502   1.124   2.204
  301SOL     MW 1524   8.457   1.106   2.279
  302SOL     OW 1525   9.280   3.076   1.770
  302SOL    HW1 1526   9.349   3.060   1.706
  302SOL    HW2 1527   9.233   2.993   1.776
  302SOL     MW 1528   9.282   3.067   1.764
  303SOL     OW 1529   9.834   0.839   1.971
  303SOL    HW1 1530   9.796   0.925   1.953
  303SOL    HW2 1531   9.779   0.803   2.040
  303SOL     MW 1532   9.825   0.844   1.975
  304SOL     OW 1533   8.785   1.416   2.842
  304SOL    HW1 1534   8.824   1.455   2.920
  304SOL    HW2 1535   8.691   1.427   2.854
  304SOL     MW 1536   8.780   1.420   2.850
  305SOL     OW 1537   9.165   1.406   2.913
  305SOL    HW1 1538   9.151   1.391   2.820
  305SOL    HW2 1539   9.082   1.439   2.946
  305SOL     MW 1540   9.156   1.407   2.908
  306SOL     OW 1541   9.475   0.823   2.059
  306SOL    HW1 1542   9.381   0.840   2.053
  306SOL    HW2 1543   9.513   0.904   2.092
  306SOL     MW 1544   9.470   0.832   2.061
  307SOL     OW 1545  10.119   3.162   2.964
  307SOL    HW1 1546  10.067   3.181   2.886
  307SOL    HW2 1547  10.198   3.119   2.930
  307SOL     MW 1548  10.121   3.160   2.954
  308SOL     OW 1549   9.108   3.188   2.361
  308SOL    HW1 1550   9.047   0.046   2.317
  308SOL    HW2 1551   9.185   3.186   2.304
  308SOL     MW 1552   9.110   3.193   2.352
  309SOL     OW 1553   8.853   1.152   2.035
  309SOL    HW1 1554   8.887   1.207   2.106
  309SOL    HW2 1555   8.758   1.156   2.046
  309SOL     MW 1556   8.848   1.157   2.043
  310SOL     OW 1557   9.483   1.405   2.457
  310SOL    HW1 1558   9.546   1.476   2.442
  310SOL    HW2 1559   9.524   1.351   2.525
  310SOL     MW 1560   9.492   1.407   2.462
  311SOL     OW 1561   9.957   1.571   2.841
  311SOL    HW1 1562  10.026   1.561   2.907
  311SOL    HW2 1563   9.888   1.511   2.868
  311SOL     MW 1564   9.957   1.565   2.849
  312SOL     OW 1565   9.855   1.211   2.631
  312SOL    HW1 1566   9.895   1.180   2.550
  312SOL    HW2 1567   9.763   1.223   2.610
  312SOL     MW 1568   9.851   1.210   2.622
  313SOL     OW 1569   9.297   1.035   3.105
  313SOL    HW1 1570   9.235   1.008   3.173
  313SOL    HW2 1571   9.270   0.986   3.027
  313SOL     MW 1572   9.289   1.028   3.104
  314SOL     OW 1573   9.779   0.316   1.930
  314SOL    HW1 1574   9.752   0.381   1.864
  314SOL    HW2 1575   9.791   0.367   2.010
  314SOL     MW 1576   9.778   0.327   1.931
  315SOL     OW 1577   8.788   3.197   2.429
  315SOL    HW1 1578   8.840   0.066   2.389
  315SOL    HW2 1579   8.697   0.019   2.407
  315SOL     MW 1580   8.784   0.005   2.423
  316SOL     OW 1581   9.504   0.560   1.991
  316SOL    HW1 1582   9.567   0.545   1.920
  316SOL    HW2 1583   9.503   0.655   2.003
  316SOL     MW 1584   9.510   0.567   1.986
  317SOL     OW 1585   8.797   0.808   2.366
  317SOL    HW1 1586   8.835   0.848   2.287
  317SOL    HW2 1587   8.824   0.716   2.360
  317SOL     MW 1588   8.803   0.803   2.358
  318SOL     OW 1589   9.798   0.078   2.284
  318SOL    HW1 1590   9.824   0.028   2.361
  318SOL    HW2 1591   9.812   0.169   2.310
  318SOL     MW 1592   9.802   0.082   2.293
  319SOL     OW 1593   9.433   0.018   2.509
  319SOL    HW1 1594   9.480   0.097   2.482
  319SOL    HW2 1595   9.351   0.051   2.547
  319SOL     MW 1596   9.430   0.028   2.510
  320SOL     OW 1597   9.231   1.424   1.634
  320SOL    HW1 1598   9.300   1.481   1.599
  320SOL    HW2 1599   9.194   1.474   1.707
  320SOL     MW 1600   9.234   1.434   1.637
  321SOL     OW 1601   8.406   1.411   2.617
  321SOL    HW1 1602   8.454   1.410   2.700
  321SOL    HW2 1603   8.339   1.344   2.627
  321SOL     MW 1604   8.404   1.405   2.625
  322SOL     OW 1605   8.420   0.592   2.313
  322SOL    HW1 1606   8.328   0.571   2.299
  322SOL    HW2 1607   8.465   0.508   2.303
  322SOL     MW 1608   8.416   0.583   2.311
  323SOL     OW 1609   9.606   1.260   2.262
  323SOL    HW1 1610   9.556   1.297   2.335
  323SOL    HW2 1611   9.628   1.336   2.208
  323SOL     MW 1612   9.603   1.270   2.264
  324SOL     OW 1613   8.636   0.263   2.952
  324SOL    HW1 1614   8.703   0.296   3.012
  324SOL    HW2 1615   8.606   0.341   2.904
  324SOL     MW 1616   8.639   0.273   2.953
  325SOL     OW 1617   8.852   3.138   2.689
  325SOL    HW1 1618   8.873   3.045   2.687
  325SOL    HW2 1619   8.829   3.159   2.598
  325SOL     MW 1620   8.852   3.132   2.681
  326SOL     OW 1621   9.976   0.298   2.768
  326SOL    HW1 1622   9.984   0.325   2.860
  326SOL    HW2 1623  10.023   0.366   2.720
  326SOL     MW 1624   9.981   0.307   2.772
  327SOL     OW 1625   9.869   3.062   1.856
  327SOL    HW1 1626   9.891   3.136   1.912
  327SOL    HW2 1627   9.803   3.096   1.796
  327SOL     MW 1628   9.865   3.072   1.856
  328SOL     OW 1629   9.701   0.716   2.175
  328SOL    HW1 1630   9.611   0.746   2.163
  328SOL    HW2 1631   9.712   0.710   2.270
  328SOL     MW 1632   9.694   0.718   2.183
  329SOL     OW 1633   8.818   1.154   2.892
  329SOL    HW1 1634   8.867   1.146   2.974
  329SOL    HW2 1635   8.806   1.248   2.881
  329SOL     MW 1636   8.821   1.162   2.899
  330SOL     OW 1637   9.060   0.065   2.813
  330SOL    HW1 1638   9.031   0.075   2.904
  330SOL    HW2 1639   8.988   0.018   2.771
  330SOL     MW 1640   9.051   0.062   2.817
  331SOL     OW 1641   9.101   0.308   1.973
  331SOL    HW1 1642   9.164   0.376   1.948
  331SOL    HW2 1643   9.124   0.233   1.919
  331SOL     MW 1644   9.109   0.307   1.966
  332SOL     OW 1645   9.500   3.166   2.788
  332SOL    HW1 1646   9.504   3.161   2.693
  332SOL    HW2 1647   9.589   3.147   2.817
  332SOL     MW 1648   9.508   3.164   2.782
  333SOL     OW 1649   8.506   0.874   2.015
  333SOL    HW1 1650   8.419   0.913   2.006
  333SOL    HW2 1651   8.513   0.851   2.108
  333SOL     MW 1652   8.499   0.876   2.022
  334SOL     OW 1653   9.400   1.479   1.991
  334SOL    HW1 1654   9.356   1.402   2.028
  334SOL    HW2 1655   9.340   1.551   2.010
  334SOL     MW 1656   9.390   1.479   1.996
  335SOL     OW 1657   8.719   1.545   2.608
  335SOL    HW1 1658   8.761   1.495   2.679
  335SOL    HW2 1659   8.761   1.512   2.528
  335SOL     MW 1660   8.727   1.537   2.607
  336SOL     OW 1661   8.950   0.728   0.082
  336SOL    HW1 1662   8.909   0.769   0.006
  336SOL    HW2 1663   8.879   0.681   0.125
  336SOL     MW 1664   8.940   0.728   0.079
  337SOL     OW 1665   9.749   3.121   2.900
  337SOL    HW1 1666   9.774   3.029   2.906
  337SOL    HW2 1667   9.733   3.148   2.990
  337SOL     MW 1668   9.750   3.115   2.908
  338SOL     OW 1669   9.090   1.388   2.646
  338SOL    HW1 1670   9.013   1.332   2.642
  338SOL    HW2 1671   9.055   1.477   2.643
  338SOL     MW 1672   9.080   1.391   2.645
  339SOL     OW 1673   9.401   0.234   2.279
  339SOL    HW1 1674   9.401   0.141   2.256
  339SOL    HW2 1675   9.309   0.260   2.274
  339SOL     MW 1676   9.393   0.228   2.277
  340SOL     OW 1677   8.570   3.116   2.119
  340SOL    HW1 1678   8.551   3.123   2.026
  340SOL    HW2 1679   8.510   3.049   2.152
  340SOL     MW 1680   8.563   3.110   2.114
  341SOL     OW 1681   8.391   0.408   0.098
  341SOL    HW1 1682   8.454   0.459   0.048
  341SOL    HW2 1683   8.306   0.443   0.070
  341SOL     MW 1684   8.389   0.416   0.091
  342SOL     OW 1685  10.042   1.352   2.242
  342SOL    HW1 1686  10.008   1.281   2.296
  342SOL    HW2 1687  10.137   1.344   2.249
  342SOL     MW 1688  10.048   1.345   2.247
  343SOL     OW 1689   9.639   1.026   2.143
  343SOL    HW1 1690   9.620   1.105   2.192
  343SOL    HW2 1691   9.663   1.057   2.055
  343SOL     MW 1692   9.640   1.036   2.139
  344SOL     OW 1693   9.366   3.165   2.255
  344SOL    HW1 1694   9.384   3.168   2.349
  344SOL    HW2 1695   9.443   3.123   2.217
  344SOL     MW 1696   9.374   3.162   2.260
  345SOL     OW 1697   9.985   0.742   2.695
  345SOL    HW1 1698  10.000   0.781   2.609
  345SOL    HW2 1699  10.023   0.654   2.689
  345SOL     MW 1700   9.990   0.737   2.687
  346SOL     OW 1701   8.569   0.543   3.147
  346SOL    HW1 1702   8.576   0.630   3.186
  346SOL    HW2 1703   8.655   0.504   3.162
  346SOL     MW 1704   8.577   0.548   3.152
  347SOL     OW 1705  10.005   0.798   2.428
  347SOL    HW1 1706  10.096   0.794   2.399
  347SOL    HW2 1707   9.963   0.855   2.364
  347SOL     MW 1708  10.009   0.803   2.419
  348SOL     OW 1709   8.655   3.200   2.874
  348SOL    HW1 1710   8.655   0.094   2.890
  348SOL    HW2 1711   8.727   3.186   2.813
  348SOL     MW 1712   8.661   0.007   2.870
  349SOL     OW 1713   8.781   0.386   2.168
  349SOL    HW1 1714   8.803   0.414   2.079
  349SOL    HW2 1715   8.820   0.452   2.225
  349SOL     MW 1716   8.786   0.394   2.165
  350SOL     OW 1717   9.937   1.715   1.881
  350SOL    HW1 1718  10.029   1.713   1.853
  350SOL    HW2 1719   9.932   1.789   1.941
  350SOL     MW 1720   9.945   1.721   1.884
  351SOL     OW 1721   9.211   0.624   3.025
  351SOL    HW1 1722   9.136   0.567   3.009
  351SOL    HW2 1723   9.232   0.610   3.117
  351SOL     MW 1724   9.206   0.618   3.032
  352SOL     OW 1725   8.285   1.033   1.996
  352SOL    HW1 1726   8.315   1.115   1.956
  352SOL    HW2 1727   8.257   1.059   2.084
  352SOL     MW 1728   8.285   1.043   2.001
  353SOL     OW 1729   9.860   3.133   2.501
  353SOL    HW1 1730   9.898   3.162   2.584
  353SOL    HW2 1731   9.899   3.048   2.484
  353SOL     MW 1732   9.867   3.128   2.507
  354SOL     OW 1733   9.758   0.677   2.436
  354SOL    HW1 1734   9.852   0.695   2.438
  354SOL    HW2 1735   9.748   0.591   2.475
  354SOL     MW 1736   9.765   0.671   2.439
  355SOL     OW 1737   9.662   0.522   1.773
  355SOL    HW1 1738   9.611   0.478   1.706
  355SOL    HW2 1739   9.682   0.608   1.736
  355SOL     MW 1740   9.660   0.526   1.764
  356SOL     OW 1741   8.958   1.280   2.248
  356SOL    HW1 1742   8.995   1.218   2.311
  356SOL    HW2 1743   8.924   1.351   2.302
  356SOL     MW 1744   8.958   1.281   2.258
  357SOL     OW 1745   9.189   0.403   2.550
  357SOL    HW1 1746   9.096   0.422   2.566
  357SOL    HW2 1747   9.196   0.308   2.560
  357SOL     MW 1748   9.181   0.396   2.552
  358SOL     OW 1749  10.140   3.196   0.036
  358SOL    HW1 1750  10.054   0.028   0.062
  358SOL    HW2 1751  10.133   3.184   3.141
  358SOL     MW 1752  10.132   3.198   0.029
  359SOL     OW 1753   9.182   0.752   2.006
  359SOL    HW1 1754   9.208   0.672   1.960
  359SOL    HW2 1755   9.104   0.783   1.960
  359SOL     MW 1756   9.177   0.747   1.998
  360SOL     OW 1757   9.563   1.241   2.873
  360SOL    HW1 1758   9.609   1.159   2.889
  360SOL    HW2 1759   9.498   1.247   2.943
  360SOL     MW 1760   9.561   1.235   2.881
  361SOL     OW 1761   8.812   0.603   2.760
  361SOL    HW1 1762   8.732   0.574   2.804
  361SOL    HW2 1763   8.804   0.699   2.757
  361SOL     MW 1764   8.804   0.609   2.764
  362SOL     OW 1765   9.913   0.069   2.036
  362SOL    HW1 1766   9.872   0.071   2.123
  362SOL    HW2 1767   9.885   0.151   1.995
  362SOL     MW 1768   9.907   0.077   2.040
  363SOL     OW 1769   9.158   0.580   2.231
  363SOL    HW1 1770   9.154   0.640   2.156
  363SOL    HW2 1771   9.251   0.572   2.251
  363SOL     MW 1772   9.166   0.584   2.226
  364SOL     OW 1773   9.511   0.905   0.005
  364SOL    HW1 1774   9.587   0.962   3.195
  364SOL    HW2 1775   9.439   0.954   3.164
  364SOL     MW 1776   9.511   0.915   0.000
  365SOL     OW 1777   9.097   1.558   2.259
  365SOL    HW1 1778   9.075   1.629   2.319
  365SOL    HW2 1779   9.134   1.489   2.314
  365SOL     MW 1780   9.098   1.558   2.269
  366SOL     OW 1781   9.953   0.023   2.748
  366SOL    HW1 1782   9.878   0.000   2.802
  366SOL    HW2 1783   9.957   0.119   2.752
  366SOL     MW 1784   9.946   0.030   2.753
  367SOL     OW 1785   8.432   3.110   2.747
  367SOL    HW1 1786   8.375   3.094   2.822
  367SOL    HW2 1787   8.514   3.142   2.785
  367SOL     MW 1788   8.434   3.112   2.757
  368SOL     OW 1789   9.990   1.141   2.406
  368SOL    HW1 1790   9.955   1.078   2.344
  368SOL    HW2 1791  10.079   1.111   2.423
  368SOL     MW 1792   9.995   1.133   2.402
  369SOL     OW 1793   8.540   3.135   1.852
  369SOL    HW1 1794   8.487   3.185   1.790
  369SOL    HW2 1795   8.625   3.126   1.808
  369SOL     MW 1796   8.543   3.139   1.842
  370SOL     OW 1797   8.408   0.085   1.665
  370SOL    HW1 1798   8.330   0.126   1.702
  370SOL    HW2 1799   8.456   0.157   1.623
  370SOL     MW 1800   8.406   0.095   1.665
  371SOL     OW 1801   8.403   1.268   1.908
  371SOL    HW1 1802   8.423   1.353   1.946
  371SOL    HW2 1803   8.397   1.284   1.814
  371SOL     MW 1804   8.404   1.277   1.903
  372SOL     OW 1805   9.635   1.489   2.122
  372SOL    HW1 1806   9.700   1.489   2.052
  372SOL    HW2 1807   9.551   1.488   2.077
  372SOL     MW 1808   9.633   1.489   2.112
  373SOL     OW 1809  10.034   2.546   3.172
  373SOL    HW1 1810  10.069   2.485   0.037
  373SOL    HW2 1811   9.993   2.615   0.024
  373SOL     MW 1812  10.033   2.547   3.183
  374SOL     OW 1813   9.881   2.520   1.105
  374SOL    HW1 1814   9.890   2.597   1.160
  374SOL    HW2 1815   9.927   2.543   1.024
  374SOL     MW 1816   9.886   2.529   1.103
  375SOL     OW 1817   9.804   2.909   1.054
  375SOL    HW1 1818   9.734   2.854   1.090
  375SOL    HW2 1819   9.795   2.899   0.959
  375SOL     MW 1820   9.797   2.904   1.048
  376SOL     OW 1821   9.177   2.131   0.413
  376SOL    HW1 1822   9.139   2.182   0.484
  376SOL    HW2 1823   9.113   2.136   0.343
  376SOL     MW 1824   9.168   2.136   0.413
  377SOL     OW 1825   8.572   2.349   0.411
  377SOL    HW1 1826   8.660   2.369   0.441
  377SOL    HW2 1827   8.547   2.271   0.460
  377SOL     MW 1828   8.578   2.344   0.418
  378SOL     OW 1829   8.958   2.915   0.502
  378SOL    HW1 1830   8.997   2.998   0.528
  378SOL    HW2 1831   9.029   2.869   0.456
  378SOL     MW 1832   8.968   2.918   0.500
  379SOL     OW 1833   8.799   2.427   0.538
  379SOL    HW1 1834   8.828   2.358   0.598
  379SOL    HW2 1835   8.851   2.504   0.562
  379SOL     MW 1836   8.806   2.428   0.545
  380SOL     OW 1837   8.963   2.285   0.968
  380SOL    HW1 1838   8.913   2.283   0.886
  380SOL    HW2 1839   8.986   2.193   0.985
  380SOL     MW 1840   8.961   2.276   0.962
  381SOL     OW 1841   9.713   2.890   0.009
  381SOL    HW1 1842   9.694   2.984   0.007
  381SOL    HW2 1843   9.773   2.876   3.136
  381SOL     MW 1844   9.717   2.897   0.002
  382SOL     OW 1845   9.294   2.696   0.612
  382SOL    HW1 1846   9.227   2.700   0.680
  382SOL    HW2 1847   9.313   2.603   0.603
  382SOL     MW 1848   9.290   2.688   0.618
  383SOL     OW 1849  10.088   1.994   0.695
  383SOL    HW1 1850  10.013   1.969   0.748
  383SOL    HW2 1851  10.117   1.912   0.654
  383SOL     MW 1852  10.084   1.984   0.696
  384SOL     OW 1853  10.215   2.200   3.152
  384SOL    HW1 1854  10.139   2.177   3.099
  384SOL    HW2 1855  10.180   2.253   0.024
  384SOL     MW 1856  10.205   2.203   3.153
  385SOL     OW 1857   9.924   2.776   0.384
  385SOL    HW1 1858   9.838   2.792   0.346
  385SOL    HW2 1859   9.985   2.819   0.323
  385SOL     MW 1860   9.922   2.781   0.375
  386SOL     OW 1861   9.722   2.426   1.474
  386SOL    HW1 1862   9.783   2.382   1.415
  386SOL    HW2 1863   9.636   2.413   1.434
  386SOL     MW 1864   9.719   2.421   1.465
  387SOL     OW 1865   9.529   2.854   1.407
  387SOL    HW1 1866   9.556   2.839   1.317
  387SOL    HW2 1867   9.609   2.849   1.458
  387SOL     MW 1868   9.538   2.852   1.404
  388SOL     OW 1869   9.193   2.243   1.632
  388SOL    HW1 1870   9.283   2.276   1.634
  388SOL    HW2 1871   9.200   2.161   1.583
  388SOL     MW 1872   9.202   2.238   1.628
  389SOL     OW 1873   9.770   2.907   0.780
  389SOL    HW1 1874   9.696   2.873   0.732
  389SOL    HW2 1875   9.843   2.906   0.718
  389SOL     MW 1876   9.770   2.904   0.770
  390SOL     OW 1877   9.348   2.328   0.335
  390SOL    HW1 1878   9.410   2.300   0.267
  390SOL    HW2 1879   9.301   2.248   0.358
  390SOL     MW 1880   9.349   2.319   0.331
  391SOL     OW 1881   9.038   2.017   1.534
  391SOL    HW1 1882   9.055   1.924   1.524
  391SOL    HW2 1883   8.996   2.025   1.620
  391SOL     MW 1884   9.036   2.010   1.541
  392SOL     OW 1885  10.181   1.767   0.585
  392SOL    HW1 1886  10.225   1.723   0.658
  392SOL    HW2 1887  10.117   1.702   0.553
  392SOL     MW 1888  10.179   1.757   0.589
  393SOL     OW 1889   9.239   2.370   3.120
  393SOL    HW1 1890   9.300   2.296   3.117
  393SOL    HW2 1891   9.295   2.447   3.116
  393SOL     MW 1892   9.250   2.370   3.119
  394SOL     OW 1893   9.926   2.270   0.346
  394SOL    HW1 1894   9.996   2.244   0.405
  394SOL    HW2 1895   9.846   2.262   0.399
  394SOL     MW 1896   9.925   2.267   0.356
  395SOL     OW 1897   9.282   2.732   1.395
  395SOL    HW1 1898   9.269   2.714   1.488
  395SOL    HW2 1899   9.368   2.775   1.391
  395SOL     MW 1900   9.289   2.734   1.403
  396SOL     OW 1901   9.356   2.276   0.976
  396SOL    HW1 1902   9.427   2.317   0.926
  396SOL    HW2 1903   9.290   2.345   0.984
  396SOL     MW 1904   9.357   2.286   0.972
  397SOL     OW 1905   9.893   2.319   1.296
  397SOL    HW1 1906   9.822   2.262   1.266
  397SOL    HW2 1907   9.902   2.386   1.228
  397SOL     MW 1908   9.888   2.320   1.287
  398SOL     OW 1909   9.366   2.045   1.476
  398SOL    HW1 1910   9.356   2.080   1.387
  398SOL    HW2 1911   9.360   1.950   1.465
  398SOL     MW 1912   9.365   2.040   1.467
  399SOL     OW 1913   9.764   2.852   1.548
  399SOL    HW1 1914   9.838   2.912   1.556
  399SOL    HW2 1915   9.748   2.821   1.637
  399SOL     MW 1916   9.769   2.855   1.557
  400SOL     OW 1917  10.101   2.218   0.545
  400SOL    HW1 1918  10.196   2.227   0.533
  400SOL    HW2 1919  10.091   2.133   0.589
  400SOL     MW 1920  10.109   2.211   0.548
  401SOL     OW 1921   8.509   1.866   0.540
  401SOL    HW1 1922   8.448   1.829   0.476
  401SOL    HW2 1923   8.498   1.813   0.618
  401SOL     MW 1924   8.503   1.858   0.541
  402SOL     OW 1925   8.601   2.191   0.805
  402SOL    HW1 1926   8.579   2.283   0.818
  402SOL    HW2 1927   8.577   2.148   0.887
  402SOL     MW 1928   8.597   2.196   0.813
  403SOL     OW 1929  10.019   2.967   1.636
  403SOL    HW1 1930  10.038   2.874   1.626
  403SOL    HW2 1931   9.985   2.975   1.725
  403SOL     MW 1932  10.018   2.959   1.643
  404SOL     OW 1933   9.060   2.938   3.169
  404SOL    HW1 1934   9.003   2.880   3.118
  404SOL    HW2 1935   9.001   3.003   0.007
  404SOL     MW 1936   9.050   2.938   3.168
  405SOL     OW 1937   8.450   2.561   1.061
  405SOL    HW1 1938   8.480   2.519   1.142
  405SOL    HW2 1939   8.358   2.581   1.077
  405SOL     MW 1940   8.445   2.559   1.069
  406SOL     OW 1941   9.045   1.957   0.026
  406SOL    HW1 1942   8.989   1.880   0.018
  406SOL    HW2 1943   9.123   1.936   3.175
  406SOL     MW 1944   9.047   1.948   0.021
  407SOL     OW 1945   9.098   2.656   0.814
  407SOL    HW1 1946   9.133   2.583   0.864
  407SOL    HW2 1947   9.056   2.712   0.879
  407SOL     MW 1948   9.098   2.655   0.824
  408SOL     OW 1949   8.383   2.657   0.486
  408SOL    HW1 1950   8.461   2.637   0.537
  408SOL    HW2 1951   8.367   2.579   0.433
  408SOL     MW 1952   8.389   2.648   0.486
  409SOL     OW 1953   8.704   2.297   1.650
  409SOL    HW1 1954   8.648   2.373   1.661
  409SOL    HW2 1955   8.767   2.303   1.722
  409SOL     MW 1956   8.705   2.304   1.657
  410SOL     OW 1957   9.089   1.751   1.531
  410SOL    HW1 1958   9.053   1.686   1.471
  410SOL    HW2 1959   9.183   1.748   1.515
  410SOL     MW 1960   9.094   1.745   1.524
  411SOL     OW 1961   8.748   2.321   1.383
  411SOL    HW1 1962   8.830   2.371   1.380
  411SOL    HW2 1963   8.734   2.303   1.476
  411SOL     MW 1964   8.754   2.324   1.391
  412SOL     OW 1965  10.119   2.320   0.796
  412SOL    HW1 1966  10.210   2.347   0.802
  412SOL    HW2 1967  10.109   2.288   0.706
  412SOL     MW 1968  10.126   2.320   0.788
  413SOL     OW 1969  10.005   2.528   1.758
  413SOL    HW1 1970  10.084   2.473   1.754
  413SOL    HW2 1971   9.994   2.547   1.851
  413SOL     MW 1972  10.011   2.524   1.766
  414SOL     OW 1973   9.318   2.167   1.237
  414SOL    HW1 1974   9.224   2.181   1.251
  414SOL    HW2 1975   9.333   2.198   1.147
  414SOL     MW 1976   9.311   2.171   1.230
  415SOL     OW 1977   9.513   2.425   0.800
  415SOL    HW1 1978   9.586   2.453   0.745
  415SOL    HW2 1979   9.438   2.425   0.741
  415SOL     MW 1980   9.513   2.428   0.790
  416SOL     OW 1981   8.893   2.675   0.630
  416SOL    HW1 1982   8.963   2.665   0.695
  416SOL    HW2 1983   8.911   2.758   0.587
  416SOL     MW 1984   8.901   2.681   0.632
  417SOL     OW 1985   9.754   2.219   0.561
  417SOL    HW1 1986   9.699   2.141   0.550
  417SOL    HW2 1987   9.796   2.207   0.646
  417SOL     MW 1988   9.753   2.211   0.567
  418SOL     OW 1989   8.636   1.916   1.417
  418SOL    HW1 1990   8.596   1.980   1.475
  418SOL    HW2 1991   8.708   1.964   1.375
  418SOL     MW 1992   8.639   1.926   1.418
  419SOL     OW 1993   9.325   2.427   0.595
  419SOL    HW1 1994   9.243   2.380   0.611
  419SOL    HW2 1995   9.350   2.402   0.506
  419SOL     MW 1996   9.320   2.421   0.589
  420SOL     OW 1997   9.148   2.776   0.379
  420SOL    HW1 1998   9.182   2.754   0.292
  420SOL    HW2 1999   9.215   2.744   0.440
  420SOL     MW 2000   9.157   2.771   0.376
  421SOL     OW 2001   9.609   1.988   0.540
  421SOL    HW1 2002   9.638   1.916   0.597
  421SOL    HW2 2003   9.514   1.992   0.554
  421SOL     MW 2004   9.603   1.982   0.546
  422SOL     OW 2005   8.416   2.927   0.498
  422SOL    HW1 2006   8.430   2.936   0.592
  422SOL    HW2 2007   8.398   2.833   0.486
  422SOL     MW 2008   8.416   2.919   0.505
  423SOL     OW 2009   8.924   2.954   1.573
  423SOL    HW1 2010   8.969   3.026   1.530
  423SOL    HW2 2011   8.979   2.932   1.648
  423SOL     MW 2012   8.933   2.958   1.576
  424SOL     OW 2013   9.495   2.234   0.127
  424SOL    HW1 2014   9.465   2.190   0.047
  424SOL    HW2 2015   9.590   2.221   0.127
  424SOL     MW 2016   9.501   2.229   0.120
  425SOL     OW 2017   9.257   1.873   3.083
  425SOL    HW1 2018   9.234   1.846   2.994
  425SOL    HW2 2019   9.268   1.790   3.131
  425SOL     MW 2020   9.256   1.863   3.080
  426SOL     OW 2021  10.101   2.812   1.305
  426SOL    HW1 2022  10.065   2.900   1.294
  426SOL    HW2 2023  10.053   2.775   1.379
  426SOL     MW 2024  10.094   2.816   1.310
  427SOL     OW 2025   8.867   2.750   3.093
  427SOL    HW1 2026   8.811   2.782   3.163
  427SOL    HW2 2027   8.907   2.670   3.129
  427SOL     MW 2028   8.866   2.745   3.103
  428SOL     OW 2029   8.420   3.172   1.413
  428SOL    HW1 2030   8.438   3.078   1.413
  428SOL    HW2 2031   8.411   3.194   1.506
  428SOL     MW 2032   8.421   3.166   1.422
  429SOL     OW 2033   9.142   1.830   0.493
  429SOL    HW1 2034   9.085   1.897   0.455
  429SOL    HW2 2035   9.221   1.877   0.517
  429SOL     MW 2036   9.144   1.840   0.492
  430SOL     OW 2037   8.802   2.968   0.291
  430SOL    HW1 2038   8.855   2.956   0.369
  430SOL    HW2 2039   8.723   3.012   0.322
  430SOL     MW 2040   8.800   2.971   0.300
  431SOL     OW 2041   9.054   2.471   1.679
  431SOL    HW1 2042   9.109   2.394   1.666
  431SOL    HW2 2043   8.983   2.441   1.736
  431SOL     MW 2044   9.052   2.462   1.683
  432SOL     OW 2045   9.797   2.659   1.358
  432SOL    HW1 2046   9.800   2.726   1.426
  432SOL    HW2 2047   9.775   2.578   1.404
  432SOL     MW 2048   9.795   2.658   1.368
  433SOL     OW 2049   9.365   1.764   1.505
  433SOL    HW1 2050   9.397   1.680   1.472
  433SOL    HW2 2051   9.414   1.778   1.586
  433SOL     MW 2052   9.372   1.757   1.510
  434SOL     OW 2053   8.863   2.263   3.173
  434SOL    HW1 2054   8.894   2.354   3.178
  434SOL    HW2 2055   8.892   2.223   0.055
  434SOL     MW 2056   8.869   2.268   3.181
  435SOL     OW 2057   9.770   2.204   0.118
  435SOL    HW1 2058   9.800   2.257   0.045
  435SOL    HW2 2059   9.827   2.228   0.191
  435SOL     MW 2060   9.778   2.211   0.118
  436SOL     OW 2061   8.777   1.825   0.514
  436SOL    HW1 2062   8.808   1.876   0.439
  436SOL    HW2 2063   8.683   1.842   0.518
  436SOL     MW 2064   8.772   1.831   0.508
  437SOL     OW 2065   8.508   2.915   1.356
  437SOL    HW1 2066   8.535   2.828   1.388
  437SOL    HW2 2067   8.475   2.898   1.268
  437SOL     MW 2068   8.508   2.905   1.351
  438SOL     OW 2069   9.060   2.190   1.331
  438SOL    HW1 2070   9.041   2.277   1.367
  438SOL    HW2 2071   9.059   2.132   1.406
  438SOL     MW 2072   9.058   2.193   1.341
  439SOL     OW 2073   8.614   2.610   0.626
  439SOL    HW1 2074   8.687   2.669   0.645
  439SOL    HW2 2075   8.656   2.533   0.586
  439SOL     MW 2076   8.624   2.608   0.624
  440SOL     OW 2077   9.340   1.991   0.580
  440SOL    HW1 2078   9.297   2.050   0.518
  440SOL    HW2 2079   9.316   2.025   0.666
  440SOL     MW 2080   9.334   1.999   0.582
  441SOL     OW 2081  10.073   2.706   1.566
  441SOL    HW1 2082  10.036   2.649   1.634
  441SOL    HW2 2083  10.140   2.653   1.524
  441SOL     MW 2084  10.075   2.696   1.569
  442SOL     OW 2085   8.390   0.002   0.747
  442SOL    HW1 2086   8.385   0.093   0.776
  442SOL    HW2 2087   8.301   3.182   0.718
  442SOL     MW 2088   8.382   0.009   0.747
  443SOL     OW 2089   8.340   2.428   0.315
  443SOL    HW1 2090   8.280   2.373   0.366
  443SOL    HW2 2091   8.427   2.401   0.345
  443SOL     MW 2092   8.342   2.420   0.322
  444SOL     OW 2093   9.543   2.983   0.427
  444SOL    HW1 2094   9.540   2.936   0.511
  444SOL    HW2 2095   9.597   2.928   0.370
  444SOL     MW 2096   9.548   2.974   0.430
  445SOL     OW 2097   8.821   2.072   1.277
  445SOL    HW1 2098   8.912   2.098   1.289
  445SOL    HW2 2099   8.770   2.152   1.297
  445SOL     MW 2100   8.824   2.082   1.280
  446SOL     OW 2101   9.433   2.361   1.655
  446SOL    HW1 2102   9.490   2.286   1.665
  446SOL    HW2 2103   9.444   2.389   1.564
  446SOL     MW 2104   9.439   2.357   1.648
  447SOL     OW 2105   9.564   2.126   1.637
  447SOL    HW1 2106   9.496   2.093   1.577
  447SOL    HW2 2107   9.643   2.131   1.583
  447SOL     MW 2108   9.565   2.124   1.626
  448SOL     OW 2109   8.914   1.936   0.716
  448SOL    HW1 2110   8.973   1.862   0.733
  448SOL    HW2 2111   8.853   1.904   0.650
  448SOL     MW 2112   8.914   1.926   0.712
  449SOL     OW 2113   9.861   2.201   0.817
  449SOL    HW1 2114   9.807   2.251   0.877
  449SOL    HW2 2115   9.948   2.240   0.825
  449SOL     MW 2116   9.864   2.209   0.823
  450SOL     OW 2117   9.650   2.211   1.217
  450SOL    HW1 2118   9.657   2.257   1.133
  450SOL    HW2 2119   9.633   2.120   1.192
  450SOL     MW 2120   9.649   2.207   1.207
  451SOL     OW 2121  10.215   2.356   1.718
  451SOL    HW1 2122  10.172   2.299   1.782
  451SOL    HW2 2123  10.178   2.328   1.634
  451SOL     MW 2124  10.208   2.348   1.716
  452SOL     OW 2125   9.020   2.017   0.951
  452SOL    HW1 2126   8.985   1.961   1.021
  452SOL    HW2 2127   8.971   1.990   0.873
  452SOL     MW 2128   9.013   2.009   0.951
  453SOL     OW 2129   8.886   2.732   1.414
  453SOL    HW1 2130   8.940   2.767   1.344
  453SOL    HW2 2131   8.896   2.794   1.486
  453SOL     MW 2132   8.892   2.741   1.415
  454SOL     OW 2133   9.076   2.849   1.253
  454SOL    HW1 2134   9.151   2.806   1.295
  454SOL    HW2 2135   9.106   2.939   1.239
  454SOL     MW 2136   9.085   2.854   1.256
  455SOL     OW 2137   9.004   2.153   0.201
  455SOL    HW1 2138   9.055   2.232   0.181
  455SOL    HW2 2139   9.031   2.090   0.134
  455SOL     MW 2140   9.011   2.154   0.193
  456SOL     OW 2141   8.873   3.110   0.074
  456SOL    HW1 2142   8.851   3.060   0.152
  456SOL    HW2 2143   8.789   3.128   0.032
  456SOL     MW 2144   8.864   3.107   0.077
  457SOL     OW 2145   8.471   0.095   1.177
  457SOL    HW1 2146   8.447   0.061   1.263
  457SOL    HW2 2147   8.431   0.033   1.115
  457SOL     MW 2148   8.465   0.086   1.179
  458SOL     OW 2149   9.240   2.097   0.813
  458SOL    HW1 2150   9.171   2.061   0.869
  458SOL    HW2 2151   9.291   2.154   0.870
  458SOL     MW 2152   9.238   2.099   0.823
  459SOL     OW 2153   8.982   2.471   1.418
  459SOL    HW1 2154   8.946   2.559   1.406
  459SOL    HW2 2155   9.006   2.467   1.510
  459SOL     MW 2156   8.981   2.479   1.425
  460SOL     OW 2157   9.867   1.836   1.116
  460SOL    HW1 2158   9.866   1.753   1.068
  460SOL    HW2 2159   9.865   1.812   1.208
  460SOL     MW 2160   9.867   1.827   1.120
  461SOL     OW 2161   9.951   0.033   1.593
  461SOL    HW1 2162  10.022   0.083   1.552
  461SOL    HW2 2163   9.985   3.144   1.601
  461SOL     MW 2164   9.960   0.030   1.590
  462SOL     OW 2165   8.854   2.210   0.715
  462SOL    HW1 2166   8.877   2.118   0.705
  462SOL    HW2 2167   8.763   2.208   0.745
  462SOL     MW 2168   8.848   2.201   0.717
  463SOL     OW 2169   9.059   0.223   0.672
  463SOL    HW1 2170   9.072   0.144   0.620
  463SOL    HW2 2171   9.073   0.194   0.763
  463SOL     MW 2172   9.062   0.213   0.676
  464SOL     OW 2173   8.388   2.327   1.487
  464SOL    HW1 2174   8.431   2.367   1.412
  464SOL    HW2 2175   8.295   2.328   1.465
  464SOL     MW 2176   8.383   2.331   1.478
  465SOL     OW 2177   9.992   2.550   0.859
  465SOL    HW1 2178   9.973   2.585   0.771
  465SOL    HW2 2179  10.042   2.470   0.843
  465SOL     MW 2180   9.995   2.546   0.850
  466SOL     OW 2181   8.530   2.459   1.299
  466SOL    HW1 2182   8.553   2.542   1.341
  466SOL    HW2 2183   8.607   2.404   1.312
  466SOL     MW 2184   8.539   2.462   1.304
  467SOL     OW 2185   9.954   2.574   0.574
  467SOL    HW1 2186  10.000   2.503   0.529
  467SOL    HW2 2187   9.947   2.643   0.508
  467SOL     MW 2188   9.957   2.574   0.564
  468SOL     OW 2189   8.529   2.505   1.642
  468SOL    HW1 2190   8.481   2.532   1.721
  468SOL    HW2 2191   8.470   2.446   1.597
  468SOL     MW 2192   8.520   2.502   1.645
  469SOL     OW 2193   9.469   2.383   1.375
  469SOL    HW1 2194   9.497   2.307   1.323
  469SOL    HW2 2195   9.386   2.409   1.336
  469SOL     MW 2196   9.464   2.378   1.367
  470SOL     OW 2197   8.490   2.140   0.562
  470SOL    HW1 2198   8.522   2.157   0.651
  470SOL    HW2 2199   8.494   2.045   0.553
  470SOL     MW 2200   8.493   2.133   0.569
  471SOL     OW 2201   9.165   2.461   1.002
  471SOL    HW1 2202   9.088   2.404   0.999
  471SOL    HW2 2203   9.178   2.479   1.095
  471SOL     MW 2204   9.160   2.457   1.010
  472SOL     OW 2205   8.305   2.604   0.108
  472SOL    HW1 2206   8.279   2.689   0.145
  472SOL    HW2 2207   8.308   2.545   0.183
  472SOL     MW 2208   8.303   2.607   0.118
  473SOL     OW 2209   9.690   1.778   0.690
  473SOL    HW1 2210   9.754   1.821   0.747
  473SOL    HW2 2211   9.742   1.724   0.631
  473SOL     MW 2212   9.700   1.777   0.690
  474SOL     OW 2213   9.706   2.478   0.625
  474SOL    HW1 2214   9.792   2.518   0.612
  474SOL    HW2 2215   9.717   2.388   0.593
  474SOL     MW 2216   9.714   2.473   0.621
  475SOL     OW 2217   9.221   2.496   1.274
  475SOL    HW1 2218   9.251   2.581   1.304
  475SOL    HW2 2219   9.139   2.481   1.321
  475SOL     MW 2220   9.216   2.502   1.281
  476SOL     OW 2221   8.611   2.676   1.438
  476SOL    HW1 2222   8.594   2.630   1.520
  476SOL    HW2 2223   8.706   2.688   1.436
  476SOL     MW 2224   8.618   2.673   1.445
  477SOL     OW 2225   9.859   2.343   3.102
  477SOL    HW1 2226   9.824   2.358   3.014
  477SOL    HW2 2227   9.917   2.418   3.117
  477SOL     MW 2228   9.861   2.351   3.095
  478SOL     OW 2229   9.113   2.260   0.640
  478SOL    HW1 2230   9.021   2.258   0.667
  478SOL    HW2 2231   9.158   2.207   0.706
  478SOL     MW 2232   9.109   2.255   0.648
  479SOL     OW 2233  10.124   1.741   1.385
  479SOL    HW1 2234  10.029   1.743   1.398
  479SOL    HW2 2235  10.151   1.833   1.389
  479SOL     MW 2236  10.118   1.749   1.386
  480SOL     OW 2237   9.514   2.857   0.668
  480SOL    HW1 2238   9.473   2.914   0.733
  480SOL    HW2 2239   9.446   2.792   0.647
  480SOL     MW 2240   9.504   2.856   0.672
  481SOL     OW 2241   9.177   2.727   0.097
  481SOL    HW1 2242   9.105   2.666   0.081
  481SOL    HW2 2243   9.146   2.811   0.062
  481SOL     MW 2244   9.168   2.729   0.092
  482SOL     OW 2245   8.551   2.448   0.837
  482SOL    HW1 2246   8.517   2.495   0.914
  482SOL    HW2 2247   8.566   2.516   0.772
  482SOL     MW 2248   8.550   2.458   0.838
  483SOL     OW 2249   9.787   1.934   0.086
  483SOL    HW1 2250   9.747   1.905   0.169
  483SOL    HW2 2251   9.785   2.029   0.091
  483SOL     MW 2252   9.783   1.940   0.094
  484SOL     OW 2253   9.140   2.379   0.166
  484SOL    HW1 2254   9.180   2.375   0.079
  484SOL    HW2 2255   9.215   2.380   0.226
  484SOL     MW 2256   9.151   2.378   0.163
  485SOL     OW 2257   8.523   2.103   1.585
  485SOL    HW1 2258   8.464   2.168   1.547
  485SOL    HW2 2259   8.595   2.155   1.621
  485SOL     MW 2260   8.524   2.113   1.585
  486SOL     OW 2261   9.866   1.931   0.845
  486SOL    HW1 2262   9.877   1.911   0.938
  486SOL    HW2 2263   9.852   2.025   0.842
  486SOL     MW 2264   9.866   1.937   0.853
  487SOL     OW 2265   9.979   2.928   0.601
  487SOL    HW1 2266   9.951   2.875   0.526
  487SOL    HW2 2267  10.072   2.905   0.613
  487SOL     MW 2268   9.985   2.921   0.595
  488SOL     OW 2269   8.736   3.057   1.352
  488SOL    HW1 2270   8.654   3.007   1.354
  488SOL    HW2 2271   8.797   3.004   1.404
  488SOL     MW 2272   8.735   3.047   1.357
  489SOL     OW 2273   8.614   1.817   3.182
  489SOL    HW1 2274   8.562   1.898   3.180
  489SOL    HW2 2275   8.643   1.806   3.092
  489SOL     MW 2276   8.612   1.823   3.174
  490SOL     OW 2277   9.704   2.346   0.986
  490SOL    HW1 2278   9.642   2.388   0.926
  490SOL    HW2 2279   9.758   2.418   1.018
  490SOL     MW 2280   9.704   2.356   0.984
  491SOL     OW 2281   8.478   2.047   3.143
  491SOL    HW1 2282   8.442   2.117   3.198
  491SOL    HW2 2283   8.495   2.089   3.059
  491SOL     MW 2284   8.476   2.057   3.141
  492SOL     OW 2285   9.971   2.558   2.025
  492SOL    HW1 2286  10.050   2.515   2.057
  492SOL    HW2 2287   9.900   2.499   2.050
  492SOL     MW 2288   9.972   2.549   2.030
  493SOL     OW 2289   8.840   2.780   2.133
  493SOL    HW1 2290   8.929   2.748   2.146
  493SOL    HW2 2291   8.843   2.872   2.159
  493SOL     MW 2292   8.849   2.785   2.136
  494SOL     OW 2293   9.807   2.856   2.945
  494SOL    HW1 2294   9.725   2.805   2.945
  494SOL    HW2 2295   9.867   2.805   2.890
  494SOL     MW 2296   9.805   2.847   2.940
  495SOL     OW 2297   9.018   2.134   2.133
  495SOL    HW1 2298   9.025   2.220   2.173
  495SOL    HW2 2299   9.067   2.142   2.051
  495SOL     MW 2300   9.023   2.142   2.129
  496SOL     OW 2301   8.558   2.266   2.117
  496SOL    HW1 2302   8.643   2.307   2.104
  496SOL    HW2 2303   8.574   2.196   2.181
  496SOL     MW 2304   8.567   2.263   2.122
  497SOL     OW 2305   8.878   1.982   2.301
  497SOL    HW1 2306   8.931   2.028   2.236
  497SOL    HW2 2307   8.789   2.015   2.289
  497SOL     MW 2308   8.874   1.989   2.294
  498SOL     OW 2309   9.071   2.917   2.367
  498SOL    HW1 2310   9.075   3.012   2.379
  498SOL    HW2 2311   9.133   2.899   2.296
  498SOL     MW 2312   9.077   2.924   2.362
  499SOL     OW 2313   8.866   2.449   2.426
  499SOL    HW1 2314   8.841   2.361   2.455
  499SOL    HW2 2315   8.952   2.437   2.385
  499SOL     MW 2316   8.871   2.440   2.425
  500SOL     OW 2317   8.939   2.328   2.758
  500SOL    HW1 2318   8.851   2.365   2.762
  500SOL    HW2 2319   8.926   2.233   2.755
  500SOL     MW 2320   8.930   2.323   2.758
  501SOL     OW 2321   9.242   2.695   2.336
  501SOL    HW1 2322   9.192   2.744   2.402
  501SOL    HW2 2323   9.265   2.613   2.380
  501SOL     MW 2324   9.239   2.692   2.346
  502SOL     OW 2325  10.077   2.234   1.908
  502SOL    HW1 2326   9.986   2.206   1.920
  502SOL    HW2 2327  10.098   2.281   1.988
  502SOL     MW 2328  10.070   2.235   1.916
  503SOL     OW 2329   9.891   2.764   2.185
  503SOL    HW1 2330   9.827   2.811   2.131
  503SOL    HW2 2331   9.929   2.699   2.126
  503SOL     MW 2332   9.888   2.762   2.175
  504SOL     OW 2333   9.326   2.330   2.181
  504SOL    HW1 2334   9.330   2.369   2.093
  504SOL    HW2 2335   9.350   2.238   2.167
  504SOL     MW 2336   9.328   2.325   2.172
  505SOL     OW 2337  10.155   3.140   2.109
  505SOL    HW1 2338  10.146   3.103   2.197
  505SOL    HW2 2339  10.070   3.180   2.091
  505SOL     MW 2340  10.147   3.140   2.116
  506SOL     OW 2341  10.163   1.693   2.337
  506SOL    HW1 2342  10.210   1.628   2.389
  506SOL    HW2 2343  10.072   1.662   2.336
  506SOL     MW 2344  10.159   1.684   2.341
  507SOL     OW 2345   9.206   1.817   2.809
  507SOL    HW1 2346   9.214   1.901   2.763
  507SOL    HW2 2347   9.290   1.773   2.793
  507SOL     MW 2348   9.214   1.821   2.803
  508SOL     OW 2349   9.310   2.410   1.917
  508SOL    HW1 2350   9.368   2.397   1.842
  508SOL    HW2 2351   9.273   2.497   1.905
  508SOL     MW 2352   9.312   2.416   1.909
  509SOL     OW 2353   9.805   2.364   2.118
  509SOL    HW1 2354   9.831   2.350   2.209
  509SOL    HW2 2355   9.717   2.402   2.125
  509SOL     MW 2356   9.799   2.366   2.127
  510SOL     OW 2357   9.382   2.221   2.825
  510SOL    HW1 2358   9.461   2.267   2.795
  510SOL    HW2 2359   9.315   2.290   2.830
  510SOL     MW 2360   9.383   2.231   2.822
  511SOL     OW 2361  10.099   2.212   2.296
  511SOL    HW1 2362  10.189   2.180   2.301
  511SOL    HW2 2363  10.045   2.133   2.302
  511SOL     MW 2364  10.102   2.202   2.297
  512SOL     OW 2365   8.494   1.854   2.394
  512SOL    HW1 2366   8.460   1.796   2.325
  512SOL    HW2 2367   8.483   1.803   2.474
  512SOL     MW 2368   8.490   1.844   2.395
  513SOL     OW 2369   8.547   2.152   2.893
  513SOL    HW1 2370   8.582   2.226   2.843
  513SOL    HW2 2371   8.482   2.112   2.834
  513SOL     MW 2372   8.544   2.155   2.883
  514SOL     OW 2373   9.054   2.892   1.806
  514SOL    HW1 2374   8.984   2.831   1.827
  514SOL    HW2 2375   9.035   2.971   1.857
  514SOL     MW 2376   9.046   2.894   1.812
  515SOL     OW 2377  10.259   2.570   2.998
  515SOL    HW1 2378  10.299   2.656   2.983
  515SOL    HW2 2379  10.185   2.587   3.055
  515SOL     MW 2380  10.256   2.579   3.001
  516SOL     OW 2381   8.479   2.513   2.865
  516SOL    HW1 2382   8.474   2.499   2.959
  516SOL    HW2 2383   8.411   2.578   2.847
  516SOL     MW 2384   8.472   2.517   2.872
  517SOL     OW 2385   9.181   2.671   2.888
  517SOL    HW1 2386   9.178   2.580   2.858
  517SOL    HW2 2387   9.097   2.708   2.860
  517SOL     MW 2388   9.173   2.666   2.883
  518SOL     OW 2389   8.439   2.670   2.253
  518SOL    HW1 2390   8.531   2.647   2.266
  518SOL    HW2 2391   8.404   2.598   2.201
  518SOL     MW 2392   8.444   2.661   2.249
  519SOL     OW 2393  10.078   2.335   2.789
  519SOL    HW1 2394  10.164   2.341   2.833
  519SOL    HW2 2395  10.099   2.320   2.697
  519SOL     MW 2396  10.088   2.334   2.785
  520SOL     OW 2397   9.381   2.135   3.091
  520SOL    HW1 2398   9.350   2.044   3.096
  520SOL    HW2 2399   9.395   2.151   2.998
  520SOL     MW 2400   9.379   2.128   3.083
  521SOL     OW 2401   9.772   2.220   2.608
  521SOL    HW1 2402   9.778   2.127   2.628
  521SOL    HW2 2403   9.780   2.263   2.693
  521SOL     MW 2404   9.773   2.216   2.617
  522SOL     OW 2405   9.283   2.443   2.434
  522SOL    HW1 2406   9.223   2.383   2.478
  522SOL    HW2 2407   9.310   2.397   2.355
  522SOL     MW 2408   9.280   2.434   2.431
  523SOL     OW 2409   9.078   2.649   2.130
  523SOL    HW1 2410   9.122   2.650   2.045
  523SOL    HW2 2411   9.147   2.669   2.193
  523SOL     MW 2412   9.088   2.651   2.128
  524SOL     OW 2413   8.409   2.942   2.244
  524SOL    HW1 2414   8.403   2.973   2.335
  524SOL    HW2 2415   8.416   2.847   2.252
  524SOL     MW 2416   8.409   2.936   2.253
  525SOL     OW 2417   9.580   2.019   1.882
  525SOL    HW1 2418   9.567   2.062   1.798
  525SOL    HW2 2419   9.662   2.055   1.916
  525SOL     MW 2420   9.587   2.026   1.878
  526SOL     OW 2421  10.087   1.894   3.009
  526SOL    HW1 2422  10.064   1.987   3.004
  526SOL    HW2 2423  10.181   1.891   2.993
  526SOL     MW 2424  10.093   1.902   3.007
  527SOL     OW 2425   9.076   1.801   2.394
  527SOL    HW1 2426   9.009   1.864   2.368
  527SOL    HW2 2427   9.154   1.827   2.345
  527SOL     MW 2428   9.077   1.809   2.387
  528SOL     OW 2429   8.826   3.052   2.175
  528SOL    HW1 2430   8.836   3.081   2.265
  528SOL    HW2 2431   8.735   3.072   2.153
  528SOL     MW 2432   8.818   3.056   2.181
  529SOL     OW 2433   8.883   2.349   1.849
  529SOL    HW1 2434   8.844   2.374   1.933
  529SOL    HW2 2435   8.958   2.295   1.872
  529SOL     MW 2436   8.886   2.347   1.858
  530SOL     OW 2437   9.337   2.626   3.102
  530SOL    HW1 2438   9.292   2.666   3.176
  530SOL    HW2 2439   9.285   2.651   3.025
  530SOL     MW 2440   9.328   2.632   3.101
  531SOL     OW 2441   9.811   2.171   1.933
  531SOL    HW1 2442   9.801   2.222   1.853
  531SOL    HW2 2443   9.801   2.234   2.004
  531SOL     MW 2444   9.809   2.181   1.932
  532SOL     OW 2445   8.731   1.747   2.308
  532SOL    HW1 2446   8.793   1.818   2.295
  532SOL    HW2 2447   8.657   1.789   2.353
  532SOL     MW 2448   8.730   1.757   2.311
  533SOL     OW 2449   8.699   2.592   2.265
  533SOL    HW1 2450   8.748   2.666   2.229
  533SOL    HW2 2451   8.756   2.557   2.333
  533SOL     MW 2452   8.708   2.596   2.268
  534SOL     OW 2453   9.943   1.987   2.320
  534SOL    HW1 2454   9.988   1.911   2.356
  534SOL    HW2 2455   9.882   2.013   2.389
  534SOL     MW 2456   9.942   1.983   2.329
  535SOL     OW 2457   8.384   3.102   2.479
  535SOL    HW1 2458   8.409   3.100   2.571
  535SOL    HW2 2459   8.292   3.129   2.481
  535SOL     MW 2460   8.378   3.104   2.488
  536SOL     OW 2461   8.364   2.451   2.100
  536SOL    HW1 2462   8.286   2.404   2.130
  536SOL    HW2 2463   8.434   2.386   2.106
  536SOL     MW 2464   8.363   2.441   2.103
  537SOL     OW 2465   9.624   3.075   2.215
  537SOL    HW1 2466   9.630   3.022   2.295
  537SOL    HW2 2467   9.679   3.151   2.233
  537SOL     MW 2468   9.630   3.077   2.224
  538SOL     OW 2469   8.792   2.077   2.977
  538SOL    HW1 2470   8.825   2.135   3.045
  538SOL    HW2 2471   8.703   2.107   2.961
  538SOL     MW 2472   8.787   2.085   2.982
  539SOL     OW 2473  10.012   2.152   2.984
  539SOL    HW1 2474   9.947   2.204   3.031
  539SOL    HW2 2475  10.032   2.203   2.905
  539SOL     MW 2476  10.008   2.161   2.981
  540SOL     OW 2477   9.572   2.462   2.203
  540SOL    HW1 2478   9.490   2.414   2.211
  540SOL    HW2 2479   9.618   2.446   2.286
  540SOL     MW 2480   9.569   2.456   2.211
  541SOL     OW 2481   9.117   2.215   1.892
  541SOL    HW1 2482   9.184   2.278   1.918
  541SOL    HW2 2483   9.136   2.196   1.800
  541SOL     MW 2484   9.125   2.219   1.886
  542SOL     OW 2485   8.949   3.112   1.934
  542SOL    HW1 2486   8.909   3.097   2.020
  542SOL    HW2 2487   8.875   3.123   1.875
  542SOL     MW 2488   8.939   3.111   1.936
  543SOL     OW 2489   9.246   2.050   2.667
  543SOL    HW1 2490   9.304   2.037   2.592
  543SOL    HW2 2491   9.295   2.107   2.726
  543SOL     MW 2492   9.255   2.054   2.665
  544SOL     OW 2493   8.964   2.550   0.056
  544SOL    HW1 2494   8.917   2.604   0.119
  544SOL    HW2 2495   9.019   2.493   0.110
  544SOL     MW 2496   8.965   2.549   0.066
  545SOL     OW 2497   9.664   1.839   3.060
  545SOL    HW1 2498   9.731   1.844   2.992
  545SOL    HW2 2499   9.704   1.879   3.137
  545SOL     MW 2500   9.673   1.843   3.061
  546SOL     OW 2501   8.797   2.192   2.493
  546SOL    HW1 2502   8.862   2.144   2.441
  546SOL    HW2 2503   8.811   2.161   2.582
  546SOL     MW 2504   8.804   2.185   2.496
  547SOL     OW 2505   9.193   0.127   2.581
  547SOL    HW1 2506   9.151   0.076   2.512
  547SOL    HW2 2507   9.146   0.104   2.661
  547SOL     MW 2508   9.185   0.121   2.582
  548SOL     OW 2509   9.396   2.078   2.112
  548SOL    HW1 2510   9.454   2.049   2.041
  548SOL    HW2 2511   9.364   1.997   2.151
  548SOL     MW 2512   9.399   2.068   2.109
  549SOL     OW 2513   8.482   1.640   2.219
  549SOL    HW1 2514   8.576   1.654   2.225
  549SOL    HW2 2515   8.467   1.556   2.261
  549SOL     MW 2516   8.489   1.634   2.223
  550SOL     OW 2517   8.387   2.267   0.077
  550SOL    HW1 2518   8.412   2.336   0.016
  550SOL    HW2 2519   8.369   2.312   0.159
  550SOL     MW 2520   8.387   2.277   0.079
  551SOL     OW 2521   9.726   2.906   2.022
  551SOL    HW1 2522   9.681   2.966   2.082
  551SOL    HW2 2523   9.782   2.963   1.969
  551SOL     MW 2524   9.727   2.916   2.023
  552SOL     OW 2525   9.303   1.843   2.234
  552SOL    HW1 2526   9.379   1.796   2.267
  552SOL    HW2 2527   9.271   1.789   2.162
  552SOL     MW 2528   9.307   1.834   2.231
  553SOL     OW 2529   8.472   2.485   3.135
  553SOL    HW1 2530   8.411   2.537   3.188
  553SOL    HW2 2531   8.557   2.497   3.176
  553SOL     MW 2532   8.474   2.491   3.143
  554SOL     OW 2533   9.945   2.607   2.409
  554SOL    HW1 2534  10.038   2.593   2.388
  554SOL    HW2 2535   9.911   2.654   2.333
  554SOL     MW 2536   9.950   2.610   2.400
  555SOL     OW 2537   8.745   1.812   2.947
  555SOL    HW1 2538   8.766   1.904   2.961
  555SOL    HW2 2539   8.829   1.768   2.945
  555SOL     MW 2540   8.754   1.817   2.948
  556SOL     OW 2541   8.795   2.402   2.100
  556SOL    HW1 2542   8.753   2.472   2.150
  556SOL    HW2 2543   8.879   2.389   2.144
  556SOL     MW 2544   8.798   2.407   2.109
  557SOL     OW 2545   8.624   2.080   2.308
  557SOL    HW1 2546   8.655   2.127   2.386
  557SOL    HW2 2547   8.567   2.012   2.342
  557SOL     MW 2548   8.621   2.078   2.318
  558SOL     OW 2549   9.181   2.398   2.858
  558SOL    HW1 2550   9.091   2.376   2.831
  558SOL    HW2 2551   9.181   2.387   2.953
  558SOL     MW 2552   9.173   2.395   2.864
  559SOL     OW 2553   8.386   2.576   1.860
  559SOL    HW1 2554   8.366   2.666   1.886
  559SOL    HW2 2555   8.379   2.526   1.941
  559SOL     MW 2556   8.383   2.580   1.869
  560SOL     OW 2557   9.767   2.395   2.396
  560SOL    HW1 2558   9.830   2.464   2.417
  560SOL    HW2 2559   9.772   2.335   2.471
  560SOL     MW 2560   9.773   2.396   2.405
  561SOL     OW 2561   9.802   2.348   1.724
  561SOL    HW1 2562   9.765   2.374   1.640
  561SOL    HW2 2563   9.874   2.409   1.739
  561SOL     MW 2564   9.805   2.355   1.718
  562SOL     OW 2565   9.110   2.264   2.546
  562SOL    HW1 2566   9.051   2.303   2.610
  562SOL    HW2 2567   9.146   2.187   2.590
  562SOL     MW 2568   9.108   2.260   2.555
  563SOL     OW 2569   9.168   2.640   1.867
  563SOL    HW1 2570   9.122   2.589   1.801
  563SOL    HW2 2571   9.148   2.731   1.846
  563SOL     MW 2572   9.162   2.644   1.859
  564SOL     OW 2573   8.659   2.357   2.745
  564SOL    HW1 2574   8.599   2.420   2.785
  564SOL    HW2 2575   8.650   2.372   2.651
  564SOL     MW 2576   8.653   2.364   2.740
  565SOL     OW 2577   9.913   1.932   2.043
  565SOL    HW1 2578   9.921   1.951   2.137
  565SOL    HW2 2579   9.883   2.014   2.004
  565SOL     MW 2580   9.911   1.941   2.048
  566SOL     OW 2581   9.054   2.394   2.210
  566SOL    HW1 2582   9.056   2.486   2.182
  566SOL    HW2 2583   9.146   2.369   2.216
  566SOL     MW 2584   9.062   2.400   2.208
  567SOL     OW 2585   9.582   2.716   3.036
  567SOL    HW1 2586   9.606   2.775   3.108
  567SOL    HW2 2587   9.495   2.684   3.060
  567SOL     MW 2588   9.576   2.719   3.045
  568SOL     OW 2589   9.864   1.826   2.867
  568SOL    HW1 2590   9.884   1.735   2.848
  568SOL    HW2 2591   9.941   1.858   2.915
  568SOL     MW 2592   9.873   1.821   2.870
  569SOL     OW 2593   8.507   1.705   2.864
  569SOL    HW1 2594   8.496   1.710   2.769
  569SOL    HW2 2595   8.592   1.746   2.881
  569SOL     MW 2596   8.514   1.709   2.857
  570SOL     OW 2597   9.969   2.894   2.416
  570SOL    HW1 2598   9.945   2.868   2.327
  570SOL    HW2 2599   9.973   2.811   2.465
  570SOL     MW 2600   9.967   2.884   2.412
  571SOL     OW 2601   9.807   2.371   2.836
  571SOL    HW1 2602   9.766   2.457   2.823
  571SOL    HW2 2603   9.899   2.385   2.814
  571SOL     MW 2604   9.811   2.380   2.833
  572SOL     OW 2605   8.410   1.912   1.752
  572SOL    HW1 2606   8.399   1.964   1.832
  572SOL    HW2 2607   8.449   1.973   1.689
  572SOL     MW 2608   8.413   1.922   1.754
  573SOL     OW 2609  10.699   0.874   0.373
  573SOL    HW1 2610  10.773   0.825   0.337
  573SOL    HW2 2611  10.690   0.950   0.315
  573SOL     MW 2612  10.705   0.876   0.364
  574SOL     OW 2613  11.137   1.623   1.479
  574SOL    HW1 2614  11.153   1.588   1.391
  574SOL    HW2 2615  11.141   1.546   1.535
  574SOL     MW 2616  11.139   1.613   1.476
  575SOL     OW 2617  10.538   0.733   1.106
  575SOL    HW1 2618  10.627   0.708   1.082
  575SOL    HW2 2619  10.527   0.821   1.068
  575SOL     MW 2620  10.545   0.739   1.100
  576SOL     OW 2621  10.894   1.005   0.590
  576SOL    HW1 2622  10.873   1.054   0.670
  576SOL    HW2 2623  10.985   0.979   0.601
  576SOL     MW 2624  10.900   1.007   0.598
  577SOL     OW 2625  10.927   1.323   1.494
  577SOL    HW1 2626  10.994   1.346   1.559
  577SOL    HW2 2627  10.871   1.401   1.488
  577SOL     MW 2628  10.928   1.332   1.499
  578SOL     OW 2629  10.596   0.578   0.597
  578SOL    HW1 2630  10.623   0.488   0.581
  578SOL    HW2 2631  10.678   0.625   0.614
  578SOL     MW 2632  10.606   0.574   0.597
  579SOL     OW 2633  10.850   0.436   0.904
  579SOL    HW1 2634  10.773   0.379   0.900
  579SOL    HW2 2635  10.902   0.402   0.978
  579SOL     MW 2636  10.848   0.428   0.910
  580SOL     OW 2637  10.592   0.833   0.807
  580SOL    HW1 2638  10.545   0.849   0.725
  580SOL    HW2 2639  10.558   0.899   0.867
  580SOL     MW 2640  10.584   0.840   0.805
  581SOL     OW 2641  10.310   1.638   0.782
  581SOL    HW1 2642  10.401   1.634   0.751
  581SOL    HW2 2643  10.275   1.551   0.765
  581SOL     MW 2644  10.315   1.630   0.778
  582SOL     OW 2645  10.569   1.174   0.738
  582SOL    HW1 2646  10.576   1.256   0.785
  582SOL    HW2 2647  10.609   1.191   0.653
  582SOL     MW 2648  10.574   1.183   0.734
  583SOL     OW 2649  11.027   0.687   0.515
  583SOL    HW1 2650  10.951   0.690   0.573
  583SOL    HW2 2651  11.074   0.608   0.542
  583SOL     MW 2652  11.024   0.680   0.523
  584SOL     OW 2653  10.529   1.466   1.328
  584SOL    HW1 2654  10.441   1.465   1.290
  584SOL    HW2 2655  10.554   1.374   1.334
  584SOL     MW 2656  10.523   1.458   1.325
  585SOL     OW 2657  11.074   1.629   3.141
  585SOL    HW1 2658  10.982   1.641   3.166
  585SOL    HW2 2659  11.075   1.544   3.096
  585SOL     MW 2660  11.066   1.622   3.139
  586SOL     OW 2661  10.350   1.442   0.995
  586SOL    HW1 2662  10.321   1.433   1.086
  586SOL    HW2 2663  10.335   1.534   0.974
  586SOL     MW 2664  10.346   1.449   1.001
  587SOL     OW 2665  11.247   1.051   1.457
  587SOL    HW1 2666  11.219   1.135   1.420
  587SOL    HW2 2667  11.334   1.068   1.492
  587SOL     MW 2668  11.252   1.060   1.457
  588SOL     OW 2669  10.966   0.388   1.585
  588SOL    HW1 2670  11.055   0.355   1.574
  588SOL    HW2 2671  10.910   0.320   1.548
  588SOL     MW 2672  10.969   0.379   1.581
  589SOL     OW 2673  11.527   0.886   0.690
  589SOL    HW1 2674  11.514   0.929   0.606
  589SOL    HW2 2675  11.568   0.952   0.745
  589SOL     MW 2676  11.529   0.896   0.688
  590SOL     OW 2677  10.826   0.188   1.459
  590SOL    HW1 2678  10.848   0.103   1.422
  590SOL    HW2 2679  10.732   0.182   1.479
  590SOL     MW 2680  10.819   0.180   1.457
  591SOL     OW 2681  10.643   1.588   0.437
  591SOL    HW1 2682  10.628   1.681   0.453
  591SOL    HW2 2683  10.559   1.556   0.404
  591SOL     MW 2684  10.634   1.593   0.435
  592SOL     OW 2685  11.048   3.065   1.129
  592SOL    HW1 2686  10.992   3.093   1.056
  592SOL    HW2 2687  11.134   3.103   1.110
  592SOL     MW 2688  11.051   3.071   1.121
  593SOL     OW 2689  11.054   0.570   0.048
  593SOL    HW1 2690  11.027   0.492   3.199
  593SOL    HW2 2691  11.148   0.560   0.060
  593SOL     MW 2692  11.060   0.562   0.045
  594SOL     OW 2693  11.072   0.850   1.416
  594SOL    HW1 2694  11.098   0.788   1.484
  594SOL    HW2 2695  11.134   0.922   1.422
  594SOL     MW 2696  11.079   0.851   1.423
  595SOL     OW 2697  11.139   0.184   1.458
  595SOL    HW1 2698  11.062   0.200   1.404
  595SOL    HW2 2699  11.137   0.090   1.476
  595SOL     MW 2700  11.132   0.177   1.455
  596SOL     OW 2701  10.313   0.075   0.452
  596SOL    HW1 2702  10.327   0.046   0.361
  596SOL    HW2 2703  10.227   0.040   0.475
  596SOL     MW 2704  10.306   0.069   0.446
  597SOL     OW 2705  10.845   1.653   0.269
  597SOL    HW1 2706  10.772   1.620   0.322
  597SOL    HW2 2707  10.904   1.578   0.261
  597SOL     MW 2708  10.844   1.643   0.273
  598SOL     OW 2709  10.814   0.951   0.010
  598SOL    HW1 2710  10.760   0.882   3.171
  598SOL    HW2 2711  10.759   1.030   0.006
  598SOL     MW 2712  10.804   0.952   0.007
  599SOL     OW 2713  10.366   0.562   0.985
  599SOL    HW1 2714  10.433   0.622   1.018
  599SOL    HW2 2715  10.283   0.605   1.005
  599SOL     MW 2716  10.365   0.571   0.990
  600SOL     OW 2717  10.938   0.083   3.120
  600SOL    HW1 2718  10.872   0.046   3.179
  600SOL    HW2 2719  11.010   0.021   3.121
  600SOL     MW 2720  10.938   0.074   3.126
  601SOL     OW 2721  10.369   1.650   1.488
  601SOL    HW1 2722  10.291   1.664   1.434
  601SOL    HW2 2723  10.419   1.583   1.441
  601SOL     MW 2724  10.367   1.645   1.479
  602SOL     OW 2725  10.885   0.894   0.915
  602SOL    HW1 2726  10.845   0.820   0.960
  602SOL    HW2 2727  10.941   0.854   0.848
  602SOL     MW 2728  10.887   0.883   0.913
  603SOL     OW 2729  10.280   0.766   0.392
  603SOL    HW1 2730  10.354   0.789   0.449
  603SOL    HW2 2731  10.319   0.714   0.322
  603SOL     MW 2732  10.290   0.764   0.391
  604SOL     OW 2733  10.499   0.453   1.682
  604SOL    HW1 2734  10.450   0.534   1.687
  604SOL    HW2 2735  10.552   0.451   1.762
  604SOL     MW 2736  10.499   0.460   1.690
  605SOL     OW 2737  10.863   3.157   1.322
  605SOL    HW1 2738  10.837   3.093   1.389
  605SOL    HW2 2739  10.937   3.115   1.277
  605SOL     MW 2740  10.868   3.147   1.324
  606SOL     OW 2741  10.609   0.477   1.431
  606SOL    HW1 2742  10.681   0.538   1.449
  606SOL    HW2 2743  10.576   0.454   1.518
  606SOL     MW 2744  10.613   0.481   1.441
  607SOL     OW 2745  10.883   1.614   0.780
  607SOL    HW1 2746  10.818   1.672   0.819
  607SOL    HW2 2747  10.906   1.657   0.697
  607SOL     MW 2748  10.880   1.623   0.776
  608SOL     OW 2749  10.317   1.290   0.531
  608SOL    HW1 2750  10.289   1.328   0.614
  608SOL    HW2 2751  10.331   1.197   0.551
  608SOL     MW 2752  10.315   1.285   0.540
  609SOL     OW 2753  11.094   1.364   0.477
  609SOL    HW1 2754  11.152   1.432   0.512
  609SOL    HW2 2755  11.024   1.357   0.541
  609SOL     MW 2756  11.093   1.369   0.486
  610SOL     OW 2757  10.789   1.501   3.013
  610SOL    HW1 2758  10.780   1.580   3.066
  610SOL    HW2 2759  10.809   1.432   3.076
  610SOL     MW 2760  10.790   1.502   3.023
  611SOL     OW 2761  11.245   0.027   0.150
  611SOL    HW1 2762  11.202   3.184   0.076
  611SOL    HW2 2763  11.191   0.104   0.167
  611SOL     MW 2764  11.236   0.030   0.145
  612SOL     OW 2765  11.265   0.508   0.820
  612SOL    HW1 2766  11.284   0.602   0.823
  612SOL    HW2 2767  11.235   0.493   0.730
  612SOL     MW 2768  11.264   0.515   0.812
  613SOL     OW 2769  10.804   0.752   0.659
  613SOL    HW1 2770  10.744   0.774   0.730
  613SOL    HW2 2771  10.823   0.836   0.617
  613SOL     MW 2772  10.800   0.762   0.661
  614SOL     OW 2773  10.549   0.163   1.429
  614SOL    HW1 2774  10.472   0.209   1.461
  614SOL    HW2 2775  10.572   0.208   1.347
  614SOL     MW 2776  10.544   0.171   1.424
  615SOL     OW 2777  11.157   0.456   0.571
  615SOL    HW1 2778  11.075   0.412   0.593
  615SOL    HW2 2779  11.160   0.453   0.475
  615SOL     MW 2780  11.150   0.452   0.564
  616SOL     OW 2781  10.405   1.490   0.367
  616SOL    HW1 2782  10.343   1.480   0.295
  616SOL    HW2 2783  10.385   1.418   0.426
  616SOL     MW 2784  10.398   1.482   0.366
  617SOL     OW 2785  10.912   0.733   0.276
  617SOL    HW1 2786  10.975   0.778   0.220
  617SOL    HW2 2787  10.959   0.718   0.358
  617SOL     MW 2788  10.922   0.736   0.278
  618SOL     OW 2789  11.403   1.773   0.489
  618SOL    HW1 2790  11.360   1.834   0.429
  618SOL    HW2 2791  11.488   1.756   0.448
  618SOL     MW 2792  11.407   1.777   0.480
  619SOL     OW 2793  10.356   1.044   0.635
  619SOL    HW1 2794  10.428   1.085   0.683
  619SOL    HW2 2795  10.395   0.964   0.598
  619SOL     MW 2796  10.366   1.040   0.636
  620SOL     OW 2797  10.723   1.152   1.542
  620SOL    HW1 2798  10.800   1.208   1.542
  620SOL    HW2 2799  10.734   1.095   1.618
  620SOL     MW 2800  10.731   1.152   1.549
  621SOL     OW 2801  10.297   1.376   1.687
  621SOL    HW1 2802  10.386   1.340   1.692
  621SOL    HW2 2803  10.259   1.336   1.609
  621SOL     MW 2804  10.302   1.369   1.680
  622SOL     OW 2805  11.142   3.102   3.135
  622SOL    HW1 2806  11.154   3.123   3.042
  622SOL    HW2 2807  11.130   3.007   3.136
  622SOL     MW 2808  11.142   3.095   3.127
  623SOL     OW 2809  11.156   1.282   1.344
  623SOL    HW1 2810  11.071   1.292   1.386
  623SOL    HW2 2811  11.171   1.365   1.299
  623SOL     MW 2812  11.150   1.290   1.344
  624SOL     OW 2813  10.499   3.146   1.578
  624SOL    HW1 2814  10.407   3.123   1.561
  624SOL    HW2 2815  10.515   0.022   1.522
  624SOL     MW 2816  10.492   3.151   1.571
  625SOL     OW 2817  10.595   1.401   0.889
  625SOL    HW1 2818  10.654   1.436   0.956
  625SOL    HW2 2819  10.508   1.408   0.928
  625SOL     MW 2820  10.592   1.405   0.899
  626SOL     OW 2821  10.975   1.536   1.036
  626SOL    HW1 2822  10.962   1.559   0.944
  626SOL    HW2 2823  10.887   1.522   1.070
  626SOL     MW 2824  10.966   1.537   1.030
  627SOL     OW 2825  10.679   0.740   3.111
  627SOL    HW1 2826  10.585   0.741   3.125
  627SOL    HW2 2827  10.690   0.715   3.019
  627SOL     MW 2828  10.672   0.738   3.104
  628SOL     OW 2829  11.328   0.815   0.065
  628SOL    HW1 2830  11.234   0.828   0.063
  628SOL    HW2 2831  11.362   0.891   0.113
  628SOL     MW 2832  11.323   0.823   0.070
  629SOL     OW 2833  10.826   1.136   0.810
  629SOL    HW1 2834  10.847   1.059   0.862
  629SOL    HW2 2835  10.731   1.135   0.802
  629SOL     MW 2836  10.820   1.129   0.814
  630SOL     OW 2837  10.200   1.246   1.461
  630SOL    HW1 2838  10.252   1.172   1.429
  630SOL    HW2 2839  10.115   1.207   1.484
  630SOL     MW 2840  10.197   1.236   1.460
  631SOL     OW 2841  10.946   3.113   0.510
  631SOL    HW1 2842  10.946   3.175   0.583
  631SOL    HW2 2843  11.034   3.121   0.472
  631SOL     MW 2844  10.954   3.119   0.513
  632SOL     OW 2845  11.175   1.525   1.222
  632SOL    HW1 2846  11.104   1.528   1.157
  632SOL    HW2 2847  11.252   1.556   1.175
  632SOL     MW 2848  11.175   1.528   1.212
  633SOL     OW 2849  11.246   1.565   0.581
  633SOL    HW1 2850  11.299   1.633   0.538
  633SOL    HW2 2851  11.244   1.592   0.673
  633SOL     MW 2852  11.250   1.574   0.585
  634SOL     OW 2853  10.852   0.579   1.742
  634SOL    HW1 2854  10.902   0.513   1.695
  634SOL    HW2 2855  10.790   0.530   1.795
  634SOL     MW 2856  10.851   0.569   1.743
  635SOL     OW 2857  11.194   3.104   1.474
  635SOL    HW1 2858  11.200   3.014   1.443
  635SOL    HW2 2859  11.272   3.147   1.441
  635SOL     MW 2860  11.201   3.100   1.468
  636SOL     OW 2861  10.607   0.349   0.054
  636SOL    HW1 2862  10.534   0.346   0.117
  636SOL    HW2 2863  10.660   0.423   0.082
  636SOL     MW 2864  10.605   0.355   0.062
  637SOL     OW 2865  10.570   0.063   0.540
  637SOL    HW1 2866  10.597   0.155   0.547
  637SOL    HW2 2867  10.479   0.068   0.511
  637SOL     MW 2868  10.564   0.072   0.538
  638SOL     OW 2869  10.338   1.036   1.359
  638SOL    HW1 2870  10.402   0.976   1.399
  638SOL    HW2 2871  10.272   0.978   1.321
  638SOL     MW 2872  10.338   1.025   1.359
  639SOL     OW 2873  10.714   0.304   1.241
  639SOL    HW1 2874  10.671   0.382   1.277
  639SOL    HW2 2875  10.773   0.276   1.311
  639SOL     MW 2876  10.715   0.309   1.251
  640SOL     OW 2877  11.318   0.542   0.099
  640SOL    HW1 2878  11.337   0.498   0.016
  640SOL    HW2 2879  11.344   0.633   0.084
  640SOL     MW 2880  11.322   0.547   0.090
  641SOL     OW 2881  10.498   0.824   0.545
  641SOL    HW1 2882  10.568   0.850   0.485
  641SOL    HW2 2883  10.515   0.731   0.563
  641SOL     MW 2884  10.506   0.818   0.541
  642SOL     OW 2885  11.228   0.119   0.638
  642SOL    HW1 2886  11.227   0.070   0.555
  642SOL    HW2 2887  11.270   0.202   0.616
  642SOL     MW 2888  11.231   0.122   0.628
  643SOL     OW 2889  11.089   1.385   3.024
  643SOL    HW1 2890  11.142   1.310   2.998
  643SOL    HW2 2891  11.058   1.423   2.942
  643SOL     MW 2892  11.091   1.382   3.014
  644SOL     OW 2893  10.222   1.387   0.761
  644SOL    HW1 2894  10.259   1.378   0.849
  644SOL    HW2 2895  10.130   1.408   0.775
  644SOL     MW 2896  10.217   1.388   0.770
  645SOL     OW 2897  10.644   0.266   0.870
  645SOL    HW1 2898  10.644   0.171   0.856
  645SOL    HW2 2899  10.573   0.281   0.932
  645SOL     MW 2900  10.638   0.259   0.874
  646SOL     OW 2901  11.384   0.076   1.385
  646SOL    HW1 2902  11.320   0.142   1.411
  646SOL    HW2 2903  11.411   0.104   1.297
  646SOL     MW 2904  11.380   0.085   1.379
  647SOL     OW 2905  10.640   0.002   0.798
  647SOL    HW1 2906  10.569   3.157   0.843
  647SOL    HW2 2907  10.611   0.008   0.707
  647SOL     MW 2908  10.631   3.198   0.794
  648SOL     OW 2909  10.753   1.538   1.502
  648SOL    HW1 2910  10.674   1.529   1.449
  648SOL    HW2 2911  10.722   1.564   1.589
  648SOL     MW 2912  10.743   1.540   1.505
  649SOL     OW 2913  11.314   0.779   0.818
  649SOL    HW1 2914  11.319   0.824   0.902
  649SOL    HW2 2915  11.393   0.806   0.771
  649SOL     MW 2916  11.321   0.785   0.821
  650SOL     OW 2917  11.447   0.156   1.130
  650SOL    HW1 2918  11.537   0.187   1.117
  650SOL    HW2 2919  11.393   0.219   1.081
  650SOL     MW 2920  11.450   0.165   1.124
  651SOL     OW 2921  11.483   3.096   0.073
  651SOL    HW1 2922  11.533   3.153   0.131
  651SOL    HW2 2923  11.393   3.130   0.078
  651SOL     MW 2924  11.479   3.104   0.079
  652SOL     OW 2925  10.873   3.186   0.944
  652SOL    HW1 2926  10.822   0.021   1.017
  652SOL    HW2 2927  10.808   3.168   0.876
  652SOL     MW 2928  10.862   3.187   0.945
  653SOL     OW 2929  10.707   1.529   1.113
  653SOL    HW1 2930  10.726   1.620   1.136
  653SOL    HW2 2931  10.650   1.498   1.184
  653SOL     MW 2932  10.704   1.534   1.122
  654SOL     OW 2933  10.807   0.921   1.419
  654SOL    HW1 2934  10.901   0.909   1.407
  654SOL    HW2 2935  10.798   1.011   1.449
  654SOL     MW 2936  10.814   0.928   1.421
  655SOL     OW 2937  11.291   3.147   1.050
  655SOL    HW1 2938  11.328   3.121   0.965
  655SOL    HW2 2939  11.349   0.015   1.082
  655SOL     MW 2940  11.300   3.150   1.045
  656SOL     OW 2941  10.660   1.183   0.024
  656SOL    HW1 2942  10.739   1.237   0.027
  656SOL    HW2 2943  10.645   1.160   0.116
  656SOL     MW 2944  10.666   1.186   0.033
  657SOL     OW 2945  11.240   1.525   0.127
  657SOL    HW1 2946  11.289   1.456   0.083
  657SOL    HW2 2947  11.193   1.570   0.057
  657SOL     MW 2948  11.240   1.523   0.117
  658SOL     OW 2949  10.563   1.595   0.700
  658SOL    HW1 2950  10.588   1.520   0.755
  658SOL    HW2 2951  10.601   1.575   0.615
  658SOL     MW 2952  10.569   1.586   0.698
  659SOL     OW 2953  10.270   1.425   1.257
  659SOL    HW1 2954  10.250   1.361   1.325
  659SOL    HW2 2955  10.185   1.464   1.235
  659SOL     MW 2956  10.260   1.423   1.261
  660SOL     OW 2957  10.793   0.659   1.489
  660SOL    HW1 2958  10.796   0.754   1.479
  660SOL    HW2 2959  10.815   0.644   1.581
  660SOL     MW 2960  10.795   0.666   1.497
  661SOL     OW 2961  10.529   1.245   1.716
  661SOL    HW1 2962  10.588   1.218   1.646
  661SOL    HW2 2963  10.496   1.163   1.753
  661SOL     MW 2964  10.531   1.235   1.713
  662SOL     OW 2965  10.660   0.314   0.602
  662SOL    HW1 2966  10.755   0.325   0.599
  662SOL    HW2 2967  10.639   0.304   0.694
  662SOL     MW 2968  10.667   0.314   0.610
  663SOL     OW 2969  10.164   1.611   1.701
  663SOL    HW1 2970  10.221   1.535   1.698
  663SOL    HW2 2971  10.199   1.671   1.635
  663SOL     MW 2972  10.172   1.610   1.695
  664SOL     OW 2973  10.880   1.362   0.654
  664SOL    HW1 2974  10.877   1.295   0.723
  664SOL    HW2 2975  10.879   1.445   0.700
  664SOL     MW 2976  10.880   1.363   0.664
  665SOL     OW 2977  10.357   3.192   0.199
  665SOL    HW1 2978  10.429   0.009   0.138
  665SOL    HW2 2979  10.279   3.187   0.142
  665SOL     MW 2980  10.356   3.193   0.188
  666SOL     OW 2981  10.181   0.485   1.428
  666SOL    HW1 2982  10.226   0.531   1.356
  666SOL    HW2 2983  10.100   0.452   1.388
  666SOL     MW 2984  10.178   0.486   1.418
  667SOL     OW 2985  11.395   1.057   0.167
  667SOL    HW1 2986  11.334   1.108   0.220
  667SOL    HW2 2987  11.407   1.109   0.088
  667SOL     MW 2988  11.390   1.066   0.165
  668SOL     OW 2989  11.199   3.164   0.414
  668SOL    HW1 2990  11.265   3.097   0.432
  668SOL    HW2 2991  11.208   3.183   0.320
  668SOL     MW 2992  11.206   3.160   0.407
  669SOL     OW 2993  10.439   0.660   1.345
  669SOL    HW1 2994  10.465   0.685   1.257
  669SOL    HW2 2995  10.497   0.588   1.368
  669SOL     MW 2996  10.446   0.656   1.340
  670SOL     OW 2997  10.323   0.657   1.595
  670SOL    HW1 2998  10.254   0.595   1.572
  670SOL    HW2 2999  10.373   0.670   1.514
  670SOL     MW 3000  10.322   0.652   1.586
  671SOL     OW 3001  10.484   3.117   1.016
  671SOL    HW1 3002  10.548   3.176   1.054
  671SOL    HW2 3003  10.502   3.033   1.058
  671SOL     MW 3004  10.491   3.115   1.024
  672SOL     OW 3005  10.449   0.621   0.219
  672SOL    HW1 3006  10.544   0.623   0.213
  672SOL    HW2 3007  10.426   0.528   0.221
  672SOL     MW 3008  10.455   0.613   0.219
  673SOL     OW 3009  10.326   0.349   0.476
  673SOL    HW1 3010  10.353   0.376   0.564
  673SOL    HW2 3011  10.315   0.254   0.482
  673SOL     MW 3012  10.327   0.343   0.485
  674SOL     OW 3013  10.792   0.669   1.040
  674SOL    HW1 3014  10.811   0.592   0.986
  674SOL    HW2 3015  10.850   0.660   1.116
  674SOL     MW 3016  10.799   0.661   1.042
  675SOL     OW 3017  10.692   0.055   1.137
  675SOL    HW1 3018  10.689   0.149   1.154
  675SOL    HW2 3019  10.748   0.020   1.207
  675SOL     MW 3020  10.697   0.060   1.145
  676SOL     OW 3021  10.176   0.847   3.166
  676SOL    HW1 3022  10.150   0.933   3.199
  676SOL    HW2 3023  10.130   0.784   0.022
  676SOL     MW 3024  10.170   0.849   3.174
  677SOL     OW 3025  10.804   1.707   0.003
  677SOL    HW1 3026  10.712   1.730   3.194
  677SOL    HW2 3027  10.817   1.692   0.097
  677SOL     MW 3028  10.797   1.708   0.010
  678SOL     OW 3029  10.946   0.648   1.260
  678SOL    HW1 3030  11.007   0.718   1.284
  678SOL    HW2 3031  10.895   0.633   1.340
  678SOL     MW 3032  10.947   0.653   1.270
  679SOL     OW 3033  10.538   0.883   1.459
  679SOL    HW1 3034  10.513   0.800   1.418
  679SOL    HW2 3035  10.628   0.897   1.431
  679SOL     MW 3036  10.544   0.877   1.453
  680SOL     OW 3037  10.711   1.194   0.503
  680SOL    HW1 3038  10.771   1.120   0.513
  680SOL    HW2 3039  10.763   1.270   0.529
  680SOL     MW 3040  10.721   1.194   0.506
  681SOL     OW 3041  10.923   0.352   0.653
  681SOL    HW1 3042  10.906   0.393   0.738
  681SOL    HW2 3043  10.939   0.260   0.673
  681SOL     MW 3044  10.923   0.347   0.662
  682SOL     OW 3045  11.131   0.893   0.652
  682SOL    HW1 3046  11.196   0.861   0.714
  682SOL    HW2 3047  11.110   0.817   0.598
  682SOL     MW 3048  11.135   0.883   0.653
  683SOL     OW 3049  11.054   0.839   0.042
  683SOL    HW1 3050  11.036   0.746   0.030
  683SOL    HW2 3051  10.968   0.881   0.034
  683SOL     MW 3052  11.045   0.834   0.040
  684SOL     OW 3053  10.382   0.477   0.727
  684SOL    HW1 3054  10.387   0.505   0.818
  684SOL    HW2 3055  10.456   0.520   0.684
  684SOL     MW 3056  10.389   0.484   0.731
  685SOL     OW 3057  11.148   0.470   0.300
  685SOL    HW1 3058  11.076   0.514   0.255
  685SOL    HW2 3059  11.226   0.492   0.248
  685SOL     MW 3060  11.149   0.476   0.291
  686SOL     OW 3061  10.340   0.289   1.535
  686SOL    HW1 3062  10.278   0.351   1.496
  686SOL    HW2 3063  10.388   0.341   1.599
  686SOL     MW 3064  10.338   0.300   1.537
  687SOL     OW 3065  11.346   0.915   1.050
  687SOL    HW1 3066  11.371   0.875   1.133
  687SOL    HW2 3067  11.299   0.995   1.075
  687SOL     MW 3068  11.344   0.919   1.060
  688SOL     OW 3069  11.009   1.444   0.234
  688SOL    HW1 3070  11.094   1.473   0.201
  688SOL    HW2 3071  11.028   1.410   0.322
  688SOL     MW 3072  11.018   1.444   0.239
  689SOL     OW 3073  10.210   3.128   1.051
  689SOL    HW1 3074  10.181   3.051   1.001
  689SOL    HW2 3075  10.304   3.132   1.036
  689SOL     MW 3076  10.216   3.121   1.045
  690SOL     OW 3077  10.559   1.201   1.326
  690SOL    HW1 3078  10.483   1.143   1.335
  690SOL    HW2 3079  10.618   1.174   1.397
  690SOL     MW 3080  10.558   1.193   1.333
  691SOL     OW 3081  10.555   0.058   0.014
  691SOL    HW1 3082  10.577   0.152   0.017
  691SOL    HW2 3083  10.541   0.040   3.121
  691SOL     MW 3084  10.556   0.065   0.006
  692SOL     OW 3085  10.213   1.427   0.183
  692SOL    HW1 3086  10.156   1.478   0.126
  692SOL    HW2 3087  10.154   1.389   0.248
  692SOL     MW 3088  10.203   1.428   0.183
  693SOL     OW 3089  10.698   0.871   2.138
  693SOL    HW1 3090  10.793   0.871   2.138
  693SOL    HW2 3091  10.673   0.960   2.115
  693SOL     MW 3092  10.704   0.879   2.136
  694SOL     OW 3093  10.950   0.312   2.218
  694SOL    HW1 3094  10.957   0.407   2.216
  694SOL    HW2 3095  10.921   0.288   2.130
  694SOL     MW 3096  10.948   0.318   2.210
  695SOL     OW 3097  10.403   0.458   2.128
  695SOL    HW1 3098  10.486   0.506   2.137
  695SOL    HW2 3099  10.396   0.409   2.210
  695SOL     MW 3100  10.410   0.458   2.137
  696SOL     OW 3101  10.755   0.160   2.314
  696SOL    HW1 3102  10.832   0.214   2.299
  696SOL    HW2 3103  10.704   0.168   2.234
  696SOL     MW 3104  10.757   0.166   2.306
  697SOL     OW 3105  10.870   1.033   2.386
  697SOL    HW1 3106  10.949   1.064   2.431
  697SOL    HW2 3107  10.904   0.981   2.313
  697SOL     MW 3108  10.880   1.031   2.384
  698SOL     OW 3109  10.888   1.337   0.010
  698SOL    HW1 3110  10.923   1.366   0.094
  698SOL    HW2 3111  10.965   1.331   3.153
  698SOL     MW 3112  10.898   1.339   0.013
  699SOL     OW 3113  10.708   0.591   2.395
  699SOL    HW1 3114  10.713   0.507   2.441
  699SOL    HW2 3115  10.761   0.650   2.448
  699SOL     MW 3116  10.713   0.589   2.404
  700SOL     OW 3117  10.782   0.358   2.783
  700SOL    HW1 3118  10.760   0.355   2.689
  700SOL    HW2 3119  10.829   0.277   2.799
  700SOL     MW 3120  10.784   0.351   2.776
  701SOL     OW 3121  10.532   0.816   2.605
  701SOL    HW1 3122  10.525   0.815   2.510
  701SOL    HW2 3123  10.486   0.895   2.632
  701SOL     MW 3124  10.528   0.823   2.599
  702SOL     OW 3125  11.052   0.796   2.397
  702SOL    HW1 3126  10.984   0.776   2.462
  702SOL    HW2 3127  11.123   0.735   2.418
  702SOL     MW 3128  11.052   0.789   2.405
  703SOL     OW 3129  10.446   1.366   3.193
  703SOL    HW1 3130  10.385   1.357   0.067
  703SOL    HW2 3131  10.514   1.301   0.010
  703SOL     MW 3132  10.446   1.359   0.001
  704SOL     OW 3133  11.056   1.169   2.112
  704SOL    HW1 3134  11.021   1.214   2.189
  704SOL    HW2 3135  11.025   1.078   2.122
  704SOL     MW 3136  11.050   1.165   2.120
  705SOL     OW 3137  10.664   0.202   2.051
  705SOL    HW1 3138  10.697   0.121   2.013
  705SOL    HW2 3139  10.570   0.202   2.030
  705SOL     MW 3140  10.658   0.195   2.046
  706SOL     OW 3141  10.380   1.194   2.056
  706SOL    HW1 3142  10.359   1.276   2.012
  706SOL    HW2 3143  10.351   1.207   2.146
  706SOL     MW 3144  10.376   1.202   2.060
  707SOL     OW 3145  11.099   1.521   1.989
  707SOL    HW1 3146  11.044   1.534   2.066
  707SOL    HW2 3147  11.037   1.503   1.918
  707SOL     MW 3148  11.089   1.520   1.990
  708SOL     OW 3149  10.403   1.581   3.040
  708SOL    HW1 3150  10.411   1.504   3.097
  708SOL    HW2 3151  10.449   1.650   3.087
  708SOL     MW 3152  10.408   1.580   3.049
  709SOL     OW 3153  11.254   0.510   2.207
  709SOL    HW1 3154  11.320   0.547   2.147
  709SOL    HW2 3155  11.269   0.416   2.204
  709SOL     MW 3156  11.261   0.505   2.201
  710SOL     OW 3157  10.647   1.518   2.403
  710SOL    HW1 3158  10.635   1.611   2.422
  710SOL    HW2 3159  10.599   1.504   2.321
  710SOL     MW 3160  10.642   1.525   2.397
  711SOL     OW 3161  11.141   3.176   2.880
  711SOL    HW1 3162  11.079   0.040   2.846
  711SOL    HW2 3163  11.226   0.005   2.847
  711SOL     MW 3164  11.143   3.184   2.874
  712SOL     OW 3165  11.224   0.584   1.861
  712SOL    HW1 3166  11.233   0.491   1.842
  712SOL    HW2 3167  11.301   0.606   1.914
  712SOL     MW 3168  11.232   0.578   1.864
  713SOL     OW 3169  11.227   0.503   2.838
  713SOL    HW1 3170  11.260   0.584   2.799
  713SOL    HW2 3171  11.133   0.517   2.849
  713SOL     MW 3172  11.222   0.511   2.836
  714SOL     OW 3173  10.384   0.034   2.339
  714SOL    HW1 3174  10.407   0.007   2.250
  714SOL    HW2 3175  10.314   3.175   2.365
  714SOL     MW 3176  10.380   0.026   2.333
  715SOL     OW 3177  10.701   1.620   2.060
  715SOL    HW1 3178  10.639   1.556   2.094
  715SOL    HW2 3179  10.784   1.597   2.102
  715SOL     MW 3180  10.703   1.612   2.067
  716SOL     OW 3181  10.371   0.588   2.936
  716SOL    HW1 3182  10.402   0.612   3.024
  716SOL    HW2 3183  10.292   0.639   2.923
  716SOL     MW 3184  10.367   0.595   2.943
  717SOL     OW 3185  10.945   0.790   2.825
  717SOL    HW1 3186  10.950   0.697   2.848
  717SOL    HW2 3187  10.904   0.791   2.738
  717SOL     MW 3188  10.942   0.782   2.819
  718SOL     OW 3189  10.257   0.807   2.318
  718SOL    HW1 3190  10.352   0.795   2.325
  718SOL    HW2 3191  10.229   0.741   2.254
  718SOL     MW 3192  10.263   0.800   2.313
  719SOL     OW 3193  10.809   1.656   2.658
  719SOL    HW1 3194  10.887   1.630   2.707
  719SOL    HW2 3195  10.843   1.713   2.589
  719SOL     MW 3196  10.819   1.659   2.656
  720SOL     OW 3197  10.309   1.293   2.303
  720SOL    HW1 3198  10.294   1.361   2.368
  720SOL    HW2 3199  10.298   1.211   2.351
  720SOL     MW 3200  10.307   1.292   2.313
  721SOL     OW 3201  11.023   1.323   2.352
  721SOL    HW1 3202  11.112   1.304   2.381
  721SOL    HW2 3203  10.976   1.349   2.432
  721SOL     MW 3204  11.026   1.324   2.362
  722SOL     OW 3205  10.904   1.475   1.809
  722SOL    HW1 3206  10.837   1.540   1.790
  722SOL    HW2 3207  10.854   1.399   1.840
  722SOL     MW 3208  10.893   1.474   1.810
  723SOL     OW 3209  11.034   0.348   3.094
  723SOL    HW1 3210  11.000   0.260   3.111
  723SOL    HW2 3211  11.129   0.337   3.089
  723SOL     MW 3212  11.040   0.339   3.095
  724SOL     OW 3213  11.312   0.716   2.702
  724SOL    HW1 3214  11.379   0.784   2.708
  724SOL    HW2 3215  11.305   0.697   2.609
  724SOL     MW 3216  11.317   0.720   2.694
  725SOL     OW 3217  10.808   0.808   2.554
  725SOL    HW1 3218  10.719   0.811   2.590
  725SOL    HW2 3219  10.817   0.891   2.506
  725SOL     MW 3220  10.801   0.816   2.553
  726SOL     OW 3221  11.247   0.614   2.455
  726SOL    HW1 3222  11.253   0.534   2.507
  726SOL    HW2 3223  11.260   0.585   2.365
  726SOL     MW 3224  11.249   0.604   2.451
  727SOL     OW 3225  10.496   1.465   2.172
  727SOL    HW1 3226  10.443   1.473   2.093
  727SOL    HW2 3227  10.450   1.400   2.226
  727SOL     MW 3228  10.487   1.460   2.170
  728SOL     OW 3229  10.981   0.892   2.151
  728SOL    HW1 3230  10.989   0.835   2.075
  728SOL    HW2 3231  11.012   0.839   2.224
  728SOL     MW 3232  10.984   0.883   2.151
  729SOL     OW 3233  11.315   1.571   2.273
  729SOL    HW1 3234  11.299   1.489   2.225
  729SOL    HW2 3235  11.368   1.623   2.213
  729SOL     MW 3236  11.318   1.568   2.263
  730SOL     OW 3237  10.253   1.060   2.431
  730SOL    HW1 3238  10.302   1.052   2.513
  730SOL    HW2 3239  10.259   0.973   2.391
  730SOL     MW 3240  10.258   1.052   2.434
  731SOL     OW 3241  11.132   3.113   1.739
  731SOL    HW1 3242  11.160   3.108   1.648
  731SOL    HW2 3243  11.040   3.086   1.738
  731SOL     MW 3244  11.126   3.110   1.731
  732SOL     OW 3245  10.563   1.455   2.865
  732SOL    HW1 3246  10.645   1.470   2.912
  732SOL    HW2 3247  10.497   1.502   2.916
  732SOL     MW 3248  10.565   1.461   2.874
  733SOL     OW 3249  10.976   1.503   2.812
  733SOL    HW1 3250  10.951   1.449   2.737
  733SOL    HW2 3251  10.900   1.501   2.870
  733SOL     MW 3252  10.967   1.498   2.810
  734SOL     OW 3253  10.640   0.950   1.711
  734SOL    HW1 3254  10.570   0.965   1.775
  734SOL    HW2 3255  10.595   0.914   1.635
  734SOL     MW 3256  10.629   0.948   1.710
  735SOL     OW 3257  11.310   0.888   2.110
  735SOL    HW1 3258  11.215   0.902   2.113
  735SOL    HW2 3259  11.347   0.965   2.153
  735SOL     MW 3260  11.304   0.896   2.114
  736SOL     OW 3261  10.712   1.199   2.628
  736SOL    HW1 3262  10.650   1.192   2.701
  736SOL    HW2 3263  10.657   1.199   2.550
  736SOL     MW 3264  10.701   1.199   2.627
  737SOL     OW 3265  10.894   3.111   2.292
  737SOL    HW1 3266  10.854   3.197   2.301
  737SOL    HW2 3267  10.985   3.129   2.269
  737SOL     MW 3268  10.899   3.120   2.291
  738SOL     OW 3269  10.640   1.134   2.100
  738SOL    HW1 3270  10.657   1.170   2.187
  738SOL    HW2 3271  10.548   1.156   2.082
  738SOL     MW 3272  10.633   1.139   2.106
  739SOL     OW 3273  11.417   1.662   2.514
  739SOL    HW1 3274  11.374   1.620   2.439
  739SOL    HW2 3275  11.346   1.704   2.562
  739SOL     MW 3276  11.407   1.662   2.512
  740SOL     OW 3277  10.672   0.443   1.901
  740SOL    HW1 3278  10.665   0.503   1.976
  740SOL    HW2 3279  10.680   0.356   1.941
  740SOL     MW 3280  10.672   0.440   1.911
  741SOL     OW 3281  11.116   0.931   2.987
  741SOL    HW1 3282  11.088   0.904   3.074
  741SOL    HW2 3283  11.056   0.887   2.927
  741SOL     MW 3284  11.108   0.925   2.990
  742SOL     OW 3285  10.611   0.016   2.498
  742SOL    HW1 3286  10.669   0.058   2.435
  742SOL    HW2 3287  10.526   0.011   2.454
  742SOL     MW 3288  10.608   0.019   2.489
  743SOL     OW 3289  11.419   0.651   2.041
  743SOL    HW1 3290  11.513   0.666   2.031
  743SOL    HW2 3291  11.383   0.737   2.066
  743SOL     MW 3292  11.424   0.660   2.042
  744SOL     OW 3293  10.527   0.786   2.338
  744SOL    HW1 3294  10.578   0.832   2.272
  744SOL    HW2 3295  10.577   0.706   2.356
  744SOL     MW 3296  10.536   0.783   2.334
  745SOL     OW 3297  11.115   1.407   1.664
  745SOL    HW1 3298  11.148   1.335   1.718
  745SOL    HW2 3299  11.042   1.444   1.714
  745SOL     MW 3300  11.111   1.403   1.673
  746SOL     OW 3301  10.251   1.481   2.483
  746SOL    HW1 3302  10.328   1.469   2.539
  746SOL    HW2 3303  10.176   1.461   2.539
  746SOL     MW 3304  10.251   1.478   2.493
  747SOL     OW 3305  10.174   0.602   2.158
  747SOL    HW1 3306  10.138   0.552   2.231
  747SOL    HW2 3307  10.255   0.557   2.136
  747SOL     MW 3308  10.178   0.594   2.163
  748SOL     OW 3309  11.274   1.252   2.457
  748SOL    HW1 3310  11.279   1.203   2.539
  748SOL    HW2 3311  11.337   1.323   2.467
  748SOL     MW 3312  11.280   1.254   2.465
  749SOL     OW 3313  10.621   0.268   2.992
  749SOL    HW1 3314  10.621   0.317   3.074
  749SOL    HW2 3315  10.672   0.323   2.932
  749SOL     MW 3316  10.626   0.277   2.994
  750SOL     OW 3317  10.725   3.154   2.736
  750SOL    HW1 3318  10.763   3.067   2.720
  750SOL    HW2 3319  10.683   3.178   2.654
  750SOL     MW 3320  10.724   3.148   2.727
  751SOL     OW 3321  11.471   0.929   2.749
  751SOL    HW1 3322  11.454   0.919   2.843
  751SOL    HW2 3323  11.418   1.004   2.724
  751SOL     MW 3324  11.465   0.935   2.755
  752SOL     OW 3325  11.316   0.393   3.066
  752SOL    HW1 3326  11.291   0.437   2.985
  752SOL    HW2 3327  11.380   0.327   3.039
  752SOL     MW 3328  11.319   0.391   3.057
  753SOL     OW 3329  11.265   3.126   1.972
  753SOL    HW1 3330  11.316   0.008   1.969
  753SOL    HW2 3331  11.221   3.122   1.888
  753SOL     MW 3332  11.266   3.133   1.964
  754SOL     OW 3333  10.529   1.187   2.830
  754SOL    HW1 3334  10.545   1.153   2.918
  754SOL    HW2 3335  10.529   1.282   2.841
  754SOL     MW 3336  10.531   1.192   2.839
  755SOL     OW 3337  10.907   0.127   2.845
  755SOL    HW1 3338  10.905   0.112   2.940
  755SOL    HW2 3339  10.847   0.063   2.809
  755SOL     MW 3340  10.902   0.120   2.851
  756SOL     OW 3341  11.443   1.145   3.107
  756SOL    HW1 3342  11.535   1.168   3.091
  756SOL    HW2 3343  11.435   1.055   3.077
  756SOL     MW 3344  11.451   1.139   3.103
  757SOL     OW 3345  11.398   0.033   2.820
  757SOL    HW1 3346  11.449   0.012   2.741
  757SOL    HW2 3347  11.431   3.171   2.886
  757SOL     MW 3348  11.406   0.025   2.819
  758SOL     OW 3349  10.742   1.274   1.886
  758SOL    HW1 3350  10.719   1.223   1.963
  758SOL    HW2 3351  10.664   1.273   1.831
  758SOL     MW 3352  10.733   1.269   1.888
  759SOL     OW 3353  11.263   1.351   2.117
  759SOL    HW1 3354  11.202   1.277   2.120
  759SOL    HW2 3355  11.224   1.412   2.055
  759SOL     MW 3356  11.254   1.349   2.111
  760SOL     OW 3357  10.482   1.437   2.606
  760SOL    HW1 3358  10.518   1.456   2.692
  760SOL    HW2 3359  10.549   1.467   2.545
  760SOL     MW 3360  10.491   1.441   2.608
  761SOL     OW 3361  10.715   0.593   0.139
  761SOL    HW1 3362  10.712   0.643   0.057
  761SOL    HW2 3363  10.787   0.631   0.188
  761SOL     MW 3364  10.721   0.601   0.136
  762SOL     OW 3365  10.702   0.350   2.518
  762SOL    HW1 3366  10.717   0.279   2.456
  762SOL    HW2 3367  10.609   0.345   2.538
  762SOL     MW 3368  10.695   0.343   2.514
  763SOL     OW 3369  10.885   1.394   2.576
  763SOL    HW1 3370  10.825   1.324   2.601
  763SOL    HW2 3371  10.830   1.472   2.569
  763SOL     MW 3372  10.875   1.395   2.578
  764SOL     OW 3373  11.212   0.228   2.209
  764SOL    HW1 3374  11.201   0.135   2.228
  764SOL    HW2 3375  11.124   0.265   2.219
  764SOL     MW 3376  11.203   0.223   2.212
  765SOL     OW 3377  10.421   3.137   2.086
  765SOL    HW1 3378  10.441   3.163   1.997
  765SOL    HW2 3379  10.325   3.129   2.088
  765SOL     MW 3380  10.414   3.138   2.079
  766SOL     OW 3381  11.378   1.123   2.231
  766SOL    HW1 3382  11.346   1.152   2.316
  766SOL    HW2 3383  11.371   1.201   2.176
  766SOL     MW 3384  11.375   1.133   2.234
  767SOL     OW 3385  11.156   3.162   2.220
  767SOL    HW1 3386  11.209   3.101   2.271
  767SOL    HW2 3387  11.181   3.146   2.129
  767SOL     MW 3388  11.163   3.155   2.217
  768SOL     OW 3389  10.419   0.722   3.171
  768SOL    HW1 3390  10.338   0.771   3.167
  768SOL    HW2 3391  10.421   0.687   0.060
  768SOL     MW 3392  10.412   0.723   3.179
  769SOL     OW 3393  10.548   0.020   2.934
  769SOL    HW1 3394  10.568   0.113   2.948
  769SOL    HW2 3395  10.613   3.191   2.870
  769SOL     MW 3396  10.556   0.026   2.930
  770SOL     OW 3397  10.646   0.595   2.125
  770SOL    HW1 3398  10.656   0.689   2.110
  770SOL    HW2 3399  10.689   0.579   2.209
  770SOL     MW 3400  10.650   0.602   2.131
  771SOL     OW 3401  10.343   0.303   2.349
  771SOL    HW1 3402  10.380   0.322   2.435
  771SOL    HW2 3403  10.351   0.208   2.340
  771SOL     MW 3404  10.347   0.296   2.356
  772SOL     OW 3405  10.961   0.523   2.894
  772SOL    HW1 3406  10.895   0.473   2.846
  772SOL    HW2 3407  10.982   0.470   2.970
  772SOL     MW 3408  10.957   0.514   2.896
  773SOL     OW 3409  10.697   1.640   1.759
  773SOL    HW1 3410  10.651   1.712   1.717
  773SOL    HW2 3411  10.678   1.651   1.852
  773SOL     MW 3412  10.691   1.647   1.764
  774SOL     OW 3413  10.680   1.227   2.348
  774SOL    HW1 3414  10.754   1.170   2.368
  774SOL    HW2 3415  10.711   1.315   2.368
  774SOL     MW 3416  10.689   1.230   2.352
  775SOL     OW 3417  11.001   0.711   1.938
  775SOL    HW1 3418  11.084   0.675   1.910
  775SOL    HW2 3419  10.938   0.683   1.871
  775SOL     MW 3420  11.003   0.706   1.929
  776SOL     OW 3421  11.231   1.174   2.941
  776SOL    HW1 3422  11.306   1.172   3.000
  776SOL    HW2 3423  11.182   1.094   2.961
  776SOL     MW 3424  11.233   1.167   2.948
  777SOL     OW 3425  10.382   0.588   2.670
  777SOL    HW1 3426  10.385   0.583   2.766
  777SOL    HW2 3427  10.433   0.666   2.648
  777SOL     MW 3428  10.387   0.594   2.677
  778SOL     OW 3429  10.993   0.569   2.168
  778SOL    HW1 3430  10.988   0.612   2.083
  778SOL    HW2 3431  11.087   0.559   2.184
  778SOL     MW 3432  11.001   0.572   2.162
  779SOL     OW 3433  11.386   0.901   3.012
  779SOL    HW1 3434  11.388   0.854   3.096
  779SOL    HW2 3435  11.293   0.900   2.987
  779SOL     MW 3436  11.378   0.896   3.017
  780SOL     OW 3437  10.942   1.552   2.204
  780SOL    HW1 3438  10.989   1.622   2.249
  780SOL    HW2 3439  10.963   1.473   2.254
  780SOL     MW 3440  10.948   1.551   2.213
  781SOL     OW 3441  10.350   3.052   2.865
  781SOL    HW1 3442  10.353   3.060   2.770
  781SOL    HW2 3443  10.415   3.114   2.896
  781SOL     MW 3444  10.356   3.058   2.859
  782SOL     OW 3445  10.497   0.025   1.839
  782SOL    HW1 3446  10.458   0.112   1.845
  782SOL    HW2 3447  10.489   0.002   1.746
  782SOL     MW 3448  10.493   0.031   1.831
  783SOL     OW 3449  10.315   1.436   1.958
  783SOL    HW1 3450  10.230   1.474   1.980
  783SOL    HW2 3451  10.311   1.422   1.863
  783SOL     MW 3452  10.307   1.439   1.951
  784SOL     OW 3453  10.629   2.874   0.387
  784SOL    HW1 3454  10.709   2.853   0.435
  784SOL    HW2 3455  10.638   2.967   0.364
  784SOL     MW 3456  10.637   2.881   0.389
  785SOL     OW 3457  10.883   2.176   0.296
  785SOL    HW1 3458  10.895   2.270   0.287
  785SOL    HW2 3459  10.878   2.143   0.206
  785SOL     MW 3460  10.884   2.181   0.287
  786SOL     OW 3461  10.351   2.309   0.263
  786SOL    HW1 3462  10.432   2.352   0.236
  786SOL    HW2 3463  10.355   2.309   0.359
  786SOL     MW 3464  10.358   2.313   0.270
  787SOL     OW 3465  10.655   2.094   0.408
  787SOL    HW1 3466  10.733   2.124   0.362
  787SOL    HW2 3467  10.588   2.089   0.339
  787SOL     MW 3468  10.656   2.097   0.397
  788SOL     OW 3469  10.852   2.857   0.546
  788SOL    HW1 3470  10.931   2.803   0.553
  788SOL    HW2 3471  10.884   2.947   0.542
  788SOL     MW 3472  10.862   2.860   0.546
  789SOL     OW 3473  10.615   2.476   0.498
  789SOL    HW1 3474  10.608   2.393   0.546
  789SOL    HW2 3475  10.683   2.524   0.544
  789SOL     MW 3476  10.620   2.473   0.506
  790SOL     OW 3477  10.903   2.194   0.873
  790SOL    HW1 3478  10.812   2.163   0.864
  790SOL    HW2 3479  10.946   2.127   0.926
  790SOL     MW 3480  10.898   2.185   0.877
  791SOL     OW 3481  10.538   2.618   0.793
  791SOL    HW1 3482  10.500   2.674   0.725
  791SOL    HW2 3483  10.526   2.667   0.874
  791SOL     MW 3484  10.533   2.627   0.794
  792SOL     OW 3485  11.041   2.664   0.609
  792SOL    HW1 3486  10.959   2.629   0.643
  792SOL    HW2 3487  11.099   2.588   0.605
  792SOL     MW 3488  11.039   2.654   0.612
  793SOL     OW 3489  11.228   2.839   1.387
  793SOL    HW1 3490  11.227   2.839   1.292
  793SOL    HW2 3491  11.316   2.811   1.411
  793SOL     MW 3492  11.235   2.836   1.381
  794SOL     OW 3493  10.981   2.210   1.618
  794SOL    HW1 3494  11.068   2.181   1.591
  794SOL    HW2 3495  10.921   2.151   1.572
  794SOL     MW 3496  10.983   2.202   1.612
  795SOL     OW 3497  11.603   2.737   0.859
  795SOL    HW1 3498  11.574   2.655   0.818
  795SOL    HW2 3499  11.692   2.719   0.888
  795SOL     MW 3500  11.609   2.728   0.858
  796SOL     OW 3501  11.203   2.389   0.336
  796SOL    HW1 3502  11.253   2.399   0.255
  796SOL    HW2 3503  11.196   2.295   0.349
  796SOL     MW 3504  11.207   2.382   0.330
  797SOL     OW 3505  10.834   2.036   1.468
  797SOL    HW1 3506  10.864   1.945   1.470
  797SOL    HW2 3507  10.739   2.030   1.460
  797SOL     MW 3508  10.828   2.027   1.468
  798SOL     OW 3509  11.076   2.312   3.189
  798SOL    HW1 3510  11.127   2.238   3.157
  798SOL    HW2 3511  11.141   2.376   0.016
  798SOL     MW 3512  11.086   2.311   3.189
  799SOL     OW 3513  11.079   2.596   1.428
  799SOL    HW1 3514  11.037   2.589   1.514
  799SOL    HW2 3515  11.121   2.681   1.429
  799SOL     MW 3516  11.079   2.603   1.436
  800SOL     OW 3517  11.301   2.323   0.926
  800SOL    HW1 3518  11.343   2.397   0.881
  800SOL    HW2 3519  11.214   2.355   0.949
  800SOL     MW 3520  11.297   2.332   0.924
  801SOL     OW 3521  11.201   2.088   1.520
  801SOL    HW1 3522  11.181   2.081   1.426
  801SOL    HW2 3523  11.222   1.998   1.546
  801SOL     MW 3524  11.201   2.079   1.514
  802SOL     OW 3525  10.383   1.946   0.546
  802SOL    HW1 3526  10.384   1.981   0.457
  802SOL    HW2 3527  10.312   1.882   0.547
  802SOL     MW 3528  10.377   1.944   0.538
  803SOL     OW 3529  10.385   2.080   0.784
  803SOL    HW1 3530  10.293   2.081   0.812
  803SOL    HW2 3531  10.385   2.030   0.703
  803SOL     MW 3532  10.377   2.076   0.780
  804SOL     OW 3533  10.842   2.859   0.013
  804SOL    HW1 3534  10.762   2.833   3.166
  804SOL    HW2 3535  10.824   2.949   0.041
  804SOL     MW 3536  10.833   2.865   0.011
  805SOL     OW 3537  10.889   1.930   3.059
  805SOL    HW1 3538  10.855   1.855   3.107
  805SOL    HW2 3539  10.980   1.906   3.039
  805SOL     MW 3540  10.894   1.921   3.062
  806SOL     OW 3541  10.473   2.278   1.663
  806SOL    HW1 3542  10.394   2.315   1.701
  806SOL    HW2 3543  10.543   2.304   1.722
  806SOL     MW 3544  10.473   2.284   1.671
  807SOL     OW 3545  10.901   1.766   1.446
  807SOL    HW1 3546  10.842   1.694   1.470
  807SOL    HW2 3547  10.989   1.729   1.456
  807SOL     MW 3548  10.903   1.756   1.449
  808SOL     OW 3549  10.490   2.386   1.410
  808SOL    HW1 3550  10.576   2.426   1.399
  808SOL    HW2 3551  10.493   2.345   1.496
  808SOL     MW 3552  10.498   2.386   1.417
  809SOL     OW 3553  11.147   2.074   1.255
  809SOL    HW1 3554  11.064   2.117   1.238
  809SOL    HW2 3555  11.213   2.138   1.229
  809SOL     MW 3556  11.146   2.083   1.252
  810SOL     OW 3557  11.393   2.540   0.785
  810SOL    HW1 3558  11.356   2.622   0.817
  810SOL    HW2 3559  11.336   2.514   0.713
  810SOL     MW 3560  11.384   2.545   0.782
  811SOL     OW 3561  10.775   2.621   0.662
  811SOL    HW1 3562  10.703   2.616   0.725
  811SOL    HW2 3563  10.779   2.713   0.636
  811SOL     MW 3564  10.769   2.629   0.665
  812SOL     OW 3565  10.570   2.010   1.404
  812SOL    HW1 3566  10.486   2.050   1.426
  812SOL    HW2 3567  10.583   2.031   1.311
  812SOL     MW 3568  10.564   2.016   1.398
  813SOL     OW 3569  11.205   2.450   0.602
  813SOL    HW1 3570  11.169   2.368   0.635
  813SOL    HW2 3571  11.216   2.436   0.508
  813SOL     MW 3572  11.203   2.441   0.596
  814SOL     OW 3573  11.388   1.828   0.758
  814SOL    HW1 3574  11.397   1.815   0.664
  814SOL    HW2 3575  11.352   1.916   0.766
  814SOL     MW 3576  11.386   1.835   0.750
  815SOL     OW 3577  10.249   2.884   0.583
  815SOL    HW1 3578  10.287   2.963   0.545
  815SOL    HW2 3579  10.317   2.817   0.572
  815SOL     MW 3580  10.258   2.885   0.578
  816SOL     OW 3581  10.735   3.015   1.521
  816SOL    HW1 3582  10.652   3.055   1.545
  816SOL    HW2 3583  10.787   3.016   1.601
  816SOL     MW 3584  10.732   3.019   1.530
  817SOL     OW 3585  11.151   1.860   3.028
  817SOL    HW1 3586  11.230   1.842   2.978
  817SOL    HW2 3587  11.131   1.777   3.073
  817SOL     MW 3588  11.156   1.851   3.028
  818SOL     OW 3589  10.565   1.808   1.590
  818SOL    HW1 3590  10.493   1.754   1.558
  818SOL    HW2 3591  10.573   1.879   1.525
  818SOL     MW 3592  10.560   1.810   1.581
  819SOL     OW 3593  10.607   2.754   3.117
  819SOL    HW1 3594  10.570   2.771   0.004
  819SOL    HW2 3595  10.642   2.665   3.123
  819SOL     MW 3596  10.607   2.747   3.126
  820SOL     OW 3597  11.526   2.022   1.163
  820SOL    HW1 3598  11.516   1.999   1.255
  820SOL    HW2 3599  11.511   1.940   1.116
  820SOL     MW 3600  11.524   2.013   1.167
  821SOL     OW 3601  10.243   3.075   1.512
  821SOL    HW1 3602  10.282   3.002   1.465
  821SOL    HW2 3603  10.176   3.035   1.567
  821SOL     MW 3604  10.240   3.065   1.513
  822SOL     OW 3605  10.893   1.750   0.542
  822SOL    HW1 3606  10.806   1.789   0.544
  822SOL    HW2 3607  10.904   1.720   0.451
  822SOL     MW 3608  10.886   1.751   0.534
  823SOL     OW 3609  10.724   3.132   0.357
  823SOL    HW1 3610  10.805   3.126   0.407
  823SOL    HW2 3611  10.665   3.183   0.412
  823SOL     MW 3612  10.726   3.136   0.366
  824SOL     OW 3613  10.868   2.461   1.629
  824SOL    HW1 3614  10.917   2.379   1.619
  824SOL    HW2 3615  10.803   2.442   1.696
  824SOL     MW 3616  10.867   2.452   1.634
  825SOL     OW 3617  11.281   1.832   1.575
  825SOL    HW1 3618  11.233   1.759   1.537
  825SOL    HW2 3619  11.304   1.802   1.663
  825SOL     MW 3620  11.279   1.823   1.580
  826SOL     OW 3621  10.611   2.223   0.032
  826SOL    HW1 3622  10.608   2.294   0.097
  826SOL    HW2 3623  10.701   2.193   0.033
  826SOL     MW 3624  10.618   2.227   0.038
  827SOL     OW 3625  10.635   1.848   0.511
  827SOL    HW1 3626  10.660   1.930   0.469
  827SOL    HW2 3627  10.546   1.864   0.543
  827SOL     MW 3628  10.629   1.857   0.510
  828SOL     OW 3629  10.351   2.875   1.374
  828SOL    HW1 3630  10.378   2.818   1.446
  828SOL    HW2 3631  10.268   2.838   1.344
  828SOL     MW 3632  10.346   2.867   1.378
  829SOL     OW 3633  10.891   2.164   1.234
  829SOL    HW1 3634  10.906   2.257   1.246
  829SOL    HW2 3635  10.877   2.130   1.322
  829SOL     MW 3636  10.891   2.169   1.243
  830SOL     OW 3637  11.271   2.473   0.074
  830SOL    HW1 3638  11.322   2.477   3.193
  830SOL    HW2 3639  11.258   2.564   0.098
  830SOL     MW 3640  11.275   2.481   0.069
  831SOL     OW 3641  10.469   2.717   0.543
  831SOL    HW1 3642  10.521   2.777   0.489
  831SOL    HW2 3643  10.501   2.630   0.520
  831SOL     MW 3644  10.476   2.715   0.536
  832SOL     OW 3645  11.130   2.134   0.406
  832SOL    HW1 3646  11.041   2.136   0.371
  832SOL    HW2 3647  11.119   2.149   0.500
  832SOL     MW 3648  11.121   2.136   0.411
  833SOL     OW 3649  10.110   2.360   0.154
  833SOL    HW1 3650  10.046   2.330   0.219
  833SOL    HW2 3651  10.195   2.348   0.196
  833SOL     MW 3652  10.112   2.356   0.164
  834SOL     OW 3653  11.388   2.977   0.462
  834SOL    HW1 3654  11.336   2.927   0.524
  834SOL    HW2 3655  11.466   3.003   0.511
  834SOL     MW 3656  11.390   2.975   0.472
  835SOL     OW 3657  10.672   2.031   1.138
  835SOL    HW1 3658  10.745   2.086   1.167
  835SOL    HW2 3659  10.660   2.053   1.046
  835SOL     MW 3660  10.677   2.038   1.133
  836SOL     OW 3661  10.647   2.063   0.861
  836SOL    HW1 3662  10.668   1.971   0.845
  836SOL    HW2 3663  10.552   2.068   0.848
  836SOL     MW 3664  10.640   2.055   0.858
  837SOL     OW 3665  11.459   1.985   1.425
  837SOL    HW1 3666  11.411   2.065   1.445
  837SOL    HW2 3667  11.412   1.915   1.470
  837SOL     MW 3668  11.451   1.986   1.431
  838SOL     OW 3669  10.673   1.791   0.849
  838SOL    HW1 3670  10.615   1.789   0.925
  838SOL    HW2 3671  10.630   1.732   0.786
  838SOL     MW 3672  10.664   1.785   0.850
  839SOL     OW 3673  11.340   2.795   0.885
  839SOL    HW1 3674  11.310   2.815   0.973
  839SOL    HW2 3675  11.436   2.793   0.892
  839SOL     MW 3676  11.346   2.797   0.893
  840SOL     OW 3677  11.349   2.225   1.174
  840SOL    HW1 3678  11.344   2.267   1.088
  840SOL    HW2 3679  11.420   2.162   1.166
  840SOL     MW 3680  11.355   2.223   1.166
  841SOL     OW 3681  11.440   1.961   3.130
  841SOL    HW1 3682  11.451   1.943   0.024
  841SOL    HW2 3683  11.373   2.029   3.126
  841SOL     MW 3684  11.435   1.966   3.138
  842SOL     OW 3685  10.670   2.773   1.416
  842SOL    HW1 3686  10.639   2.804   1.330
  842SOL    HW2 3687  10.704   2.851   1.459
  842SOL     MW 3688  10.670   2.783   1.412
  843SOL     OW 3689  10.867   2.135   0.033
  843SOL    HW1 3690  10.935   2.196   0.005
  843SOL    HW2 3691  10.874   2.061   3.173
  843SOL     MW 3692  10.874   2.134   0.025
  844SOL     OW 3693  11.431   1.801   1.029
  844SOL    HW1 3694  11.439   1.795   0.934
  844SOL    HW2 3695  11.348   1.846   1.044
  844SOL     MW 3696  11.424   1.804   1.022
  845SOL     OW 3697  10.775   3.122   0.088
  845SOL    HW1 3698  10.766   3.125   0.183
  845SOL    HW2 3699  10.693   3.161   0.056
  845SOL     MW 3700  10.767   3.126   0.093
  846SOL     OW 3701  11.265   2.068   0.831
  846SOL    HW1 3702  11.244   2.018   0.910
  846SOL    HW2 3703  11.295   2.153   0.864
  846SOL     MW 3704  11.266   2.071   0.841
  847SOL     OW 3705  10.732   2.509   1.402
  847SOL    HW1 3706  10.716   2.604   1.403
  847SOL    HW2 3707  10.780   2.492   1.483
  847SOL     MW 3708  10.735   2.516   1.409
  848SOL     OW 3709  10.619   2.230   0.634
  848SOL    HW1 3710  10.644   2.180   0.557
  848SOL    HW2 3711  10.641   2.174   0.708
  848SOL     MW 3712  10.623   2.221   0.634
  849SOL     OW 3713  10.973   0.095   0.711
  849SOL    HW1 3714  11.068   0.099   0.700
  849SOL    HW2 3715  10.960   0.060   0.799
  849SOL     MW 3716  10.980   0.093   0.718
  850SOL     OW 3717  10.134   2.309   1.457
  850SOL    HW1 3718  10.171   2.397   1.443
  850SOL    HW2 3719  10.055   2.308   1.404
  850SOL     MW 3720  10.130   2.317   1.451
  851SOL     OW 3721  11.426   2.868   0.213
  851SOL    HW1 3722  11.419   2.903   0.302
  851SOL    HW2 3723  11.457   2.942   0.161
  851SOL     MW 3724  11.428   2.878   0.217
  852SOL     OW 3725  10.283   2.550   1.461
  852SOL    HW1 3726  10.335   2.610   1.516
  852SOL    HW2 3727  10.347   2.489   1.425
  852SOL     MW 3728  10.293   2.550   1.463
  853SOL     OW 3729  10.599   2.422   0.227
  853SOL    HW1 3730  10.651   2.487   0.182
  853SOL    HW2 3731  10.612   2.440   0.320
  853SOL     MW 3732  10.604   2.429   0.231
  854SOL     OW 3733  10.361   2.276   0.528
  854SOL    HW1 3734  10.362   2.338   0.601
  854SOL    HW2 3735  10.430   2.214   0.548
  854SOL     MW 3736  10.367   2.276   0.536
  855SOL     OW 3737  11.050   2.395   0.999
  855SOL    HW1 3738  10.985   2.341   0.954
  855SOL    HW2 3739  11.012   2.412   1.085
  855SOL     MW 3740  11.041   2.392   1.003
  856SOL     OW 3741  10.770   1.774   1.207
  856SOL    HW1 3742  10.750   1.866   1.188
  856SOL    HW2 3743  10.823   1.777   1.286
  856SOL     MW 3744  10.773   1.783   1.212
  857SOL     OW 3745  10.945   2.430   1.254
  857SOL    HW1 3746  11.010   2.477   1.306
  857SOL    HW2 3747  10.861   2.459   1.289
  857SOL     MW 3748  10.943   2.437   1.262
  858SOL     OW 3749  10.452   2.727   1.576
  858SOL    HW1 3750  10.474   2.713   1.669
  858SOL    HW2 3751  10.537   2.731   1.532
  858SOL     MW 3752  10.462   2.726   1.581
  859SOL     OW 3753  11.096   2.204   0.669
  859SOL    HW1 3754  11.019   2.209   0.725
  859SOL    HW2 3755  11.159   2.152   0.719
  859SOL     MW 3756  11.095   2.200   0.679
  860SOL     OW 3757  11.236   2.852   0.641
  860SOL    HW1 3758  11.270   2.837   0.729
  860SOL    HW2 3759  11.166   2.787   0.631
  860SOL     MW 3760  11.233   2.845   0.648
  861SOL     OW 3761  10.383   2.395   0.770
  861SOL    HW1 3762  10.443   2.321   0.786
  861SOL    HW2 3763  10.438   2.473   0.783
  861SOL     MW 3764  10.394   2.395   0.772
  862SOL     OW 3765  10.962   2.422   0.215
  862SOL    HW1 3766  10.991   2.383   0.133
  862SOL    HW2 3767  11.041   2.426   0.269
  862SOL     MW 3768  10.972   2.419   0.212
  863SOL     OW 3769  10.334   2.112   1.493
  863SOL    HW1 3770  10.264   2.171   1.466
  863SOL    HW2 3771  10.382   2.161   1.560
  863SOL     MW 3772  10.332   2.121   1.497
  864SOL     OW 3773  10.553   2.922   1.208
  864SOL    HW1 3774  10.476   2.910   1.264
  864SOL    HW2 3775  10.597   2.999   1.244
  864SOL     MW 3776  10.550   2.928   1.216
  865SOL     OW 3777  10.549   1.780   3.166
  865SOL    HW1 3778  10.506   1.832   0.034
  865SOL    HW2 3779  10.539   1.833   3.086
  865SOL     MW 3780  10.544   1.790   3.165
  866SOL     OW 3781  11.493   0.102   0.262
  866SOL    HW1 3782  11.501   0.197   0.272
  866SOL    HW2 3783  11.403   0.089   0.232
  866SOL     MW 3784  11.486   0.109   0.260
  867SOL     OW 3785  10.639   2.708   2.061
  867SOL    HW1 3786  10.726   2.686   2.094
  867SOL    HW2 3787  10.634   2.804   2.067
  867SOL     MW 3788  10.646   2.715   2.064
  868SOL     OW 3789  10.916   2.157   2.243
  868SOL    HW1 3790  10.949   2.176   2.331
  868SOL    HW2 3791  10.915   2.242   2.199
  868SOL     MW 3792  10.919   2.166   2.247
  869SOL     OW 3793  10.394   2.285   2.054
  869SOL    HW1 3794  10.477   2.333   2.062
  869SOL    HW2 3795  10.394   2.225   2.128
  869SOL     MW 3796  10.402   2.284   2.061
  870SOL     OW 3797  10.720   1.983   2.311
  870SOL    HW1 3798  10.784   2.044   2.274
  870SOL    HW2 3799  10.673   1.949   2.235
  870SOL     MW 3800  10.721   1.985   2.301
  871SOL     OW 3801  10.775   2.869   2.320
  871SOL    HW1 3802  10.823   2.952   2.325
  871SOL    HW2 3803  10.830   2.812   2.266
  871SOL     MW 3804  10.784   2.871   2.315
  872SOL     OW 3805  10.621   2.450   2.351
  872SOL    HW1 3806  10.609   2.366   2.396
  872SOL    HW2 3807  10.669   2.504   2.413
  872SOL     MW 3808  10.625   2.447   2.360
  873SOL     OW 3809  10.822   2.149   2.899
  873SOL    HW1 3810  10.729   2.169   2.912
  873SOL    HW2 3811  10.835   2.066   2.944
  873SOL     MW 3812  10.815   2.143   2.904
  874SOL     OW 3813  10.998   2.644   2.412
  874SOL    HW1 3814  10.919   2.635   2.465
  874SOL    HW2 3815  11.045   2.561   2.423
  874SOL     MW 3816  10.995   2.636   2.418
  875SOL     OW 3817  11.571   2.920   2.233
  875SOL    HW1 3818  11.516   2.904   2.156
  875SOL    HW2 3819  11.634   2.847   2.233
  875SOL     MW 3820  11.572   2.912   2.226
  876SOL     OW 3821  11.214   2.342   2.171
  876SOL    HW1 3822  11.283   2.371   2.111
  876SOL    HW2 3823  11.220   2.246   2.170
  876SOL     MW 3824  11.221   2.336   2.166
  877SOL     OW 3825  11.254   2.302   2.876
  877SOL    HW1 3826  11.279   2.339   2.791
  877SOL    HW2 3827  11.161   2.322   2.884
  877SOL     MW 3828  11.248   2.307   2.869
  878SOL     OW 3829  10.363   1.871   2.293
  878SOL    HW1 3830  10.415   1.847   2.217
  878SOL    HW2 3831  10.291   1.809   2.294
  878SOL     MW 3832  10.361   1.864   2.287
  879SOL     OW 3833  10.874   3.022   1.755
  879SOL    HW1 3834  10.891   2.939   1.801
  879SOL    HW2 3835  10.832   3.077   1.820
  879SOL     MW 3836  10.872   3.019   1.765
  880SOL     OW 3837  10.315   2.319   2.932
  880SOL    HW1 3838  10.290   2.274   3.012
  880SOL    HW2 3839  10.308   2.412   2.954
  880SOL     MW 3840  10.312   2.323   2.941
  881SOL     OW 3841  10.409   2.792   2.929
  881SOL    HW1 3842  10.480   2.788   2.993
  881SOL    HW2 3843  10.388   2.885   2.922
  881SOL     MW 3844  10.414   2.800   2.934
  882SOL     OW 3845  10.200   2.579   2.317
  882SOL    HW1 3846  10.288   2.617   2.305
  882SOL    HW2 3847  10.192   2.514   2.247
  882SOL     MW 3848  10.207   2.577   2.310
  883SOL     OW 3849  11.224   2.118   3.080
  883SOL    HW1 3850  11.189   2.033   3.054
  883SOL    HW2 3851  11.242   2.164   2.998
  883SOL     MW 3852  11.223   2.115   3.071
  884SOL     OW 3853  11.300   2.444   2.653
  884SOL    HW1 3854  11.287   2.535   2.679
  884SOL    HW2 3855  11.258   2.438   2.567
  884SOL     MW 3856  11.295   2.452   2.647
  885SOL     OW 3857  10.727   2.662   2.500
  885SOL    HW1 3858  10.662   2.686   2.566
  885SOL    HW2 3859  10.733   2.740   2.444
  885SOL     MW 3860  10.722   2.671   2.501
  886SOL     OW 3861  11.146   2.418   2.426
  886SOL    HW1 3862  11.110   2.333   2.451
  886SOL    HW2 3863  11.184   2.404   2.339
  886SOL     MW 3864  11.146   2.409   2.420
  887SOL     OW 3865  10.880   2.640   2.169
  887SOL    HW1 3866  10.899   2.553   2.133
  887SOL    HW2 3867  10.929   2.642   2.252
  887SOL     MW 3868  10.886   2.632   2.174
  888SOL     OW 3869  11.467   1.878   2.355
  888SOL    HW1 3870  11.476   1.804   2.416
  888SOL    HW2 3871  11.477   1.840   2.268
  888SOL     MW 3872  11.469   1.868   2.353
  889SOL     OW 3873  10.400   2.868   2.444
  889SOL    HW1 3874  10.415   2.828   2.530
  889SOL    HW2 3875  10.424   2.800   2.381
  889SOL     MW 3876  10.403   2.858   2.446
  890SOL     OW 3877  10.889   1.817   2.457
  890SOL    HW1 3878  10.840   1.878   2.401
  890SOL    HW2 3879  10.963   1.789   2.403
  890SOL     MW 3880  10.891   1.820   2.447
  891SOL     OW 3881  10.635   2.971   2.105
  891SOL    HW1 3882  10.668   2.957   2.194
  891SOL    HW2 3883  10.553   3.019   2.117
  891SOL     MW 3884  10.631   2.974   2.114
  892SOL     OW 3885  10.691   2.354   1.822
  892SOL    HW1 3886  10.661   2.384   1.908
  892SOL    HW2 3887  10.765   2.297   1.842
  892SOL     MW 3888  10.695   2.352   1.832
  893SOL     OW 3889  11.106   2.832   3.134
  893SOL    HW1 3890  11.145   2.791   0.011
  893SOL    HW2 3891  11.013   2.834   3.152
  893SOL     MW 3892  11.102   2.828   3.142
  894SOL     OW 3893  10.569   1.782   2.442
  894SOL    HW1 3894  10.633   1.844   2.409
  894SOL    HW2 3895  10.487   1.808   2.400
  894SOL     MW 3896  10.567   1.790   2.435
  895SOL     OW 3897  11.392   2.426   1.988
  895SOL    HW1 3898  11.448   2.401   1.915
  895SOL    HW2 3899  11.364   2.515   1.969
  895SOL     MW 3900  11.394   2.431   1.980
  896SOL     OW 3901  10.462   2.660   2.276
  896SOL    HW1 3902  10.514   2.687   2.200
  896SOL    HW2 3903  10.508   2.583   2.310
  896SOL     MW 3904  10.471   2.655   2.272
  897SOL     OW 3905  11.229   1.962   2.439
  897SOL    HW1 3906  11.319   1.950   2.408
  897SOL    HW2 3907  11.228   1.921   2.526
  897SOL     MW 3908  11.237   1.958   2.444
  898SOL     OW 3909  10.163   2.396   2.118
  898SOL    HW1 3910  10.135   2.333   2.184
  898SOL    HW2 3911  10.249   2.363   2.090
  898SOL     MW 3912  10.169   2.387   2.121
  899SOL     OW 3913  11.317   2.973   2.326
  899SOL    HW1 3914  11.287   2.909   2.390
  899SOL    HW2 3915  11.412   2.963   2.325
  899SOL     MW 3916  11.323   2.967   2.332
  900SOL     OW 3917  10.558   2.191   2.966
  900SOL    HW1 3918  10.567   2.206   3.060
  900SOL    HW2 3919  10.481   2.240   2.941
  900SOL     MW 3920  10.552   2.197   2.972
  901SOL     OW 3921  10.610   1.833   2.703
  901SOL    HW1 3922  10.684   1.775   2.719
  901SOL    HW2 3923  10.580   1.810   2.615
  901SOL     MW 3924  10.614   1.826   2.697
  902SOL     OW 3925  11.380   2.494   3.025
  902SOL    HW1 3926  11.335   2.428   2.972
  902SOL    HW2 3927  11.473   2.483   3.003
  902SOL     MW 3928  11.384   2.487   3.018
  903SOL     OW 3929  11.453   1.749   2.115
  903SOL    HW1 3930  11.523   1.739   2.051
  903SOL    HW2 3931  11.389   1.806   2.072
  903SOL     MW 3932  11.453   1.753   2.105
  904SOL     OW 3933  11.480   3.047   3.000
  904SOL    HW1 3934  11.493   3.062   3.094
  904SOL    HW2 3935  11.445   2.958   2.995
  904SOL     MW 3936  11.478   3.040   3.008
  905SOL     OW 3937  10.920   2.218   1.880
  905SOL    HW1 3938  10.953   2.219   1.790
  905SOL    HW2 3939  10.923   2.126   1.906
  905SOL     MW 3940  10.923   2.210   1.874
  906SOL     OW 3941  11.389   1.839   2.893
  906SOL    HW1 3942  11.462   1.782   2.870
  906SOL    HW2 3943  11.419   1.886   2.971
  906SOL     MW 3944  11.398   1.838   2.898
  907SOL     OW 3945  10.736   3.163   1.940
  907SOL    HW1 3946  10.714   3.095   2.004
  907SOL    HW2 3947  10.654   3.178   1.893
  907SOL     MW 3948  10.726   3.158   1.942
  908SOL     OW 3949  10.776   2.591   0.107
  908SOL    HW1 3950  10.807   2.681   0.100
  908SOL    HW2 3951  10.848   2.543   0.148
  908SOL     MW 3952  10.785   2.594   0.110
  909SOL     OW 3953  10.576   2.189   2.439
  909SOL    HW1 3954  10.630   2.120   2.400
  909SOL    HW2 3955  10.537   2.148   2.516
  909SOL     MW 3956  10.578   2.179   2.442
  910SOL     OW 3957  11.169   2.072   2.190
  910SOL    HW1 3958  11.195   2.039   2.276
  910SOL    HW2 3959  11.076   2.092   2.199
  910SOL     MW 3960  11.163   2.071   2.198
  911SOL     OW 3961  10.577   1.855   2.115
  911SOL    HW1 3962  10.542   1.882   2.030
  911SOL    HW2 3963  10.623   1.773   2.097
  911SOL     MW 3964  10.578   1.850   2.106
  912SOL     OW 3965  11.352   2.888   2.068
  912SOL    HW1 3966  11.322   2.903   2.158
  912SOL    HW2 3967  11.328   2.968   2.022
  912SOL     MW 3968  11.347   2.897   2.072
  913SOL     OW 3969  11.110   1.739   2.324
  913SOL    HW1 3970  11.156   1.817   2.356
  913SOL    HW2 3971  11.181   1.678   2.303
  913SOL     MW 3972  11.121   1.741   2.325
  914SOL     OW 3973  10.516   1.923   2.946
  914SOL    HW1 3974  10.529   2.017   2.945
  914SOL    HW2 3975  10.549   1.892   2.862
  914SOL     MW 3976  10.520   1.928   2.939
  915SOL     OW 3977  10.619   2.434   2.077
  915SOL    HW1 3978  10.617   2.529   2.060
  915SOL    HW2 3979  10.634   2.427   2.171
  915SOL     MW 3980  10.620   2.442   2.084
  916SOL     OW 3981  10.360   2.140   2.283
  916SOL    HW1 3982  10.431   2.165   2.342
  916SOL    HW2 3983  10.359   2.044   2.286
  916SOL     MW 3984  10.367   2.133   2.288
  917SOL     OW 3985  10.997   2.353   2.924
  917SOL    HW1 3986  10.931   2.286   2.908
  917SOL    HW2 3987  11.005   2.357   3.019
  917SOL     MW 3988  10.992   2.347   2.931
  918SOL     OW 3989  11.045   2.174   2.484
  918SOL    HW1 3990  11.005   2.165   2.570
  918SOL    HW2 3991  11.112   2.106   2.482
  918SOL     MW 3992  11.047   2.167   2.491
  919SOL     OW 3993  11.221   2.786   2.491
  919SOL    HW1 3994  11.231   2.757   2.581
  919SOL    HW2 3995  11.141   2.742   2.460
  919SOL     MW 3996  11.215   2.779   2.496
  920SOL     OW 3997  10.959   2.386   2.095
  920SOL    HW1 3998  10.949   2.339   2.013
  920SOL    HW2 3999  11.053   2.379   2.115
  920SOL     MW 4000  10.967   2.381   2.090
  921SOL     OW 4001  11.323   2.766   2.973
  921SOL    HW1 4002  11.343   2.676   3.000
  921SOL    HW2 4003  11.245   2.790   3.024
  921SOL     MW 4004  11.317   2.760   2.980
  922SOL     OW 4005  11.387   0.173   2.010
  922SOL    HW1 4006  11.474   0.172   2.049
  922SOL    HW2 4007  11.329   0.196   2.082
  922SOL     MW 4008  11.390   0.175   2.020
  20.00000   3.20000   3.20000
