OcOH Pure Solvent
13824
    1OcOH    HO    1   2.594   3.609   0.004
    1OcOH    OH    2   2.627   3.519   0.001
    1OcOH   HA1    3   2.549   3.462   0.182
    1OcOH   HA2    4   2.436   3.465   0.048
    1OcOH    CA    5   2.538   3.439   0.076
    1OcOH   HB1    6   2.551   3.270   5.079
    1OcOH   HB2    7   2.485   3.232   0.099
    1OcOH    CB    8   2.562   3.290   0.049
    1OcOH   HC1    9   2.778   3.292   0.039
    1OcOH   HC2   10   2.715   3.269   0.199
    1OcOH    CC   11   2.700   3.240   0.095
    1OcOH   HD1   12   2.640   3.036   0.136
    1OcOH   HD2   13   2.812   3.061   0.133
    1OcOH    CD   14   2.720   3.088   0.082
    1OcOH   HE1   15   2.635   3.062   5.021
    1OcOH   HE2   16   2.807   3.092   5.021
    1OcOH    CE   17   2.727   3.038   5.073
    1OcOH   HF1   18   2.666   2.832   5.101
    1OcOH   HF2   19   2.835   2.860   5.130
    1OcOH    CF   20   2.753   2.887   5.064
    1OcOH   HG1   21   2.877   2.890   4.887
    1OcOH   HG2   22   2.814   2.733   4.926
    1OcOH    CG   23   2.788   2.839   4.922
    1OcOH   HH1   24   2.651   2.962   4.804
    1OcOH   HH2   25   2.583   2.806   4.852
    1OcOH   HH3   26   2.703   2.815   4.723
    1OcOH    CH   27   2.674   2.857   4.820
    2OcOH    HO   28   4.048   4.587   1.666
    2OcOH    OH   29   4.125   4.532   1.645
    2OcOH   HA1   30   4.122   4.587   1.447
    2OcOH   HA2   31   4.198   4.701   1.556
    2OcOH    CA   32   4.187   4.595   1.534
    2OcOH   HB1   33   4.310   4.425   1.483
    2OcOH   HB2   34   4.383   4.536   1.599
    2OcOH    CB   35   4.324   4.531   1.508
    2OcOH   HC1   36   4.341   4.599   1.303
    2OcOH   HC2   37   4.412   4.706   1.421
    2OcOH    CC   38   4.400   4.601   1.395
    2OcOH   HD1   39   4.525   4.438   1.327
    2OcOH   HD2   40   4.592   4.527   1.462
    2OcOH    CD   41   4.538   4.539   1.368
    2OcOH   HE1   42   4.575   4.628   1.174
    2OcOH   HE2   43   4.630   4.724   1.309
    2OcOH    CE   44   4.624   4.622   1.271
    2OcOH   HF1   45   4.818   4.570   1.352
    2OcOH   HF2   46   4.823   4.644   1.194
    2OcOH    CF   47   4.768   4.571   1.255
    2OcOH   HG1   48   4.733   4.358   1.253
    2OcOH   HG2   49   4.723   4.432   1.095
    2OcOH    CG   50   4.779   4.433   1.188
    2OcOH   HH1   51   4.929   4.293   1.118
    2OcOH   HH2   52   4.983   4.394   1.253
    2OcOH   HH3   53   4.971   4.462   1.090
    2OcOH    CH   54   4.924   4.393   1.161
    3OcOH    HO   55   1.041   1.951   3.199
    3OcOH    OH   56   1.042   2.040   3.235
    3OcOH   HA1   57   1.132   2.221   3.198
    3OcOH   HA2   58   1.233   2.080   3.169
    3OcOH    CA   59   1.132   2.119   3.158
    3OcOH   HB1   60   0.982   2.147   3.003
    3OcOH   HB2   61   1.094   2.015   2.976
    3OcOH    CB   62   1.087   2.118   3.012
    3OcOH   HC1   63   1.278   2.184   2.936
    3OcOH   HC2   64   1.152   2.174   2.816
    3OcOH    CC   65   1.173   2.205   2.918
    3OcOH   HD1   66   1.174   2.392   3.030
    3OcOH   HD2   67   1.036   2.371   2.925
    3OcOH    CD   68   1.144   2.355   2.931
    3OcOH   HE1   69   1.183   2.400   2.724
    3OcOH   HE2   70   1.170   2.541   2.825
    3OcOH    CE   71   1.211   2.440   2.821
    3OcOH   HF1   72   1.406   2.346   2.826
    3OcOH   HF2   73   1.390   2.484   2.932
    3OcOH    CF   74   1.364   2.446   2.833
    3OcOH   HG1   75   1.402   2.497   2.627
    3OcOH   HG2   76   1.385   2.636   2.731
    3OcOH    CG   77   1.427   2.535   2.726
    3OcOH   HH1   78   1.623   2.607   2.661
    3OcOH   HH2   79   1.626   2.445   2.730
    3OcOH   HH3   80   1.609   2.586   2.836
    3OcOH    CH   81   1.580   2.544   2.739
    4OcOH    HO   82   2.242   2.881   1.369
    4OcOH    OH   83   2.189   2.961   1.361
    4OcOH   HA1   84   2.244   2.977   1.164
    4OcOH   HA2   85   2.176   3.123   1.236
    4OcOH    CA   86   2.242   3.038   1.255
    4OcOH   HB1   87   2.446   3.000   1.311
    4OcOH   HB2   88   2.377   3.141   1.387
    4OcOH    CB   89   2.382   3.086   1.293
    4OcOH   HC1   90   2.447   3.124   1.090
    4OcOH   HC2   91   2.385   3.265   1.173
    4OcOH    CC   92   2.446   3.176   1.187
    4OcOH   HD1   93   2.653   3.128   1.228
    4OcOH   HD2   94   2.591   3.261   1.323
    4OcOH    CD   95   2.590   3.217   1.223
    4OcOH   HE1   96   2.645   3.276   1.023
    4OcOH   HE2   97   2.589   3.408   1.123
    4OcOH    CE   98   2.650   3.318   1.124
    4OcOH   HF1   99   2.859   3.266   1.149
    4OcOH   HF2  100   2.801   3.385   1.262
    4OcOH    CF  101   2.796   3.354   1.157
    4OcOH   HG1  102   2.790   3.556   1.079
    4OcOH   HG2  103   2.950   3.496   1.110
    4OcOH    CG  104   2.853   3.467   1.070
    4OcOH   HH1  105   2.773   3.411   0.875
    4OcOH   HH2  106   2.931   3.341   0.911
    4OcOH   HH3  107   2.917   3.511   0.867
    4OcOH    CH  108   2.869   3.430   0.922
    5OcOH    HO  109   0.747   3.106   1.853
    5OcOH    OH  110   0.812   3.035   1.861
    5OcOH   HA1  111   0.901   3.148   2.007
    5OcOH   HA2  112   0.795   3.020   2.064
    5OcOH    CA  113   0.870   3.045   1.989
    5OcOH   HB1  114   1.062   2.981   1.919
    5OcOH   HB2  115   0.956   2.850   1.969
    5OcOH    CB  116   0.989   2.950   1.995
    5OcOH   HC1  117   1.089   3.046   2.161
    5OcOH   HC2  118   0.987   2.911   2.206
    5OcOH    CC  119   1.059   2.945   2.131
    5OcOH   HD1  120   1.256   2.897   2.062
    5OcOH   HD2  121   1.157   2.757   2.086
    5OcOH    CD  122   1.182   2.854   2.129
    5OcOH   HE1  123   1.345   2.787   2.253
    5OcOH   HE2  124   1.267   2.931   2.312
    5OcOH    CE  125   1.247   2.833   2.267
    5OcOH   HF1  126   1.069   2.791   2.385
    5OcOH   HF2  127   1.219   2.747   2.461
    5OcOH    CF  128   1.167   2.746   2.366
    5OcOH   HG1  129   1.088   2.596   2.230
    5OcOH   HG2  130   1.246   2.558   2.293
    5OcOH    CG  131   1.149   2.600   2.320
    5OcOH   HH1  132   1.148   2.509   2.518
    5OcOH   HH2  133   1.071   2.411   2.393
    5OcOH   HH3  134   0.988   2.552   2.458
    5OcOH    CH  135   1.085   2.513   2.429
    6OcOH    HO  136   5.044   4.496   0.484
    6OcOH    OH  137   5.064   4.510   0.577
    6OcOH   HA1  138   0.128   4.513   0.534
    6OcOH   HA2  139   0.047   4.669   0.528
    6OcOH    CA  140   0.053   4.575   0.583
    6OcOH   HB1  141   0.096   4.504   0.783
    6OcOH   HB2  142   0.011   4.657   0.778
    6OcOH    CB  143   0.090   4.600   0.730
    6OcOH   HC1  144   0.304   4.618   0.699
    6OcOH   HC2  145   0.217   4.769   0.689
    6OcOH    CC  146   0.223   4.675   0.745
    6OcOH   HD1  147   0.271   4.612   0.946
    6OcOH   HD2  148   0.174   4.757   0.938
    6OcOH    CD  149   0.258   4.706   0.891
    6OcOH   HE1  150   0.470   4.740   0.863
    6OcOH   HE2  151   0.372   4.884   0.846
    6OcOH    CE  152   0.384   4.793   0.905
    6OcOH   HF1  153   0.424   4.740   1.111
    6OcOH   HF2  154   0.327   4.883   1.093
    6OcOH    CF  155   0.413   4.830   1.051
    6OcOH   HG1  156   0.625   4.867   1.022
    6OcOH   HG2  157   0.525   5.010   1.008
    6OcOH    CG  158   0.538   4.918   1.065
    6OcOH   HH1  159   0.659   5.016   1.218
    6OcOH   HH2  160   0.587   4.865   1.272
    6OcOH   HH3  161   0.487   5.010   1.257
    6OcOH    CH  162   0.569   4.954   1.211
    7OcOH    HO  163   0.046   3.094   1.626
    7OcOH    OH  164   0.057   3.049   1.541
    7OcOH   HA1  165   5.091   2.886   1.608
    7OcOH   HA2  166   4.992   3.011   1.535
    7OcOH    CA  167   5.087   2.958   1.527
    7OcOH   HB1  168   5.023   2.807   1.389
    7OcOH   HB2  169   0.058   2.837   1.384
    7OcOH    CB  170   5.098   2.886   1.391
    7OcOH   HC1  171   4.982   3.032   1.282
    7OcOH   HC2  172   0.017   3.055   1.268
    7OcOH    CC  173   5.076   2.979   1.270
    7OcOH   HD1  174   5.006   2.818   1.144
    7OcOH   HD2  175   0.037   2.857   1.120
    7OcOH    CD  176   5.076   2.901   1.137
    7OcOH   HE1  177   4.941   3.038   1.037
    7OcOH   HE2  178   5.110   3.069   1.004
    7OcOH    CE  179   5.037   2.989   1.017
    7OcOH   HF1  180   4.954   2.826   0.901
    7OcOH   HF2  181   5.121   2.862   0.863
    7OcOH    CF  182   5.025   2.908   0.886
    7OcOH   HG1  183   4.883   3.041   0.791
    7OcOH   HG2  184   5.050   3.075   0.751
    7OcOH    CG  185   4.979   2.994   0.768
    7OcOH   HH1  186   4.892   2.832   0.650
    7OcOH   HH2  187   4.932   2.976   0.556
    7OcOH   HH3  188   5.060   2.867   0.609
    7OcOH    CH  189   4.965   2.912   0.638
    8OcOH    HO  190   2.189   1.034   2.858
    8OcOH    OH  191   2.196   0.986   2.774
    8OcOH   HA1  192   2.154   1.161   2.676
    8OcOH   HA2  193   2.324   1.130   2.703
    8OcOH    CA  194   2.230   1.082   2.676
    8OcOH   HB1  195   2.252   1.095   2.463
    8OcOH   HB2  196   2.143   0.969   2.514
    8OcOH    CB  197   2.239   1.017   2.538
    8OcOH   HC1  198   2.447   0.964   2.550
    8OcOH   HC2  199   2.339   0.835   2.598
    8OcOH    CC  200   2.353   0.915   2.525
    8OcOH   HD1  201   2.378   0.933   2.310
    8OcOH   HD2  202   2.264   0.810   2.360
    8OcOH    CD  203   2.361   0.854   2.384
    8OcOH   HE1  204   2.459   0.672   2.448
    8OcOH   HE2  205   2.450   0.691   2.276
    8OcOH    CE  206   2.469   0.745   2.368
    8OcOH   HF1  207   2.633   0.857   2.453
    8OcOH   HF2  208   2.621   0.871   2.280
    8OcOH    CF  209   2.612   0.800   2.363
    8OcOH   HG1  210   2.707   0.617   2.428
    8OcOH   HG2  211   2.699   0.634   2.255
    8OcOH    CG  212   2.717   0.689   2.347
    8OcOH   HH1  213   2.884   0.792   2.441
    8OcOH   HH2  214   2.876   0.816   2.267
    8OcOH   HH3  215   2.933   0.663   2.332
    8OcOH    CH  216   2.861   0.743   2.347
    9OcOH    HO  217   2.564   3.452   4.028
    9OcOH    OH  218   2.501   3.383   4.007
    9OcOH   HA1  219   2.334   3.306   4.096
    9OcOH   HA2  220   2.410   3.439   4.183
    9OcOH    CA  221   2.384   3.403   4.083
    9OcOH   HB1  222   2.196   3.506   4.065
    9OcOH   HB2  223   2.266   3.460   3.912
    9OcOH    CB  224   2.290   3.500   4.011
    9OcOH   HC1  225   2.376   3.679   4.095
    9OcOH   HC2  226   2.441   3.635   3.939
    9OcOH    CC  227   2.349   3.641   3.996
    9OcOH   HD1  228   2.164   3.753   3.987
    9OcOH   HD2  229   2.221   3.699   3.831
    9OcOH    CD  230   2.254   3.740   3.927
    9OcOH   HE1  231   2.354   3.916   4.000
    9OcOH   HE2  232   2.411   3.861   3.844
    9OcOH    CE  233   2.321   3.876   3.904
    9OcOH   HF1  234   2.140   3.994   3.894
    9OcOH   HF2  235   2.197   3.937   3.739
    9OcOH    CF  236   2.230   3.978   3.834
    9OcOH   HG1  237   2.338   4.150   3.907
    9OcOH   HG2  238   2.391   4.095   3.750
    9OcOH    CG  239   2.302   4.111   3.811
    9OcOH   HH1  240   2.124   4.237   3.805
    9OcOH   HH2  241   2.181   4.185   3.646
    9OcOH   HH3  242   2.268   4.311   3.734
    9OcOH    CH  243   2.213   4.217   3.745
   10OcOH    HO  244   0.926   1.572   0.630
   10OcOH    OH  245   0.839   1.605   0.608
   10OcOH   HA1  246   0.761   1.471   0.742
   10OcOH   HA2  247   0.645   1.539   0.628
   10OcOH    CA  248   0.747   1.502   0.638
   10OcOH   HB1  249   0.878   1.356   0.546
   10OcOH   HB2  250   0.751   1.415   0.441
   10OcOH    CB  251   0.772   1.384   0.543
   10OcOH   HC1  252   0.709   1.232   0.681
   10OcOH   HC2  253   0.582   1.290   0.577
   10OcOH    CC  254   0.687   1.262   0.579
   10OcOH   HD1  255   0.815   1.113   0.487
   10OcOH   HD2  256   0.686   1.169   0.383
   10OcOH    CD  257   0.710   1.141   0.486
   10OcOH   HE1  258   0.651   0.992   0.629
   10OcOH   HE2  259   0.519   1.053   0.532
   10OcOH    CE  260   0.623   1.022   0.528
   10OcOH   HF1  261   0.741   0.871   0.428
   10OcOH   HF2  262   0.605   0.928   0.334
   10OcOH    CF  263   0.636   0.900   0.435
   10OcOH   HG1  264   0.582   0.756   0.588
   10OcOH   HG2  265   0.447   0.812   0.492
   10OcOH    CG  266   0.552   0.782   0.486
   10OcOH   HH1  267   0.501   0.576   0.435
   10OcOH   HH2  268   0.665   0.621   0.393
   10OcOH   HH3  269   0.530   0.679   0.296
   10OcOH    CH  270   0.563   0.658   0.397
   11OcOH    HO  271   0.411   0.421   3.374
   11OcOH    OH  272   0.346   0.359   3.411
   11OcOH   HA1  273   0.435   0.382   3.593
   11OcOH   HA2  274   0.327   0.244   3.580
   11OcOH    CA  275   0.403   0.302   3.526
   11OcOH   HB1  276   0.591   0.270   3.425
   11OcOH   HB2  277   0.485   0.131   3.423
   11OcOH    CB  278   0.521   0.213   3.486
   11OcOH   HC1  279   0.634   0.240   3.666
   11OcOH   HC2  280   0.526   0.103   3.672
   11OcOH    CC  281   0.596   0.157   3.608
   11OcOH   HD1  282   0.778   0.116   3.498
   11OcOH   HD2  283   0.675   5.113   3.519
   11OcOH    CD  284   0.713   0.065   3.570
   11OcOH   HE1  285   0.825   0.113   3.747
   11OcOH   HE2  286   0.732   5.102   3.761
   11OcOH    CE  287   0.795   0.023   3.693
   11OcOH   HF1  288   0.983   0.001   3.589
   11OcOH   HF2  289   0.893   4.988   3.604
   11OcOH    CF  290   0.921   5.079   3.658
   11OcOH   HG1  291   1.032   5.135   3.835
   11OcOH   HG2  292   0.943   4.985   3.851
   11OcOH    CG  293   1.004   5.044   3.782
   11OcOH   HH1  294   1.108   4.872   3.697
   11OcOH   HH2  295   1.186   4.940   3.839
   11OcOH   HH3  296   1.198   5.023   3.684
   11OcOH    CH  297   1.131   4.965   3.748
   12OcOH    HO  298   3.858   2.722   2.226
   12OcOH    OH  299   3.784   2.710   2.165
   12OcOH   HA1  300   3.894   2.659   1.999
   12OcOH   HA2  301   3.884   2.536   2.123
   12OcOH    CA  302   3.826   2.613   2.071
   12OcOH   HB1  303   3.742   2.485   1.921
   12OcOH   HB2  304   3.646   2.628   1.950
   12OcOH    CB  305   3.705   2.550   2.000
   12OcOH   HC1  306   3.679   2.401   2.153
   12OcOH   HC2  307   3.571   2.536   2.167
   12OcOH    CC  308   3.617   2.469   2.095
   12OcOH   HD1  309   3.551   2.320   1.953
   12OcOH   HD2  310   3.442   2.456   1.967
   12OcOH    CD  311   3.506   2.389   2.025
   12OcOH   HE1  312   3.488   2.257   2.193
   12OcOH   HE2  313   3.368   2.383   2.190
   12OcOH    CE  314   3.421   2.312   2.127
   12OcOH   HF1  315   3.377   2.138   2.007
   12OcOH   HF2  316   3.262   2.268   1.989
   12OcOH    CF  317   3.322   2.214   2.062
   12OcOH   HG1  318   3.168   2.223   2.214
   12OcOH   HG2  319   3.157   2.084   2.110
   12OcOH    CG  320   3.228   2.147   2.164
   12OcOH   HH1  321   3.229   2.012   2.334
   12OcOH   HH2  322   3.366   2.121   2.332
   12OcOH   HH3  323   3.361   1.984   2.221
   12OcOH    CH  324   3.301   2.061   2.268
   13OcOH    HO  325   2.356   1.705   3.109
   13OcOH    OH  326   2.311   1.751   3.037
   13OcOH   HA1  327   2.464   1.878   3.085
   13OcOH   HA2  328   2.403   1.892   2.921
   13OcOH    CA  329   2.373   1.877   3.025
   13OcOH   HB1  330   2.192   1.991   3.001
   13OcOH   HB2  331   2.327   2.084   3.058
   13OcOH    CB  332   2.277   1.988   3.069
   13OcOH   HC1  333   2.169   1.879   3.221
   13OcOH   HC2  334   2.311   1.960   3.281
   13OcOH    CC  335   2.226   1.972   3.213
   13OcOH   HD1  336   2.063   2.110   3.184
   13OcOH   HD2  337   2.201   2.179   3.266
   13OcOH    CD  338   2.139   2.090   3.260
   13OcOH   HE1  339   2.007   1.974   3.383
   13OcOH   HE2  340   2.143   2.037   3.470
   13OcOH    CE  341   2.070   2.062   3.394
   13OcOH   HF1  342   1.918   2.141   3.524
   13OcOH   HF2  343   1.915   2.212   3.364
   13OcOH    CF  344   1.982   2.179   3.444
   13OcOH   HG1  345   2.127   2.262   3.580
   13OcOH   HG2  346   2.128   2.338   3.423
   13OcOH    CG  347   2.062   2.297   3.500
   13OcOH   HH1  348   1.908   2.450   3.475
   13OcOH   HH2  349   1.907   2.372   3.633
   13OcOH   HH3  350   2.031   2.491   3.594
   13OcOH    CH  351   1.972   2.409   3.554
   14OcOH    HO  352   2.690   0.030   2.053
   14OcOH    OH  353   2.667   0.116   2.092
   14OcOH   HA1  354   2.685   0.312   2.031
   14OcOH   HA2  355   2.763   0.193   1.929
   14OcOH    CA  356   2.674   0.213   1.989
   14OcOH   HB1  357   2.535   0.105   1.864
   14OcOH   HB2  358   2.564   0.269   1.813
   14OcOH    CB  359   2.548   0.206   1.901
   14OcOH   HC1  360   2.408   0.198   2.066
   14OcOH   HC2  361   2.433   0.358   2.005
   14OcOH    CC  362   2.421   0.254   1.973
   14OcOH   HD1  363   2.291   0.139   1.846
   14OcOH   HD2  364   2.302   0.307   1.801
   14OcOH    CD  365   2.295   0.240   1.887
   14OcOH   HE1  366   2.162   0.202   2.051
   14OcOH   HE2  367   2.168   0.369   2.004
   14OcOH    CE  368   2.166   0.268   1.965
   14OcOH   HF1  369   2.042   0.149   1.832
   14OcOH   HF2  370   2.043   0.320   1.796
   14OcOH    CF  371   2.040   0.248   1.878
   14OcOH   HG1  372   1.907   0.360   2.008
   14OcOH   HG2  373   1.826   0.270   1.883
   14OcOH    CG  374   1.908   0.265   1.955
   14OcOH   HH1  375   1.953   0.147   2.133
   14OcOH   HH2  376   1.882   0.054   2.002
   14OcOH   HH3  377   1.781   0.161   2.098
   14OcOH    CH  378   1.879   0.150   2.052
   15OcOH    HO  379   1.465   0.602   0.688
   15OcOH    OH  380   1.472   0.609   0.784
   15OcOH   HA1  381   1.345   0.768   0.767
   15OcOH   HA2  382   1.270   0.617   0.815
   15OcOH    CA  383   1.358   0.679   0.829
   15OcOH   HB1  384   1.462   0.783   0.986
   15OcOH   HB2  385   1.395   0.629   1.036
   15OcOH    CB  386   1.375   0.718   0.976
   15OcOH   HC1  387   1.225   0.873   0.964
   15OcOH   HC2  388   1.165   0.724   1.030
   15OcOH    CC  389   1.251   0.791   1.031
   15OcOH   HD1  390   1.180   0.910   1.195
   15OcOH   HD2  391   1.352   0.919   1.173
   15OcOH    CD  392   1.268   0.850   1.173
   15OcOH   HE1  393   1.205   0.672   1.278
   15OcOH   HE2  394   1.379   0.690   1.269
   15OcOH    CE  395   1.286   0.745   1.284
   15OcOH   HF1  396   1.192   0.863   1.439
   15OcOH   HF2  397   1.366   0.881   1.433
   15OcOH    CF  398   1.285   0.808   1.424
   15OcOH   HG1  399   1.221   0.628   1.526
   15OcOH   HG2  400   1.394   0.651   1.525
   15OcOH    CG  401   1.300   0.704   1.536
   15OcOH   HH1  402   1.304   0.689   1.753
   15OcOH   HH2  403   1.198   0.816   1.693
   15OcOH   HH3  404   1.372   0.839   1.691
   15OcOH    CH  405   1.293   0.765   1.676
   16OcOH    HO  406   1.872   4.605   1.170
   16OcOH    OH  407   1.942   4.624   1.107
   16OcOH   HA1  408   2.111   4.741   1.113
   16OcOH   HA2  409   2.007   4.748   1.255
   16OcOH    CA  410   2.049   4.681   1.180
   16OcOH   HB1  411   2.068   4.507   1.307
   16OcOH   HB2  412   2.201   4.619   1.317
   16OcOH    CB  413   2.133   4.571   1.247
   16OcOH   HC1  414   2.144   4.441   1.075
   16OcOH   HC2  415   2.278   4.553   1.087
   16OcOH    CC  416   2.213   4.487   1.146
   16OcOH   HD1  417   2.345   4.318   1.127
   16OcOH   HD2  418   2.234   4.304   1.261
   16OcOH    CD  419   2.298   4.375   1.208
   16OcOH   HE1  420   2.467   4.503   1.253
   16OcOH   HE2  421   2.363   4.472   1.391
   16OcOH    CE  422   2.408   4.425   1.303
   16OcOH   HF1  423   2.551   4.268   1.262
   16OcOH   HF2  424   2.444   4.233   1.395
   16OcOH    CF  425   2.502   4.313   1.349
   16OcOH   HG1  426   2.663   4.446   1.404
   16OcOH   HG2  427   2.560   4.402   1.538
   16OcOH    CG  428   2.609   4.363   1.448
   16OcOH   HH1  429   2.657   4.170   1.538
   16OcOH   HH2  430   2.783   4.292   1.557
   16OcOH   HH3  431   2.760   4.213   1.401
   16OcOH    CH  432   2.708   4.253   1.488
   17OcOH    HO  433   0.091   1.744   2.994
   17OcOH    OH  434   0.142   1.815   2.953
   17OcOH   HA1  435   5.109   1.920   2.907
   17OcOH   HA2  436   0.032   1.944   3.070
   17OcOH    CA  437   0.063   1.932   2.966
   17OcOH   HB1  438   0.075   2.141   2.917
   17OcOH   HB2  439   0.174   2.039   2.816
   17OcOH    CB  440   0.142   2.055   2.919
   17OcOH   HC1  441   0.232   2.096   3.111
   17OcOH   HC2  442   0.334   2.004   3.003
   17OcOH    CC  443   0.264   2.087   3.007
   17OcOH   HD1  444   0.263   2.299   2.967
   17OcOH   HD2  445   0.366   2.207   2.859
   17OcOH    CD  446   0.335   2.216   2.963
   17OcOH   HE1  447   0.426   2.257   3.155
   17OcOH   HE2  448   0.529   2.170   3.045
   17OcOH    CE  449   0.456   2.251   3.050
   17OcOH   HF1  450   0.445   2.461   3.007
   17OcOH   HF2  451   0.560   2.376   2.907
   17OcOH    CF  452   0.522   2.384   3.009
   17OcOH   HG1  453   0.662   2.532   3.078
   17OcOH   HG2  454   0.597   2.434   3.206
   17OcOH    CG  455   0.634   2.430   3.104
   17OcOH   HH1  456   0.741   2.241   3.131
   17OcOH   HH2  457   0.839   2.384   3.160
   17OcOH   HH3  458   0.799   2.337   2.995
   17OcOH    CH  459   0.760   2.342   3.097
   18OcOH    HO  460   2.011   4.745   0.565
   18OcOH    OH  461   2.031   4.819   0.622
   18OcOH   HA1  462   1.974   4.702   0.780
   18OcOH   HA2  463   2.004   4.870   0.819
   18OcOH    CA  464   1.961   4.803   0.744
   18OcOH   HB1  465   1.762   4.816   0.821
   18OcOH   HB2  466   1.768   4.763   0.655
   18OcOH    CB  467   1.812   4.834   0.726
   18OcOH   HC1  468   1.840   5.047   0.743
   18OcOH   HC2  469   1.825   4.991   0.579
   18OcOH    CC  470   1.785   4.978   0.680
   18OcOH   HD1  471   1.600   5.014   0.785
   18OcOH   HD2  472   1.578   4.939   0.629
   18OcOH    CD  473   1.636   5.015   0.682
   18OcOH   HE1  474   1.673   0.092   0.665
   18OcOH   HE2  475   1.640   0.012   0.514
   18OcOH    CE  476   1.610   0.016   0.618
   18OcOH   HF1  477   1.398   5.118   0.588
   18OcOH   HF2  478   1.449   0.144   0.554
   18OcOH    CF  479   1.463   0.061   0.624
   18OcOH   HG1  480   1.422   0.024   0.833
   18OcOH   HG2  481   1.487   0.184   0.800
   18OcOH    CG  482   1.418   0.108   0.763
   18OcOH   HH1  483   1.203   0.090   0.732
   18OcOH   HH2  484   1.267   0.251   0.698
   18OcOH   HH3  485   1.248   0.197   0.865
   18OcOH    CH  486   1.275   0.165   0.764
   19OcOH    HO  487   3.927   2.334   0.896
   19OcOH    OH  488   3.898   2.287   0.975
   19OcOH   HA1  489   3.793   2.451   1.034
   19OcOH   HA2  490   3.705   2.338   0.933
   19OcOH    CA  491   3.776   2.345   1.015
   19OcOH   HB1  492   3.633   2.333   1.175
   19OcOH   HB2  493   3.794   2.283   1.222
   19OcOH    CB  494   3.721   2.277   1.141
   19OcOH   HC1  495   3.618   2.122   1.030
   19OcOH   HC2  496   3.770   2.071   1.100
   19OcOH    CC  497   3.680   2.130   1.119
   19OcOH   HD1  498   3.514   2.130   1.258
   19OcOH   HD2  499   3.666   2.081   1.329
   19OcOH    CD  500   3.604   2.071   1.239
   19OcOH   HE1  501   3.501   1.915   1.133
   19OcOH   HE2  502   3.655   1.865   1.197
   19OcOH    CE  503   3.566   1.924   1.220
   19OcOH   HF1  504   3.407   1.924   1.368
   19OcOH   HF2  505   3.563   1.875   1.429
   19OcOH    CF  506   3.496   1.865   1.344
   19OcOH   HG1  507   3.544   1.658   1.298
   19OcOH   HG2  508   3.430   1.678   1.428
   19OcOH    CG  509   3.458   1.717   1.329
   19OcOH   HH1  510   3.315   1.587   1.230
   19OcOH   HH2  511   3.365   1.723   1.131
   19OcOH   HH3  512   3.252   1.747   1.264
   19OcOH    CH  513   3.341   1.692   1.233
   20OcOH    HO  514   0.743   1.067   1.922
   20OcOH    OH  515   0.822   1.043   1.874
   20OcOH   HA1  516   1.025   1.062   1.906
   20OcOH   HA2  517   0.923   1.171   1.999
   20OcOH    CA  518   0.931   1.068   1.961
   20OcOH   HB1  519   0.834   0.977   2.130
   20OcOH   HB2  520   1.006   0.994   2.148
   20OcOH    CB  521   0.928   0.967   2.076
   20OcOH   HC1  522   0.874   0.796   1.955
   20OcOH   HC2  523   1.045   0.815   1.978
   20OcOH    CC  524   0.949   0.822   2.030
   20OcOH   HD1  525   1.013   0.751   2.224
   20OcOH   HD2  526   0.986   0.624   2.107
   20OcOH    CD  527   0.946   0.719   2.144
   20OcOH   HE1  528   0.762   0.789   2.232
   20OcOH   HE2  529   0.740   0.658   2.119
   20OcOH    CE  530   0.805   0.695   2.199
   20OcOH   HF1  531   0.871   0.628   2.393
   20OcOH   HF2  532   0.837   0.498   2.282
   20OcOH    CF  533   0.802   0.595   2.316
   20OcOH   HG1  534   0.629   0.679   2.414
   20OcOH   HG2  535   0.591   0.554   2.299
   20OcOH    CG  536   0.662   0.582   2.377
   20OcOH   HH1  537   0.686   0.381   2.457
   20OcOH   HH2  538   0.556   0.472   2.531
   20OcOH   HH3  539   0.723   0.509   2.573
   20OcOH    CH  540   0.657   0.480   2.491
   21OcOH    HO  541   1.925   4.516   0.966
   21OcOH    OH  542   1.911   4.448   0.898
   21OcOH   HA1  543   1.740   4.426   1.007
   21OcOH   HA2  544   1.716   4.478   0.842
   21OcOH    CA  545   1.775   4.411   0.905
   21OcOH   HB1  546   1.827   4.204   0.925
   21OcOH   HB2  547   1.793   4.250   0.761
   21OcOH    CB  548   1.760   4.264   0.864
   21OcOH   HC1  549   1.620   4.101   0.866
   21OcOH   HC2  550   1.585   4.223   0.985
   21OcOH    CC  551   1.617   4.209   0.882
   21OcOH   HD1  552   1.550   4.261   0.684
   21OcOH   HD2  553   1.505   4.378   0.806
   21OcOH    CD  554   1.514   4.271   0.786
   21OcOH   HE1  555   1.386   4.099   0.773
   21OcOH   HE2  556   1.338   4.212   0.897
   21OcOH    CE  557   1.376   4.205   0.795
   21OcOH   HF1  558   1.321   4.280   0.600
   21OcOH   HF2  559   1.249   4.369   0.731
   21OcOH    CF  560   1.274   4.268   0.698
   21OcOH   HG1  561   1.082   4.235   0.607
   21OcOH   HG2  562   1.171   4.089   0.635
   21OcOH    CG  563   1.146   4.185   0.679
   21OcOH   HH1  564   1.039   4.256   0.856
   21OcOH   HH2  565   1.125   4.104   0.881
   21OcOH   HH3  566   0.976   4.106   0.789
   21OcOH    CH  567   1.067   4.162   0.809
   22OcOH    HO  568   1.756   2.443   1.368
   22OcOH    OH  569   1.814   2.378   1.326
   22OcOH   HA1  570   1.703   2.212   1.366
   22OcOH   HA2  571   1.638   2.317   1.242
   22OcOH    CA  572   1.730   2.274   1.281
   22OcOH   HB1  573   1.882   2.135   1.217
   22OcOH   HB2  574   1.846   2.259   1.099
   22OcOH    CB  575   1.800   2.191   1.172
   22OcOH   HC1  576   1.632   2.156   1.043
   22OcOH   HC2  577   1.762   2.042   1.021
   22OcOH    CC  578   1.705   2.096   1.097
   22OcOH   HD1  579   1.580   2.049   1.267
   22OcOH   HD2  580   1.706   1.931   1.238
   22OcOH    CD  581   1.633   1.995   1.188
   22OcOH   HE1  582   1.468   1.974   1.051
   22OcOH   HE2  583   1.582   1.841   1.045
   22OcOH    CE  584   1.531   1.909   1.113
   22OcOH   HF1  585   1.398   1.898   1.283
   22OcOH   HF2  586   1.501   1.758   1.265
   22OcOH    CF  587   1.441   1.830   1.209
   22OcOH   HG1  588   1.272   1.828   1.074
   22OcOH   HG2  589   1.367   1.682   1.070
   22OcOH    CG  590   1.326   1.757   1.137
   22OcOH   HH1  591   1.150   1.637   1.180
   22OcOH   HH2  592   1.179   1.766   1.297
   22OcOH   HH3  593   1.278   1.621   1.301
   22OcOH    CH  594   1.228   1.691   1.234
   23OcOH    HO  595   4.434   0.613   0.307
   23OcOH    OH  596   4.374   0.579   0.239
   23OcOH   HA1  597   4.198   0.549   0.339
   23OcOH   HA2  598   4.251   0.716   0.330
   23OcOH    CA  599   4.244   0.623   0.273
   23OcOH   HB1  600   4.057   0.662   0.177
   23OcOH   HB2  601   4.158   0.551   0.088
   23OcOH    CB  602   4.160   0.643   0.147
   23OcOH   HC1  603   4.215   0.850   0.123
   23OcOH   HC2  604   4.309   0.741   0.024
   23OcOH    CC  605   4.208   0.761   0.061
   23OcOH   HD1  606   4.011   0.792   5.114
   23OcOH   HD2  607   4.120   0.705   5.008
   23OcOH    CD  608   4.114   0.788   5.078
   23OcOH   HE1  609   4.137   1.002   5.079
   23OcOH   HE2  610   4.251   0.920   4.975
   23OcOH    CE  611   4.147   0.920   5.007
   23OcOH   HF1  612   3.951   0.931   4.918
   23OcOH   HF2  613   4.073   0.871   4.809
   23OcOH    CF  614   4.055   0.946   4.887
   23OcOH   HG1  615   3.990   1.102   4.753
   23OcOH   HG2  616   4.048   1.161   4.907
   23OcOH    CG  617   4.068   1.087   4.828
   23OcOH   HH1  618   4.224   1.048   4.681
   23OcOH   HH2  619   4.286   1.107   4.835
   23OcOH   HH3  620   4.207   1.218   4.724
   23OcOH    CH  621   4.204   1.116   4.764
   24OcOH    HO  622   4.018   3.993   3.097
   24OcOH    OH  623   3.976   3.922   3.145
   24OcOH   HA1  624   3.799   3.819   3.148
   24OcOH   HA2  625   3.788   3.988   3.104
   24OcOH    CA  626   3.848   3.898   3.091
   24OcOH   HB1  627   3.905   3.943   2.887
   24OcOH   HB2  628   3.756   3.852   2.902
   24OcOH    CB  629   3.857   3.861   2.942
   24OcOH   HC1  630   4.035   3.741   2.952
   24OcOH   HC2  631   3.890   3.650   2.976
   24OcOH    CC  632   3.933   3.730   2.917
   24OcOH   HD1  633   3.969   3.775   2.709
   24OcOH   HD2  634   3.837   3.664   2.735
   24OcOH    CD  635   3.938   3.689   2.769
   24OcOH   HE1  636   4.134   3.601   2.774
   24OcOH   HE2  637   4.006   3.488   2.808
   24OcOH    CE  638   4.034   3.572   2.744
   24OcOH   HF1  639   4.054   3.612   2.533
   24OcOH   HF2  640   3.937   3.488   2.570
   24OcOH    CF  641   4.036   3.526   2.597
   24OcOH   HG1  642   4.241   3.460   2.594
   24OcOH   HG2  643   4.128   3.335   2.638
   24OcOH    CG  644   4.143   3.419   2.571
   24OcOH   HH1  645   4.049   3.316   2.404
   24OcOH   HH2  646   4.225   3.303   2.406
   24OcOH   HH3  647   4.149   3.453   2.356
   24OcOH    CH  648   4.141   3.370   2.426
   25OcOH    HO  649   4.193   4.315   2.742
   25OcOH    OH  650   4.246   4.283   2.814
   25OcOH   HA1  651   4.333   4.462   2.863
   25OcOH   HA2  652   4.430   4.320   2.898
   25OcOH    CA  653   4.362   4.363   2.825
   25OcOH   HB1  654   4.512   4.451   2.697
   25OcOH   HB2  655   4.361   4.422   2.616
   25OcOH    CB  656   4.430   4.379   2.688
   25OcOH   HC1  657   4.565   4.211   2.701
   25OcOH   HC2  658   4.410   4.170   2.633
   25OcOH    CC  659   4.488   4.247   2.633
   25OcOH   HD1  660   4.618   4.343   2.489
   25OcOH   HD2  661   4.465   4.291   2.423
   25OcOH    CD  662   4.545   4.262   2.491
   25OcOH   HE1  663   4.699   4.111   2.502
   25OcOH   HE2  664   4.543   4.049   2.454
   25OcOH    CE  665   4.611   4.133   2.440
   25OcOH   HF1  666   4.705   4.235   2.275
   25OcOH   HF2  667   4.564   4.146   2.229
   25OcOH    CF  668   4.652   4.141   2.292
   25OcOH   HG1  669   4.777   4.046   2.145
   25OcOH   HG2  670   4.833   4.023   2.307
   25OcOH    CG  671   4.743   4.026   2.246
   25OcOH   HH1  672   4.740   3.811   2.210
   25OcOH   HH2  673   4.583   3.889   2.189
   25OcOH   HH3  674   4.647   3.860   2.351
   25OcOH    CH  675   4.674   3.889   2.249
   26OcOH    HO  676   0.989   4.341   3.927
   26OcOH    OH  677   1.065   4.366   3.981
   26OcOH   HA1  678   1.246   4.458   3.961
   26OcOH   HA2  679   1.183   4.391   3.813
   26OcOH    CA  680   1.154   4.444   3.904
   26OcOH   HB1  681   1.173   4.649   3.839
   26OcOH   HB2  682   1.056   4.626   3.965
   26OcOH    CB  683   1.093   4.582   3.873
   26OcOH   HC1  684   0.902   4.512   3.797
   26OcOH   HC2  685   0.937   4.680   3.766
   26OcOH    CC  686   0.981   4.581   3.767
   26OcOH   HD1  687   1.063   4.441   3.624
   26OcOH   HD2  688   1.119   4.605   3.602
   26OcOH    CD  689   1.031   4.545   3.626
   26OcOH   HE1  690   0.964   4.520   3.425
   26OcOH   HE2  691   0.834   4.509   3.541
   26OcOH    CE  692   0.925   4.565   3.516
   26OcOH   HF1  693   0.983   4.770   3.482
   26OcOH   HF2  694   0.834   4.753   3.571
   26OcOH    CF  695   0.890   4.712   3.488
   26OcOH   HG1  696   0.869   4.688   3.275
   26OcOH   HG2  697   0.718   4.674   3.363
   26OcOH    CG  698   0.812   4.730   3.358
   26OcOH   HH1  699   0.728   4.886   3.232
   26OcOH   HH2  700   0.873   4.935   3.318
   26OcOH   HH3  701   0.720   4.921   3.404
   26OcOH    CH  702   0.782   4.877   3.326
   27OcOH    HO  703   3.065   3.850   0.613
   27OcOH    OH  704   3.000   3.907   0.655
   27OcOH   HA1  705   3.146   4.040   0.709
   27OcOH   HA2  706   2.996   4.055   0.798
   27OcOH    CA  707   3.066   3.983   0.755
   27OcOH   HB1  708   3.190   3.947   0.927
   27OcOH   HB2  709   3.187   3.815   0.816
   27OcOH    CB  710   3.123   3.890   0.863
   27OcOH   HC1  711   2.938   3.780   0.889
   27OcOH   HC2  712   3.064   3.735   1.001
   27OcOH    CC  713   3.018   3.821   0.951
   27OcOH   HD1  714   2.912   3.999   1.010
   27OcOH   HD2  715   3.040   3.954   1.120
   27OcOH    CD  716   2.959   3.914   1.059
   27OcOH   HE1  717   2.775   3.805   1.087
   27OcOH   HE2  718   2.903   3.758   1.197
   27OcOH    CE  719   2.856   3.844   1.149
   27OcOH   HF1  720   2.747   4.022   1.209
   27OcOH   HF2  721   2.881   3.981   1.313
   27OcOH    CF  722   2.799   3.938   1.256
   27OcOH   HG1  723   2.753   3.781   1.399
   27OcOH   HG2  724   2.682   3.936   1.437
   27OcOH    CG  725   2.704   3.868   1.355
   27OcOH   HH1  726   2.585   3.750   1.214
   27OcOH   HH2  727   2.519   3.910   1.247
   27OcOH   HH3  728   2.504   3.782   1.367
   27OcOH    CH  729   2.571   3.825   1.292
   28OcOH    HO  730   1.211   1.106   2.929
   28OcOH    OH  731   1.238   1.037   2.991
   28OcOH   HA1  732   1.387   0.987   2.858
   28OcOH   HA2  733   1.356   0.869   2.984
   28OcOH    CA  734   1.308   0.939   2.917
   28OcOH   HB1  735   1.160   0.940   2.759
   28OcOH   HB2  736   1.128   0.825   2.887
   28OcOH    CB  737   1.207   0.867   2.826
   28OcOH   HC1  738   1.355   0.797   2.684
   28OcOH   HC2  739   1.314   0.681   2.810
   28OcOH    CC  740   1.272   0.756   2.742
   28OcOH   HD1  741   1.132   0.762   2.577
   28OcOH   HD2  742   1.085   0.654   2.706
   28OcOH    CD  743   1.171   0.688   2.648
   28OcOH   HE1  744   1.320   0.604   2.517
   28OcOH   HE2  745   1.266   0.495   2.643
   28OcOH    CE  746   1.232   0.570   2.572
   28OcOH   HF1  747   1.108   0.578   2.396
   28OcOH   HF2  748   1.041   0.481   2.524
   28OcOH    CF  749   1.134   0.506   2.473
   28OcOH   HG1  750   1.289   0.401   2.366
   28OcOH   HG2  751   1.208   0.303   2.484
   28OcOH    CG  752   1.191   0.379   2.408
   28OcOH   HH1  753   1.145   0.234   2.252
   28OcOH   HH2  754   1.084   0.396   2.219
   28OcOH   HH3  755   1.003   0.295   2.338
   28OcOH    CH  756   1.101   0.323   2.298
   29OcOH    HO  757   0.388   0.154   4.288
   29OcOH    OH  758   0.430   0.220   4.345
   29OcOH   HA1  759   0.367   0.354   4.202
   29OcOH   HA2  760   0.287   0.368   4.357
   29OcOH    CA  761   0.383   0.349   4.309
   29OcOH   HB1  762   0.581   0.435   4.298
   29OcOH   HB2  763   0.514   0.435   4.458
   29OcOH    CB  764   0.489   0.452   4.353
   29OcOH   HC1  765   0.354   0.616   4.395
   29OcOH   HC2  766   0.522   0.660   4.386
   29OcOH    CC  767   0.446   0.599   4.339
   29OcOH   HD1  768   0.339   0.595   4.151
   29OcOH   HD2  769   0.512   0.612   4.133
   29OcOH    CD  770   0.427   0.645   4.193
   29OcOH   HE1  771   0.365   0.817   4.081
   29OcOH   HE2  772   0.338   0.834   4.252
   29OcOH    CE  773   0.410   0.797   4.179
   29OcOH   HF1  774   0.612   0.834   4.115
   29OcOH   HF2  775   0.588   0.856   4.286
   29OcOH    CF  776   0.543   0.874   4.189
   29OcOH   HG1  777   0.479   1.044   4.071
   29OcOH   HG2  778   0.460   1.066   4.244
   29OcOH    CG  779   0.527   1.025   4.168
   29OcOH   HH1  780   0.729   1.061   4.096
   29OcOH   HH2  781   0.710   1.085   4.269
   29OcOH   HH3  782   0.648   1.205   4.156
   29OcOH    CH  783   0.661   1.098   4.173
   30OcOH    HO  784   1.381   2.907   1.140
   30OcOH    OH  785   1.311   2.918   1.075
   30OcOH   HA1  786   1.194   2.804   1.199
   30OcOH   HA2  787   1.169   2.978   1.211
   30OcOH    CA  788   1.187   2.896   1.141
   30OcOH   HB1  789   1.094   2.803   0.971
   30OcOH   HB2  790   1.072   2.976   0.976
   30OcOH    CB  791   1.074   2.886   1.038
   30OcOH   HC1  792   0.941   2.780   1.170
   30OcOH   HC2  793   0.915   2.952   1.168
   30OcOH    CC  794   0.937   2.866   1.105
   30OcOH   HD1  795   0.845   2.762   0.940
   30OcOH   HD2  796   0.821   2.935   0.936
   30OcOH    CD  797   0.824   2.848   1.002
   30OcOH   HE1  798   0.686   2.738   1.128
   30OcOH   HE2  799   0.666   2.911   1.136
   30OcOH    CE  800   0.686   2.829   1.067
   30OcOH   HF1  801   0.595   2.743   0.891
   30OcOH   HF2  802   0.570   2.916   0.908
   30OcOH    CF  803   0.573   2.822   0.963
   30OcOH   HG1  804   0.435   2.698   1.075
   30OcOH   HG2  805   0.417   2.869   1.105
   30OcOH    CG  806   0.435   2.796   1.026
   30OcOH   HH1  807   0.225   2.784   0.971
   30OcOH   HH2  808   0.335   2.729   0.845
   30OcOH   HH3  809   0.316   2.901   0.878
   30OcOH    CH  810   0.321   2.803   0.924
   31OcOH    HO  811   2.201   2.158   1.352
   31OcOH    OH  812   2.275   2.097   1.345
   31OcOH   HA1  813   2.258   2.110   1.142
   31OcOH   HA2  814   2.359   1.979   1.200
   31OcOH    CA  815   2.267   2.034   1.219
   31OcOH   HB1  816   2.056   1.991   1.243
   31OcOH   HB2  817   2.161   1.860   1.290
   31OcOH    CB  818   2.147   1.938   1.215
   31OcOH   HC1  819   2.114   1.953   1.003
   31OcOH   HC2  820   2.222   1.824   1.050
   31OcOH    CC  821   2.130   1.874   1.077
   31OcOH   HD1  822   1.919   1.825   1.086
   31OcOH   HD2  823   2.024   1.699   1.147
   31OcOH    CD  824   2.014   1.773   1.068
   31OcOH   HE1  825   2.010   1.777   0.852
   31OcOH   HE2  826   2.104   1.646   0.919
   31OcOH    CE  827   2.011   1.702   0.932
   31OcOH   HF1  828   1.799   1.662   0.930
   31OcOH   HF2  829   1.895   1.531   0.993
   31OcOH    CF  830   1.892   1.607   0.915
   31OcOH   HG1  831   1.891   1.616   0.699
   31OcOH   HG2  832   1.983   1.483   0.765
   31OcOH    CG  833   1.891   1.540   0.777
   31OcOH   HH1  834   1.772   1.367   0.830
   31OcOH   HH2  835   1.775   1.401   0.657
   31OcOH   HH3  836   1.677   1.501   0.765
   31OcOH    CH  837   1.772   1.447   0.756
   32OcOH    HO  838   0.843   1.954   3.862
   32OcOH    OH  839   0.899   1.897   3.808
   32OcOH   HA1  840   0.934   2.038   3.664
   32OcOH   HA2  841   1.043   2.045   3.801
   32OcOH    CA  842   0.990   1.977   3.735
   32OcOH   HB1  843   1.149   1.944   3.594
   32OcOH   HB2  844   1.034   1.814   3.601
   32OcOH    CB  845   1.089   1.885   3.662
   32OcOH   HC1  846   1.241   1.884   3.815
   32OcOH   HC2  847   1.123   1.756   3.833
   32OcOH    CC  848   1.182   1.810   3.760
   32OcOH   HD1  849   1.329   1.764   3.609
   32OcOH   HD2  850   1.219   1.633   3.642
   32OcOH    CD  851   1.277   1.712   3.689
   32OcOH   HE1  852   1.435   1.732   3.835
   32OcOH   HE2  853   1.326   1.598   3.866
   32OcOH    CE  854   1.379   1.651   3.787
   32OcOH   HF1  855   1.530   1.608   3.638
   32OcOH   HF2  856   1.424   1.475   3.671
   32OcOH    CF  857   1.478   1.556   3.718
   32OcOH   HG1  858   1.639   1.582   3.859
   32OcOH   HG2  859   1.530   1.452   3.901
   32OcOH    CG  860   1.581   1.500   3.817
   32OcOH   HH1  861   1.623   1.311   3.717
   32OcOH   HH2  862   1.751   1.364   3.825
   32OcOH   HH3  863   1.730   1.443   3.669
   32OcOH    CH  864   1.677   1.399   3.753
   33OcOH    HO  865   2.358   2.266   0.009
   33OcOH    OH  866   2.393   2.182   5.120
   33OcOH   HA1  867   2.344   2.033   4.985
   33OcOH   HA2  868   2.209   2.126   5.047
   33OcOH    CA  869   2.313   2.133   5.013
   33OcOH   HB1  870   2.296   2.330   4.924
   33OcOH   HB2  871   2.246   2.199   4.820
   33OcOH    CB  872   2.322   2.228   4.893
   33OcOH   HC1  873   2.538   2.250   4.897
   33OcOH   HC2  874   2.480   2.126   4.790
   33OcOH    CC  875   2.460   2.227   4.825
   33OcOH   HD1  876   2.455   2.427   4.747
   33OcOH   HD2  877   2.384   2.310   4.639
   33OcOH    CD  878   2.468   2.326   4.708
   33OcOH   HE1  879   2.608   2.410   4.568
   33OcOH   HE2  880   2.684   2.322   4.698
   33OcOH    CE  881   2.600   2.320   4.629
   33OcOH   HF1  882   2.523   2.194   4.472
   33OcOH   HF2  883   2.607   2.106   4.597
   33OcOH    CF  884   2.610   2.197   4.537
   33OcOH   HG1  885   2.743   2.290   4.394
   33OcOH   HG2  886   2.825   2.195   4.517
   33OcOH    CG  887   2.737   2.197   4.452
   33OcOH   HH1  888   2.659   2.079   4.286
   33OcOH   HH2  889   2.739   1.984   4.411
   33OcOH   HH3  890   2.835   2.078   4.298
   33OcOH    CH  891   2.743   2.078   4.356
   34OcOH    HO  892   4.980   3.742   1.789
   34OcOH    OH  893   5.033   3.660   1.793
   34OcOH   HA1  894   0.081   3.602   1.860
   34OcOH   HA2  895   0.077   3.756   1.777
   34OcOH    CA  896   0.022   3.693   1.847
   34OcOH   HB1  897   5.081   3.855   1.967
   34OcOH   HB2  898   0.102   3.802   2.015
   34OcOH    CB  899   0.005   3.766   1.981
   34OcOH   HC1  900   4.981   3.644   2.055
   34OcOH   HC2  901   0.002   3.589   2.105
   34OcOH    CC  902   5.078   3.679   2.090
   34OcOH   HD1  903   5.000   3.842   2.207
   34OcOH   HD2  904   0.021   3.787   2.260
   34OcOH    CD  905   5.060   3.752   2.223
   34OcOH   HE1  906   4.901   3.623   2.287
   34OcOH   HE2  907   5.058   3.577   2.348
   34OcOH    CE  908   4.994   3.663   2.328
   34OcOH   HF1  909   4.900   3.821   2.440
   34OcOH   HF2  910   5.055   3.773   2.503
   34OcOH    CF  911   4.963   3.735   2.460
   34OcOH   HG1  912   4.802   3.600   2.514
   34OcOH   HG2  913   4.957   3.557   2.583
   34OcOH    CG  914   4.892   3.642   2.560
   34OcOH   HH1  915   4.940   3.753   2.740
   34OcOH   HH2  916   4.802   3.646   2.757
   34OcOH   HH3  917   4.785   3.797   2.668
   34OcOH    CH  918   4.853   3.714   2.689
   35OcOH    HO  919   0.941   2.031   0.597
   35OcOH    OH  920   0.986   2.116   0.605
   35OcOH   HA1  921   0.949   2.084   0.804
   35OcOH   HA2  922   1.117   2.068   0.755
   35OcOH    CA  923   1.026   2.127   0.740
   35OcOH   HB1  924   1.121   2.316   0.704
   35OcOH   HB2  925   1.097   2.280   0.873
   35OcOH    CB  926   1.050   2.274   0.775
   35OcOH   HC1  927   0.872   2.355   0.679
   35OcOH   HC2  928   0.850   2.306   0.844
   35OcOH    CC  929   0.920   2.357   0.777
   35OcOH   HD1  930   0.987   2.505   0.922
   35OcOH   HD2  931   0.834   2.537   0.849
   35OcOH    CD  932   0.934   2.502   0.827
   35OcOH   HE1  933   0.961   2.581   0.625
   35OcOH   HE2  934   0.957   2.701   0.750
   35OcOH    CE  935   0.996   2.602   0.727
   35OcOH   HF1  936   1.194   2.519   0.691
   35OcOH   HF2  937   1.184   2.619   0.834
   35OcOH    CF  938   1.150   2.610   0.730
   35OcOH   HG1  939   1.169   2.723   0.546
   35OcOH   HG2  940   1.162   2.822   0.690
   35OcOH    CG  941   1.203   2.730   0.650
   35OcOH   HH1  942   1.391   2.823   0.594
   35OcOH   HH2  943   1.394   2.749   0.753
   35OcOH   HH3  944   1.401   2.648   0.609
   35OcOH    CH  945   1.356   2.738   0.652
   36OcOH    HO  946   1.949   2.369   4.750
   36OcOH    OH  947   1.948   2.338   4.841
   36OcOH   HA1  948   1.874   2.515   4.911
   36OcOH   HA2  949   1.755   2.403   4.847
   36OcOH    CA  950   1.846   2.410   4.906
   36OcOH   HB1  951   1.920   2.352   5.100
   36OcOH   HB2  952   1.792   2.250   5.041
   36OcOH    CB  953   1.824   2.354   5.048
   36OcOH   HC1  954   1.725   2.397   0.097
   36OcOH   HC2  955   1.758   2.538   0.000
   36OcOH    CC  956   1.724   2.435   5.131
   36OcOH   HD1  957   1.550   2.325   5.068
   36OcOH   HD2  958   1.574   2.471   4.977
   36OcOH    CD  959   1.579   2.429   5.078
   36OcOH   HE1  960   1.377   2.473   5.135
   36OcOH   HE2  961   1.487   2.463   0.134
   36OcOH    CE  962   1.478   2.501   0.031
   36OcOH   HF1  963   1.482   2.690   5.063
   36OcOH   HF2  964   1.588   2.684   0.065
   36OcOH    CF  965   1.490   2.654   0.029
   36OcOH   HG1  966   1.284   2.693   0.080
   36OcOH   HG2  967   1.390   2.687   0.218
   36OcOH    CG  968   1.383   2.722   0.116
   36OcOH   HH1  969   1.317   2.920   0.176
   36OcOH   HH2  970   1.383   2.915   0.013
   36OcOH   HH3  971   1.491   2.907   0.153
   36OcOH    CH  972   1.394   2.875   0.114
   37OcOH    HO  973   0.852   0.280   4.980
   37OcOH    OH  974   0.894   0.356   5.020
   37OcOH   HA1  975   1.034   0.494   4.958
   37OcOH   HA2  976   1.001   0.363   4.845
   37OcOH    CA  977   0.954   0.432   4.916
   37OcOH   HB1  978   0.798   0.581   4.920
   37OcOH   HB2  979   0.775   0.458   4.798
   37OcOH    CB  980   0.851   0.520   4.846
   37OcOH   HC1  981   0.988   0.677   4.790
   37OcOH   HC2  982   0.976   0.549   4.674
   37OcOH    CC  983   0.917   0.611   4.741
   37OcOH   HD1  984   0.744   0.628   4.611
   37OcOH   HD2  985   0.874   0.738   4.575
   37OcOH    CD  986   0.818   0.693   4.657
   37OcOH   HE1  987   0.685   0.764   4.812
   37OcOH   HE2  988   0.822   0.868   4.784
   37OcOH    CE  989   0.748   0.806   4.734
   37OcOH   HF1  990   0.587   0.832   4.592
   37OcOH   HF2  991   0.726   0.934   4.561
   37OcOH    CF  992   0.663   0.894   4.641
   37OcOH   HG1  993   0.529   0.972   4.792
   37OcOH   HG2  994   0.670   1.072   4.764
   37OcOH    CG  995   0.595   1.011   4.714
   37OcOH   HH1  996   0.576   1.142   4.541
   37OcOH   HH2  997   0.466   1.181   4.673
   37OcOH   HH3  998   0.434   1.042   4.569
   37OcOH    CH  999   0.513   1.099   4.619
   38OcOH    HO 1000   1.366   1.368   0.325
   38OcOH    OH 1001   1.423   1.327   0.391
   38OcOH   HA1 1002   1.620   1.333   0.447
   38OcOH   HA2 1003   1.591   1.337   0.274
   38OcOH    CA 1004   1.555   1.374   0.370
   38OcOH   HB1 1005   1.515   1.563   0.467
   38OcOH   HB2 1006   1.490   1.565   0.294
   38OcOH    CB 1007   1.556   1.527   0.372
   38OcOH   HC1 1008   1.760   1.559   0.437
   38OcOH   HC2 1009   1.743   1.543   0.264
   38OcOH    CC 1010   1.697   1.587   0.353
   38OcOH   HD1 1011   1.644   1.784   0.424
   38OcOH   HD2 1012   1.632   1.765   0.251
   38OcOH    CD 1013   1.694   1.739   0.338
   38OcOH   HE1 1014   1.895   1.776   0.407
   38OcOH   HE2 1015   1.881   1.760   0.233
   38OcOH    CE 1016   1.833   1.802   0.321
   38OcOH   HF1 1017   1.771   1.994   0.394
   38OcOH   HF2 1018   1.766   1.982   0.220
   38OcOH    CF 1019   1.825   1.955   0.308
   38OcOH   HG1 1020   1.947   2.132   0.312
   38OcOH   HG2 1021   2.024   1.994   0.386
   38OcOH    CG 1022   1.962   2.025   0.301
   38OcOH   HH1 1023   2.063   1.894   0.159
   38OcOH   HH2 1024   2.131   2.056   0.167
   38OcOH   HH3 1025   1.978   2.029   0.084
   38OcOH    CH 1026   2.038   1.999   0.170
   39OcOH    HO 1027   2.780   2.025   3.117
   39OcOH    OH 1028   2.791   2.073   3.034
   39OcOH   HA1 1029   2.854   2.039   2.843
   39OcOH   HA2 1030   2.959   1.975   2.968
   39OcOH    CA 1031   2.855   1.990   2.940
   39OcOH   HB1 1032   2.676   1.873   2.908
   39OcOH   HB2 1033   2.784   1.805   3.028
   39OcOH    CB 1034   2.781   1.855   2.931
   39OcOH   HC1 1035   2.836   1.815   2.727
   39OcOH   HC2 1036   2.948   1.750   2.844
   39OcOH    CC 1037   2.842   1.764   2.824
   39OcOH   HD1 1038   2.665   1.642   2.801
   39OcOH   HD2 1039   2.786   1.574   2.908
   39OcOH    CD 1040   2.773   1.628   2.814
   39OcOH   HE1 1041   2.808   1.598   2.604
   39OcOH   HE2 1042   2.936   1.537   2.706
   39OcOH    CE 1043   2.828   1.545   2.697
   39OcOH   HF1 1044   2.658   1.411   2.690
   39OcOH   HF2 1045   2.794   1.348   2.780
   39OcOH    CF 1046   2.767   1.404   2.690
   39OcOH   HG1 1047   2.782   1.381   2.477
   39OcOH   HG2 1048   2.924   1.326   2.564
   39OcOH    CG 1049   2.814   1.327   2.566
   39OcOH   HH1 1050   2.797   1.132   2.472
   39OcOH   HH2 1051   2.653   1.181   2.561
   39OcOH   HH3 1052   2.797   1.127   2.648
   39OcOH    CH 1053   2.762   1.184   2.562
   40OcOH    HO 1054   4.442   5.118   1.605
   40OcOH    OH 1055   4.452   5.026   1.635
   40OcOH   HA1 1056   4.610   5.001   1.507
   40OcOH   HA2 1057   4.651   5.060   1.667
   40OcOH    CA 1058   4.586   4.990   1.613
   40OcOH   HB1 1059   4.549   4.778   1.600
   40OcOH   HB2 1060   4.576   4.835   1.763
   40OcOH    CB 1061   4.610   4.846   1.660
   40OcOH   HC1 1062   4.791   4.812   1.547
   40OcOH   HC2 1063   4.818   4.875   1.708
   40OcOH    CC 1064   4.757   4.804   1.651
   40OcOH   HD1 1065   4.723   4.592   1.643
   40OcOH   HD2 1066   4.746   4.652   1.805
   40OcOH    CD 1067   4.782   4.662   1.702
   40OcOH   HE1 1068   4.934   4.510   1.704
   40OcOH   HE2 1069   4.971   4.642   1.597
   40OcOH    CE 1070   4.930   4.619   1.696
   40OcOH   HF1 1071   4.975   4.654   1.904
   40OcOH   HF2 1072   5.013   4.789   1.800
   40OcOH    CF 1073   5.017   4.680   1.806
   40OcOH   HG1 1074   0.031   4.525   1.801
   40OcOH   HG2 1075   0.070   4.665   1.704
   40OcOH    CG 1076   0.026   4.634   1.799
   40OcOH   HH1 1077   0.214   4.654   1.906
   40OcOH   HH2 1078   0.073   4.658   2.011
   40OcOH   HH3 1079   0.113   4.798   1.912
   40OcOH    CH 1080   0.111   4.689   1.914
   41OcOH    HO 1081   4.479   1.848   0.118
   41OcOH    OH 1082   4.438   1.846   0.030
   41OcOH   HA1 1083   4.444   1.643   0.005
   41OcOH   HA2 1084   4.457   1.737   4.994
   41OcOH    CA 1085   4.488   1.733   5.099
   41OcOH   HB1 1086   4.675   1.639   5.052
   41OcOH   HB2 1087   4.669   1.705   0.076
   41OcOH    CB 1088   4.641   1.725   5.109
   41OcOH   HC1 1089   4.673   1.885   4.965
   41OcOH   HC2 1090   4.693   1.931   5.132
   41OcOH    CC 1091   4.714   1.851   5.061
   41OcOH   HD1 1092   4.899   1.767   5.131
   41OcOH   HD2 1093   4.914   1.930   5.071
   41OcOH    CD 1094   4.867   1.834   5.051
   41OcOH   HE1 1095   5.020   1.748   4.928
   41OcOH   HE2 1096   4.860   1.693   4.887
   41OcOH    CE 1097   4.917   1.781   4.916
   41OcOH   HF1 1098   4.965   1.977   4.837
   41OcOH   HF2 1099   4.810   1.917   4.785
   41OcOH    CF 1100   4.913   1.887   4.804
   41OcOH   HG1 1101   5.081   1.811   4.691
   41OcOH   HG2 1102   4.927   1.745   4.642
   41OcOH    CG 1103   4.976   1.837   4.673
   41OcOH   HH1 1104   5.017   2.034   4.588
   41OcOH   HH2 1105   4.863   1.964   4.538
   41OcOH   HH3 1106   5.014   1.904   4.469
   41OcOH    CH 1107   4.967   1.941   4.561
   42OcOH    HO 1108   4.565   1.991   0.236
   42OcOH    OH 1109   4.559   1.901   0.272
   42OcOH   HA1 1110   4.570   1.846   0.469
   42OcOH   HA2 1111   4.538   2.016   0.441
   42OcOH    CA 1112   4.515   1.915   0.406
   42OcOH   HB1 1113   4.310   1.952   0.346
   42OcOH   HB2 1114   4.329   1.913   0.515
   42OcOH    CB 1115   4.364   1.887   0.415
   42OcOH   HC1 1116   4.368   1.713   0.288
   42OcOH   HC2 1117   4.384   1.678   0.458
   42OcOH    CC 1118   4.330   1.740   0.386
   42OcOH   HD1 1119   4.128   1.777   0.323
   42OcOH   HD2 1120   4.141   1.735   0.492
   42OcOH    CD 1121   4.179   1.711   0.393
   42OcOH   HE1 1122   4.038   1.557   0.339
   42OcOH   HE2 1123   4.193   1.540   0.262
   42OcOH    CE 1124   4.145   1.565   0.357
   42OcOH   HF1 1125   4.129   1.484   0.556
   42OcOH   HF2 1126   4.291   1.476   0.490
   42OcOH    CF 1127   4.186   1.464   0.465
   42OcOH   HG1 1128   4.058   1.305   0.393
   42OcOH   HG2 1129   4.221   1.298   0.331
   42OcOH    CG 1130   4.162   1.319   0.421
   42OcOH   HH1 1131   4.186   1.115   0.495
   42OcOH   HH2 1132   4.138   1.232   0.618
   42OcOH   HH3 1133   4.304   1.229   0.559
   42OcOH    CH 1134   4.200   1.218   0.530
   43OcOH    HO 1135   3.259   0.098   0.460
   43OcOH    OH 1136   3.335   0.092   0.399
   43OcOH   HA1 1137   3.398   5.063   0.501
   43OcOH   HA2 1138   3.516   5.132   0.392
   43OcOH    CA 1139   3.438   0.021   0.464
   43OcOH   HB1 1140   3.558   0.040   0.641
   43OcOH   HB2 1141   3.414   0.137   0.644
   43OcOH    CB 1142   3.495   0.104   0.579
   43OcOH   HC1 1143   3.665   0.188   0.476
   43OcOH   HC2 1144   3.520   0.284   0.462
   43OcOH    CC 1145   3.578   0.224   0.532
   43OcOH   HD1 1146   3.671   0.252   0.726
   43OcOH   HD2 1147   3.536   0.358   0.695
   43OcOH    CD 1148   3.624   0.313   0.649
   43OcOH   HE1 1149   3.685   0.473   0.515
   43OcOH   HE2 1150   3.718   0.503   0.683
   43OcOH    CE 1151   3.720   0.425   0.606
   43OcOH   HF1 1152   3.870   0.301   0.513
   43OcOH   HF2 1153   3.899   0.330   0.682
   43OcOH    CF 1154   3.866   0.378   0.590
   43OcOH   HG1 1155   4.059   0.446   0.525
   43OcOH   HG2 1156   3.927   0.542   0.463
   43OcOH    CG 1157   3.963   0.491   0.552
   43OcOH   HH1 1158   3.896   0.650   0.686
   43OcOH   HH2 1159   4.064   0.664   0.636
   43OcOH   HH3 1160   4.018   0.545   0.757
   43OcOH    CH 1161   3.987   0.593   0.664
   44OcOH    HO 1162   0.175   1.747   2.592
   44OcOH    OH 1163   0.098   1.722   2.539
   44OcOH   HA1 1164   0.157   1.526   2.559
   44OcOH   HA2 1165   0.030   1.554   2.441
   44OcOH    CA 1166   0.123   1.595   2.481
   44OcOH   HB1 1167   0.259   1.507   2.339
   44OcOH   HB2 1168   0.319   1.653   2.412
   44OcOH    CB 1169   0.229   1.607   2.371
   44OcOH   HC1 1170   0.096   1.635   2.203
   44OcOH   HC2 1171   0.143   1.784   2.281
   44OcOH    CC 1172   0.181   1.687   2.249
   44OcOH   HD1 1173   0.329   1.611   2.111
   44OcOH   HD2 1174   0.375   1.759   2.192
   44OcOH    CD 1175   0.291   1.708   2.144
   44OcOH   HE1 1176   0.172   1.730   1.966
   44OcOH   HE2 1177   0.191   1.878   2.057
   44OcOH    CE 1178   0.244   1.789   2.023
   44OcOH   HF1 1179   0.418   1.746   1.900
   44OcOH   HF2 1180   0.429   1.894   1.991
   44OcOH    CF 1181   0.361   1.833   1.932
   44OcOH   HG1 1182   0.246   1.991   1.839
   44OcOH   HG2 1183   0.403   1.966   1.768
   44OcOH    CG 1184   0.316   1.914   1.809
   44OcOH   HH1 1185   0.329   1.756   1.659
   44OcOH   HH2 1186   0.223   1.889   1.614
   44OcOH   HH3 1187   0.169   1.770   1.732
   44OcOH    CH 1188   0.256   1.827   1.698
   45OcOH    HO 1189   0.182   1.596   0.547
   45OcOH    OH 1190   0.186   1.504   0.577
   45OcOH   HA1 1191   0.109   1.323   0.515
   45OcOH   HA2 1192   0.028   1.465   0.452
   45OcOH    CA 1193   0.126   1.424   0.477
   45OcOH   HB1 1194   0.226   1.521   0.311
   45OcOH   HB2 1195   0.165   1.362   0.275
   45OcOH    CB 1196   0.215   1.421   0.352
   45OcOH   HC1 1197   0.405   1.422   0.453
   45OcOH   HC2 1198   0.344   1.262   0.426
   45OcOH    CC 1199   0.354   1.360   0.379
   45OcOH   HD1 1200   0.546   1.327   0.290
   45OcOH   HD2 1201   0.451   1.445   0.205
   45OcOH    CD 1202   0.445   1.349   0.255
   45OcOH   HE1 1203   0.374   1.150   0.212
   45OcOH   HE2 1204   0.311   1.272   0.104
   45OcOH    CE 1205   0.401   1.240   0.157
   45OcOH   HF1 1206   0.596   1.160   0.108
   45OcOH   HF2 1207   0.549   1.297   0.011
   45OcOH    CF 1208   0.512   1.205   0.055
   45OcOH   HG1 1209   0.385   1.159   5.022
   45OcOH   HG2 1210   0.548   1.101   5.008
   45OcOH    CG 1211   0.466   1.112   5.078
   45OcOH   HH1 1212   0.393   0.911   5.040
   45OcOH   HH2 1213   0.337   0.977   0.056
   45OcOH   HH3 1214   0.503   0.921   0.041
   45OcOH    CH 1215   0.422   0.973   5.125
   46OcOH    HO 1216   2.518   2.060   0.014
   46OcOH    OH 1217   2.590   1.997   0.031
   46OcOH   HA1 1218   2.630   1.844   0.163
   46OcOH   HA2 1219   2.559   1.988   0.234
   46OcOH    CA 1220   2.556   1.922   0.146
   46OcOH   HB1 1221   2.342   1.941   0.116
   46OcOH   HB2 1222   2.388   1.816   0.228
   46OcOH    CB 1223   2.415   1.862   0.133
   46OcOH   HC1 1224   2.479   1.678   0.040
   46OcOH   HC2 1225   2.430   1.801   5.062
   46OcOH    CC 1226   2.405   1.756   0.022
   46OcOH   HD1 1227   2.192   1.770   5.128
   46OcOH   HD2 1228   2.238   1.652   0.112
   46OcOH    CD 1229   2.265   1.692   0.014
   46OcOH   HE1 1230   2.291   1.623   4.950
   46OcOH   HE2 1231   2.328   1.502   5.069
   46OcOH    CE 1232   2.258   1.582   5.045
   46OcOH   HF1 1233   2.118   1.459   4.937
   46OcOH   HF2 1234   2.047   1.603   5.002
   46OcOH    CF 1235   2.117   1.523   5.025
   46OcOH   HG1 1236   2.140   1.366   0.036
   46OcOH   HG2 1237   2.056   1.508   0.096
   46OcOH    CG 1238   2.066   1.442   0.009
   46OcOH   HH1 1239   1.854   1.447   5.094
   46OcOH   HH2 1240   1.898   1.318   0.070
   46OcOH   HH3 1241   1.938   1.304   5.036
   46OcOH    CH 1242   1.931   1.374   5.119
   47OcOH    HO 1243   2.095   1.414   1.690
   47OcOH    OH 1244   2.004   1.396   1.666
   47OcOH   HA1 1245   2.021   1.540   1.520
   47OcOH   HA2 1246   2.042   1.374   1.466
   47OcOH    CA 1247   1.984   1.438   1.533
   47OcOH   HB1 1248   1.781   1.502   1.565
   47OcOH   HB2 1249   1.797   1.332   1.530
   47OcOH    CB 1250   1.834   1.430   1.502
   47OcOH   HC1 1251   1.834   1.555   1.326
   47OcOH   HC2 1252   1.861   1.386   1.294
   47OcOH    CC 1253   1.803   1.455   1.355
   47OcOH   HD1 1254   1.595   1.514   1.372
   47OcOH   HD2 1255   1.620   1.342   1.366
   47OcOH    CD 1256   1.654   1.436   1.323
   47OcOH   HE1 1257   1.648   1.533   1.131
   47OcOH   HE2 1258   1.694   1.365   1.124
   47OcOH    CE 1259   1.626   1.435   1.173
   47OcOH   HF1 1260   1.414   1.469   1.185
   47OcOH   HF2 1261   1.456   1.300   1.187
   47OcOH    CF 1262   1.481   1.396   1.141
   47OcOH   HG1 1263   1.346   1.393   0.972
   47OcOH   HG2 1264   1.495   1.476   0.941
   47OcOH    CG 1265   1.453   1.389   0.990
   47OcOH   HH1 1266   1.613   1.245   0.951
   47OcOH   HH2 1267   1.504   1.268   0.817
   47OcOH   HH3 1268   1.453   1.173   0.957
   47OcOH    CH 1269   1.509   1.261   0.925
   48OcOH    HO 1270   3.745   0.340   1.695
   48OcOH    OH 1271   3.822   0.371   1.743
   48OcOH   HA1 1272   3.840   0.528   1.613
   48OcOH   HA2 1273   3.739   0.557   1.754
   48OcOH    CA 1274   3.831   0.510   1.721
   48OcOH   HB1 1275   4.043   0.518   1.768
   48OcOH   HB2 1276   3.937   0.553   1.903
   48OcOH    CB 1277   3.950   0.570   1.796
   48OcOH   HC1 1278   3.992   0.735   1.663
   48OcOH   HC2 1279   3.867   0.768   1.780
   48OcOH    CC 1280   3.964   0.720   1.768
   48OcOH   HD1 1281   4.033   0.781   1.962
   48OcOH   HD2 1282   4.163   0.740   1.853
   48OcOH    CD 1283   4.066   0.790   1.859
   48OcOH   HE1 1284   4.130   0.947   1.725
   48OcOH   HE2 1285   3.984   0.984   1.814
   48OcOH    CE 1286   4.082   0.939   1.823
   48OcOH   HF1 1287   4.260   0.969   1.942
   48OcOH   HF2 1288   4.112   1.012   2.024
   48OcOH    CF 1289   4.163   1.017   1.928
   48OcOH   HG1 1290   4.239   1.171   1.796
   48OcOH   HG2 1291   4.086   1.210   1.869
   48OcOH    CG 1292   4.183   1.164   1.889
   48OcOH   HH1 1293   4.267   1.349   1.968
   48OcOH   HH2 1294   4.354   1.204   2.018
   48OcOH   HH3 1295   4.200   1.243   2.092
   48OcOH    CH 1296   4.255   1.244   1.998
   49OcOH    HO 1297   1.564   3.554   2.223
   49OcOH    OH 1298   1.480   3.601   2.212
   49OcOH   HA1 1299   1.561   3.606   2.023
   49OcOH   HA2 1300   1.387   3.594   2.029
   49OcOH    CA 1301   1.473   3.641   2.076
   49OcOH   HB1 1302   1.374   3.827   2.123
   49OcOH   HB2 1303   1.444   3.823   1.964
   49OcOH    CB 1304   1.462   3.794   2.068
   49OcOH   HC1 1305   1.611   3.833   2.220
   49OcOH   HC2 1306   1.674   3.833   2.058
   49OcOH    CC 1307   1.589   3.865   2.118
   49OcOH   HD1 1308   1.564   4.053   2.013
   49OcOH   HD2 1309   1.679   4.056   2.143
   49OcOH    CD 1310   1.581   4.019   2.114
   49OcOH   HE1 1311   1.377   4.064   2.168
   49OcOH   HE2 1312   1.478   4.025   2.305
   49OcOH    CE 1313   1.477   4.079   2.210
   49OcOH   HF1 1314   1.504   4.281   2.140
   49OcOH   HF2 1315   1.600   4.241   2.280
   49OcOH    CF 1316   1.502   4.228   2.235
   49OcOH   HG1 1317   1.298   4.284   2.281
   49OcOH   HG2 1318   1.391   4.237   2.421
   49OcOH    CG 1319   1.396   4.292   2.327
   49OcOH   HH1 1320   1.523   4.450   2.407
   49OcOH   HH2 1321   1.351   4.484   2.420
   49OcOH   HH3 1322   1.431   4.498   2.265
   49OcOH    CH 1323   1.427   4.439   2.356
   50OcOH    HO 1324   1.453   3.707   2.354
   50OcOH    OH 1325   1.444   3.768   2.429
   50OcOH   HA1 1326   1.295   3.889   2.501
   50OcOH   HA2 1327   1.266   3.822   2.341
   50OcOH    CA 1328   1.306   3.799   2.440
   50OcOH   HB1 1329   1.271   3.662   2.603
   50OcOH   HB2 1330   1.250   3.590   2.445
   50OcOH    CB 1331   1.232   3.681   2.503
   50OcOH   HC1 1332   1.060   3.802   2.557
   50OcOH   HC2 1333   1.039   3.710   2.410
   50OcOH    CC 1334   1.080   3.705   2.511
   50OcOH   HD1 1335   1.041   3.599   2.694
   50OcOH   HD2 1336   1.033   3.497   2.551
   50OcOH    CD 1337   1.007   3.596   2.590
   50OcOH   HE1 1338   0.828   3.714   2.616
   50OcOH   HE2 1339   0.819   3.600   2.484
   50OcOH    CE 1340   0.854   3.612   2.587
   50OcOH   HF1 1341   0.818   3.525   2.781
   50OcOH   HF2 1342   0.806   3.411   2.649
   50OcOH    CF 1343   0.782   3.513   2.679
   50OcOH   HG1 1344   0.605   3.635   2.703
   50OcOH   HG2 1345   0.592   3.515   2.576
   50OcOH    CG 1346   0.629   3.531   2.677
   50OcOH   HH1 1347   0.449   3.450   2.768
   50OcOH   HH2 1348   0.587   3.456   2.877
   50OcOH   HH3 1349   0.579   3.333   2.752
   50OcOH    CH 1350   0.557   3.437   2.774
   51OcOH    HO 1351   5.036   0.931   0.891
   51OcOH    OH 1352   5.017   0.957   0.799
   51OcOH   HA1 1353   4.857   1.024   0.691
   51OcOH   HA2 1354   4.817   0.939   0.839
   51OcOH    CA 1355   4.887   1.011   0.795
   51OcOH   HB1 1356   4.907   1.129   0.975
   51OcOH   HB2 1357   4.778   1.182   0.869
   51OcOH    CB 1358   4.881   1.145   0.870
   51OcOH   HC1 1359   5.077   1.216   0.818
   51OcOH   HC2 1360   4.954   1.262   0.703
   51OcOH    CC 1361   4.974   1.251   0.810
   51OcOH   HD1 1362   4.971   1.376   0.986
   51OcOH   HD2 1363   4.865   1.431   0.858
   51OcOH    CD 1364   4.963   1.389   0.878
   51OcOH   HE1 1365   0.033   1.440   0.845
   51OcOH   HE2 1366   5.063   1.501   0.722
   51OcOH    CE 1367   5.072   1.485   0.830
   51OcOH   HF1 1368   5.072   1.604   1.010
   51OcOH   HF2 1369   4.974   1.671   0.882
   51OcOH    CF 1370   5.069   1.621   0.902
   51OcOH   HG1 1371   0.144   1.658   0.879
   51OcOH   HG2 1372   0.046   1.729   0.753
   51OcOH    CG 1373   0.050   1.711   0.861
   51OcOH   HH1 1374   5.098   1.902   0.917
   51OcOH   HH2 1375   0.137   1.905   0.905
   51OcOH   HH3 1376   0.060   1.829   1.044
   51OcOH    CH 1377   0.052   1.844   0.936
   52OcOH    HO 1378   1.365   2.926   4.401
   52OcOH    OH 1379   1.381   2.953   4.492
   52OcOH   HA1 1380   1.467   3.107   4.595
   52OcOH   HA2 1381   1.523   3.088   4.430
   52OcOH    CA 1382   1.434   3.084   4.494
   52OcOH   HB1 1383   1.237   3.168   4.505
   52OcOH   HB2 1384   1.302   3.167   4.343
   52OcOH    CB 1385   1.328   3.185   4.447
   52OcOH   HC1 1386   1.284   3.394   4.453
   52OcOH   HC2 1387   1.404   3.346   4.569
   52OcOH    CC 1388   1.371   3.331   4.467
   52OcOH   HD1 1389   1.446   3.366   4.267
   52OcOH   HD2 1390   1.569   3.315   4.380
   52OcOH    CD 1391   1.481   3.378   4.370
   52OcOH   HE1 1392   1.432   3.588   4.383
   52OcOH   HE2 1393   1.555   3.536   4.497
   52OcOH    CE 1394   1.521   3.524   4.394
   52OcOH   HF1 1395   1.595   3.566   4.195
   52OcOH   HF2 1396   1.716   3.505   4.305
   52OcOH    CF 1397   1.631   3.573   4.298
   52OcOH   HG1 1398   1.716   3.723   4.429
   52OcOH   HG2 1399   1.765   3.737   4.262
   52OcOH    CG 1400   1.679   3.716   4.326
   52OcOH   HH1 1401   1.533   3.817   4.200
   52OcOH   HH2 1402   1.616   3.924   4.313
   52OcOH   HH3 1403   1.490   3.816   4.371
   52OcOH    CH 1404   1.573   3.824   4.301
   53OcOH    HO 1405   4.986   0.713   1.488
   53OcOH    OH 1406   5.044   0.775   1.535
   53OcOH   HA1 1407   5.031   0.901   1.374
   53OcOH   HA2 1408   4.919   0.936   1.505
   53OcOH    CA 1409   5.022   0.904   1.483
   53OcOH   HB1 1410   5.109   1.098   1.483
   53OcOH   HB2 1411   0.088   0.973   1.516
   53OcOH    CB 1412   5.123   1.006   1.539
   53OcOH   HC1 1413   0.006   1.140   1.706
   53OcOH   HC2 1414   5.001   1.039   1.714
   53OcOH    CC 1415   5.107   1.038   1.688
   53OcOH   HD1 1416   0.019   0.840   1.760
   53OcOH   HD2 1417   0.008   0.961   1.885
   53OcOH    CD 1418   0.044   0.943   1.784
   53OcOH   HE1 1419   0.236   0.940   1.682
   53OcOH   HE2 1420   0.223   1.063   1.806
   53OcOH    CE 1421   0.197   0.960   1.782
   53OcOH   HF1 1422   0.238   0.762   1.859
   53OcOH   HF2 1423   0.231   0.886   1.983
   53OcOH    CF 1424   0.267   0.865   1.882
   53OcOH   HG1 1425   0.455   0.858   1.777
   53OcOH   HG2 1426   0.448   0.981   1.900
   53OcOH    CG 1427   0.420   0.878   1.878
   53OcOH   HH1 1428   0.461   0.805   2.079
   53OcOH   HH2 1429   0.598   0.794   1.969
   53OcOH   HH3 1430   0.464   0.680   1.955
   53OcOH    CH 1431   0.489   0.784   1.976
   54OcOH    HO 1432   4.969   0.582   3.187
   54OcOH    OH 1433   4.931   0.635   3.259
   54OcOH   HA1 1434   5.124   0.688   3.300
   54OcOH   HA2 1435   5.034   0.802   3.203
   54OcOH    CA 1436   5.026   0.735   3.288
   54OcOH   HB1 1437   4.886   0.851   3.405
   54OcOH   HB2 1438   5.052   0.900   3.421
   54OcOH    CB 1439   4.987   0.813   3.414
   54OcOH   HC1 1440   4.932   0.644   3.535
   54OcOH   HC2 1441   5.101   0.684   3.545
   54OcOH    CC 1442   5.001   0.728   3.542
   54OcOH   HD1 1443   4.969   0.733   3.754
   54OcOH   HD2 1444   4.875   0.851   3.666
   54OcOH    CD 1445   4.973   0.805   3.672
   54OcOH   HE1 1446   0.042   0.866   3.698
   54OcOH   HE2 1447   5.076   0.992   3.634
   54OcOH    CE 1448   5.079   0.911   3.706
   54OcOH   HF1 1449   5.071   0.887   3.922
   54OcOH   HF2 1450   4.958   1.003   3.857
   54OcOH    CF 1451   5.061   0.967   3.848
   54OcOH   HG1 1452   0.013   1.161   3.808
   54OcOH   HG2 1453   5.123   1.128   3.977
   54OcOH    CG 1454   0.020   1.083   3.883
   54OcOH   HH1 1455   0.173   0.957   3.973
   54OcOH   HH2 1456   0.229   1.119   3.934
   54OcOH   HH3 1457   0.206   1.001   3.805
   54OcOH    CH 1458   0.165   1.037   3.900
   55OcOH    HO 1459   4.453   2.347   1.181
   55OcOH    OH 1460   4.370   2.387   1.151
   55OcOH   HA1 1461   4.187   2.317   1.087
   55OcOH   HA2 1462   4.319   2.202   1.076
   55OcOH    CA 1463   4.277   2.281   1.138
   55OcOH   HB1 1464   4.213   2.313   1.341
   55OcOH   HB2 1465   4.330   2.185   1.323
   55OcOH    CB 1466   4.241   2.229   1.277
   55OcOH   HC1 1467   4.037   2.175   1.236
   55OcOH   HC2 1468   4.150   2.043   1.212
   55OcOH    CC 1469   4.126   2.127   1.277
   55OcOH   HD1 1470   4.098   2.162   1.487
   55OcOH   HD2 1471   4.178   2.012   1.454
   55OcOH    CD 1472   4.097   2.076   1.419
   55OcOH   HE1 1473   3.942   1.989   1.541
   55OcOH   HE2 1474   3.883   2.077   1.403
   55OcOH    CE 1475   3.961   2.007   1.435
   55OcOH   HF1 1476   3.954   1.892   1.251
   55OcOH   HF2 1477   3.844   1.838   1.375
   55OcOH    CF 1478   3.945   1.875   1.358
   55OcOH   HG1 1479   4.146   1.793   1.368
   55OcOH   HG2 1480   4.050   1.763   1.511
   55OcOH    CG 1481   4.045   1.767   1.402
   55OcOH   HH1 1482   4.003   1.627   1.241
   55OcOH   HH2 1483   3.912   1.596   1.389
   55OcOH   HH3 1484   4.083   1.554   1.380
   55OcOH    CH 1485   4.009   1.628   1.350
   56OcOH    HO 1486   0.654   1.088   2.245
   56OcOH    OH 1487   0.633   1.166   2.193
   56OcOH   HA1 1488   0.628   1.263   2.372
   56OcOH   HA2 1489   0.776   1.283   2.282
   56OcOH    CA 1490   0.668   1.278   2.272
   56OcOH   HB1 1491   0.636   1.488   2.284
   56OcOH   HB2 1492   0.504   1.404   2.208
   56OcOH    CB 1493   0.613   1.408   2.214
   56OcOH   HC1 1494   0.775   1.413   2.068
   56OcOH   HC2 1495   0.617   1.384   2.000
   56OcOH    CC 1496   0.670   1.443   2.075
   56OcOH   HD1 1497   0.559   1.630   2.073
   56OcOH   HD2 1498   0.658   1.605   1.933
   56OcOH    CD 1499   0.657   1.593   2.041
   56OcOH   HE1 1500   0.768   1.667   2.211
   56OcOH   HE2 1501   0.865   1.641   2.068
   56OcOH    CE 1502   0.769   1.678   2.102
   56OcOH   HF1 1503   0.661   1.865   2.103
   56OcOH   HF2 1504   0.756   1.839   1.959
   56OcOH    CF 1505   0.757   1.827   2.067
   56OcOH   HG1 1506   0.871   1.898   2.236
   56OcOH   HG2 1507   0.966   1.874   2.092
   56OcOH    CG 1508   0.870   1.911   2.128
   56OcOH   HH1 1509   0.862   2.077   1.987
   56OcOH   HH2 1510   0.941   2.117   2.139
   56OcOH   HH3 1511   0.765   2.102   2.132
   56OcOH    CH 1512   0.859   2.060   2.095
   57OcOH    HO 1513   3.968   4.474   0.860
   57OcOH    OH 1514   3.994   4.419   0.784
   57OcOH   HA1 1515   3.902   4.339   0.619
   57OcOH   HA2 1516   3.818   4.314   0.772
   57OcOH    CA 1517   3.876   4.387   0.713
   57OcOH   HB1 1518   3.850   4.586   0.632
   57OcOH   HB2 1519   3.772   4.561   0.786
   57OcOH    CB 1520   3.792   4.513   0.690
   57OcOH   HC1 1521   3.677   4.447   0.520
   57OcOH   HC2 1522   3.606   4.406   0.674
   57OcOH    CC 1523   3.658   4.485   0.620
   57OcOH   HD1 1524   3.618   4.691   0.560
   57OcOH   HD2 1525   3.555   4.647   0.716
   57OcOH    CD 1526   3.568   4.610   0.614
   57OcOH   HE1 1527   3.401   4.478   0.566
   57OcOH   HE2 1528   3.356   4.639   0.614
   57OcOH    CE 1529   3.429   4.583   0.555
   57OcOH   HF1 1530   3.434   4.734   0.399
   57OcOH   HF2 1531   3.307   4.617   0.382
   57OcOH    CF 1532   3.412   4.628   0.408
   57OcOH   HG1 1533   3.602   4.568   0.325
   57OcOH   HG2 1534   3.481   4.442   0.322
   57OcOH    CG 1535   3.496   4.549   0.307
   57OcOH   HH1 1536   3.479   4.692   0.144
   57OcOH   HH2 1537   3.357   4.565   0.140
   57OcOH   HH3 1538   3.522   4.530   0.091
   57OcOH    CH 1539   3.461   4.586   0.162
   58OcOH    HO 1540   4.208   0.232   1.586
   58OcOH    OH 1541   4.218   0.323   1.556
   58OcOH   HA1 1542   4.083   0.287   1.407
   58OcOH   HA2 1543   4.015   0.334   1.560
   58OcOH    CA 1544   4.097   0.354   1.491
   58OcOH   HB1 1545   4.112   0.567   1.530
   58OcOH   HB2 1546   3.992   0.522   1.412
   58OcOH    CB 1547   4.093   0.500   1.445
   58OcOH   HC1 1548   4.293   0.523   1.367
   58OcOH   HC2 1549   4.179   0.456   1.253
   58OcOH    CC 1550   4.190   0.532   1.331
   58OcOH   HD1 1551   4.184   0.746   1.351
   58OcOH   HD2 1552   4.063   0.683   1.242
   58OcOH    CD 1553   4.167   0.672   1.272
   58OcOH   HE1 1554   4.254   0.813   1.137
   58OcOH   HE2 1555   4.362   0.683   1.178
   58OcOH    CE 1556   4.259   0.705   1.153
   58OcOH   HF1 1557   4.115   0.653   0.999
   58OcOH   HF2 1558   4.227   0.525   1.037
   58OcOH    CF 1559   4.219   0.633   1.022
   58OcOH   HG1 1560   4.413   0.654   0.927
   58OcOH   HG2 1561   4.285   0.604   0.820
   58OcOH    CG 1562   4.308   0.671   0.903
   58OcOH   HH1 1563   4.185   0.836   0.831
   58OcOH   HH2 1564   4.349   0.837   0.767
   58OcOH   HH3 1565   4.319   0.888   0.932
   58OcOH    CH 1566   4.289   0.816   0.856
   59OcOH    HO 1567   2.176   0.086   0.705
   59OcOH    OH 1568   2.183   0.182   0.717
   59OcOH   HA1 1569   2.060   0.222   0.558
   59OcOH   HA2 1570   1.978   0.187   0.710
   59OcOH    CA 1571   2.064   0.239   0.666
   59OcOH   HB1 1572   2.150   0.436   0.662
   59OcOH   HB2 1573   2.061   0.401   0.808
   59OcOH    CB 1574   2.060   0.388   0.699
   59OcOH   HC1 1575   1.938   0.447   0.532
   59OcOH   HC2 1576   1.846   0.409   0.676
   59OcOH    CC 1577   1.937   0.458   0.640
   59OcOH   HD1 1578   2.019   0.658   0.639
   59OcOH   HD2 1579   1.927   0.621   0.783
   59OcOH    CD 1580   1.929   0.608   0.675
   59OcOH   HE1 1581   1.809   0.664   0.504
   59OcOH   HE2 1582   1.716   0.623   0.646
   59OcOH    CE 1583   1.805   0.675   0.612
   59OcOH   HF1 1584   1.882   0.877   0.612
   59OcOH   HF2 1585   1.790   0.836   0.756
   59OcOH    CF 1586   1.793   0.824   0.647
   59OcOH   HG1 1587   1.667   0.870   0.478
   59OcOH   HG2 1588   1.578   0.838   0.625
   59OcOH    CG 1589   1.667   0.887   0.586
   59OcOH   HH1 1590   1.744   1.091   0.573
   59OcOH   HH2 1591   1.651   1.059   0.719
   59OcOH   HH3 1592   1.568   1.080   0.565
   59OcOH    CH 1593   1.657   1.038   0.613
   60OcOH    HO 1594   2.755   0.329   0.088
   60OcOH    OH 1595   2.697   0.332   0.012
   60OcOH   HA1 1596   2.726   0.134   5.102
   60OcOH   HA2 1597   2.604   0.166   0.088
   60OcOH    CA 1598   2.645   0.202   5.130
   60OcOH   HB1 1599   2.577   0.242   4.929
   60OcOH   HB2 1600   2.457   0.273   5.052
   60OcOH    CB 1601   2.536   0.204   5.022
   60OcOH   HC1 1602   2.551   5.134   4.957
   60OcOH   HC2 1603   2.449   0.021   5.095
   60OcOH    CC 1604   2.476   0.064   4.999
   60OcOH   HD1 1605   2.274   0.129   4.954
   60OcOH   HD2 1606   2.308   5.099   4.913
   60OcOH    CD 1607   2.350   0.063   4.911
   60OcOH   HE1 1608   2.414   0.203   4.758
   60OcOH   HE2 1609   2.449   0.036   4.720
   60OcOH    CE 1610   2.374   0.102   4.764
   60OcOH   HF1 1611   2.170   0.160   4.725
   60OcOH   HF2 1612   2.203   5.129   4.689
   60OcOH    CF 1613   2.244   0.094   4.682
   60OcOH   HG1 1614   2.306   0.230   4.525
   60OcOH   HG2 1615   2.338   0.062   4.489
   60OcOH    CG 1616   2.264   0.130   4.534
   60OcOH   HH1 1617   2.149   0.144   4.350
   60OcOH   HH2 1618   2.060   0.193   4.494
   60OcOH   HH3 1619   2.089   0.023   4.461
   60OcOH    CH 1620   2.133   0.122   4.455
   61OcOH    HO 1621   2.342   0.241   0.659
   61OcOH    OH 1622   2.429   0.262   0.624
   61OcOH   HA1 1623   2.510   0.129   0.758
   61OcOH   HA2 1624   2.624   0.237   0.680
   61OcOH    CA 1625   2.525   0.231   0.724
   61OcOH   HB1 1626   2.412   0.322   0.884
   61OcOH   HB2 1627   2.522   0.432   0.804
   61OcOH    CB 1628   2.512   0.330   0.841
   61OcOH   HC1 1629   2.606   0.201   0.986
   61OcOH   HC2 1630   2.717   0.309   0.905
   61OcOH    CC 1631   2.617   0.303   0.949
   61OcOH   HD1 1632   2.506   0.411   1.100
   61OcOH   HD2 1633   2.640   0.501   1.034
   61OcOH    CD 1634   2.609   0.402   1.067
   61OcOH   HE1 1635   2.656   0.262   1.223
   61OcOH   HE2 1636   2.797   0.337   1.153
   61OcOH    CE 1637   2.695   0.357   1.186
   61OcOH   HF1 1638   2.598   0.496   1.322
   61OcOH   HF2 1639   2.754   0.548   1.265
   61OcOH    CF 1640   2.699   0.461   1.300
   61OcOH   HG1 1641   2.863   0.371   1.409
   61OcOH   HG2 1642   2.777   0.493   1.497
   61OcOH    CG 1643   2.763   0.409   1.429
   61OcOH   HH1 1644   2.722   0.278   1.599
   61OcOH   HH2 1645   2.675   0.209   1.444
   61OcOH   HH3 1646   2.577   0.336   1.518
   61OcOH    CH 1647   2.680   0.302   1.501
   62OcOH    HO 1648   3.190   1.844   2.601
   62OcOH    OH 1649   3.201   1.903   2.676
   62OcOH   HA1 1650   3.129   2.052   2.553
   62OcOH   HA2 1651   3.015   1.988   2.669
   62OcOH    CA 1652   3.119   2.017   2.656
   62OcOH   HB1 1653   3.150   2.088   2.857
   62OcOH   HB2 1654   3.086   2.208   2.748
   62OcOH    CB 1655   3.158   2.127   2.755
   62OcOH   HC1 1656   3.373   2.101   2.739
   62OcOH   HC2 1657   3.306   2.216   2.627
   62OcOH    CC 1658   3.300   2.182   2.731
   62OcOH   HD1 1659   3.261   2.374   2.823
   62OcOH   HD2 1660   3.428   2.346   2.782
   62OcOH    CD 1661   3.339   2.298   2.823
   62OcOH   HE1 1662   3.282   2.208   3.012
   62OcOH   HE2 1663   3.447   2.177   2.966
   62OcOH    CE 1664   3.370   2.254   2.968
   62OcOH   HF1 1665   3.337   2.446   3.061
   62OcOH   HF2 1666   3.502   2.420   3.008
   62OcOH    CF 1667   3.417   2.371   3.055
   62OcOH   HG1 1668   3.372   2.278   3.245
   62OcOH   HG2 1669   3.536   2.254   3.191
   62OcOH    CG 1670   3.456   2.328   3.197
   62OcOH   HH1 1671   3.529   2.412   3.384
   62OcOH   HH2 1672   3.422   2.519   3.295
   62OcOH   HH3 1673   3.588   2.496   3.241
   62OcOH    CH 1674   3.501   2.445   3.284
   63OcOH    HO 1675   3.911   4.779   1.756
   63OcOH    OH 1676   3.922   4.714   1.685
   63OcOH   HA1 1677   3.734   4.784   1.647
   63OcOH   HA2 1678   3.804   4.684   1.521
   63OcOH    CA 1679   3.794   4.695   1.629
   63OcOH   HB1 1680   3.783   4.482   1.658
   63OcOH   HB2 1681   3.628   4.561   1.645
   63OcOH    CB 1682   3.728   4.570   1.689
   63OcOH   HC1 1683   3.814   4.575   1.887
   63OcOH   HC2 1684   3.664   4.664   1.874
   63OcOH    CC 1685   3.715   4.572   1.842
   63OcOH   HD1 1686   3.685   4.358   1.859
   63OcOH   HD2 1687   3.538   4.450   1.849
   63OcOH    CD 1688   3.637   4.450   1.894
   63OcOH   HE1 1689   3.585   4.541   2.083
   63OcOH   HE2 1690   3.544   4.372   2.070
   63OcOH    CE 1691   3.622   4.445   2.046
   63OcOH   HF1 1692   3.823   4.488   2.109
   63OcOH   HF2 1693   3.796   4.319   2.078
   63OcOH    CF 1694   3.750   4.408   2.122
   63OcOH   HG1 1695   3.825   4.382   2.321
   63OcOH   HG2 1696   3.674   4.469   2.316
   63OcOH    CG 1697   3.728   4.384   2.272
   63OcOH   HH1 1698   3.706   4.167   2.260
   63OcOH   HH2 1699   3.552   4.254   2.267
   63OcOH   HH3 1700   3.650   4.237   2.412
   63OcOH    CH 1701   3.655   4.253   2.304
   64OcOH    HO 1702   1.248   0.303   1.304
   64OcOH    OH 1703   1.199   0.268   1.229
   64OcOH   HA1 1704   1.123   0.459   1.236
   64OcOH   HA2 1705   1.209   0.418   1.089
   64OcOH    CA 1706   1.140   0.379   1.164
   64OcOH   HB1 1707   1.021   0.247   1.039
   64OcOH   HB2 1708   0.977   0.416   1.029
   64OcOH    CB 1709   1.007   0.338   1.099
   64OcOH   HC1 1710   0.926   0.247   1.278
   64OcOH   HC2 1711   0.875   0.412   1.253
   64OcOH    CC 1712   0.894   0.317   1.201
   64OcOH   HD1 1713   0.781   0.168   1.094
   64OcOH   HD2 1714   0.737   0.332   1.053
   64OcOH    CD 1715   0.764   0.267   1.136
   64OcOH   HE1 1716   0.676   0.209   1.325
   64OcOH   HE2 1717   0.621   0.364   1.264
   64OcOH    CE 1718   0.646   0.262   1.235
   64OcOH   HF1 1719   0.548   0.091   1.148
   64OcOH   HF2 1720   0.495   0.242   1.081
   64OcOH    CF 1721   0.522   0.194   1.174
   64OcOH   HG1 1722   0.327   0.122   1.228
   64OcOH   HG2 1723   0.428   0.153   1.366
   64OcOH    CG 1724   0.400   0.192   1.268
   64OcOH   HH1 1725   0.399   0.401   1.332
   64OcOH   HH2 1726   0.241   0.322   1.341
   64OcOH   HH3 1727   0.307   0.371   1.185
   64OcOH    CH 1728   0.333   0.329   1.282
   65OcOH    HO 1729   4.695   1.873   1.497
   65OcOH    OH 1730   4.638   1.949   1.482
   65OcOH   HA1 1731   4.519   2.022   1.332
   65OcOH   HA2 1732   4.628   1.894   1.284
   65OcOH    CA 1733   4.563   1.927   1.364
   65OcOH   HB1 1734   4.389   1.819   1.300
   65OcOH   HB2 1735   4.385   1.861   1.469
   65OcOH    CB 1736   4.451   1.825   1.390
   65OcOH   HC1 1737   4.578   1.654   1.352
   65OcOH   HC2 1738   4.551   1.686   1.521
   65OcOH    CC 1739   4.502   1.684   1.424
   65OcOH   HD1 1740   4.345   1.573   1.326
   65OcOH   HD2 1741   4.310   1.612   1.493
   65OcOH    CD 1742   4.389   1.579   1.426
   65OcOH   HE1 1743   4.523   1.410   1.408
   65OcOH   HE2 1744   4.474   1.445   1.572
   65OcOH    CE 1745   4.438   1.440   1.469
   65OcOH   HF1 1746   4.294   1.327   1.354
   65OcOH   HF2 1747   4.241   1.364   1.517
   65OcOH    CF 1748   4.328   1.334   1.458
   65OcOH   HG1 1749   4.465   1.166   1.451
   65OcOH   HG2 1750   4.402   1.200   1.611
   65OcOH    CG 1751   4.375   1.195   1.505
   65OcOH   HH1 1752   4.177   1.111   1.541
   65OcOH   HH2 1753   4.304   0.990   1.520
   65OcOH   HH3 1754   4.241   1.077   1.380
   65OcOH    CH 1755   4.268   1.087   1.486
   66OcOH    HO 1756   2.297   3.988   0.169
   66OcOH    OH 1757   2.377   3.934   0.164
   66OcOH   HA1 1758   2.467   3.784   0.268
   66OcOH   HA2 1759   2.358   3.885   0.363
   66OcOH    CA 1760   2.371   3.837   0.266
   66OcOH   HB1 1761   2.257   3.714   0.130
   66OcOH   HB2 1762   2.161   3.791   0.254
   66OcOH    CB 1763   2.256   3.740   0.236
   66OcOH   HC1 1764   2.358   3.561   0.293
   66OcOH   HC2 1765   2.270   3.634   0.424
   66OcOH    CC 1766   2.265   3.611   0.318
   66OcOH   HD1 1767   2.120   3.520   0.185
   66OcOH   HD2 1768   2.059   3.552   0.346
   66OcOH    CD 1769   2.147   3.516   0.291
   66OcOH   HE1 1770   2.260   3.336   0.264
   66OcOH   HE2 1771   2.216   3.364   0.430
   66OcOH    CE 1772   2.178   3.371   0.328
   66OcOH   HF1 1773   2.095   3.176   0.291
   66OcOH   HF2 1774   2.003   3.304   0.219
   66OcOH    CF 1775   2.058   3.277   0.309
   66OcOH   HG1 1776   2.020   3.246   0.520
   66OcOH   HG2 1777   1.926   3.375   0.450
   66OcOH    CG 1778   1.964   3.275   0.431
   66OcOH   HH1 1779   1.787   3.204   0.326
   66OcOH   HH2 1780   1.782   3.179   0.500
   66OcOH   HH3 1781   1.882   3.075   0.399
   66OcOH    CH 1782   1.847   3.177   0.413
   67OcOH    HO 1783   4.631   2.102   2.891
   67OcOH    OH 1784   4.704   2.100   2.828
   67OcOH   HA1 1785   4.807   2.000   2.975
   67OcOH   HA2 1786   4.897   2.032   2.828
   67OcOH    CA 1787   4.825   2.074   2.897
   67OcOH   HB1 1788   4.971   2.178   3.015
   67OcOH   HB2 1789   4.810   2.242   3.033
   67OcOH    CB 1790   4.881   2.203   2.960
   67OcOH   HC1 1791   4.977   2.267   2.777
   67OcOH   HC2 1792   4.821   2.341   2.804
   67OcOH    CC 1793   4.913   2.311   2.854
   67OcOH   HD1 1794   5.076   2.405   2.959
   67OcOH   HD2 1795   4.920   2.476   2.993
   67OcOH    CD 1796   4.982   2.435   2.913
   67OcOH   HE1 1797   5.061   2.496   2.723
   67OcOH   HE2 1798   4.913   2.577   2.766
   67OcOH    CE 1799   5.008   2.542   2.806
   67OcOH   HF1 1800   5.123   2.719   2.768
   67OcOH   HF2 1801   0.046   2.626   2.903
   67OcOH    CF 1802   5.091   2.661   2.855
   67OcOH   HG1 1803   4.922   2.787   2.903
   67OcOH   HG2 1804   4.985   2.700   3.041
   67OcOH    CG 1805   5.014   2.754   2.951
   67OcOH   HH1 1806   5.039   2.941   3.058
   67OcOH   HH2 1807   5.123   2.937   2.904
   67OcOH   HH3 1808   0.052   2.849   3.042
   67OcOH    CH 1809   5.096   2.878   2.991
   68OcOH    HO 1810   4.908   4.702   2.639
   68OcOH    OH 1811   4.884   4.611   2.620
   68OcOH   HA1 1812   4.951   4.429   2.691
   68OcOH   HA2 1813   5.048   4.569   2.735
   68OcOH    CA 1814   4.945   4.534   2.722
   68OcOH   HB1 1815   4.772   4.493   2.843
   68OcOH   HB2 1816   4.838   4.653   2.867
   68OcOH    CB 1817   4.865   4.548   2.852
   68OcOH   HC1 1818   4.987   4.403   2.958
   68OcOH   HC2 1819   5.027   4.569   2.992
   68OcOH    CC 1820   4.943   4.501   2.976
   68OcOH   HD1 1821   4.788   4.410   3.097
   68OcOH   HD2 1822   4.791   4.583   3.104
   68OcOH    CD 1823   4.856   4.496   3.102
   68OcOH   HE1 1824   4.997   4.585   3.239
   68OcOH   HE2 1825   4.868   4.501   3.318
   68OcOH    CE 1826   4.936   4.494   3.234
   68OcOH   HF1 1827   5.090   4.389   3.341
   68OcOH   HF2 1828   5.098   4.365   3.169
   68OcOH    CF 1829   5.028   4.372   3.253
   68OcOH   HG1 1830   4.885   4.246   3.355
   68OcOH   HG2 1831   4.889   4.222   3.182
   68OcOH    CG 1832   4.952   4.240   3.269
   68OcOH   HH1 1833   5.111   4.108   3.201
   68OcOH   HH2 1834   4.988   4.028   3.299
   68OcOH   HH3 1835   5.108   4.131   3.376
   68OcOH    CH 1836   5.045   4.120   3.287
   69OcOH    HO 1837   1.600   1.298   2.931
   69OcOH    OH 1838   1.574   1.372   2.987
   69OcOH   HA1 1839   1.683   1.507   3.094
   69OcOH   HA2 1840   1.778   1.403   2.992
   69OcOH    CA 1841   1.685   1.459   2.997
   69OcOH   HB1 1842   1.764   1.632   2.899
   69OcOH   HB2 1843   1.589   1.626   2.898
   69OcOH    CB 1844   1.679   1.565   2.886
   69OcOH   HC1 1845   1.763   1.433   2.736
   69OcOH   HC2 1846   1.590   1.447   2.729
   69OcOH    CC 1847   1.681   1.505   2.744
   69OcOH   HD1 1848   1.620   1.691   2.650
   69OcOH   HD2 1849   1.663   1.564   2.538
   69OcOH    CD 1850   1.692   1.610   2.633
   69OcOH   HE1 1851   1.864   1.717   2.710
   69OcOH   HE2 1852   1.904   1.584   2.604
   69OcOH    CE 1853   1.834   1.667   2.618
   69OcOH   HF1 1854   1.782   1.849   2.515
   69OcOH   HF2 1855   1.816   1.715   2.408
   69OcOH    CF 1856   1.848   1.764   2.500
   69OcOH   HG1 1857   2.027   1.858   2.578
   69OcOH   HG2 1858   2.059   1.728   2.466
   69OcOH    CG 1859   1.993   1.813   2.485
   69OcOH   HH1 1860   2.112   1.947   2.362
   69OcOH   HH2 1861   1.948   2.003   2.388
   69OcOH   HH3 1862   1.978   1.871   2.275
   69OcOH    CH 1863   2.009   1.915   2.371
   70OcOH    HO 1864   2.143   3.909   2.966
   70OcOH    OH 1865   2.150   4.001   2.995
   70OcOH   HA1 1866   2.064   4.174   2.923
   70OcOH   HA2 1867   2.014   4.026   2.844
   70OcOH    CA 1868   2.039   4.070   2.941
   70OcOH   HB1 1869   1.904   3.952   3.062
   70OcOH   HB2 1870   1.829   4.092   2.987
   70OcOH    CB 1871   1.920   4.057   3.038
   70OcOH   HC1 1872   2.036   4.113   3.211
   70OcOH   HC2 1873   1.944   4.244   3.143
   70OcOH    CC 1874   1.940   4.138   3.167
   70OcOH   HD1 1875   1.832   4.006   3.296
   70OcOH   HD2 1876   1.732   4.132   3.228
   70OcOH    CD 1877   1.830   4.112   3.271
   70OcOH   HE1 1878   1.952   4.188   3.434
   70OcOH   HE2 1879   1.837   4.302   3.372
   70OcOH    CE 1880   1.849   4.196   3.398
   70OcOH   HF1 1881   1.649   4.165   3.472
   70OcOH   HF2 1882   1.755   4.240   3.587
   70OcOH    CF 1883   1.750   4.162   3.511
   70OcOH   HG1 1884   1.691   4.005   3.645
   70OcOH   HG2 1885   1.773   3.946   3.504
   70OcOH    CG 1886   1.774   4.026   3.578
   70OcOH   HH1 1887   1.992   4.031   3.595
   70OcOH   HH2 1888   1.915   3.923   3.709
   70OcOH   HH3 1889   1.908   4.097   3.735
   70OcOH    CH 1890   1.905   4.019   3.659
   71OcOH    HO 1891   1.161   1.231   2.690
   71OcOH    OH 1892   1.188   1.221   2.781
   71OcOH   HA1 1893   1.339   1.280   2.904
   71OcOH   HA2 1894   1.386   1.258   2.737
   71OcOH    CA 1895   1.306   1.295   2.802
   71OcOH   HB1 1896   1.369   1.500   2.808
   71OcOH   HB2 1897   1.200   1.479   2.841
   71OcOH    CB 1898   1.281   1.444   2.777
   71OcOH   HC1 1899   1.327   1.434   2.566
   71OcOH   HC2 1900   1.156   1.430   2.601
   71OcOH    CC 1901   1.250   1.477   2.630
   71OcOH   HD1 1902   1.335   1.675   2.632
   71OcOH   HD2 1903   1.165   1.671   2.669
   71OcOH    CD 1904   1.241   1.628   2.604
   71OcOH   HE1 1905   1.287   1.617   2.394
   71OcOH   HE2 1906   1.116   1.617   2.427
   71OcOH    CE 1907   1.210   1.662   2.457
   71OcOH   HF1 1908   1.200   1.827   2.320
   71OcOH   HF2 1909   1.301   1.859   2.458
   71OcOH    CF 1910   1.207   1.813   2.428
   71OcOH   HG1 1911   0.995   1.839   2.466
   71OcOH   HG2 1912   1.096   1.879   2.603
   71OcOH    CG 1913   1.089   1.887   2.494
   71OcOH   HH1 1914   0.999   2.085   2.503
   71OcOH   HH2 1915   1.073   2.047   2.348
   71OcOH   HH3 1916   1.174   2.087   2.486
   71OcOH    CH 1917   1.084   2.035   2.456
   72OcOH    HO 1918   1.866   0.074   4.121
   72OcOH    OH 1919   1.884   0.003   4.184
   72OcOH   HA1 1920   1.786   5.060   4.347
   72OcOH   HA2 1921   1.724   0.076   4.287
   72OcOH    CA 1922   1.765   5.117   4.256
   72OcOH   HB1 1923   1.647   5.096   4.075
   72OcOH   HB2 1924   1.567   5.041   4.220
   72OcOH    CB 1925   1.663   5.042   4.168
   72OcOH   HC1 1926   1.800   4.893   4.091
   72OcOH   HC2 1927   1.713   4.842   4.233
   72OcOH    CC 1928   1.702   4.896   4.139
   72OcOH   HD1 1929   1.601   4.870   3.951
   72OcOH   HD2 1930   1.500   4.838   4.089
   72OcOH    CD 1931   1.600   4.824   4.050
   72OcOH   HE1 1932   1.731   4.655   4.009
   72OcOH   HE2 1933   1.618   4.629   4.138
   72OcOH    CE 1934   1.628   4.673   4.039
   72OcOH   HF1 1935   1.429   4.630   3.964
   72OcOH   HF2 1936   1.537   4.493   3.965
   72OcOH    CF 1937   1.532   4.599   3.943
   72OcOH   HG1 1938   1.560   4.727   3.770
   72OcOH   HG2 1939   1.668   4.590   3.776
   72OcOH    CG 1940   1.565   4.621   3.795
   72OcOH   HH1 1941   1.501   4.556   3.597
   72OcOH   HH2 1942   1.369   4.576   3.711
   72OcOH   HH3 1943   1.475   4.436   3.723
   72OcOH    CH 1944   1.472   4.543   3.701
   73OcOH    HO 1945   2.044   1.191   1.868
   73OcOH    OH 1946   2.120   1.219   1.919
   73OcOH   HA1 1947   2.231   1.147   2.076
   73OcOH   HA2 1948   2.063   1.096   2.073
   73OcOH    CA 1949   2.150   1.115   2.010
   73OcOH   HB1 1950   2.268   1.017   1.860
   73OcOH   HB2 1951   2.105   0.957   1.871
   73OcOH    CB 1952   2.189   0.991   1.931
   73OcOH   HC1 1953   2.323   0.907   2.079
   73OcOH   HC2 1954   2.158   0.853   2.093
   73OcOH    CC 1955   2.237   0.875   2.021
   73OcOH   HD1 1956   2.186   0.718   1.881
   73OcOH   HD2 1957   2.284   0.666   2.015
   73OcOH    CD 1958   2.271   0.747   1.944
   73OcOH   HE1 1959   2.386   0.839   1.785
   73OcOH   HE2 1960   2.482   0.787   1.921
   73OcOH    CE 1961   2.398   0.759   1.858
   73OcOH   HF1 1962   2.343   0.600   1.725
   73OcOH   HF2 1963   2.446   0.547   1.855
   73OcOH    CF 1964   2.430   0.628   1.784
   73OcOH   HG1 1965   2.554   0.552   1.625
   73OcOH   HG2 1966   2.539   0.726   1.624
   73OcOH    CG 1967   2.552   0.640   1.690
   73OcOH   HH1 1968   2.700   0.563   1.829
   73OcOH   HH2 1969   2.692   0.739   1.825
   73OcOH   HH3 1970   2.769   0.652   1.693
   73OcOH    CH 1971   2.686   0.649   1.764
   74OcOH    HO 1972   4.812   0.554   0.091
   74OcOH    OH 1973   4.870   0.592   0.158
   74OcOH   HA1 1974   4.997   0.498   0.288
   74OcOH   HA2 1975   4.945   0.401   0.151
   74OcOH    CA 1976   4.976   0.501   0.181
   74OcOH   HB1 1977   5.128   0.646   0.138
   74OcOH   HB2 1978   5.077   0.555   5.134
   74OcOH    CB 1979   5.100   0.546   0.104
   74OcOH   HC1 1980   0.100   0.437   0.231
   74OcOH   HC2 1981   0.058   0.353   0.083
   74OcOH    CC 1982   0.083   0.451   0.124
   74OcOH   HD1 1983   0.237   0.601   0.102
   74OcOH   HD2 1984   0.195   0.520   5.089
   74OcOH    CD 1985   0.212   0.504   0.059
   74OcOH   HE1 1986   0.338   0.382   0.184
   74OcOH   HE2 1987   0.311   0.314   0.026
   74OcOH    CE 1988   0.330   0.408   0.078
   74OcOH   HF1 1989   0.543   0.393   0.062
   74OcOH   HF2 1990   0.490   0.556   0.088
   74OcOH    CF 1991   0.466   0.465   0.033
   74OcOH   HG1 1992   0.580   0.461   4.986
   74OcOH   HG2 1993   0.411   0.423   4.963
   74OcOH    CG 1994   0.479   0.489   5.018
   74OcOH   HH1 1995   0.528   0.701   5.024
   74OcOH   HH2 1996   0.356   0.669   5.004
   74OcOH   HH3 1997   0.465   0.646   4.869
   74OcOH    CH 1998   0.455   0.635   4.977
   75OcOH    HO 1999   4.529   2.647   3.637
   75OcOH    OH 2000   4.532   2.552   3.621
   75OcOH   HA1 2001   4.522   2.431   3.457
   75OcOH   HA2 2002   4.499   2.602   3.424
   75OcOH    CA 2003   4.557   2.531   3.483
   75OcOH   HB1 2004   4.726   2.503   3.354
   75OcOH   HB2 2005   4.763   2.478   3.522
   75OcOH    CB 2006   4.708   2.542   3.454
   75OcOH   HC1 2007   4.707   2.749   3.392
   75OcOH   HC2 2008   4.746   2.727   3.561
   75OcOH    CC 2009   4.763   2.685   3.461
   75OcOH   HD1 2010   4.931   2.641   3.332
   75OcOH   HD2 2011   4.969   2.635   3.502
   75OcOH    CD 2012   4.913   2.691   3.427
   75OcOH   HE1 2013   4.915   2.888   3.340
   75OcOH   HE2 2014   4.945   2.887   3.512
   75OcOH    CE 2015   4.968   2.834   3.419
   75OcOH   HF1 2016   0.006   2.771   3.310
   75OcOH   HF2 2017   0.036   2.798   3.480
   75OcOH    CF 2018   5.119   2.838   3.393
   75OcOH   HG1 2019   0.142   2.969   3.331
   75OcOH   HG2 2020   5.122   3.016   3.269
   75OcOH    CG 2021   0.036   2.978   3.358
   75OcOH   HH1 2022   5.055   3.099   3.497
   75OcOH   HH2 2023   0.067   3.175   3.442
   75OcOH   HH3 2024   0.073   3.047   3.562
   75OcOH    CH 2025   0.023   3.080   3.472
   76OcOH    HO 2026   4.109   4.782   3.732
   76OcOH    OH 2027   4.197   4.803   3.766
   76OcOH   HA1 2028   4.167   4.977   3.663
   76OcOH   HA2 2029   4.149   4.990   3.837
   76OcOH    CA 2030   4.209   4.944   3.758
   76OcOH   HB1 2031   4.414   4.933   3.693
   76OcOH   HB2 2032   4.395   4.952   3.865
   76OcOH    CB 2033   4.356   4.985   3.769
   76OcOH   HC1 2034   4.331   0.034   3.661
   76OcOH   HC2 2035   4.324   0.052   3.834
   76OcOH    CC 2036   4.376   5.136   3.754
   76OcOH   HD1 2037   4.576   5.125   3.673
   76OcOH   HD2 2038   4.571   0.004   3.847
   76OcOH    CD 2039   4.525   0.040   3.755
   76OcOH   HE1 2040   4.501   0.227   3.649
   76OcOH   HE2 2041   4.496   0.243   3.823
   76OcOH    CE 2042   4.547   0.191   3.741
   76OcOH   HF1 2043   4.743   0.185   3.653
   76OcOH   HF2 2044   4.745   0.183   3.828
   76OcOH    CF 2045   4.696   0.228   3.741
   76OcOH   HG1 2046   4.669   0.426   3.658
   76OcOH   HG2 2047   4.675   0.423   3.833
   76OcOH    CG 2048   4.719   0.379   3.743
   76OcOH   HH1 2049   4.913   0.384   3.643
   76OcOH   HH2 2050   4.924   0.366   3.818
   76OcOH   HH3 2051   4.883   0.522   3.747
   76OcOH    CH 2052   4.868   0.414   3.738
   77OcOH    HO 2053   1.464   2.718   1.217
   77OcOH    OH 2054   1.431   2.629   1.198
   77OcOH   HA1 2055   1.402   2.516   1.029
   77OcOH   HA2 2056   1.426   2.687   1.001
   77OcOH    CA 2057   1.459   2.603   1.062
   77OcOH   HB1 2058   1.639   2.488   1.097
   77OcOH   HB2 2059   1.664   2.660   1.092
   77OcOH    CB 2060   1.609   2.579   1.044
   77OcOH   HC1 2061   1.638   2.665   0.848
   77OcOH   HC2 2062   1.764   2.555   0.898
   77OcOH    CC 2063   1.656   2.570   0.898
   77OcOH   HD1 2064   1.484   2.473   0.808
   77OcOH   HD2 2065   1.604   2.361   0.870
   77OcOH    CD 2066   1.592   2.456   0.817
   77OcOH   HE1 2067   1.648   2.540   0.626
   77OcOH   HE2 2068   1.759   2.418   0.685
   77OcOH    CE 2069   1.653   2.443   0.676
   77OcOH   HF1 2070   1.476   2.364   0.580
   77OcOH   HF2 2071   1.585   2.241   0.640
   77OcOH    CF 2072   1.582   2.338   0.590
   77OcOH   HG1 2073   1.645   2.422   0.400
   77OcOH   HG2 2074   1.749   2.294   0.459
   77OcOH    CG 2075   1.645   2.324   0.450
   77OcOH   HH1 2076   1.568   2.125   0.407
   77OcOH   HH2 2077   1.618   2.214   0.264
   77OcOH   HH3 2078   1.467   2.254   0.345
   77OcOH    CH 2079   1.570   2.224   0.361
   78OcOH    HO 2080   3.348   0.683   1.245
   78OcOH    OH 2081   3.281   0.689   1.314
   78OcOH   HA1 2082   3.267   0.773   1.501
   78OcOH   HA2 2083   3.428   0.725   1.451
   78OcOH    CA 2084   3.335   0.770   1.416
   78OcOH   HB1 2085   3.422   0.905   1.271
   78OcOH   HB2 2086   3.422   0.966   1.434
   78OcOH    CB 2087   3.362   0.912   1.362
   78OcOH   HC1 2088   3.173   0.939   1.261
   78OcOH   HC2 2089   3.174   0.992   1.427
   78OcOH    CC 2090   3.233   0.991   1.336
   78OcOH   HD1 2091   3.313   1.190   1.367
   78OcOH   HD2 2092   3.159   1.186   1.286
   78OcOH    CD 2093   3.256   1.136   1.291
   78OcOH   HE1 2094   3.430   1.117   1.163
   78OcOH   HE2 2095   3.279   1.082   1.084
   78OcOH    CE 2096   3.326   1.149   1.155
   78OcOH   HF1 2097   3.367   1.361   1.171
   78OcOH   HF2 2098   3.216   1.323   1.091
   78OcOH    CF 2099   3.321   1.292   1.100
   78OcOH   HG1 2100   3.496   1.287   0.975
   78OcOH   HG2 2101   3.352   1.230   0.895
   78OcOH    CG 2102   3.390   1.306   0.964
   78OcOH   HH1 2103   3.407   1.523   0.965
   78OcOH   HH2 2104   3.262   1.464   0.884
   78OcOH   HH3 2105   3.419   1.451   0.805
   78OcOH    CH 2106   3.368   1.444   0.901
   79OcOH    HO 2107   4.259   4.118   1.786
   79OcOH    OH 2108   4.338   4.066   1.805
   79OcOH   HA1 2109   4.408   3.959   1.966
   79OcOH   HA2 2110   4.258   4.044   1.991
   79OcOH    CA 2111   4.314   3.986   1.918
   79OcOH   HB1 2112   4.302   3.791   1.823
   79OcOH   HB2 2113   4.155   3.884   1.812
   79OcOH    CB 2114   4.237   3.859   1.879
   79OcOH   HC1 2115   4.259   3.755   2.068
   79OcOH   HC2 2116   4.118   3.857   2.059
   79OcOH    CC 2117   4.178   3.787   2.002
   79OcOH   HD1 2118   4.152   3.588   1.920
   79OcOH   HD2 2119   4.019   3.696   1.888
   79OcOH    CD 2120   4.091   3.666   1.965
   79OcOH   HE1 2121   4.086   3.585   2.165
   79OcOH   HE2 2122   3.950   3.688   2.126
   79OcOH    CE 2123   4.015   3.610   2.086
   79OcOH   HF1 2124   3.996   3.405   2.022
   79OcOH   HF2 2125   3.867   3.509   1.965
   79OcOH    CF 2126   3.930   3.487   2.051
   79OcOH   HG1 2127   3.902   3.429   2.258
   79OcOH   HG2 2128   3.770   3.521   2.192
   79OcOH    CG 2129   3.841   3.443   2.168
   79OcOH   HH1 2130   3.704   3.321   2.050
   79OcOH   HH2 2131   3.701   3.287   2.222
   79OcOH   HH3 2132   3.835   3.229   2.124
   79OcOH    CH 2133   3.766   3.312   2.139
   80OcOH    HO 2134   0.291   1.387   0.666
   80OcOH    OH 2135   0.341   1.326   0.723
   80OcOH   HA1 2136   0.157   1.246   0.761
   80OcOH   HA2 2137   0.256   1.152   0.651
   80OcOH    CA 2138   0.259   1.212   0.742
   80OcOH   HB1 2139   0.234   1.056   0.888
   80OcOH   HB2 2140   0.320   1.194   0.949
   80OcOH    CB 2141   0.309   1.130   0.862
   80OcOH   HC1 2142   0.427   0.984   0.754
   80OcOH   HC2 2143   0.516   1.128   0.798
   80OcOH    CC 2144   0.442   1.057   0.834
   80OcOH   HD1 2145   0.421   0.920   1.000
   80OcOH   HD2 2146   0.519   1.061   1.035
   80OcOH    CD 2147   0.497   0.986   0.959
   80OcOH   HE1 2148   0.601   0.823   0.862
   80OcOH   HE2 2149   0.697   0.967   0.878
   80OcOH    CE 2150   0.625   0.905   0.930
   80OcOH   HF1 2151   0.613   0.792   1.114
   80OcOH   HF2 2152   0.717   0.932   1.123
   80OcOH    CF 2153   0.688   0.849   1.058
   80OcOH   HG1 2154   0.779   0.672   0.974
   80OcOH   HG2 2155   0.882   0.813   0.970
   80OcOH    CG 2156   0.810   0.760   1.032
   80OcOH   HH1 2157   0.809   0.659   1.225
   80OcOH   HH2 2158   0.916   0.799   1.218
   80OcOH   HH3 2159   0.963   0.649   1.140
   80OcOH    CH 2160   0.878   0.714   1.161
   81OcOH    HO 2161   0.185   0.387   3.341
   81OcOH    OH 2162   0.101   0.412   3.302
   81OcOH   HA1 2163   0.022   0.389   3.491
   81OcOH   HA2 2164   5.041   0.415   3.364
   81OcOH    CA 2165   5.135   0.365   3.388
   81OcOH   HB1 2166   0.075   0.163   3.398
   81OcOH   HB2 2167   5.103   0.192   3.263
   81OcOH    CB 2168   5.119   0.214   3.369
   81OcOH   HC1 2169   5.014   0.180   3.555
   81OcOH   HC2 2170   4.909   0.207   3.418
   81OcOH    CC 2171   5.001   0.157   3.449
   81OcOH   HD1 2172   5.074   5.091   3.470
   81OcOH   HD2 2173   4.980   5.118   3.325
   81OcOH    CD 2174   4.985   0.005   3.431
   81OcOH   HE1 2175   4.861   5.114   3.606
   81OcOH   HE2 2176   4.771   5.136   3.457
   81OcOH    CE 2177   4.859   5.087   3.500
   81OcOH   HF1 2178   4.927   4.887   3.542
   81OcOH   HF2 2179   4.860   4.907   3.382
   81OcOH    CF 2180   4.846   4.935   3.486
   81OcOH   HG1 2181   4.697   4.911   3.639
   81OcOH   HG2 2182   4.630   4.930   3.479
   81OcOH    CG 2183   4.711   4.883   3.535
   81OcOH   HH1 2184   4.775   4.679   3.582
   81OcOH   HH2 2185   4.708   4.698   3.420
   81OcOH   HH3 2186   4.601   4.697   3.559
   81OcOH    CH 2187   4.698   4.730   3.523
   82OcOH    HO 2188   4.292   2.055   0.728
   82OcOH    OH 2189   4.379   2.090   0.749
   82OcOH   HA1 2190   4.532   2.050   0.880
   82OcOH   HA2 2191   4.371   2.007   0.936
   82OcOH    CA 2192   4.437   2.008   0.849
   82OcOH   HB1 2193   4.516   1.870   0.703
   82OcOH   HB2 2194   4.357   1.827   0.764
   82OcOH    CB 2195   4.455   1.866   0.794
   82OcOH   HC1 2196   4.623   1.800   0.913
   82OcOH   HC2 2197   4.468   1.781   0.991
   82OcOH    CC 2198   4.520   1.771   0.895
   82OcOH   HD1 2199   4.409   1.596   0.834
   82OcOH   HD2 2200   4.544   1.562   0.938
   82OcOH    CD 2201   4.513   1.623   0.854
   82OcOH   HE1 2202   4.568   1.646   0.645
   82OcOH   HE2 2203   4.703   1.613   0.751
   82OcOH    CE 2204   4.599   1.587   0.731
   82OcOH   HF1 2205   4.483   1.412   0.678
   82OcOH   HF2 2206   4.621   1.378   0.781
   82OcOH    CF 2207   4.588   1.438   0.696
   82OcOH   HG1 2208   4.638   1.461   0.487
   82OcOH   HG2 2209   4.776   1.426   0.589
   82OcOH    CG 2210   4.671   1.401   0.572
   82OcOH   HH1 2211   4.693   1.189   0.618
   82OcOH   HH2 2212   4.723   1.229   0.449
   82OcOH   HH3 2213   4.558   1.225   0.510
   82OcOH    CH 2214   4.661   1.252   0.535
   83OcOH    HO 2215   5.094   1.038   0.655
   83OcOH    OH 2216   5.124   1.077   0.572
   83OcOH   HA1 2217   0.069   0.905   0.500
   83OcOH   HA2 2218   5.032   0.920   0.480
   83OcOH    CA 2219   5.126   0.975   0.476
   83OcOH   HB1 2220   0.104   1.093   0.336
   83OcOH   HB2 2221   5.068   1.110   0.319
   83OcOH    CB 2222   0.010   1.037   0.337
   83OcOH   HC1 2223   0.097   0.866   0.238
   83OcOH   HC2 2224   5.059   0.869   0.234
   83OcOH    CC 2225   0.011   0.932   0.225
   83OcOH   HD1 2226   0.106   1.055   0.075
   83OcOH   HD2 2227   5.068   1.064   0.074
   83OcOH    CD 2228   0.015   0.995   0.085
   83OcOH   HE1 2229   0.092   0.822   5.118
   83OcOH   HE2 2230   5.054   0.833   5.119
   83OcOH    CE 2231   0.008   0.892   5.109
   83OcOH   HF1 2232   0.105   1.011   4.957
   83OcOH   HF2 2233   5.067   1.030   4.963
   83OcOH    CF 2234   0.011   0.957   4.969
   83OcOH   HG1 2235   0.076   0.781   4.861
   83OcOH   HG2 2236   5.039   0.800   4.868
   83OcOH    CG 2237   5.132   0.855   4.856
   83OcOH   HH1 2238   0.091   0.975   4.700
   83OcOH   HH2 2239   5.052   0.993   4.707
   83OcOH   HH3 2240   5.123   0.847   4.638
   83OcOH    CH 2241   5.134   0.921   4.717
   84OcOH    HO 2242   2.345   1.582   0.978
   84OcOH    OH 2243   2.399   1.660   0.960
   84OcOH   HA1 2244   2.505   1.775   1.092
   84OcOH   HA2 2245   2.455   1.618   1.153
   84OcOH    CA 2246   2.493   1.670   1.065
   84OcOH   HB1 2247   2.666   1.668   0.935
   84OcOH   HB2 2248   2.612   1.509   0.983
   84OcOH    CB 2249   2.627   1.611   1.020
   84OcOH   HC1 2250   2.748   1.713   1.166
   84OcOH   HC2 2251   2.691   1.556   1.217
   84OcOH    CC 2252   2.732   1.611   1.132
   84OcOH   HD1 2253   2.901   1.601   1.000
   84OcOH   HD2 2254   2.851   1.446   1.058
   84OcOH    CD 2255   2.866   1.549   1.089
   84OcOH   HE1 2256   3.070   1.528   1.152
   84OcOH   HE2 2257   2.987   1.661   1.228
   84OcOH    CE 2258   2.975   1.557   1.196
   84OcOH   HF1 2259   2.943   1.364   1.287
   84OcOH   HF2 2260   2.852   1.493   1.363
   84OcOH    CF 2261   2.949   1.468   1.319
   84OcOH   HG1 2262   3.154   1.452   1.386
   84OcOH   HG2 2263   3.067   1.587   1.455
   84OcOH    CG 2264   3.057   1.482   1.427
   84OcOH   HH1 2265   2.931   1.429   1.596
   84OcOH   HH2 2266   3.103   1.412   1.627
   84OcOH   HH3 2267   3.019   1.293   1.528
   84OcOH    CH 2268   3.026   1.399   1.552
   85OcOH    HO 2269   0.743   2.915   1.744
   85OcOH    OH 2270   0.707   2.854   1.679
   85OcOH   HA1 2271   0.852   2.740   1.592
   85OcOH   HA2 2272   0.850   2.737   1.767
   85OcOH    CA 2273   0.786   2.738   1.679
   85OcOH   HB1 2274   0.763   2.526   1.659
   85OcOH   HB2 2275   0.630   2.616   1.591
   85OcOH    CB 2276   0.699   2.612   1.676
   85OcOH   HC1 2277   0.690   2.594   1.891
   85OcOH   HC2 2278   0.550   2.672   1.821
   85OcOH    CC 2279   0.620   2.590   1.807
   85OcOH   HD1 2280   0.616   2.375   1.787
   85OcOH   HD2 2281   0.471   2.455   1.729
   85OcOH    CD 2282   0.546   2.456   1.809
   85OcOH   HE1 2283   0.553   2.428   2.022
   85OcOH   HE2 2284   0.407   2.507   1.966
   85OcOH    CE 2285   0.477   2.427   1.943
   85OcOH   HF1 2286   0.474   2.212   1.916
   85OcOH   HF2 2287   0.329   2.293   1.865
   85OcOH    CF 2288   0.404   2.291   1.943
   85OcOH   HG1 2289   0.269   2.338   2.106
   85OcOH   HG2 2290   0.272   2.170   2.061
   85OcOH    CG 2291   0.336   2.257   2.076
   85OcOH   HH1 2292   0.503   2.147   2.162
   85OcOH   HH2 2293   0.381   2.195   2.280
   85OcOH   HH3 2294   0.494   2.314   2.217
   85OcOH    CH 2295   0.434   2.227   2.190
   86OcOH    HO 2296   2.170   1.654   2.983
   86OcOH    OH 2297   2.105   1.591   2.952
   86OcOH   HA1 2298   2.056   1.501   2.774
   86OcOH   HA2 2299   2.143   1.654   2.762
   86OcOH    CA 2300   2.136   1.561   2.818
   86OcOH   HB1 2301   2.256   1.388   2.863
   86OcOH   HB2 2302   2.346   1.537   2.869
   86OcOH    CB 2303   2.269   1.484   2.813
   86OcOH   HC1 2304   2.400   1.383   2.676
   86OcOH   HC2 2305   2.243   1.415   2.609
   86OcOH    CC 2306   2.322   1.458   2.671
   86OcOH   HD1 2307   2.455   1.629   2.669
   86OcOH   HD2 2308   2.301   1.659   2.592
   86OcOH    CD 2309   2.379   1.584   2.604
   86OcOH   HE1 2310   2.522   1.482   2.478
   86OcOH   HE2 2311   2.367   1.509   2.402
   86OcOH    CE 2312   2.442   1.555   2.467
   86OcOH   HF1 2313   2.580   1.722   2.459
   86OcOH   HF2 2314   2.420   1.760   2.401
   86OcOH    CF 2315   2.497   1.682   2.400
   86OcOH   HG1 2316   2.459   1.622   2.195
   86OcOH   HG2 2317   2.567   1.758   2.211
   86OcOH    CG 2318   2.542   1.661   2.254
   86OcOH   HH1 2319   2.694   1.561   2.136
   86OcOH   HH2 2320   2.639   1.466   2.273
   86OcOH   HH3 2321   2.747   1.603   2.300
   86OcOH    CH 2322   2.662   1.567   2.240
   87OcOH    HO 2323   0.290   0.698   1.430
   87OcOH    OH 2324   0.325   0.745   1.353
   87OcOH   HA1 2325   0.474   0.879   1.312
   87OcOH   HA2 2326   0.429   0.867   1.482
   87OcOH    CA 2327   0.445   0.809   1.391
   87OcOH   HB1 2328   0.651   0.759   1.426
   87OcOH   HB2 2329   0.570   0.647   1.319
   87OcOH    CB 2330   0.557   0.706   1.410
   87OcOH   HC1 2331   0.511   0.670   1.618
   87OcOH   HC2 2332   0.440   0.555   1.509
   87OcOH    CC 2333   0.531   0.611   1.529
   87OcOH   HD1 2334   0.676   0.463   1.465
   87OcOH   HD2 2335   0.606   0.433   1.621
   87OcOH    CD 2336   0.645   0.512   1.557
   87OcOH   HE1 2337   0.819   0.640   1.556
   87OcOH   HE2 2338   0.732   0.639   1.708
   87OcOH    CE 2339   0.767   0.576   1.626
   87OcOH   HF1 2340   0.900   0.407   1.601
   87OcOH   HF2 2341   0.809   0.405   1.750
   87OcOH    CF 2342   0.863   0.470   1.682
   87OcOH   HG1 2343   1.044   0.588   1.684
   87OcOH   HG2 2344   0.946   0.608   1.827
   87OcOH    CG 2345   0.982   0.534   1.756
   87OcOH   HH1 2346   1.157   0.478   1.871
   87OcOH   HH2 2347   1.097   0.349   1.767
   87OcOH   HH3 2348   1.011   0.389   1.915
   87OcOH    CH 2349   1.067   0.431   1.831
   88OcOH    HO 2350   3.855   0.529   3.137
   88OcOH    OH 2351   3.848   0.446   3.186
   88OcOH   HA1 2352   3.979   0.534   3.320
   88OcOH   HA2 2353   3.937   0.366   3.351
   88OcOH    CA 2354   3.960   0.438   3.272
   88OcOH   HB1 2355   4.062   0.296   3.145
   88OcOH   HB2 2356   4.163   0.368   3.268
   88OcOH    CB 2357   4.085   0.390   3.196
   88OcOH   HC1 2358   4.059   0.523   3.026
   88OcOH   HC2 2359   4.169   0.584   3.148
   88OcOH    CC 2360   4.139   0.493   3.095
   88OcOH   HD1 2361   4.225   0.346   2.963
   88OcOH   HD2 2362   4.337   0.408   3.082
   88OcOH    CD 2363   4.257   0.437   3.014
   88OcOH   HE1 2364   4.231   0.564   2.842
   88OcOH   HE2 2365   4.343   0.629   2.961
   88OcOH    CE 2366   4.311   0.537   2.911
   88OcOH   HF1 2367   4.398   0.385   2.785
   88OcOH   HF2 2368   4.511   0.456   2.898
   88OcOH    CF 2369   4.429   0.479   2.830
   88OcOH   HG1 2370   4.396   0.594   2.649
   88OcOH   HG2 2371   4.504   0.671   2.763
   88OcOH    CG 2372   4.477   0.574   2.720
   88OcOH   HH1 2373   4.573   0.425   2.593
   88OcOH   HH2 2374   4.682   0.498   2.711
   88OcOH   HH3 2375   4.633   0.588   2.568
   88OcOH    CH 2376   4.598   0.518   2.644
   89OcOH    HO 2377   2.779   3.494   5.039
   89OcOH    OH 2378   2.868   3.483   5.004
   89OcOH   HA1 2379   2.830   3.587   4.830
   89OcOH   HA2 2380   2.969   3.479   4.828
   89OcOH    CA 2381   2.866   3.489   4.863
   89OcOH   HB1 2382   2.802   3.283   4.857
   89OcOH   HB2 2383   2.812   3.359   4.701
   89OcOH    CB 2384   2.781   3.376   4.804
   89OcOH   HC1 2385   2.599   3.435   4.902
   89OcOH   HC2 2386   2.610   3.488   4.736
   89OcOH    CC 2387   2.630   3.404   4.802
   89OcOH   HD1 2388   2.565   3.200   4.828
   89OcOH   HD2 2389   2.584   3.247   4.662
   89OcOH    CD 2390   2.548   3.282   4.758
   89OcOH   HE1 2391   2.378   3.384   4.671
   89OcOH   HE2 2392   2.349   3.218   4.712
   89OcOH    CE 2393   2.397   3.309   4.747
   89OcOH   HF1 2394   2.368   3.449   4.909
   89OcOH   HF2 2395   2.359   3.282   4.958
   89OcOH    CF 2396   2.330   3.351   4.879
   89OcOH   HG1 2397   2.147   3.421   4.789
   89OcOH   HG2 2398   2.139   3.257   4.846
   89OcOH    CG 2399   2.177   3.356   4.871
   89OcOH   HH1 2400   2.146   3.505   5.027
   89OcOH   HH2 2401   2.139   3.338   5.085
   89OcOH   HH3 2402   2.005   3.406   4.993
   89OcOH    CH 2403   2.113   3.404   5.002
   90OcOH    HO 2404   2.501   1.120   4.753
   90OcOH    OH 2405   2.415   1.134   4.712
   90OcOH   HA1 2406   2.372   0.963   4.817
   90OcOH   HA2 2407   2.298   1.110   4.879
   90OcOH    CA 2408   2.323   1.056   4.787
   90OcOH   HB1 2409   2.228   0.971   4.615
   90OcOH   HB2 2410   2.154   1.120   4.670
   90OcOH    CB 2411   2.198   1.026   4.704
   90OcOH   HC1 2412   2.139   0.857   4.827
   90OcOH   HC2 2413   2.060   1.007   4.867
   90OcOH    CC 2414   2.093   0.946   4.783
   90OcOH   HD1 2415   1.934   0.990   4.642
   90OcOH   HD2 2416   1.890   0.879   4.769
   90OcOH    CD 2417   1.970   0.905   4.700
   90OcOH   HE1 2418   2.080   0.811   4.541
   90OcOH   HE2 2419   2.029   0.698   4.663
   90OcOH    CE 2420   1.997   0.785   4.606
   90OcOH   HF1 2421   1.919   0.705   4.424
   90OcOH   HF2 2422   1.824   0.836   4.483
   90OcOH    CF 2423   1.878   0.747   4.515
   90OcOH   HG1 2424   1.719   0.605   4.491
   90OcOH   HG2 2425   1.835   0.556   4.610
   90OcOH    CG 2426   1.780   0.643   4.573
   90OcOH   HH1 2427   1.609   0.623   4.705
   90OcOH   HH2 2428   1.635   0.788   4.648
   90OcOH   HH3 2429   1.739   0.719   4.773
   90OcOH    CH 2430   1.686   0.697   4.681
   91OcOH    HO 2431   0.013   1.959   0.286
   91OcOH    OH 2432   0.074   1.891   0.257
   91OcOH   HA1 2433   5.125   1.722   0.181
   91OcOH   HA2 2434   5.056   1.873   0.126
   91OcOH    CA 2435   0.013   1.823   0.150
   91OcOH   HB1 2436   0.066   1.751   5.091
   91OcOH   HB2 2437   0.203   1.779   0.057
   91OcOH    CB 2438   0.107   1.820   0.028
   91OcOH   HC1 2439   0.028   1.998   5.070
   91OcOH   HC2 2440   0.169   2.028   0.033
   91OcOH    CC 2441   0.126   1.958   5.097
   91OcOH   HD1 2442   0.177   1.875   4.904
   91OcOH   HD2 2443   0.314   1.913   5.004
   91OcOH    CD 2444   0.216   1.949   4.973
   91OcOH   HE1 2445   0.267   2.160   4.969
   91OcOH   HE2 2446   0.318   2.070   4.829
   91OcOH    CE 2447   0.236   2.083   4.899
   91OcOH   HF1 2448   0.031   2.154   4.890
   91OcOH   HF2 2449   0.073   2.044   4.763
   91OcOH    CF 2450   0.111   2.128   4.821
   91OcOH   HG1 2451   0.210   2.214   4.649
   91OcOH   HG2 2452   0.045   2.266   4.669
   91OcOH    CG 2453   0.137   2.244   4.724
   91OcOH   HH1 2454   0.114   2.408   4.867
   91OcOH   HH2 2455   0.199   2.453   4.719
   91OcOH   HH3 2456   0.282   2.359   4.841
   91OcOH    CH 2457   0.186   2.373   4.792
   92OcOH    HO 2458   0.012   0.460   3.156
   92OcOH    OH 2459   5.085   0.486   3.088
   92OcOH   HA1 2460   0.042   0.439   2.912
   92OcOH   HA2 2461   5.133   0.302   3.012
   92OcOH    CA 2462   5.100   0.400   2.977
   92OcOH   HB1 2463   4.981   0.342   2.806
   92OcOH   HB2 2464   4.932   0.491   2.879
   92OcOH    CB 2465   4.966   0.390   2.902
   92OcOH   HC1 2466   4.857   0.348   3.085
   92OcOH   HC2 2467   4.759   0.343   2.941
   92OcOH    CC 2468   4.857   0.316   2.981
   92OcOH   HD1 2469   4.972   0.134   3.003
   92OcOH   HD2 2470   4.859   0.132   2.870
   92OcOH    CD 2471   4.872   0.163   2.973
   92OcOH   HE1 2472   4.783   0.118   3.165
   92OcOH   HE2 2473   4.669   0.115   3.032
   92OcOH    CE 2474   4.771   0.087   3.061
   92OcOH   HF1 2475   4.889   5.044   3.081
   92OcOH   HF2 2476   4.777   5.040   2.947
   92OcOH    CF 2477   4.788   5.072   3.051
   92OcOH   HG1 2478   4.693   5.030   3.241
   92OcOH   HG2 2479   4.586   5.018   3.104
   92OcOH    CG 2480   4.687   4.996   3.138
   92OcOH   HH1 2481   4.695   4.805   3.033
   92OcOH   HH2 2482   4.635   4.794   3.199
   92OcOH   HH3 2483   4.807   4.817   3.169
   92OcOH    CH 2484   4.707   4.844   3.134
   93OcOH    HO 2485   0.639   2.055   3.949
   93OcOH    OH 2486   0.722   2.018   3.982
   93OcOH   HA1 2487   0.781   2.208   4.031
   93OcOH   HA2 2488   0.705   2.119   4.161
   93OcOH    CA 2489   0.774   2.110   4.077
   93OcOH   HB1 2490   0.961   2.143   4.181
   93OcOH   HB2 2491   0.975   2.047   4.037
   93OcOH    CB 2492   0.913   2.063   4.124
   93OcOH   HC1 2493   0.874   1.960   4.310
   93OcOH   HC2 2494   0.836   1.867   4.169
   93OcOH    CC 2495   0.909   1.936   4.210
   93OcOH   HD1 2496   1.119   1.928   4.267
   93OcOH   HD2 2497   1.082   1.849   4.115
   93OcOH    CD 2498   1.045   1.864   4.217
   93OcOH   HE1 2499   1.011   1.743   4.392
   93OcOH   HE2 2500   0.955   1.671   4.243
   93OcOH    CE 2501   1.037   1.728   4.287
   93OcOH   HF1 2502   1.249   1.700   4.321
   93OcOH   HF2 2503   1.192   1.635   4.169
   93OcOH    CF 2504   1.166   1.646   4.275
   93OcOH   HG1 2505   1.131   1.517   4.445
   93OcOH   HG2 2506   1.068   1.455   4.294
   93OcOH    CG 2507   1.153   1.507   4.338
   93OcOH   HH1 2508   1.265   1.323   4.365
   93OcOH   HH2 2509   1.365   1.468   4.369
   93OcOH   HH3 2510   1.303   1.408   4.215
   93OcOH    CH 2511   1.279   1.422   4.321
   94OcOH    HO 2512   4.943   1.936   3.726
   94OcOH    OH 2513   4.867   1.960   3.672
   94OcOH   HA1 2514   4.725   2.107   3.671
   94OcOH   HA2 2515   4.781   2.058   3.830
   94OcOH    CA 2516   4.813   2.078   3.728
   94OcOH   HB1 2517   4.953   2.206   3.625
   94OcOH   HB2 2518   5.005   2.160   3.785
   94OcOH    CB 2519   4.918   2.190   3.727
   94OcOH   HC1 2520   4.773   2.350   3.726
   94OcOH   HC2 2521   4.828   2.306   3.886
   94OcOH    CC 2522   4.862   2.322   3.783
   94OcOH   HD1 2523   5.001   2.448   3.677
   94OcOH   HD2 2524   5.050   2.410   3.840
   94OcOH    CD 2525   4.964   2.436   3.779
   94OcOH   HE1 2526   4.819   2.596   3.766
   94OcOH   HE2 2527   4.867   2.557   3.930
   94OcOH    CE 2528   4.905   2.569   3.828
   94OcOH   HF1 2529   5.047   2.693   3.723
   94OcOH   HF2 2530   5.092   2.658   3.889
   94OcOH    CF 2531   5.007   2.683   3.825
   94OcOH   HG1 2532   4.862   2.842   3.807
   94OcOH   HG2 2533   4.912   2.810   3.971
   94OcOH    CG 2534   4.948   2.818   3.869
   94OcOH   HH1 2535   0.001   2.913   3.922
   94OcOH   HH2 2536   5.005   3.026   3.894
   94OcOH   HH3 2537   5.083   2.947   3.757
   94OcOH    CH 2538   5.049   2.933   3.860
   95OcOH    HO 2539   4.788   1.795   3.628
   95OcOH    OH 2540   4.755   1.706   3.617
   95OcOH   HA1 2541   4.565   1.773   3.582
   95OcOH   HA2 2542   4.665   1.751   3.438
   95OcOH    CA 2543   4.640   1.709   3.535
   95OcOH   HB1 2544   4.575   1.520   3.618
   95OcOH   HB2 2545   4.659   1.505   3.466
   95OcOH    CB 2546   4.586   1.566   3.519
   95OcOH   HC1 2547   4.380   1.624   3.501
   95OcOH   HC2 2548   4.462   1.608   3.348
   95OcOH    CC 2549   4.452   1.562   3.446
   95OcOH   HD1 2550   4.377   1.377   3.529
   95OcOH   HD2 2551   4.465   1.356   3.381
   95OcOH    CD 2552   4.393   1.421   3.431
   95OcOH   HE1 2553   4.196   1.499   3.395
   95OcOH   HE2 2554   4.281   1.453   3.249
   95OcOH    CE 2555   4.261   1.423   3.353
   95OcOH   HF1 2556   4.167   1.260   3.457
   95OcOH   HF2 2557   4.252   1.210   3.313
   95OcOH    CF 2558   4.188   1.288   3.354
   95OcOH   HG1 2559   3.995   1.378   3.311
   95OcOH   HG2 2560   4.077   1.315   3.170
   95OcOH    CG 2561   4.056   1.295   3.275
   95OcOH   HH1 2562   3.946   1.148   3.392
   95OcOH   HH2 2563   4.031   1.079   3.253
   95OcOH   HH3 2564   3.883   1.172   3.229
   95OcOH    CH 2565   3.974   1.166   3.288
   96OcOH    HO 2566   0.455   0.219   4.523
   96OcOH    OH 2567   0.457   0.227   4.619
   96OcOH   HA1 2568   0.321   0.249   4.769
   96OcOH   HA2 2569   0.255   0.260   4.608
   96OcOH    CA 2570   0.327   0.206   4.669
   96OcOH   HB1 2571   0.382   0.003   4.714
   96OcOH   HB2 2572   0.284   0.018   4.571
   96OcOH    CB 2573   0.296   0.056   4.673
   96OcOH   HC1 2574   0.187   0.062   4.857
   96OcOH   HC2 2575   0.085   0.075   4.716
   96OcOH    CC 2576   0.172   0.023   4.757
   96OcOH   HD1 2577   0.236   4.956   4.788
   96OcOH   HD2 2578   0.110   4.973   4.668
   96OcOH    CD 2579   0.143   5.009   4.765
   96OcOH   HE1 2580   0.076   5.007   4.970
   96OcOH   HE2 2581   5.084   5.032   4.854
   96OcOH    CE 2582   0.039   4.975   4.873
   96OcOH   HF1 2583   0.096   4.767   4.887
   96OcOH   HF2 2584   5.095   4.797   4.783
   96OcOH    CF 2585   0.004   4.826   4.878
   96OcOH   HG1 2586   5.095   4.813   5.089
   96OcOH   HG2 2587   4.958   4.854   4.989
   96OcOH    CG 2588   5.046   4.790   4.994
   96OcOH   HH1 2589   4.952   4.618   4.899
   96OcOH   HH2 2590   4.936   4.621   5.074
   96OcOH   HH3 2591   5.089   4.576   5.000
   96OcOH    CH 2592   5.004   4.643   4.992
   97OcOH    HO 2593   1.324   0.667   0.177
   97OcOH    OH 2594   1.330   0.684   0.271
   97OcOH   HA1 2595   1.171   0.810   0.243
   97OcOH   HA2 2596   1.243   0.815   0.403
   97OcOH    CA 2597   1.266   0.807   0.296
   97OcOH   HB1 2598   1.444   0.929   0.319
   97OcOH   HB2 2599   1.302   1.018   0.272
   97OcOH    CB 2600   1.356   0.925   0.255
   97OcOH   HC1 2601   1.471   0.836   0.096
   97OcOH   HC2 2602   1.314   0.894   0.045
   97OcOH    CC 2603   1.400   0.918   0.108
   97OcOH   HD1 2604   1.546   1.078   0.124
   97OcOH   HD2 2605   1.391   1.129   0.061
   97OcOH    CD 2606   1.465   1.048   0.057
   97OcOH   HE1 2607   1.596   0.956   5.048
   97OcOH   HE2 2608   1.440   1.001   4.984
   97OcOH    CE 2609   1.520   1.034   5.051
   97OcOH   HF1 2610   1.661   1.198   5.061
   97OcOH   HF2 2611   1.503   1.243   4.999
   97OcOH    CF 2612   1.579   1.165   4.996
   97OcOH   HG1 2613   1.710   1.075   4.849
   97OcOH   HG2 2614   1.551   1.112   4.788
   97OcOH    CG 2615   1.631   1.150   4.852
   97OcOH   HH1 2616   1.767   1.321   4.851
   97OcOH   HH2 2617   1.604   1.358   4.793
   97OcOH   HH3 2618   1.716   1.269   4.691
   97OcOH    CH 2619   1.682   1.282   4.794
   98OcOH    HO 2620   1.337   1.081   1.839
   98OcOH    OH 2621   1.403   1.060   1.906
   98OcOH   HA1 2622   1.600   1.003   1.881
   98OcOH   HA2 2623   1.518   1.063   1.738
   98OcOH    CA 2624   1.530   1.078   1.845
   98OcOH   HB1 2625   1.504   1.293   1.859
   98OcOH   HB2 2626   1.659   1.243   1.799
   98OcOH    CB 2627   1.583   1.220   1.873
   98OcOH   HC1 2628   1.572   1.211   2.090
   98OcOH   HC2 2629   1.724   1.160   2.023
   98OcOH    CC 2630   1.645   1.234   2.013
   98OcOH   HD1 2631   1.767   1.403   1.952
   98OcOH   HD2 2632   1.775   1.367   2.121
   98OcOH    CD 2633   1.706   1.374   2.037
   98OcOH   HE1 2634   1.531   1.490   1.987
   98OcOH   HE2 2635   1.544   1.451   2.157
   98OcOH    CE 2636   1.602   1.482   2.070
   98OcOH   HF1 2637   1.720   1.651   2.007
   98OcOH   HF2 2638   1.739   1.610   2.176
   98OcOH    CF 2639   1.665   1.619   2.096
   98OcOH   HG1 2640   1.485   1.732   2.056
   98OcOH   HG2 2641   1.510   1.696   2.225
   98OcOH    CG 2642   1.562   1.726   2.133
   98OcOH   HH1 2643   1.699   1.864   2.232
   98OcOH   HH2 2644   1.548   1.938   2.180
   98OcOH   HH3 2645   1.673   1.900   2.062
   98OcOH    CH 2646   1.624   1.865   2.153
   99OcOH    HO 2647   2.526   4.048   3.089
   99OcOH    OH 2648   2.608   4.027   3.042
   99OcOH   HA1 2649   2.598   4.193   2.923
   99OcOH   HA2 2650   2.694   4.060   2.859
   99OcOH    CA 2651   2.603   4.084   2.913
   99OcOH   HB1 2652   2.390   4.056   2.895
   99OcOH   HB2 2653   2.483   3.923   2.831
   99OcOH    CB 2654   2.479   4.032   2.838
   99OcOH   HC1 2655   2.475   4.201   2.706
   99OcOH   HC2 2656   2.549   4.060   2.635
   99OcOH    CC 2657   2.466   4.092   2.697
   99OcOH   HD1 2658   2.322   4.129   2.543
   99OcOH   HD2 2659   2.249   4.087   2.695
   99OcOH    CD 2660   2.332   4.062   2.628
   99OcOH   HE1 2661   2.404   3.891   2.518
   99OcOH   HE2 2662   2.318   3.849   2.664
   99OcOH    CE 2663   2.318   3.917   2.579
   99OcOH   HF1 2664   2.185   3.970   2.417
   99OcOH   HF2 2665   2.103   3.916   2.561
   99OcOH    CF 2666   2.189   3.897   2.497
   99OcOH   HG1 2667   2.265   3.735   2.375
   99OcOH   HG2 2668   2.177   3.681   2.516
   99OcOH    CG 2669   2.177   3.756   2.437
   99OcOH   HH1 2670   2.051   3.809   2.267
   99OcOH   HH2 2671   1.961   3.756   2.410
   99OcOH   HH3 2672   2.046   3.638   2.310
   99OcOH    CH 2673   2.051   3.739   2.351
  100OcOH    HO 2674   3.944   5.078   4.979
  100OcOH    OH 2675   3.857   5.054   4.946
  100OcOH   HA1 2676   3.836   4.972   5.133
  100OcOH   HA2 2677   3.754   5.125   5.108
  100OcOH    CA 2678   3.778   5.029   5.061
  100OcOH   HB1 2679   3.593   5.012   4.951
  100OcOH   HB2 2680   3.587   4.949   5.114
  100OcOH    CB 2681   3.650   4.954   5.025
  100OcOH   HC1 2682   3.738   4.817   4.885
  100OcOH   HC2 2683   3.732   4.756   5.048
  100OcOH    CC 2684   3.675   4.811   4.973
  100OcOH   HD1 2685   3.483   4.796   4.873
  100OcOH   HD2 2686   3.486   4.730   5.034
  100OcOH    CD 2687   3.544   4.737   4.942
  100OcOH   HE1 2688   3.630   4.539   4.950
  100OcOH   HE2 2689   3.469   4.544   4.885
  100OcOH    CE 2690   3.565   4.596   4.885
  100OcOH   HF1 2691   3.720   4.640   4.740
  100OcOH   HF2 2692   3.558   4.658   4.678
  100OcOH    CF 2693   3.620   4.595   4.741
  100OcOH   HG1 2694   3.687   4.390   4.746
  100OcOH   HG2 2695   3.527   4.410   4.678
  100OcOH    CG 2696   3.627   4.454   4.681
  100OcOH   HH1 2697   3.629   4.514   4.471
  100OcOH   HH2 2698   3.693   4.352   4.500
  100OcOH   HH3 2699   3.790   4.493   4.541
  100OcOH    CH 2700   3.688   4.453   4.540
  101OcOH    HO 2701   0.377   1.727   4.223
  101OcOH    OH 2702   0.316   1.798   4.247
  101OcOH   HA1 2703   0.179   1.834   4.394
  101OcOH   HA2 2704   0.227   1.666   4.373
  101OcOH    CA 2705   0.264   1.768   4.375
  101OcOH   HB1 2706   0.413   1.886   4.475
  101OcOH   HB2 2707   0.454   1.717   4.465
  101OcOH    CB 2708   0.371   1.786   4.483
  101OcOH   HC1 2709   0.394   1.797   4.697
  101OcOH   HC2 2710   0.233   1.835   4.642
  101OcOH    CC 2711   0.317   1.767   4.626
  101OcOH   HD1 2712   0.359   1.556   4.647
  101OcOH   HD2 2713   0.199   1.588   4.586
  101OcOH    CD 2714   0.274   1.622   4.658
  101OcOH   HE1 2715   0.286   1.649   4.871
  101OcOH   HE2 2716   0.125   1.672   4.807
  101OcOH    CE 2717   0.215   1.610   4.799
  101OcOH   HF1 2718   0.267   1.402   4.826
  101OcOH   HF2 2719   0.104   1.427   4.767
  101OcOH    CF 2720   0.179   1.465   4.837
  101OcOH   HG1 2721   0.201   1.493   5.050
  101OcOH   HG2 2722   0.038   1.520   4.992
  101OcOH    CG 2723   0.125   1.455   4.981
  101OcOH   HH1 2724   0.171   1.244   5.008
  101OcOH   HH2 2725   0.056   1.308   5.124
  101OcOH   HH3 2726   0.005   1.275   4.958
  101OcOH    CH 2727   0.087   1.312   5.020
  102OcOH    HO 2728   4.152   4.190   2.955
  102OcOH    OH 2729   4.103   4.143   3.024
  102OcOH   HA1 2730   3.949   4.271   3.066
  102OcOH   HA2 2731   4.018   4.190   3.205
  102OcOH    CA 2732   4.043   4.238   3.110
  102OcOH   HB1 2733   4.082   4.430   3.196
  102OcOH   HB2 2734   4.152   4.409   3.038
  102OcOH    CB 2735   4.135   4.359   3.133
  102OcOH   HC1 2736   4.250   4.283   3.298
  102OcOH   HC2 2737   4.319   4.245   3.142
  102OcOH    CC 2738   4.269   4.324   3.199
  102OcOH   HD1 2739   4.312   4.529   3.258
  102OcOH   HD2 2740   4.383   4.482   3.107
  102OcOH    CD 2741   4.362   4.446   3.208
  102OcOH   HE1 2742   4.538   4.323   3.238
  102OcOH   HE2 2743   4.568   4.494   3.251
  102OcOH    CE 2744   4.496   4.416   3.277
  102OcOH   HF1 2745   4.409   4.337   3.458
  102OcOH   HF2 2746   4.450   4.506   3.467
  102OcOH    CF 2747   4.484   4.410   3.430
  102OcOH   HG1 2748   4.649   4.275   3.465
  102OcOH   HG2 2749   4.695   4.443   3.468
  102OcOH    CG 2750   4.617   4.373   3.498
  102OcOH   HH1 2751   4.577   4.474   3.687
  102OcOH   HH2 2752   4.700   4.348   3.697
  102OcOH   HH3 2753   4.530   4.304   3.684
  102OcOH    CH 2754   4.605   4.375   3.651
  103OcOH    HO 2755   2.703   2.118   0.135
  103OcOH    OH 2756   2.739   2.190   0.186
  103OcOH   HA1 2757   2.643   2.324   0.066
  103OcOH   HA2 2758   2.775   2.391   0.162
  103OcOH    CA 2759   2.743   2.304   0.103
  103OcOH   HB1 2760   2.809   2.188   5.071
  103OcOH   HB2 2761   2.940   2.260   0.025
  103OcOH    CB 2762   2.839   2.279   5.123
  103OcOH   HC1 2763   2.741   2.418   4.990
  103OcOH   HC2 2764   2.880   2.485   5.073
  103OcOH    CC 2765   2.843   2.395   5.023
  103OcOH   HD1 2766   2.890   2.276   4.850
  103OcOH   HD2 2767   3.031   2.340   4.931
  103OcOH    CD 2768   2.929   2.364   4.900
  103OcOH   HE1 2769   2.831   2.509   4.774
  103OcOH   HE2 2770   2.978   2.568   4.847
  103OcOH    CE 2771   2.933   2.481   4.800
  103OcOH   HF1 2772   2.970   2.353   4.631
  103OcOH   HF2 2773   3.115   2.426   4.695
  103OcOH    CF 2774   3.010   2.446   4.671
  103OcOH   HG1 2775   3.043   2.513   4.470
  103OcOH   HG2 2776   2.896   2.574   4.539
  103OcOH    CG 2777   3.000   2.553   4.562
  103OcOH   HH1 2778   3.030   2.732   4.684
  103OcOH   HH2 2779   3.068   2.754   4.514
  103OcOH   HH3 2780   3.179   2.665   4.618
  103OcOH    CH 2781   3.074   2.684   4.597
  104OcOH    HO 2782   4.642   2.121   1.517
  104OcOH    OH 2783   4.644   2.216   1.533
  104OcOH   HA1 2784   4.583   2.182   1.726
  104OcOH   HA2 2785   4.756   2.184   1.702
  104OcOH    CA 2786   4.664   2.233   1.672
  104OcOH   HB1 2787   4.669   2.389   1.818
  104OcOH   HB2 2788   4.574   2.429   1.678
  104OcOH    CB 2789   4.667   2.382   1.709
  104OcOH   HC1 2790   4.880   2.405   1.679
  104OcOH   HC2 2791   4.783   2.448   1.541
  104OcOH    CC 2792   4.788   2.456   1.650
  104OcOH   HD1 2793   4.703   2.655   1.663
  104OcOH   HD2 2794   4.873   2.651   1.628
  104OcOH    CD 2795   4.796   2.605   1.689
  104OcOH   HE1 2796   4.749   2.590   1.900
  104OcOH   HE2 2797   4.918   2.570   1.863
  104OcOH    CE 2798   4.829   2.628   1.837
  104OcOH   HF1 2799   4.764   2.833   1.847
  104OcOH   HF2 2800   4.933   2.814   1.804
  104OcOH    CF 2801   4.854   2.776   1.869
  104OcOH   HG1 2802   4.815   2.763   2.082
  104OcOH   HG2 2803   4.982   2.740   2.039
  104OcOH    CG 2804   4.894   2.799   2.016
  104OcOH   HH1 2805   4.949   2.960   2.151
  104OcOH   HH2 2806   4.837   3.009   2.024
  104OcOH   HH3 2807   5.007   2.983   1.986
  104OcOH    CH 2808   4.923   2.946   2.046
  105OcOH    HO 2809   1.610   2.905   1.269
  105OcOH    OH 2810   1.515   2.884   1.262
  105OcOH   HA1 2811   1.348   2.917   1.374
  105OcOH   HA2 2812   1.500   2.931   1.461
  105OcOH    CA 2813   1.450   2.953   1.367
  105OcOH   HB1 2814   1.416   3.124   1.239
  105OcOH   HB2 2815   1.555   3.140   1.344
  105OcOH    CB 2816   1.452   3.104   1.340
  105OcOH   HC1 2817   1.262   3.144   1.433
  105OcOH   HC2 2818   1.398   3.161   1.541
  105OcOH    CC 2819   1.365   3.181   1.439
  105OcOH   HD1 2820   1.336   3.351   1.311
  105OcOH   HD2 2821   1.469   3.369   1.423
  105OcOH    CD 2822   1.367   3.332   1.413
  105OcOH   HE1 2823   1.179   3.360   1.513
  105OcOH   HE2 2824   1.317   3.403   1.611
  105OcOH    CE 2825   1.276   3.409   1.510
  105OcOH   HF1 2826   1.208   3.559   1.372
  105OcOH   HF2 2827   1.354   3.602   1.455
  105OcOH    CF 2828   1.257   3.555   1.469
  105OcOH   HG1 2829   1.085   3.582   1.599
  105OcOH   HG2 2830   1.233   3.647   1.664
  105OcOH    CG 2831   1.176   3.636   1.572
  105OcOH   HH1 2832   1.223   3.834   1.495
  105OcOH   HH2 2833   1.078   3.828   1.595
  105OcOH   HH3 2834   1.074   3.766   1.430
  105OcOH    CH 2835   1.136   3.774   1.520
  106OcOH    HO 2836   4.465   2.002   5.065
  106OcOH    OH 2837   4.492   2.087   5.030
  106OcOH   HA1 2838   4.302   2.137   4.973
  106OcOH   HA2 2839   4.431   2.225   4.892
  106OcOH    CA 2840   4.401   2.127   4.929
  106OcOH   HB1 2841   4.366   1.928   4.852
  106OcOH   HB2 2842   4.500   2.011   4.776
  106OcOH    CB 2843   4.399   2.025   4.815
  106OcOH   HC1 2844   4.207   2.092   4.740
  106OcOH   HC2 2845   4.344   2.165   4.661
  106OcOH    CC 2846   4.306   2.071   4.701
  106OcOH   HD1 2847   4.244   1.879   4.622
  106OcOH   HD2 2848   4.393   1.938   4.554
  106OcOH    CD 2849   4.294   1.969   4.586
  106OcOH   HE1 2850   4.116   2.053   4.497
  106OcOH   HE2 2851   4.264   2.120   4.435
  106OcOH    CE 2852   4.217   2.027   4.466
  106OcOH   HF1 2853   4.156   1.841   4.374
  106OcOH   HF2 2854   4.312   1.898   4.321
  106OcOH    CF 2855   4.211   1.931   4.346
  106OcOH   HG1 2856   4.045   2.026   4.246
  106OcOH   HG2 2857   4.201   2.086   4.196
  106OcOH    CG 2858   4.146   1.995   4.223
  106OcOH   HH1 2859   4.087   1.810   4.122
  106OcOH   HH2 2860   4.244   1.870   4.072
  106OcOH   HH3 2861   4.097   1.949   4.016
  106OcOH    CH 2862   4.144   1.900   4.101
  107OcOH    HO 2863   2.396   1.378   3.790
  107OcOH    OH 2864   2.383   1.344   3.700
  107OcOH   HA1 2865   2.447   1.171   3.790
  107OcOH   HA2 2866   2.276   1.178   3.752
  107OcOH    CA 2867   2.375   1.204   3.714
  107OcOH   HB1 2868   2.329   1.162   3.507
  107OcOH   HB2 2869   2.390   1.026   3.597
  107OcOH    CB 2870   2.403   1.133   3.581
  107OcOH   HC1 2871   2.551   1.263   3.495
  107OcOH   HC2 2872   2.617   1.147   3.609
  107OcOH    CC 2873   2.544   1.159   3.528
  107OcOH   HD1 2874   2.505   1.063   3.338
  107OcOH   HD2 2875   2.592   0.963   3.452
  107OcOH    CD 2876   2.584   1.065   3.413
  107OcOH   HE1 2877   2.698   1.202   3.296
  107OcOH   HE2 2878   2.792   1.128   3.421
  107OcOH    CE 2879   2.715   1.108   3.346
  107OcOH   HF1 2880   2.833   1.057   3.174
  107OcOH   HF2 2881   2.685   0.965   3.186
  107OcOH    CF 2882   2.768   1.005   3.245
  107OcOH   HG1 2883   2.934   0.932   3.361
  107OcOH   HG2 2884   2.787   0.839   3.382
  107OcOH    CG 2885   2.848   0.891   3.308
  107OcOH   HH1 2886   2.963   0.716   3.251
  107OcOH   HH2 2887   2.817   0.737   3.156
  107OcOH   HH3 2888   2.958   0.839   3.126
  107OcOH    CH 2889   2.899   0.790   3.204
  108OcOH    HO 2890   1.357   2.855   4.635
  108OcOH    OH 2891   1.346   2.795   4.711
  108OcOH   HA1 2892   1.460   2.651   4.803
  108OcOH   HA2 2893   1.511   2.695   4.640
  108OcOH    CA 2894   1.472   2.735   4.734
  108OcOH   HB1 2895   1.525   2.877   4.886
  108OcOH   HB2 2896   1.574   2.925   4.726
  108OcOH    CB 2897   1.567   2.839   4.793
  108OcOH   HC1 2898   1.703   2.697   4.883
  108OcOH   HC2 2899   1.752   2.752   4.724
  108OcOH    CC 2900   1.709   2.785   4.819
  108OcOH   HD1 2901   1.756   2.919   4.980
  108OcOH   HD2 2902   1.801   2.980   4.823
  108OcOH    CD 2903   1.799   2.890   4.884
  108OcOH   HE1 2904   1.942   2.747   4.959
  108OcOH   HE2 2905   1.990   2.824   4.810
  108OcOH    CE 2906   1.943   2.842   4.906
  108OcOH   HF1 2907   1.981   2.960   5.083
  108OcOH   HF2 2908   2.027   3.040   4.935
  108OcOH    CF 2909   2.027   2.943   4.986
  108OcOH   HG1 2910   2.173   2.798   5.053
  108OcOH   HG2 2911   2.221   2.885   4.909
  108OcOH    CG 2912   2.172   2.897   5.006
  108OcOH   HH1 2913   2.256   3.093   5.049
  108OcOH   HH2 2914   2.357   2.960   5.103
  108OcOH   HH3 2915   2.212   3.002   0.057
  108OcOH    CH 2916   2.254   2.994   5.093
  109OcOH    HO 2917   1.385   3.064   0.999
  109OcOH    OH 2918   1.413   3.151   0.970
  109OcOH   HA1 2919   1.212   3.187   0.957
  109OcOH   HA2 2920   1.315   3.314   0.892
  109OcOH    CA 2921   1.303   3.206   0.900
  109OcOH   HB1 2922   1.310   3.033   0.772
  109OcOH   HB2 2923   1.379   3.176   0.701
  109OcOH    CB 2924   1.296   3.141   0.761
  109OcOH   HC1 2925   1.166   3.112   0.593
  109OcOH   HC2 2926   1.083   3.117   0.746
  109OcOH    CC 2927   1.163   3.164   0.688
  109OcOH   HD1 2928   1.214   3.361   0.615
  109OcOH   HD2 2929   1.116   3.365   0.758
  109OcOH    CD 2930   1.129   3.313   0.664
  109OcOH   HE1 2931   0.990   3.441   0.560
  109OcOH   HE2 2932   1.025   3.293   0.477
  109OcOH    CE 2933   1.005   3.334   0.576
  109OcOH   HF1 2934   0.885   3.163   0.641
  109OcOH   HF2 2935   0.801   3.280   0.548
  109OcOH    CF 2936   0.874   3.270   0.628
  109OcOH   HG1 2937   0.837   3.442   0.757
  109OcOH   HG2 2938   0.706   3.328   0.748
  109OcOH    CG 2939   0.815   3.335   0.754
  109OcOH   HH1 2940   0.835   3.161   0.883
  109OcOH   HH2 2941   0.806   3.311   0.970
  109OcOH   HH3 2942   0.965   3.278   0.903
  109OcOH    CH 2943   0.858   3.267   0.885
  110OcOH    HO 2944   2.532   3.484   2.751
  110OcOH    OH 2945   2.464   3.417   2.745
  110OcOH   HA1 2946   2.602   3.265   2.747
  110OcOH   HA2 2947   2.553   3.324   2.904
  110OcOH    CA 2948   2.516   3.300   2.804
  110OcOH   HB1 2949   2.375   3.168   2.709
  110OcOH   HB2 2950   2.321   3.228   2.865
  110OcOH    CB 2951   2.408   3.191   2.811
  110OcOH   HC1 2952   2.543   3.023   2.823
  110OcOH   HC2 2953   2.491   3.085   2.979
  110OcOH    CC 2954   2.456   3.062   2.878
  110OcOH   HD1 2955   2.306   2.936   2.787
  110OcOH   HD2 2956   2.265   2.989   2.948
  110OcOH    CD 2957   2.348   2.954   2.886
  110OcOH   HE1 2958   2.477   2.782   2.874
  110OcOH   HE2 2959   2.454   2.841   3.037
  110OcOH    CE 2960   2.402   2.822   2.943
  110OcOH   HF1 2961   2.228   2.710   2.880
  110OcOH   HF2 2962   2.230   2.749   3.050
  110OcOH    CF 2963   2.293   2.717   2.967
  110OcOH   HG1 2964   2.399   2.540   2.907
  110OcOH   HG2 2965   2.431   2.587   3.072
  110OcOH    CG 2966   2.352   2.578   2.997
  110OcOH   HH1 2967   2.166   2.467   2.974
  110OcOH   HH2 2968   2.205   2.506   3.141
  110OcOH   HH3 2969   2.292   2.378   3.058
  110OcOH    CH 2970   2.247   2.477   3.045
  111OcOH    HO 2971   1.808   3.485   2.182
  111OcOH    OH 2972   1.729   3.484   2.236
  111OcOH   HA1 2973   1.823   3.363   2.373
  111OcOH   HA2 2974   1.834   3.535   2.404
  111OcOH    CA 2975   1.767   3.456   2.369
  111OcOH   HB1 2976   1.589   3.540   2.459
  111OcOH   HB2 2977   1.682   3.438   2.565
  111OcOH    CB 2978   1.646   3.447   2.462
  111OcOH   HC1 2979   1.512   3.338   2.331
  111OcOH   HC2 2980   1.613   3.235   2.429
  111OcOH    CC 2981   1.554   3.327   2.431
  111OcOH   HD1 2982   1.381   3.404   2.536
  111OcOH   HD2 2983   1.483   3.302   2.634
  111OcOH    CD 2984   1.440   3.312   2.534
  111OcOH   HE1 2985   1.304   3.204   2.407
  111OcOH   HE2 2986   1.407   3.101   2.503
  111OcOH    CE 2987   1.348   3.193   2.506
  111OcOH   HF1 2988   1.182   3.272   2.620
  111OcOH   HF2 2989   1.286   3.165   2.709
  111OcOH    CF 2990   1.238   3.179   2.613
  111OcOH   HG1 2991   1.195   2.972   2.564
  111OcOH   HG2 2992   1.087   3.042   2.681
  111OcOH    CG 2993   1.140   3.063   2.589
  111OcOH   HH1 2994   0.977   3.181   2.505
  111OcOH   HH2 2995   0.967   3.010   2.468
  111OcOH   HH3 2996   1.083   3.112   2.384
  111OcOH    CH 2997   1.036   3.093   2.480
  112OcOH    HO 2998   2.802   3.536   3.764
  112OcOH    OH 2999   2.756   3.599   3.708
  112OcOH   HA1 3000   2.637   3.455   3.625
  112OcOH   HA2 3001   2.581   3.521   3.778
  112OcOH    CA 3002   2.628   3.547   3.683
  112OcOH   HB1 3003   2.593   3.677   3.514
  112OcOH   HB2 3004   2.537   3.742   3.667
  112OcOH    CB 3005   2.543   3.651   3.608
  112OcOH   HC1 3006   2.408   3.507   3.520
  112OcOH   HC2 3007   2.353   3.573   3.672
  112OcOH    CC 3008   2.402   3.599   3.578
  112OcOH   HD1 3009   2.367   3.732   3.411
  112OcOH   HD2 3010   2.304   3.792   3.563
  112OcOH    CD 3011   2.315   3.702   3.502
  112OcOH   HE1 3012   2.189   3.555   3.406
  112OcOH   HE2 3013   2.126   3.614   3.558
  112OcOH    CE 3014   2.177   3.645   3.467
  112OcOH   HF1 3015   2.145   3.785   3.305
  112OcOH   HF2 3016   2.068   3.832   3.454
  112OcOH    CF 3017   2.089   3.746   3.390
  112OcOH   HG1 3018   1.906   3.761   3.278
  112OcOH   HG2 3019   1.980   3.603   3.269
  112OcOH    CG 3020   1.958   3.685   3.338
  112OcOH   HH1 3021   1.769   3.603   3.406
  112OcOH   HH2 3022   1.841   3.715   3.520
  112OcOH   HH3 3023   1.906   3.552   3.503
  112OcOH    CH 3024   1.863   3.636   3.448
  113OcOH    HO 3025   1.036   2.905   1.569
  113OcOH    OH 3026   1.116   2.874   1.528
  113OcOH   HA1 3027   1.306   2.820   1.583
  113OcOH   HA2 3028   1.237   2.955   1.672
  113OcOH    CA 3029   1.214   2.857   1.628
  113OcOH   HB1 3030   1.076   2.798   1.783
  113OcOH   HB2 3031   1.242   2.757   1.816
  113OcOH    CB 3032   1.167   2.760   1.737
  113OcOH   HC1 3033   1.060   2.623   1.612
  113OcOH   HC2 3034   1.228   2.581   1.630
  113OcOH    CC 3035   1.141   2.618   1.684
  113OcOH   HD1 3036   1.061   2.429   1.744
  113OcOH   HD2 3037   1.022   2.557   1.855
  113OcOH    CD 3038   1.102   2.517   1.793
  113OcOH   HE1 3039   1.300   2.434   1.816
  113OcOH   HE2 3040   1.262   2.558   1.934
  113OcOH    CE 3041   1.220   2.473   1.881
  113OcOH   HF1 3042   1.137   2.280   1.930
  113OcOH   HF2 3043   1.103   2.403   2.049
  113OcOH    CF 3044   1.181   2.365   1.983
  113OcOH   HG1 3045   1.377   2.276   2.000
  113OcOH   HG2 3046   1.345   2.401   2.118
  113OcOH    CG 3047   1.300   2.316   2.066
  113OcOH   HH1 3048   1.188   2.247   2.239
  113OcOH   HH2 3049   1.348   2.175   2.225
  113OcOH   HH3 3050   1.217   2.122   2.119
  113OcOH    CH 3051   1.261   2.209   2.168
  114OcOH    HO 3052   0.286   4.693   4.285
  114OcOH    OH 3053   0.220   4.725   4.222
  114OcOH   HA1 3054   0.358   4.740   4.071
  114OcOH   HA2 3055   0.285   4.582   4.091
  114OcOH    CA 3056   0.264   4.689   4.093
  114OcOH   HB1 3057   0.130   4.831   4.000
  114OcOH   HB2 3058   0.065   4.669   4.013
  114OcOH    CB 3059   0.156   4.725   3.990
  114OcOH   HC1 3060   0.292   4.751   3.827
  114OcOH   HC2 3061   0.225   4.591   3.835
  114OcOH    CC 3062   0.200   4.697   3.846
  114OcOH   HD1 3063   0.144   4.731   3.641
  114OcOH   HD2 3064   0.074   4.844   3.752
  114OcOH    CD 3065   0.098   4.739   3.739
  114OcOH   HE1 3066   5.053   4.665   3.833
  114OcOH   HE2 3067   5.036   4.704   3.665
  114OcOH    CE 3068   5.103   4.657   3.737
  114OcOH   HF1 3069   0.041   4.459   3.778
  114OcOH   HF2 3070   0.047   4.502   3.609
  114OcOH    CF 3071   5.123   4.510   3.699
  114OcOH   HG1 3072   4.924   4.454   3.762
  114OcOH   HG2 3073   4.939   4.481   3.590
  114OcOH    CG 3074   4.989   4.437   3.676
  114OcOH   HH1 3075   5.051   4.239   3.742
  114OcOH   HH2 3076   5.074   4.267   3.570
  114OcOH   HH3 3077   4.912   4.238   3.634
  114OcOH    CH 3078   5.008   4.287   3.654
  115OcOH    HO 3079   3.698   0.048   3.191
  115OcOH    OH 3080   3.701   5.091   3.168
  115OcOH   HA1 3081   3.863   5.077   3.293
  115OcOH   HA2 3082   3.836   4.937   3.191
  115OcOH    CA 3083   3.833   5.046   3.193
  115OcOH   HB1 3084   4.029   5.069   3.109
  115OcOH   HB2 3085   3.933   0.077   3.098
  115OcOH    CB 3086   3.929   5.105   3.088
  115OcOH   HC1 3087   3.867   4.963   2.937
  115OcOH   HC2 3088   3.800   5.123   2.916
  115OcOH    CC 3089   3.891   5.069   2.943
  115OcOH   HD1 3090   4.090   5.041   2.867
  115OcOH   HD2 3091   4.034   0.069   2.856
  115OcOH    CD 3092   4.003   5.102   2.843
  115OcOH   HE1 3093   3.920   4.978   2.687
  115OcOH   HE2 3094   3.883   0.011   2.670
  115OcOH    CE 3095   3.962   5.078   2.697
  115OcOH   HF1 3096   4.155   5.017   2.622
  115OcOH   HF2 3097   4.129   0.053   2.617
  115OcOH    CF 3098   4.080   5.094   2.600
  115OcOH   HG1 3099   3.985   4.989   2.437
  115OcOH   HG2 3100   3.967   0.027   2.430
  115OcOH    CG 3101   4.037   5.083   2.453
  115OcOH   HH1 3102   4.120   5.091   2.252
  115OcOH   HH2 3103   4.219   5.003   2.367
  115OcOH   HH3 3104   4.215   0.043   2.371
  115OcOH    CH 3105   4.155   5.090   2.355
  116OcOH    HO 3106   4.329   2.419   3.972
  116OcOH    OH 3107   4.307   2.422   4.066
  116OcOH   HA1 3108   4.265   2.621   4.038
  116OcOH   HA2 3109   4.272   2.567   4.205
  116OcOH    CA 3110   4.319   2.556   4.107
  116OcOH   HB1 3111   4.509   2.599   4.013
  116OcOH   HB2 3112   4.522   2.515   4.165
  116OcOH    CB 3113   4.467   2.594   4.114
  116OcOH   HC1 3114   4.447   2.808   4.133
  116OcOH   HC2 3115   4.438   2.720   4.284
  116OcOH    CC 3116   4.491   2.725   4.188
  116OcOH   HD1 3117   4.693   2.770   4.123
  116OcOH   HD2 3118   4.684   2.663   4.261
  116OcOH    CD 3119   4.639   2.752   4.217
  116OcOH   HE1 3120   4.619   2.962   4.268
  116OcOH   HE2 3121   4.595   2.853   4.401
  116OcOH    CE 3122   4.657   2.870   4.313
  116OcOH   HF1 3123   4.863   2.923   4.273
  116OcOH   HF2 3124   4.844   2.793   4.388
  116OcOH    CF 3125   4.802   2.889   4.357
  116OcOH   HG1 3126   4.777   3.087   4.444
  116OcOH   HG2 3127   4.749   2.955   4.556
  116OcOH    CG 3128   4.814   2.988   4.474
  116OcOH   HH1 3129   5.022   3.046   4.454
  116OcOH   HH2 3130   4.997   2.901   4.551
  116OcOH   HH3 3131   4.959   3.060   4.617
  116OcOH    CH 3132   4.957   3.000   4.527
  117OcOH    HO 3133   0.953   3.089   3.993
  117OcOH    OH 3134   0.925   3.112   3.903
  117OcOH   HA1 3135   0.771   2.979   3.935
  117OcOH   HA2 3136   0.728   3.148   3.948
  117OcOH    CA 3137   0.788   3.077   3.891
  117OcOH   HB1 3138   0.764   3.177   3.701
  117OcOH   HB2 3139   0.638   3.063   3.739
  117OcOH    CB 3140   0.746   3.079   3.743
  117OcOH   HC1 3141   0.924   2.995   3.660
  117OcOH   HC2 3142   0.807   2.874   3.706
  117OcOH    CC 3143   0.818   2.972   3.659
  117OcOH   HD1 3144   0.843   2.905   3.457
  117OcOH   HD2 3145   0.774   3.065   3.469
  117OcOH    CD 3146   0.771   2.965   3.513
  117OcOH   HE1 3147   0.629   2.805   3.543
  117OcOH   HE2 3148   0.557   2.964   3.549
  117OcOH    CE 3149   0.631   2.903   3.496
  117OcOH   HF1 3150   0.664   2.832   3.295
  117OcOH   HF2 3151   0.587   2.989   3.303
  117OcOH    CF 3152   0.589   2.890   3.349
  117OcOH   HG1 3153   0.454   2.724   3.377
  117OcOH   HG2 3154   0.377   2.880   3.389
  117OcOH    CG 3155   0.451   2.824   3.333
  117OcOH   HH1 3156   0.478   2.755   3.128
  117OcOH   HH2 3157   0.399   2.913   3.141
  117OcOH   HH3 3158   0.310   2.766   3.178
  117OcOH    CH 3159   0.407   2.814   3.186
  118OcOH    HO 3160   0.845   4.245   3.749
  118OcOH    OH 3161   0.853   4.253   3.844
  118OcOH   HA1 3162   0.841   4.050   3.821
  118OcOH   HA2 3163   0.916   4.103   3.970
  118OcOH    CA 3164   0.835   4.124   3.900
  118OcOH   HB1 3165   0.689   4.010   4.004
  118OcOH   HB2 3166   0.618   4.131   3.903
  118OcOH    CB 3167   0.700   4.113   3.972
  118OcOH   HC1 3168   0.785   4.220   4.139
  118OcOH   HC2 3169   0.655   4.305   4.062
  118OcOH    CC 3170   0.687   4.206   4.094
  118OcOH   HD1 3171   0.591   4.221   4.287
  118OcOH   HD2 3172   0.637   4.060   4.245
  118OcOH    CD 3173   0.593   4.151   4.204
  118OcOH   HE1 3174   0.449   4.044   4.082
  118OcOH   HE2 3175   0.397   4.076   4.245
  118OcOH    CE 3176   0.449   4.120   4.160
  118OcOH   HF1 3177   0.414   4.281   4.021
  118OcOH   HF2 3178   0.377   4.323   4.186
  118OcOH    CF 3179   0.370   4.243   4.112
  118OcOH   HG1 3180   0.215   4.130   4.012
  118OcOH   HG2 3181   0.177   4.170   4.178
  118OcOH    CG 3182   0.222   4.209   4.087
  118OcOH   HH1 3183   0.039   4.300   4.015
  118OcOH   HH2 3184   0.184   4.377   3.953
  118OcOH   HH3 3185   0.133   4.405   4.119
  118OcOH    CH 3186   0.140   4.330   4.041
  119OcOH    HO 3187   3.061   1.517   3.473
  119OcOH    OH 3188   3.133   1.464   3.508
  119OcOH   HA1 3189   3.278   1.606   3.537
  119OcOH   HA2 3190   3.140   1.615   3.646
  119OcOH    CA 3191   3.208   1.546   3.595
  119OcOH   HB1 3192   3.349   1.391   3.643
  119OcOH   HB2 3193   3.207   1.392   3.745
  119OcOH    CB 3194   3.280   1.457   3.696
  119OcOH   HC1 3195   3.437   1.592   3.755
  119OcOH   HC2 3196   3.292   1.606   3.852
  119OcOH    CC 3197   3.358   1.534   3.803
  119OcOH   HD1 3198   3.473   1.360   3.856
  119OcOH   HD2 3199   3.338   1.389   3.961
  119OcOH    CD 3200   3.418   1.439   3.908
  119OcOH   HE1 3201   3.570   1.429   4.059
  119OcOH   HE2 3202   3.585   1.569   3.955
  119OcOH    CE 3203   3.512   1.507   4.008
  119OcOH   HF1 3204   3.368   1.527   4.168
  119OcOH   HF2 3205   3.379   1.667   4.066
  119OcOH    CF 3206   3.438   1.590   4.114
  119OcOH   HG1 3207   3.588   1.577   4.269
  119OcOH   HG2 3208   3.611   1.712   4.161
  119OcOH    CG 3209   3.535   1.655   4.214
  119OcOH   HH1 3210   3.535   1.790   4.384
  119OcOH   HH2 3211   3.389   1.692   4.372
  119OcOH   HH3 3212   3.414   1.828   4.262
  119OcOH    CH 3213   3.464   1.746   4.314
  120OcOH    HO 3214   4.361   2.346   4.223
  120OcOH    OH 3215   4.397   2.315   4.307
  120OcOH   HA1 3216   4.483   2.153   4.216
  120OcOH   HA2 3217   4.582   2.297   4.217
  120OcOH    CA 3218   4.513   2.239   4.277
  120OcOH   HB1 3219   4.662   2.123   4.378
  120OcOH   HB2 3220   4.511   2.130   4.464
  120OcOH    CB 3221   4.581   2.189   4.406
  120OcOH   HC1 3222   4.706   2.363   4.436
  120OcOH   HC2 3223   4.558   2.368   4.526
  120OcOH    CC 3224   4.638   2.302   4.494
  120OcOH   HD1 3225   4.800   2.193   4.586
  120OcOH   HD2 3226   4.647   2.175   4.669
  120OcOH    CD 3227   4.711   2.247   4.618
  120OcOH   HE1 3228   4.802   2.437   4.664
  120OcOH   HE2 3229   4.659   2.403   4.758
  120OcOH    CE 3230   4.750   2.357   4.717
  120OcOH   HF1 3231   4.927   2.258   4.790
  120OcOH   HF2 3232   4.784   2.227   4.887
  120OcOH    CF 3233   4.838   2.305   4.832
  120OcOH   HG1 3234   4.930   2.496   4.873
  120OcOH   HG2 3235   4.791   2.462   4.973
  120OcOH    CG 3236   4.880   2.417   4.929
  120OcOH   HH1 3237   4.926   2.289   5.100
  120OcOH   HH2 3238   5.000   2.449   5.107
  120OcOH   HH3 3239   5.066   2.327   4.999
  120OcOH    CH 3240   4.973   2.367   5.040
  121OcOH    HO 3241   1.401   0.625   0.426
  121OcOH    OH 3242   1.435   0.587   0.508
  121OcOH   HA1 3243   1.498   0.404   0.575
  121OcOH   HA2 3244   1.374   0.400   0.450
  121OcOH    CA 3245   1.464   0.451   0.482
  121OcOH   HB1 3246   1.661   0.496   0.407
  121OcOH   HB2 3247   1.539   0.489   0.283
  121OcOH    CB 3248   1.573   0.441   0.374
  121OcOH   HC1 3249   1.648   0.248   0.437
  121OcOH   HC2 3250   1.522   0.240   0.317
  121OcOH    CC 3251   1.612   0.295   0.345
  121OcOH   HD1 3252   1.681   0.324   0.142
  121OcOH   HD2 3253   1.725   0.171   0.212
  121OcOH    CD 3254   1.716   0.277   0.234
  121OcOH   HE1 3255   1.853   0.439   0.277
  121OcOH   HE2 3256   1.883   0.294   0.369
  121OcOH    CE 3257   1.855   0.331   0.270
  121OcOH   HF1 3258   1.933   0.316   0.069
  121OcOH   HF2 3259   1.972   0.179   0.170
  121OcOH    CF 3260   1.964   0.288   0.170
  121OcOH   HG1 3261   2.093   0.458   0.193
  121OcOH   HG2 3262   2.128   0.329   0.305
  121OcOH    CG 3263   2.100   0.350   0.202
  121OcOH   HH1 3264   2.226   0.191   0.121
  121OcOH   HH2 3265   2.307   0.347   0.132
  121OcOH   HH3 3266   2.188   0.318   0.005
  121OcOH    CH 3267   2.212   0.299   0.109
  122OcOH    HO 3268   4.199   0.108   0.232
  122OcOH    OH 3269   4.121   0.125   0.178
  122OcOH   HA1 3270   4.006   0.199   0.331
  122OcOH   HA2 3271   4.124   0.311   0.264
  122OcOH    CA 3272   4.052   0.233   0.238
  122OcOH   HB1 3273   3.881   0.204   0.109
  122OcOH   HB2 3274   3.998   0.319   0.049
  122OcOH    CB 3275   3.948   0.285   0.140
  122OcOH   HC1 3276   3.805   0.363   0.282
  122OcOH   HC2 3277   3.930   0.476   0.238
  122OcOH    CC 3278   3.864   0.400   0.198
  122OcOH   HD1 3279   3.705   0.385   0.054
  122OcOH   HD2 3280   3.830   0.499   0.009
  122OcOH    CD 3281   3.771   0.463   0.094
  122OcOH   HE1 3282   3.626   0.543   0.233
  122OcOH   HE2 3283   3.753   0.655   0.190
  122OcOH    CE 3284   3.687   0.578   0.150
  122OcOH   HF1 3285   3.533   0.563   0.000
  122OcOH   HF2 3286   3.659   0.677   5.097
  122OcOH    CF 3287   3.597   0.641   0.042
  122OcOH   HG1 3288   3.446   0.718   0.176
  122OcOH   HG2 3289   3.572   0.833   0.136
  122OcOH    CG 3290   3.509   0.755   0.094
  122OcOH   HH1 3291   3.349   0.741   5.083
  122OcOH   HH2 3292   3.478   0.854   5.039
  122OcOH   HH3 3293   3.361   0.898   0.026
  122OcOH    CH 3294   3.419   0.815   5.123
  123OcOH    HO 3295   2.319   1.381   1.363
  123OcOH    OH 3296   2.342   1.338   1.280
  123OcOH   HA1 3297   2.536   1.355   1.343
  123OcOH   HA2 3298   2.464   1.196   1.361
  123OcOH    CA 3299   2.471   1.282   1.295
  123OcOH   HB1 3300   2.514   1.328   1.090
  123OcOH   HB2 3301   2.466   1.162   1.116
  123OcOH    CB 3302   2.525   1.243   1.158
  123OcOH   HC1 3303   2.732   1.282   1.202
  123OcOH   HC2 3304   2.685   1.115   1.226
  123OcOH    CC 3305   2.673   1.201   1.160
  123OcOH   HD1 3306   2.703   1.252   0.953
  123OcOH   HD2 3307   2.666   1.083   0.979
  123OcOH    CD 3308   2.723   1.167   1.019
  123OcOH   HE1 3309   2.930   1.215   1.058
  123OcOH   HE2 3310   2.893   1.046   1.075
  123OcOH    CE 3311   2.873   1.134   1.014
  123OcOH   HF1 3312   2.895   1.197   0.809
  123OcOH   HF2 3313   2.868   1.025   0.827
  123OcOH    CF 3314   2.921   1.110   0.870
  123OcOH   HG1 3315   3.124   1.171   0.907
  123OcOH   HG2 3316   3.099   0.998   0.921
  123OcOH    CG 3317   3.072   1.086   0.862
  123OcOH   HH1 3318   3.076   0.982   0.671
  123OcOH   HH2 3319   3.230   1.052   0.716
  123OcOH   HH3 3320   3.101   1.156   0.657
  123OcOH    CH 3321   3.122   1.068   0.718
  124OcOH    HO 3322   1.108   4.421   4.142
  124OcOH    OH 3323   1.136   4.452   4.230
  124OcOH   HA1 3324   1.177   4.255   4.268
  124OcOH   HA2 3325   1.317   4.355   4.231
  124OcOH    CA 3326   1.222   4.354   4.284
  124OcOH   HB1 3327   1.300   4.296   4.476
  124OcOH   HB2 3328   1.145   4.375   4.485
  124OcOH    CB 3329   1.242   4.378   4.434
  124OcOH   HC1 3330   1.409   4.514   4.418
  124OcOH   HC2 3331   1.254   4.593   4.422
  124OcOH    CC 3332   1.312   4.512   4.466
  124OcOH   HD1 3333   1.378   4.452   4.662
  124OcOH   HD2 3334   1.229   4.540   4.664
  124OcOH    CD 3335   1.327   4.537   4.617
  124OcOH   HE1 3336   1.419   4.668   4.758
  124OcOH   HE2 3337   1.505   4.658   4.607
  124OcOH    CE 3338   1.405   4.664   4.650
  124OcOH   HF1 3339   1.234   4.793   4.643
  124OcOH   HF2 3340   1.328   4.797   4.496
  124OcOH    CF 3341   1.336   4.794   4.605
  124OcOH   HG1 3342   1.341   5.007   4.633
  124OcOH   HG2 3343   1.417   4.919   4.762
  124OcOH    CG 3344   1.406   4.922   4.654
  124OcOH   HH1 3345   1.613   4.867   4.609
  124OcOH   HH2 3346   1.586   5.040   4.623
  124OcOH   HH3 3347   1.532   4.954   4.479
  124OcOH    CH 3348   1.542   4.947   4.587
  125OcOH    HO 3349   1.267   2.358   1.485
  125OcOH    OH 3350   1.287   2.296   1.556
  125OcOH   HA1 3351   1.394   2.178   1.427
  125OcOH   HA2 3352   1.483   2.309   1.502
  125OcOH    CA 3353   1.408   2.232   1.521
  125OcOH   HB1 3354   1.378   2.059   1.646
  125OcOH   HB2 3355   1.457   2.192   1.727
  125OcOH    CB 3356   1.452   2.138   1.633
  125OcOH   HC1 3357   1.585   2.023   1.506
  125OcOH   HC2 3358   1.662   2.156   1.589
  125OcOH    CC 3359   1.589   2.076   1.602
  125OcOH   HD1 3360   1.571   1.896   1.720
  125OcOH   HD2 3361   1.643   2.030   1.806
  125OcOH    CD 3362   1.641   1.979   1.709
  125OcOH   HE1 3363   1.778   1.877   1.577
  125OcOH   HE2 3364   1.849   2.012   1.663
  125OcOH    CE 3365   1.781   1.927   1.674
  125OcOH   HF1 3366   1.773   1.744   1.788
  125OcOH   HF2 3367   1.838   1.880   1.877
  125OcOH    CF 3368   1.838   1.831   1.779
  125OcOH   HG1 3369   1.979   1.734   1.648
  125OcOH   HG2 3370   2.044   1.873   1.731
  125OcOH    CG 3371   1.980   1.786   1.744
  125OcOH   HH1 3372   2.049   1.746   1.946
  125OcOH   HH2 3373   2.141   1.662   1.822
  125OcOH   HH3 3374   1.980   1.605   1.866
  125OcOH    CH 3375   2.041   1.695   1.851
  126OcOH    HO 3376   0.341   4.670   2.846
  126OcOH    OH 3377   0.357   4.765   2.851
  126OcOH   HA1 3378   0.161   4.801   2.898
  126OcOH   HA2 3379   0.266   4.771   3.035
  126OcOH    CA 3380   0.260   4.820   2.938
  126OcOH   HB1 3381   0.204   5.013   3.015
  126OcOH   HB2 3382   0.274   5.019   2.855
  126OcOH    CB 3383   0.283   4.972   2.953
  126OcOH   HC1 3384   0.429   4.956   3.112
  126OcOH   HC2 3385   0.498   4.964   2.952
  126OcOH    CC 3386   0.420   5.006   3.015
  126OcOH   HD1 3387   0.363   0.061   3.097
  126OcOH   HD2 3388   0.431   0.071   2.936
  126OcOH    CD 3389   0.442   0.021   3.033
  126OcOH   HE1 3390   0.578   0.163   3.119
  126OcOH   HE2 3391   0.591   0.004   3.189
  126OcOH    CE 3392   0.578   0.057   3.094
  126OcOH   HF1 3393   0.681   0.077   2.905
  126OcOH   HF2 3394   0.700   5.057   2.979
  126OcOH    CF 3395   0.697   0.027   3.001
  126OcOH   HG1 3396   0.834   0.177   3.073
  126OcOH   HG2 3397   0.846   0.025   3.158
  126OcOH    CG 3398   0.832   0.069   3.059
  126OcOH   HH1 3399   1.044   0.063   3.008
  126OcOH   HH2 3400   0.938   0.066   2.868
  126OcOH   HH3 3401   0.955   5.055   2.961
  126OcOH    CH 3402   0.949   0.027   2.969
  127OcOH    HO 3403   1.591   3.181   0.927
  127OcOH    OH 3404   1.678   3.181   0.886
  127OcOH   HA1 3405   1.787   3.174   1.061
  127OcOH   HA2 3406   1.868   3.242   0.922
  127OcOH    CA 3407   1.772   3.238   0.974
  127OcOH   HB1 3408   1.691   3.435   0.931
  127OcOH   HB2 3409   1.822   3.435   1.046
  127OcOH    CB 3410   1.732   3.380   1.016
  127OcOH   HC1 3411   1.546   3.322   1.113
  127OcOH   HC2 3412   1.682   3.336   1.220
  127OcOH    CC 3413   1.634   3.383   1.135
  127OcOH   HD1 3414   1.676   3.592   1.174
  127OcOH   HD2 3415   1.554   3.523   1.277
  127OcOH    CD 3416   1.590   3.525   1.174
  127OcOH   HE1 3417   1.515   3.589   0.982
  127OcOH   HE2 3418   1.396   3.511   1.083
  127OcOH    CE 3419   1.479   3.581   1.084
  127OcOH   HF1 3420   1.511   3.791   1.129
  127OcOH   HF2 3421   1.399   3.711   1.237
  127OcOH    CF 3422   1.429   3.719   1.132
  127OcOH   HG1 3423   1.341   3.782   0.945
  127OcOH   HG2 3424   1.231   3.696   1.050
  127OcOH    CG 3425   1.311   3.770   1.049
  127OcOH   HH1 3426   1.169   3.935   1.044
  127OcOH   HH2 3427   1.331   3.982   1.096
  127OcOH   HH3 3428   1.225   3.894   1.206
  127OcOH    CH 3429   1.256   3.903   1.102
  128OcOH    HO 3430   2.589   3.287   3.886
  128OcOH    OH 3431   2.642   3.239   3.821
  128OcOH   HA1 3432   2.481   3.197   3.701
  128OcOH   HA2 3433   2.614   3.083   3.692
  128OcOH    CA 3434   2.556   3.145   3.760
  128OcOH   HB1 3435   2.433   3.124   3.936
  128OcOH   HB2 3436   2.566   3.012   3.930
  128OcOH    CB 3437   2.490   3.059   3.869
  128OcOH   HC1 3438   2.313   2.999   3.759
  128OcOH   HC2 3439   2.451   2.896   3.734
  128OcOH    CC 3440   2.397   2.952   3.810
  128OcOH   HD1 3441   2.428   2.800   3.961
  128OcOH   HD2 3442   2.287   2.775   3.861
  128OcOH    CD 3443   2.344   2.851   3.914
  128OcOH   HE1 3444   2.313   2.986   4.080
  128OcOH   HE2 3445   2.174   2.972   3.977
  128OcOH    CE 3446   2.254   2.915   4.023
  128OcOH   HF1 3447   2.161   2.864   4.210
  128OcOH   HF2 3448   2.274   2.744   4.154
  128OcOH    CF 3449   2.195   2.812   4.121
  128OcOH   HG1 3450   1.998   2.798   4.033
  128OcOH   HG2 3451   2.110   2.678   3.973
  128OcOH    CG 3452   2.078   2.731   4.063
  128OcOH   HH1 3453   2.098   2.553   4.188
  128OcOH   HH2 3454   1.937   2.575   4.121
  128OcOH   HH3 3455   1.991   2.675   4.255
  128OcOH    CH 3456   2.023   2.628   4.163
  129OcOH    HO 3457   0.191   0.414   3.909
  129OcOH    OH 3458   0.113   0.464   3.881
  129OcOH   HA1 3459   0.196   0.486   3.696
  129OcOH   HA2 3460   0.068   0.600   3.735
  129OcOH    CA 3461   0.154   0.548   3.775
  129OcOH   HB1 3462   0.333   0.594   3.887
  129OcOH   HB2 3463   0.210   0.717   3.897
  129OcOH    CB 3464   0.258   0.648   3.828
  129OcOH   HC1 3465   0.370   0.655   3.644
  129OcOH   HC2 3466   0.258   0.787   3.663
  129OcOH    CC 3467   0.330   0.725   3.717
  129OcOH   HD1 3468   0.516   0.749   3.821
  129OcOH   HD2 3469   0.405   0.880   3.848
  129OcOH    CD 3470   0.443   0.813   3.771
  129OcOH   HE1 3471   0.553   0.826   3.586
  129OcOH   HE2 3472   0.440   0.958   3.611
  129OcOH    CE 3473   0.513   0.894   3.662
  129OcOH   HF1 3474   0.697   0.919   3.773
  129OcOH   HF2 3475   0.587   1.053   3.789
  129OcOH    CF 3476   0.627   0.981   3.717
  129OcOH   HG1 3477   0.739   0.984   3.533
  129OcOH   HG2 3478   0.635   1.123   3.553
  129OcOH    CG 3479   0.703   1.056   3.606
  129OcOH   HH1 3480   0.790   1.212   3.732
  129OcOH   HH2 3481   0.892   1.070   3.712
  129OcOH   HH3 3482   0.876   1.185   3.580
  129OcOH    CH 3483   0.822   1.135   3.661
  130OcOH    HO 3484   2.145   1.214   3.051
  130OcOH    OH 3485   2.158   1.130   3.006
  130OcOH   HA1 3486   1.997   1.059   3.110
  130OcOH   HA2 3487   2.092   0.938   3.027
  130OcOH    CA 3488   2.099   1.029   3.085
  130OcOH   HB1 3489   2.177   1.094   3.276
  130OcOH   HB2 3490   2.285   0.990   3.186
  130OcOH    CB 3491   2.181   1.005   3.212
  130OcOH   HC1 3492   2.022   0.893   3.306
  130OcOH   HC2 3493   2.142   0.794   3.227
  130OcOH    CC 3494   2.129   0.883   3.289
  130OcOH   HD1 3495   2.177   0.945   3.490
  130OcOH   HD2 3496   2.308   0.861   3.409
  130OcOH    CD 3497   2.200   0.861   3.424
  130OcOH   HE1 3498   2.049   0.726   3.496
  130OcOH   HE2 3499   2.188   0.647   3.427
  130OcOH    CE 3500   2.157   0.730   3.490
  130OcOH   HF1 3501   2.189   0.796   3.693
  130OcOH   HF2 3502   2.325   0.710   3.625
  130OcOH    CF 3503   2.216   0.711   3.631
  130OcOH   HG1 3504   2.058   0.581   3.699
  130OcOH   HG2 3505   2.197   0.495   3.637
  130OcOH    CG 3506   2.167   0.582   3.697
  130OcOH   HH1 3507   2.181   0.473   3.885
  130OcOH   HH2 3508   2.191   0.648   3.903
  130OcOH   HH3 3509   2.329   0.558   3.841
  130OcOH    CH 3510   2.220   0.564   3.840
  131OcOH    HO 3511   2.989   1.596   3.170
  131OcOH    OH 3512   2.914   1.538   3.189
  131OcOH   HA1 3513   3.030   1.383   3.257
  131OcOH   HA2 3514   2.871   1.339   3.198
  131OcOH    CA 3515   2.956   1.404   3.179
  131OcOH   HB1 3516   3.109   1.433   3.031
  131OcOH   HB2 3517   2.949   1.413   2.963
  131OcOH    CB 3518   3.016   1.377   3.041
  131OcOH   HC1 3519   3.094   1.187   3.107
  131OcOH   HC2 3520   2.947   1.175   3.013
  131OcOH    CC 3521   3.043   1.227   3.019
  131OcOH   HD1 3522   3.221   1.249   2.900
  131OcOH   HD2 3523   3.073   1.239   2.806
  131OcOH    CD 3524   3.125   1.198   2.893
  131OcOH   HE1 3525   3.190   1.005   2.965
  131OcOH   HE2 3526   3.053   0.996   2.858
  131OcOH    CE 3527   3.148   1.047   2.873
  131OcOH   HF1 3528   3.272   0.909   2.762
  131OcOH   HF2 3529   3.340   1.068   2.776
  131OcOH    CF 3530   3.246   1.015   2.759
  131OcOH   HG1 3531   3.167   1.155   2.612
  131OcOH   HG2 3532   3.276   1.037   2.547
  131OcOH    CG 3533   3.194   1.049   2.618
  131OcOH   HH1 3534   2.990   0.975   2.637
  131OcOH   HH2 3535   3.103   0.856   2.573
  131OcOH   HH3 3536   3.045   0.989   2.471
  131OcOH    CH 3537   3.076   0.962   2.572
  132OcOH    HO 3538   2.517   0.031   2.181
  132OcOH    OH 3539   2.451   5.107   2.215
  132OcOH   HA1 3540   2.352   5.110   2.034
  132OcOH   HA2 3541   2.475   4.987   2.051
  132OcOH    CA 3542   2.395   5.039   2.104
  132OcOH   HB1 3543   2.333   4.870   2.223
  132OcOH   HB2 3544   2.264   4.875   2.063
  132OcOH    CB 3545   2.290   4.937   2.149
  132OcOH   HC1 3546   2.185   5.067   2.288
  132OcOH   HC2 3547   2.116   5.065   2.128
  132OcOH    CC 3548   2.161   5.001   2.204
  132OcOH   HD1 3549   2.105   4.831   2.325
  132OcOH   HD2 3550   2.036   4.830   2.165
  132OcOH    CD 3551   2.060   4.895   2.249
  132OcOH   HE1 3552   1.951   5.013   2.395
  132OcOH   HE2 3553   1.886   5.024   2.233
  132OcOH    CE 3554   1.929   4.954   2.305
  132OcOH   HF1 3555   1.872   4.776   2.412
  132OcOH   HF2 3556   1.809   4.785   2.249
  132OcOH    CF 3557   1.828   4.844   2.339
  132OcOH   HG1 3558   1.712   4.958   2.482
  132OcOH   HG2 3559   1.648   4.963   2.319
  132OcOH    CG 3560   1.695   4.897   2.393
  132OcOH   HH1 3561   1.507   4.821   2.473
  132OcOH   HH2 3562   1.643   4.713   2.499
  132OcOH   HH3 3563   1.570   4.726   2.339
  132OcOH    CH 3564   1.598   4.783   2.428
  133OcOH    HO 3565   3.817   0.407   3.738
  133OcOH    OH 3566   3.743   0.465   3.752
  133OcOH   HA1 3567   3.691   0.341   3.907
  133OcOH   HA2 3568   3.570   0.461   3.863
  133OcOH    CA 3569   3.644   0.392   3.822
  133OcOH   HB1 3570   3.654   0.228   3.683
  133OcOH   HB2 3571   3.527   0.341   3.647
  133OcOH    CB 3572   3.577   0.290   3.729
  133OcOH   HC1 3573   3.460   0.109   3.740
  133OcOH   HC2 3574   3.527   0.159   3.893
  133OcOH    CC 3575   3.479   0.197   3.802
  133OcOH   HD1 3576   3.289   0.281   3.746
  133OcOH   HD2 3577   3.361   0.359   3.885
  133OcOH    CD 3578   3.344   0.262   3.838
  133OcOH   HE1 3579   3.245   0.076   3.889
  133OcOH   HE2 3580   3.318   0.158   4.024
  133OcOH    CE 3581   3.261   0.174   3.933
  133OcOH   HF1 3582   3.139   0.339   4.004
  133OcOH   HF2 3583   3.085   0.182   4.056
  133OcOH    CF 3584   3.125   0.236   3.970
  133OcOH   HG1 3585   3.054   0.293   3.773
  133OcOH   HG2 3586   3.014   0.129   3.819
  133OcOH    CG 3587   3.021   0.231   3.857
  133OcOH   HH1 3588   2.884   0.380   3.937
  133OcOH   HH2 3589   2.844   0.215   3.983
  133OcOH   HH3 3590   2.811   0.271   3.820
  133OcOH    CH 3591   2.882   0.277   3.902
  134OcOH    HO 3592   3.366   0.010   0.053
  134OcOH    OH 3593   3.345   5.062   0.012
  134OcOH   HA1 3594   3.230   5.010   0.173
  134OcOH   HA2 3595   3.142   5.081   0.038
  134OcOH    CA 3596   3.223   5.013   0.064
  134OcOH   HB1 3597   3.108   4.831   0.055
  134OcOH   HB2 3598   3.280   4.807   0.037
  134OcOH    CB 3599   3.197   4.872   0.008
  134OcOH   HC1 3600   3.096   4.930   4.962
  134OcOH   HC2 3601   3.269   4.916   4.946
  134OcOH    CC 3602   3.181   4.869   4.991
  134OcOH   HD1 3603   3.074   4.682   4.970
  134OcOH   HD2 3604   3.248   4.665   4.973
  134OcOH    CD 3605   3.167   4.727   4.935
  134OcOH   HE1 3606   3.088   4.784   4.742
  134OcOH   HE2 3607   3.262   4.776   4.748
  134OcOH    CE 3608   3.171   4.726   4.781
  134OcOH   HF1 3609   3.076   4.534   4.748
  134OcOH   HF2 3610   3.248   4.525   4.768
  134OcOH    CF 3611   3.169   4.584   4.722
  134OcOH   HG1 3612   3.282   4.630   4.543
  134OcOH   HG2 3613   3.200   4.477   4.538
  134OcOH    CG 3614   3.188   4.581   4.569
  134OcOH   HH1 3615   3.062   4.750   4.512
  134OcOH   HH2 3616   2.978   4.595   4.514
  134OcOH   HH3 3617   3.090   4.634   4.383
  134OcOH    CH 3618   3.073   4.644   4.490
  135OcOH    HO 3619   4.511   4.296   4.049
  135OcOH    OH 3620   4.548   4.207   4.060
  135OcOH   HA1 3621   4.700   4.092   3.985
  135OcOH   HA2 3622   4.617   4.194   3.869
  135OcOH    CA 3623   4.656   4.191   3.971
  135OcOH   HB1 3624   4.710   4.399   3.987
  135OcOH   HB2 3625   4.833   4.299   3.914
  135OcOH    CB 3626   4.759   4.302   3.994
  135OcOH   HC1 3627   4.758   4.266   4.207
  135OcOH   HC2 3628   4.897   4.200   4.124
  135OcOH    CC 3629   4.831   4.287   4.129
  135OcOH   HD1 3630   4.845   4.498   4.173
  135OcOH   HD2 3631   4.986   4.434   4.092
  135OcOH    CD 3632   4.912   4.412   4.168
  135OcOH   HE1 3633   4.906   4.360   4.378
  135OcOH   HE2 3634   5.054   4.313   4.298
  135OcOH    CE 3635   4.980   4.393   4.305
  135OcOH   HF1 3636   4.973   4.601   4.361
  135OcOH   HF2 3637   5.124   4.554   4.286
  135OcOH    CF 3638   5.047   4.521   4.356
  135OcOH   HG1 3639   5.034   4.464   4.564
  135OcOH   HG2 3640   0.051   4.424   4.489
  135OcOH    CG 3641   5.110   4.501   4.495
  135OcOH   HH1 3642   5.092   4.706   4.564
  135OcOH   HH2 3643   0.109   4.671   4.484
  135OcOH   HH3 3644   0.079   4.613   4.648
  135OcOH    CH 3645   0.033   4.630   4.551
  136OcOH    HO 3646   3.554   0.839   3.629
  136OcOH    OH 3647   3.535   0.929   3.656
  136OcOH   HA1 3648   3.735   0.975   3.652
  136OcOH   HA2 3649   3.648   1.009   3.504
  136OcOH    CA 3650   3.640   1.012   3.612
  136OcOH   HB1 3651   3.602   1.157   3.767
  136OcOH   HB2 3652   3.523   1.193   3.616
  136OcOH    CB 3653   3.616   1.156   3.659
  136OcOH   HC1 3654   3.824   1.210   3.662
  136OcOH   HC2 3655   3.743   1.253   3.513
  136OcOH    CC 3656   3.731   1.251   3.622
  136OcOH   HD1 3657   3.694   1.390   3.782
  136OcOH   HD2 3658   3.620   1.436   3.631
  136OcOH    CD 3659   3.711   1.393   3.674
  136OcOH   HE1 3660   3.921   1.440   3.686
  136OcOH   HE2 3661   3.846   1.494   3.538
  136OcOH    CE 3662   3.830   1.485   3.645
  136OcOH   HF1 3663   3.790   1.616   3.813
  136OcOH   HF2 3664   3.727   1.675   3.661
  136OcOH    CF 3665   3.813   1.626   3.706
  136OcOH   HG1 3666   4.024   1.663   3.733
  136OcOH   HG2 3667   3.960   1.726   3.583
  136OcOH    CG 3668   3.938   1.713   3.690
  136OcOH   HH1 3669   4.013   1.910   3.744
  136OcOH   HH2 3670   3.902   1.842   3.862
  136OcOH   HH3 3671   3.840   1.907   3.710
  136OcOH    CH 3672   3.922   1.851   3.755
  137OcOH    HO 3673   1.914   4.448   0.426
  137OcOH    OH 3674   1.857   4.371   0.427
  137OcOH   HA1 3675   1.681   4.316   0.514
  137OcOH   HA2 3676   1.778   4.432   0.605
  137OcOH    CA 3677   1.744   4.404   0.505
  137OcOH   HB1 3678   1.636   4.489   0.339
  137OcOH   HB2 3679   1.733   4.604   0.427
  137OcOH    CB 3680   1.667   4.519   0.439
  137OcOH   HC1 3681   1.478   4.476   0.535
  137OcOH   HC2 3682   1.577   4.591   0.622
  137OcOH    CC 3683   1.545   4.561   0.522
  137OcOH   HD1 3684   1.428   4.645   0.360
  137OcOH   HD2 3685   1.536   4.759   0.436
  137OcOH    CD 3686   1.467   4.677   0.457
  137OcOH   HE1 3687   1.283   4.647   0.566
  137OcOH   HE2 3688   1.394   4.758   0.641
  137OcOH    CE 3689   1.353   4.728   0.545
  137OcOH   HF1 3690   1.228   4.815   0.392
  137OcOH   HF2 3691   1.350   4.923   0.455
  137OcOH    CF 3692   1.278   4.847   0.484
  137OcOH   HG1 3693   1.108   4.832   0.619
  137OcOH   HG2 3694   1.229   4.946   0.669
  137OcOH    CG 3695   1.177   4.908   0.582
  137OcOH   HH1 3696   1.160   5.100   0.479
  137OcOH   HH2 3697   1.030   5.068   0.592
  137OcOH   HH3 3698   1.033   4.985   0.437
  137OcOH    CH 3699   1.096   5.022   0.518
  138OcOH    HO 3700   1.494   2.731   4.253
  138OcOH    OH 3701   1.578   2.687   4.240
  138OcOH   HA1 3702   1.765   2.746   4.179
  138OcOH   HA2 3703   1.640   2.869   4.169
  138OcOH    CA 3704   1.678   2.787   4.230
  138OcOH   HB1 3705   1.757   2.752   4.428
  138OcOH   HB2 3706   1.626   2.867   4.424
  138OcOH    CB 3707   1.716   2.835   4.371
  138OcOH   HC1 3708   1.907   2.917   4.314
  138OcOH   HC2 3709   1.776   3.033   4.309
  138OcOH    CC 3710   1.817   2.950   4.367
  138OcOH   HD1 3711   1.904   2.922   4.564
  138OcOH   HD2 3712   1.764   3.024   4.562
  138OcOH    CD 3713   1.855   3.001   4.508
  138OcOH   HE1 3714   1.897   3.204   4.445
  138OcOH   HE2 3715   1.948   3.168   4.607
  138OcOH    CE 3716   1.944   3.127   4.506
  138OcOH   HF1 3717   2.086   3.056   4.358
  138OcOH   HF2 3718   2.136   3.030   4.524
  138OcOH    CF 3719   2.088   3.101   4.457
  138OcOH   HG1 3720   2.124   3.301   4.382
  138OcOH   HG2 3721   2.171   3.279   4.549
  138OcOH    CG 3722   2.171   3.230   4.451
  138OcOH   HH1 3723   2.367   3.139   4.475
  138OcOH   HH2 3724   2.372   3.298   4.403
  138OcOH   HH3 3725   2.319   3.160   4.307
  138OcOH    CH 3726   2.316   3.205   4.406
  139OcOH    HO 3727   3.453   0.275   1.922
  139OcOH    OH 3728   3.487   0.202   1.974
  139OcOH   HA1 3729   3.679   0.154   2.032
  139OcOH   HA2 3730   3.661   0.304   1.943
  139OcOH    CA 3731   3.615   0.242   2.020
  139OcOH   HB1 3732   3.528   0.397   2.144
  139OcOH   HB2 3733   3.698   0.372   2.169
  139OcOH    CB 3734   3.604   0.320   2.152
  139OcOH   HC1 3735   3.480   0.178   2.258
  139OcOH   HC2 3736   3.651   0.151   2.277
  139OcOH    CC 3737   3.575   0.229   2.272
  139OcOH   HD1 3738   3.493   0.380   2.404
  139OcOH   HD2 3739   3.667   0.362   2.416
  139OcOH    CD 3740   3.574   0.306   2.405
  139OcOH   HE1 3741   3.465   0.156   2.516
  139OcOH   HE2 3742   3.639   0.140   2.526
  139OcOH    CE 3743   3.558   0.213   2.526
  139OcOH   HF1 3744   3.474   0.358   2.663
  139OcOH   HF2 3745   3.648   0.348   2.669
  139OcOH    CF 3746   3.558   0.288   2.660
  139OcOH   HG1 3747   3.459   0.131   2.771
  139OcOH   HG2 3748   3.633   0.124   2.778
  139OcOH    CG 3749   3.548   0.192   2.780
  139OcOH   HH1 3750   3.457   0.329   2.924
  139OcOH   HH2 3751   3.634   0.327   2.929
  139OcOH   HH3 3752   3.543   0.194   2.997
  139OcOH    CH 3753   3.545   0.265   2.915
  140OcOH    HO 3754   2.046   2.978   1.459
  140OcOH    OH 3755   1.961   2.982   1.505
  140OcOH   HA1 3756   1.864   2.870   1.647
  140OcOH   HA2 3757   2.003   2.792   1.571
  140OcOH    CA 3758   1.965   2.887   1.610
  140OcOH   HB1 3759   2.018   3.036   1.756
  140OcOH   HB2 3760   2.156   2.958   1.683
  140OcOH    CB 3761   2.056   2.939   1.722
  140OcOH   HC1 3762   2.103   2.747   1.809
  140OcOH   HC2 3763   1.964   2.825   1.880
  140OcOH    CC 3764   2.064   2.843   1.841
  140OcOH   HD1 3765   2.118   2.999   1.980
  140OcOH   HD2 3766   2.255   2.910   1.917
  140OcOH    CD 3767   2.153   2.899   1.954
  140OcOH   HE1 3768   2.050   2.792   2.109
  140OcOH   HE2 3769   2.196   2.713   2.058
  140OcOH    CE 3770   2.153   2.811   2.080
  140OcOH   HF1 3771   2.195   2.826   2.290
  140OcOH   HF2 3772   2.194   2.980   2.209
  140OcOH    CF 3773   2.226   2.876   2.198
  140OcOH   HG1 3774   2.410   2.765   2.190
  140OcOH   HG2 3775   2.413   2.911   2.094
  140OcOH    CG 3776   2.379   2.869   2.189
  140OcOH   HH1 3777   2.556   2.932   2.297
  140OcOH   HH2 3778   2.418   2.902   2.401
  140OcOH   HH3 3779   2.424   3.049   2.304
  140OcOH    CH 3780   2.448   2.942   2.304
  141OcOH    HO 3781   4.034   2.676   2.405
  141OcOH    OH 3782   3.999   2.728   2.332
  141OcOH   HA1 3783   4.057   2.909   2.411
  141OcOH   HA2 3784   4.183   2.815   2.331
  141OcOH    CA 3785   4.078   2.845   2.325
  141OcOH   HB1 3786   3.949   2.952   2.188
  141OcOH   HB2 3787   4.069   2.851   2.110
  141OcOH    CB 3788   4.053   2.920   2.193
  141OcOH   HC1 3789   4.121   3.116   2.254
  141OcOH   HC2 3790   4.248   3.010   2.199
  141OcOH    CC 3791   4.146   3.041   2.178
  141OcOH   HD1 3792   4.041   3.145   2.020
  141OcOH   HD2 3793   4.157   3.028   1.963
  141OcOH    CD 3794   4.140   3.105   2.039
  141OcOH   HE1 3795   4.229   3.293   2.095
  141OcOH   HE2 3796   4.344   3.174   2.041
  141OcOH    CE 3797   4.245   3.215   2.021
  141OcOH   HF1 3798   4.148   3.326   1.863
  141OcOH   HF2 3799   4.251   3.198   1.806
  141OcOH    CF 3800   4.244   3.277   1.880
  141OcOH   HG1 3801   4.354   3.455   1.937
  141OcOH   HG2 3802   4.454   3.327   1.873
  141OcOH    CG 3803   4.358   3.378   1.860
  141OcOH   HH1 3804   4.363   3.370   1.642
  141OcOH   HH2 3805   4.440   3.513   1.711
  141OcOH   HH3 3806   4.264   3.501   1.707
  141OcOH    CH 3807   4.356   3.444   1.722
  142OcOH    HO 3808   3.324   4.405   3.093
  142OcOH    OH 3809   3.386   4.425   3.164
  142OcOH   HA1 3810   3.444   4.587   3.053
  142OcOH   HA2 3811   3.550   4.546   3.186
  142OcOH    CA 3812   3.489   4.503   3.107
  142OcOH   HB1 3813   3.508   4.364   2.944
  142OcOH   HB2 3814   3.623   4.338   3.073
  142OcOH    CB 3815   3.574   4.416   3.014
  142OcOH   HC1 3816   3.726   4.423   2.864
  142OcOH   HC2 3817   3.629   4.567   2.870
  142OcOH    CC 3818   3.679   4.493   2.933
  142OcOH   HD1 3819   3.743   4.643   3.076
  142OcOH   HD2 3820   3.828   4.491   3.090
  142OcOH    CD 3821   3.787   4.562   3.018
  142OcOH   HE1 3822   3.948   4.533   2.879
  142OcOH   HE2 3823   3.860   4.682   2.854
  142OcOH    CE 3824   3.901   4.617   2.931
  142OcOH   HF1 3825   4.044   4.632   3.093
  142OcOH   HF2 3826   3.963   4.782   3.056
  142OcOH    CF 3827   4.008   4.694   3.010
  142OcOH   HG1 3828   4.169   4.646   2.875
  142OcOH   HG2 3829   4.092   4.798   2.841
  142OcOH    CG 3830   4.127   4.735   2.922
  142OcOH   HH1 3831   4.319   4.835   2.935
  142OcOH   HH2 3832   4.277   4.745   3.080
  142OcOH   HH3 3833   4.199   4.899   3.045
  142OcOH    CH 3834   4.237   4.808   3.000
  143OcOH    HO 3835   4.611   0.422   0.045
  143OcOH    OH 3836   4.669   0.484   0.003
  143OcOH   HA1 3837   4.522   0.549   5.012
  143OcOH   HA2 3838   4.530   0.633   0.030
  143OcOH    CA 3839   4.591   0.590   5.087
  143OcOH   HB1 3840   4.743   0.652   4.946
  143OcOH   HB2 3841   4.751   0.734   5.100
  143OcOH    CB 3842   4.682   0.697   5.025
  143OcOH   HC1 3843   4.537   0.780   4.887
  143OcOH   HC2 3844   4.539   0.858   5.043
  143OcOH    CC 3845   4.603   0.816   4.966
  143OcOH   HD1 3846   4.759   0.884   4.833
  143OcOH   HD2 3847   4.762   0.960   4.990
  143OcOH    CD 3848   4.695   0.926   4.911
  143OcOH   HE1 3849   4.546   1.008   4.779
  143OcOH   HE2 3850   4.555   1.091   4.933
  143OcOH    CE 3851   4.616   1.046   4.854
  143OcOH   HF1 3852   4.639   1.222   4.734
  143OcOH   HF2 3853   4.769   1.107   4.713
  143OcOH    CF 3854   4.704   1.153   4.788
  143OcOH   HG1 3855   4.723   1.280   4.963
  143OcOH   HG2 3856   4.857   1.169   4.941
  143OcOH    CG 3857   4.789   1.235   4.888
  143OcOH   HH1 3858   4.940   1.304   4.747
  143OcOH   HH2 3859   4.928   1.402   4.892
  143OcOH   HH3 3860   4.805   1.416   4.767
  143OcOH    CH 3861   4.870   1.345   4.819
  144OcOH    HO 3862   2.671   0.506   5.086
  144OcOH    OH 3863   2.678   0.602   5.078
  144OcOH   HA1 3864   2.831   0.737   5.095
  144OcOH   HA2 3865   2.874   0.571   5.131
  144OcOH    CA 3866   2.815   0.633   5.064
  144OcOH   HB1 3867   2.794   0.672   4.853
  144OcOH   HB2 3868   2.846   0.509   4.890
  144OcOH    CB 3869   2.859   0.614   4.918
  144OcOH   HC1 3870   3.014   0.762   4.927
  144OcOH   HC2 3871   3.071   0.601   4.961
  144OcOH    CC 3872   3.004   0.657   4.896
  144OcOH   HD1 3873   3.148   0.697   4.744
  144OcOH   HD2 3874   2.985   0.700   4.684
  144OcOH    CD 3875   3.052   0.646   4.750
  144OcOH   HE1 3876   3.119   0.442   4.780
  144OcOH   HE2 3877   2.974   0.454   4.685
  144OcOH    CE 3878   3.071   0.501   4.702
  144OcOH   HF1 3879   3.248   0.551   4.590
  144OcOH   HF2 3880   3.103   0.541   4.492
  144OcOH    CF 3881   3.157   0.493   4.574
  144OcOH   HG1 3882   3.247   0.302   4.619
  144OcOH   HG2 3883   3.107   0.291   4.516
  144OcOH    CG 3884   3.196   0.350   4.535
  144OcOH   HH1 3885   3.321   0.245   4.392
  144OcOH   HH2 3886   3.378   0.407   4.429
  144OcOH   HH3 3887   3.238   0.385   4.324
  144OcOH    CH 3888   3.288   0.347   4.413
  145OcOH    HO 3889   2.503   4.255   1.927
  145OcOH    OH 3890   2.544   4.341   1.915
  145OcOH   HA1 3891   2.728   4.271   1.971
  145OcOH   HA2 3892   2.693   4.261   1.800
  145OcOH    CA 3893   2.681   4.324   1.888
  145OcOH   HB1 3894   2.725   4.526   1.951
  145OcOH   HB2 3895   2.703   4.508   1.779
  145OcOH    CB 3896   2.747   4.461   1.867
  145OcOH   HC1 3897   2.943   4.410   1.941
  145OcOH   HC2 3898   2.923   4.382   1.770
  145OcOH    CC 3899   2.899   4.452   1.850
  145OcOH   HD1 3900   2.934   4.660   1.896
  145OcOH   HD2 3901   2.927   4.625   1.725
  145OcOH    CD 3902   2.964   4.588   1.820
  145OcOH   HE1 3903   3.154   4.555   1.916
  145OcOH   HE2 3904   3.148   4.499   1.751
  145OcOH    CE 3905   3.117   4.580   1.816
  145OcOH   HF1 3906   3.152   4.793   1.832
  145OcOH   HF2 3907   3.149   4.733   1.667
  145OcOH    CF 3908   3.184   4.710   1.768
  145OcOH   HG1 3909   3.372   4.680   1.869
  145OcOH   HG2 3910   3.369   4.616   1.706
  145OcOH    CG 3911   3.337   4.700   1.768
  145OcOH   HH1 3912   3.511   4.822   1.722
  145OcOH   HH2 3913   3.373   4.915   1.776
  145OcOH   HH3 3914   3.376   4.848   1.613
  145OcOH    CH 3915   3.403   4.829   1.717
  146OcOH    HO 3916   3.625   0.301   4.149
  146OcOH    OH 3917   3.662   0.213   4.153
  146OcOH   HA1 3918   3.549   0.133   4.305
  146OcOH   HA2 3919   3.717   0.082   4.302
  146OcOH    CA 3920   3.651   0.167   4.287
  146OcOH   HB1 3921   3.621   0.365   4.362
  146OcOH   HB2 3922   3.788   0.316   4.365
  146OcOH    CB 3923   3.686   0.281   4.383
  146OcOH   HC1 3924   3.575   0.192   4.544
  146OcOH   HC2 3925   3.748   0.173   4.559
  146OcOH    CC 3926   3.670   0.243   4.530
  146OcOH   HD1 3927   3.597   0.437   4.586
  146OcOH   HD2 3928   3.769   0.419   4.608
  146OcOH    CD 3929   3.674   0.368   4.620
  146OcOH   HE1 3930   3.559   0.276   4.780
  146OcOH   HE2 3931   3.731   0.270   4.803
  146OcOH    CE 3932   3.650   0.335   4.768
  146OcOH   HF1 3933   3.735   0.519   4.841
  146OcOH   HF2 3934   3.649   0.428   4.962
  146OcOH    CF 3935   3.645   0.460   4.858
  146OcOH   HG1 3936   3.534   0.641   4.894
  146OcOH   HG2 3937   3.511   0.579   4.733
  146OcOH    CG 3938   3.521   0.549   4.837
  146OcOH   HH1 3939   3.363   0.399   4.819
  146OcOH   HH2 3940   3.308   0.555   4.879
  146OcOH   HH3 3941   3.397   0.446   4.985
  146OcOH    CH 3942   3.390   0.483   4.883
  147OcOH    HO 3943   2.603   1.298   4.245
  147OcOH    OH 3944   2.592   1.265   4.155
  147OcOH   HA1 3945   2.563   1.083   4.064
  147OcOH   HA2 3946   2.641   1.077   4.222
  147OcOH    CA 3947   2.563   1.127   4.164
  147OcOH   HB1 3948   2.351   1.164   4.173
  147OcOH   HB2 3949   2.428   1.157   4.330
  147OcOH    CB 3950   2.426   1.110   4.231
  147OcOH   HC1 3951   2.388   0.913   4.150
  147OcOH   HC2 3952   2.461   0.913   4.308
  147OcOH    CC 3953   2.386   0.963   4.247
  147OcOH   HD1 3954   2.224   1.028   4.379
  147OcOH   HD2 3955   2.257   0.858   4.382
  147OcOH    CD 3956   2.248   0.943   4.314
  147OcOH   HE1 3957   2.156   0.827   4.157
  147OcOH   HE2 3958   2.045   0.885   4.277
  147OcOH    CE 3959   2.132   0.914   4.218
  147OcOH   HF1 3960   2.177   1.056   4.061
  147OcOH   HF2 3961   2.076   1.120   4.189
  147OcOH    CF 3962   2.094   1.032   4.127
  147OcOH   HG1 3963   1.986   0.915   3.981
  147OcOH   HG2 3964   1.885   0.977   4.109
  147OcOH    CG 3965   1.969   1.003   4.043
  147OcOH   HH1 3966   1.906   1.210   4.015
  147OcOH   HH2 3967   1.839   1.098   3.897
  147OcOH   HH3 3968   2.007   1.147   3.885
  147OcOH    CH 3969   1.928   1.121   3.955
  148OcOH    HO 3970   1.137   4.144   3.494
  148OcOH    OH 3971   1.122   4.204   3.421
  148OcOH   HA1 3972   1.322   4.210   3.371
  148OcOH   HA2 3973   1.230   4.075   3.306
  148OcOH    CA 3974   1.225   4.182   3.327
  148OcOH   HB1 3975   1.101   4.235   3.158
  148OcOH   HB2 3976   1.271   4.227   3.123
  148OcOH    CB 3977   1.199   4.260   3.197
  148OcOH   HC1 3978   1.134   4.448   3.281
  148OcOH   HC2 3979   1.307   4.436   3.262
  148OcOH    CC 3980   1.212   4.413   3.214
  148OcOH   HD1 3981   1.110   4.464   3.030
  148OcOH   HD2 3982   1.283   4.451   3.014
  148OcOH    CD 3983   1.204   4.487   3.080
  148OcOH   HE1 3984   1.136   4.676   3.159
  148OcOH   HE2 3985   1.309   4.663   3.149
  148OcOH    CE 3986   1.217   4.639   3.096
  148OcOH   HF1 3987   1.125   4.690   2.907
  148OcOH   HF2 3988   1.298   4.677   2.899
  148OcOH    CF 3989   1.216   4.713   2.961
  148OcOH   HG1 3990   1.146   4.903   3.039
  148OcOH   HG2 3991   1.320   4.890   3.031
  148OcOH    CG 3992   1.228   4.866   2.977
  148OcOH   HH1 3993   1.312   4.907   2.780
  148OcOH   HH2 3994   1.237   5.047   2.858
  148OcOH   HH3 3995   1.136   4.921   2.788
  148OcOH    CH 3996   1.228   4.939   2.843
  149OcOH    HO 3997   4.934   0.766   1.705
  149OcOH    OH 3998   4.861   0.737   1.760
  149OcOH   HA1 3999   4.801   0.556   1.838
  149OcOH   HA2 4000   4.936   0.549   1.727
  149OcOH    CA 4001   4.892   0.607   1.808
  149OcOH   HB1 4002   4.940   0.668   2.010
  149OcOH   HB2 4003   5.072   0.684   1.898
  149OcOH    CB 4004   4.990   0.619   1.926
  149OcOH   HC1 4005   4.967   0.422   2.014
  149OcOH   HC2 4006   5.083   0.429   1.884
  149OcOH    CC 4007   5.046   0.484   1.971
  149OcOH   HD1 4008   5.122   0.540   2.166
  149OcOH   HD2 4009   0.096   0.573   2.035
  149OcOH    CD 4010   0.024   0.500   2.073
  149OcOH   HE1 4011   0.030   0.295   2.143
  149OcOH   HE2 4012   0.132   0.325   2.005
  149OcOH    CE 4013   0.098   0.368   2.100
  149OcOH   HF1 4014   0.186   0.424   2.289
  149OcOH   HF2 4015   0.286   0.463   2.151
  149OcOH    CF 4016   0.219   0.387   2.192
  149OcOH   HG1 4017   0.231   0.181   2.255
  149OcOH   HG2 4018   0.330   0.217   2.115
  149OcOH    CG 4019   0.298   0.256   2.212
  149OcOH   HH1 4020   0.489   0.345   2.262
  149OcOH   HH2 4021   0.473   0.178   2.314
  149OcOH   HH3 4022   0.391   0.306   2.403
  149OcOH    CH 4023   0.420   0.272   2.303
  150OcOH    HO 4024   1.282   0.678   4.739
  150OcOH    OH 4025   1.321   0.625   4.668
  150OcOH   HA1 4026   1.370   0.807   4.586
  150OcOH   HA2 4027   1.417   0.667   4.492
  150OcOH    CA 4028   1.337   0.708   4.554
  150OcOH   HB1 4029   1.222   0.786   4.390
  150OcOH   HB2 4030   1.128   0.759   4.535
  150OcOH    CB 4031   1.207   0.716   4.473
  150OcOH   HC1 4032   1.243   0.533   4.363
  150OcOH   HC2 4033   1.142   0.514   4.504
  150OcOH    CC 4034   1.162   0.580   4.419
  150OcOH   HD1 4035   0.955   0.635   4.386
  150OcOH   HD2 4036   1.000   0.481   4.320
  150OcOH    CD 4037   1.034   0.584   4.333
  150OcOH   HE1 4038   1.080   0.751   4.202
  150OcOH   HE2 4039   1.137   0.596   4.143
  150OcOH    CE 4040   1.053   0.645   4.193
  150OcOH   HF1 4041   0.843   0.679   4.156
  150OcOH   HF2 4042   0.902   0.524   4.099
  150OcOH    CF 4043   0.927   0.630   4.107
  150OcOH   HG1 4044   0.966   0.795   3.972
  150OcOH   HG2 4045   1.029   0.641   3.916
  150OcOH    CG 4046   0.944   0.688   3.965
  150OcOH   HH1 4047   0.831   0.711   3.780
  150OcOH   HH2 4048   0.732   0.715   3.925
  150OcOH   HH3 4049   0.796   0.562   3.867
  150OcOH    CH 4050   0.818   0.668   3.880
  151OcOH    HO 4051   1.008   1.623   3.250
  151OcOH    OH 4052   0.976   1.547   3.298
  151OcOH   HA1 4053   0.987   1.598   3.496
  151OcOH   HA2 4054   0.878   1.695   3.398
  151OcOH    CA 4055   0.913   1.593   3.415
  151OcOH   HB1 4056   0.833   1.399   3.465
  151OcOH   HB2 4057   0.727   1.498   3.367
  151OcOH    CB 4058   0.796   1.501   3.451
  151OcOH   HC1 4059   0.790   1.540   3.663
  151OcOH   HC2 4060   0.697   1.652   3.568
  151OcOH    CC 4061   0.722   1.547   3.578
  151OcOH   HD1 4062   0.620   1.364   3.632
  151OcOH   HD2 4063   0.535   1.461   3.514
  151OcOH    CD 4064   0.595   1.466   3.606
  151OcOH   HE1 4065   0.567   1.535   3.809
  151OcOH   HE2 4066   0.484   1.632   3.690
  151OcOH    CE 4067   0.509   1.529   3.717
  151OcOH   HF1 4068   0.403   1.351   3.780
  151OcOH   HF2 4069   0.325   1.438   3.650
  151OcOH    CF 4070   0.379   1.451   3.744
  151OcOH   HG1 4071   0.342   1.538   3.939
  151OcOH   HG2 4072   0.263   1.622   3.808
  151OcOH    CG 4073   0.288   1.523   3.845
  151OcOH   HH1 4074   0.179   1.349   3.917
  151OcOH   HH2 4075   0.101   1.430   3.781
  151OcOH   HH3 4076   0.095   1.501   3.942
  151OcOH    CH 4077   0.158   1.446   3.873
  152OcOH    HO 4078   3.672   0.054   4.055
  152OcOH    OH 4079   3.664   5.108   4.008
  152OcOH   HA1 4080   3.675   4.976   4.165
  152OcOH   HA2 4081   3.524   5.064   4.151
  152OcOH    CA 4082   3.602   5.014   4.093
  152OcOH   HB1 4083   3.513   4.820   4.082
  152OcOH   HB2 4084   3.618   4.854   3.947
  152OcOH    CB 4085   3.542   4.898   4.012
  152OcOH   HC1 4086   3.350   4.996   3.995
  152OcOH   HC2 4087   3.448   5.009   3.851
  152OcOH    CC 4088   3.418   4.940   3.930
  152OcOH   HD1 4089   3.323   4.748   3.951
  152OcOH   HD2 4090   3.407   4.768   3.799
  152OcOH    CD 4091   3.343   4.820   3.871
  152OcOH   HE1 4092   3.152   4.918   3.876
  152OcOH   HE2 4093   3.228   4.923   3.719
  152OcOH    CE 4094   3.210   4.859   3.805
  152OcOH   HF1 4095   3.112   4.670   3.847
  152OcOH   HF2 4096   3.185   4.678   3.690
  152OcOH    CF 4097   3.127   4.736   3.762
  152OcOH   HG1 4098   3.005   4.845   3.620
  152OcOH   HG2 4099   2.951   4.682   3.650
  152OcOH    CG 4100   2.992   4.771   3.699
  152OcOH   HH1 4101   2.919   4.915   3.847
  152OcOH   HH2 4102   2.874   4.747   3.881
  152OcOH   HH3 4103   2.791   4.837   3.754
  152OcOH    CH 4104   2.888   4.820   3.801
  153OcOH    HO 4105   2.628   0.993   4.915
  153OcOH    OH 4106   2.639   1.068   4.856
  153OcOH   HA1 4107   2.788   1.210   4.853
  153OcOH   HA2 4108   2.826   1.062   4.940
  153OcOH    CA 4109   2.776   1.101   4.851
  153OcOH   HB1 4110   2.828   0.935   4.722
  153OcOH   HB2 4111   2.948   1.061   4.729
  153OcOH    CB 4112   2.841   1.043   4.724
  153OcOH   HC1 4113   2.681   1.076   4.580
  153OcOH   HC2 4114   2.784   1.214   4.606
  153OcOH    CC 4115   2.785   1.106   4.595
  153OcOH   HD1 4116   2.972   1.099   4.486
  153OcOH   HD2 4117   2.834   1.137   4.388
  153OcOH    CD 4118   2.868   1.073   4.469
  153OcOH   HE1 4119   2.893   0.861   4.503
  153OcOH   HE2 4120   2.752   0.901   4.409
  153OcOH    CE 4121   2.857   0.926   4.424
  153OcOH   HF1 4122   3.040   0.923   4.310
  153OcOH   HF2 4123   2.899   0.965   4.215
  153OcOH    CF 4124   2.935   0.899   4.294
  153OcOH   HG1 4125   2.957   0.686   4.327
  153OcOH   HG2 4126   2.817   0.729   4.231
  153OcOH    CG 4127   2.922   0.753   4.248
  153OcOH   HH1 4128   2.967   0.789   4.037
  153OcOH   HH2 4129   2.988   0.621   4.087
  153OcOH   HH3 4130   3.107   0.742   4.133
  153OcOH    CH 4131   3.001   0.725   4.119
  154OcOH    HO 4132   1.591   0.470   1.304
  154OcOH    OH 4133   1.591   0.510   1.392
  154OcOH   HA1 4134   1.796   0.522   1.389
  154OcOH   HA2 4135   1.711   0.666   1.335
  154OcOH    CA 4136   1.710   0.585   1.408
  154OcOH   HB1 4137   1.630   0.706   1.569
  154OcOH   HB2 4138   1.804   0.709   1.557
  154OcOH    CB 4139   1.717   0.643   1.551
  154OcOH   HC1 4140   1.639   0.470   1.651
  154OcOH   HC2 4141   1.813   0.470   1.641
  154OcOH    CC 4142   1.727   0.534   1.659
  154OcOH   HD1 4143   1.706   0.507   1.871
  154OcOH   HD2 4144   1.653   0.664   1.816
  154OcOH    CD 4145   1.732   0.589   1.803
  154OcOH   HE1 4146   1.944   0.568   1.828
  154OcOH   HE2 4147   1.897   0.729   1.780
  154OcOH    CE 4148   1.869   0.645   1.844
  154OcOH   HF1 4149   1.979   0.702   2.020
  154OcOH   HF2 4150   1.837   0.608   2.055
  154OcOH    CF 4151   1.875   0.688   1.992
  154OcOH   HG1 4152   1.838   0.899   1.959
  154OcOH   HG2 4153   1.694   0.807   1.992
  154OcOH    CG 4154   1.798   0.818   2.021
  154OcOH   HH1 4155   1.745   0.949   2.186
  154OcOH   HH2 4156   1.906   0.880   2.200
  154OcOH   HH3 4157   1.764   0.781   2.233
  154OcOH    CH 4158   1.804   0.859   2.168
  155OcOH    HO 4159   2.105   0.840   2.722
  155OcOH    OH 4160   2.042   0.772   2.693
  155OcOH   HA1 4161   2.017   0.570   2.703
  155OcOH   HA2 4162   2.184   0.624   2.704
  155OcOH    CA 4163   2.084   0.646   2.742
  155OcOH   HB1 4164   1.989   0.686   2.931
  155OcOH   HB2 4165   2.161   0.714   2.932
  155OcOH    CB 4166   2.084   0.646   2.895
  155OcOH   HC1 4167   2.024   0.440   2.923
  155OcOH   HC2 4168   2.197   0.464   2.918
  155OcOH    CC 4169   2.104   0.506   2.956
  155OcOH   HD1 4170   2.018   0.557   3.148
  155OcOH   HD2 4171   2.192   0.571   3.142
  155OcOH    CD 4172   2.109   0.509   3.110
  155OcOH   HE1 4173   2.032   0.312   3.151
  155OcOH   HE2 4174   2.204   0.315   3.128
  155OcOH    CE 4175   2.122   0.370   3.173
  155OcOH   HF1 4176   2.063   0.434   3.372
  155OcOH   HF2 4177   2.235   0.434   3.344
  155OcOH    CF 4178   2.143   0.377   3.325
  155OcOH   HG1 4179   2.241   0.186   3.352
  155OcOH   HG2 4180   2.183   0.257   3.499
  155OcOH    CG 4181   2.157   0.241   3.395
  155OcOH   HH1 4182   1.945   0.208   3.432
  155OcOH   HH2 4183   2.044   0.063   3.448
  155OcOH   HH3 4184   2.005   0.125   3.288
  155OcOH    CH 4185   2.030   0.155   3.390
  156OcOH    HO 4186   1.685   2.545   4.322
  156OcOH    OH 4187   1.738   2.484   4.374
  156OcOH   HA1 4188   1.706   2.322   4.496
  156OcOH   HA2 4189   1.589   2.452   4.510
  156OcOH    CA 4190   1.649   2.395   4.439
  156OcOH   HB1 4191   1.618   2.268   4.265
  156OcOH   HB2 4192   1.506   2.400   4.279
  156OcOH    CB 4193   1.559   2.324   4.337
  156OcOH   HC1 4194   1.410   2.283   4.488
  156OcOH   HC2 4195   1.375   2.215   4.333
  156OcOH    CC 4196   1.455   2.232   4.404
  156OcOH   HD1 4197   1.593   2.112   4.520
  156OcOH   HD2 4198   1.554   2.044   4.363
  156OcOH    CD 4199   1.511   2.096   4.449
  156OcOH   HE1 4200   1.361   2.061   4.599
  156OcOH   HE2 4201   1.322   1.994   4.443
  156OcOH    CE 4202   1.403   2.008   4.514
  156OcOH   HF1 4203   1.538   1.885   4.629
  156OcOH   HF2 4204   1.498   1.819   4.473
  156OcOH    CF 4205   1.456   1.871   4.559
  156OcOH   HG1 4206   1.306   1.837   4.711
  156OcOH   HG2 4207   1.263   1.774   4.554
  156OcOH    CG 4208   1.346   1.785   4.624
  156OcOH   HH1 4209   1.436   1.592   4.580
  156OcOH   HH2 4210   1.315   1.587   4.708
  156OcOH   HH3 4211   1.475   1.653   4.740
  156OcOH    CH 4212   1.396   1.647   4.665
  157OcOH    HO 4213   1.193   0.945   3.136
  157OcOH    OH 4214   1.171   0.885   3.209
  157OcOH   HA1 4215   1.368   0.878   3.266
  157OcOH   HA2 4216   1.272   1.004   3.343
  157OcOH    CA 4217   1.270   0.901   3.309
  157OcOH   HB1 4218   1.219   0.706   3.385
  157OcOH   HB2 4219   1.146   0.837   3.475
  157OcOH    CB 4220   1.238   0.805   3.425
  157OcOH   HC1 4221   1.444   0.770   3.475
  157OcOH   HC2 4222   1.369   0.890   3.576
  157OcOH    CC 4223   1.352   0.794   3.528
  157OcOH   HD1 4224   1.278   0.599   3.583
  157OcOH   HD2 4225   1.250   0.720   3.705
  157OcOH    CD 4226   1.324   0.685   3.633
  157OcOH   HE1 4227   1.422   0.543   3.761
  157OcOH   HE2 4228   1.523   0.601   3.632
  157OcOH    CE 4229   1.449   0.633   3.705
  157OcOH   HF1 4230   1.440   0.760   3.880
  157OcOH   HF2 4231   1.537   0.826   3.750
  157OcOH    CF 4232   1.513   0.733   3.802
  157OcOH   HG1 4233   1.621   0.579   3.908
  157OcOH   HG2 4234   1.717   0.664   3.790
  157OcOH    CG 4235   1.640   0.678   3.867
  157OcOH   HH1 4236   1.624   0.773   4.062
  157OcOH   HH2 4237   1.714   0.868   3.943
  157OcOH   HH3 4238   1.788   0.727   4.018
  157OcOH    CH 4239   1.695   0.767   3.979
  158OcOH    HO 4240   4.383   2.109   2.496
  158OcOH    OH 4241   4.302   2.147   2.531
  158OcOH   HA1 4242   4.267   1.968   2.623
  158OcOH   HA2 4243   4.335   2.093   2.726
  158OcOH    CA 4244   4.264   2.075   2.645
  158OcOH   HB1 4245   4.054   2.097   2.604
  158OcOH   HB2 4246   4.120   2.225   2.704
  158OcOH    CB 4247   4.122   2.117   2.686
  158OcOH   HC1 4248   4.085   1.936   2.798
  158OcOH   HC2 4249   4.137   2.070   2.897
  158OcOH    CC 4250   4.073   2.044   2.812
  158OcOH   HD1 4251   3.864   2.048   2.759
  158OcOH   HD2 4252   3.914   2.183   2.859
  158OcOH    CD 4253   3.927   2.075   2.845
  158OcOH   HE1 4254   3.901   1.896   2.961
  158OcOH   HE2 4255   3.930   2.038   3.058
  158OcOH    CE 4256   3.877   2.001   2.970
  158OcOH   HF1 4257   3.672   1.975   2.905
  158OcOH   HF2 4258   3.700   2.124   2.991
  158OcOH    CF 4259   3.725   2.018   2.990
  158OcOH   HG1 4260   3.721   2.001   3.206
  158OcOH   HG2 4261   3.566   1.977   3.129
  158OcOH    CG 4262   3.672   1.954   3.120
  158OcOH   HH1 4263   3.648   1.752   3.040
  158OcOH   HH2 4264   3.642   1.761   3.216
  158OcOH   HH3 4265   3.796   1.774   3.133
  158OcOH    CH 4266   3.691   1.802   3.127
  159OcOH    HO 4267   2.858   4.645   4.841
  159OcOH    OH 4268   2.814   4.572   4.800
  159OcOH   HA1 4269   2.631   4.528   4.719
  159OcOH   HA2 4270   2.627   4.639   4.854
  159OcOH    CA 4271   2.683   4.612   4.765
  159OcOH   HB1 4272   2.592   4.745   4.623
  159OcOH   HB2 4273   2.756   4.702   4.583
  159OcOH    CB 4274   2.691   4.729   4.666
  159OcOH   HC1 4275   2.668   4.890   4.808
  159OcOH   HC2 4276   2.835   4.845   4.779
  159OcOH    CC 4277   2.739   4.861   4.730
  159OcOH   HD1 4278   2.660   4.980   4.569
  159OcOH   HD2 4279   2.831   4.951   4.556
  159OcOH    CD 4280   2.752   4.974   4.627
  159OcOH   HE1 4281   2.772   0.051   4.611
  159OcOH   HE2 4282   2.696   0.001   4.759
  159OcOH    CE 4283   2.777   5.113   4.690
  159OcOH   HF1 4284   2.993   5.097   4.695
  159OcOH   HF2 4285   2.915   5.056   4.846
  159OcOH    CF 4286   2.912   5.126   4.763
  159OcOH   HG1 4287   2.937   0.202   4.731
  159OcOH   HG2 4288   2.855   0.162   4.880
  159OcOH    CG 4289   2.937   0.132   4.815
  159OcOH   HH1 4290   3.073   0.077   4.977
  159OcOH   HH2 4291   3.084   0.246   4.928
  159OcOH   HH3 4292   3.154   0.120   4.827
  159OcOH    CH 4293   3.069   0.144   4.891
  160OcOH    HO 4294   0.262   4.439   2.899
  160OcOH    OH 4295   0.310   4.495   2.837
  160OcOH   HA1 4296   0.471   4.371   2.862
  160OcOH   HA2 4297   0.371   4.337   2.721
  160OcOH    CA 4298   0.414   4.417   2.781
  160OcOH   HB1 4299   0.539   4.591   2.756
  160OcOH   HB2 4300   0.448   4.549   2.613
  160OcOH    CB 4301   0.505   4.507   2.696
  160OcOH   HC1 4302   0.686   4.395   2.729
  160OcOH   HC2 4303   0.597   4.344   2.587
  160OcOH    CC 4304   0.629   4.432   2.643
  160OcOH   HD1 4305   0.741   4.615   2.606
  160OcOH   HD2 4306   0.663   4.548   2.465
  160OcOH    CD 4307   0.718   4.520   2.555
  160OcOH   HE1 4308   0.829   4.350   2.479
  160OcOH   HE2 4309   0.891   4.505   2.428
  160OcOH    CE 4310   0.850   4.452   2.514
  160OcOH   HF1 4311   0.914   4.402   2.715
  160OcOH   HF2 4312   0.978   4.553   2.655
  160OcOH    CF 4313   0.955   4.451   2.626
  160OcOH   HG1 4314   1.063   4.274   2.564
  160OcOH   HG2 4315   1.124   4.423   2.494
  160OcOH    CG 4316   1.084   4.379   2.586
  160OcOH   HH1 4317   1.282   4.334   2.665
  160OcOH   HH2 4318   1.157   4.341   2.788
  160OcOH   HH3 4319   1.219   4.490   2.718
  160OcOH    CH 4320   1.192   4.386   2.696
  161OcOH    HO 4321   3.584   0.655   1.173
  161OcOH    OH 4322   3.492   0.657   1.143
  161OcOH   HA1 4323   3.513   0.495   1.020
  161OcOH   HA2 4324   3.387   0.608   0.973
  161OcOH    CA 4325   3.489   0.601   1.014
  161OcOH   HB1 4326   3.592   0.620   0.827
  161OcOH   HB2 4327   3.689   0.665   0.965
  161OcOH    CB 4328   3.589   0.672   0.922
  161OcOH   HC1 4329   3.456   0.826   0.848
  161OcOH   HC2 4330   3.547   0.873   0.990
  161OcOH    CC 4331   3.554   0.820   0.895
  161OcOH   HD1 4332   3.670   0.833   0.712
  161OcOH   HD2 4333   3.757   0.882   0.854
  161OcOH    CD 4334   3.659   0.888   0.806
  161OcOH   HE1 4335   3.530   1.038   0.721
  161OcOH   HE2 4336   3.607   1.088   0.869
  161OcOH    CE 4337   3.624   1.034   0.776
  161OcOH   HF1 4338   3.757   1.046   0.606
  161OcOH   HF2 4339   3.827   1.106   0.755
  161OcOH    CF 4340   3.735   1.104   0.696
  161OcOH   HG1 4341   3.608   1.245   0.592
  161OcOH   HG2 4342   3.673   1.307   0.742
  161OcOH    CG 4343   3.698   1.247   0.654
  161OcOH   HH1 4344   3.780   1.413   0.539
  161OcOH   HH2 4345   3.841   1.256   0.490
  161OcOH   HH3 4346   3.899   1.330   0.639
  161OcOH    CH 4347   3.811   1.316   0.576
  162OcOH    HO 4348   1.147   1.086   1.658
  162OcOH    OH 4349   1.235   1.112   1.688
  162OcOH   HA1 4350   1.185   1.310   1.664
  162OcOH   HA2 4351   1.355   1.277   1.686
  162OcOH    CA 4352   1.265   1.240   1.637
  162OcOH   HB1 4353   1.366   1.167   1.460
  162OcOH   HB2 4354   1.321   1.335   1.454
  162OcOH    CB 4355   1.286   1.237   1.485
  162OcOH   HC1 4356   1.130   1.099   1.430
  162OcOH   HC2 4357   1.076   1.265   1.442
  162OcOH    CC 4358   1.158   1.202   1.407
  162OcOH   HD1 4359   1.256   1.155   1.220
  162OcOH   HD2 4360   1.203   1.321   1.233
  162OcOH    CD 4361   1.174   1.218   1.256
  162OcOH   HE1 4362   1.015   1.082   1.203
  162OcOH   HE2 4363   0.965   1.248   1.216
  162OcOH    CE 4364   1.045   1.184   1.180
  162OcOH   HF1 4365   1.145   1.141   0.994
  162OcOH   HF2 4366   1.084   1.304   1.004
  162OcOH    CF 4367   1.060   1.201   1.028
  162OcOH   HG1 4368   0.957   1.163   0.842
  162OcOH   HG2 4369   0.913   1.053   0.969
  162OcOH    CG 4370   0.935   1.157   0.949
  162OcOH   HH1 4371   0.829   1.348   0.958
  162OcOH   HH2 4372   0.778   1.233   1.081
  162OcOH   HH3 4373   0.727   1.212   0.915
  162OcOH    CH 4374   0.811   1.243   0.978
  163OcOH    HO 4375   4.205   3.503   3.321
  163OcOH    OH 4376   4.230   3.595   3.319
  163OcOH   HA1 4377   4.132   3.671   3.482
  163OcOH   HA2 4378   4.137   3.776   3.342
  163OcOH    CA 4379   4.125   3.672   3.373
  163OcOH   HB1 4380   3.986   3.613   3.218
  163OcOH   HB2 4381   3.912   3.691   3.355
  163OcOH    CB 4382   3.989   3.619   3.327
  163OcOH   HC1 4383   4.022   3.406   3.350
  163OcOH   HC2 4384   3.970   3.486   3.496
  163OcOH    CC 4385   3.954   3.482   3.389
  163OcOH   HD1 4386   3.790   3.441   3.254
  163OcOH   HD2 4387   3.741   3.514   3.405
  163OcOH    CD 4388   3.809   3.440   3.362
  163OcOH   HE1 4389   3.835   3.226   3.365
  163OcOH   HE2 4390   3.811   3.297   3.523
  163OcOH    CE 4391   3.777   3.301   3.419
  163OcOH   HF1 4392   3.572   3.333   3.479
  163OcOH   HF2 4393   3.616   3.166   3.463
  163OcOH    CF 4394   3.628   3.264   3.416
  163OcOH   HG1 4395   3.570   3.361   3.232
  163OcOH   HG2 4396   3.625   3.196   3.210
  163OcOH    CG 4397   3.566   3.261   3.276
  163OcOH   HH1 4398   3.379   3.213   3.175
  163OcOH   HH2 4399   3.358   3.279   3.337
  163OcOH   HH3 4400   3.412   3.112   3.315
  163OcOH    CH 4401   3.420   3.214   3.276
  164OcOH    HO 4402   2.499   1.350   4.023
  164OcOH    OH 4403   2.440   1.398   3.964
  164OcOH   HA1 4404   2.262   1.471   4.036
  164OcOH   HA2 4405   2.397   1.474   4.147
  164OcOH    CA 4406   2.369   1.490   4.043
  164OcOH   HB1 4407   2.373   1.649   3.897
  164OcOH   HB2 4408   2.511   1.647   4.004
  164OcOH    CB 4409   2.403   1.633   4.000
  164OcOH   HC1 4410   2.228   1.725   4.086
  164OcOH   HC2 4411   2.364   1.718   4.194
  164OcOH    CC 4412   2.336   1.737   4.090
  164OcOH   HD1 4413   2.339   1.903   3.952
  164OcOH   HD2 4414   2.481   1.893   4.053
  164OcOH    CD 4415   2.372   1.882   4.053
  164OcOH   HE1 4416   2.202   1.975   4.149
  164OcOH   HE2 4417   2.343   1.959   4.252
  164OcOH    CE 4418   2.311   1.984   4.151
  164OcOH   HF1 4419   2.315   2.155   4.020
  164OcOH   HF2 4420   2.460   2.136   4.116
  164OcOH    CF 4421   2.351   2.128   4.119
  164OcOH   HG1 4422   2.187   2.224   4.223
  164OcOH   HG2 4423   2.328   2.198   4.322
  164OcOH    CG 4424   2.296   2.228   4.223
  164OcOH   HH1 4425   2.303   2.439   4.273
  164OcOH   HH2 4426   2.308   2.407   4.099
  164OcOH   HH3 4427   2.451   2.379   4.199
  164OcOH    CH 4428   2.342   2.372   4.196
  165OcOH    HO 4429   3.156   1.751   3.079
  165OcOH    OH 4430   3.116   1.721   3.161
  165OcOH   HA1 4431   2.990   1.882   3.172
  165OcOH   HA2 4432   3.022   1.804   3.324
  165OcOH    CA 4433   3.069   1.834   3.230
  165OcOH   HB1 4434   3.140   2.026   3.294
  165OcOH   HB2 4435   3.232   1.961   3.162
  165OcOH    CB 4436   3.183   1.934   3.256
  165OcOH   HC1 4437   3.234   1.838   3.442
  165OcOH   HC2 4438   3.342   1.798   3.311
  165OcOH    CC 4439   3.287   1.880   3.356
  165OcOH   HD1 4440   3.327   2.068   3.454
  165OcOH   HD2 4441   3.434   2.035   3.320
  165OcOH    CD 4442   3.384   1.989   3.405
  165OcOH   HE1 4443   3.437   1.871   3.577
  165OcOH   HE2 4444   3.557   1.867   3.451
  165OcOH    CE 4445   3.488   1.933   3.504
  165OcOH   HF1 4446   3.624   1.993   3.658
  165OcOH   HF2 4447   3.496   2.108   3.630
  165OcOH    CF 4448   3.566   2.041   3.580
  165OcOH   HG1 4449   3.733   2.057   3.443
  165OcOH   HG2 4450   3.606   2.173   3.413
  165OcOH    CG 4451   3.662   2.124   3.492
  165OcOH   HH1 4452   3.803   2.288   3.509
  165OcOH   HH2 4453   3.801   2.182   3.650
  165OcOH   HH3 4454   3.671   2.298   3.623
  165OcOH    CH 4455   3.739   2.229   3.573
  166OcOH    HO 4456   2.895   2.614   1.242
  166OcOH    OH 4457   2.873   2.631   1.335
  166OcOH   HA1 4458   3.011   2.695   1.474
  166OcOH   HA2 4459   3.046   2.737   1.308
  166OcOH    CA 4460   2.965   2.728   1.381
  166OcOH   HB1 4461   2.836   2.886   1.309
  166OcOH   HB2 4462   2.969   2.942   1.407
  166OcOH    CB 4463   2.894   2.863   1.399
  166OcOH   HC1 4464   2.742   2.777   1.527
  166OcOH   HC2 4465   2.868   2.862   1.613
  166OcOH    CC 4466   2.805   2.866   1.524
  166OcOH   HD1 4467   2.639   2.982   1.451
  166OcOH   HD2 4468   2.772   3.080   1.508
  166OcOH    CD 4469   2.714   2.990   1.529
  166OcOH   HE1 4470   2.607   2.909   1.699
  166OcOH   HE2 4471   2.720   3.035   1.741
  166OcOH    CE 4472   2.646   3.006   1.666
  166OcOH   HF1 4473   2.456   3.075   1.593
  166OcOH   HF2 4474   2.567   3.204   1.630
  166OcOH    CF 4475   2.531   3.108   1.665
  166OcOH   HG1 4476   2.437   3.024   1.840
  166OcOH   HG2 4477   2.538   3.163   1.874
  166OcOH    CG 4478   2.465   3.123   1.803
  166OcOH   HH1 4479   2.366   3.314   1.769
  166OcOH   HH2 4480   2.295   3.218   1.898
  166OcOH   HH3 4481   2.266   3.175   1.730
  166OcOH    CH 4482   2.341   3.213   1.800
  167OcOH    HO 4483   2.641   1.920   5.003
  167OcOH    OH 4484   2.671   1.890   4.916
  167OcOH   HA1 4485   2.766   2.065   4.875
  167OcOH   HA2 4486   2.861   1.947   4.964
  167OcOH    CA 4487   2.789   1.959   4.883
  167OcOH   HB1 4488   2.775   1.923   4.671
  167OcOH   HB2 4489   2.861   1.799   4.758
  167OcOH    CB 4490   2.847   1.907   4.751
  167OcOH   HC1 4491   2.967   2.082   4.714
  167OcOH   HC2 4492   3.053   1.953   4.794
  167OcOH    CC 4493   2.981   1.974   4.715
  167OcOH   HD1 4494   2.973   1.960   4.499
  167OcOH   HD2 4495   3.037   1.818   4.577
  167OcOH    CD 4496   3.038   1.928   4.580
  167OcOH   HE1 4497   3.247   1.942   4.635
  167OcOH   HE2 4498   3.219   1.926   4.464
  167OcOH    CE 4499   3.182   1.976   4.553
  167OcOH   HF1 4500   3.154   2.177   4.623
  167OcOH   HF2 4501   3.134   2.161   4.451
  167OcOH    CF 4502   3.195   2.128   4.535
  167OcOH   HG1 4503   3.343   2.285   4.531
  167OcOH   HG2 4504   3.402   2.135   4.598
  167OcOH    CG 4505   3.340   2.176   4.518
  167OcOH   HH1 4506   3.504   2.183   4.376
  167OcOH   HH2 4507   3.345   2.186   4.301
  167OcOH   HH3 4508   3.410   2.036   4.367
  167OcOH    CH 4509   3.403   2.143   4.383
  168OcOH    HO 4510   5.029   1.588   3.384
  168OcOH    OH 4511   5.022   1.671   3.335
  168OcOH   HA1 4512   5.030   1.871   3.384
  168OcOH   HA2 4513   4.989   1.763   3.515
  168OcOH    CA 4514   5.053   1.774   3.427
  168OcOH   HB1 4515   0.085   1.669   3.514
  168OcOH   HB2 4516   0.079   1.839   3.549
  168OcOH    CB 4517   0.063   1.767   3.470
  168OcOH   HC1 4518   0.150   1.720   3.277
  168OcOH   HC2 4519   0.135   1.891   3.308
  168OcOH    CC 4520   0.161   1.796   3.355
  168OcOH   HD1 4521   0.335   1.706   3.447
  168OcOH   HD2 4522   0.317   1.876   3.479
  168OcOH    CD 4523   0.307   1.801   3.401
  168OcOH   HE1 4524   0.392   1.756   3.208
  168OcOH   HE2 4525   0.376   1.926   3.238
  168OcOH    CE 4526   0.404   1.832   3.285
  168OcOH   HF1 4527   0.613   1.839   3.238
  168OcOH   HF2 4528   0.578   1.746   3.381
  168OcOH    CF 4529   0.551   1.838   3.327
  168OcOH   HG1 4530   0.558   2.052   3.359
  168OcOH   HG2 4531   0.527   1.960   3.505
  168OcOH    CG 4532   0.586   1.961   3.413
  168OcOH   HH1 4533   0.764   1.882   3.511
  168OcOH   HH2 4534   0.755   2.058   3.507
  168OcOH   HH3 4535   0.798   1.970   3.361
  168OcOH    CH 4536   0.734   1.968   3.450
  169OcOH    HO 4537   2.614   0.770   5.043
  169OcOH    OH 4538   2.598   0.865   5.039
  169OcOH   HA1 4539   2.462   0.866   0.057
  169OcOH   HA2 4540   2.631   0.864   0.105
  169OcOH    CA 4541   2.560   0.906   0.033
  169OcOH   HB1 4542   2.493   1.099   5.101
  169OcOH   HB2 4543   2.661   1.095   0.011
  169OcOH    CB 4544   2.561   1.059   0.039
  169OcOH   HC1 4545   2.422   1.084   0.202
  169OcOH   HC2 4546   2.588   1.071   0.255
  169OcOH    CC 4547   2.524   1.115   0.178
  169OcOH   HD1 4548   2.478   1.305   0.271
  169OcOH   HD2 4549   2.479   1.310   0.098
  169OcOH    CD 4550   2.533   1.268   0.184
  169OcOH   HE1 4551   2.703   1.341   0.294
  169OcOH   HE2 4552   2.749   1.245   0.158
  169OcOH    CE 4553   2.678   1.321   0.190
  169OcOH   HF1 4554   2.797   1.493   0.137
  169OcOH   HF2 4555   2.625   1.523   0.132
  169OcOH    CF 4556   2.701   1.449   0.107
  169OcOH   HG1 4557   2.780   1.346   5.070
  169OcOH   HG2 4558   2.609   1.380   5.059
  169OcOH    CG 4559   2.704   1.422   5.092
  169OcOH   HH1 4560   2.737   1.525   4.903
  169OcOH   HH2 4561   2.832   1.590   5.036
  169OcOH   HH3 4562   2.660   1.625   5.025
  169OcOH    CH 4563   2.735   1.548   5.010
  170OcOH    HO 4564   4.002   2.056   0.378
  170OcOH    OH 4565   3.941   2.024   0.447
  170OcOH   HA1 4566   3.775   2.095   0.544
  170OcOH   HA2 4567   3.920   2.192   0.561
  170OcOH    CA 4568   3.862   2.133   0.490
  170OcOH   HB1 4569   3.908   2.261   0.323
  170OcOH   HB2 4570   3.768   2.310   0.414
  170OcOH    CB 4571   3.820   2.222   0.373
  170OcOH   HC1 4572   3.777   2.066   0.230
  170OcOH   HC2 4573   3.638   2.118   0.321
  170OcOH    CC 4574   3.728   2.154   0.271
  170OcOH   HD1 4575   3.780   2.282   0.106
  170OcOH   HD2 4576   3.643   2.339   0.198
  170OcOH    CD 4577   3.689   2.249   0.156
  170OcOH   HE1 4578   3.638   2.093   0.017
  170OcOH   HE2 4579   3.501   2.158   0.104
  170OcOH    CE 4580   3.594   2.185   0.054
  170OcOH   HF1 4581   3.657   2.299   5.019
  170OcOH   HF2 4582   3.527   2.373   5.109
  170OcOH    CF 4583   3.564   2.278   5.072
  170OcOH   HG1 4584   3.495   2.119   4.942
  170OcOH   HG2 4585   3.367   2.202   5.028
  170OcOH    CG 4586   3.461   2.217   4.975
  170OcOH   HH1 4587   3.357   2.266   4.792
  170OcOH   HH2 4588   3.527   2.313   4.791
  170OcOH   HH3 4589   3.409   2.408   4.881
  170OcOH    CH 4590   3.437   2.306   4.853
  171OcOH    HO 4591   4.248   2.528   1.089
  171OcOH    OH 4592   4.178   2.592   1.078
  171OcOH   HA1 4593   4.021   2.501   1.175
  171OcOH   HA2 4594   4.153   2.551   1.277
  171OcOH    CA 4595   4.094   2.581   1.191
  171OcOH   HB1 4596   3.964   2.701   1.310
  171OcOH   HB2 4597   3.953   2.738   1.141
  171OcOH    CB 4598   4.023   2.714   1.220
  171OcOH   HC1 4599   4.198   2.799   1.314
  171OcOH   HC2 4600   4.173   2.852   1.149
  171OcOH    CC 4601   4.121   2.830   1.243
  171OcOH   HD1 4602   4.008   2.935   1.393
  171OcOH   HD2 4603   3.970   2.985   1.229
  171OcOH    CD 4604   4.052   2.957   1.295
  171OcOH   HE1 4605   4.236   3.046   1.368
  171OcOH   HE2 4606   4.188   3.101   1.210
  171OcOH    CE 4607   4.149   3.075   1.309
  171OcOH   HF1 4608   4.049   3.174   1.473
  171OcOH   HF2 4609   3.994   3.225   1.315
  171OcOH    CF 4610   4.083   3.199   1.372
  171OcOH   HG1 4611   4.267   3.293   1.436
  171OcOH   HG2 4612   4.213   3.344   1.278
  171OcOH    CG 4613   4.178   3.319   1.378
  171OcOH   HH1 4614   4.078   3.423   1.542
  171OcOH   HH2 4615   4.025   3.474   1.381
  171OcOH   HH3 4616   4.181   3.527   1.443
  171OcOH    CH 4617   4.112   3.443   1.440
  172OcOH    HO 4618   1.813   0.289   4.112
  172OcOH    OH 4619   1.822   0.228   4.037
  172OcOH   HA1 4620   1.634   0.263   3.961
  172OcOH   HA2 4621   1.755   0.385   3.927
  172OcOH    CA 4622   1.739   0.277   3.935
  172OcOH   HB1 4623   1.875   0.230   3.774
  172OcOH   HB2 4624   1.712   0.259   3.723
  172OcOH    CB 4625   1.772   0.211   3.800
  172OcOH   HC1 4626   1.809   0.008   3.869
  172OcOH   HC2 4627   1.642   0.040   3.831
  172OcOH    CC 4628   1.744   0.059   3.797
  172OcOH   HD1 4629   1.868   0.013   3.628
  172OcOH   HD2 4630   1.705   0.058   3.585
  172OcOH    CD 4631   1.764   0.001   3.657
  172OcOH   HE1 4632   1.786   4.930   3.715
  172OcOH   HE2 4633   1.621   4.977   3.679
  172OcOH    CE 4634   1.725   4.989   3.647
  172OcOH   HF1 4635   1.844   4.945   3.472
  172OcOH   HF2 4636   1.681   4.998   3.435
  172OcOH    CF 4637   1.739   4.936   3.503
  172OcOH   HG1 4638   1.751   4.726   3.555
  172OcOH   HG2 4639   1.590   4.781   3.520
  172OcOH    CG 4640   1.693   4.790   3.489
  172OcOH   HH1 4641   1.646   4.797   3.276
  172OcOH   HH2 4642   1.674   4.635   3.338
  172OcOH   HH3 4643   1.810   4.743   3.310
  172OcOH    CH 4644   1.707   4.738   3.345
  173OcOH    HO 4645   1.396   0.469   4.626
  173OcOH    OH 4646   1.437   0.386   4.600
  173OcOH   HA1 4647   1.269   0.324   4.500
  173OcOH   HA2 4648   1.377   0.196   4.549
  173OcOH    CA 4649   1.334   0.291   4.581
  173OcOH   HB1 4650   1.161   0.220   4.686
  173OcOH   HB2 4651   1.223   0.371   4.749
  173OcOH    CB 4652   1.253   0.273   4.711
  173OcOH   HC1 4653   1.362   0.099   4.776
  173OcOH   HC2 4654   1.419   0.248   4.847
  173OcOH    CC 4655   1.329   0.194   4.818
  173OcOH   HD1 4656   1.145   0.131   4.911
  173OcOH   HD2 4657   1.225   0.258   4.998
  173OcOH    CD 4658   1.243   0.166   4.943
  173OcOH   HE1 4659   1.228   0.032   5.110
  173OcOH   HE2 4660   1.323   5.105   4.979
  173OcOH    CE 4661   1.303   0.059   5.036
  173OcOH   HF1 4662   1.410   0.190   0.036
  173OcOH   HF2 4663   1.504   0.138   5.036
  173OcOH    CF 4664   1.431   0.104   5.109
  173OcOH   HG1 4665   1.512   5.040   5.130
  173OcOH   HG2 4666   1.595   0.025   0.087
  173OcOH    CG 4667   1.496   5.128   0.056
  173OcOH   HH1 4668   1.396   0.039   0.245
  173OcOH   HH2 4669   1.469   5.016   0.240
  173OcOH   HH3 4670   1.319   5.046   0.154
  173OcOH    CH 4671   1.415   5.089   0.181
  174OcOH    HO 4672   2.688   4.314   4.529
  174OcOH    OH 4673   2.610   4.274   4.490
  174OcOH   HA1 4674   2.740   4.229   4.339
  174OcOH   HA2 4675   2.575   4.175   4.314
  174OcOH    CA 4676   2.636   4.257   4.352
  174OcOH   HB1 4677   2.497   4.407   4.280
  174OcOH   HB2 4678   2.626   4.369   4.170
  174OcOH    CB 4679   2.604   4.386   4.275
  174OcOH   HC1 4680   2.646   4.538   4.422
  174OcOH   HC2 4681   2.787   4.483   4.336
  174OcOH    CC 4682   2.682   4.509   4.324
  174OcOH   HD1 4683   2.566   4.646   4.203
  174OcOH   HD2 4684   2.720   4.603   4.133
  174OcOH    CD 4685   2.671   4.628   4.227
  174OcOH   HE1 4686   2.671   4.793   4.367
  174OcOH   HE2 4687   2.830   4.734   4.327
  174OcOH    CE 4688   2.732   4.757   4.284
  174OcOH   HF1 4689   2.818   4.834   4.102
  174OcOH   HF2 4690   2.803   4.951   4.230
  174OcOH    CF 4691   2.751   4.869   4.181
  174OcOH   HG1 4692   2.570   4.844   4.065
  174OcOH   HG2 4693   2.554   4.955   4.199
  174OcOH    CG 4694   2.621   4.923   4.120
  174OcOH   HH1 4695   2.710   5.011   3.941
  174OcOH   HH2 4696   2.697   5.123   4.077
  174OcOH   HH3 4697   2.554   5.080   3.984
  174OcOH    CH 4698   2.647   5.041   4.025
  175OcOH    HO 4699   1.346   1.699   3.091
  175OcOH    OH 4700   1.314   1.790   3.080
  175OcOH   HA1 4701   1.423   1.963   3.081
  175OcOH   HA2 4702   1.515   1.816   3.050
  175OcOH    CA 4703   1.421   1.867   3.029
  175OcOH   HB1 4704   1.304   1.932   2.860
  175OcOH   HB2 4705   1.402   1.791   2.828
  175OcOH    CB 4706   1.402   1.888   2.879
  175OcOH   HC1 4707   1.515   2.072   2.875
  175OcOH   HC2 4708   1.608   1.930   2.830
  175OcOH    CC 4709   1.511   1.978   2.818
  175OcOH   HD1 4710   1.387   2.056   2.659
  175OcOH   HD2 4711   1.483   1.917   2.613
  175OcOH    CD 4712   1.486   2.010   2.670
  175OcOH   HE1 4713   1.598   2.195   2.671
  175OcOH   HE2 4714   1.691   2.056   2.619
  175OcOH    CE 4715   1.593   2.103   2.612
  175OcOH   HF1 4716   1.468   2.191   2.459
  175OcOH   HF2 4717   1.556   2.049   2.406
  175OcOH    CF 4718   1.565   2.140   2.465
  175OcOH   HG1 4719   1.686   2.320   2.466
  175OcOH   HG2 4720   1.770   2.178   2.410
  175OcOH    CG 4721   1.674   2.230   2.405
  175OcOH   HH1 4722   1.553   2.328   2.254
  175OcOH   HH2 4723   1.633   2.182   2.197
  175OcOH   HH3 4724   1.725   2.330   2.220
  175OcOH    CH 4725   1.645   2.269   2.260
  176OcOH    HO 4726   0.061   3.558   4.967
  176OcOH    OH 4727   5.119   3.572   5.021
  176OcOH   HA1 4728   0.109   3.654   0.024
  176OcOH   HA2 4729   0.018   3.769   5.064
  176OcOH    CA 4730   0.011   3.673   5.115
  176OcOH   HB1 4731   4.941   3.694   0.039
  176OcOH   HB2 4732   5.055   3.765   0.150
  176OcOH    CB 4733   5.038   3.678   0.086
  176OcOH   HC1 4734   5.022   3.463   0.111
  176OcOH   HC2 4735   5.131   3.539   0.224
  176OcOH    CC 4736   5.034   3.551   0.174
  176OcOH   HD1 4737   4.825   3.562   0.227
  176OcOH   HD2 4738   4.930   3.645   0.339
  176OcOH    CD 4739   4.921   3.555   0.278
  176OcOH   HE1 4740   4.907   3.342   0.308
  176OcOH   HE2 4741   5.019   3.421   0.417
  176OcOH    CE 4742   4.921   3.431   0.369
  176OcOH   HF1 4743   4.715   3.442   0.430
  176OcOH   HF2 4744   4.824   3.529   0.536
  176OcOH    CF 4745   4.813   3.437   0.478
  176OcOH   HG1 4746   4.812   3.224   0.514
  176OcOH   HG2 4747   4.914   3.313   0.623
  176OcOH    CG 4748   4.818   3.316   0.572
  176OcOH   HH1 4749   4.607   3.314   0.628
  176OcOH   HH2 4750   4.709   3.407   0.737
  176OcOH   HH3 4751   4.712   3.231   0.742
  176OcOH    CH 4752   4.705   3.317   0.676
  177OcOH    HO 4753   0.152   4.886   4.243
  177OcOH    OH 4754   0.120   4.975   4.262
  177OcOH   HA1 4755   5.062   4.913   4.266
  177OcOH   HA2 4756   0.015   4.890   4.415
  177OcOH    CA 4757   5.136   4.959   4.332
  177OcOH   HB1 4758   5.078   0.028   4.301
  177OcOH   HB2 4759   0.024   5.136   4.453
  177OcOH    CB 4760   5.087   5.094   4.384
  177OcOH   HC1 4761   4.877   5.045   4.385
  177OcOH   HC2 4762   4.957   5.009   4.536
  177OcOH    CC 4763   4.951   5.083   4.456
  177OcOH   HD1 4764   4.909   0.157   4.437
  177OcOH   HD2 4765   4.971   0.111   4.594
  177OcOH    CD 4766   4.903   0.080   4.514
  177OcOH   HE1 4767   4.693   0.042   4.487
  177OcOH   HE2 4768   4.751   5.134   4.645
  177OcOH    CE 4769   4.759   0.073   4.568
  177OcOH   HF1 4770   4.735   0.287   4.551
  177OcOH   HF2 4771   4.766   0.232   4.714
  177OcOH    CF 4772   4.711   0.209   4.622
  177OcOH   HG1 4773   4.505   0.187   4.560
  177OcOH   HG2 4774   4.535   0.135   4.723
  177OcOH    CG 4775   4.560   0.212   4.651
  177OcOH   HH1 4776   4.529   0.426   4.628
  177OcOH   HH2 4777   4.568   0.377   4.792
  177OcOH   HH3 4778   4.407   0.347   4.727
  177OcOH    CH 4779   4.514   0.348   4.703
  178OcOH    HO 4780   2.511   0.403   0.550
  178OcOH    OH 4781   2.558   0.484   0.527
  178OcOH   HA1 4782   2.525   0.652   0.414
  178OcOH   HA2 4783   2.494   0.500   0.332
  178OcOH    CA 4784   2.484   0.552   0.428
  178OcOH   HB1 4785   2.326   0.598   0.571
  178OcOH   HB2 4786   2.299   0.455   0.475
  178OcOH    CB 4787   2.336   0.557   0.470
  178OcOH   HC1 4788   2.272   0.609   0.270
  178OcOH   HC2 4789   2.144   0.603   0.389
  178OcOH    CC 4790   2.247   0.636   0.373
  178OcOH   HD1 4791   2.358   0.820   0.392
  178OcOH   HD2 4792   2.215   0.815   0.491
  178OcOH    CD 4793   2.254   0.788   0.392
  178OcOH   HE1 4794   2.196   0.973   0.299
  178OcOH   HE2 4795   2.221   0.843   0.186
  178OcOH    CE 4796   2.178   0.867   0.284
  178OcOH   HF1 4797   1.984   0.864   0.380
  178OcOH   HF2 4798   2.007   0.736   0.263
  178OcOH    CF 4799   2.026   0.841   0.282
  178OcOH   HG1 4800   1.971   1.031   0.193
  178OcOH   HG2 4801   1.999   0.903   0.076
  178OcOH    CG 4802   1.955   0.924   0.174
  178OcOH   HH1 4803   1.758   0.955   0.090
  178OcOH   HH2 4804   1.756   0.921   0.262
  178OcOH   HH3 4805   1.784   0.791   0.147
  178OcOH    CH 4806   1.805   0.896   0.168
  179OcOH    HO 4807   0.070   4.049   0.274
  179OcOH    OH 4808   0.113   4.131   0.247
  179OcOH   HA1 4809   0.111   4.057   0.054
  179OcOH   HA2 4810   0.199   4.208   0.078
  179OcOH    CA 4811   0.177   4.111   0.123
  179OcOH   HB1 4812   0.366   4.084   0.224
  179OcOH   HB2 4813   0.370   4.043   0.055
  179OcOH    CB 4814   0.309   4.035   0.145
  179OcOH   HC1 4815   0.215   3.876   0.258
  179OcOH   HC2 4816   0.245   3.838   0.090
  179OcOH    CC 4817   0.288   3.887   0.177
  179OcOH   HD1 4818   0.452   3.856   0.313
  179OcOH   HD2 4819   0.497   3.840   0.145
  179OcOH    CD 4820   0.418   3.817   0.217
  179OcOH   HE1 4821   0.317   3.639   0.288
  179OcOH   HE2 4822   0.382   3.626   0.126
  179OcOH    CE 4823   0.403   3.664   0.226
  179OcOH   HF1 4824   0.536   3.618   0.388
  179OcOH   HF2 4825   0.617   3.641   0.236
  179OcOH    CF 4826   0.529   3.597   0.282
  179OcOH   HG1 4827   0.436   3.401   0.286
  179OcOH   HG2 4828   0.542   3.427   0.150
  179OcOH    CG 4829   0.531   3.445   0.257
  179OcOH   HH1 4830   0.645   3.269   0.313
  179OcOH   HH2 4831   0.634   3.392   0.439
  179OcOH   HH3 4832   0.742   3.416   0.303
  179OcOH    CH 4833   0.645   3.377   0.332
  180OcOH    HO 4834   1.285   1.700   0.023
  180OcOH    OH 4835   1.220   1.632   0.013
  180OcOH   HA1 4836   1.018   1.618   5.115
  180OcOH   HA2 4837   1.069   1.757   0.073
  180OcOH    CA 4838   1.095   1.694   5.124
  180OcOH   HB1 4839   1.129   1.709   4.912
  180OcOH   HB2 4840   1.189   1.846   5.001
  180OcOH    CB 4841   1.106   1.776   4.995
  180OcOH   HC1 4842   0.987   1.893   4.859
  180OcOH   HC2 4843   0.892   1.786   4.959
  180OcOH    CC 4844   0.977   1.854   4.961
  180OcOH   HD1 4845   1.038   2.035   5.063
  180OcOH   HD2 4846   0.931   1.934   0.021
  180OcOH    CD 4847   0.950   1.972   5.056
  180OcOH   HE1 4848   0.849   2.096   4.912
  180OcOH   HE2 4849   0.741   1.992   5.003
  180OcOH    CE 4850   0.829   2.056   5.012
  180OcOH   HF1 4851   0.885   2.240   5.113
  180OcOH   HF2 4852   0.788   2.132   0.072
  180OcOH    CF 4853   0.799   2.172   5.108
  180OcOH   HG1 4854   0.587   2.183   5.065
  180OcOH   HG2 4855   0.649   2.320   0.017
  180OcOH    CG 4856   0.672   2.251   5.072
  180OcOH   HH1 4857   0.593   2.389   4.924
  180OcOH   HH2 4858   0.699   2.267   4.856
  180OcOH   HH3 4859   0.767   2.402   4.946
  180OcOH    CH 4860   0.684   2.332   4.942
  181OcOH    HO 4861   3.466   2.581   2.436
  181OcOH    OH 4862   3.404   2.515   2.467
  181OcOH   HA1 4863   3.265   2.652   2.529
  181OcOH   HA2 4864   3.264   2.614   2.357
  181OcOH    CA 4865   3.275   2.570   2.457
  181OcOH   HB1 4866   3.178   2.423   2.582
  181OcOH   HB2 4867   3.188   2.378   2.413
  181OcOH    CB 4868   3.169   2.462   2.480
  181OcOH   HC1 4869   3.005   2.595   2.529
  181OcOH   HC2 4870   3.020   2.559   2.358
  181OcOH    CC 4871   3.026   2.515   2.458
  181OcOH   HD1 4872   2.916   2.363   2.569
  181OcOH   HD2 4873   2.946   2.323   2.403
  181OcOH    CD 4874   2.918   2.405   2.469
  181OcOH   HE1 4875   2.782   2.505   2.332
  181OcOH   HE2 4876   2.714   2.366   2.413
  181OcOH    CE 4877   2.778   2.453   2.428
  181OcOH   HF1 4878   2.773   2.631   2.553
  181OcOH   HF2 4879   2.703   2.489   2.627
  181OcOH    CF 4880   2.711   2.544   2.533
  181OcOH   HG1 4881   2.578   2.647   2.397
  181OcOH   HG2 4882   2.508   2.504   2.467
  181OcOH    CG 4883   2.571   2.590   2.489
  181OcOH   HH1 4884   2.560   2.765   2.620
  181OcOH   HH2 4885   2.488   2.619   2.689
  181OcOH   HH3 4886   2.403   2.709   2.563
  181OcOH    CH 4887   2.502   2.676   2.596
  182OcOH    HO 4888   2.771   2.025   2.537
  182OcOH    OH 4889   2.812   1.950   2.491
  182OcOH   HA1 4890   2.790   1.853   2.313
  182OcOH   HA2 4891   2.652   1.950   2.363
  182OcOH    CA 4892   2.761   1.947   2.360
  182OcOH   HB1 4893   2.927   2.064   2.286
  182OcOH   HB2 4894   2.787   2.158   2.328
  182OcOH    CB 4895   2.818   2.066   2.281
  182OcOH   HC1 4896   2.804   1.972   2.087
  182OcOH   HC2 4897   2.664   2.067   2.131
  182OcOH    CC 4898   2.773   2.065   2.135
  182OcOH   HD1 4899   2.937   2.187   2.064
  182OcOH   HD2 4900   2.792   2.277   2.100
  182OcOH    CD 4901   2.829   2.184   2.055
  182OcOH   HE1 4902   2.831   2.088   1.862
  182OcOH   HE2 4903   2.682   2.172   1.897
  182OcOH    CE 4904   2.790   2.179   1.907
  182OcOH   HF1 4905   2.948   2.310   1.841
  182OcOH   HF2 4906   2.797   2.392   1.872
  182OcOH    CF 4907   2.840   2.301   1.829
  182OcOH   HG1 4908   2.851   2.205   1.636
  182OcOH   HG2 4909   2.698   2.282   1.667
  182OcOH    CG 4910   2.806   2.294   1.680
  182OcOH   HH1 4911   2.832   2.408   1.497
  182OcOH   HH2 4912   2.961   2.433   1.613
  182OcOH   HH3 4913   2.804   2.508   1.639
  182OcOH    CH 4914   2.853   2.418   1.603
  183OcOH    HO 4915   3.521   0.562   4.165
  183OcOH    OH 4916   3.584   0.492   4.146
  183OcOH   HA1 4917   3.788   0.475   4.161
  183OcOH   HA2 4918   3.731   0.572   4.028
  183OcOH    CA 4919   3.713   0.548   4.133
  183OcOH   HB1 4920   3.659   0.752   4.178
  183OcOH   HB2 4921   3.828   0.718   4.197
  183OcOH    CB 4922   3.729   0.677   4.215
  183OcOH   HC1 4923   3.610   0.623   4.387
  183OcOH   HC2 4924   3.779   0.584   4.404
  183OcOH    CC 4925   3.710   0.660   4.367
  183OcOH   HD1 4926   3.674   0.870   4.395
  183OcOH   HD2 4927   3.837   0.822   4.433
  183OcOH    CD 4928   3.733   0.792   4.442
  183OcOH   HE1 4929   3.591   0.749   4.599
  183OcOH   HE2 4930   3.756   0.710   4.642
  183OcOH    CE 4931   3.694   0.784   4.591
  183OcOH   HF1 4932   3.646   0.994   4.607
  183OcOH   HF2 4933   3.809   0.955   4.658
  183OcOH    CF 4934   3.705   0.920   4.662
  183OcOH   HG1 4935   3.555   0.879   4.810
  183OcOH   HG2 4936   3.717   0.844   4.864
  183OcOH    CG 4937   3.657   0.916   4.807
  183OcOH   HH1 4938   3.629   1.046   4.979
  183OcOH   HH2 4939   3.601   1.126   4.825
  183OcOH   HH3 4940   3.765   1.092   4.879
  183OcOH    CH 4941   3.664   1.053   4.876
  184OcOH    HO 4942   0.717   4.698   4.242
  184OcOH    OH 4943   0.672   4.637   4.301
  184OcOH   HA1 4944   0.685   4.435   4.337
  184OcOH   HA2 4945   0.793   4.496   4.213
  184OcOH    CA 4946   0.750   4.519   4.310
  184OcOH   HB1 4947   0.921   4.623   4.392
  184OcOH   HB2 4948   0.928   4.450   4.407
  184OcOH    CB 4949   0.860   4.536   4.415
  184OcOH   HC1 4950   0.746   4.633   4.571
  184OcOH   HC2 4951   0.748   4.458   4.582
  184OcOH    CC 4952   0.810   4.545   4.560
  184OcOH   HD1 4953   0.986   4.642   4.638
  184OcOH   HD2 4954   0.992   4.467   4.644
  184OcOH    CD 4955   0.926   4.553   4.659
  184OcOH   HE1 4956   0.819   4.642   4.826
  184OcOH   HE2 4957   0.817   4.468   4.823
  184OcOH    CE 4958   0.881   4.554   4.806
  184OcOH   HF1 4959   1.068   4.470   4.875
  184OcOH   HF2 4960   0.960   4.516   5.002
  184OcOH    CF 4961   0.998   4.548   4.905
  184OcOH   HG1 4962   1.114   4.713   4.825
  184OcOH   HG2 4963   1.002   4.760   4.950
  184OcOH    CG 4964   1.072   4.682   4.921
  184OcOH   HH1 4965   1.237   4.771   5.032
  184OcOH   HH2 4966   1.259   4.599   4.997
  184OcOH   HH3 4967   1.147   4.650   5.124
  184OcOH    CH 4968   1.185   4.675   5.025
  185OcOH    HO 4969   0.237   1.807   2.802
  185OcOH    OH 4970   0.292   1.799   2.723
  185OcOH   HA1 4971   0.493   1.829   2.711
  185OcOH   HA2 4972   0.432   1.795   2.872
  185OcOH    CA 4973   0.422   1.768   2.767
  185OcOH   HB1 4974   0.555   1.599   2.777
  185OcOH   HB2 4975   0.450   1.598   2.638
  185OcOH    CB 4976   0.453   1.619   2.745
  185OcOH   HC1 4977   0.357   1.547   2.925
  185OcOH   HC2 4978   0.255   1.544   2.785
  185OcOH    CC 4979   0.356   1.525   2.819
  185OcOH   HD1 4980   0.486   1.353   2.844
  185OcOH   HD2 4981   0.406   1.360   2.689
  185OcOH    CD 4982   0.391   1.377   2.796
  185OcOH   HE1 4983   0.264   1.298   2.953
  185OcOH   HE2 4984   0.187   1.307   2.796
  185OcOH    CE 4985   0.281   1.282   2.846
  185OcOH   HF1 4986   0.401   1.106   2.880
  185OcOH   HF2 4987   0.344   1.122   2.716
  185OcOH    CF 4988   0.314   1.135   2.821
  185OcOH   HG1 4989   0.168   1.051   2.956
  185OcOH   HG2 4990   0.110   1.070   2.792
  185OcOH    CG 4991   0.197   1.041   2.851
  185OcOH   HH1 4992   0.315   0.860   2.881
  185OcOH   HH2 4993   0.253   0.879   2.717
  185OcOH   HH3 4994   0.145   0.829   2.847
  185OcOH    CH 4995   0.230   0.894   2.822
  186OcOH    HO 4996   2.788   3.476   3.997
  186OcOH    OH 4997   2.728   3.536   4.043
  186OcOH   HA1 4998   2.839   3.677   4.144
  186OcOH   HA2 4999   2.873   3.662   3.972
  186OcOH    CA 5000   2.793   3.662   4.046
  186OcOH   HB1 5001   2.611   3.772   4.088
  186OcOH   HB2 5002   2.646   3.752   3.917
  186OcOH    CB 5003   2.692   3.772   4.014
  186OcOH   HC1 5004   2.795   3.937   4.109
  186OcOH   HC2 5005   2.843   3.908   3.943
  186OcOH    CC 5006   2.757   3.911   4.010
  186OcOH   HD1 5007   2.574   4.026   4.028
  186OcOH   HD2 5008   2.620   3.991   3.863
  186OcOH    CD 5009   2.660   4.020   3.960
  186OcOH   HE1 5010   2.764   4.188   4.046
  186OcOH   HE2 5011   2.815   4.148   3.884
  186OcOH    CE 5012   2.727   4.157   3.948
  186OcOH   HF1 5013   2.549   4.278   3.960
  186OcOH   HF2 5014   2.591   4.231   3.798
  186OcOH    CF 5015   2.633   4.264   3.892
  186OcOH   HG1 5016   2.758   4.427   3.961
  186OcOH   HG2 5017   2.781   4.386   3.793
  186OcOH    CG 5018   2.705   4.398   3.870
  186OcOH   HH1 5019   2.536   4.530   3.907
  186OcOH   HH2 5020   2.556   4.485   3.738
  186OcOH   HH3 5021   2.665   4.603   3.811
  186OcOH    CH 5022   2.610   4.510   3.829
  187OcOH    HO 5023   4.698   1.953   3.215
  187OcOH    OH 5024   4.625   2.016   3.225
  187OcOH   HA1 5025   4.532   2.101   3.385
  187OcOH   HA2 5026   4.662   1.991   3.426
  187OcOH    CA 5027   4.632   2.069   3.356
  187OcOH   HB1 5028   4.717   2.237   3.458
  187OcOH   HB2 5029   4.698   2.262   3.287
  187OcOH    CB 5030   4.728   2.188   3.361
  187OcOH   HC1 5031   4.905   2.082   3.421
  187OcOH   HC2 5032   4.888   2.097   3.248
  187OcOH    CC 5033   4.875   2.151   3.341
  187OcOH   HD1 5034   4.940   2.338   3.427
  187OcOH   HD2 5035   4.946   2.335   3.253
  187OcOH    CD 5036   4.966   2.275   3.342
  187OcOH   HE1 5037   5.133   2.179   3.438
  187OcOH   HE2 5038   0.007   2.179   3.264
  187OcOH    CE 5039   5.115   2.240   3.350
  187OcOH   HF1 5040   0.033   2.431   3.435
  187OcOH   HF2 5041   0.055   2.422   3.262
  187OcOH    CF 5042   0.067   2.366   3.355
  187OcOH   HG1 5043   0.227   2.281   3.472
  187OcOH   HG2 5044   0.248   2.262   3.300
  187OcOH    CG 5045   0.215   2.332   3.377
  187OcOH   HH1 5046   0.301   2.506   3.277
  187OcOH   HH2 5047   0.409   2.430   3.393
  187OcOH   HH3 5048   0.275   2.528   3.450
  187OcOH    CH 5049   0.305   2.456   3.374
  188OcOH    HO 5050   4.718   0.273   1.816
  188OcOH    OH 5051   4.798   0.223   1.794
  188OcOH   HA1 5052   4.862   0.201   1.989
  188OcOH   HA2 5053   4.730   0.098   1.940
  188OcOH    CA 5054   4.824   0.141   1.906
  188OcOH   HB1 5055   4.885   5.111   1.784
  188OcOH   HB2 5056   4.923   5.092   1.953
  188OcOH    CB 5057   4.922   0.028   1.871
  188OcOH   HC1 5058   5.064   0.154   1.770
  188OcOH   HC2 5059   5.103   0.126   1.937
  188OcOH    CC 5060   5.065   0.077   1.847
  188OcOH   HD1 5061   5.118   5.048   1.719
  188OcOH   HD2 5062   0.028   5.026   1.885
  188OcOH    CD 5063   0.023   5.100   1.805
  188OcOH   HE1 5064   0.158   0.090   1.693
  188OcOH   HE2 5065   0.207   0.063   1.859
  188OcOH    CE 5066   0.164   0.014   1.772
  188OcOH   HF1 5067   0.212   4.985   1.641
  188OcOH   HF2 5068   0.267   4.964   1.806
  188OcOH    CF 5069   0.258   5.037   1.726
  188OcOH   HG1 5070   0.387   0.025   1.604
  188OcOH   HG2 5071   0.442   0.006   1.769
  188OcOH    CG 5072   0.397   5.089   1.685
  188OcOH   HH1 5073   0.450   4.923   1.555
  188OcOH   HH2 5074   0.505   4.903   1.721
  188OcOH   HH3 5075   0.588   5.015   1.614
  188OcOH    CH 5076   0.490   4.976   1.641
  189OcOH    HO 5077   3.744   2.526   0.597
  189OcOH    OH 5078   3.659   2.534   0.556
  189OcOH   HA1 5079   3.543   2.678   0.466
  189OcOH   HA2 5080   3.635   2.732   0.605
  189OcOH    CA 5081   3.639   2.669   0.516
  189OcOH   HB1 5082   3.848   2.714   0.476
  189OcOH   HB2 5083   3.735   2.820   0.398
  189OcOH    CB 5084   3.753   2.716   0.423
  189OcOH   HC1 5085   3.794   2.533   0.316
  189OcOH   HC2 5086   3.666   2.629   0.245
  189OcOH    CC 5087   3.764   2.635   0.293
  189OcOH   HD1 5088   3.957   2.719   0.249
  189OcOH   HD2 5089   3.828   2.795   0.161
  189OcOH    CD 5090   3.865   2.698   0.195
  189OcOH   HE1 5091   3.981   2.655   0.019
  189OcOH   HE2 5092   3.939   2.514   0.112
  189OcOH    CE 5093   3.899   2.609   0.075
  189OcOH   HF1 5094   3.701   2.531   0.033
  189OcOH   HF2 5095   3.817   2.506   5.043
  189OcOH    CF 5096   3.783   2.579   5.116
  189OcOH   HG1 5097   3.685   2.773   5.111
  189OcOH   HG2 5098   3.813   2.755   4.993
  189OcOH    CG 5099   3.730   2.703   5.041
  189OcOH   HH1 5100   3.542   2.613   4.978
  189OcOH   HH2 5101   3.670   2.601   4.858
  189OcOH   HH3 5102   3.588   2.754   4.884
  189OcOH    CH 5103   3.626   2.665   4.934
  190OcOH    HO 5104   0.908   1.037   1.717
  190OcOH    OH 5105   0.960   1.040   1.635
  190OcOH   HA1 5106   0.963   0.926   1.465
  190OcOH   HA2 5107   0.848   0.875   1.587
  190OcOH    CA 5108   0.891   0.963   1.539
  190OcOH   HB1 5109   0.742   0.991   1.386
  190OcOH   HB2 5110   0.830   1.136   1.425
  190OcOH    CB 5111   0.784   1.048   1.470
  190OcOH   HC1 5112   0.618   1.001   1.601
  190OcOH   HC2 5113   0.712   1.138   1.652
  190OcOH    CC 5114   0.670   1.089   1.564
  190OcOH   HD1 5115   0.522   1.140   1.413
  190OcOH   HD2 5116   0.624   1.273   1.461
  190OcOH    CD 5117   0.570   1.186   1.499
  190OcOH   HE1 5118   0.394   1.153   1.620
  190OcOH   HE2 5119   0.511   1.258   1.694
  190OcOH    CE 5120   0.463   1.234   1.599
  190OcOH   HF1 5121   0.343   1.335   1.451
  190OcOH   HF2 5122   0.456   1.440   1.532
  190OcOH    CF 5123   0.386   1.357   1.549
  190OcOH   HG1 5124   0.218   1.483   1.595
  190OcOH   HG2 5125   0.203   1.322   1.660
  190OcOH    CG 5126   0.274   1.404   1.643
  190OcOH   HH1 5127   0.245   1.499   1.837
  190OcOH   HH2 5128   0.401   1.533   1.765
  190OcOH   HH3 5129   0.370   1.376   1.838
  190OcOH    CH 5130   0.326   1.456   1.778
  191OcOH    HO 5131   1.247   0.717   4.977
  191OcOH    OH 5132   1.230   0.759   4.892
  191OcOH   HA1 5133   1.068   0.856   4.969
  191OcOH   HA2 5134   1.219   0.944   4.981
  191OcOH    CA 5135   1.160   0.879   4.916
  191OcOH   HB1 5136   1.064   0.886   4.723
  191OcOH   HB2 5137   1.220   0.965   4.727
  191OcOH    CB 5138   1.129   0.950   4.784
  191OcOH   HC1 5139   0.978   1.073   4.877
  191OcOH   HC2 5140   1.131   1.153   4.854
  191OcOH    CC 5141   1.060   1.085   4.807
  191OcOH   HD1 5142   0.926   1.085   4.638
  191OcOH   HD2 5143   1.084   1.151   4.602
  191OcOH    CD 5144   1.006   1.148   4.678
  191OcOH   HE1 5145   0.883   1.291   4.785
  191OcOH   HE2 5146   1.036   1.355   4.729
  191OcOH    CE 5147   0.953   1.291   4.701
  191OcOH   HF1 5148   0.792   1.291   4.557
  191OcOH   HF2 5149   0.947   1.339   4.490
  191OcOH    CF 5150   0.882   1.349   4.577
  191OcOH   HG1 5151   0.790   1.509   4.689
  191OcOH   HG2 5152   0.937   1.556   4.607
  191OcOH    CG 5153   0.846   1.497   4.596
  191OcOH   HH1 5154   0.666   1.502   4.474
  191OcOH   HH2 5155   0.814   1.540   4.385
  191OcOH   HH3 5156   0.743   1.659   4.494
  191OcOH    CH 5157   0.762   1.553   4.481
  192OcOH    HO 5158   0.880   3.567   1.800
  192OcOH    OH 5159   0.862   3.662   1.790
  192OcOH   HA1 5160   0.746   3.627   1.626
  192OcOH   HA2 5161   0.663   3.614   1.780
  192OcOH    CA 5162   0.737   3.672   1.725
  192OcOH   HB1 5163   0.772   3.877   1.663
  192OcOH   HB2 5164   0.689   3.860   1.816
  192OcOH    CB 5165   0.695   3.819   1.715
  192OcOH   HC1 5166   0.486   3.772   1.689
  192OcOH   HC2 5167   0.524   3.940   1.665
  192OcOH    CC 5168   0.560   3.839   1.645
  192OcOH   HD1 5169   0.606   3.721   1.468
  192OcOH   HD2 5170   0.633   3.892   1.449
  192OcOH    CD 5171   0.565   3.819   1.492
  192OcOH   HE1 5172   0.362   3.753   1.464
  192OcOH   HE2 5173   0.381   3.926   1.455
  192OcOH    CE 5174   0.427   3.832   1.426
  192OcOH   HF1 5175   0.488   3.734   1.243
  192OcOH   HF2 5176   0.490   3.909   1.235
  192OcOH    CF 5177   0.433   3.824   1.273
  192OcOH   HG1 5178   0.242   3.730   1.236
  192OcOH   HG2 5179   0.234   3.904   1.246
  192OcOH    CG 5180   0.294   3.822   1.208
  192OcOH   HH1 5181   0.202   3.826   1.012
  192OcOH   HH2 5182   0.360   3.750   1.013
  192OcOH   HH3 5183   0.347   3.925   1.024
  192OcOH    CH 5184   0.301   3.831   1.055
  193OcOH    HO 5185   2.037   4.450   0.772
  193OcOH    OH 5186   2.108   4.471   0.709
  193OcOH   HA1 5187   2.189   4.593   0.852
  193OcOH   HA2 5188   2.256   4.430   0.845
  193OcOH    CA 5189   2.220   4.513   0.784
  193OcOH   HB1 5190   2.288   4.643   0.627
  193OcOH   HB2 5191   2.358   4.483   0.621
  193OcOH    CB 5192   2.329   4.563   0.689
  193OcOH   HC1 5193   2.423   4.705   0.820
  193OcOH   HC2 5194   2.488   4.544   0.834
  193OcOH    CC 5195   2.452   4.618   0.762
  193OcOH   HD1 5196   2.530   4.716   0.584
  193OcOH   HD2 5197   2.602   4.562   0.619
  193OcOH    CD 5198   2.567   4.654   0.666
  193OcOH   HE1 5199   2.709   4.673   0.828
  193OcOH   HE2 5200   2.773   4.713   0.671
  193OcOH    CE 5201   2.685   4.723   0.734
  193OcOH   HF1 5202   2.570   4.888   0.817
  193OcOH   HF2 5203   2.645   4.923   0.663
  193OcOH    CF 5204   2.661   4.873   0.759
  193OcOH   HG1 5205   2.793   4.896   0.929
  193OcOH   HG2 5206   2.871   4.925   0.775
  193OcOH    CG 5207   2.778   4.942   0.831
  193OcOH   HH1 5208   2.842   0.002   0.899
  193OcOH   HH2 5209   2.668   5.112   0.908
  193OcOH   HH3 5210   2.745   0.006   0.752
  193OcOH    CH 5211   2.757   5.092   0.849
  194OcOH    HO 5212   0.849   3.784   0.223
  194OcOH    OH 5213   0.844   3.728   0.145
  194OcOH   HA1 5214   0.960   3.595   0.248
  194OcOH   HA2 5215   0.941   3.561   0.076
  194OcOH    CA 5216   0.955   3.641   0.149
  194OcOH   HB1 5217   1.093   3.803   0.189
  194OcOH   HB2 5218   1.077   3.763   0.019
  194OcOH    CB 5219   1.083   3.720   0.119
  194OcOH   HC1 5220   1.214   3.589   0.229
  194OcOH   HC2 5221   1.196   3.546   0.060
  194OcOH    CC 5222   1.208   3.630   0.128
  194OcOH   HD1 5223   1.347   3.794   0.156
  194OcOH   HD2 5224   1.335   3.738   5.127
  194OcOH    CD 5225   1.338   3.704   0.094
  194OcOH   HE1 5226   1.463   3.585   0.222
  194OcOH   HE2 5227   1.449   3.523   0.059
  194OcOH    CE 5228   1.461   3.615   0.117
  194OcOH   HF1 5229   1.607   3.774   0.138
  194OcOH   HF2 5230   1.589   3.714   5.111
  194OcOH    CF 5231   1.594   3.683   0.079
  194OcOH   HG1 5232   1.704   3.501   0.038
  194OcOH   HG2 5233   1.804   3.643   0.057
  194OcOH    CG 5234   1.716   3.591   0.097
  194OcOH   HH1 5235   1.837   3.495   0.250
  194OcOH   HH2 5236   1.665   3.494   0.287
  194OcOH   HH3 5237   1.759   3.643   0.305
  194OcOH    CH 5238   1.745   3.554   0.243
  195OcOH    HO 5239   2.082   3.615   1.974
  195OcOH    OH 5240   2.148   3.666   1.925
  195OcOH   HA1 5241   2.157   3.773   1.750
  195OcOH   HA2 5242   2.032   3.650   1.758
  195OcOH    CA 5243   2.083   3.727   1.816
  195OcOH   HB1 5244   1.914   3.784   1.937
  195OcOH   HB2 5245   1.924   3.867   1.784
  195OcOH    CB 5246   1.984   3.831   1.868
  195OcOH   HC1 5247   2.116   3.916   2.017
  195OcOH   HC2 5248   2.116   4.003   1.866
  195OcOH    CC 5249   2.051   3.951   1.937
  195OcOH   HD1 5250   1.886   3.995   2.066
  195OcOH   HD2 5251   1.880   4.082   1.914
  195OcOH    CD 5252   1.947   4.049   1.994
  195OcOH   HE1 5253   2.078   4.139   2.141
  195OcOH   HE2 5254   2.071   4.226   1.990
  195OcOH    CE 5255   2.010   4.171   2.062
  195OcOH   HF1 5256   1.843   4.209   2.193
  195OcOH   HF2 5257   1.835   4.297   2.042
  195OcOH    CF 5258   1.903   4.264   2.121
  195OcOH   HG1 5259   2.027   4.354   2.273
  195OcOH   HG2 5260   2.025   4.443   2.122
  195OcOH    CG 5261   1.962   4.387   2.191
  195OcOH   HH1 5262   1.791   4.521   2.168
  195OcOH   HH2 5263   1.900   4.563   2.301
  195OcOH   HH3 5264   1.790   4.427   2.318
  195OcOH    CH 5265   1.854   4.480   2.248
  196OcOH    HO 5266   0.193   4.816   2.553
  196OcOH    OH 5267   0.101   4.792   2.541
  196OcOH   HA1 5268   0.143   4.592   2.569
  196OcOH   HA2 5269   5.124   4.630   2.499
  196OcOH    CA 5270   0.093   4.657   2.498
  196OcOH   HB1 5271   0.113   4.719   2.291
  196OcOH   HB2 5272   0.107   4.547   2.315
  196OcOH    CB 5273   0.148   4.639   2.356
  196OcOH   HC1 5274   0.345   4.719   2.393
  196OcOH   HC2 5275   0.333   4.546   2.413
  196OcOH    CC 5276   0.301   4.629   2.350
  196OcOH   HD1 5277   0.328   4.695   2.147
  196OcOH   HD2 5278   0.304   4.523   2.162
  196OcOH    CD 5279   0.354   4.609   2.207
  196OcOH   HE1 5280   0.556   4.671   2.253
  196OcOH   HE2 5281   0.531   4.498   2.263
  196OcOH    CE 5282   0.506   4.587   2.204
  196OcOH   HF1 5283   0.537   4.660   2.003
  196OcOH   HF2 5284   0.510   4.487   2.013
  196OcOH    CF 5285   0.561   4.570   2.062
  196OcOH   HG1 5286   0.764   4.629   2.108
  196OcOH   HG2 5287   0.736   4.457   2.118
  196OcOH    CG 5288   0.712   4.546   2.060
  196OcOH   HH1 5289   0.751   4.618   1.857
  196OcOH   HH2 5290   0.875   4.510   1.919
  196OcOH   HH3 5291   0.720   4.444   1.867
  196OcOH    CH 5292   0.767   4.528   1.917
  197OcOH    HO 5293   3.368   3.255   2.063
  197OcOH    OH 5294   3.319   3.336   2.041
  197OcOH   HA1 5295   3.292   3.521   2.125
  197OcOH   HA2 5296   3.215   3.389   2.211
  197OcOH    CA 5297   3.305   3.417   2.156
  197OcOH   HB1 5298   3.517   3.432   2.194
  197OcOH   HB2 5299   3.439   3.298   2.276
  197OcOH    CB 5300   3.427   3.402   2.248
  197OcOH   HC1 5301   3.422   3.594   2.348
  197OcOH   HC2 5302   3.313   3.475   2.415
  197OcOH    CC 5303   3.413   3.488   2.374
  197OcOH   HD1 5304   3.617   3.464   2.446
  197OcOH   HD2 5305   3.504   3.347   2.510
  197OcOH    CD 5306   3.515   3.452   2.484
  197OcOH   HE1 5307   3.526   3.641   2.589
  197OcOH   HE2 5308   3.389   3.542   2.635
  197OcOH    CE 5309   3.496   3.538   2.610
  197OcOH   HF1 5310   3.679   3.477   2.707
  197OcOH   HF2 5311   3.539   3.383   2.752
  197OcOH    CF 5312   3.573   3.484   2.731
  197OcOH   HG1 5313   3.596   3.670   2.839
  197OcOH   HG2 5314   3.446   3.586   2.874
  197OcOH    CG 5315   3.553   3.571   2.856
  197OcOH   HH1 5316   3.568   3.414   3.004
  197OcOH   HH2 5317   3.606   3.574   3.067
  197OcOH   HH3 5318   3.722   3.489   2.965
  197OcOH    CH 5319   3.616   3.509   2.980
  198OcOH    HO 5320   4.271   2.175   1.963
  198OcOH    OH 5321   4.336   2.172   1.893
  198OcOH   HA1 5322   4.334   2.371   1.840
  198OcOH   HA2 5323   4.359   2.259   1.707
  198OcOH    CA 5324   4.304   2.274   1.800
  198OcOH   HB1 5325   4.098   2.285   1.867
  198OcOH   HB2 5326   4.124   2.174   1.734
  198OcOH    CB 5327   4.153   2.272   1.773
  198OcOH   HC1 5328   4.132   2.480   1.715
  198OcOH   HC2 5329   4.166   2.372   1.582
  198OcOH    CC 5330   4.108   2.381   1.674
  198OcOH   HD1 5331   3.901   2.388   1.734
  198OcOH   HD2 5332   3.934   2.272   1.609
  198OcOH    CD 5333   3.958   2.373   1.642
  198OcOH   HE1 5334   3.931   2.574   1.570
  198OcOH   HE2 5335   3.972   2.458   1.445
  198OcOH    CE 5336   3.912   2.473   1.535
  198OcOH   HF1 5337   3.703   2.466   1.591
  198OcOH   HF2 5338   3.747   2.352   1.468
  198OcOH    CF 5339   3.763   2.455   1.501
  198OcOH   HG1 5340   3.777   2.544   1.304
  198OcOH   HG2 5341   3.614   2.515   1.358
  198OcOH    CG 5342   3.712   2.550   1.391
  198OcOH   HH1 5343   3.660   2.758   1.356
  198OcOH   HH2 5344   3.793   2.737   1.470
  198OcOH   HH3 5345   3.628   2.704   1.521
  198OcOH    CH 5346   3.698   2.695   1.437
  199OcOH    HO 5347   1.664   0.949   2.599
  199OcOH    OH 5348   1.583   0.996   2.624
  199OcOH   HA1 5349   1.539   0.990   2.423
  199OcOH   HA2 5350   1.423   1.073   2.526
  199OcOH    CA 5351   1.530   1.057   2.509
  199OcOH   HB1 5352   1.593   1.253   2.573
  199OcOH   HB2 5353   1.543   1.245   2.406
  199OcOH    CB 5354   1.599   1.191   2.484
  199OcOH   HC1 5355   1.802   1.120   2.511
  199OcOH   HC2 5356   1.748   1.123   2.345
  199OcOH    CC 5357   1.745   1.178   2.438
  199OcOH   HD1 5358   1.824   1.363   2.517
  199OcOH   HD2 5359   1.745   1.380   2.363
  199OcOH    CD 5360   1.812   1.315   2.420
  199OcOH   HE1 5361   2.018   1.248   2.405
  199OcOH   HE2 5362   1.935   1.258   2.252
  199OcOH    CE 5363   1.947   1.309   2.348
  199OcOH   HF1 5364   2.041   1.490   2.420
  199OcOH   HF2 5365   1.925   1.516   2.292
  199OcOH    CF 5366   2.005   1.449   2.325
  199OcOH   HG1 5367   2.201   1.393   2.253
  199OcOH   HG2 5368   2.081   1.410   2.127
  199OcOH    CG 5369   2.117   1.454   2.220
  199OcOH   HH1 5370   2.208   1.643   2.280
  199OcOH   HH2 5371   2.080   1.660   2.162
  199OcOH   HH3 5372   2.237   1.600   2.112
  199OcOH    CH 5373   2.163   1.597   2.192
  200OcOH    HO 5374   2.094   4.835   3.987
  200OcOH    OH 5375   2.118   4.775   3.914
  200OcOH   HA1 5376   1.993   4.635   3.995
  200OcOH   HA2 5377   1.922   4.734   3.868
  200OcOH    CA 5378   2.013   4.682   3.899
  200OcOH   HB1 5379   1.978   4.497   3.795
  200OcOH   HB2 5380   2.147   4.529   3.827
  200OcOH    CB 5381   2.053   4.576   3.796
  200OcOH   HC1 5382   1.974   4.676   3.622
  200OcOH   HC2 5383   2.141   4.713   3.653
  200OcOH    CC 5384   2.068   4.632   3.653
  200OcOH   HD1 5385   2.040   4.442   3.552
  200OcOH   HD2 5386   2.207   4.484   3.582
  200OcOH    CD 5387   2.111   4.525   3.552
  200OcOH   HE1 5388   2.027   4.621   3.377
  200OcOH   HE2 5389   2.193   4.666   3.410
  200OcOH    CE 5390   2.123   4.582   3.409
  200OcOH   HF1 5391   2.102   4.392   3.308
  200OcOH   HF2 5392   2.268   4.436   3.341
  200OcOH    CF 5393   2.171   4.476   3.308
  200OcOH   HG1 5394   2.089   4.571   3.132
  200OcOH   HG2 5395   2.254   4.617   3.167
  200OcOH    CG 5396   2.186   4.532   3.166
  200OcOH   HH1 5397   2.244   4.470   2.966
  200OcOH   HH2 5398   2.169   4.342   3.061
  200OcOH   HH3 5399   2.335   4.391   3.094
  200OcOH    CH 5400   2.236   4.428   3.066
  201OcOH    HO 5401   4.737   4.175   1.814
  201OcOH    OH 5402   4.830   4.156   1.829
  201OcOH   HA1 5403   4.838   4.355   1.873
  201OcOH   HA2 5404   4.853   4.248   2.010
  201OcOH    CA 5405   4.883   4.261   1.906
  201OcOH   HB1 5406   5.070   4.354   1.951
  201OcOH   HB2 5407   5.061   4.292   1.789
  201OcOH    CB 5408   5.035   4.269   1.892
  201OcOH   HC1 5409   5.064   4.108   2.032
  201OcOH   HC2 5410   5.092   4.063   1.866
  201OcOH    CC 5411   5.109   4.142   1.938
  201OcOH   HD1 5412   0.161   4.077   2.017
  201OcOH   HD2 5413   0.137   4.249   2.027
  201OcOH    CD 5414   0.123   4.163   1.962
  201OcOH   HE1 5415   0.199   4.091   1.772
  201OcOH   HE2 5416   0.160   4.260   1.773
  201OcOH    CE 5417   0.205   4.181   1.833
  201OcOH   HF1 5418   0.356   4.309   1.919
  201OcOH   HF2 5419   0.398   4.244   1.764
  201OcOH    CF 5420   0.352   4.219   1.859
  201OcOH   HG1 5421   0.396   4.088   2.026
  201OcOH   HG2 5422   0.423   4.015   1.870
  201OcOH    CG 5423   0.434   4.108   1.926
  201OcOH   HH1 5424   0.640   4.062   1.981
  201OcOH   HH2 5425   0.599   4.233   1.996
  201OcOH   HH3 5426   0.626   4.162   1.837
  201OcOH    CH 5427   0.583   4.143   1.935
  202OcOH    HO 5428   1.429   0.434   1.414
  202OcOH    OH 5429   1.346   0.386   1.427
  202OcOH   HA1 5430   1.434   0.378   1.612
  202OcOH   HA2 5431   1.259   0.368   1.610
  202OcOH    CA 5432   1.349   0.335   1.558
  202OcOH   HB1 5433   1.265   0.144   1.510
  202OcOH   HB2 5434   1.355   0.144   1.659
  202OcOH    CB 5435   1.356   0.182   1.556
  202OcOH   HC1 5436   1.464   0.016   1.473
  202OcOH   HC2 5437   1.478   0.161   1.379
  202OcOH    CC 5438   1.477   0.123   1.481
  202OcOH   HD1 5439   1.611   0.118   1.651
  202OcOH   HD2 5440   1.630   0.259   1.551
  202OcOH    CD 5441   1.613   0.152   1.548
  202OcOH   HE1 5442   1.712   5.114   1.468
  202OcOH   HE2 5443   1.733   0.122   1.371
  202OcOH    CE 5444   1.730   0.085   1.474
  202OcOH   HF1 5445   1.862   0.075   1.644
  202OcOH   HF2 5446   1.882   0.219   1.548
  202OcOH    CF 5447   1.865   0.112   1.542
  202OcOH   HG1 5448   1.965   5.074   1.461
  202OcOH   HG2 5449   1.985   0.081   1.364
  202OcOH    CG 5450   1.982   0.045   1.467
  202OcOH   HH1 5451   2.198   0.026   1.477
  202OcOH   HH2 5452   2.138   0.179   1.539
  202OcOH   HH3 5453   2.120   0.033   1.635
  202OcOH    CH 5454   2.117   0.072   1.534
  203OcOH    HO 5455   2.457   1.766   0.834
  203OcOH    OH 5456   2.488   1.829   0.767
  203OcOH   HA1 5457   2.296   1.897   0.796
  203OcOH   HA2 5458   2.399   2.001   0.700
  203OcOH    CA 5459   2.373   1.897   0.719
  203OcOH   HB1 5460   2.402   1.835   0.515
  203OcOH   HB2 5461   2.240   1.889   0.551
  203OcOH    CB 5462   2.323   1.830   0.590
  203OcOH   HC1 5463   2.361   1.626   0.649
  203OcOH   HC2 5464   2.200   1.680   0.686
  203OcOH    CC 5465   2.278   1.685   0.610
  203OcOH   HD1 5466   2.304   1.632   0.402
  203OcOH   HD2 5467   2.140   1.675   0.444
  203OcOH    CD 5468   2.228   1.621   0.480
  203OcOH   HE1 5469   2.282   1.419   0.531
  203OcOH   HE2 5470   2.119   1.461   0.576
  203OcOH    CE 5471   2.194   1.472   0.497
  203OcOH   HF1 5472   2.215   1.427   0.288
  203OcOH   HF2 5473   2.050   1.459   0.336
  203OcOH    CF 5474   2.142   1.409   0.367
  203OcOH   HG1 5475   2.098   1.219   0.277
  203OcOH   HG2 5476   2.208   1.208   0.412
  203OcOH    CG 5477   2.117   1.258   0.377
  203OcOH   HH1 5478   1.907   1.269   0.436
  203OcOH   HH2 5479   2.018   1.249   0.572
  203OcOH   HH3 5480   1.982   1.113   0.467
  203OcOH    CH 5481   1.999   1.220   0.469
  204OcOH    HO 5482   2.825   3.901   0.642
  204OcOH    OH 5483   2.729   3.896   0.630
  204OcOH   HA1 5484   2.758   3.737   0.505
  204OcOH   HA2 5485   2.599   3.810   0.497
  204OcOH    CA 5486   2.705   3.832   0.506
  204OcOH   HB1 5487   2.740   3.866   0.297
  204OcOH   HB2 5488   2.859   3.941   0.400
  204OcOH    CB 5489   2.752   3.921   0.390
  204OcOH   HC1 5490   2.568   4.032   0.376
  204OcOH   HC2 5491   2.690   4.111   0.472
  204OcOH    CC 5492   2.675   4.054   0.381
  204OcOH   HD1 5493   2.696   4.085   0.167
  204OcOH   HD2 5494   2.824   4.154   0.263
  204OcOH    CD 5495   2.716   4.139   0.260
  204OcOH   HE1 5496   2.661   4.326   0.354
  204OcOH   HE2 5497   2.701   4.339   0.185
  204OcOH    CE 5498   2.648   4.277   0.257
  204OcOH   HF1 5499   2.447   4.201   0.284
  204OcOH   HF2 5500   2.488   4.232   0.118
  204OcOH    CF 5501   2.499   4.271   0.219
  204OcOH   HG1 5502   2.321   4.390   0.213
  204OcOH   HG2 5503   2.436   4.445   0.333
  204OcOH    CG 5504   2.427   4.407   0.231
  204OcOH   HH1 5505   2.418   4.604   0.140
  204OcOH   HH2 5506   2.469   4.478   0.029
  204OcOH   HH3 5507   2.581   4.540   0.150
  204OcOH    CH 5508   2.477   4.513   0.132
  205OcOH    HO 5509   3.357   3.389   4.641
  205OcOH    OH 5510   3.312   3.466   4.603
  205OcOH   HA1 5511   3.271   3.539   4.792
  205OcOH   HA2 5512   3.423   3.592   4.722
  205OcOH    CA 5513   3.318   3.571   4.699
  205OcOH   HB1 5514   3.293   3.718   4.543
  205OcOH   HB2 5515   3.271   3.781   4.704
  205OcOH    CB 5516   3.249   3.695   4.640
  205OcOH   HC1 5517   3.074   3.584   4.583
  205OcOH   HC2 5518   3.055   3.676   4.730
  205OcOH    CC 5519   3.097   3.680   4.629
  205OcOH   HD1 5520   3.067   3.793   4.447
  205OcOH   HD2 5521   3.062   3.889   4.592
  205OcOH    CD 5522   3.031   3.793   4.550
  205OcOH   HE1 5523   2.839   3.795   4.652
  205OcOH   HE2 5524   2.839   3.875   4.497
  205OcOH    CE 5525   2.877   3.787   4.549
  205OcOH   HF1 5526   2.848   3.572   4.541
  205OcOH   HF2 5527   2.865   3.647   4.384
  205OcOH    CF 5528   2.820   3.660   4.483
  205OcOH   HG1 5529   2.622   3.683   4.567
  205OcOH   HG2 5530   2.638   3.749   4.406
  205OcOH    CG 5531   2.667   3.665   4.469
  205OcOH   HH1 5532   2.632   3.449   4.473
  205OcOH   HH2 5533   2.650   3.516   4.310
  205OcOH   HH3 5534   2.501   3.542   4.400
  205OcOH    CH 5535   2.610   3.535   4.410
  206OcOH    HO 5536   5.134   0.562   3.981
  206OcOH    OH 5537   5.085   0.620   4.040
  206OcOH   HA1 5538   4.922   0.610   4.165
  206OcOH   HA2 5539   4.897   0.547   4.004
  206OcOH    CA 5540   4.969   0.552   4.086
  206OcOH   HB1 5541   5.044   0.355   4.048
  206OcOH   HB2 5542   4.913   0.358   4.163
  206OcOH    CB 5543   5.004   0.410   4.133
  206OcOH   HC1 5544   0.001   0.299   4.260
  206OcOH   HC2 5545   0.061   0.458   4.220
  206OcOH    CC 5546   5.107   0.403   4.248
  206OcOH   HD1 5547   4.962   0.404   4.409
  206OcOH   HD2 5548   5.029   0.562   4.374
  206OcOH    CD 5549   5.055   0.456   4.383
  206OcOH   HE1 5550   0.046   0.333   4.507
  206OcOH   HE2 5551   0.114   0.488   4.465
  206OcOH    CE 5552   0.022   0.439   4.495
  206OcOH   HF1 5553   5.088   0.603   4.618
  206OcOH   HF2 5554   0.067   0.498   4.697
  206OcOH    CF 5555   5.116   0.498   4.631
  206OcOH   HG1 5556   4.912   0.428   4.639
  206OcOH   HG2 5557   5.027   0.315   4.706
  206OcOH    CG 5558   5.002   0.421   4.699
  206OcOH   HH1 5559   5.058   0.464   4.906
  206OcOH   HH2 5560   4.889   0.420   4.885
  206OcOH   HH3 5561   4.944   0.579   4.837
  206OcOH    CH 5562   4.972   0.474   4.840
  207OcOH    HO 5563   4.405   2.871   3.679
  207OcOH    OH 5564   4.486   2.819   3.686
  207OcOH   HA1 5565   4.466   2.830   3.889
  207OcOH   HA2 5566   4.624   2.778   3.832
  207OcOH    CA 5567   4.542   2.847   3.812
  207OcOH   HB1 5568   4.510   3.059   3.786
  207OcOH   HB2 5569   4.670   3.005   3.741
  207OcOH    CB 5570   4.591   2.992   3.815
  207OcOH   HC1 5571   4.561   3.028   4.026
  207OcOH   HC2 5572   4.719   2.964   3.986
  207OcOH    CC 5573   4.643   3.034   3.953
  207OcOH   HD1 5574   4.627   3.248   3.922
  207OcOH   HD2 5575   4.784   3.182   3.883
  207OcOH    CD 5576   4.702   3.176   3.955
  207OcOH   HE1 5577   4.671   3.219   4.165
  207OcOH   HE2 5578   4.821   3.138   4.131
  207OcOH    CE 5579   4.754   3.216   4.095
  207OcOH   HF1 5580   4.913   3.347   4.028
  207OcOH   HF2 5581   4.873   3.362   4.197
  207OcOH    CF 5582   4.829   3.350   4.098
  207OcOH   HG1 5583   4.702   3.468   3.967
  207OcOH   HG2 5584   4.654   3.472   4.135
  207OcOH    CG 5585   4.741   3.473   4.069
  207OcOH   HH1 5586   4.853   3.615   4.191
  207OcOH   HH2 5587   4.752   3.690   4.068
  207OcOH   HH3 5588   4.903   3.611   4.022
  207OcOH    CH 5589   4.817   3.605   4.088
  208OcOH    HO 5590   3.066   0.538   2.083
  208OcOH    OH 5591   3.106   0.613   2.036
  208OcOH   HA1 5592   2.934   0.598   1.929
  208OcOH   HA2 5593   2.944   0.739   2.032
  208OcOH    CA 5594   3.002   0.675   1.965
  208OcOH   HB1 5595   2.974   0.787   1.784
  208OcOH   HB2 5596   3.118   0.689   1.783
  208OcOH    CB 5597   3.058   0.755   1.846
  208OcOH   HC1 5598   3.079   0.942   1.952
  208OcOH   HC2 5599   3.226   0.847   1.945
  208OcOH    CC 5600   3.139   0.878   1.886
  208OcOH   HD1 5601   3.101   0.984   1.702
  208OcOH   HD2 5602   3.253   0.898   1.704
  208OcOH    CD 5603   3.187   0.960   1.765
  208OcOH   HE1 5604   3.190   1.152   1.862
  208OcOH   HE2 5605   3.341   1.066   1.871
  208OcOH    CE 5606   3.258   1.089   1.805
  208OcOH   HF1 5607   3.228   1.186   1.614
  208OcOH   HF2 5608   3.382   1.105   1.629
  208OcOH    CF 5609   3.310   1.167   1.683
  208OcOH   HG1 5610   3.306   1.363   1.774
  208OcOH   HG2 5611   3.459   1.281   1.791
  208OcOH    CG 5612   3.377   1.300   1.721
  208OcOH   HH1 5613   3.507   1.317   1.547
  208OcOH   HH2 5614   3.476   1.470   1.629
  208OcOH   HH3 5615   3.351   1.398   1.528
  208OcOH    CH 5616   3.431   1.375   1.599
  209OcOH    HO 5617   0.604   3.286   1.915
  209OcOH    OH 5618   0.646   3.248   1.836
  209OcOH   HA1 5619   0.590   3.182   1.650
  209OcOH   HA2 5620   0.483   3.135   1.781
  209OcOH    CA 5621   0.544   3.217   1.743
  209OcOH   HB1 5622   0.521   3.424   1.686
  209OcOH   HB2 5623   0.410   3.371   1.811
  209OcOH    CB 5624   0.458   3.341   1.718
  209OcOH   HC1 5625   0.399   3.294   1.515
  209OcOH   HC2 5626   0.293   3.227   1.636
  209OcOH    CC 5627   0.350   3.316   1.610
  209OcOH   HD1 5628   0.310   3.524   1.566
  209OcOH   HD2 5629   0.205   3.456   1.688
  209OcOH    CD 5630   0.254   3.435   1.593
  209OcOH   HE1 5631   0.195   3.389   1.390
  209OcOH   HE2 5632   0.095   3.314   1.512
  209OcOH    CE 5633   0.147   3.406   1.487
  209OcOH   HF1 5634   0.094   3.611   1.443
  209OcOH   HF2 5635   0.000   3.539   1.572
  209OcOH    CF 5636   0.044   3.519   1.474
  209OcOH   HG1 5637   5.110   3.472   1.275
  209OcOH   HG2 5638   5.023   3.390   1.402
  209OcOH    CG 5639   5.068   3.486   1.375
  209OcOH   HH1 5640   4.879   3.566   1.302
  209OcOH   HH2 5641   5.000   3.689   1.337
  209OcOH   HH3 5642   4.915   3.609   1.469
  209OcOH    CH 5643   4.959   3.594   1.370
  210OcOH    HO 5644   4.360   4.284   4.701
  210OcOH    OH 5645   4.339   4.286   4.607
  210OcOH   HA1 5646   4.291   4.485   4.628
  210OcOH   HA2 5647   4.243   4.411   4.477
  210OcOH    CA 5648   4.250   4.394   4.584
  210OcOH   HB1 5649   4.068   4.277   4.592
  210OcOH   HB2 5650   4.045   4.448   4.616
  210OcOH    CB 5651   4.111   4.364   4.641
  210OcOH   HC1 5652   4.163   4.251   4.816
  210OcOH   HC2 5653   4.169   4.423   4.841
  210OcOH    CC 5654   4.111   4.344   4.793
  210OcOH   HD1 5655   3.909   4.269   4.800
  210OcOH   HD2 5656   3.924   4.438   4.843
  210OcOH    CD 5657   3.971   4.340   4.854
  210OcOH   HE1 5658   4.015   4.199   5.011
  210OcOH   HE2 5659   4.045   4.365   5.056
  210OcOH    CE 5660   3.975   4.301   5.003
  210OcOH   HF1 5661   3.765   4.249   5.015
  210OcOH   HF2 5662   3.802   4.411   5.069
  210OcOH    CF 5663   3.838   4.308   5.071
  210OcOH   HG1 5664   3.876   4.153   0.080
  210OcOH   HG2 5665   3.920   4.313   0.133
  210OcOH    CG 5666   3.844   4.257   0.079
  210OcOH   HH1 5667   3.631   4.216   0.102
  210OcOH   HH2 5668   3.682   4.374   0.162
  210OcOH   HH3 5669   3.719   4.230   0.255
  210OcOH    CH 5670   3.711   4.270   0.154
  211OcOH    HO 5671   1.215   2.900   3.845
  211OcOH    OH 5672   1.233   2.820   3.895
  211OcOH   HA1 5673   1.142   2.639   3.924
  211OcOH   HA2 5674   1.040   2.764   3.856
  211OcOH    CA 5675   1.140   2.722   3.853
  211OcOH   HB1 5676   1.106   2.590   3.687
  211OcOH   HB2 5677   1.274   2.628   3.712
  211OcOH    CB 5678   1.174   2.671   3.712
  211OcOH   HC1 5679   1.061   2.821   3.605
  211OcOH   HC2 5680   1.229   2.863   3.629
  211OcOH    CC 5681   1.162   2.781   3.604
  211OcOH   HD1 5682   1.130   2.647   3.438
  211OcOH   HD2 5683   1.297   2.692   3.462
  211OcOH    CD 5684   1.195   2.730   3.463
  211OcOH   HE1 5685   1.080   2.881   3.360
  211OcOH   HE2 5686   1.249   2.923   3.381
  211OcOH    CE 5687   1.181   2.841   3.357
  211OcOH   HF1 5688   1.146   2.707   3.190
  211OcOH   HF2 5689   1.314   2.753   3.210
  211OcOH    CF 5690   1.212   2.791   3.214
  211OcOH   HG1 5691   1.094   2.941   3.113
  211OcOH   HG2 5692   1.262   2.985   3.132
  211OcOH    CG 5693   1.195   2.901   3.109
  211OcOH   HH1 5694   1.212   2.932   2.894
  211OcOH   HH2 5695   1.157   2.771   2.938
  211OcOH   HH3 5696   1.327   2.815   2.958
  211OcOH    CH 5697   1.225   2.852   2.967
  212OcOH    HO 5698   0.743   3.444   4.982
  212OcOH    OH 5699   0.764   3.362   4.936
  212OcOH   HA1 5700   0.612   3.264   5.031
  212OcOH   HA2 5701   0.737   3.160   4.967
  212OcOH    CA 5702   0.720   3.255   5.017
  212OcOH   HB1 5703   0.749   3.181   0.080
  212OcOH   HB2 5704   0.769   3.354   0.066
  212OcOH    CB 5705   0.791   3.259   0.017
  212OcOH   HC1 5706   0.966   3.147   5.092
  212OcOH   HC2 5707   0.985   3.320   5.082
  212OcOH    CC 5708   0.943   3.241   0.007
  212OcOH   HD1 5709   0.973   3.161   0.206
  212OcOH   HD2 5710   0.986   3.335   0.196
  212OcOH    CD 5711   1.012   3.242   0.144
  212OcOH   HE1 5712   1.192   3.135   0.089
  212OcOH   HE2 5713   1.202   3.308   0.066
  212OcOH    CE 5714   1.165   3.231   0.134
  212OcOH   HF1 5715   1.201   3.165   0.336
  212OcOH   HF2 5716   1.202   3.339   0.317
  212OcOH    CF 5717   1.234   3.246   0.270
  212OcOH   HG1 5718   1.421   3.152   0.214
  212OcOH   HG2 5719   1.419   3.326   0.195
  212OcOH    CG 5720   1.387   3.245   0.260
  212OcOH   HH1 5721   1.562   3.264   0.387
  212OcOH   HH2 5722   1.429   3.178   0.463
  212OcOH   HH3 5723   1.423   3.353   0.446
  212OcOH    CH 5724   1.454   3.261   0.397
  213OcOH    HO 5725   4.253   4.987   4.314
  213OcOH    OH 5726   4.327   4.965   4.371
  213OcOH   HA1 5727   4.518   4.898   4.351
  213OcOH   HA2 5728   4.421   4.886   4.206
  213OcOH    CA 5729   4.443   4.949   4.292
  213OcOH   HB1 5730   4.591   5.073   4.197
  213OcOH   HB2 5731   4.517   0.010   4.337
  213OcOH    CB 5732   4.496   5.086   4.248
  213OcOH   HC1 5733   4.373   5.097   4.072
  213OcOH   HC2 5734   4.307   0.046   4.209
  213OcOH    CC 5735   4.400   0.026   4.156
  213OcOH   HD1 5736   4.387   0.192   4.023
  213OcOH   HD2 5737   4.551   0.138   4.049
  213OcOH    CD 5738   4.456   0.157   4.100
  213OcOH   HE1 5739   4.381   0.282   4.258
  213OcOH   HE2 5740   4.549   0.238   4.277
  213OcOH    CE 5741   4.474   0.268   4.204
  213OcOH   HF1 5742   4.445   0.426   4.060
  213OcOH   HF2 5743   4.613   0.390   4.089
  213OcOH    CF 5744   4.516   0.401   4.138
  213OcOH   HG1 5745   4.535   0.612   4.179
  213OcOH   HG2 5746   4.427   0.529   4.289
  213OcOH    CG 5747   4.522   0.520   4.236
  213OcOH   HH1 5748   4.733   0.500   4.289
  213OcOH   HH2 5749   4.624   0.423   4.403
  213OcOH   HH3 5750   4.640   0.598   4.402
  213OcOH    CH 5751   4.637   0.509   4.338
  214OcOH    HO 5752   0.095   0.714   1.552
  214OcOH    OH 5753   0.165   0.649   1.567
  214OcOH   HA1 5754   0.054   0.578   1.724
  214OcOH   HA2 5755   0.021   0.505   1.568
  214OcOH    CA 5756   0.101   0.541   1.633
  214OcOH   HB1 5757   0.251   0.397   1.574
  214OcOH   HB2 5758   0.142   0.341   1.698
  214OcOH    CB 5759   0.199   0.428   1.665
  214OcOH   HC1 5760   0.359   0.549   1.743
  214OcOH   HC2 5761   0.248   0.496   1.865
  214OcOH    CC 5762   0.300   0.463   1.775
  214OcOH   HD1 5763   0.436   0.305   1.718
  214OcOH   HD2 5764   0.334   0.265   1.854
  214OcOH    CD 5765   0.393   0.345   1.809
  214OcOH   HE1 5766   0.564   0.467   1.862
  214OcOH   HE2 5767   0.465   0.422   1.998
  214OcOH    CE 5768   0.507   0.385   1.905
  214OcOH   HF1 5769   0.641   0.229   1.841
  214OcOH   HF2 5770   0.545   0.186   1.981
  214OcOH    CF 5771   0.601   0.267   1.935
  214OcOH   HG1 5772   0.771   0.392   1.984
  214OcOH   HG2 5773   0.679   0.342   2.123
  214OcOH    CG 5774   0.718   0.308   2.027
  214OcOH   HH1 5775   0.858   0.157   1.956
  214OcOH   HH2 5776   0.767   0.108   2.099
  214OcOH   HH3 5777   0.899   0.224   2.114
  214OcOH    CH 5778   0.816   0.193   2.050
  215OcOH    HO 5779   3.950   4.923   1.933
  215OcOH    OH 5780   3.877   4.910   1.871
  215OcOH   HA1 5781   3.837   5.109   1.907
  215OcOH   HA2 5782   3.729   5.028   1.795
  215OcOH    CA 5783   3.784   5.015   1.888
  215OcOH   HB1 5784   3.639   4.886   1.984
  215OcOH   HB2 5785   3.605   5.056   1.998
  215OcOH    CB 5786   3.686   4.983   2.002
  215OcOH   HC1 5787   3.827   4.911   2.150
  215OcOH   HC2 5788   3.797   5.083   2.157
  215OcOH    CC 5789   3.748   4.987   2.142
  215OcOH   HD1 5790   3.598   4.866   2.239
  215OcOH   HD2 5791   3.563   5.038   2.241
  215OcOH    CD 5792   3.643   4.965   2.252
  215OcOH   HE1 5793   3.778   4.899   2.408
  215OcOH   HE2 5794   3.754   5.071   2.402
  215OcOH    CE 5795   3.702   4.976   2.394
  215OcOH   HF1 5796   3.525   5.049   2.492
  215OcOH   HF2 5797   3.648   4.994   2.602
  215OcOH    CF 5798   3.598   4.970   2.507
  215OcOH   HG1 5799   3.451   4.846   2.602
  215OcOH   HG2 5800   3.467   4.814   2.433
  215OcOH    CG 5801   3.525   4.836   2.523
  215OcOH   HH1 5802   3.676   4.736   2.645
  215OcOH   HH2 5803   3.685   4.695   2.474
  215OcOH   HH3 5804   3.558   4.627   2.574
  215OcOH    CH 5805   3.616   4.717   2.556
  216OcOH    HO 5806   3.938   0.259   1.816
  216OcOH    OH 5807   3.998   0.188   1.843
  216OcOH   HA1 5808   4.148   0.155   1.977
  216OcOH   HA2 5809   4.132   0.322   1.923
  216OcOH    CA 5810   4.075   0.233   1.952
  216OcOH   HB1 5811   3.923   0.172   2.091
  216OcOH   HB2 5812   3.913   0.341   2.044
  216OcOH    CB 5813   3.983   0.262   2.070
  216OcOH   HC1 5814   4.131   0.223   2.221
  216OcOH   HC2 5815   4.116   0.392   2.180
  216OcOH    CC 5816   4.059   0.301   2.198
  216OcOH   HD1 5817   3.898   0.235   2.324
  216OcOH   HD2 5818   3.900   0.408   2.299
  216OcOH    CD 5819   3.964   0.321   2.317
  216OcOH   HE1 5820   4.107   0.254   2.464
  216OcOH   HE2 5821   4.099   0.428   2.449
  216OcOH    CE 5822   4.038   0.337   2.451
  216OcOH   HF1 5823   3.879   0.251   2.568
  216OcOH   HF2 5824   3.872   0.426   2.558
  216OcOH    CF 5825   3.941   0.341   2.569
  216OcOH   HG1 5826   4.084   0.270   2.714
  216OcOH   HG2 5827   4.068   0.444   2.711
  216OcOH    CG 5828   4.011   0.351   2.705
  216OcOH   HH1 5829   3.846   0.429   2.823
  216OcOH   HH2 5830   3.965   0.341   2.917
  216OcOH   HH3 5831   3.852   0.253   2.817
  216OcOH    CH 5832   3.913   0.343   2.822
  217OcOH    HO 5833   0.268   3.459   2.182
  217OcOH    OH 5834   0.351   3.503   2.158
  217OcOH   HA1 5835   0.269   3.617   2.010
  217OcOH   HA2 5836   0.244   3.678   2.173
  217OcOH    CA 5837   0.317   3.630   2.107
  217OcOH   HB1 5838   0.412   3.812   2.045
  217OcOH   HB2 5839   0.514   3.672   2.025
  217OcOH    CB 5840   0.442   3.718   2.093
  217OcOH   HC1 5841   0.434   3.778   2.300
  217OcOH   HC2 5842   0.557   3.661   2.266
  217OcOH    CC 5843   0.509   3.750   2.227
  217OcOH   HD1 5844   0.563   3.953   2.181
  217OcOH   HD2 5845   0.687   3.837   2.140
  217OcOH    CD 5846   0.613   3.863   2.216
  217OcOH   HE1 5847   0.609   3.901   2.428
  217OcOH   HE2 5848   0.747   3.809   2.377
  217OcOH    CE 5849   0.684   3.893   2.349
  217OcOH   HF1 5850   0.795   4.047   2.449
  217OcOH   HF2 5851   0.704   4.105   2.313
  217OcOH    CF 5852   0.766   4.023   2.347
  217OcOH   HG1 5853   0.956   3.933   2.296
  217OcOH   HG2 5854   0.867   3.989   2.158
  217OcOH    CG 5855   0.893   4.014   2.261
  217OcOH   HH1 5856   1.002   4.172   2.363
  217OcOH   HH2 5857   0.915   4.227   2.221
  217OcOH   HH3 5858   1.064   4.136   2.203
  217OcOH    CH 5859   0.973   4.145   2.262
  218OcOH    HO 5860   5.090   3.255   1.787
  218OcOH    OH 5861   0.012   3.179   1.783
  218OcOH   HA1 5862   0.162   3.278   1.881
  218OcOH   HA2 5863   0.047   3.195   1.984
  218OcOH    CA 5864   0.102   3.188   1.891
  218OcOH   HB1 5865   0.246   3.058   1.797
  218OcOH   HB2 5866   0.130   2.973   1.896
  218OcOH    CB 5867   0.192   3.063   1.891
  218OcOH   HC1 5868   0.355   3.151   2.002
  218OcOH   HC2 5869   0.240   3.064   2.102
  218OcOH    CC 5870   0.293   3.061   2.006
  218OcOH   HD1 5871   0.435   2.933   1.905
  218OcOH   HD2 5872   0.322   2.847   2.007
  218OcOH    CD 5873   0.384   2.937   2.001
  218OcOH   HE1 5874   0.549   3.025   2.108
  218OcOH   HE2 5875   0.436   2.939   2.210
  218OcOH    CE 5876   0.488   2.935   2.114
  218OcOH   HF1 5877   0.640   2.816   2.019
  218OcOH   HF2 5878   0.518   2.721   2.101
  218OcOH    CF 5879   0.579   2.812   2.109
  218OcOH   HG1 5880   0.725   2.893   2.247
  218OcOH   HG2 5881   0.608   2.788   2.322
  218OcOH    CG 5882   0.669   2.800   2.233
  218OcOH   HH1 5883   0.831   2.678   2.312
  218OcOH   HH2 5884   0.834   2.695   2.137
  218OcOH   HH3 5885   0.716   2.588   2.213
  218OcOH    CH 5886   0.768   2.684   2.223
  219OcOH    HO 5887   0.218   0.835   1.239
  219OcOH    OH 5888   0.159   0.899   1.196
  219OcOH   HA1 5889   0.224   1.030   1.338
  219OcOH   HA2 5890   0.302   1.046   1.182
  219OcOH    CA 5891   0.206   1.027   1.231
  219OcOH   HB1 5892   0.004   1.104   1.228
  219OcOH   HB2 5893   0.095   1.138   1.082
  219OcOH    CB 5894   0.103   1.133   1.191
  219OcOH   HC1 5895   0.141   1.265   1.356
  219OcOH   HC2 5896   0.241   1.297   1.216
  219OcOH    CC 5897   0.139   1.271   1.248
  219OcOH   HD1 5898   5.076   1.347   1.222
  219OcOH   HD2 5899   0.051   1.398   1.097
  219OcOH    CD 5900   0.042   1.381   1.205
  219OcOH   HE1 5901   5.114   1.579   1.258
  219OcOH   HE2 5902   0.057   1.495   1.388
  219OcOH    CE 5903   0.061   1.513   1.281
  219OcOH   HF1 5904   0.193   1.608   1.139
  219OcOH   HF2 5905   0.277   1.523   1.266
  219OcOH    CF 5906   0.192   1.587   1.246
  219OcOH   HG1 5907   0.123   1.784   1.304
  219OcOH   HG2 5908   0.206   1.697   1.431
  219OcOH    CG 5909   0.208   1.718   1.324
  219OcOH   HH1 5910   0.348   1.883   1.349
  219OcOH   HH2 5911   0.341   1.820   1.185
  219OcOH   HH3 5912   0.425   1.730   1.311
  219OcOH    CH 5913   0.338   1.792   1.290
  220OcOH    HO 5914   2.908   0.369   2.205
  220OcOH    OH 5915   2.978   0.393   2.144
  220OcOH   HA1 5916   3.048   0.207   2.194
  220OcOH   HA2 5917   3.149   0.298   2.082
  220OcOH    CA 5918   3.087   0.307   2.171
  220OcOH   HB1 5919   3.217   0.456   2.258
  220OcOH   HB2 5920   3.253   0.292   2.307
  220OcOH    CB 5921   3.171   0.362   2.287
  220OcOH   HC1 5922   3.010   0.454   2.398
  220OcOH   HC2 5923   3.039   0.288   2.442
  220OcOH    CC 5924   3.089   0.381   2.416
  220OcOH   HD1 5925   3.226   0.521   2.509
  220OcOH   HD2 5926   3.250   0.355   2.558
  220OcOH    CD 5927   3.174   0.429   2.536
  220OcOH   HE1 5928   3.010   0.527   2.636
  220OcOH   HE2 5929   3.034   0.361   2.685
  220OcOH    CE 5930   3.087   0.453   2.660
  220OcOH   HF1 5931   3.219   0.594   2.759
  220OcOH   HF2 5932   3.244   0.427   2.805
  220OcOH    CF 5933   3.167   0.500   2.782
  220OcOH   HG1 5934   3.002   0.597   2.884
  220OcOH   HG2 5935   3.020   0.428   2.922
  220OcOH    CG 5936   3.076   0.520   2.905
  220OcOH   HH1 5937   3.231   0.483   3.053
  220OcOH   HH2 5938   3.086   0.559   3.118
  220OcOH   HH3 5939   3.199   0.655   3.023
  220OcOH    CH 5940   3.153   0.556   3.032
  221OcOH    HO 5941   0.761   3.829   0.724
  221OcOH    OH 5942   0.743   3.856   0.635
  221OcOH   HA1 5943   0.603   3.965   0.533
  221OcOH   HA2 5944   0.546   3.894   0.683
  221OcOH    CA 5945   0.632   3.943   0.636
  221OcOH   HB1 5946   0.590   4.146   0.692
  221OcOH   HB2 5947   0.759   4.116   0.666
  221OcOH    CB 5948   0.669   4.073   0.710
  221OcOH   HC1 5949   0.600   4.003   0.902
  221OcOH   HC2 5950   0.773   3.990   0.881
  221OcOH    CC 5951   0.687   4.054   0.861
  221OcOH   HD1 5952   0.617   4.251   0.914
  221OcOH   HD2 5953   0.789   4.243   0.895
  221OcOH    CD 5954   0.704   4.189   0.935
  221OcOH   HE1 5955   0.697   4.272   1.132
  221OcOH   HE2 5956   0.640   4.107   1.126
  221OcOH    CE 5957   0.717   4.175   1.087
  221OcOH   HF1 5958   0.932   4.196   1.092
  221OcOH   HF2 5959   0.878   4.030   1.094
  221OcOH    CF 5960   0.856   4.129   1.134
  221OcOH   HG1 5961   0.850   4.227   1.326
  221OcOH   HG2 5962   0.791   4.062   1.329
  221OcOH    CG 5963   0.869   4.127   1.287
  221OcOH   HH1 5964   1.025   3.977   1.302
  221OcOH   HH2 5965   1.012   4.081   1.443
  221OcOH   HH3 5966   1.086   4.142   1.296
  221OcOH    CH 5967   1.006   4.079   1.335
  222OcOH    HO 5968   1.297   2.530   1.282
  222OcOH    OH 5969   1.254   2.474   1.347
  222OcOH   HA1 5970   1.077   2.462   1.445
  222OcOH   HA2 5971   1.104   2.615   1.361
  222OcOH    CA 5972   1.116   2.506   1.353
  222OcOH   HB1 5973   1.065   2.344   1.220
  222OcOH   HB2 5974   1.080   2.499   1.142
  222OcOH    CB 5975   1.042   2.450   1.231
  222OcOH   HC1 5976   0.864   2.573   1.250
  222OcOH   HC2 5977   0.847   2.437   1.142
  222OcOH    CC 5978   0.889   2.468   1.238
  222OcOH   HD1 5979   0.855   2.422   1.447
  222OcOH   HD2 5980   0.856   2.282   1.343
  222OcOH    CD 5981   0.822   2.385   1.350
  222OcOH   HE1 5982   0.634   2.491   1.361
  222OcOH   HE2 5983   0.634   2.359   1.246
  222OcOH    CE 5984   0.669   2.389   1.345
  222OcOH   HF1 5985   0.642   2.322   1.549
  222OcOH   HF2 5986   0.638   2.194   1.431
  222OcOH    CF 5987   0.605   2.296   1.450
  222OcOH   HG1 5988   0.418   2.401   1.474
  222OcOH   HG2 5989   0.414   2.279   1.349
  222OcOH    CG 5990   0.452   2.300   1.449
  222OcOH   HH1 5991   0.417   2.097   1.521
  222OcOH   HH2 5992   0.282   2.206   1.547
  222OcOH   HH3 5993   0.425   2.218   1.649
  222OcOH    CH 5994   0.390   2.200   1.547
  223OcOH    HO 5995   2.416   2.695   1.352
  223OcOH    OH 5996   2.343   2.738   1.399
  223OcOH   HA1 5997   2.493   2.797   1.523
  223OcOH   HA2 5998   2.332   2.841   1.577
  223OcOH    CA 5999   2.390   2.762   1.530
  223OcOH   HB1 6000   2.431   2.551   1.559
  223OcOH   HB2 6001   2.279   2.604   1.627
  223OcOH    CB 6002   2.383   2.633   1.613
  223OcOH   HC1 6003   2.556   2.674   1.733
  223OcOH   HC2 6004   2.407   2.734   1.802
  223OcOH    CC 6005   2.451   2.649   1.749
  223OcOH   HD1 6006   2.482   2.438   1.784
  223OcOH   HD2 6007   2.338   2.502   1.859
  223OcOH    CD 6008   2.443   2.524   1.838
  223OcOH   HE1 6009   2.625   2.562   1.945
  223OcOH   HE2 6010   2.486   2.632   2.020
  223OcOH    CE 6011   2.521   2.543   1.969
  223OcOH   HF1 6012   2.589   2.437   2.143
  223OcOH   HF2 6013   2.543   2.332   2.012
  223OcOH    CF 6014   2.514   2.423   2.064
  223OcOH   HG1 6015   2.346   2.496   2.179
  223OcOH   HG2 6016   2.301   2.382   2.055
  223OcOH    CG 6017   2.376   2.404   2.131
  223OcOH   HH1 6018   2.405   2.196   2.189
  223OcOH   HH2 6019   2.279   2.279   2.280
  223OcOH   HH3 6020   2.449   2.312   2.314
  223OcOH    CH 6021   2.378   2.291   2.234
  224OcOH    HO 6022   0.833   3.278   4.785
  224OcOH    OH 6023   0.863   3.221   4.713
  224OcOH   HA1 6024   0.951   3.093   4.846
  224OcOH   HA2 6025   1.009   3.079   4.681
  224OcOH    CA 6026   0.977   3.151   4.757
  224OcOH   HB1 6027   1.055   3.325   4.858
  224OcOH   HB2 6028   1.119   3.302   4.698
  224OcOH    CB 6029   1.091   3.249   4.789
  224OcOH   HC1 6030   1.184   3.124   4.938
  224OcOH   HC2 6031   1.250   3.103   4.778
  224OcOH    CC 6032   1.214   3.178   4.848
  224OcOH   HD1 6033   1.290   3.349   4.955
  224OcOH   HD2 6034   1.354   3.332   4.793
  224OcOH    CD 6035   1.327   3.276   4.883
  224OcOH   HE1 6036   1.425   3.154   5.031
  224OcOH   HE2 6037   1.485   3.130   4.868
  224OcOH    CE 6038   1.451   3.206   4.939
  224OcOH   HF1 6039   1.532   3.382   5.035
  224OcOH   HF2 6040   1.589   3.358   4.873
  224OcOH    CF 6041   1.566   3.306   4.966
  224OcOH   HG1 6042   1.728   3.164   4.949
  224OcOH   HG2 6043   1.774   3.316   5.019
  224OcOH    CG 6044   1.695   3.241   5.018
  224OcOH   HH1 6045   1.610   3.100   0.026
  224OcOH   HH2 6046   1.778   3.143   0.057
  224OcOH   HH3 6047   1.650   3.258   0.094
  224OcOH    CH 6048   1.682   3.182   0.023
  225OcOH    HO 6049   1.327   2.903   4.164
  225OcOH    OH 6050   1.342   2.844   4.238
  225OcOH   HA1 6051   1.140   2.815   4.254
  225OcOH   HA2 6052   1.223   2.705   4.145
  225OcOH    CA 6053   1.231   2.757   4.241
  225OcOH   HB1 6054   1.263   2.707   4.449
  225OcOH   HB2 6055   1.332   2.591   4.337
  225OcOH    CB 6056   1.245   2.655   4.355
  225OcOH   HC1 6057   1.034   2.629   4.396
  225OcOH   HC2 6058   1.096   2.524   4.271
  225OcOH    CC 6059   1.119   2.567   4.369
  225OcOH   HD1 6060   1.213   2.386   4.438
  225OcOH   HD2 6061   1.041   2.391   4.463
  225OcOH    CD 6062   1.132   2.451   4.469
  225OcOH   HE1 6063   1.245   2.552   4.624
  225OcOH   HE2 6064   1.072   2.563   4.644
  225OcOH    CE 6065   1.152   2.495   4.615
  225OcOH   HF1 6066   1.238   2.309   4.683
  225OcOH   HF2 6067   1.064   2.318   4.702
  225OcOH    CF 6068   1.157   2.376   4.711
  225OcOH   HG1 6069   1.267   2.477   4.867
  225OcOH   HG2 6070   1.094   2.485   4.887
  225OcOH    CG 6071   1.176   2.419   4.858
  225OcOH   HH1 6072   1.265   2.234   4.931
  225OcOH   HH2 6073   1.090   2.240   4.947
  225OcOH   HH3 6074   1.191   2.332   5.057
  225OcOH    CH 6075   1.181   2.299   4.953
  226OcOH    HO 6076   1.011   4.056   3.634
  226OcOH    OH 6077   1.103   4.029   3.633
  226OcOH   HA1 6078   1.113   4.148   3.799
  226OcOH   HA2 6079   1.127   3.976   3.830
  226OcOH    CA 6080   1.156   4.055   3.761
  226OcOH   HB1 6081   1.333   4.146   3.679
  226OcOH   HB2 6082   1.352   3.976   3.716
  226OcOH    CB 6083   1.308   4.069   3.752
  226OcOH   HC1 6084   1.322   4.195   3.927
  226OcOH   HC2 6085   1.352   4.026   3.960
  226OcOH    CC 6086   1.371   4.106   3.887
  226OcOH   HD1 6087   1.540   4.208   3.801
  226OcOH   HD2 6088   1.571   4.041   3.841
  226OcOH    CD 6089   1.522   4.132   3.877
  226OcOH   HE1 6090   1.532   4.263   4.048
  226OcOH   HE2 6091   1.571   4.096   4.084
  226OcOH    CE 6092   1.585   4.175   4.010
  226OcOH   HF1 6093   1.748   4.283   3.919
  226OcOH   HF2 6094   1.787   4.118   3.960
  226OcOH    CF 6095   1.734   4.207   3.995
  226OcOH   HG1 6096   1.745   4.344   4.162
  226OcOH   HG2 6097   1.785   4.179   4.204
  226OcOH    CG 6098   1.797   4.255   4.127
  226OcOH   HH1 6099   2.003   4.199   4.079
  226OcOH   HH2 6100   1.989   4.321   4.206
  226OcOH   HH3 6101   1.963   4.366   4.038
  226OcOH    CH 6102   1.947   4.287   4.111
  227OcOH    HO 6103   1.789   3.032   0.851
  227OcOH    OH 6104   1.851   2.959   0.856
  227OcOH   HA1 6105   1.781   2.888   0.677
  227OcOH   HA2 6106   1.928   2.985   0.667
  227OcOH    CA 6107   1.876   2.909   0.726
  227OcOH   HB1 6108   1.907   2.710   0.800
  227OcOH   HB2 6109   2.053   2.805   0.792
  227OcOH    CB 6110   1.961   2.782   0.739
  227OcOH   HC1 6111   1.902   2.694   0.550
  227OcOH   HC2 6112   2.050   2.787   0.542
  227OcOH    CC 6113   1.994   2.716   0.604
  227OcOH   HD1 6114   2.018   2.516   0.681
  227OcOH   HD2 6115   2.166   2.608   0.679
  227OcOH    CD 6116   2.076   2.587   0.622
  227OcOH   HE1 6117   2.024   2.498   0.432
  227OcOH   HE2 6118   2.170   2.595   0.428
  227OcOH    CE 6119   2.115   2.523   0.488
  227OcOH   HF1 6120   2.146   2.324   0.569
  227OcOH   HF2 6121   2.291   2.421   0.559
  227OcOH    CF 6122   2.200   2.396   0.506
  227OcOH   HG1 6123   2.144   2.300   0.320
  227OcOH   HG2 6124   2.285   2.403   0.308
  227OcOH    CG 6125   2.235   2.330   0.372
  227OcOH   HH1 6126   2.421   2.234   0.436
  227OcOH   HH2 6127   2.350   2.163   0.291
  227OcOH   HH3 6128   2.278   2.130   0.449
  227OcOH    CH 6129   2.326   2.207   0.388
  228OcOH    HO 6130   3.458   3.208   4.025
  228OcOH    OH 6131   3.492   3.228   3.938
  228OcOH   HA1 6132   3.349   3.372   3.928
  228OcOH   HA2 6133   3.505   3.426   3.986
  228OcOH    CA 6134   3.456   3.362   3.913
  228OcOH   HB1 6135   3.447   3.333   3.699
  228OcOH   HB2 6136   3.601   3.393   3.756
  228OcOH    CB 6137   3.493   3.402   3.770
  228OcOH   HC1 6138   3.340   3.553   3.750
  228OcOH   HC2 6139   3.492   3.614   3.811
  228OcOH    CC 6140   3.449   3.546   3.738
  228OcOH   HD1 6141   3.443   3.522   3.524
  228OcOH   HD2 6142   3.595   3.584   3.584
  228OcOH    CD 6143   3.487   3.591   3.596
  228OcOH   HE1 6144   3.333   3.742   3.579
  228OcOH   HE2 6145   3.484   3.801   3.641
  228OcOH    CE 6146   3.441   3.734   3.567
  228OcOH   HF1 6147   3.588   3.782   3.414
  228OcOH   HF2 6148   3.451   3.890   3.419
  228OcOH    CF 6149   3.479   3.784   3.426
  228OcOH   HG1 6150   3.456   3.607   3.304
  228OcOH   HG2 6151   3.307   3.692   3.335
  228OcOH    CG 6152   3.413   3.706   3.312
  228OcOH   HH1 6153   3.375   3.875   3.179
  228OcOH   HH2 6154   3.379   3.719   3.098
  228OcOH   HH3 6155   3.529   3.795   3.150
  228OcOH    CH 6156   3.425   3.778   3.177
  229OcOH    HO 6157   1.925   1.780   4.704
  229OcOH    OH 6158   1.918   1.720   4.777
  229OcOH   HA1 6159   1.716   1.704   4.750
  229OcOH   HA2 6160   1.777   1.646   4.904
  229OcOH    CA 6161   1.787   1.725   4.830
  229OcOH   HB1 6162   1.769   1.940   4.817
  229OcOH   HB2 6163   1.839   1.883   4.967
  229OcOH    CB 6164   1.761   1.862   4.893
  229OcOH   HC1 6165   1.545   1.850   4.888
  229OcOH   HC2 6166   1.617   1.791   5.036
  229OcOH    CC 6167   1.624   1.870   4.961
  229OcOH   HD1 6168   1.605   2.085   4.951
  229OcOH   HD2 6169   1.676   2.029   5.100
  229OcOH    CD 6170   1.598   2.007   5.027
  229OcOH   HE1 6171   1.443   2.122   5.122
  229OcOH   HE2 6172   1.382   1.991   5.025
  229OcOH    CE 6173   1.460   2.018   5.096
  229OcOH   HF1 6174   1.531   1.958   0.154
  229OcOH   HF2 6175   1.460   1.827   0.063
  229OcOH    CF 6176   1.449   1.933   0.087
  229OcOH   HG1 6177   1.308   2.059   0.191
  229OcOH   HG2 6178   1.232   1.937   0.094
  229OcOH    CG 6179   1.316   1.955   0.161
  229OcOH   HH1 6180   1.207   1.885   0.336
  229OcOH   HH2 6181   1.382   1.886   0.357
  229OcOH   HH3 6182   1.305   1.760   0.260
  229OcOH    CH 6183   1.302   1.866   0.285
  230OcOH    HO 6184   4.709   3.886   4.736
  230OcOH    OH 6185   4.701   3.864   4.830
  230OcOH   HA1 6186   4.846   3.724   4.790
  230OcOH   HA2 6187   4.779   3.720   4.952
  230OcOH    CA 6188   4.754   3.734   4.847
  230OcOH   HB1 6189   4.563   3.637   4.868
  230OcOH   HB2 6190   4.691   3.530   4.824
  230OcOH    CB 6191   4.650   3.629   4.804
  230OcOH   HC1 6192   4.572   3.738   4.635
  230OcOH   HC2 6193   4.696   3.624   4.592
  230OcOH    CC 6194   4.609   3.638   4.656
  230OcOH   HD1 6195   4.417   3.545   4.690
  230OcOH   HD2 6196   4.539   3.435   4.630
  230OcOH    CD 6197   4.500   3.536   4.619
  230OcOH   HE1 6198   4.407   3.659   4.468
  230OcOH   HE2 6199   4.527   3.549   4.405
  230OcOH    CE 6200   4.446   3.557   4.477
  230OcOH   HF1 6201   4.255   3.464   4.515
  230OcOH   HF2 6202   4.374   3.356   4.447
  230OcOH    CF 6203   4.335   3.457   4.441
  230OcOH   HG1 6204   4.237   3.583   4.295
  230OcOH   HG2 6205   4.355   3.474   4.226
  230OcOH    CG 6206   4.276   3.481   4.301
  230OcOH   HH1 6207   4.123   3.404   4.169
  230OcOH   HH2 6208   4.083   3.388   4.339
  230OcOH   HH3 6209   4.201   3.280   4.267
  230OcOH    CH 6210   4.164   3.382   4.267
  231OcOH    HO 6211   5.033   4.014   0.375
  231OcOH    OH 6212   5.096   3.942   0.372
  231OcOH   HA1 6213   5.094   3.928   0.576
  231OcOH   HA2 6214   4.977   3.828   0.492
  231OcOH    CA 6215   5.080   3.864   0.489
  231OcOH   HB1 6216   0.145   3.787   0.488
  231OcOH   HB2 6217   0.032   3.692   0.396
  231OcOH    CB 6218   0.043   3.748   0.488
  231OcOH   HC1 6219   0.045   3.706   0.700
  231OcOH   HC2 6220   5.055   3.624   0.613
  231OcOH    CC 6221   0.024   3.653   0.608
  231OcOH   HD1 6222   0.215   3.554   0.592
  231OcOH   HD2 6223   0.087   3.474   0.506
  231OcOH    CD 6224   0.110   3.526   0.599
  231OcOH   HE1 6225   0.131   3.476   0.808
  231OcOH   HE2 6226   5.117   3.425   0.737
  231OcOH    CE 6227   0.088   3.432   0.718
  231OcOH   HF1 6228   0.086   3.239   0.619
  231OcOH   HF2 6229   0.115   3.233   0.789
  231OcOH    CF 6230   0.140   3.289   0.699
  231OcOH   HG1 6231   0.345   3.358   0.727
  231OcOH   HG2 6232   0.327   3.185   0.724
  231OcOH    CG 6233   0.292   3.276   0.677
  231OcOH   HH1 6234   0.283   3.188   0.478
  231OcOH   HH2 6235   0.440   3.256   0.518
  231OcOH   HH3 6236   0.305   3.362   0.477
  231OcOH    CH 6237   0.332   3.271   0.529
  232OcOH    HO 6238   3.554   2.905   3.102
  232OcOH    OH 6239   3.459   2.913   3.094
  232OcOH   HA1 6240   3.449   2.715   3.145
  232OcOH   HA2 6241   3.298   2.788   3.094
  232OcOH    CA 6242   3.405   2.785   3.074
  232OcOH   HB1 6243   3.384   2.808   2.859
  232OcOH   HB2 6244   3.376   2.643   2.915
  232OcOH    CB 6245   3.429   2.737   2.930
  232OcOH   HC1 6246   3.628   2.813   2.894
  232OcOH   HC2 6247   3.625   2.659   2.975
  232OcOH    CC 6248   3.577   2.717   2.896
  232OcOH   HD1 6249   3.548   2.701   2.681
  232OcOH   HD2 6250   3.549   2.548   2.765
  232OcOH    CD 6251   3.598   2.645   2.761
  232OcOH   HE1 6252   3.791   2.726   2.714
  232OcOH   HE2 6253   3.799   2.580   2.809
  232OcOH    CE 6254   3.746   2.627   2.726
  232OcOH   HF1 6255   3.875   2.558   2.569
  232OcOH   HF2 6256   3.711   2.586   2.516
  232OcOH    CF 6257   3.770   2.546   2.598
  232OcOH   HG1 6258   3.795   2.357   2.702
  232OcOH   HG2 6259   3.636   2.380   2.634
  232OcOH    CG 6260   3.742   2.396   2.615
  232OcOH   HH1 6261   3.763   2.208   2.508
  232OcOH   HH2 6262   3.890   2.325   2.471
  232OcOH   HH3 6263   3.728   2.346   2.403
  232OcOH    CH 6264   3.783   2.314   2.492
  233OcOH    HO 6265   0.744   3.698   3.797
  233OcOH    OH 6266   0.679   3.766   3.817
  233OcOH   HA1 6267   0.511   3.775   3.938
  233OcOH   HA2 6268   0.563   3.614   3.888
  233OcOH    CA 6269   0.599   3.712   3.921
  233OcOH   HB1 6270   0.698   3.797   4.092
  233OcOH   HB2 6271   0.781   3.659   4.026
  233OcOH    CB 6272   0.682   3.698   4.049
  233OcOH   HC1 6273   0.670   3.624   4.250
  233OcOH   HC2 6274   0.515   3.640   4.174
  233OcOH    CC 6275   0.617   3.608   4.156
  233OcOH   HD1 6276   0.723   3.430   4.093
  233OcOH   HD2 6277   0.559   3.438   4.035
  233OcOH    CD 6278   0.622   3.458   4.121
  233OcOH   HE1 6279   0.641   3.386   4.324
  233OcOH   HE2 6280   0.476   3.399   4.269
  233OcOH    CE 6281   0.576   3.370   4.238
  233OcOH   HF1 6282   0.679   3.190   4.176
  233OcOH   HF2 6283   0.515   3.203   4.115
  233OcOH    CF 6284   0.577   3.220   4.203
  233OcOH   HG1 6285   0.591   3.146   4.406
  233OcOH   HG2 6286   0.427   3.162   4.348
  233OcOH    CG 6287   0.528   3.131   4.318
  233OcOH   HH1 6288   0.625   2.946   4.256
  233OcOH   HH2 6289   0.460   2.964   4.196
  233OcOH   HH3 6290   0.488   2.923   4.364
  233OcOH    CH 6291   0.525   2.983   4.281
  234OcOH    HO 6292   1.588   3.813   2.530
  234OcOH    OH 6293   1.663   3.850   2.579
  234OcOH   HA1 6294   1.719   3.971   2.423
  234OcOH   HA2 6295   1.591   4.033   2.525
  234OcOH    CA 6296   1.685   3.979   2.526
  234OcOH   HB1 6297   1.882   3.998   2.613
  234OcOH   HB2 6298   1.754   4.057   2.715
  234OcOH    CB 6299   1.789   4.054   2.612
  234OcOH   HC1 6300   1.856   4.192   2.460
  234OcOH   HC2 6301   1.721   4.250   2.555
  234OcOH    CC 6302   1.815   4.196   2.562
  234OcOH   HD1 6303   2.008   4.222   2.658
  234OcOH   HD2 6304   1.872   4.276   2.754
  234OcOH    CD 6305   1.912   4.274   2.652
  234OcOH   HE1 6306   1.981   4.416   2.505
  234OcOH   HE2 6307   1.839   4.469   2.592
  234OcOH    CE 6308   1.935   4.418   2.604
  234OcOH   HF1 6309   2.121   4.452   2.708
  234OcOH   HF2 6310   1.980   4.500   2.799
  234OcOH    CF 6311   2.024   4.500   2.699
  234OcOH   HG1 6312   2.088   4.645   2.552
  234OcOH   HG2 6313   1.945   4.693   2.641
  234OcOH    CG 6314   2.042   4.645   2.651
  234OcOH   HH1 6315   2.143   4.829   2.708
  234OcOH   HH2 6316   2.227   4.683   2.759
  234OcOH   HH3 6317   2.083   4.735   2.845
  234OcOH    CH 6318   2.129   4.728   2.746
  235OcOH    HO 6319   2.575   1.467   0.698
  235OcOH    OH 6320   2.531   1.382   0.708
  235OcOH   HA1 6321   2.549   1.354   0.507
  235OcOH   HA2 6322   2.675   1.278   0.604
  235OcOH    CA 6323   2.568   1.300   0.599
  235OcOH   HB1 6324   2.509   1.112   0.512
  235OcOH   HB2 6325   2.380   1.193   0.597
  235OcOH    CB 6326   2.486   1.169   0.602
  235OcOH   HC1 6327   2.486   1.139   0.815
  235OcOH   HC2 6328   2.621   1.064   0.734
  235OcOH    CC 6329   2.514   1.083   0.726
  235OcOH   HD1 6330   2.470   0.891   0.638
  235OcOH   HD2 6331   2.331   0.968   0.711
  235OcOH    CD 6332   2.438   0.949   0.724
  235OcOH   HE1 6333   2.567   0.861   0.872
  235OcOH   HE2 6334   2.418   0.920   0.938
  235OcOH    CE 6335   2.460   0.867   0.853
  235OcOH   HF1 6336   2.441   0.667   0.931
  235OcOH   HF2 6337   2.447   0.675   0.757
  235OcOH    CF 6338   2.405   0.724   0.845
  235OcOH   HG1 6339   2.212   0.773   0.756
  235OcOH   HG2 6340   2.224   0.611   0.818
  235OcOH    CG 6341   2.251   0.714   0.839
  235OcOH   HH1 6342   2.074   0.743   0.962
  235OcOH   HH2 6343   2.202   0.860   0.994
  235OcOH   HH3 6344   2.216   0.695   1.053
  235OcOH    CH 6345   2.182   0.756   0.970
  236OcOH    HO 6346   3.373   3.657   1.768
  236OcOH    OH 6347   3.343   3.744   1.736
  236OcOH   HA1 6348   3.197   3.738   1.879
  236OcOH   HA2 6349   3.179   3.863   1.757
  236OcOH    CA 6350   3.208   3.760   1.772
  236OcOH   HB1 6351   3.155   3.563   1.702
  236OcOH   HB2 6352   3.137   3.689   1.582
  236OcOH    CB 6353   3.122   3.666   1.687
  236OcOH   HC1 6354   2.957   3.648   1.825
  236OcOH   HC2 6355   2.941   3.780   1.712
  236OcOH    CC 6356   2.973   3.676   1.721
  236OcOH   HD1 6357   2.913   3.483   1.642
  236OcOH   HD2 6358   2.904   3.614   1.526
  236OcOH    CD 6359   2.885   3.588   1.630
  236OcOH   HE1 6360   2.715   3.574   1.763
  236OcOH   HE2 6361   2.709   3.710   1.654
  236OcOH    CE 6362   2.735   3.605   1.660
  236OcOH   HF1 6363   2.669   3.419   1.572
  236OcOH   HF2 6364   2.668   3.554   1.461
  236OcOH    CF 6365   2.646   3.525   1.564
  236OcOH   HG1 6366   2.473   3.517   1.694
  236OcOH   HG2 6367   2.474   3.654   1.586
  236OcOH    CG 6368   2.497   3.548   1.592
  236OcOH   HH1 6369   2.425   3.503   1.391
  236OcOH   HH2 6370   2.301   3.492   1.515
  236OcOH   HH3 6371   2.422   3.364   1.500
  236OcOH    CH 6372   2.406   3.472   1.494
  237OcOH    HO 6373   4.241   2.946   3.835
  237OcOH    OH 6374   4.242   2.959   3.739
  237OcOH   HA1 6375   4.127   3.058   3.600
  237OcOH   HA2 6376   4.040   2.993   3.737
  237OcOH    CA 6377   4.132   3.043   3.708
  237OcOH   HB1 6378   4.232   3.231   3.745
  237OcOH   HB2 6379   4.162   3.158   3.888
  237OcOH    CB 6380   4.145   3.177   3.782
  237OcOH   HC1 6381   4.006   3.290   3.661
  237OcOH   HC2 6382   3.931   3.204   3.794
  237OcOH    CC 6383   4.019   3.263   3.766
  237OcOH   HD1 6384   4.042   3.362   3.956
  237OcOH   HD2 6385   4.105   3.453   3.821
  237OcOH    CD 6386   4.022   3.390   3.852
  237OcOH   HE1 6387   3.866   3.492   3.742
  237OcOH   HE2 6388   3.810   3.407   3.884
  237OcOH    CE 6389   3.891   3.469   3.846
  237OcOH   HF1 6390   3.975   3.664   3.884
  237OcOH   HF2 6391   3.929   3.579   4.029
  237OcOH    CF 6392   3.898   3.600   3.926
  237OcOH   HG1 6393   3.729   3.691   3.826
  237OcOH   HG2 6394   3.688   3.612   3.976
  237OcOH    CG 6395   3.763   3.674   3.928
  237OcOH   HH1 6396   3.846   3.875   3.956
  237OcOH   HH2 6397   3.799   3.796   4.106
  237OcOH   HH3 6398   3.676   3.860   3.998
  237OcOH    CH 6399   3.772   3.809   4.001
  238OcOH    HO 6400   0.737   3.641   0.018
  238OcOH    OH 6401   0.695   3.591   5.084
  238OcOH   HA1 6402   0.610   3.629   4.901
  238OcOH   HA2 6403   0.575   3.747   5.026
  238OcOH    CA 6404   0.654   3.683   4.985
  238OcOH   HB1 6405   0.809   3.828   5.022
  238OcOH   HB2 6406   0.738   3.839   4.863
  238OcOH    CB 6407   0.773   3.768   4.939
  238OcOH   HC1 6408   0.925   3.616   4.956
  238OcOH   HC2 6409   0.851   3.623   4.798
  238OcOH    CC 6410   0.888   3.685   4.880
  238OcOH   HD1 6411   1.039   3.836   4.912
  238OcOH   HD2 6412   0.970   3.838   4.751
  238OcOH    CD 6413   1.005   3.772   4.831
  238OcOH   HE1 6414   1.156   3.622   4.861
  238OcOH   HE2 6415   1.088   3.621   4.700
  238OcOH    CE 6416   1.122   3.687   4.780
  238OcOH   HF1 6417   1.271   3.842   4.807
  238OcOH   HF2 6418   1.203   3.834   4.646
  238OcOH    CF 6419   1.239   3.773   4.729
  238OcOH   HG1 6420   1.324   3.612   4.612
  238OcOH   HG2 6421   1.425   3.753   4.622
  238OcOH    CG 6422   1.359   3.689   4.681
  238OcOH   HH1 6423   1.485   3.702   4.858
  238OcOH   HH2 6424   1.519   3.564   4.755
  238OcOH   HH3 6425   1.377   3.563   4.859
  238OcOH    CH 6426   1.439   3.626   4.795
  239OcOH    HO 6427   4.427   4.147   4.526
  239OcOH    OH 6428   4.474   4.067   4.499
  239OcOH   HA1 6429   4.398   4.125   4.317
  239OcOH   HA2 6430   4.572   4.105   4.323
  239OcOH    CA 6431   4.478   4.063   4.357
  239OcOH   HB1 6432   4.362   3.882   4.339
  239OcOH   HB2 6433   4.533   3.853   4.362
  239OcOH    CB 6434   4.461   3.917   4.311
  239OcOH   HC1 6435   4.421   3.979   4.109
  239OcOH   HC2 6436   4.584   3.924   4.134
  239OcOH    CC 6437   4.480   3.903   4.159
  239OcOH   HD1 6438   4.335   3.747   4.126
  239OcOH   HD2 6439   4.497   3.687   4.152
  239OcOH    CD 6440   4.440   3.766   4.103
  239OcOH   HE1 6441   4.411   3.844   3.904
  239OcOH   HE2 6442   4.568   3.771   3.929
  239OcOH    CE 6443   4.461   3.759   3.951
  239OcOH   HF1 6444   4.303   3.621   3.904
  239OcOH   HF2 6445   4.457   3.543   3.933
  239OcOH    CF 6446   4.410   3.630   3.886
  239OcOH   HG1 6447   4.398   3.719   3.690
  239OcOH   HG2 6448   4.545   3.629   3.717
  239OcOH    CG 6449   4.437   3.628   3.735
  239OcOH   HH1 6450   4.412   3.413   3.704
  239OcOH   HH2 6451   4.399   3.510   3.557
  239OcOH   HH3 6452   4.266   3.508   3.672
  239OcOH    CH 6453   4.375   3.508   3.663
  240OcOH    HO 6454   0.732   3.484   3.718
  240OcOH    OH 6455   0.812   3.527   3.752
  240OcOH   HA1 6456   0.817   3.367   3.877
  240OcOH   HA2 6457   0.923   3.355   3.738
  240OcOH    CA 6458   0.885   3.424   3.814
  240OcOH   HB1 6459   1.045   3.395   3.953
  240OcOH   HB2 6460   0.961   3.544   3.978
  240OcOH    CB 6461   1.000   3.479   3.900
  240OcOH   HC1 6462   1.146   3.483   3.744
  240OcOH   HC2 6463   1.066   3.636   3.767
  240OcOH    CC 6464   1.109   3.551   3.820
  240OcOH   HD1 6465   1.258   3.516   3.972
  240OcOH   HD2 6466   1.189   3.677   3.976
  240OcOH    CD 6467   1.224   3.598   3.909
  240OcOH   HE1 6468   1.380   3.569   3.763
  240OcOH   HE2 6469   1.312   3.730   3.760
  240OcOH    CE 6470   1.344   3.650   3.827
  240OcOH   HF1 6471   1.482   3.622   3.990
  240OcOH   HF2 6472   1.425   3.786   3.973
  240OcOH    CF 6473   1.458   3.699   3.917
  240OcOH   HG1 6474   1.617   3.646   3.780
  240OcOH   HG2 6475   1.564   3.811   3.765
  240OcOH    CG 6476   1.585   3.733   3.838
  240OcOH   HH1 6477   1.674   3.866   3.985
  240OcOH   HH2 6478   1.790   3.800   3.871
  240OcOH   HH3 6479   1.727   3.699   4.000
  240OcOH    CH 6480   1.701   3.777   3.929
  241OcOH    HO 6481   3.071   0.179   0.607
  241OcOH    OH 6482   3.117   0.105   0.564
  241OcOH   HA1 6483   3.065   5.085   0.686
  241OcOH   HA2 6484   2.934   0.017   0.591
  241OcOH    CA 6485   3.040   5.126   0.588
  241OcOH   HB1 6486   3.172   5.001   0.472
  241OcOH   HB2 6487   3.040   5.068   0.381
  241OcOH    CB 6488   3.065   5.024   0.477
  241OcOH   HC1 6489   3.015   4.848   0.590
  241OcOH   HC2 6490   2.880   4.915   0.502
  241OcOH    CC 6491   2.987   4.893   0.495
  241OcOH   HD1 6492   3.119   4.774   0.371
  241OcOH   HD2 6493   2.984   4.841   0.286
  241OcOH    CD 6494   3.013   4.794   0.380
  241OcOH   HE1 6495   2.830   4.681   0.412
  241OcOH   HE2 6496   2.941   4.609   0.299
  241OcOH    CE 6497   2.936   4.661   0.394
  241OcOH   HF1 6498   2.983   4.616   0.601
  241OcOH   HF2 6499   3.100   4.556   0.487
  241OcOH    CF 6500   2.993   4.569   0.504
  241OcOH   HG1 6501   2.819   4.442   0.525
  241OcOH   HG2 6502   2.936   4.385   0.408
  241OcOH    CG 6503   2.926   4.431   0.506
  241OcOH   HH1 6504   2.968   4.375   0.712
  241OcOH   HH2 6505   3.096   4.333   0.599
  241OcOH   HH3 6506   2.948   4.238   0.603
  241OcOH    CH 6507   2.988   4.339   0.611
  242OcOH    HO 6508   1.374   5.058   1.168
  242OcOH    OH 6509   1.456   5.011   1.186
  242OcOH   HA1 6510   1.538   5.117   1.031
  242OcOH   HA2 6511   1.567   0.047   1.191
  242OcOH    CA 6512   1.561   5.090   1.134
  242OcOH   HB1 6513   1.685   4.922   1.082
  242OcOH   HB2 6514   1.712   4.982   1.244
  242OcOH    CB 6515   1.693   5.013   1.141
  242OcOH   HC1 6516   1.792   5.129   0.989
  242OcOH   HC2 6517   1.818   0.050   1.151
  242OcOH    CC 6518   1.811   5.097   1.091
  242OcOH   HD1 6519   1.937   4.931   1.035
  242OcOH   HD2 6520   1.961   4.986   1.199
  242OcOH    CD 6521   1.944   5.021   1.097
  242OcOH   HE1 6522   2.046   0.007   0.950
  242OcOH   HE2 6523   2.065   0.060   1.115
  242OcOH    CE 6524   2.062   5.107   1.052
  242OcOH   HF1 6525   2.196   4.953   0.985
  242OcOH   HF2 6526   2.207   4.984   1.156
  242OcOH    CF 6527   2.196   5.033   1.059
  242OcOH   HG1 6528   2.406   5.062   1.017
  242OcOH   HG2 6529   2.302   0.045   0.942
  242OcOH    CG 6530   2.318   5.124   1.034
  242OcOH   HH1 6531   2.358   0.030   1.244
  242OcOH   HH2 6532   2.266   0.156   1.162
  242OcOH   HH3 6533   2.438   0.140   1.132
  242OcOH    CH 6534   2.347   0.084   1.150
  243OcOH    HO 6535   3.276   3.731   0.523
  243OcOH    OH 6536   3.182   3.731   0.548
  243OcOH   HA1 6537   3.214   3.610   0.711
  243OcOH   HA2 6538   3.049   3.616   0.651
  243OcOH    CA 6539   3.153   3.613   0.620
  243OcOH   HB1 6540   3.287   3.481   0.512
  243OcOH   HB2 6541   3.131   3.501   0.438
  243OcOH    CB 6542   3.180   3.489   0.534
  243OcOH   HC1 6543   3.023   3.364   0.613
  243OcOH   HC2 6544   3.146   3.277   0.526
  243OcOH    CC 6545   3.131   3.358   0.598
  243OcOH   HD1 6546   3.176   3.396   0.806
  243OcOH   HD2 6547   3.308   3.322   0.718
  243OcOH    CD 6548   3.200   3.320   0.730
  243OcOH   HE1 6549   3.047   3.177   0.783
  243OcOH   HE2 6550   3.189   3.105   0.712
  243OcOH    CE 6551   3.156   3.182   0.781
  243OcOH   HF1 6552   3.168   3.225   0.992
  243OcOH   HF2 6553   3.317   3.162   0.925
  243OcOH    CF 6554   3.208   3.151   0.922
  243OcOH   HG1 6555   3.062   2.995   0.957
  243OcOH   HG2 6556   3.217   2.936   0.904
  243OcOH    CG 6557   3.169   3.010   0.969
  243OcOH   HH1 6558   3.155   3.049   1.183
  243OcOH   HH2 6559   3.315   2.996   1.131
  243OcOH   HH3 6560   3.183   2.880   1.142
  243OcOH    CH 6561   3.208   2.982   1.115
  244OcOH    HO 6562   3.727   3.957   0.569
  244OcOH    OH 6563   3.640   3.929   0.602
  244OcOH   HA1 6564   3.594   4.012   0.784
  244OcOH   HA2 6565   3.647   4.126   0.661
  244OcOH    CA 6566   3.587   4.036   0.678
  244OcOH   HB1 6567   3.395   4.129   0.707
  244OcOH   HB2 6568   3.386   3.966   0.644
  244OcOH    CB 6569   3.442   4.060   0.637
  244OcOH   HC1 6570   3.467   4.221   0.495
  244OcOH   HC2 6571   3.494   4.063   0.426
  244OcOH    CC 6572   3.430   4.118   0.495
  244OcOH   HD1 6573   3.218   4.157   0.514
  244OcOH   HD2 6574   3.256   4.010   0.428
  244OcOH    CD 6575   3.286   4.114   0.441
  244OcOH   HE1 6576   3.290   4.296   0.325
  244OcOH   HE2 6577   3.347   4.156   0.238
  244OcOH    CE 6578   3.271   4.190   0.308
  244OcOH   HF1 6579   3.056   4.193   0.321
  244OcOH   HF2 6580   3.118   4.067   0.219
  244OcOH    CF 6581   3.132   4.171   0.246
  244OcOH   HG1 6582   3.003   4.248   0.092
  244OcOH   HG2 6583   3.116   4.366   0.152
  244OcOH    CG 6584   3.107   4.261   0.124
  244OcOH   HH1 6585   3.170   4.289   5.054
  244OcOH   HH2 6586   3.196   4.126   5.114
  244OcOH   HH3 6587   3.303   4.257   0.028
  244OcOH    CH 6588   3.200   4.231   0.005
  245OcOH    HO 6589   1.848   3.318   1.740
  245OcOH    OH 6590   1.823   3.366   1.820
  245OcOH   HA1 6591   1.645   3.370   1.719
  245OcOH   HA2 6592   1.641   3.437   1.882
  245OcOH    CA 6593   1.701   3.430   1.791
  245OcOH   HB1 6594   1.803   3.562   1.653
  245OcOH   HB2 6595   1.780   3.629   1.813
  245OcOH    CB 6596   1.731   3.570   1.735
  245OcOH   HC1 6597   1.560   3.584   1.606
  245OcOH   HC2 6598   1.533   3.650   1.766
  245OcOH    CC 6599   1.606   3.643   1.685
  245OcOH   HD1 6600   1.714   3.778   1.555
  245OcOH   HD2 6601   1.678   3.846   1.713
  245OcOH    CD 6602   1.637   3.784   1.632
  245OcOH   HE1 6603   1.473   3.790   1.493
  245OcOH   HE2 6604   1.435   3.857   1.650
  245OcOH    CE 6605   1.512   3.852   1.574
  245OcOH   HF1 6606   1.618   3.988   1.443
  245OcOH   HF2 6607   1.577   4.057   1.598
  245OcOH    CF 6608   1.539   3.993   1.518
  245OcOH   HG1 6609   1.374   3.988   1.380
  245OcOH   HG2 6610   1.334   4.061   1.533
  245OcOH    CG 6611   1.412   4.054   1.457
  245OcOH   HH1 6612   1.471   4.264   1.471
  245OcOH   HH2 6613   1.342   4.232   1.355
  245OcOH   HH3 6614   1.508   4.189   1.315
  245OcOH    CH 6615   1.435   4.193   1.396
  246OcOH    HO 6616   4.055   4.261   0.855
  246OcOH    OH 6617   4.104   4.187   0.891
  246OcOH   HA1 6618   3.985   4.081   0.760
  246OcOH   HA2 6619   4.110   3.988   0.841
  246OcOH    CA 6620   4.037   4.067   0.855
  246OcOH   HB1 6621   3.867   4.111   0.982
  246OcOH   HB2 6622   3.994   4.021   1.062
  246OcOH    CB 6623   3.939   4.030   0.968
  246OcOH   HC1 6624   3.808   3.908   0.848
  246OcOH   HC2 6625   3.935   3.818   0.926
  246OcOH    CC 6626   3.864   3.899   0.941
  246OcOH   HD1 6627   3.703   3.947   1.078
  246OcOH   HD2 6628   3.829   3.849   1.148
  246OcOH    CD 6629   3.770   3.862   1.057
  246OcOH   HE1 6630   3.751   3.651   1.016
  246OcOH   HE2 6631   3.635   3.712   1.129
  246OcOH    CE 6632   3.685   3.735   1.036
  246OcOH   HF1 6633   3.633   3.761   0.828
  246OcOH   HF2 6634   3.522   3.839   0.937
  246OcOH    CF 6635   3.581   3.749   0.923
  246OcOH   HG1 6636   3.436   3.633   0.814
  246OcOH   HG2 6637   3.544   3.535   0.909
  246OcOH    CG 6638   3.486   3.628   0.911
  246OcOH   HH1 6639   3.424   3.612   1.119
  246OcOH   HH2 6640   3.314   3.535   1.005
  246OcOH   HH3 6641   3.317   3.711   1.020
  246OcOH    CH 6642   3.380   3.621   1.020
  247OcOH    HO 6643   3.837   2.840   3.744
  247OcOH    OH 6644   3.825   2.844   3.838
  247OcOH   HA1 6645   3.736   3.031   3.837
  247OcOH   HA2 6646   3.629   2.895   3.808
  247OcOH    CA 6647   3.714   2.928   3.867
  247OcOH   HB1 6648   3.666   2.816   4.046
  247OcOH   HB2 6649   3.585   2.970   4.032
  247OcOH    CB 6650   3.681   2.921   4.016
  247OcOH   HC1 6651   3.884   2.948   4.081
  247OcOH   HC2 6652   3.791   3.095   4.084
  247OcOH    CC 6653   3.786   2.988   4.106
  247OcOH   HD1 6654   3.853   2.998   4.310
  247OcOH   HD2 6655   3.752   2.860   4.278
  247OcOH    CD 6656   3.763   2.966   4.257
  247OcOH   HE1 6657   3.657   3.151   4.295
  247OcOH   HE2 6658   3.554   3.017   4.258
  247OcOH    CE 6659   3.643   3.045   4.313
  247OcOH   HF1 6660   3.593   2.913   4.477
  247OcOH   HF2 6661   3.524   3.073   4.491
  247OcOH    CF 6662   3.615   3.019   4.463
  247OcOH   HG1 6663   3.698   3.033   4.660
  247OcOH   HG2 6664   3.818   3.001   4.539
  247OcOH    CG 6665   3.728   3.060   4.559
  247OcOH   HH1 6666   3.836   3.234   4.632
  247OcOH   HH2 6667   3.673   3.270   4.575
  247OcOH   HH3 6668   3.802   3.240   4.459
  247OcOH    CH 6669   3.761   3.210   4.556
  248OcOH    HO 6670   2.297   3.771   1.929
  248OcOH    OH 6671   2.381   3.819   1.932
  248OcOH   HA1 6672   2.477   3.638   1.921
  248OcOH   HA2 6673   2.575   3.773   1.978
  248OcOH    CA 6674   2.476   3.728   1.983
  248OcOH   HB1 6675   2.340   3.651   2.133
  248OcOH   HB2 6676   2.438   3.785   2.187
  248OcOH    CB 6677   2.440   3.693   2.128
  248OcOH   HC1 6678   2.536   3.500   2.140
  248OcOH   HC2 6679   2.640   3.633   2.180
  248OcOH    CC 6680   2.539   3.595   2.193
  248OcOH   HD1 6681   2.415   3.524   2.356
  248OcOH   HD2 6682   2.501   3.672   2.391
  248OcOH    CD 6683   2.511   3.574   2.342
  248OcOH   HE1 6684   2.718   3.543   2.396
  248OcOH   HE2 6685   2.604   3.508   2.523
  248OcOH    CE 6686   2.621   3.497   2.416
  248OcOH   HF1 6687   2.638   3.331   2.277
  248OcOH   HF2 6688   2.532   3.301   2.413
  248OcOH    CF 6689   2.627   3.347   2.384
  248OcOH   HG1 6690   2.838   3.314   2.420
  248OcOH   HG2 6691   2.740   3.304   2.564
  248OcOH    CG 6692   2.742   3.277   2.458
  248OcOH   HH1 6693   2.643   3.085   2.483
  248OcOH   HH2 6694   2.817   3.079   2.503
  248OcOH   HH3 6695   2.749   3.093   2.341
  248OcOH    CH 6696   2.737   3.125   2.445
  249OcOH    HO 6697   4.968   2.079   0.413
  249OcOH    OH 6698   5.032   2.084   0.342
  249OcOH   HA1 6699   5.006   2.287   0.342
  249OcOH   HA2 6700   0.004   2.228   0.438
  249OcOH    CA 6701   5.087   2.214   0.345
  249OcOH   HB1 6702   5.127   2.211   0.132
  249OcOH   HB2 6703   0.126   2.162   0.231
  249OcOH    CB 6704   0.044   2.234   0.225
  249OcOH   HC1 6705   0.021   2.448   0.208
  249OcOH   HC2 6706   0.154   2.399   0.311
  249OcOH    CC 6707   0.102   2.376   0.217
  249OcOH   HD1 6708   0.148   2.372   0.006
  249OcOH   HD2 6709   0.280   2.320   0.108
  249OcOH    CD 6710   0.200   2.393   0.100
  249OcOH   HE1 6711   0.181   2.608   0.082
  249OcOH   HE2 6712   0.309   2.557   0.189
  249OcOH    CE 6713   0.260   2.534   0.094
  249OcOH   HF1 6714   0.312   2.532   5.021
  249OcOH   HF2 6715   0.439   2.474   5.126
  249OcOH    CF 6716   0.362   2.550   5.116
  249OcOH   HG1 6717   0.351   2.766   5.104
  249OcOH   HG2 6718   0.478   2.707   0.072
  249OcOH    CG 6719   0.428   2.689   5.114
  249OcOH   HH1 6720   0.481   2.686   4.903
  249OcOH   HH2 6721   0.611   2.633   5.009
  249OcOH   HH3 6722   0.571   2.804   4.997
  249OcOH    CH 6723   0.528   2.704   4.999
  250OcOH    HO 6724   1.160   1.462   0.670
  250OcOH    OH 6725   1.079   1.512   0.688
  250OcOH   HA1 6726   0.998   1.612   0.847
  250OcOH   HA2 6727   1.148   1.528   0.882
  250OcOH    CA 6728   1.097   1.587   0.807
  250OcOH   HB1 6729   1.163   1.783   0.862
  250OcOH   HB2 6730   1.125   1.770   0.693
  250OcOH    CB 6731   1.173   1.717   0.776
  250OcOH   HC1 6732   1.366   1.639   0.830
  250OcOH   HC2 6733   1.334   1.633   0.658
  250OcOH    CC 6734   1.322   1.695   0.747
  250OcOH   HD1 6735   1.374   1.895   0.812
  250OcOH   HD2 6736   1.364   1.877   0.638
  250OcOH    CD 6737   1.398   1.828   0.729
  250OcOH   HE1 6738   1.584   1.761   0.817
  250OcOH   HE2 6739   1.577   1.740   0.644
  250OcOH    CE 6740   1.551   1.809   0.725
  250OcOH   HF1 6741   1.593   2.012   0.782
  250OcOH   HF2 6742   1.598   1.985   0.610
  250OcOH    CF 6743   1.625   1.942   0.706
  250OcOH   HG1 6744   1.804   1.883   0.811
  250OcOH   HG2 6745   1.811   1.855   0.638
  250OcOH    CG 6746   1.778   1.926   0.714
  250OcOH   HH1 6747   1.832   2.104   0.600
  250OcOH   HH2 6748   1.960   2.044   0.704
  250OcOH   HH3 6749   1.824   2.130   0.774
  250OcOH    CH 6750   1.852   2.059   0.697
  251OcOH    HO 6751   4.585   4.365   1.903
  251OcOH    OH 6752   4.601   4.438   1.962
  251OcOH   HA1 6753   4.502   4.606   2.029
  251OcOH   HA2 6754   4.493   4.577   1.856
  251OcOH    CA 6755   4.491   4.528   1.954
  251OcOH   HB1 6756   4.349   4.377   1.893
  251OcOH   HB2 6757   4.276   4.520   1.959
  251OcOH    CB 6758   4.360   4.451   1.972
  251OcOH   HC1 6759   4.430   4.310   2.119
  251OcOH   HC2 6760   4.359   4.454   2.189
  251OcOH    CC 6761   4.347   4.381   2.109
  251OcOH   HD1 6762   4.192   4.253   2.033
  251OcOH   HD2 6763   4.133   4.379   2.136
  251OcOH    CD 6764   4.214   4.307   2.124
  251OcOH   HE1 6765   4.300   4.141   2.233
  251OcOH   HE2 6766   4.231   4.264   2.336
  251OcOH    CE 6767   4.215   4.209   2.243
  251OcOH   HF1 6768   4.066   4.078   2.157
  251OcOH   HF2 6769   4.001   4.193   2.270
  251OcOH    CF 6770   4.086   4.127   2.253
  251OcOH   HG1 6771   4.177   3.953   2.344
  251OcOH   HG2 6772   4.114   4.068   2.459
  251OcOH    CG 6773   4.093   4.020   2.363
  251OcOH   HH1 6774   3.973   3.863   2.452
  251OcOH   HH2 6775   3.942   3.887   2.281
  251OcOH   HH3 6776   3.879   4.002   2.399
  251OcOH    CH 6777   3.964   3.938   2.374
  252OcOH    HO 6778   3.961   0.020   4.528
  252OcOH    OH 6779   4.022   0.048   4.458
  252OcOH   HA1 6780   4.178   5.121   4.574
  252OcOH   HA2 6781   4.222   0.097   4.446
  252OcOH    CA 6782   4.146   0.075   4.521
  252OcOH   HB1 6783   4.218   0.195   4.683
  252OcOH   HB2 6784   4.045   0.170   4.686
  252OcOH    CB 6785   4.129   0.190   4.620
  252OcOH   HC1 6786   4.197   0.350   4.492
  252OcOH   HC2 6787   4.025   0.322   4.483
  252OcOH    CC 6788   4.109   0.327   4.552
  252OcOH   HD1 6789   4.161   0.437   4.732
  252OcOH   HD2 6790   3.990   0.416   4.708
  252OcOH    CD 6791   4.084   0.438   4.656
  252OcOH   HE1 6792   4.005   0.578   4.510
  252OcOH   HE2 6793   4.030   0.645   4.669
  252OcOH    CE 6794   4.074   0.579   4.595
  252OcOH   HF1 6795   4.253   0.575   4.472
  252OcOH   HF2 6796   4.280   0.628   4.636
  252OcOH    CF 6797   4.211   0.636   4.552
  252OcOH   HG1 6798   4.134   0.791   4.423
  252OcOH   HG2 6799   4.159   0.842   4.587
  252OcOH    CG 6800   4.202   0.782   4.507
  252OcOH   HH1 6801   4.408   0.837   4.554
  252OcOH   HH2 6802   4.330   0.944   4.437
  252OcOH   HH3 6803   4.384   0.784   4.387
  252OcOH    CH 6804   4.339   0.840   4.469
  253OcOH    HO 6805   3.190   0.542   1.365
  253OcOH    OH 6806   3.158   0.453   1.385
  253OcOH   HA1 6807   3.173   0.408   1.187
  253OcOH   HA2 6808   3.314   0.368   1.284
  253OcOH    CA 6809   3.205   0.368   1.283
  253OcOH   HB1 6810   3.041   0.230   1.307
  253OcOH   HB2 6811   3.183   0.186   1.399
  253OcOH    CB 6812   3.150   0.226   1.302
  253OcOH   HC1 6813   3.166   0.177   1.094
  253OcOH   HC2 6814   3.301   0.122   1.189
  253OcOH    CC 6815   3.193   0.132   1.189
  253OcOH   HD1 6816   3.020   0.002   1.204
  253OcOH   HD2 6817   3.160   5.079   1.290
  253OcOH    CD 6818   3.129   5.129   1.198
  253OcOH   HE1 6819   3.138   5.094   0.985
  253OcOH   HE2 6820   3.273   5.026   1.073
  253OcOH    CE 6821   3.165   5.041   1.077
  253OcOH   HF1 6822   2.986   4.920   1.085
  253OcOH   HF2 6823   3.123   4.848   1.166
  253OcOH    CF 6824   3.094   4.905   1.077
  253OcOH   HG1 6825   3.098   4.880   0.862
  253OcOH   HG2 6826   3.233   4.805   0.945
  253OcOH    CG 6827   3.125   4.823   0.951
  253OcOH   HH1 6828   3.073   4.634   0.855
  253OcOH   HH2 6829   2.943   4.702   0.953
  253OcOH   HH3 6830   3.082   4.625   1.031
  253OcOH    CH 6831   3.051   4.688   0.948
  254OcOH    HO 6832   2.493   4.505   1.960
  254OcOH    OH 6833   2.454   4.589   1.989
  254OcOH   HA1 6834   2.284   4.639   2.092
  254OcOH   HA2 6835   2.294   4.472   2.040
  254OcOH    CA 6836   2.352   4.555   2.081
  254OcOH   HB1 6837   2.468   4.606   2.254
  254OcOH   HB2 6838   2.490   4.441   2.201
  254OcOH    CB 6839   2.415   4.519   2.216
  254OcOH   HC1 6840   2.235   4.548   2.333
  254OcOH   HC2 6841   2.259   4.385   2.276
  254OcOH    CC 6842   2.311   4.471   2.318
  254OcOH   HD1 6843   2.448   4.353   2.438
  254OcOH   HD2 6844   2.292   4.380   2.511
  254OcOH    CD 6845   2.371   4.428   2.453
  254OcOH   HE1 6846   2.510   4.592   2.482
  254OcOH   HE2 6847   2.351   4.622   2.547
  254OcOH    CE 6848   2.427   4.545   2.536
  254OcOH   HF1 6849   2.552   4.423   2.663
  254OcOH   HF2 6850   2.393   4.455   2.729
  254OcOH    CF 6851   2.476   4.501   2.674
  254OcOH   HG1 6852   2.618   4.662   2.702
  254OcOH   HG2 6853   2.459   4.694   2.768
  254OcOH    CG 6854   2.534   4.616   2.756
  254OcOH   HH1 6855   2.501   4.530   2.954
  254OcOH   HH2 6856   2.623   4.656   2.951
  254OcOH   HH3 6857   2.660   4.496   2.888
  254OcOH    CH 6858   2.582   4.572   2.895
  255OcOH    HO 6859   2.122   4.972   0.647
  255OcOH    OH 6860   2.174   5.049   0.675
  255OcOH   HA1 6861   2.365   5.075   0.744
  255OcOH   HA2 6862   2.321   4.908   0.710
  255OcOH    CA 6863   2.310   5.011   0.674
  255OcOH   HB1 6864   2.477   5.018   0.541
  255OcOH   HB2 6865   2.350   5.129   0.498
  255OcOH    CB 6866   2.369   5.028   0.534
  255OcOH   HC1 6867   2.332   4.824   0.470
  255OcOH   HC2 6868   2.207   4.937   0.425
  255OcOH    CC 6869   2.315   4.925   0.432
  255OcOH   HD1 6870   2.369   5.044   0.260
  255OcOH   HD2 6871   2.316   4.882   0.222
  255OcOH    CD 6872   2.376   4.940   0.292
  255OcOH   HE1 6873   2.585   4.946   0.352
  255OcOH   HE2 6874   2.528   4.787   0.309
  255OcOH    CE 6875   2.522   4.892   0.281
  255OcOH   HF1 6876   2.571   5.017   0.112
  255OcOH   HF2 6877   2.514   4.859   0.069
  255OcOH    CF 6878   2.577   4.912   0.139
  255OcOH   HG1 6879   2.787   4.923   0.189
  255OcOH   HG2 6880   2.731   4.761   0.157
  255OcOH    CG 6881   2.722   4.864   0.124
  255OcOH   HH1 6882   2.876   4.841   5.107
  255OcOH   HH2 6883   2.769   4.979   5.080
  255OcOH   HH3 6884   2.712   4.815   5.048
  255OcOH    CH 6885   2.772   4.876   5.116
  256OcOH    HO 6886   4.946   3.251   2.314
  256OcOH    OH 6887   4.980   3.323   2.264
  256OcOH   HA1 6888   4.947   3.407   2.078
  256OcOH   HA2 6889   4.965   3.234   2.080
  256OcOH    CA 6890   4.922   3.318   2.135
  256OcOH   HB1 6891   4.748   3.215   2.211
  256OcOH   HB2 6892   4.731   3.274   2.048
  256OcOH    CB 6893   4.770   3.300   2.147
  256OcOH   HC1 6894   4.734   3.453   2.295
  256OcOH   HC2 6895   4.717   3.508   2.130
  256OcOH    CC 6896   4.696   3.425   2.197
  256OcOH   HD1 6897   4.522   3.323   2.277
  256OcOH   HD2 6898   4.510   3.361   2.108
  256OcOH    CD 6899   4.544   3.401   2.204
  256OcOH   HE1 6900   4.485   3.605   2.163
  256OcOH   HE2 6901   4.356   3.504   2.220
  256OcOH    CE 6902   4.462   3.527   2.235
  256OcOH   HF1 6903   4.584   3.612   2.392
  256OcOH   HF2 6904   4.463   3.500   2.450
  256OcOH    CF 6905   4.481   3.581   2.378
  256OcOH   HG1 6906   4.402   3.778   2.337
  256OcOH   HG2 6907   4.283   3.667   2.400
  256OcOH    CG 6908   4.387   3.698   2.410
  256OcOH   HH1 6909   4.511   3.791   2.564
  256OcOH   HH2 6910   4.390   3.679   2.627
  256OcOH   HH3 6911   4.342   3.839   2.570
  256OcOH    CH 6912   4.409   3.755   2.551
  257OcOH    HO 6913   1.552   4.695   1.085
  257OcOH    OH 6914   1.550   4.683   0.991
  257OcOH   HA1 6915   1.386   4.803   1.022
  257OcOH   HA2 6916   1.449   4.802   0.859
  257OcOH    CA 6917   1.428   4.738   0.945
  257OcOH   HB1 6918   1.372   4.571   0.823
  257OcOH   HB2 6919   1.238   4.670   0.870
  257OcOH    CB 6920   1.330   4.626   0.907
  257OcOH   HC1 6921   1.243   4.442   0.979
  257OcOH   HC2 6922   1.392   4.484   1.058
  257OcOH    CC 6923   1.299   4.526   1.021
  257OcOH   HD1 6924   1.121   4.620   1.100
  257OcOH   HD2 6925   1.268   4.676   1.174
  257OcOH    CD 6926   1.218   4.587   1.137
  257OcOH   HE1 6927   1.148   4.398   1.216
  257OcOH   HE2 6928   1.296   4.456   1.288
  257OcOH    CE 6929   1.198   4.488   1.252
  257OcOH   HF1 6930   1.018   4.573   1.335
  257OcOH   HF2 6931   1.164   4.641   1.401
  257OcOH    CF 6932   1.118   4.547   1.369
  257OcOH   HG1 6933   1.060   4.360   1.459
  257OcOH   HG2 6934   1.209   4.425   1.523
  257OcOH    CG 6935   1.108   4.452   1.489
  257OcOH   HH1 6936   1.079   4.605   1.642
  257OcOH   HH2 6937   1.024   4.445   1.690
  257OcOH   HH3 6938   0.929   4.540   1.577
  257OcOH    CH 6939   1.031   4.514   1.606
  258OcOH    HO 6940   4.353   4.482   3.985
  258OcOH    OH 6941   4.431   4.457   4.036
  258OcOH   HA1 6942   4.327   4.562   4.177
  258OcOH   HA2 6943   4.362   4.395   4.219
  258OcOH    CA 6944   4.403   4.484   4.171
  258OcOH   HB1 6945   4.569   4.620   4.192
  258OcOH   HB2 6946   4.608   4.455   4.233
  258OcOH    CB 6947   4.531   4.531   4.242
  258OcOH   HC1 6948   4.422   4.629   4.399
  258OcOH   HC2 6949   4.480   4.470   4.442
  258OcOH    CC 6950   4.507   4.562   4.390
  258OcOH   HD1 6951   4.660   4.714   4.404
  258OcOH   HD2 6952   4.713   4.556   4.458
  258OcOH    CD 6953   4.628   4.625   4.460
  258OcOH   HE1 6954   4.505   4.725   4.604
  258OcOH   HE2 6955   4.573   4.575   4.662
  258OcOH    CE 6956   4.596   4.665   4.604
  258OcOH   HF1 6957   4.726   4.837   4.618
  258OcOH   HF2 6958   4.801   4.686   4.667
  258OcOH    CF 6959   4.708   4.744   4.673
  258OcOH   HG1 6960   4.667   4.683   4.877
  258OcOH   HG2 6961   4.767   4.825   4.863
  258OcOH    CG 6962   4.679   4.775   4.821
  258OcOH   HH1 6963   4.465   4.816   4.814
  258OcOH   HH2 6964   4.565   4.958   4.785
  258OcOH   HH3 6965   4.548   4.893   4.948
  258OcOH    CH 6966   4.557   4.866   4.843
  259OcOH    HO 6967   0.888   4.676   0.584
  259OcOH    OH 6968   0.870   4.676   0.679
  259OcOH   HA1 6969   0.854   4.472   0.700
  259OcOH   HA2 6970   1.017   4.534   0.683
  259OcOH    CA 6971   0.920   4.554   0.729
  259OcOH   HB1 6972   0.996   4.650   0.906
  259OcOH   HB2 6973   0.991   4.476   0.916
  259OcOH    CB 6974   0.935   4.563   0.881
  259OcOH   HC1 6975   0.748   4.660   0.929
  259OcOH   HC2 6976   0.739   4.486   0.927
  259OcOH    CC 6977   0.802   4.569   0.957
  259OcOH   HD1 6978   0.885   4.650   1.138
  259OcOH   HD2 6979   0.878   4.476   1.136
  259OcOH    CD 6980   0.823   4.566   1.109
  259OcOH   HE1 6981   0.639   4.663   1.162
  259OcOH   HE2 6982   0.626   4.490   1.157
  259OcOH    CE 6983   0.691   4.571   1.188
  259OcOH   HF1 6984   0.777   4.649   1.370
  259OcOH   HF2 6985   0.768   4.475   1.365
  259OcOH    CF 6986   0.714   4.566   1.339
  259OcOH   HG1 6987   0.528   4.662   1.394
  259OcOH   HG2 6988   0.518   4.489   1.386
  259OcOH    CG 6989   0.582   4.571   1.418
  259OcOH   HH1 6990   0.653   4.469   1.597
  259OcOH   HH2 6991   0.508   4.565   1.623
  259OcOH   HH3 6992   0.664   4.645   1.606
  259OcOH    CH 6993   0.603   4.562   1.570
  260OcOH    HO 6994   2.432   2.146   1.419
  260OcOH    OH 6995   2.507   2.186   1.464
  260OcOH   HA1 6996   2.442   2.353   1.362
  260OcOH   HA2 6997   2.570   2.379   1.479
  260OcOH    CA 6998   2.534   2.311   1.403
  260OcOH   HB1 6999   2.730   2.253   1.337
  260OcOH   HB2 7000   2.667   2.396   1.259
  260OcOH    CB 7001   2.640   2.296   1.294
  260OcOH   HC1 7002   2.581   2.109   1.204
  260OcOH   HC2 7003   2.498   2.248   1.138
  260OcOH    CC 7004   2.595   2.213   1.173
  260OcOH   HD1 7005   2.796   2.193   1.096
  260OcOH   HD2 7006   2.705   2.324   1.025
  260OcOH    CD 7007   2.697   2.220   1.058
  260OcOH   HE1 7008   2.663   2.026   0.971
  260OcOH   HE2 7009   2.561   2.152   0.905
  260OcOH    CE 7010   2.662   2.130   0.939
  260OcOH   HF1 7011   2.863   2.134   0.858
  260OcOH   HF2 7012   2.755   2.253   0.788
  260OcOH    CF 7013   2.761   2.150   0.823
  260OcOH   HG1 7014   2.736   1.952   0.741
  260OcOH   HG2 7015   2.632   2.072   0.668
  260OcOH    CG 7016   2.733   2.055   0.706
  260OcOH   HH1 7017   2.935   2.052   0.624
  260OcOH   HH2 7018   2.831   2.174   0.551
  260OcOH   HH3 7019   2.811   2.004   0.509
  260OcOH    CH 7020   2.834   2.072   0.591
  261OcOH    HO 7021   4.867   1.747   1.622
  261OcOH    OH 7022   4.820   1.751   1.537
  261OcOH   HA1 7023   5.002   1.670   1.488
  261OcOH   HA2 7024   4.869   1.628   1.381
  261OcOH    CA 7025   4.913   1.710   1.439
  261OcOH   HB1 7026   4.859   1.862   1.295
  261OcOH   HB2 7027   5.016   1.792   1.269
  261OcOH    CB 7028   4.949   1.827   1.347
  261OcOH   HC1 7029   4.942   1.989   1.490
  261OcOH   HC2 7030   5.098   1.909   1.481
  261OcOH    CC 7031   5.014   1.945   1.420
  261OcOH   HD1 7032   4.985   2.081   1.255
  261OcOH   HD2 7033   0.009   2.012   1.262
  261OcOH    CD 7034   5.065   2.053   1.324
  261OcOH   HE1 7035   5.031   2.227   1.447
  261OcOH   HE2 7036   0.049   2.151   1.474
  261OcOH    CE 7037   5.115   2.179   1.396
  261OcOH   HF1 7038   5.117   2.298   1.214
  261OcOH   HF2 7039   0.136   2.231   1.259
  261OcOH    CF 7040   0.046   2.278   1.300
  261OcOH   HG1 7041   0.139   2.392   1.459
  261OcOH   HG2 7042   0.157   2.463   1.301
  261OcOH    CG 7043   0.086   2.411   1.366
  261OcOH   HH1 7044   5.030   2.458   1.459
  261OcOH   HH2 7045   5.052   2.530   1.299
  261OcOH   HH3 7046   0.000   2.597   1.439
  261OcOH    CH 7047   5.103   2.504   1.392
  262OcOH    HO 7048   4.831   4.655   2.442
  262OcOH    OH 7049   4.806   4.694   2.358
  262OcOH   HA1 7050   4.673   4.538   2.338
  262OcOH   HA2 7051   4.692   4.640   2.196
  262OcOH    CA 7052   4.746   4.593   2.279
  262OcOH   HB1 7053   4.924   4.557   2.161
  262OcOH   HB2 7054   4.806   4.429   2.155
  262OcOH    CB 7055   4.854   4.500   2.223
  262OcOH   HC1 7056   4.980   4.494   2.397
  262OcOH   HC2 7057   4.862   4.366   2.394
  262OcOH    CC 7058   4.932   4.423   2.331
  262OcOH   HD1 7059   5.100   4.386   2.203
  262OcOH   HD2 7060   4.990   4.251   2.214
  262OcOH    CD 7061   5.038   4.329   2.273
  262OcOH   HE1 7062   0.029   4.342   2.447
  262OcOH   HE2 7063   5.068   4.197   2.442
  262OcOH    CE 7064   5.127   4.265   2.380
  262OcOH   HF1 7065   0.166   4.258   2.256
  262OcOH   HF2 7066   0.070   4.112   2.250
  262OcOH    CF 7067   0.108   4.189   2.317
  262OcOH   HG1 7068   0.239   4.200   2.489
  262OcOH   HG2 7069   0.147   4.051   2.480
  262OcOH    CG 7070   0.202   4.124   2.420
  262OcOH   HH1 7071   0.381   4.127   2.294
  262OcOH   HH2 7072   0.288   3.978   2.283
  262OcOH   HH3 7073   0.387   4.009   2.424
  262OcOH    CH 7074   0.321   4.055   2.352
  263OcOH    HO 7075   4.367   2.480   1.330
  263OcOH    OH 7076   4.365   2.526   1.414
  263OcOH   HA1 7077   4.492   2.633   1.533
  263OcOH   HA2 7078   4.568   2.509   1.435
  263OcOH    CA 7079   4.491   2.586   1.434
  263OcOH   HB1 7080   4.440   2.767   1.330
  263OcOH   HB2 7081   4.508   2.644   1.227
  263OcOH    CB 7082   4.517   2.690   1.325
  263OcOH   HC1 7083   4.667   2.800   1.437
  263OcOH   HC2 7084   4.732   2.677   1.332
  263OcOH    CC 7085   4.656   2.755   1.338
  263OcOH   HD1 7086   4.668   2.819   1.131
  263OcOH   HD2 7087   4.792   2.884   1.234
  263OcOH    CD 7088   4.686   2.860   1.230
  263OcOH   HE1 7089   4.500   2.971   1.234
  263OcOH   HE2 7090   4.619   3.024   1.352
  263OcOH    CE 7091   4.606   2.991   1.249
  263OcOH   HF1 7092   4.651   3.066   1.052
  263OcOH   HF2 7093   4.756   3.129   1.176
  263OcOH    CF 7094   4.652   3.103   1.155
  263OcOH   HG1 7095   4.599   3.300   1.087
  263OcOH   HG2 7096   4.461   3.204   1.137
  263OcOH    CG 7097   4.564   3.229   1.163
  263OcOH   HH1 7098   4.508   3.390   1.298
  263OcOH   HH2 7099   4.669   3.326   1.329
  263OcOH   HH3 7100   4.525   3.235   1.378
  263OcOH    CH 7101   4.567   3.298   1.300
  264OcOH    HO 7102   3.352   3.315   4.235
  264OcOH    OH 7103   3.360   3.232   4.185
  264OcOH   HA1 7104   3.303   3.115   4.342
  264OcOH   HA2 7105   3.172   3.191   4.252
  264OcOH    CA 7106   3.269   3.142   4.242
  264OcOH   HB1 7107   3.356   2.974   4.138
  264OcOH   HB2 7108   3.221   3.047   4.054
  264OcOH    CB 7109   3.257   3.018   4.153
  264OcOH   HC1 7110   3.198   2.886   4.312
  264OcOH   HC2 7111   3.063   2.954   4.225
  264OcOH    CC 7112   3.163   2.912   4.213
  264OcOH   HD1 7113   3.255   2.752   4.100
  264OcOH   HD2 7114   3.106   2.811   4.031
  264OcOH    CD 7115   3.155   2.786   4.126
  264OcOH   HE1 7116   3.137   2.638   4.282
  264OcOH   HE2 7117   2.984   2.708   4.233
  264OcOH    CE 7118   3.080   2.671   4.195
  264OcOH   HF1 7119   3.150   2.518   4.060
  264OcOH   HF2 7120   2.994   2.585   4.017
  264OcOH    CF 7121   3.055   2.552   4.102
  264OcOH   HG1 7122   3.049   2.397   4.252
  264OcOH   HG2 7123   2.893   2.468   4.218
  264OcOH    CG 7124   2.985   2.434   4.172
  264OcOH   HH1 7125   2.905   2.237   4.127
  264OcOH   HH2 7126   3.045   2.281   4.029
  264OcOH   HH3 7127   2.887   2.352   3.995
  264OcOH    CH 7128   2.954   2.320   4.075
  265OcOH    HO 7129   0.818   3.859   0.468
  265OcOH    OH 7130   0.870   3.869   0.387
  265OcOH   HA1 7131   0.959   4.021   0.490
  265OcOH   HA2 7132   1.015   4.000   0.326
  265OcOH    CA 7133   0.927   3.998   0.389
  265OcOH   HB1 7134   0.868   4.202   0.354
  265OcOH   HB2 7135   0.736   4.101   0.405
  265OcOH    CB 7136   0.825   4.103   0.342
  265OcOH   HC1 7137   0.874   4.082   0.133
  265OcOH   HC2 7138   0.738   3.986   0.182
  265OcOH    CC 7139   0.784   4.083   0.195
  265OcOH   HD1 7140   0.727   4.291   0.163
  265OcOH   HD2 7141   0.595   4.185   0.202
  265OcOH    CD 7142   0.687   4.191   0.144
  265OcOH   HE1 7143   0.635   4.070   5.110
  265OcOH   HE2 7144   0.562   4.228   5.109
  265OcOH    CE 7145   0.655   4.175   5.131
  265OcOH   HF1 7146   0.863   4.193   5.073
  265OcOH   HF2 7147   0.770   4.337   5.045
  265OcOH    CF 7148   0.766   4.228   5.038
  265OcOH   HG1 7149   0.836   4.220   4.835
  265OcOH   HG2 7150   0.752   4.076   4.885
  265OcOH    CG 7151   0.750   4.185   4.892
  265OcOH   HH1 7152   0.533   4.197   4.873
  265OcOH   HH2 7153   0.618   4.209   4.720
  265OcOH   HH3 7154   0.615   4.346   4.830
  265OcOH    CH 7155   0.622   4.237   4.825
  266OcOH    HO 7156   0.792   0.027   4.933
  266OcOH    OH 7157   0.794   0.119   4.912
  266OcOH   HA1 7158   0.672   0.255   4.818
  266OcOH   HA2 7159   0.641   0.088   4.776
  266OcOH    CA 7160   0.667   0.154   4.859
  266OcOH   HB1 7161   0.472   0.199   4.933
  266OcOH   HB2 7162   0.596   0.206   5.056
  266OcOH    CB 7163   0.562   0.149   4.970
  266OcOH   HC1 7164   0.491   5.086   4.925
  266OcOH   HC2 7165   0.609   5.091   5.054
  266OcOH    CC 7166   0.523   0.006   5.013
  266OcOH   HD1 7167   0.324   0.064   5.074
  266OcOH   HD2 7168   0.440   0.065   0.068
  266OcOH    CD 7169   0.409   0.009   5.116
  266OcOH   HE1 7170   0.334   4.949   5.069
  266OcOH   HE2 7171   0.444   4.951   0.068
  266OcOH    CE 7172   0.362   5.006   0.021
  266OcOH   HF1 7173   0.162   5.069   0.071
  266OcOH   HF2 7174   0.270   5.065   0.208
  266OcOH    CF 7175   0.242   5.011   0.117
  266OcOH   HG1 7176   0.168   4.818   0.062
  266OcOH   HG2 7177   0.268   4.815   0.204
  266OcOH    CG 7178   0.190   4.872   0.154
  266OcOH   HH1 7179   0.025   4.777   0.260
  266OcOH   HH2 7180   5.122   4.934   0.193
  266OcOH   HH3 7181   0.085   4.922   0.338
  266OcOH    CH 7182   0.064   4.877   0.241
  267OcOH    HO 7183   4.333   3.706   3.219
  267OcOH    OH 7184   4.381   3.745   3.146
  267OcOH   HA1 7185   4.199   3.797   3.078
  267OcOH   HA2 7186   4.285   3.929   3.151
  267OcOH    CA 7187   4.297   3.842   3.087
  267OcOH   HB1 7188   4.266   3.921   2.890
  267OcOH   HB2 7189   4.384   3.793   2.894
  267OcOH    CB 7190   4.350   3.882   2.948
  267OcOH   HC1 7191   4.485   4.011   2.844
  267OcOH   HC2 7192   4.418   4.082   2.988
  267OcOH    CC 7193   4.460   3.990   2.948
  267OcOH   HD1 7194   4.620   3.852   2.999
  267OcOH   HD2 7195   4.561   3.948   3.132
  267OcOH    CD 7196   4.587   3.952   3.026
  267OcOH   HE1 7197   4.665   4.154   3.018
  267OcOH   HE2 7198   4.773   4.037   3.090
  267OcOH    CE 7199   4.702   4.052   3.008
  267OcOH   HF1 7200   4.709   4.041   2.791
  267OcOH   HF2 7201   4.820   3.933   2.872
  267OcOH    CF 7202   4.778   4.034   2.875
  267OcOH   HG1 7203   4.848   4.237   2.856
  267OcOH   HG2 7204   4.958   4.133   2.943
  267OcOH    CG 7205   4.891   4.137   2.858
  267OcOH   HH1 7206   5.050   4.188   2.719
  267OcOH   HH2 7207   4.907   4.122   2.641
  267OcOH   HH3 7208   5.017   4.015   2.728
  267OcOH    CH 7209   4.971   4.114   2.729
  268OcOH    HO 7210   1.665   4.652   1.284
  268OcOH    OH 7211   1.735   4.586   1.284
  268OcOH   HA1 7212   1.605   4.454   1.373
  268OcOH   HA2 7213   1.613   4.445   1.199
  268OcOH    CA 7214   1.674   4.459   1.288
  268OcOH   HB1 7215   1.857   4.365   1.222
  268OcOH   HB2 7216   1.736   4.253   1.278
  268OcOH    CB 7217   1.781   4.350   1.299
  268OcOH   HC1 7218   1.884   4.445   1.463
  268OcOH   HC2 7219   1.772   4.321   1.513
  268OcOH    CC 7220   1.847   4.346   1.438
  268OcOH   HD1 7221   2.037   4.271   1.371
  268OcOH   HD2 7222   1.926   4.146   1.419
  268OcOH    CD 7223   1.962   4.245   1.446
  268OcOH   HE1 7224   2.045   4.342   1.619
  268OcOH   HE2 7225   1.960   4.195   1.656
  268OcOH    CE 7226   2.028   4.240   1.584
  268OcOH   HF1 7227   2.206   4.174   1.686
  268OcOH   HF2 7228   2.234   4.219   1.520
  268OcOH    CF 7229   2.164   4.167   1.586
  268OcOH   HG1 7230   2.081   3.968   1.607
  268OcOH   HG2 7231   2.120   4.011   1.442
  268OcOH    CG 7232   2.155   4.019   1.545
  268OcOH   HH1 7233   2.282   3.843   1.527
  268OcOH   HH2 7234   2.328   3.950   1.659
  268OcOH   HH3 7235   2.365   3.994   1.493
  268OcOH    CH 7236   2.290   3.947   1.557
  269OcOH    HO 7237   4.201   4.220   1.044
  269OcOH    OH 7238   4.229   4.254   1.129
  269OcOH   HA1 7239   4.334   4.195   1.293
  269OcOH   HA2 7240   4.253   4.065   1.207
  269OcOH    CA 7241   4.310   4.158   1.194
  269OcOH   HB1 7242   4.506   4.074   1.176
  269OcOH   HB2 7243   4.489   4.227   1.094
  269OcOH    CB 7244   4.438   4.132   1.114
  269OcOH   HC1 7245   4.369   3.958   1.008
  269OcOH   HC2 7246   4.341   4.107   0.923
  269OcOH    CC 7247   4.414   4.054   0.984
  269OcOH   HD1 7248   4.620   3.991   0.962
  269OcOH   HD2 7249   4.578   4.131   0.867
  269OcOH    CD 7250   4.541   4.034   0.901
  269OcOH   HE1 7251   4.479   3.845   0.815
  269OcOH   HE2 7252   4.435   3.986   0.720
  269OcOH    CE 7253   4.515   3.942   0.780
  269OcOH   HF1 7254   4.720   3.881   0.756
  269OcOH   HF2 7255   4.676   4.020   0.660
  269OcOH    CF 7256   4.640   3.923   0.694
  269OcOH   HG1 7257   4.715   3.817   0.522
  269OcOH   HG2 7258   4.590   3.730   0.608
  269OcOH    CG 7259   4.619   3.830   0.573
  269OcOH   HH1 7260   4.513   3.818   0.384
  269OcOH   HH2 7261   4.538   3.983   0.440
  269OcOH   HH3 7262   4.415   3.882   0.515
  269OcOH    CH 7263   4.516   3.882   0.472
  270OcOH    HO 7264   2.411   4.005   1.945
  270OcOH    OH 7265   2.419   4.096   1.975
  270OcOH   HA1 7266   2.368   4.181   2.155
  270OcOH   HA2 7267   2.363   4.005   2.149
  270OcOH    CA 7268   2.419   4.092   2.116
  270OcOH   HB1 7269   2.610   4.185   2.147
  270OcOH   HB2 7270   2.621   4.015   2.108
  270OcOH    CB 7271   2.564   4.088   2.166
  270OcOH   HC1 7272   2.503   4.111   2.371
  270OcOH   HC2 7273   2.552   3.949   2.331
  270OcOH    CC 7274   2.577   4.054   2.315
  270OcOH   HD1 7275   2.717   4.058   2.479
  270OcOH   HD2 7276   2.731   4.193   2.371
  270OcOH    CD 7277   2.716   4.085   2.373
  270OcOH   HE1 7278   2.844   4.052   2.201
  270OcOH   HE2 7279   2.926   4.050   2.354
  270OcOH    CE 7280   2.835   4.017   2.304
  270OcOH   HF1 7281   2.749   3.829   2.243
  270OcOH   HF2 7282   2.808   3.829   2.407
  270OcOH    CF 7283   2.831   3.864   2.306
  270OcOH   HG1 7284   2.983   3.832   2.155
  270OcOH   HG2 7285   3.045   3.839   2.318
  270OcOH    CG 7286   2.963   3.801   2.258
  270OcOH   HH1 7287   2.949   3.614   2.369
  270OcOH   HH2 7288   3.057   3.607   2.230
  270OcOH   HH3 7289   2.883   3.605   2.205
  270OcOH    CH 7290   2.963   3.648   2.266
  271OcOH    HO 7291   0.869   4.823   0.790
  271OcOH    OH 7292   0.864   4.910   0.830
  271OcOH   HA1 7293   0.809   4.988   0.649
  271OcOH   HA2 7294   0.677   4.937   0.752
  271OcOH    CA 7295   0.774   4.986   0.752
  271OcOH   HB1 7296   0.863   0.034   0.819
  271OcOH   HB2 7297   0.722   5.124   0.910
  271OcOH    CB 7298   0.764   5.128   0.809
  271OcOH   HC1 7299   0.727   0.094   0.624
  271OcOH   HC2 7300   0.581   0.036   0.702
  271OcOH    CC 7301   0.678   0.083   0.721
  271OcOH   HD1 7302   0.750   0.265   0.812
  271OcOH   HD2 7303   0.596   0.210   0.874
  271OcOH    CD 7304   0.654   0.222   0.782
  271OcOH   HE1 7305   0.647   0.335   0.600
  271OcOH   HE2 7306   0.491   0.273   0.648
  271OcOH    CE 7307   0.583   0.319   0.686
  271OcOH   HF1 7308   0.535   0.528   0.670
  271OcOH   HF2 7309   0.636   0.491   0.806
  271OcOH    CF 7310   0.550   0.455   0.749
  271OcOH   HG1 7311   0.339   0.423   0.778
  271OcOH   HG2 7312   0.435   0.380   0.917
  271OcOH    CG 7313   0.425   0.454   0.838
  271OcOH   HH1 7314   0.305   0.587   0.962
  271OcOH   HH2 7315   0.381   0.668   0.825
  271OcOH   HH3 7316   0.477   0.622   0.966
  271OcOH    CH 7317   0.395   0.591   0.901
  272OcOH    HO 7318   5.013   4.335   0.322
  272OcOH    OH 7319   5.020   4.430   0.319
  272OcOH   HA1 7320   5.061   4.389   0.123
  272OcOH   HA2 7321   5.041   4.559   0.161
  272OcOH    CA 7322   5.083   4.465   0.198
  272OcOH   HB1 7323   0.136   4.389   0.268
  272OcOH   HB2 7324   0.119   4.560   0.287
  272OcOH    CB 7325   0.098   4.478   0.219
  272OcOH   HC1 7326   0.145   4.423   0.017
  272OcOH   HC2 7327   0.143   4.594   0.042
  272OcOH    CC 7328   0.174   4.500   0.087
  272OcOH   HD1 7329   0.354   4.408   0.163
  272OcOH   HD2 7330   0.360   4.582   0.166
  272OcOH    CD 7331   0.327   4.497   0.105
  272OcOH   HE1 7332   0.508   4.468   5.131
  272OcOH   HE2 7333   0.366   4.412   5.047
  272OcOH    CE 7334   0.404   4.493   5.109
  272OcOH   HF1 7335   0.443   4.705   5.093
  272OcOH   HF2 7336   0.298   4.654   5.009
  272OcOH    CF 7337   0.401   4.626   5.030
  272OcOH   HG1 7338   0.581   4.579   4.918
  272OcOH   HG2 7339   0.433   4.543   4.833
  272OcOH    CG 7340   0.480   4.616   4.899
  272OcOH   HH1 7341   0.537   4.827   4.890
  272OcOH   HH2 7342   0.392   4.787   4.797
  272OcOH   HH3 7343   0.551   4.742   4.736
  272OcOH    CH 7344   0.490   4.751   4.826
  273OcOH    HO 7345   1.840   2.956   1.376
  273OcOH    OH 7346   1.777   2.942   1.304
  273OcOH   HA1 7347   1.781   2.884   1.108
  273OcOH   HA2 7348   1.922   2.972   1.162
  273OcOH    CA 7349   1.850   2.897   1.192
  273OcOH   HB1 7350   1.847   2.691   1.259
  273OcOH   HB2 7351   1.990   2.779   1.306
  273OcOH    CB 7352   1.920   2.764   1.224
  273OcOH   HC1 7353   1.923   2.691   1.023
  273OcOH   HC2 7354   2.065   2.784   1.065
  273OcOH    CC 7355   1.995   2.709   1.103
  273OcOH   HD1 7356   2.001   2.505   1.173
  273OcOH   HD2 7357   2.146   2.596   1.208
  273OcOH    CD 7358   2.070   2.578   1.132
  273OcOH   HE1 7359   2.061   2.501   0.930
  273OcOH   HE2 7360   2.205   2.595   0.964
  273OcOH    CE 7361   2.137   2.520   1.006
  273OcOH   HF1 7362   2.145   2.318   1.078
  273OcOH   HF2 7363   2.290   2.408   1.112
  273OcOH    CF 7364   2.214   2.390   1.035
  273OcOH   HG1 7365   2.315   2.228   0.936
  273OcOH   HG2 7366   2.205   2.315   0.832
  273OcOH    CG 7367   2.280   2.328   0.910
  273OcOH   HH1 7368   2.447   2.356   0.774
  273OcOH   HH2 7369   2.474   2.425   0.933
  273OcOH   HH3 7370   2.368   2.506   0.818
  273OcOH    CH 7371   2.399   2.409   0.856
  274OcOH    HO 7372   4.392   2.009   2.290
  274OcOH    OH 7373   4.322   1.977   2.233
  274OcOH   HA1 7374   4.350   1.799   2.329
  274OcOH   HA2 7375   4.211   1.893   2.383
  274OcOH    CA 7376   4.268   1.863   2.295
  274OcOH   HB1 7377   4.241   1.757   2.110
  274OcOH   HB2 7378   4.102   1.851   2.158
  274OcOH    CB 7379   4.180   1.786   2.196
  274OcOH   HC1 7380   4.197   1.598   2.301
  274OcOH   HC2 7381   4.054   1.690   2.343
  274OcOH    CC 7382   4.118   1.661   2.259
  274OcOH   HD1 7383   4.100   1.551   2.075
  274OcOH   HD2 7384   3.955   1.638   2.118
  274OcOH    CD 7385   4.036   1.578   2.159
  274OcOH   HE1 7386   4.059   1.394   2.269
  274OcOH   HE2 7387   3.909   1.476   2.301
  274OcOH    CE 7388   3.979   1.450   2.221
  274OcOH   HF1 7389   3.977   1.337   2.038
  274OcOH   HF2 7390   3.825   1.414   2.073
  274OcOH    CF 7391   3.908   1.360   2.119
  274OcOH   HG1 7392   3.940   1.177   2.231
  274OcOH   HG2 7393   3.784   1.252   2.259
  274OcOH    CG 7394   3.857   1.229   2.181
  274OcOH   HH1 7395   3.751   1.047   2.126
  274OcOH   HH2 7396   3.870   1.099   2.007
  274OcOH   HH3 7397   3.716   1.184   2.022
  274OcOH    CH 7398   3.795   1.135   2.078
  275OcOH    HO 7399   3.730   2.868   2.085
  275OcOH    OH 7400   3.711   2.952   2.041
  275OcOH   HA1 7401   3.873   2.913   1.920
  275OcOH   HA2 7402   3.717   2.870   1.854
  275OcOH    CA 7403   3.769   2.945   1.912
  275OcOH   HB1 7404   3.833   3.150   1.894
  275OcOH   HB2 7405   3.663   3.129   1.864
  275OcOH    CB 7406   3.760   3.084   1.846
  275OcOH   HC1 7407   3.818   3.183   1.665
  275OcOH   HC2 7408   3.874   3.018   1.672
  275OcOH    CC 7409   3.788   3.082   1.694
  275OcOH   HD1 7410   3.577   3.094   1.645
  275OcOH   HD2 7411   3.644   2.934   1.632
  275OcOH    CD 7412   3.665   3.039   1.612
  275OcOH   HE1 7413   3.772   3.010   1.425
  275OcOH   HE2 7414   3.598   3.008   1.411
  275OcOH    CE 7415   3.681   3.059   1.460
  275OcOH   HF1 7416   3.770   3.257   1.453
  275OcOH   HF2 7417   3.595   3.257   1.463
  275OcOH    CF 7418   3.680   3.206   1.417
  275OcOH   HG1 7419   3.755   3.172   1.216
  275OcOH   HG2 7420   3.580   3.176   1.227
  275OcOH    CG 7421   3.671   3.224   1.264
  275OcOH   HH1 7422   3.658   3.381   1.114
  275OcOH   HH2 7423   3.764   3.420   1.249
  275OcOH   HH3 7424   3.589   3.426   1.270
  275OcOH    CH 7425   3.670   3.371   1.222
  276OcOH    HO 7426   4.045   4.856   4.285
  276OcOH    OH 7427   4.032   4.774   4.334
  276OcOH   HA1 7428   4.119   4.680   4.173
  276OcOH   HA2 7429   4.064   4.576   4.303
  276OcOH    CA 7430   4.039   4.665   4.245
  276OcOH   HB1 7431   3.887   4.728   4.104
  276OcOH   HB2 7432   3.824   4.648   4.247
  276OcOH    CB 7433   3.904   4.645   4.173
  276OcOH   HC1 7434   3.982   4.505   4.028
  276OcOH   HC2 7435   3.915   4.431   4.171
  276OcOH    CC 7436   3.899   4.511   4.098
  276OcOH   HD1 7437   3.758   4.558   3.942
  276OcOH   HD2 7438   3.683   4.505   4.091
  276OcOH    CD 7439   3.767   4.487   4.024
  276OcOH   HE1 7440   3.846   4.322   3.908
  276OcOH   HE2 7441   3.763   4.274   4.054
  276OcOH    CE 7442   3.759   4.343   3.970
  276OcOH   HF1 7443   3.629   4.381   3.801
  276OcOH   HF2 7444   3.544   4.340   3.948
  276OcOH    CF 7445   3.632   4.315   3.888
  276OcOH   HG1 7446   3.712   4.143   3.786
  276OcOH   HG2 7447   3.624   4.103   3.931
  276OcOH    CG 7448   3.623   4.169   3.843
  276OcOH   HH1 7449   3.497   4.034   3.729
  276OcOH   HH2 7450   3.496   4.200   3.669
  276OcOH   HH3 7451   3.408   4.159   3.816
  276OcOH    CH 7452   3.499   4.139   3.759
  277OcOH    HO 7453   1.986   2.316   1.340
  277OcOH    OH 7454   2.078   2.291   1.356
  277OcOH   HA1 7455   2.234   2.367   1.468
  277OcOH   HA2 7456   2.105   2.479   1.432
  277OcOH    CA 7457   2.126   2.376   1.459
  277OcOH   HB1 7458   1.949   2.343   1.577
  277OcOH   HB2 7459   2.078   2.418   1.665
  277OcOH    CB 7460   2.057   2.341   1.591
  277OcOH   HC1 7461   2.021   2.172   1.720
  277OcOH   HC2 7462   2.094   2.128   1.569
  277OcOH    CC 7463   2.096   2.203   1.648
  277OcOH   HD1 7464   2.234   2.279   1.797
  277OcOH   HD2 7465   2.312   2.230   1.648
  277OcOH    CD 7466   2.233   2.203   1.719
  277OcOH   HE1 7467   2.186   2.038   1.850
  277OcOH   HE2 7468   2.268   1.990   1.703
  277OcOH    CE 7469   2.266   2.066   1.781
  277OcOH   HF1 7470   2.401   2.151   1.926
  277OcOH   HF2 7471   2.481   2.085   1.786
  277OcOH    CF 7472   2.400   2.067   1.856
  277OcOH   HG1 7473   2.514   1.953   1.999
  277OcOH   HG2 7474   2.343   1.918   2.004
  277OcOH    CG 7475   2.426   1.938   1.936
  277OcOH   HH1 7476   2.363   1.789   1.790
  277OcOH   HH2 7477   2.477   1.728   1.909
  277OcOH   HH3 7478   2.533   1.832   1.779
  277OcOH    CH 7479   2.451   1.815   1.848
  278OcOH    HO 7480   2.759   1.930   3.366
  278OcOH    OH 7481   2.727   1.960   3.280
  278OcOH   HA1 7482   2.561   2.054   3.207
  278OcOH   HA2 7483   2.552   2.007   3.376
  278OcOH    CA 7484   2.618   2.047   3.300
  278OcOH   HB1 7485   2.747   2.217   3.266
  278OcOH   HB2 7486   2.723   2.178   3.435
  278OcOH    CB 7487   2.672   2.185   3.339
  278OcOH   HC1 7488   2.504   2.293   3.256
  278OcOH   HC2 7489   2.494   2.269   3.429
  278OcOH    CC 7490   2.563   2.293   3.348
  278OcOH   HD1 7491   2.688   2.456   3.284
  278OcOH   HD2 7492   2.688   2.432   3.457
  278OcOH    CD 7493   2.624   2.433   3.369
  278OcOH   HE1 7494   2.447   2.538   3.302
  278OcOH   HE2 7495   2.461   2.526   3.475
  278OcOH    CE 7496   2.518   2.543   3.384
  278OcOH   HF1 7497   2.636   2.701   3.296
  278OcOH   HF2 7498   2.655   2.687   3.469
  278OcOH    CF 7499   2.581   2.683   3.389
  278OcOH   HG1 7500   2.404   2.792   3.328
  278OcOH   HG2 7501   2.423   2.777   3.502
  278OcOH    CG 7502   2.478   2.795   3.409
  278OcOH   HH1 7503   2.591   2.958   3.320
  278OcOH   HH2 7504   2.617   2.940   3.493
  278OcOH   HH3 7505   2.467   3.011   3.433
  278OcOH    CH 7506   2.542   2.934   3.414
  279OcOH    HO 7507   1.234   1.505   0.146
  279OcOH    OH 7508   1.245   1.456   0.227
  279OcOH   HA1 7509   1.136   1.425   0.400
  279OcOH   HA2 7510   1.095   1.570   0.309
  279OcOH    CA 7511   1.123   1.465   0.299
  279OcOH   HB1 7512   1.007   1.424   0.121
  279OcOH   HB2 7513   0.917   1.409   0.270
  279OcOH    CB 7514   1.014   1.387   0.224
  279OcOH   HC1 7515   1.137   1.213   0.189
  279OcOH   HC2 7516   1.032   1.199   0.327
  279OcOH    CC 7517   1.037   1.235   0.225
  279OcOH   HD1 7518   0.939   1.197   0.036
  279OcOH   HD2 7519   0.834   1.180   0.175
  279OcOH    CD 7520   0.935   1.160   0.139
  279OcOH   HE1 7521   1.062   0.988   0.108
  279OcOH   HE2 7522   0.949   0.970   0.240
  279OcOH    CE 7523   0.959   1.008   0.138
  279OcOH   HF1 7524   0.874   0.974   5.080
  279OcOH   HF2 7525   0.760   0.953   0.073
  279OcOH    CF 7526   0.863   0.933   0.044
  279OcOH   HG1 7527   0.836   0.741   5.089
  279OcOH   HG2 7528   0.994   0.760   0.024
  279OcOH    CG 7529   0.888   0.782   0.039
  279OcOH   HH1 7530   0.850   0.601   0.152
  279OcOH   HH2 7531   0.734   0.729   0.182
  279OcOH   HH3 7532   0.895   0.738   0.253
  279OcOH    CH 7533   0.839   0.708   0.164
  280OcOH    HO 7534   3.375   3.441   1.906
  280OcOH    OH 7535   3.408   3.492   1.830
  280OcOH   HA1 7536   3.475   3.302   1.795
  280OcOH   HA2 7537   3.429   3.392   1.652
  280OcOH    CA 7538   3.479   3.401   1.748
  280OcOH   HB1 7539   3.679   3.366   1.681
  280OcOH   HB2 7540   3.671   3.457   1.829
  280OcOH    CB 7541   3.625   3.446   1.731
  280OcOH   HC1 7542   3.589   3.565   1.554
  280OcOH   HC2 7543   3.591   3.657   1.703
  280OcOH    CC 7544   3.640   3.575   1.650
  280OcOH   HD1 7545   3.837   3.534   1.570
  280OcOH   HD2 7546   3.838   3.620   1.722
  280OcOH    CD 7547   3.787   3.613   1.626
  280OcOH   HE1 7548   3.754   3.739   1.452
  280OcOH   HE2 7549   3.747   3.824   1.604
  280OcOH    CE 7550   3.802   3.747   1.550
  280OcOH   HF1 7551   4.001   3.717   1.474
  280OcOH   HF2 7552   3.997   3.790   1.632
  280OcOH    CF 7553   3.948   3.790   1.534
  280OcOH   HG1 7554   3.917   3.930   1.373
  280OcOH   HG2 7555   3.907   4.002   1.531
  280OcOH    CG 7556   3.963   3.929   1.471
  280OcOH   HH1 7557   4.117   4.074   1.419
  280OcOH   HH2 7558   4.166   3.907   1.396
  280OcOH   HH3 7559   4.158   3.975   1.558
  280OcOH    CH 7560   4.109   3.973   1.461
  281OcOH    HO 7561   1.871   2.467   4.510
  281OcOH    OH 7562   1.915   2.468   4.595
  281OcOH   HA1 7563   1.929   2.670   4.563
  281OcOH   HA2 7564   2.003   2.611   4.712
  281OcOH    CA 7565   1.988   2.588   4.606
  281OcOH   HB1 7566   2.107   2.541   4.432
  281OcOH   HB2 7567   2.181   2.497   4.584
  281OcOH    CB 7568   2.123   2.575   4.535
  281OcOH   HC1 7569   2.144   2.782   4.481
  281OcOH   HC2 7570   2.213   2.743   4.637
  281OcOH    CC 7571   2.201   2.706   4.535
  281OcOH   HD1 7572   2.327   2.652   4.369
  281OcOH   HD2 7573   2.398   2.618   4.525
  281OcOH    CD 7574   2.339   2.692   4.470
  281OcOH   HE1 7575   2.361   2.897   4.404
  281OcOH   HE2 7576   2.424   2.866   4.564
  281OcOH    CE 7577   2.417   2.824   4.463
  281OcOH   HF1 7578   2.612   2.731   4.461
  281OcOH   HF2 7579   2.614   2.901   4.424
  281OcOH    CF 7580   2.559   2.809   4.406
  281OcOH   HG1 7581   2.503   2.691   4.233
  281OcOH   HG2 7582   2.516   2.862   4.200
  281OcOH    CG 7583   2.562   2.779   4.255
  281OcOH   HH1 7584   2.703   2.733   4.097
  281OcOH   HH2 7585   2.750   2.671   4.254
  281OcOH   HH3 7586   2.767   2.843   4.218
  281OcOH    CH 7587   2.704   2.755   4.203
  282OcOH    HO 7588   0.469   1.375   0.840
  282OcOH    OH 7589   0.521   1.408   0.914
  282OcOH   HA1 7590   0.336   1.452   0.989
  282OcOH   HA2 7591   0.470   1.496   1.093
  282OcOH    CA 7592   0.437   1.494   0.989
  282OcOH   HB1 7593   0.357   1.692   0.976
  282OcOH   HB2 7594   0.412   1.630   0.823
  282OcOH    CB 7595   0.437   1.635   0.929
  282OcOH   HC1 7596   0.595   1.706   1.056
  282OcOH   HC2 7597   0.650   1.655   0.898
  282OcOH    CC 7598   0.570   1.709   0.950
  282OcOH   HD1 7599   0.481   1.907   0.948
  282OcOH   HD2 7600   0.545   1.855   0.794
  282OcOH    CD 7601   0.565   1.855   0.901
  282OcOH   HE1 7602   0.780   1.874   0.891
  282OcOH   HE2 7603   0.694   2.023   0.866
  282OcOH    CE 7604   0.695   1.933   0.927
  282OcOH   HF1 7605   0.714   1.885   1.138
  282OcOH   HF2 7606   0.628   2.033   1.105
  282OcOH    CF 7607   0.714   1.973   1.074
  282OcOH   HG1 7608   0.847   2.139   1.032
  282OcOH   HG2 7609   0.836   2.097   1.201
  282OcOH    CG 7610   0.842   2.054   1.100
  282OcOH   HH1 7611   0.969   1.888   1.163
  282OcOH   HH2 7612   1.058   2.032   1.114
  282OcOH   HH3 7613   0.985   1.929   0.992
  282OcOH    CH 7614   0.971   1.971   1.092
  283OcOH    HO 7615   1.622   1.105   2.763
  283OcOH    OH 7616   1.654   1.161   2.835
  283OcOH   HA1 7617   1.849   1.135   2.778
  283OcOH   HA2 7618   1.827   1.177   2.947
  283OcOH    CA 7619   1.785   1.118   2.866
  283OcOH   HB1 7620   1.886   0.932   2.902
  283OcOH   HB2 7621   1.734   0.914   2.821
  283OcOH    CB 7622   1.784   0.969   2.901
  283OcOH   HC1 7623   1.779   0.974   3.117
  283OcOH   HC2 7624   1.621   0.988   3.044
  283OcOH    CC 7625   1.717   0.936   3.035
  283OcOH   HD1 7626   1.782   0.731   3.012
  283OcOH   HD2 7627   1.611   0.755   2.988
  283OcOH    CD 7628   1.695   0.785   3.050
  283OcOH   HE1 7629   1.759   0.762   3.255
  283OcOH   HE2 7630   1.588   0.796   3.239
  283OcOH    CE 7631   1.671   0.740   3.195
  283OcOH   HF1 7632   1.713   0.534   3.144
  283OcOH   HF2 7633   1.543   0.573   3.150
  283OcOH    CF 7634   1.639   0.589   3.201
  283OcOH   HG1 7635   1.566   0.595   3.404
  283OcOH   HG2 7636   1.580   0.435   3.338
  283OcOH    CG 7637   1.630   0.532   3.343
  283OcOH   HH1 7638   1.829   0.445   3.351
  283OcOH   HH2 7639   1.755   0.470   3.509
  283OcOH   HH3 7640   1.820   0.607   3.420
  283OcOH    CH 7641   1.766   0.513   3.409
  284OcOH    HO 7642   4.624   2.039   2.089
  284OcOH    OH 7643   4.654   2.094   2.163
  284OcOH   HA1 7644   4.624   2.245   2.027
  284OcOH   HA2 7645   4.504   2.232   2.154
  284OcOH    CA 7646   4.611   2.225   2.133
  284OcOH   HB1 7647   4.683   2.302   2.323
  284OcOH   HB2 7648   4.640   2.425   2.206
  284OcOH    CB 7649   4.689   2.328   2.217
  284OcOH   HC1 7650   4.888   2.248   2.188
  284OcOH   HC2 7651   4.839   2.364   2.067
  284OcOH    CC 7652   4.836   2.343   2.174
  284OcOH   HD1 7653   4.913   2.429   2.357
  284OcOH   HD2 7654   4.851   2.547   2.243
  284OcOH    CD 7655   4.909   2.454   2.251
  284OcOH   HE1 7656   5.109   2.388   2.202
  284OcOH   HE2 7657   5.046   2.508   2.093
  284OcOH    CE 7658   5.051   2.480   2.198
  284OcOH   HF1 7659   5.128   2.564   2.382
  284OcOH   HF2 7660   5.065   2.683   2.270
  284OcOH    CF 7661   5.123   2.590   2.276
  284OcOH   HG1 7662   0.188   2.525   2.234
  284OcOH   HG2 7663   0.126   2.640   2.118
  284OcOH    CG 7664   0.129   2.616   2.224
  284OcOH   HH1 7665   0.203   2.711   2.406
  284OcOH   HH2 7666   0.148   2.825   2.284
  284OcOH   HH3 7667   0.302   2.741   2.264
  284OcOH    CH 7668   0.199   2.730   2.299
  285OcOH    HO 7669   4.437   2.453   3.738
  285OcOH    OH 7670   4.375   2.420   3.804
  285OcOH   HA1 7671   4.239   2.268   3.815
  285OcOH   HA2 7672   4.327   2.277   3.664
  285OcOH    CA 7673   4.337   2.288   3.772
  285OcOH   HB1 7674   4.460   2.215   3.932
  285OcOH   HB2 7675   4.535   2.202   3.775
  285OcOH    CB 7676   4.440   2.190   3.828
  285OcOH   HC1 7677   4.304   2.032   3.882
  285OcOH   HC2 7678   4.361   2.021   3.718
  285OcOH    CC 7679   4.393   2.043   3.820
  285OcOH   HD1 7680   4.580   1.940   3.790
  285OcOH   HD2 7681   4.453   1.840   3.854
  285OcOH    CD 7682   4.498   1.939   3.862
  285OcOH   HE1 7683   4.598   2.057   4.014
  285OcOH   HE2 7684   4.471   1.955   4.076
  285OcOH    CE 7685   4.553   1.958   4.005
  285OcOH   HF1 7686   4.736   1.854   3.964
  285OcOH   HF2 7687   4.615   1.754   4.039
  285OcOH    CF 7688   4.659   1.853   4.041
  285OcOH   HG1 7689   4.818   1.817   4.182
  285OcOH   HG2 7690   4.762   1.982   4.182
  285OcOH    CG 7691   4.728   1.878   4.177
  285OcOH   HH1 7692   4.548   1.904   4.298
  285OcOH   HH2 7693   4.692   1.866   4.391
  285OcOH   HH3 7694   4.611   1.740   4.298
  285OcOH    CH 7695   4.639   1.845   4.297
  286OcOH    HO 7696   2.511   4.075   0.959
  286OcOH    OH 7697   2.436   4.074   1.020
  286OcOH   HA1 7698   2.239   4.019   1.010
  286OcOH   HA2 7699   2.319   4.043   0.856
  286OcOH    CA 7700   2.332   4.003   0.956
  286OcOH   HB1 7701   2.369   3.814   1.054
  286OcOH   HB2 7702   2.468   3.840   0.912
  286OcOH    CB 7703   2.367   3.853   0.952
  286OcOH   HC1 7704   2.166   3.793   0.900
  286OcOH   HC2 7705   2.275   3.809   0.764
  286OcOH    CC 7706   2.268   3.773   0.866
  286OcOH   HD1 7707   2.285   3.586   0.972
  286OcOH   HD2 7708   2.396   3.601   0.837
  286OcOH    CD 7709   2.293   3.622   0.869
  286OcOH   HE1 7710   2.092   3.570   0.807
  286OcOH   HE2 7711   2.206   3.581   0.676
  286OcOH    CE 7712   2.194   3.546   0.779
  286OcOH   HF1 7713   2.316   3.368   0.758
  286OcOH   HF2 7714   2.154   3.352   0.698
  286OcOH    CF 7715   2.213   3.393   0.780
  286OcOH   HG1 7716   2.233   3.357   0.993
  286OcOH   HG2 7717   2.068   3.362   0.938
  286OcOH    CG 7718   2.168   3.327   0.911
  286OcOH   HH1 7719   2.266   3.134   0.882
  286OcOH   HH2 7720   2.100   3.140   0.821
  286OcOH   HH3 7721   2.130   3.129   0.994
  286OcOH    CH 7722   2.166   3.174   0.902
  287OcOH    HO 7723   3.280   3.430   5.087
  287OcOH    OH 7724   3.370   3.462   5.072
  287OcOH   HA1 7725   3.293   3.648   5.039
  287OcOH   HA2 7726   3.343   3.617   0.068
  287OcOH    CA 7727   3.370   3.601   5.099
  287OcOH   HB1 7728   3.531   3.647   4.962
  287OcOH   HB2 7729   3.584   3.600   5.121
  287OcOH    CB 7730   3.508   3.659   5.068
  287OcOH   HC1 7731   3.506   3.814   0.081
  287OcOH   HC2 7732   3.629   3.836   5.098
  287OcOH    CC 7733   3.525   3.806   5.111
  287OcOH   HD1 7734   3.442   4.003   5.089
  287OcOH   HD2 7735   3.331   3.878   5.046
  287OcOH    CD 7736   3.435   3.907   5.037
  287OcOH   HE1 7737   3.575   3.964   4.882
  287OcOH   HE2 7738   3.468   3.834   4.836
  287OcOH    CE 7739   3.472   3.929   4.889
  287OcOH   HF1 7740   3.380   4.124   4.875
  287OcOH   HF2 7741   3.275   3.993   4.828
  287OcOH    CF 7742   3.378   4.029   4.821
  287OcOH   HG1 7743   3.514   4.096   4.666
  287OcOH   HG2 7744   3.416   3.959   4.619
  287OcOH    CG 7745   3.414   4.054   4.673
  287OcOH   HH1 7746   3.342   4.164   4.501
  287OcOH   HH2 7747   3.311   4.245   4.654
  287OcOH   HH3 7748   3.213   4.107   4.606
  287OcOH    CH 7749   3.314   4.148   4.605
  288OcOH    HO 7750   1.197   0.550   0.027
  288OcOH    OH 7751   1.271   0.607   0.000
  288OcOH   HA1 7752   1.368   0.428   5.133
  288OcOH   HA2 7753   1.341   0.500   4.976
  288OcOH    CA 7754   1.368   0.522   5.079
  288OcOH   HB1 7755   1.532   0.605   0.055
  288OcOH   HB2 7756   1.502   0.687   5.040
  288OcOH    CB 7757   1.506   0.589   5.087
  288OcOH   HC1 7758   1.612   0.402   5.058
  288OcOH   HC2 7759   1.593   0.498   4.913
  288OcOH    CC 7760   1.615   0.504   5.020
  288OcOH   HD1 7761   1.782   0.557   0.010
  288OcOH   HD2 7762   1.756   0.668   5.014
  288OcOH    CD 7763   1.756   0.562   5.041
  288OcOH   HE1 7764   1.860   0.383   4.982
  288OcOH   HE2 7765   1.835   0.497   4.852
  288OcOH    CE 7766   1.862   0.489   4.957
  288OcOH   HF1 7767   2.031   0.536   5.082
  288OcOH   HF2 7768   2.004   0.651   4.952
  288OcOH    CF 7769   2.003   0.544   4.977
  288OcOH   HG1 7770   2.106   0.364   4.914
  288OcOH   HG2 7771   2.078   0.478   4.785
  288OcOH    CG 7772   2.107   0.471   4.890
  288OcOH   HH1 7773   2.320   0.470   4.846
  288OcOH   HH2 7774   2.282   0.517   5.012
  288OcOH   HH3 7775   2.255   0.630   4.879
  288OcOH    CH 7776   2.249   0.525   4.908
  289OcOH    HO 7777   1.890   0.823   2.615
  289OcOH    OH 7778   1.806   0.842   2.571
  289OcOH   HA1 7779   1.657   0.736   2.480
  289OcOH   HA2 7780   1.810   0.652   2.499
  289OcOH    CA 7781   1.741   0.720   2.548
  289OcOH   HB1 7782   1.625   0.732   2.731
  289OcOH   HB2 7783   1.776   0.645   2.748
  289OcOH    CB 7784   1.692   0.660   2.681
  289OcOH   HC1 7785   1.529   0.549   2.598
  289OcOH   HC2 7786   1.677   0.458   2.605
  289OcOH    CC 7787   1.615   0.529   2.661
  289OcOH   HD1 7788   1.488   0.393   2.767
  289OcOH   HD2 7789   1.521   0.538   2.857
  289OcOH    CD 7790   1.567   0.463   2.791
  289OcOH   HE1 7791   1.734   0.326   2.797
  289OcOH   HE2 7792   1.749   0.460   2.908
  289OcOH    CE 7793   1.678   0.388   2.867
  289OcOH   HF1 7794   1.556   0.224   2.935
  289OcOH   HF2 7795   1.560   0.359   3.045
  289OcOH    CF 7796   1.622   0.299   2.979
  289OcOH   HG1 7797   1.795   0.169   2.994
  289OcOH   HG2 7798   1.798   0.305   3.104
  289OcOH    CG 7799   1.732   0.230   3.060
  289OcOH   HH1 7800   1.756   0.093   3.228
  289OcOH   HH2 7801   1.612   0.062   3.130
  289OcOH   HH3 7802   1.616   0.199   3.242
  289OcOH    CH 7803   1.676   0.141   3.171
  290OcOH    HO 7804   0.022   3.373   2.244
  290OcOH    OH 7805   0.117   3.378   2.237
  290OcOH   HA1 7806   0.124   3.215   2.360
  290OcOH   HA2 7807   0.278   3.295   2.334
  290OcOH    CA 7808   0.172   3.313   2.350
  290OcOH   HB1 7809   0.181   3.339   2.563
  290OcOH   HB2 7810   0.042   3.415   2.490
  290OcOH    CB 7811   0.149   3.397   2.476
  290OcOH   HC1 7812   0.331   3.511   2.457
  290OcOH   HC2 7813   0.191   3.591   2.391
  290OcOH    CC 7814   0.225   3.530   2.475
  290OcOH   HD1 7815   0.236   3.549   2.690
  290OcOH   HD2 7816   0.104   3.638   2.618
  290OcOH    CD 7817   0.209   3.611   2.604
  290OcOH   HE1 7818   0.400   3.710   2.587
  290OcOH   HE2 7819   0.268   3.802   2.521
  290OcOH    CE 7820   0.296   3.738   2.605
  290OcOH   HF1 7821   0.305   3.751   2.820
  290OcOH   HF2 7822   0.184   3.854   2.748
  290OcOH    CF 7823   0.286   3.817   2.736
  290OcOH   HG1 7824   0.487   3.897   2.731
  290OcOH   HG2 7825   0.368   4.002   2.657
  290OcOH    CG 7826   0.385   3.935   2.742
  290OcOH   HH1 7827   0.393   3.952   2.959
  290OcOH   HH2 7828   0.448   4.096   2.874
  290OcOH   HH3 7829   0.276   4.060   2.882
  290OcOH    CH 7830   0.375   4.015   2.872
  291OcOH    HO 7831   0.551   3.807   3.684
  291OcOH    OH 7832   0.472   3.803   3.629
  291OcOH   HA1 7833   0.562   3.657   3.517
  291OcOH   HA2 7834   0.414   3.723   3.450
  291OcOH    CA 7835   0.505   3.749   3.503
  291OcOH   HB1 7836   0.681   3.868   3.475
  291OcOH   HB2 7837   0.534   3.945   3.418
  291OcOH    CB 7838   0.588   3.850   3.423
  291OcOH   HC1 7839   0.676   3.710   3.284
  291OcOH   HC2 7840   0.524   3.778   3.229
  291OcOH    CC 7841   0.618   3.802   3.280
  291OcOH   HD1 7842   0.788   3.931   3.248
  291OcOH   HD2 7843   0.637   4.000   3.196
  291OcOH    CD 7844   0.694   3.908   3.198
  291OcOH   HE1 7845   0.784   3.773   3.055
  291OcOH   HE2 7846   0.631   3.839   3.003
  291OcOH    CE 7847   0.724   3.864   3.054
  291OcOH   HF1 7848   0.890   4.000   3.027
  291OcOH   HF2 7849   0.736   4.063   2.971
  291OcOH    CF 7850   0.798   3.973   2.974
  291OcOH   HG1 7851   0.896   3.841   2.834
  291OcOH   HG2 7852   0.741   3.900   2.779
  291OcOH    CG 7853   0.832   3.929   2.831
  291OcOH   HH1 7854   0.930   4.005   2.652
  291OcOH   HH2 7855   0.995   4.071   2.801
  291OcOH   HH3 7856   0.840   4.127   2.740
  291OcOH    CH 7857   0.903   4.040   2.752
  292OcOH    HO 7858   0.151   1.804   0.401
  292OcOH    OH 7859   0.175   1.765   0.486
  292OcOH   HA1 7860   0.273   1.826   0.655
  292OcOH   HA2 7861   0.370   1.826   0.508
  292OcOH    CA 7862   0.271   1.848   0.548
  292OcOH   HB1 7863   0.132   2.015   0.554
  292OcOH   HB2 7864   0.236   2.012   0.414
  292OcOH    CB 7865   0.234   1.995   0.522
  292OcOH   HC1 7866   0.433   2.071   0.562
  292OcOH   HC2 7867   0.311   2.193   0.538
  292OcOH    CC 7868   0.330   2.097   0.585
  292OcOH   HD1 7869   0.342   2.020   0.788
  292OcOH   HD2 7870   0.207   2.128   0.760
  292OcOH    CD 7871   0.312   2.112   0.737
  292OcOH   HE1 7872   0.498   2.218   0.765
  292OcOH   HE2 7873   0.360   2.322   0.743
  292OcOH    CE 7874   0.393   2.230   0.792
  292OcOH   HF1 7875   0.428   2.163   0.995
  292OcOH   HF2 7876   0.275   2.245   0.972
  292OcOH    CF 7877   0.381   2.248   0.944
  292OcOH   HG1 7878   0.388   2.464   0.949
  292OcOH   HG2 7879   0.420   2.388   1.102
  292OcOH    CG 7880   0.440   2.380   0.995
  292OcOH   HH1 7881   0.614   2.398   0.865
  292OcOH   HH2 7882   0.645   2.309   1.014
  292OcOH   HH3 7883   0.629   2.485   1.017
  292OcOH    CH 7884   0.591   2.393   0.971
  293OcOH    HO 7885   2.397   5.105   2.385
  293OcOH    OH 7886   2.370   5.096   2.477
  293OcOH   HA1 7887   2.344   4.922   2.583
  293OcOH   HA2 7888   2.440   4.909   2.438
  293OcOH    CA 7889   2.420   4.973   2.524
  293OcOH   HB1 7890   2.620   5.049   2.541
  293OcOH   HB2 7891   2.595   4.899   2.626
  293OcOH    CB 7892   2.549   4.996   2.604
  293OcOH   HC1 7893   2.626   5.100   2.775
  293OcOH   HC2 7894   2.478   0.032   2.714
  293OcOH    CC 7895   2.528   5.073   2.735
  293OcOH   HD1 7896   2.501   4.901   2.862
  293OcOH   HD2 7897   2.351   4.970   2.806
  293OcOH    CD 7898   2.450   4.996   2.843
  293OcOH   HE1 7899   2.534   5.103   3.010
  293OcOH   HE2 7900   2.381   0.030   2.955
  293OcOH    CE 7901   2.436   5.074   2.974
  293OcOH   HF1 7902   2.419   4.902   3.105
  293OcOH   HF2 7903   2.267   4.959   3.042
  293OcOH    CF 7904   2.363   4.992   3.082
  293OcOH   HG1 7905   2.281   0.025   3.188
  293OcOH   HG2 7906   2.272   5.012   3.276
  293OcOH    CG 7907   2.337   5.071   3.211
  293OcOH   HH1 7908   2.440   0.018   3.384
  293OcOH   HH2 7909   2.529   0.038   3.233
  293OcOH   HH3 7910   2.523   5.017   3.312
  293OcOH    CH 7911   2.465   5.106   3.289
  294OcOH    HO 7912   2.026   3.741   2.839
  294OcOH    OH 7913   2.108   3.753   2.888
  294OcOH   HA1 7914   2.184   3.621   2.750
  294OcOH   HA2 7915   2.299   3.680   2.870
  294OcOH    CA 7916   2.195   3.647   2.856
  294OcOH   HB1 7917   2.191   3.549   3.049
  294OcOH   HB2 7918   2.238   3.447   2.916
  294OcOH    CB 7919   2.168   3.525   2.945
  294OcOH   HC1 7920   1.957   3.540   2.986
  294OcOH   HC2 7921   1.993   3.470   2.830
  294OcOH    CC 7922   2.025   3.471   2.935
  294OcOH   HD1 7923   2.041   3.330   3.098
  294OcOH   HD2 7924   2.072   3.261   2.941
  294OcOH    CD 7925   2.008   3.330   2.994
  294OcOH   HE1 7926   1.800   3.345   3.050
  294OcOH   HE2 7927   1.825   3.294   2.884
  294OcOH    CE 7928   1.862   3.282   2.986
  294OcOH   HF1 7929   1.881   3.122   3.131
  294OcOH   HF2 7930   1.907   3.072   2.965
  294OcOH    CF 7931   1.845   3.135   3.029
  294OcOH   HG1 7932   1.637   3.147   3.088
  294OcOH   HG2 7933   1.660   3.108   2.920
  294OcOH    CG 7934   1.699   3.089   3.020
  294OcOH   HH1 7935   1.577   2.910   3.047
  294OcOH   HH2 7936   1.719   2.915   3.150
  294OcOH   HH3 7937   1.736   2.878   2.979
  294OcOH    CH 7938   1.682   2.939   3.051
  295OcOH    HO 7939   0.351   1.962   4.177
  295OcOH    OH 7940   0.360   2.047   4.132
  295OcOH   HA1 7941   0.288   2.124   4.308
  295OcOH   HA2 7942   0.457   2.158   4.275
  295OcOH    CA 7943   0.359   2.150   4.229
  295OcOH   HB1 7944   0.221   2.265   4.112
  295OcOH   HB2 7945   0.388   2.303   4.079
  295OcOH    CB 7946   0.318   2.280   4.159
  295OcOH   HC1 7947   0.245   2.377   4.338
  295OcOH   HC2 7948   0.407   2.425   4.293
  295OcOH    CC 7949   0.308   2.401   4.253
  295OcOH   HD1 7950   0.155   2.496   4.135
  295OcOH   HD2 7951   0.317   2.551   4.097
  295OcOH    CD 7952   0.251   2.524   4.180
  295OcOH   HE1 7953   0.172   2.616   4.358
  295OcOH   HE2 7954   0.327   2.680   4.309
  295OcOH    CE 7955   0.231   2.645   4.271
  295OcOH   HF1 7956   0.065   2.722   4.156
  295OcOH   HF2 7957   0.220   2.791   4.112
  295OcOH    CF 7958   0.159   2.759   4.197
  295OcOH   HG1 7959   0.070   2.848   4.373
  295OcOH   HG2 7960   0.222   2.920   4.327
  295OcOH    CG 7961   0.129   2.880   4.287
  295OcOH   HH1 7962   0.034   3.075   4.278
  295OcOH   HH2 7963   5.095   2.954   4.174
  295OcOH   HH3 7964   0.112   3.027   4.128
  295OcOH    CH 7965   0.054   2.990   4.212
  296OcOH    HO 7966   3.375   0.138   0.237
  296OcOH    OH 7967   3.403   0.157   0.146
  296OcOH   HA1 7968   3.454   0.341   0.222
  296OcOH   HA2 7969   3.479   0.320   0.050
  296OcOH    CA 7970   3.411   0.298   0.132
  296OcOH   HB1 7971   3.235   0.314   0.008
  296OcOH   HB2 7972   3.283   0.463   0.085
  296OcOH    CB 7973   3.272   0.356   0.102
  296OcOH   HC1 7974   3.154   0.226   0.227
  296OcOH   HC2 7975   3.208   0.370   0.308
  296OcOH    CC 7976   3.169   0.333   0.214
  296OcOH   HD1 7977   2.997   0.366   0.086
  296OcOH   HD2 7978   3.051   0.508   0.172
  296OcOH    CD 7979   3.034   0.400   0.183
  296OcOH   HE1 7980   2.964   0.411   0.388
  296OcOH   HE2 7981   2.842   0.444   0.268
  296OcOH    CE 7982   2.927   0.378   0.290
  296OcOH   HF1 7983   2.957   0.170   0.339
  296OcOH   HF2 7984   2.856   0.194   0.200
  296OcOH    CF 7985   2.877   0.233   0.299
  296OcOH   HG1 7986   2.777   0.251   0.490
  296OcOH   HG2 7987   2.675   0.288   0.353
  296OcOH    CG 7988   2.753   0.220   0.388
  296OcOH   HH1 7989   2.609   0.073   0.456
  296OcOH   HH2 7990   2.664   0.046   0.292
  296OcOH   HH3 7991   2.769   0.006   0.427
  296OcOH    CH 7992   2.696   0.078   0.391
  297OcOH    HO 7993   3.299   3.463   4.428
  297OcOH    OH 7994   3.292   3.455   4.332
  297OcOH   HA1 7995   3.088   3.444   4.319
  297OcOH   HA2 7996   3.153   3.604   4.346
  297OcOH    CA 7997   3.169   3.511   4.292
  297OcOH   HB1 7998   3.072   3.562   4.105
  297OcOH   HB2 7999   3.196   3.443   4.090
  297OcOH    CB 8000   3.172   3.536   4.140
  297OcOH   HC1 8001   3.364   3.634   4.154
  297OcOH   HC2 8002   3.299   3.632   3.994
  297OcOH    CC 8003   3.271   3.646   4.098
  297OcOH   HD1 8004   3.158   3.798   4.206
  297OcOH   HD2 8005   3.146   3.808   4.033
  297OcOH    CD 8006   3.216   3.789   4.114
  297OcOH   HE1 8007   3.402   3.871   4.039
  297OcOH   HE2 8008   3.283   3.991   4.080
  297OcOH    CE 8009   3.326   3.897   4.113
  297OcOH   HF1 8010   3.421   3.821   4.292
  297OcOH   HF2 8011   3.315   3.956   4.321
  297OcOH    CF 8012   3.390   3.918   4.252
  297OcOH   HG1 8013   3.556   4.012   4.352
  297OcOH   HG2 8014   3.590   3.970   4.187
  297OcOH    CG 8015   3.513   4.011   4.251
  297OcOH   HH1 8016   3.573   4.217   4.215
  297OcOH   HH2 8017   3.409   4.201   4.276
  297OcOH   HH3 8018   3.446   4.161   4.108
  297OcOH    CH 8019   3.483   4.156   4.210
  298OcOH    HO 8020   0.910   3.424   3.413
  298OcOH    OH 8021   0.900   3.338   3.371
  298OcOH   HA1 8022   0.754   3.421   3.255
  298OcOH   HA2 8023   0.913   3.410   3.180
  298OcOH    CA 8024   0.842   3.357   3.244
  298OcOH   HB1 8025   0.745   3.166   3.256
  298OcOH   HB2 8026   0.895   3.162   3.169
  298OcOH    CB 8027   0.805   3.221   3.184
  298OcOH   HC1 8028   0.639   3.298   3.071
  298OcOH   HC2 8029   0.786   3.286   2.978
  298OcOH    CC 8030   0.726   3.234   3.053
  298OcOH   HD1 8031   0.606   3.122   2.915
  298OcOH   HD2 8032   0.618   3.048   3.072
  298OcOH    CD 8033   0.676   3.100   2.996
  298OcOH   HE1 8034   0.847   3.062   2.870
  298OcOH   HE2 8035   0.854   2.981   3.025
  298OcOH    CE 8036   0.787   3.008   2.944
  298OcOH   HF1 8037   0.667   2.906   2.796
  298OcOH   HF2 8038   0.667   2.828   2.953
  298OcOH    CF 8039   0.731   2.880   2.880
  298OcOH   HG1 8040   0.906   2.836   2.761
  298OcOH   HG2 8041   0.905   2.757   2.917
  298OcOH    CG 8042   0.841   2.784   2.833
  298OcOH   HH1 8043   0.723   2.601   2.838
  298OcOH   HH2 8044   0.866   2.591   2.736
  298OcOH   HH3 8045   0.724   2.681   2.680
  298OcOH    CH 8046   0.785   2.657   2.768
  299OcOH    HO 8047   0.800   3.335   1.810
  299OcOH    OH 8048   0.881   3.386   1.799
  299OcOH   HA1 8049   1.066   3.364   1.714
  299OcOH   HA2 8050   1.005   3.222   1.797
  299OcOH    CA 8051   0.976   3.305   1.732
  299OcOH   HB1 8052   0.833   3.184   1.622
  299OcOH   HB2 8053   0.993   3.187   1.553
  299OcOH    CB 8054   0.918   3.250   1.601
  299OcOH   HC1 8055   0.792   3.416   1.547
  299OcOH   HC2 8056   0.956   3.430   1.490
  299OcOH    CC 8057   0.874   3.360   1.503
  299OcOH   HD1 8058   0.742   3.242   1.380
  299OcOH   HD2 8059   0.907   3.241   1.324
  299OcOH    CD 8060   0.830   3.306   1.366
  299OcOH   HE1 8061   0.741   3.373   1.183
  299OcOH   HE2 8062   0.727   3.488   1.312
  299OcOH    CE 8063   0.796   3.417   1.266
  299OcOH   HF1 8064   0.986   3.416   1.165
  299OcOH   HF2 8065   0.976   3.536   1.291
  299OcOH    CF 8066   0.920   3.490   1.210
  299OcOH   HG1 8067   0.979   3.627   1.055
  299OcOH   HG2 8068   0.824   3.554   1.026
  299OcOH    CG 8069   0.887   3.597   1.104
  299OcOH   HH1 8070   0.725   3.698   1.210
  299OcOH   HH2 8071   0.800   3.795   1.084
  299OcOH   HH3 8072   0.883   3.769   1.237
  299OcOH    CH 8073   0.820   3.722   1.163
  300OcOH    HO 8074   4.335   2.372   4.465
  300OcOH    OH 8075   4.306   2.412   4.548
  300OcOH   HA1 8076   4.174   2.552   4.613
  300OcOH   HA2 8077   4.197   2.547   4.439
  300OcOH    CA 8078   4.188   2.485   4.528
  300OcOH   HB1 8079   4.072   2.319   4.600
  300OcOH   HB2 8080   4.080   2.328   4.426
  300OcOH    CB 8081   4.069   2.389   4.516
  300OcOH   HC1 8082   3.928   2.525   4.604
  300OcOH   HC2 8083   3.930   2.528   4.429
  300OcOH    CC 8084   3.934   2.462   4.516
  300OcOH   HD1 8085   3.830   2.290   4.593
  300OcOH   HD2 8086   3.812   2.310   4.421
  300OcOH    CD 8087   3.815   2.365   4.515
  300OcOH   HE1 8088   3.605   2.356   4.560
  300OcOH   HE2 8089   3.686   2.495   4.629
  300OcOH    CE 8090   3.680   2.433   4.539
  300OcOH   HF1 8091   3.615   2.453   4.335
  300OcOH   HF2 8092   3.706   2.590   4.392
  300OcOH    CF 8093   3.630   2.518   4.421
  300OcOH   HG1 8094   3.423   2.520   4.483
  300OcOH   HG2 8095   3.515   2.658   4.538
  300OcOH    CG 8096   3.500   2.591   4.453
  300OcOH   HH1 8097   3.423   2.608   4.249
  300OcOH   HH2 8098   3.521   2.746   4.300
  300OcOH   HH3 8099   3.358   2.727   4.362
  300OcOH    CH 8100   3.448   2.673   4.334
  301OcOH    HO 8101   1.440   0.322   1.159
  301OcOH    OH 8102   1.524   0.367   1.164
  301OcOH   HA1 8103   1.596   0.266   0.999
  301OcOH   HA2 8104   1.514   0.418   0.965
  301OcOH    CA 8105   1.582   0.368   1.035
  301OcOH   HB1 8106   1.701   0.544   1.078
  301OcOH   HB2 8107   1.755   0.454   0.939
  301OcOH    CB 8108   1.717   0.443   1.040
  301OcOH   HC1 8109   1.782   0.352   1.225
  301OcOH   HC2 8110   1.841   0.271   1.083
  301OcOH    CC 8111   1.822   0.370   1.126
  301OcOH   HD1 8112   1.935   0.550   1.164
  301OcOH   HD2 8113   2.003   0.449   1.039
  301OcOH    CD 8114   1.954   0.447   1.137
  301OcOH   HE1 8115   2.003   0.391   1.339
  301OcOH   HE2 8116   2.061   0.278   1.220
  301OcOH    CE 8117   2.049   0.384   1.241
  301OcOH   HF1 8118   2.177   0.559   1.254
  301OcOH   HF2 8119   2.235   0.435   1.147
  301OcOH    CF 8120   2.187   0.451   1.243
  301OcOH   HG1 8121   2.276   0.288   1.356
  301OcOH   HG2 8122   2.382   0.424   1.330
  301OcOH    CG 8123   2.279   0.397   1.354
  301OcOH   HH1 8124   2.314   0.413   1.568
  301OcOH   HH2 8125   2.145   0.426   1.524
  301OcOH   HH3 8126   2.254   0.561   1.495
  301OcOH    CH 8127   2.246   0.453   1.493
  302OcOH    HO 8128   3.753   0.297   3.214
  302OcOH    OH 8129   3.700   0.220   3.238
  302OcOH   HA1 8130   3.605   0.322   3.388
  302OcOH   HA2 8131   3.533   0.339   3.228
  302OcOH    CA 8132   3.581   0.268   3.296
  302OcOH   HB1 8133   3.537   0.080   3.394
  302OcOH   HB2 8134   3.466   0.096   3.235
  302OcOH    CB 8135   3.487   0.150   3.327
  302OcOH   HC1 8136   3.374   0.252   3.481
  302OcOH   HC2 8137   3.305   0.266   3.321
  302OcOH    CC 8138   3.354   0.196   3.390
  302OcOH   HD1 8139   3.305   0.014   3.495
  302OcOH   HD2 8140   3.248   0.019   3.330
  302OcOH    CD 8141   3.260   0.079   3.420
  302OcOH   HE1 8142   3.132   0.181   3.562
  302OcOH   HE2 8143   3.082   0.197   3.396
  302OcOH    CE 8144   3.122   0.127   3.469
  302OcOH   HF1 8145   3.057   5.081   3.564
  302OcOH   HF2 8146   3.020   5.090   3.394
  302OcOH    CF 8147   3.022   0.012   3.486
  302OcOH   HG1 8148   2.878   0.108   3.615
  302OcOH   HG2 8149   2.850   0.137   3.445
  302OcOH    CG 8150   2.880   0.060   3.517
  302OcOH   HH1 8151   2.801   5.006   3.586
  302OcOH   HH2 8152   2.773   5.037   3.415
  302OcOH   HH3 8153   2.677   5.121   3.536
  302OcOH    CH 8154   2.777   5.083   3.513
  303OcOH    HO 8155   2.839   1.761   3.503
  303OcOH    OH 8156   2.825   1.855   3.517
  303OcOH   HA1 8157   2.850   1.854   3.721
  303OcOH   HA2 8158   2.999   1.849   3.627
  303OcOH    CA 8159   2.899   1.894   3.632
  303OcOH   HB1 8160   2.955   2.076   3.733
  303OcOH   HB2 8161   2.808   2.089   3.641
  303OcOH    CB 8162   2.908   2.047   3.639
  303OcOH   HC1 8163   3.090   2.065   3.524
  303OcOH   HC2 8164   2.944   2.073   3.428
  303OcOH    CC 8165   2.989   2.106   3.522
  303OcOH   HD1 8166   3.053   2.294   3.610
  303OcOH   HD2 8167   2.896   2.302   3.532
  303OcOH    CD 8168   2.997   2.260   3.522
  303OcOH   HE1 8169   3.164   2.277   3.385
  303OcOH   HE2 8170   3.008   2.272   3.308
  303OcOH    CE 8171   3.061   2.314   3.393
  303OcOH   HF1 8172   2.957   2.504   3.391
  303OcOH   HF2 8173   3.090   2.492   3.279
  303OcOH    CF 8174   3.059   2.467   3.380
  303OcOH   HG1 8175   3.118   2.522   3.581
  303OcOH   HG2 8176   3.252   2.495   3.474
  303OcOH    CG 8177   3.152   2.538   3.479
  303OcOH   HH1 8178   3.064   2.737   3.458
  303OcOH   HH2 8179   3.203   2.709   3.354
  303OcOH   HH3 8180   3.226   2.738   3.526
  303OcOH    CH 8181   3.162   2.689   3.453
  304OcOH    HO 8182   0.008   0.885   1.106
  304OcOH    OH 8183   5.061   0.876   1.058
  304OcOH   HA1 8184   4.990   0.746   1.201
  304OcOH   HA2 8185   4.908   0.741   1.046
  304OcOH    CA 8186   5.005   0.751   1.093
  304OcOH   HB1 8187   0.057   0.645   1.100
  304OcOH   HB2 8188   5.120   0.648   0.942
  304OcOH    CB 8189   5.098   0.637   1.048
  304OcOH   HC1 8190   5.010   0.490   1.179
  304OcOH   HC2 8191   4.944   0.491   1.018
  304OcOH    CC 8192   5.037   0.499   1.074
  304OcOH   HD1 8193   0.082   0.385   1.099
  304OcOH   HD2 8194   0.031   0.400   0.933
  304OcOH    CD 8195   5.131   0.384   1.034
  304OcOH   HE1 8196   5.028   0.229   1.145
  304OcOH   HE2 8197   4.972   0.248   0.980
  304OcOH    CE 8198   5.062   0.247   1.042
  304OcOH   HF1 8199   0.105   0.129   1.061
  304OcOH   HF2 8200   0.053   0.153   0.896
  304OcOH    CF 8201   0.017   0.133   0.997
  304OcOH   HG1 8202   5.047   5.111   1.100
  304OcOH   HG2 8203   4.994   5.136   0.935
  304OcOH    CG 8204   5.083   5.133   0.999
  304OcOH   HH1 8205   0.127   5.011   1.014
  304OcOH   HH2 8206   0.069   5.033   0.849
  304OcOH   HH3 8207   5.122   4.923   0.958
  304OcOH    CH 8208   0.037   5.019   0.952
  305OcOH    HO 8209   3.903   4.827   3.609
  305OcOH    OH 8210   3.953   4.760   3.658
  305OcOH   HA1 8211   3.936   4.561   3.701
  305OcOH   HA2 8212   3.785   4.642   3.662
  305OcOH    CA 8213   3.891   4.635   3.635
  305OcOH   HB1 8214   4.013   4.587   3.463
  305OcOH   HB2 8215   3.869   4.677   3.425
  305OcOH    CB 8216   3.907   4.596   3.487
  305OcOH   HC1 8217   3.729   4.474   3.479
  305OcOH   HC2 8218   3.833   4.458   3.340
  305OcOH    CC 8219   3.833   4.467   3.449
  305OcOH   HD1 8220   3.900   4.350   3.617
  305OcOH   HD2 8221   3.999   4.331   3.475
  305OcOH    CD 8222   3.896   4.340   3.509
  305OcOH   HE1 8223   3.716   4.223   3.510
  305OcOH   HE2 8224   3.813   4.200   3.367
  305OcOH    CE 8225   3.818   4.213   3.475
  305OcOH   HF1 8226   3.898   4.106   3.645
  305OcOH   HF2 8227   3.981   4.072   3.495
  305OcOH    CF 8228   3.882   4.088   3.538
  305OcOH   HG1 8229   3.695   3.981   3.553
  305OcOH   HG2 8230   3.792   3.937   3.414
  305OcOH    CG 8231   3.797   3.962   3.520
  305OcOH   HH1 8232   3.794   3.753   3.582
  305OcOH   HH2 8233   3.855   3.864   3.705
  305OcOH   HH3 8234   3.956   3.821   3.568
  305OcOH    CH 8235   3.854   3.843   3.598
  306OcOH    HO 8236   0.704   1.077   3.296
  306OcOH    OH 8237   0.741   0.998   3.259
  306OcOH   HA1 8238   0.929   1.014   3.340
  306OcOH   HA2 8239   0.920   0.936   3.183
  306OcOH    CA 8240   0.880   1.018   3.243
  306OcOH   HB1 8241   1.015   1.172   3.179
  306OcOH   HB2 8242   0.862   1.234   3.233
  306OcOH    CB 8243   0.908   1.153   3.176
  306OcOH   HC1 8244   0.916   1.083   2.973
  306OcOH   HC2 8245   0.756   1.131   3.023
  306OcOH    CC 8246   0.861   1.158   3.030
  306OcOH   HD1 8247   0.988   1.323   2.972
  306OcOH   HD2 8248   0.828   1.371   3.021
  306OcOH    CD 8249   0.883   1.296   2.965
  306OcOH   HE1 8250   0.897   1.226   2.762
  306OcOH   HE2 8251   0.734   1.266   2.811
  306OcOH    CE 8252   0.839   1.298   2.818
  306OcOH   HF1 8253   0.957   1.470   2.765
  306OcOH   HF2 8254   0.793   1.508   2.810
  306OcOH    CF 8255   0.854   1.437   2.755
  306OcOH   HG1 8256   0.881   1.373   2.550
  306OcOH   HG2 8257   0.714   1.400   2.594
  306OcOH    CG 8258   0.815   1.439   2.606
  306OcOH   HH1 8259   0.801   1.580   2.441
  306OcOH   HH2 8260   0.922   1.624   2.561
  306OcOH   HH3 8261   0.750   1.647   2.595
  306OcOH    CH 8262   0.822   1.581   2.548
  307OcOH    HO 8263   4.520   2.080   3.086
  307OcOH    OH 8264   4.485   2.100   2.998
  307OcOH   HA1 8265   4.368   2.240   2.905
  307OcOH   HA2 8266   4.344   2.226   3.079
  307OcOH    CA 8267   4.419   2.225   3.000
  307OcOH   HB1 8268   4.603   2.326   2.949
  307OcOH   HB2 8269   4.568   2.325   3.120
  307OcOH    CB 8270   4.523   2.337   3.022
  307OcOH   HC1 8271   4.432   2.494   2.906
  307OcOH   HC2 8272   4.377   2.490   3.072
  307OcOH    CC 8273   4.465   2.478   3.009
  307OcOH   HD1 8274   4.664   2.562   2.996
  307OcOH   HD2 8275   4.590   2.578   3.154
  307OcOH    CD 8276   4.570   2.585   3.047
  307OcOH   HE1 8277   4.521   2.737   2.902
  307OcOH   HE2 8278   4.429   2.750   3.050
  307OcOH    CE 8279   4.528   2.728   3.011
  307OcOH   HF1 8280   4.730   2.798   3.043
  307OcOH   HF2 8281   4.621   2.834   3.174
  307OcOH    CF 8282   4.629   2.831   3.065
  307OcOH   HG1 8283   4.621   2.968   2.899
  307OcOH   HG2 8284   4.506   3.005   3.026
  307OcOH    CG 8285   4.608   2.971   3.007
  307OcOH   HH1 8286   4.695   3.171   3.019
  307OcOH   HH2 8287   4.811   3.042   3.047
  307OcOH   HH3 8288   4.694   3.085   3.172
  307OcOH    CH 8289   4.707   3.073   3.065
  308OcOH    HO 8290   3.947   4.489   1.089
  308OcOH    OH 8291   3.920   4.552   1.021
  308OcOH   HA1 8292   3.866   4.672   1.177
  308OcOH   HA2 8293   4.022   4.708   1.107
  308OcOH    CA 8294   3.920   4.679   1.082
  308OcOH   HB1 8295   3.836   4.874   1.048
  308OcOH   HB2 8296   3.754   4.746   0.963
  308OcOH    CB 8297   3.853   4.783   0.991
  308OcOH   HC1 8298   4.028   4.865   0.895
  308OcOH   HC2 8299   3.964   4.723   0.816
  308OcOH    CC 8300   3.935   4.816   0.866
  308OcOH   HD1 8301   3.830   4.998   0.815
  308OcOH   HD2 8302   3.764   4.855   0.741
  308OcOH    CD 8303   3.857   4.905   0.767
  308OcOH   HE1 8304   4.024   4.994   0.662
  308OcOH   HE2 8305   3.974   4.840   0.598
  308OcOH    CE 8306   3.936   4.934   0.639
  308OcOH   HF1 8307   3.815   5.099   0.572
  308OcOH   HF2 8308   3.763   4.944   0.512
  308OcOH    CF 8309   3.851   5.004   0.533
  308OcOH   HG1 8310   4.011   5.096   0.420
  308OcOH   HG2 8311   3.971   4.935   0.367
  308OcOH    CG 8312   3.927   5.028   0.402
  308OcOH   HH1 8313   3.895   5.101   0.200
  308OcOH   HH2 8314   3.795   0.045   0.320
  308OcOH   HH3 8315   3.756   5.017   0.268
  308OcOH    CH 8316   3.838   5.085   0.291
  309OcOH    HO 8317   3.511   3.809   0.533
  309OcOH    OH 8318   3.450   3.752   0.485
  309OcOH   HA1 8319   3.454   3.664   0.300
  309OcOH   HA2 8320   3.595   3.759   0.341
  309OcOH    CA 8321   3.522   3.689   0.382
  309OcOH   HB1 8322   3.649   3.517   0.354
  309OcOH   HB2 8323   3.514   3.488   0.460
  309OcOH    CB 8324   3.590   3.561   0.434
  309OcOH   HC1 8325   3.756   3.661   0.532
  309OcOH   HC2 8326   3.621   3.629   0.636
  309OcOH    CC 8327   3.681   3.586   0.556
  309OcOH   HD1 8328   3.819   3.421   0.532
  309OcOH   HD2 8329   3.674   3.382   0.623
  309OcOH    CD 8330   3.750   3.459   0.607
  309OcOH   HE1 8331   3.900   3.561   0.725
  309OcOH   HE2 8332   3.753   3.526   0.812
  309OcOH    CE 8333   3.823   3.485   0.739
  309OcOH   HF1 8334   3.962   3.320   0.730
  309OcOH   HF2 8335   3.810   3.280   0.806
  309OcOH    CF 8336   3.886   3.358   0.798
  309OcOH   HG1 8337   4.022   3.462   0.930
  309OcOH   HG2 8338   3.871   3.418   1.005
  309OcOH    CG 8339   3.948   3.382   0.936
  309OcOH   HH1 8340   4.058   3.278   1.091
  309OcOH   HH2 8341   4.092   3.218   0.929
  309OcOH   HH3 8342   3.940   3.176   1.008
  309OcOH    CH 8343   4.013   3.256   0.994
  310OcOH    HO 8344   4.063   5.092   4.312
  310OcOH    OH 8345   4.080   5.031   4.240
  310OcOH   HA1 8346   3.977   4.977   4.070
  310OcOH   HA2 8347   3.887   5.075   4.184
  310OcOH    CA 8348   3.985   5.061   4.139
  310OcOH   HB1 8349   3.955   0.066   3.982
  310OcOH   HB2 8350   4.123   0.033   4.013
  310OcOH    CB 8351   4.028   0.050   4.062
  310OcOH   HC1 8352   3.941   0.192   4.201
  310OcOH   HC2 8353   4.111   0.164   4.226
  310OcOH    CC 8354   4.036   0.177   4.148
  310OcOH   HD1 8355   3.988   0.322   3.997
  310OcOH   HD2 8356   4.158   0.282   4.005
  310OcOH    CD 8357   4.070   0.302   4.066
  310OcOH   HE1 8358   4.010   0.444   4.217
  310OcOH   HE2 8359   4.180   0.405   4.220
  310OcOH    CE 8360   4.096   0.425   4.153
  310OcOH   HF1 8361   4.045   0.568   4.000
  310OcOH   HF2 8362   4.215   0.529   4.007
  310OcOH    CF 8363   4.127   0.549   4.068
  310OcOH   HG1 8364   4.065   0.694   4.215
  310OcOH   HG2 8365   4.235   0.656   4.222
  310OcOH    CG 8366   4.152   0.674   4.153
  310OcOH   HH1 8367   4.274   0.782   4.008
  310OcOH   HH2 8368   4.199   0.885   4.130
  310OcOH   HH3 8369   4.102   0.819   3.999
  310OcOH    CH 8370   4.184   0.797   4.068
  311OcOH    HO 8371   2.827   3.312   3.834
  311OcOH    OH 8372   2.880   3.386   3.864
  311OcOH   HA1 8373   2.970   3.411   3.680
  311OcOH   HA2 8374   3.053   3.483   3.817
  311OcOH    CA 8375   2.997   3.395   3.785
  311OcOH   HB1 8376   3.109   3.250   3.904
  311OcOH   HB2 8377   3.180   3.292   3.752
  311OcOH    CB 8378   3.085   3.269   3.800
  311OcOH   HC1 8379   2.964   3.172   3.648
  311OcOH   HC2 8380   3.110   3.087   3.689
  311OcOH    CC 8381   3.027   3.143   3.732
  311OcOH   HD1 8382   2.870   3.104   3.876
  311OcOH   HD2 8383   3.018   3.017   3.907
  311OcOH    CD 8384   2.951   3.050   3.827
  311OcOH   HE1 8385   2.825   2.960   3.677
  311OcOH   HE2 8386   2.975   2.875   3.702
  311OcOH    CE 8387   2.894   2.927   3.754
  311OcOH   HF1 8388   2.752   2.887   3.910
  311OcOH   HF2 8389   2.894   2.787   3.919
  311OcOH    CF 8390   2.823   2.830   3.849
  311OcOH   HG1 8391   2.686   2.664   3.851
  311OcOH   HG2 8392   2.675   2.760   3.707
  311OcOH    CG 8393   2.746   2.718   3.777
  311OcOH   HH1 8394   2.778   2.535   3.663
  311OcOH   HH2 8395   2.910   2.573   3.774
  311OcOH   HH3 8396   2.892   2.664   3.624
  311OcOH    CH 8397   2.837   2.617   3.705
  312OcOH    HO 8398   0.500   3.450   3.681
  312OcOH    OH 8399   0.581   3.400   3.666
  312OcOH   HA1 8400   0.639   3.448   3.476
  312OcOH   HA2 8401   0.655   3.279   3.517
  312OcOH    CA 8402   0.590   3.366   3.529
  312OcOH   HB1 8403   0.387   3.424   3.484
  312OcOH   HB2 8404   0.406   3.254   3.521
  312OcOH    CB 8405   0.452   3.338   3.469
  312OcOH   HC1 8406   0.511   3.390   3.268
  312OcOH   HC2 8407   0.523   3.220   3.305
  312OcOH    CC 8408   0.460   3.307   3.319
  312OcOH   HD1 8409   0.261   3.372   3.263
  312OcOH   HD2 8410   0.273   3.201   3.301
  312OcOH    CD 8411   0.324   3.283   3.251
  312OcOH   HE1 8412   0.395   3.330   3.051
  312OcOH   HE2 8413   0.405   3.161   3.094
  312OcOH    CE 8414   0.341   3.249   3.102
  312OcOH   HF1 8415   0.151   3.146   3.082
  312OcOH   HF2 8416   0.237   3.172   2.933
  312OcOH    CF 8417   0.210   3.220   3.027
  312OcOH   HG1 8418   0.090   3.389   3.089
  312OcOH   HG2 8419   0.188   3.419   2.947
  312OcOH    CG 8420   0.126   3.344   2.996
  312OcOH   HH1 8421   5.086   3.401   2.881
  312OcOH   HH2 8422   5.074   3.242   2.954
  312OcOH   HH3 8423   0.039   3.266   2.812
  312OcOH    CH 8424   0.006   3.311   2.906
  313OcOH    HO 8425   3.982   2.532   0.785
  313OcOH    OH 8426   3.969   2.442   0.751
  313OcOH   HA1 8427   4.157   2.388   0.812
  313OcOH   HA2 8428   4.091   2.289   0.684
  313OcOH    CA 8429   4.097   2.391   0.721
  313OcOH   HB1 8430   4.267   2.441   0.601
  313OcOH   HB2 8431   4.179   2.581   0.657
  313OcOH    CB 8432   4.167   2.480   0.617
  313OcOH   HC1 8433   4.063   2.385   0.454
  313OcOH   HC2 8434   4.004   2.545   0.490
  313OcOH    CC 8435   4.095   2.486   0.482
  313OcOH   HD1 8436   4.129   2.533   0.275
  313OcOH   HD2 8437   4.271   2.475   0.358
  313OcOH    CD 8438   4.184   2.540   0.369
  313OcOH   HE1 8439   4.147   2.751   0.400
  313OcOH   HE2 8440   4.289   2.692   0.481
  313OcOH    CE 8441   4.232   2.685   0.389
  313OcOH   HF1 8442   4.263   2.729   0.179
  313OcOH   HF2 8443   4.403   2.661   0.258
  313OcOH    CF 8444   4.321   2.731   0.272
  313OcOH   HG1 8445   4.296   2.943   0.305
  313OcOH   HG2 8446   4.435   2.875   0.386
  313OcOH    CG 8447   4.378   2.872   0.293
  313OcOH   HH1 8448   4.414   2.917   0.083
  313OcOH   HH2 8449   4.553   2.849   0.166
  313OcOH   HH3 8450   4.508   3.016   0.194
  313OcOH    CH 8451   4.468   2.916   0.177
  314OcOH    HO 8452   2.284   4.039   3.106
  314OcOH    OH 8453   2.362   4.059   3.161
  314OcOH   HA1 8454   2.251   4.196   3.264
  314OcOH   HA2 8455   2.259   4.036   3.338
  314OcOH    CA 8456   2.317   4.111   3.284
  314OcOH   HB1 8457   2.402   4.215   3.453
  314OcOH   HB2 8458   2.497   4.227   3.307
  314OcOH    CB 8459   2.438   4.158   3.367
  314OcOH   HC1 8460   2.469   3.981   3.488
  314OcOH   HC2 8461   2.551   3.977   3.334
  314OcOH    CC 8462   2.526   4.042   3.417
  314OcOH   HD1 8463   2.632   4.161   3.564
  314OcOH   HD2 8464   2.713   4.148   3.410
  314OcOH    CD 8465   2.655   4.091   3.483
  314OcOH   HE1 8466   2.690   3.931   3.623
  314OcOH   HE2 8467   2.751   3.899   3.463
  314OcOH    CE 8468   2.741   3.977   3.538
  314OcOH   HF1 8469   2.871   4.101   3.657
  314OcOH   HF2 8470   2.931   4.069   3.497
  314OcOH    CF 8471   2.881   4.023   3.581
  314OcOH   HG1 8472   2.915   3.860   3.718
  314OcOH   HG2 8473   2.979   3.832   3.559
  314OcOH    CG 8474   2.967   3.909   3.636
  314OcOH   HH1 8475   3.096   4.030   3.762
  314OcOH   HH2 8476   3.161   4.002   3.600
  314OcOH   HH3 8477   3.164   3.873   3.721
  314OcOH    CH 8478   3.105   3.956   3.682
  315OcOH    HO 8479   1.175   1.073   2.542
  315OcOH    OH 8480   1.137   1.152   2.506
  315OcOH   HA1 8481   1.292   1.172   2.372
  315OcOH   HA2 8482   1.156   1.075   2.317
  315OcOH    CA 8483   1.183   1.165   2.373
  315OcOH   HB1 8484   1.145   1.377   2.367
  315OcOH   HB2 8485   1.014   1.281   2.304
  315OcOH    CB 8486   1.123   1.289   2.307
  315OcOH   HC1 8487   1.286   1.313   2.168
  315OcOH   HC2 8488   1.150   1.225   2.102
  315OcOH    CC 8489   1.177   1.310   2.165
  315OcOH   HD1 8490   1.153   1.525   2.163
  315OcOH   HD2 8491   1.017   1.438   2.095
  315OcOH    CD 8492   1.126   1.440   2.100
  315OcOH   HE1 8493   1.292   1.453   1.964
  315OcOH   HE2 8494   1.148   1.381   1.894
  315OcOH    CE 8495   1.183   1.461   1.959
  315OcOH   HF1 8496   1.177   1.678   1.966
  315OcOH   HF2 8497   1.035   1.604   1.896
  315OcOH    CF 8498   1.144   1.598   1.900
  315OcOH   HG1 8499   1.165   1.543   1.691
  315OcOH   HG2 8500   1.154   1.714   1.719
  315OcOH    CG 8501   1.198   1.622   1.758
  315OcOH   HH1 8502   1.388   1.712   1.818
  315OcOH   HH2 8503   1.383   1.660   1.650
  315OcOH   HH3 8504   1.400   1.541   1.778
  315OcOH    CH 8505   1.351   1.634   1.751
  316OcOH    HO 8506   0.255   5.092   4.233
  316OcOH    OH 8507   0.333   0.003   4.200
  316OcOH   HA1 8508   0.387   4.976   4.091
  316OcOH   HA2 8509   0.518   5.088   4.123
  316OcOH    CA 8510   0.430   5.041   4.167
  316OcOH   HB1 8511   0.510   4.864   4.255
  316OcOH   HB2 8512   0.378   4.932   4.347
  316OcOH    CB 8513   0.468   4.958   4.290
  316OcOH   HC1 8514   0.664   5.037   4.326
  316OcOH   HC2 8515   0.539   5.124   4.411
  316OcOH    CC 8516   0.572   5.024   4.382
  316OcOH   HD1 8517   0.608   4.835   4.482
  316OcOH   HD2 8518   0.512   4.947   4.574
  316OcOH    CD 8519   0.599   4.940   4.508
  316OcOH   HE1 8520   0.721   5.090   4.605
  316OcOH   HE2 8521   0.722   4.935   4.684
  316OcOH    CE 8522   0.724   4.983   4.586
  316OcOH   HF1 8523   0.869   5.005   4.425
  316OcOH   HF2 8524   0.848   4.842   4.481
  316OcOH    CF 8525   0.856   4.945   4.515
  316OcOH   HG1 8526   0.966   4.899   4.696
  316OcOH   HG2 8527   1.064   4.911   4.552
  316OcOH    CG 8528   0.980   4.957   4.604
  316OcOH   HH1 8529   1.045   0.021   4.549
  316OcOH   HH2 8530   1.107   5.102   4.704
  316OcOH   HH3 8531   0.939   0.017   4.691
  316OcOH    CH 8532   1.020   5.101   4.639
  317OcOH    HO 8533   0.879   4.764   4.071
  317OcOH    OH 8534   0.791   4.790   4.094
  317OcOH   HA1 8535   0.627   4.851   3.987
  317OcOH   HA2 8536   0.771   4.818   3.892
  317OcOH    CA 8537   0.712   4.784   3.977
  317OcOH   HB1 8538   0.594   4.614   4.038
  317OcOH   HB2 8539   0.747   4.570   3.966
  317OcOH    CB 8540   0.663   4.640   3.957
  317OcOH   HC1 8541   0.517   4.694   3.807
  317OcOH   HC2 8542   0.666   4.631   3.742
  317OcOH    CC 8543   0.594   4.618   3.822
  317OcOH   HD1 8544   0.457   4.468   3.893
  317OcOH   HD2 8545   0.607   4.403   3.831
  317OcOH    CD 8546   0.531   4.479   3.813
  317OcOH   HE1 8547   0.386   4.527   3.660
  317OcOH   HE2 8548   0.535   4.460   3.598
  317OcOH    CE 8549   0.462   4.451   3.679
  317OcOH   HF1 8550   0.325   4.303   3.756
  317OcOH   HF2 8551   0.474   4.236   3.694
  317OcOH    CF 8552   0.398   4.312   3.675
  317OcOH   HG1 8553   0.253   4.357   3.522
  317OcOH   HG2 8554   0.403   4.289   3.461
  317OcOH    CG 8555   0.329   4.281   3.541
  317OcOH   HH1 8556   0.340   4.064   3.555
  317OcOH   HH2 8557   0.219   4.123   3.441
  317OcOH   HH3 8558   0.188   4.132   3.614
  317OcOH    CH 8559   0.266   4.142   3.538
  318OcOH    HO 8560   0.220   2.959   1.556
  318OcOH    OH 8561   0.293   2.911   1.595
  318OcOH   HA1 8562   0.453   2.796   1.543
  318OcOH   HA2 8563   0.317   2.788   1.432
  318OcOH    CA 8564   0.376   2.856   1.495
  318OcOH   HB1 8565   0.514   2.921   1.345
  318OcOH   HB2 8566   0.497   3.034   1.476
  318OcOH    CB 8567   0.440   2.967   1.411
  318OcOH   HC1 8568   0.278   2.977   1.269
  318OcOH   HC2 8569   0.272   3.101   1.392
  318OcOH    CC 8570   0.340   3.047   1.326
  318OcOH   HD1 8571   0.483   3.093   1.171
  318OcOH   HD2 8572   0.464   3.219   1.290
  318OcOH    CD 8573   0.409   3.145   1.231
  318OcOH   HE1 8574   0.252   3.141   1.084
  318OcOH   HE2 8575   0.236   3.273   1.196
  318OcOH    CE 8576   0.309   3.216   1.138
  318OcOH   HF1 8577   0.302   3.337   0.961
  318OcOH   HF2 8578   0.453   3.251   0.980
  318OcOH    CF 8579   0.377   3.308   1.034
  318OcOH   HG1 8580   0.360   3.497   1.137
  318OcOH   HG2 8581   0.506   3.410   1.175
  318OcOH    CG 8582   0.439   3.435   1.094
  318OcOH   HH1 8583   0.451   3.546   0.906
  318OcOH   HH2 8584   0.559   3.606   1.032
  318OcOH   HH3 8585   0.598   3.457   0.947
  318OcOH    CH 8586   0.516   3.516   0.988
  319OcOH    HO 8587   3.173   0.414   1.557
  319OcOH    OH 8588   3.195   0.405   1.651
  319OcOH   HA1 8589   3.093   0.408   1.829
  319OcOH   HA2 8590   3.007   0.475   1.691
  319OcOH    CA 8591   3.074   0.394   1.723
  319OcOH   HB1 8592   2.994   0.245   1.589
  319OcOH   HB2 8593   2.909   0.259   1.741
  319OcOH    CB 8594   3.009   0.258   1.696
  319OcOH   HC1 8595   3.187   0.134   1.710
  319OcOH   HC2 8596   3.105   0.159   1.861
  319OcOH    CC 8597   3.088   0.140   1.755
  319OcOH   HD1 8598   2.913   0.014   1.778
  319OcOH   HD2 8599   3.063   5.069   1.808
  319OcOH    CD 8600   3.015   0.005   1.742
  319OcOH   HE1 8601   2.979   0.022   1.528
  319OcOH   HE2 8602   3.120   5.064   1.569
  319OcOH    CE 8603   3.016   5.084   1.599
  319OcOH   HF1 8604   2.828   4.980   1.608
  319OcOH   HF2 8605   2.964   4.884   1.660
  319OcOH    CF 8606   2.932   4.956   1.585
  319OcOH   HG1 8607   2.913   4.968   1.370
  319OcOH   HG2 8608   3.045   4.867   1.424
  319OcOH    CG 8609   2.942   4.894   1.445
  319OcOH   HH1 8610   2.748   4.794   1.446
  319OcOH   HH2 8611   2.882   4.692   1.499
  319OcOH   HH3 8612   2.862   4.729   1.328
  319OcOH    CH 8613   2.853   4.770   1.429
  320OcOH    HO 8614   1.215   2.349   3.800
  320OcOH    OH 8615   1.205   2.389   3.887
  320OcOH   HA1 8616   1.173   2.322   4.079
  320OcOH   HA2 8617   1.114   2.219   3.949
  320OcOH    CA 8618   1.196   2.283   3.980
  320OcOH   HB1 8619   1.407   2.268   4.023
  320OcOH   HB2 8620   1.359   2.183   3.879
  320OcOH    CB 8621   1.328   2.205   3.981
  320OcOH   HC1 8622   1.285   2.093   4.161
  320OcOH   HC2 8623   1.241   2.011   4.013
  320OcOH    CC 8624   1.318   2.073   4.059
  320OcOH   HD1 8625   1.527   2.057   4.111
  320OcOH   HD2 8626   1.486   1.983   3.958
  320OcOH    CD 8627   1.451   1.997   4.060
  320OcOH   HE1 8628   1.402   1.872   4.230
  320OcOH   HE2 8629   1.364   1.800   4.075
  320OcOH    CE 8630   1.439   1.859   4.128
  320OcOH   HF1 8631   1.645   1.840   4.188
  320OcOH   HF2 8632   1.612   1.776   4.029
  320OcOH    CF 8633   1.572   1.783   4.130
  320OcOH   HG1 8634   1.517   1.648   4.290
  320OcOH   HG2 8635   1.485   1.585   4.130
  320OcOH    CG 8636   1.558   1.642   4.189
  320OcOH   HH1 8637   1.733   1.556   4.092
  320OcOH   HH2 8638   1.676   1.465   4.231
  320OcOH   HH3 8639   1.764   1.616   4.255
  320OcOH    CH 8640   1.690   1.565   4.192
  321OcOH    HO 8641   0.748   3.085   4.675
  321OcOH    OH 8642   0.686   3.011   4.666
  321OcOH   HA1 8643   0.823   2.906   4.555
  321OcOH   HA2 8644   0.829   2.877   4.729
  321OcOH    CA 8645   0.761   2.894   4.644
  321OcOH   HB1 8646   0.596   2.797   4.546
  321OcOH   HB2 8647   0.603   2.768   4.718
  321OcOH    CB 8648   0.665   2.776   4.628
  321OcOH   HC1 8649   0.795   2.650   4.511
  321OcOH   HC2 8650   0.806   2.622   4.683
  321OcOH    CC 8651   0.736   2.642   4.602
  321OcOH   HD1 8652   0.564   2.548   4.512
  321OcOH   HD2 8653   0.580   2.516   4.683
  321OcOH    CD 8654   0.637   2.525   4.590
  321OcOH   HE1 8655   0.762   2.401   4.465
  321OcOH   HE2 8656   0.779   2.370   4.636
  321OcOH    CE 8657   0.706   2.392   4.558
  321OcOH   HF1 8658   0.530   2.302   4.473
  321OcOH   HF2 8659   0.552   2.263   4.641
  321OcOH    CF 8660   0.605   2.276   4.547
  321OcOH   HG1 8661   0.591   2.072   4.479
  321OcOH   HG2 8662   0.729   2.156   4.414
  321OcOH    CG 8663   0.670   2.142   4.505
  321OcOH   HH1 8664   0.841   2.142   4.641
  321OcOH   HH2 8665   0.796   1.983   4.581
  321OcOH   HH3 8666   0.699   2.060   4.705
  321OcOH    CH 8667   0.756   2.079   4.614
  322OcOH    HO 8668   0.493   3.421   2.099
  322OcOH    OH 8669   0.566   3.368   2.065
  322OcOH   HA1 8670   0.759   3.322   2.119
  322OcOH   HA2 8671   0.715   3.491   2.134
  322OcOH    CA 8672   0.678   3.389   2.148
  322OcOH   HB1 8673   0.564   3.440   2.325
  322OcOH   HB2 8674   0.726   3.387   2.358
  322OcOH    CB 8675   0.639   3.367   2.295
  322OcOH   HC1 8676   0.502   3.205   2.259
  322OcOH   HC2 8677   0.663   3.152   2.300
  322OcOH    CC 8678   0.587   3.225   2.324
  322OcOH   HD1 8679   0.470   3.286   2.495
  322OcOH   HD2 8680   0.627   3.223   2.537
  322OcOH    CD 8681   0.542   3.208   2.470
  322OcOH   HE1 8682   0.399   3.052   2.424
  322OcOH   HE2 8683   0.553   2.993   2.481
  322OcOH    CE 8684   0.479   3.071   2.497
  322OcOH   HF1 8685   0.341   3.133   2.651
  322OcOH   HF2 8686   0.497   3.084   2.711
  322OcOH    CF 8687   0.420   3.059   2.638
  322OcOH   HG1 8688   0.292   2.890   2.592
  322OcOH   HG2 8689   0.446   2.846   2.662
  322OcOH    CG 8690   0.365   2.919   2.668
  322OcOH   HH1 8691   0.263   2.810   2.827
  322OcOH   HH2 8692   0.213   2.977   2.812
  322OcOH   HH3 8693   0.369   2.938   2.885
  322OcOH    CH 8694   0.299   2.911   2.806
  323OcOH    HO 8695   4.990   4.360   0.641
  323OcOH    OH 8696   4.965   4.267   0.650
  323OcOH   HA1 8697   5.016   4.303   0.844
  323OcOH   HA2 8698   4.847   4.260   0.818
  323OcOH    CA 8699   4.949   4.238   0.787
  323OcOH   HB1 8700   5.084   4.071   0.768
  323OcOH   HB2 8701   4.915   4.028   0.751
  323OcOH    CB 8702   4.984   4.090   0.809
  323OcOH   HC1 8703   5.044   4.119   1.013
  323OcOH   HC2 8704   4.880   4.061   0.997
  323OcOH    CC 8705   4.981   4.050   0.957
  323OcOH   HD1 8706   5.045   3.895   1.091
  323OcOH   HD2 8707   5.134   3.898   0.941
  323OcOH    CD 8708   5.034   3.908   0.983
  323OcOH   HE1 8709   4.841   3.813   0.963
  323OcOH   HE2 8710   4.942   3.798   0.821
  323OcOH    CE 8711   4.943   3.796   0.930
  323OcOH   HF1 8712   4.989   3.655   1.086
  323OcOH   HF2 8713   5.092   3.639   0.946
  323OcOH    CF 8714   4.989   3.657   0.977
  323OcOH   HG1 8715   4.796   3.565   0.947
  323OcOH   HG2 8716   4.907   3.539   0.815
  323OcOH    CG 8717   4.900   3.543   0.924
  323OcOH   HH1 8718   5.041   3.381   0.963
  323OcOH   HH2 8719   4.875   3.328   0.941
  323OcOH   HH3 8720   4.923   3.406   1.092
  323OcOH    CH 8721   4.937   3.407   0.984
  324OcOH    HO 8722   1.090   2.165   0.455
  324OcOH    OH 8723   1.150   2.173   0.381
  324OcOH   HA1 8724   1.191   2.366   0.435
  324OcOH   HA2 8725   1.248   2.318   0.276
  324OcOH    CA 8726   1.165   2.309   0.346
  324OcOH   HB1 8727   1.013   2.305   0.192
  324OcOH   HB2 8728   1.056   2.465   0.247
  324OcOH    CB 8729   1.037   2.363   0.281
  324OcOH   HC1 8730   0.891   2.261   0.403
  324OcOH   HC2 8731   0.949   2.411   0.471
  324OcOH    CC 8732   0.918   2.364   0.378
  324OcOH   HD1 8733   0.760   2.387   0.233
  324OcOH   HD2 8734   0.819   2.538   0.297
  324OcOH    CD 8735   0.794   2.436   0.324
  324OcOH   HE1 8736   0.654   2.334   0.453
  324OcOH   HE2 8737   0.718   2.482   0.520
  324OcOH    CE 8738   0.681   2.437   0.428
  324OcOH   HF1 8739   0.524   2.473   0.285
  324OcOH   HF2 8740   0.580   2.618   0.364
  324OcOH    CF 8741   0.556   2.513   0.381
  324OcOH   HG1 8742   0.351   2.549   0.436
  324OcOH   HG2 8743   0.412   2.397   0.494
  324OcOH    CG 8744   0.439   2.502   0.480
  324OcOH   HH1 8745   0.546   2.515   0.670
  324OcOH   HH2 8746   0.378   2.563   0.679
  324OcOH   HH3 8747   0.496   2.671   0.606
  324OcOH    CH 8748   0.466   2.567   0.616
  325OcOH    HO 8749   4.148   4.360   1.713
  325OcOH    OH 8750   4.139   4.271   1.749
  325OcOH   HA1 8751   3.977   4.325   1.864
  325OcOH   HA2 8752   3.942   4.283   1.697
  325OcOH    CA 8753   4.003   4.256   1.783
  325OcOH   HB1 8754   4.035   4.088   1.913
  325OcOH   HB2 8755   4.013   4.045   1.745
  325OcOH    CB 8756   3.977   4.111   1.824
  325OcOH   HC1 8757   3.789   4.145   1.926
  325OcOH   HC2 8758   3.772   4.098   1.758
  325OcOH    CC 8759   3.829   4.079   1.849
  325OcOH   HD1 8760   3.861   3.912   1.985
  325OcOH   HD2 8761   3.854   3.868   1.817
  325OcOH    CD 8762   3.808   3.932   1.891
  325OcOH   HE1 8763   3.605   3.922   1.815
  325OcOH   HE2 8764   3.655   3.783   1.908
  325OcOH    CE 8765   3.660   3.892   1.905
  325OcOH   HF1 8766   3.594   4.057   2.029
  325OcOH   HF2 8767   3.649   3.917   2.119
  325OcOH    CF 8768   3.592   3.948   2.031
  325OcOH   HG1 8769   3.388   3.938   1.961
  325OcOH   HG2 8770   3.444   3.791   2.036
  325OcOH    CG 8771   3.447   3.900   2.044
  325OcOH   HH1 8772   3.385   4.051   2.188
  325OcOH   HH2 8773   3.435   3.899   2.262
  325OcOH   HH3 8774   3.279   3.910   2.182
  325OcOH    CH 8775   3.383   3.942   2.177
  326OcOH    HO 8776   3.782   2.980   3.095
  326OcOH    OH 8777   3.734   2.910   3.137
  326OcOH   HA1 8778   3.879   2.900   3.280
  326OcOH   HA2 8779   3.742   3.001   3.320
  326OcOH    CA 8780   3.771   2.907   3.273
  326OcOH   HB1 8781   3.729   2.697   3.291
  326OcOH   HB2 8782   3.596   2.800   3.337
  326OcOH    CB 8783   3.704   2.789   3.343
  326OcOH   HC1 8784   3.856   2.766   3.492
  326OcOH   HC2 8785   3.727   2.871   3.542
  326OcOH    CC 8786   3.748   2.778   3.490
  326OcOH   HD1 8787   3.738   2.650   3.661
  326OcOH   HD2 8788   3.703   2.567   3.513
  326OcOH    CD 8789   3.685   2.660   3.566
  326OcOH   HE1 8790   3.514   2.777   3.633
  326OcOH   HE2 8791   3.480   2.672   3.499
  326OcOH    CE 8792   3.534   2.678   3.594
  326OcOH   HF1 8793   3.505   2.472   3.656
  326OcOH   HF2 8794   3.368   2.576   3.684
  326OcOH    CF 8795   3.477   2.572   3.690
  326OcOH   HG1 8796   3.626   2.591   3.846
  326OcOH   HG2 8797   3.486   2.691   3.870
  326OcOH    CG 8798   3.518   2.592   3.837
  326OcOH   HH1 8799   3.349   2.487   3.926
  326OcOH   HH2 8800   3.489   2.503   4.033
  326OcOH   HH3 8801   3.492   2.386   3.901
  326OcOH    CH 8802   3.458   2.486   3.929
  327OcOH    HO 8803   0.212   4.192   0.382
  327OcOH    OH 8804   0.266   4.218   0.458
  327OcOH   HA1 8805   0.097   4.254   0.569
  327OcOH   HA2 8806   0.160   4.090   0.578
  327OcOH    CA 8807   0.189   4.195   0.574
  327OcOH   HB1 8808   0.299   4.340   0.690
  327OcOH   HB2 8809   0.367   4.179   0.693
  327OcOH    CB 8810   0.273   4.234   0.696
  327OcOH   HC1 8811   0.111   4.264   0.835
  327OcOH   HC2 8812   0.176   4.102   0.837
  327OcOH    CC 8813   0.204   4.207   0.830
  327OcOH   HD1 8814   0.322   4.349   0.943
  327OcOH   HD2 8815   0.384   4.185   0.946
  327OcOH    CD 8816   0.292   4.244   0.950
  327OcOH   HE1 8817   0.133   4.281   1.091
  327OcOH   HE2 8818   0.189   4.116   1.090
  327OcOH    CE 8819   0.223   4.219   1.085
  327OcOH   HF1 8820   0.343   4.355   1.204
  327OcOH   HF2 8821   0.406   4.192   1.196
  327OcOH    CF 8822   0.314   4.249   1.205
  327OcOH   HG1 8823   0.154   4.273   1.349
  327OcOH   HG2 8824   0.218   4.111   1.339
  327OcOH    CG 8825   0.247   4.216   1.339
  327OcOH   HH1 8826   0.432   4.188   1.451
  327OcOH   HH2 8827   0.288   4.207   1.551
  327OcOH   HH3 8828   0.358   4.348   1.472
  327OcOH    CH 8829   0.337   4.241   1.460
  328OcOH    HO 8830   3.290   4.332   3.299
  328OcOH    OH 8831   3.220   4.304   3.359
  328OcOH   HA1 8832   3.238   4.493   3.434
  328OcOH   HA2 8833   3.100   4.466   3.330
  328OcOH    CA 8834   3.160   4.421   3.409
  328OcOH   HB1 8835   3.003   4.311   3.510
  328OcOH   HB2 8836   3.014   4.479   3.553
  328OcOH    CB 8837   3.074   4.391   3.532
  328OcOH   HC1 8838   3.208   4.261   3.641
  328OcOH   HC2 8839   3.236   4.430   3.670
  328OcOH    CC 8840   3.157   4.356   3.657
  328OcOH   HD1 8841   2.996   4.273   3.773
  328OcOH   HD2 8842   3.018   4.445   3.796
  328OcOH    CD 8843   3.072   4.350   3.784
  328OcOH   HE1 8844   3.202   4.226   3.903
  328OcOH   HE2 8845   3.234   4.397   3.920
  328OcOH    CE 8846   3.154   4.324   3.911
  328OcOH   HF1 8847   2.987   4.255   4.029
  328OcOH   HF2 8848   3.020   4.426   4.047
  328OcOH    CF 8849   3.067   4.328   4.038
  328OcOH   HG1 8850   3.194   4.200   4.157
  328OcOH   HG2 8851   3.229   4.370   4.176
  328OcOH    CG 8852   3.148   4.298   4.166
  328OcOH   HH1 8853   3.121   4.279   4.381
  328OcOH   HH2 8854   2.982   4.226   4.288
  328OcOH   HH3 8855   3.015   4.398   4.307
  328OcOH    CH 8856   3.061   4.300   4.292
  329OcOH    HO 8857   4.411   0.232   1.584
  329OcOH    OH 8858   4.466   0.158   1.560
  329OcOH   HA1 8859   4.635   0.270   1.528
  329OcOH   HA2 8860   4.625   0.119   1.439
  329OcOH    CA 8861   4.567   0.204   1.473
  329OcOH   HB1 8862   4.462   0.373   1.391
  329OcOH   HB2 8863   4.418   0.220   1.319
  329OcOH    CB 8864   4.503   0.278   1.356
  329OcOH   HC1 8865   4.644   0.207   1.211
  329OcOH   HC2 8866   4.684   0.365   1.272
  329OcOH    CC 8867   4.600   0.303   1.240
  329OcOH   HD1 8868   4.518   0.473   1.137
  329OcOH   HD2 8869   4.432   0.326   1.104
  329OcOH    CD 8870   4.532   0.367   1.117
  329OcOH   HE1 8871   4.571   0.419   0.912
  329OcOH   HE2 8872   4.715   0.379   1.001
  329OcOH    CE 8873   4.611   0.350   0.986
  329OcOH   HF1 8874   4.499   0.178   0.921
  329OcOH   HF2 8875   4.649   0.136   1.000
  329OcOH    CF 8876   4.604   0.207   0.930
  329OcOH   HG1 8877   4.632   0.265   0.723
  329OcOH   HG2 8878   4.778   0.212   0.802
  329OcOH    CG 8879   4.671   0.191   0.793
  329OcOH   HH1 8880   4.546   0.029   0.719
  329OcOH   HH2 8881   4.691   5.111   0.802
  329OcOH   HH3 8882   4.702   0.040   0.639
  329OcOH    CH 8883   4.651   0.051   0.735
  330OcOH    HO 8884   0.429   2.099   3.977
  330OcOH    OH 8885   0.482   2.119   3.899
  330OcOH   HA1 8886   0.460   2.118   3.694
  330OcOH   HA2 8887   0.347   2.016   3.783
  330OcOH    CA 8888   0.399   2.113   3.785
  330OcOH   HB1 8889   0.239   2.224   3.879
  330OcOH   HB2 8890   0.225   2.212   3.706
  330OcOH    CB 8891   0.297   2.228   3.787
  330OcOH   HC1 8892   0.436   2.381   3.849
  330OcOH   HC2 8893   0.416   2.369   3.676
  330OcOH    CC 8894   0.362   2.366   3.770
  330OcOH   HD1 8895   0.206   2.479   3.869
  330OcOH   HD2 8896   0.186   2.468   3.696
  330OcOH    CD 8897   0.260   2.482   3.775
  330OcOH   HE1 8898   0.402   2.632   3.838
  330OcOH   HE2 8899   0.383   2.622   3.665
  330OcOH    CE 8900   0.328   2.619   3.759
  330OcOH   HF1 8901   0.177   2.736   3.861
  330OcOH   HF2 8902   0.150   2.717   3.689
  330OcOH    CF 8903   0.228   2.735   3.764
  330OcOH   HG1 8904   0.344   2.871   3.642
  330OcOH   HG2 8905   0.209   2.945   3.723
  330OcOH    CG 8906   0.290   2.873   3.736
  330OcOH   HH1 8907   0.468   2.861   3.862
  330OcOH   HH2 8908   0.327   2.928   3.944
  330OcOH   HH3 8909   0.416   3.025   3.827
  330OcOH    CH 8910   0.381   2.924   3.849
  331OcOH    HO 8911   3.152   3.247   2.076
  331OcOH    OH 8912   3.077   3.197   2.105
  331OcOH   HA1 8913   2.874   3.193   2.071
  331OcOH   HA2 8914   2.942   3.351   2.103
  331OcOH    CA 8915   2.960   3.256   2.052
  331OcOH   HB1 8916   3.062   3.350   1.886
  331OcOH   HB2 8917   2.890   3.329   1.862
  331OcOH    CB 8918   2.980   3.280   1.902
  331OcOH   HC1 8919   3.098   3.103   1.856
  331OcOH   HC2 8920   2.927   3.078   1.847
  331OcOH    CC 8921   3.005   3.150   1.823
  331OcOH   HD1 8922   3.004   3.072   1.623
  331OcOH   HD2 8923   2.920   3.224   1.639
  331OcOH    CD 8924   3.009   3.170   1.671
  331OcOH   HE1 8925   3.146   3.337   1.673
  331OcOH   HE2 8926   3.223   3.183   1.647
  331OcOH    CE 8927   3.135   3.242   1.621
  331OcOH   HF1 8928   3.043   3.326   1.445
  331OcOH   HF2 8929   3.123   3.173   1.417
  331OcOH    CF 8930   3.132   3.268   1.470
  331OcOH   HG1 8931   3.266   3.438   1.474
  331OcOH   HG2 8932   3.346   3.285   1.446
  331OcOH    CG 8933   3.257   3.343   1.421
  331OcOH   HH1 8934   3.169   3.430   1.242
  331OcOH   HH2 8935   3.250   3.275   1.214
  331OcOH   HH3 8936   3.345   3.421   1.239
  331OcOH    CH 8937   3.254   3.369   1.270
  332OcOH    HO 8938   4.093   4.348   1.193
  332OcOH    OH 8939   4.007   4.387   1.216
  332OcOH   HA1 8940   3.949   4.199   1.271
  332OcOH   HA2 8941   4.004   4.302   1.402
  332OcOH    CA 8942   3.946   4.301   1.310
  332OcOH   HB1 8943   3.746   4.345   1.242
  332OcOH   HB2 8944   3.801   4.447   1.373
  332OcOH    CB 8945   3.802   4.345   1.336
  332OcOH   HC1 8946   3.733   4.150   1.401
  332OcOH   HC2 8947   3.790   4.252   1.530
  332OcOH    CC 8948   3.732   4.253   1.438
  332OcOH   HD1 8949   3.525   4.281   1.381
  332OcOH   HD2 8950   3.583   4.399   1.495
  332OcOH    CD 8951   3.587   4.293   1.470
  332OcOH   HE1 8952   3.540   4.104   1.561
  332OcOH   HE2 8953   3.591   4.226   1.675
  332OcOH    CE 8954   3.531   4.210   1.586
  332OcOH   HF1 8955   3.324   4.230   1.528
  332OcOH   HF2 8956   3.375   4.345   1.649
  332OcOH    CF 8957   3.384   4.241   1.618
  332OcOH   HG1 8958   3.345   4.045   1.698
  332OcOH   HG2 8959   3.385   4.163   1.820
  332OcOH    CG 8960   3.329   4.149   1.727
  332OcOH   HH1 8961   3.144   4.103   1.832
  332OcOH   HH2 8962   3.120   4.154   1.665
  332OcOH   HH3 8963   3.161   4.273   1.789
  332OcOH    CH 8964   3.180   4.171   1.755
  333OcOH    HO 8965   4.890   3.889   3.838
  333OcOH    OH 8966   4.984   3.884   3.829
  333OcOH   HA1 8967   5.124   3.761   3.747
  333OcOH   HA2 8968   4.974   3.682   3.791
  333OcOH    CA 8969   5.016   3.773   3.748
  333OcOH   HB1 8970   5.003   3.716   3.541
  333OcOH   HB2 8971   5.006   3.889   3.566
  333OcOH    CB 8972   4.964   3.796   3.605
  333OcOH   HC1 8973   4.771   3.705   3.636
  333OcOH   HC2 8974   4.772   3.879   3.658
  333OcOH    CC 8975   4.811   3.798   3.596
  333OcOH   HD1 8976   4.805   3.738   3.389
  333OcOH   HD2 8977   4.799   3.911   3.411
  333OcOH    CD 8978   4.762   3.817   3.451
  333OcOH   HE1 8979   4.585   3.816   3.330
  333OcOH   HE2 8980   4.571   3.716   3.471
  333OcOH    CE 8981   4.609   3.812   3.436
  333OcOH   HF1 8982   4.581   4.022   3.481
  333OcOH   HF2 8983   4.550   3.916   3.616
  333OcOH    CF 8984   4.536   3.927   3.509
  333OcOH   HG1 8985   4.371   3.955   3.372
  333OcOH   HG2 8986   4.343   3.830   3.491
  333OcOH    CG 8987   4.386   3.930   3.477
  333OcOH   HH1 8988   4.204   4.029   3.541
  333OcOH   HH2 8989   4.347   4.131   3.552
  333OcOH   HH3 8990   4.320   4.004   3.671
  333OcOH    CH 8991   4.310   4.029   3.565
  334OcOH    HO 8992   0.885   3.582   3.589
  334OcOH    OH 8993   0.901   3.583   3.494
  334OcOH   HA1 8994   0.917   3.788   3.480
  334OcOH   HA2 8995   1.066   3.703   3.521
  334OcOH    CA 8996   0.975   3.698   3.460
  334OcOH   HB1 8997   0.919   3.676   3.252
  334OcOH   HB2 8998   1.069   3.597   3.294
  334OcOH    CB 8999   1.010   3.688   3.310
  334OcOH   HC1 9000   1.029   3.900   3.271
  334OcOH   HC2 9001   1.179   3.823   3.316
  334OcOH    CC 9002   1.088   3.809   3.257
  334OcOH   HD1 9003   1.034   3.778   3.050
  334OcOH   HD2 9004   1.184   3.702   3.097
  334OcOH    CD 9005   1.125   3.793   3.109
  334OcOH   HE1 9006   1.144   4.003   3.065
  334OcOH   HE2 9007   1.295   3.926   3.111
  334OcOH    CE 9008   1.204   3.912   3.053
  334OcOH   HF1 9009   1.148   3.874   2.848
  334OcOH   HF2 9010   1.303   3.808   2.890
  334OcOH    CF 9011   1.239   3.895   2.904
  334OcOH   HG1 9012   1.309   4.007   2.734
  334OcOH   HG2 9013   1.247   4.108   2.861
  334OcOH    CG 9014   1.307   4.019   2.842
  334OcOH   HH1 9015   1.454   4.060   2.999
  334OcOH   HH2 9016   1.495   4.127   2.841
  334OcOH   HH3 9017   1.513   3.955   2.870
  334OcOH    CH 9018   1.450   4.041   2.891
  335OcOH    HO 9019   3.135   4.309   3.032
  335OcOH    OH 9020   3.190   4.371   2.981
  335OcOH   HA1 9021   3.031   4.407   2.858
  335OcOH   HA2 9022   3.047   4.517   2.995
  335OcOH    CA 9023   3.103   4.462   2.918
  335OcOH   HB1 9024   3.241   4.501   2.758
  335OcOH   HB2 9025   3.259   4.610   2.893
  335OcOH    CB 9026   3.185   4.558   2.831
  335OcOH   HC1 9027   3.022   4.611   2.700
  335OcOH   HC2 9028   3.044   4.721   2.833
  335OcOH    CC 9029   3.098   4.662   2.759
  335OcOH   HD1 9030   3.241   4.693   2.601
  335OcOH   HD2 9031   3.252   4.812   2.729
  335OcOH    CD 9032   3.181   4.755   2.669
  335OcOH   HE1 9033   3.162   4.895   2.508
  335OcOH   HE2 9034   3.022   4.794   2.527
  335OcOH    CE 9035   3.096   4.850   2.583
  335OcOH   HF1 9036   3.101   5.023   2.714
  335OcOH   HF2 9037   2.965   4.917   2.741
  335OcOH    CF 9038   3.027   4.962   2.663
  335OcOH   HG1 9039   2.863   4.989   2.524
  335OcOH   HG2 9040   2.878   5.117   2.642
  335OcOH    CG 9041   2.936   5.051   2.576
  335OcOH   HH1 9042   2.944   0.064   2.418
  335OcOH   HH2 9043   3.067   5.076   2.403
  335OcOH   HH3 9044   3.084   0.066   2.525
  335OcOH    CH 9045   3.013   0.001   2.475
  336OcOH    HO 9046   3.748   0.725   3.054
  336OcOH    OH 9047   3.840   0.697   3.071
  336OcOH   HA1 9048   3.874   0.884   3.148
  336OcOH   HA2 9049   4.018   0.787   3.116
  336OcOH    CA 9050   3.919   0.813   3.078
  336OcOH   HB1 9051   3.992   0.968   2.948
  336OcOH   HB2 9052   3.834   0.909   2.903
  336OcOH    CB 9053   3.933   0.877   2.939
  336OcOH   HC1 9054   4.093   0.747   2.878
  336OcOH   HC2 9055   3.935   0.696   2.822
  336OcOH    CC 9056   3.999   0.784   2.837
  336OcOH   HD1 9057   4.097   0.932   2.716
  336OcOH   HD2 9058   3.934   0.897   2.665
  336OcOH    CD 9059   4.026   0.851   2.702
  336OcOH   HE1 9060   4.170   0.704   2.635
  336OcOH   HE2 9061   4.006   0.672   2.583
  336OcOH    CE 9062   4.079   0.752   2.598
  336OcOH   HF1 9063   4.183   0.898   2.477
  336OcOH   HF2 9064   4.018   0.868   2.426
  336OcOH    CF 9065   4.108   0.819   2.463
  336OcOH   HG1 9066   4.248   0.668   2.393
  336OcOH   HG2 9067   4.083   0.642   2.342
  336OcOH    CG 9068   4.158   0.719   2.357
  336OcOH   HH1 9069   4.267   0.862   2.234
  336OcOH   HH2 9070   4.100   0.836   2.184
  336OcOH   HH3 9071   4.222   0.714   2.149
  336OcOH    CH 9072   4.189   0.787   2.223
  337OcOH    HO 9073   5.037   1.807   3.879
  337OcOH    OH 9074   5.067   1.892   3.844
  337OcOH   HA1 9075   0.116   1.837   3.909
  337OcOH   HA2 9076   0.101   2.006   3.863
  337OcOH    CA 9077   0.049   1.924   3.913
  337OcOH   HB1 9078   0.112   1.959   4.114
  337OcOH   HB2 9079   5.094   1.882   4.105
  337OcOH    CB 9080   0.018   1.959   4.059
  337OcOH   HC1 9081   0.007   2.170   4.018
  337OcOH   HC2 9082   4.987   2.094   4.034
  337OcOH    CC 9083   5.088   2.097   4.076
  337OcOH   HD1 9084   0.046   2.131   4.266
  337OcOH   HD2 9085   5.019   2.074   4.280
  337OcOH    CD 9086   5.083   2.141   4.223
  337OcOH   HE1 9087   5.092   2.351   4.172
  337OcOH   HE2 9088   4.931   2.295   4.214
  337OcOH    CE 9089   5.036   2.287   4.241
  337OcOH   HF1 9090   0.026   2.324   4.412
  337OcOH   HF2 9091   5.000   2.277   4.455
  337OcOH    CF 9092   5.058   2.338   4.385
  337OcOH   HG1 9093   5.067   2.545   4.323
  337OcOH   HG2 9094   4.913   2.498   4.390
  337OcOH    CG 9095   5.021   2.486   4.402
  337OcOH   HH1 9096   0.036   2.540   4.548
  337OcOH   HH2 9097   5.023   2.485   4.620
  337OcOH   HH3 9098   5.032   2.646   4.549
  337OcOH    CH 9099   5.064   2.542   4.537
  338OcOH    HO 9100   1.508   4.854   1.241
  338OcOH    OH 9101   1.525   4.762   1.266
  338OcOH   HA1 9102   1.349   4.779   1.370
  338OcOH   HA2 9103   1.437   4.629   1.395
  338OcOH    CA 9104   1.449   4.737   1.382
  338OcOH   HB1 9105   1.515   4.906   1.498
  338OcOH   HB2 9106   1.622   4.768   1.507
  338OcOH    CB 9107   1.517   4.797   1.505
  338OcOH   HC1 9108   1.344   4.772   1.632
  338OcOH   HC2 9109   1.461   4.643   1.644
  338OcOH    CC 9110   1.451   4.752   1.636
  338OcOH   HD1 9111   1.482   4.924   1.763
  338OcOH   HD2 9112   1.620   4.818   1.750
  338OcOH    CD 9113   1.511   4.819   1.760
  338OcOH   HE1 9114   1.511   4.647   1.890
  338OcOH   HE2 9115   1.529   4.798   1.973
  338OcOH    CE 9116   1.475   4.749   1.892
  338OcOH   HF1 9117   1.267   4.709   1.843
  338OcOH   HF2 9118   1.292   4.855   1.936
  338OcOH    CF 9119   1.325   4.751   1.925
  338OcOH   HG1 9120   1.319   4.568   2.040
  338OcOH   HG2 9121   1.352   4.711   2.136
  338OcOH    CG 9122   1.292   4.673   2.053
  338OcOH   HH1 9123   1.080   4.641   2.012
  338OcOH   HH2 9124   1.113   4.785   2.107
  338OcOH   HH3 9125   1.123   4.626   2.182
  338OcOH    CH 9126   1.143   4.682   2.091
  339OcOH    HO 9127   2.239   0.305   2.383
  339OcOH    OH 9128   2.262   0.374   2.320
  339OcOH   HA1 9129   2.198   0.509   2.461
  339OcOH   HA2 9130   2.234   0.575   2.303
  339OcOH    CA 9131   2.189   0.490   2.354
  339OcOH   HB1 9132   2.037   0.461   2.204
  339OcOH   HB2 9133   1.993   0.572   2.330
  339OcOH    CB 9134   2.042   0.477   2.312
  339OcOH   HC1 9135   2.011   0.269   2.361
  339OcOH   HC2 9136   1.976   0.378   2.493
  339OcOH    CC 9137   1.966   0.365   2.385
  339OcOH   HD1 9138   1.807   0.356   2.239
  339OcOH   HD2 9139   1.770   0.457   2.376
  339OcOH    CD 9140   1.817   0.363   2.348
  339OcOH   HE1 9141   1.785   0.152   2.381
  339OcOH   HE2 9142   1.753   0.251   2.521
  339OcOH    CE 9143   1.741   0.246   2.413
  339OcOH   HF1 9144   1.583   0.244   2.268
  339OcOH   HF2 9145   1.546   0.343   2.406
  339OcOH    CF 9146   1.592   0.248   2.376
  339OcOH   HG1 9147   1.414   0.128   2.386
  339OcOH   HG2 9148   1.561   0.037   2.412
  339OcOH    CG 9149   1.511   0.131   2.435
  339OcOH   HH1 9150   1.582   0.145   2.642
  339OcOH   HH2 9151   1.430   0.057   2.623
  339OcOH   HH3 9152   1.432   0.233   2.611
  339OcOH    CH 9153   1.488   0.142   2.587
  340OcOH    HO 9154   1.177   2.806   4.773
  340OcOH    OH 9155   1.093   2.819   4.817
  340OcOH   HA1 9156   1.159   2.708   4.976
  340OcOH   HA2 9157   1.192   2.880   4.985
  340OcOH    CA 9158   1.117   2.806   4.956
  340OcOH   HB1 9159   0.914   2.751   5.003
  340OcOH   HB2 9160   0.943   2.923   5.006
  340OcOH    CB 9161   0.986   2.827   5.033
  340OcOH   HC1 9162   1.043   2.722   0.077
  340OcOH   HC2 9163   1.086   2.892   0.076
  340OcOH    CC 9164   1.007   2.821   0.049
  340OcOH   HD1 9165   0.801   2.784   0.102
  340OcOH   HD2 9166   0.844   2.953   0.098
  340OcOH    CD 9167   0.880   2.855   0.128
  340OcOH   HE1 9168   0.933   2.752   0.311
  340OcOH   HE2 9169   0.988   2.918   0.305
  340OcOH    CE 9170   0.904   2.853   0.280
  340OcOH   HF1 9171   0.694   2.837   0.331
  340OcOH   HF2 9172   0.755   3.000   0.332
  340OcOH    CF 9173   0.780   2.897   0.359
  340OcOH   HG1 9174   0.819   2.784   0.539
  340OcOH   HG2 9175   0.892   2.942   0.539
  340OcOH    CG 9176   0.802   2.888   0.511
  340OcOH   HH1 9177   0.591   2.888   0.568
  340OcOH   HH2 9178   0.665   3.048   0.568
  340OcOH   HH3 9179   0.701   2.934   0.698
  340OcOH    CH 9180   0.683   2.942   0.591
  341OcOH    HO 9181   4.114   2.029   0.168
  341OcOH    OH 9182   4.106   2.094   0.239
  341OcOH   HA1 9183   4.218   2.253   0.304
  341OcOH   HA2 9184   4.302   2.138   0.203
  341OcOH    CA 9185   4.207   2.190   0.216
  341OcOH   HB1 9186   4.082   2.329   0.109
  341OcOH   HB2 9187   4.151   2.205   0.009
  341OcOH    CB 9188   4.173   2.272   0.092
  341OcOH   HC1 9189   4.308   2.437   0.131
  341OcOH   HC2 9190   4.378   2.308   0.038
  341OcOH    CC 9191   4.287   2.367   0.051
  341OcOH   HD1 9192   4.169   2.505   5.069
  341OcOH   HD2 9193   4.236   2.372   4.978
  341OcOH    CD 9194   4.259   2.443   5.057
  341OcOH   HE1 9195   4.390   2.612   5.086
  341OcOH   HE2 9196   4.469   2.472   5.016
  341OcOH    CE 9197   4.377   2.531   5.014
  341OcOH   HF1 9198   4.264   2.642   4.867
  341OcOH   HF2 9199   4.351   2.506   4.802
  341OcOH    CF 9200   4.358   2.588   4.873
  341OcOH   HG1 9201   4.474   2.769   4.897
  341OcOH   HG2 9202   4.568   2.631   4.844
  341OcOH    CG 9203   4.473   2.682   4.831
  341OcOH   HH1 9204   4.367   2.782   4.669
  341OcOH   HH2 9205   4.463   2.643   4.617
  341OcOH   HH3 9206   4.543   2.795   4.659
  341OcOH    CH 9207   4.461   2.728   4.685
  342OcOH    HO 9208   2.094   1.450   3.065
  342OcOH    OH 9209   2.108   1.373   3.122
  342OcOH   HA1 9210   2.195   1.343   3.305
  342OcOH   HA2 9211   2.209   1.506   3.242
  342OcOH    CA 9212   2.141   1.421   3.251
  342OcOH   HB1 9213   2.043   1.483   3.431
  342OcOH   HB2 9214   1.947   1.376   3.333
  342OcOH    CB 9215   2.014   1.461   3.328
  342OcOH   HC1 9216   2.010   1.668   3.265
  342OcOH   HC2 9217   1.914   1.562   3.166
  342OcOH    CC 9218   1.942   1.583   3.269
  342OcOH   HD1 9219   1.845   1.645   3.452
  342OcOH   HD2 9220   1.751   1.534   3.356
  342OcOH    CD 9221   1.816   1.621   3.350
  342OcOH   HE1 9222   1.803   1.827   3.282
  342OcOH   HE2 9223   1.713   1.714   3.186
  342OcOH    CE 9224   1.739   1.739   3.288
  342OcOH   HF1 9225   1.557   1.678   3.389
  342OcOH   HF2 9226   1.540   1.825   3.299
  342OcOH    CF 9227   1.609   1.771   3.364
  342OcOH   HG1 9228   1.540   1.846   3.555
  342OcOH   HG2 9229   1.711   1.812   3.552
  342OcOH    CG 9230   1.630   1.854   3.493
  342OcOH   HH1 9231   1.670   2.057   3.558
  342OcOH   HH2 9232   1.571   2.048   3.413
  342OcOH   HH3 9233   1.744   2.017   3.404
  342OcOH    CH 9234   1.655   2.003   3.465
  343OcOH    HO 9235   2.401   1.297   4.627
  343OcOH    OH 9236   2.407   1.388   4.597
  343OcOH   HA1 9237   2.353   1.448   4.786
  343OcOH   HA2 9238   2.526   1.435   4.756
  343OcOH    CA 9239   2.431   1.467   4.712
  343OcOH   HB1 9240   2.507   1.632   4.594
  343OcOH   HB2 9241   2.479   1.671   4.761
  343OcOH    CB 9242   2.437   1.617   4.676
  343OcOH   HC1 9243   2.252   1.615   4.567
  343OcOH   HC2 9244   2.235   1.675   4.729
  343OcOH    CC 9245   2.300   1.677   4.641
  343OcOH   HD1 9246   2.377   1.824   4.502
  343OcOH   HD2 9247   2.359   1.883   4.665
  343OcOH    CD 9248   2.311   1.821   4.589
  343OcOH   HE1 9249   2.110   1.885   4.638
  343OcOH   HE2 9250   2.193   1.989   4.526
  343OcOH    CE 9251   2.176   1.884   4.551
  343OcOH   HF1 9252   2.075   1.714   4.460
  343OcOH   HF2 9253   2.178   1.802   4.352
  343OcOH    CF 9254   2.106   1.815   4.433
  343OcOH   HG1 9255   2.013   1.995   4.353
  343OcOH   HG2 9256   1.955   1.847   4.283
  343OcOH    CG 9257   1.985   1.892   4.378
  343OcOH   HH1 9258   1.886   1.945   4.565
  343OcOH   HH2 9259   1.832   1.791   4.496
  343OcOH   HH3 9260   1.779   1.943   4.425
  343OcOH    CH 9261   1.864   1.893   4.472
  344OcOH    HO 9262   2.681   2.189   2.708
  344OcOH    OH 9263   2.682   2.158   2.616
  344OcOH   HA1 9264   2.511   2.267   2.596
  344OcOH   HA2 9265   2.549   2.161   2.461
  344OcOH    CA 9266   2.550   2.168   2.569
  344OcOH   HB1 9267   2.476   2.056   2.740
  344OcOH   HB2 9268   2.505   1.960   2.597
  344OcOH    CB 9269   2.465   2.056   2.631
  344OcOH   HC1 9270   2.306   2.081   2.487
  344OcOH   HC2 9271   2.271   1.966   2.613
  344OcOH    CC 9272   2.316   2.063   2.594
  344OcOH   HD1 9273   2.284   2.268   2.658
  344OcOH   HD2 9274   2.250   2.148   2.780
  344OcOH    CD 9275   2.239   2.170   2.674
  344OcOH   HE1 9276   2.082   2.201   2.531
  344OcOH   HE2 9277   2.045   2.077   2.646
  344OcOH    CE 9278   2.090   2.176   2.636
  344OcOH   HF1 9279   1.911   2.291   2.672
  344OcOH   HF2 9280   2.058   2.375   2.712
  344OcOH    CF 9281   2.009   2.278   2.718
  344OcOH   HG1 9282   2.084   2.227   2.916
  344OcOH   HG2 9283   1.941   2.325   2.917
  344OcOH    CG 9284   1.988   2.241   2.866
  344OcOH   HH1 9285   1.949   2.026   2.848
  344OcOH   HH2 9286   1.804   2.127   2.840
  344OcOH   HH3 9287   1.884   2.099   2.994
  344OcOH    CH 9288   1.901   2.116   2.888
  345OcOH    HO 9289   2.635   3.853   3.034
  345OcOH    OH 9290   2.634   3.757   3.023
  345OcOH   HA1 9291   2.621   3.716   3.223
  345OcOH   HA2 9292   2.469   3.757   3.144
  345OcOH    CA 9293   2.563   3.703   3.132
  345OcOH   HB1 9294   2.632   3.502   3.091
  345OcOH   HB2 9295   2.485   3.546   3.008
  345OcOH    CB 9296   2.538   3.554   3.103
  345OcOH   HC1 9297   2.510   3.488   3.306
  345OcOH   HC2 9298   2.364   3.545   3.229
  345OcOH    CC 9299   2.454   3.486   3.212
  345OcOH   HD1 9300   2.506   3.280   3.170
  345OcOH   HD2 9301   2.373   3.342   3.075
  345OcOH    CD 9302   2.416   3.342   3.175
  345OcOH   HE1 9303   2.359   3.271   3.372
  345OcOH   HE2 9304   2.229   3.347   3.282
  345OcOH    CE 9305   2.315   3.280   3.272
  345OcOH   HF1 9306   2.350   3.074   3.217
  345OcOH   HF2 9307   2.225   3.152   3.124
  345OcOH    CF 9308   2.266   3.143   3.224
  345OcOH   HG1 9309   2.198   3.072   3.417
  345OcOH   HG2 9310   2.075   3.153   3.324
  345OcOH    CG 9311   2.158   3.084   3.316
  345OcOH   HH1 9312   2.028   2.910   3.333
  345OcOH   HH2 9313   2.186   2.874   3.263
  345OcOH   HH3 9314   2.064   2.956   3.166
  345OcOH    CH 9315   2.106   2.948   3.267
  346OcOH    HO 9316   0.110   4.266   3.001
  346OcOH    OH 9317   0.184   4.325   3.013
  346OcOH   HA1 9318   0.188   4.260   3.209
  346OcOH   HA2 9319   0.310   4.192   3.104
  346OcOH    CA 9320   0.256   4.283   3.127
  346OcOH   HB1 9321   0.418   4.423   3.087
  346OcOH   HB2 9322   0.423   4.350   3.244
  346OcOH    CB 9323   0.355   4.393   3.171
  346OcOH   HC1 9324   0.222   4.563   3.158
  346OcOH   HC2 9325   0.221   4.484   3.313
  346OcOH    CC 9326   0.287   4.516   3.232
  346OcOH   HD1 9327   0.449   4.656   3.203
  346OcOH   HD2 9328   0.456   4.569   3.355
  346OcOH    CD 9329   0.388   4.618   3.286
  346OcOH   HE1 9330   0.253   4.787   3.288
  346OcOH   HE2 9331   0.258   4.698   3.438
  346OcOH    CE 9332   0.321   4.736   3.357
  346OcOH   HF1 9333   0.482   4.878   3.333
  346OcOH   HF2 9334   0.493   4.783   3.479
  346OcOH    CF 9335   0.423   4.836   3.414
  346OcOH   HG1 9336   0.300   4.910   3.578
  346OcOH   HG2 9337   0.439   5.008   3.543
  346OcOH    CG 9338   0.360   4.951   3.496
  346OcOH   HH1 9339   0.186   4.998   3.371
  346OcOH   HH2 9340   0.331   5.089   3.330
  346OcOH   HH3 9341   0.239   5.130   3.474
  346OcOH    CH 9342   0.274   5.047   3.413
  347OcOH    HO 9343   3.363   0.739   3.346
  347OcOH    OH 9344   3.397   0.793   3.274
  347OcOH   HA1 9345   3.220   0.864   3.197
  347OcOH   HA2 9346   3.265   0.928   3.354
  347OcOH    CA 9347   3.305   0.899   3.257
  347OcOH   HB1 9348   3.297   1.096   3.174
  347OcOH   HB2 9349   3.409   0.992   3.090
  347OcOH    CB 9350   3.373   1.019   3.189
  347OcOH   HC1 9351   3.451   1.091   3.376
  347OcOH   HC2 9352   3.569   1.008   3.279
  347OcOH    CC 9353   3.487   1.079   3.274
  347OcOH   HD1 9354   3.604   1.256   3.300
  347OcOH   HD2 9355   3.453   1.285   3.218
  347OcOH    CD 9356   3.537   1.215   3.224
  347OcOH   HE1 9357   3.689   1.133   3.094
  347OcOH   HE2 9358   3.543   1.179   3.010
  347OcOH    CE 9359   3.611   1.210   3.090
  347OcOH   HF1 9360   3.736   1.380   3.137
  347OcOH   HF2 9361   3.596   1.420   3.041
  347OcOH    CF 9362   3.675   1.345   3.054
  347OcOH   HG1 9363   3.839   1.264   2.938
  347OcOH   HG2 9364   3.699   1.307   2.842
  347OcOH    CG 9365   3.760   1.340   2.927
  347OcOH   HH1 9366   3.749   1.551   2.876
  347OcOH   HH2 9367   3.886   1.468   2.804
  347OcOH   HH3 9368   3.889   1.509   2.975
  347OcOH    CH 9369   3.825   1.475   2.894
  348OcOH    HO 9370   2.192   4.888   3.795
  348OcOH    OH 9371   2.242   4.958   3.751
  348OcOH   HA1 9372   2.435   5.030   3.760
  348OcOH   HA2 9373   2.381   4.937   3.899
  348OcOH    CA 9374   2.377   4.942   3.790
  348OcOH   HB1 9375   2.373   4.729   3.757
  348OcOH   HB2 9376   2.533   4.797   3.773
  348OcOH    CB 9377   2.435   4.814   3.729
  348OcOH   HC1 9378   2.352   4.844   3.531
  348OcOH   HC2 9379   2.513   4.907   3.551
  348OcOH    CC 9380   2.449   4.822   3.576
  348OcOH   HD1 9381   2.437   4.611   3.531
  348OcOH   HD2 9382   2.599   4.667   3.566
  348OcOH    CD 9383   2.506   4.694   3.515
  348OcOH   HE1 9384   2.443   4.744   3.315
  348OcOH   HE2 9385   2.608   4.787   3.349
  348OcOH    CE 9386   2.534   4.709   3.364
  348OcOH   HF1 9387   2.590   4.601   3.188
  348OcOH   HF2 9388   2.504   4.503   3.303
  348OcOH    CF 9389   2.581   4.580   3.295
  348OcOH   HG1 9390   2.787   4.607   3.356
  348OcOH   HG2 9391   2.701   4.486   3.448
  348OcOH    CG 9392   2.715   4.526   3.347
  348OcOH   HH1 9393   2.704   4.334   3.244
  348OcOH   HH2 9394   2.865   4.377   3.299
  348OcOH   HH3 9395   2.797   4.456   3.158
  348OcOH    CH 9396   2.773   4.417   3.257
  349OcOH    HO 9397   1.013   0.391   0.019
  349OcOH    OH 9398   1.085   0.422   0.075
  349OcOH   HA1 9399   1.130   0.426   0.275
  349OcOH   HA2 9400   0.960   0.404   0.238
  349OcOH    CA 9401   1.061   0.376   0.207
  349OcOH   HB1 9402   1.065   0.193   0.319
  349OcOH   HB2 9403   1.183   0.197   0.191
  349OcOH    CB 9404   1.080   0.223   0.216
  349OcOH   HC1 9405   0.883   0.187   0.134
  349OcOH   HC2 9406   1.012   0.158   0.021
  349OcOH    CC 9407   0.983   0.145   0.126
  349OcOH   HD1 9408   0.944   5.119   0.262
  349OcOH   HD2 9409   1.077   5.089   0.153
  349OcOH    CD 9410   0.977   5.132   0.159
  349OcOH   HE1 9411   0.784   5.101   0.070
  349OcOH   HE2 9412   0.917   5.067   5.098
  349OcOH    CE 9413   0.883   5.055   0.065
  349OcOH   HF1 9414   0.846   4.894   0.204
  349OcOH   HF2 9415   0.970   4.859   0.086
  349OcOH    CF 9416   0.872   4.906   0.099
  349OcOH   HG1 9417   0.670   4.878   0.028
  349OcOH   HG2 9418   0.792   4.847   5.043
  349OcOH    CG 9419   0.768   4.833   0.012
  349OcOH   HH1 9420   0.730   4.665   0.146
  349OcOH   HH2 9421   0.856   4.635   0.027
  349OcOH   HH3 9422   0.688   4.634   5.115
  349OcOH    CH 9423   0.760   4.683   0.043
  350OcOH    HO 9424   0.946   4.232   3.509
  350OcOH    OH 9425   0.884   4.200   3.575
  350OcOH   HA1 9426   0.826   4.046   3.453
  350OcOH   HA2 9427   0.712   4.089   3.581
  350OcOH    CA 9428   0.782   4.130   3.507
  350OcOH   HB1 9429   0.669   4.309   3.467
  350OcOH   HB2 9430   0.620   4.173   3.371
  350OcOH    CB 9431   0.708   4.224   3.411
  350OcOH   HC1 9432   0.884   4.322   3.335
  350OcOH   HC2 9433   0.832   4.188   3.237
  350OcOH    CC 9434   0.796   4.272   3.295
  350OcOH   HD1 9435   0.670   4.445   3.265
  350OcOH   HD2 9436   0.644   4.318   3.148
  350OcOH    CD 9437   0.721   4.370   3.203
  350OcOH   HE1 9438   0.899   4.484   3.162
  350OcOH   HE2 9439   0.858   4.372   3.035
  350OcOH    CE 9440   0.815   4.443   3.106
  350OcOH   HF1 9441   0.688   4.618   3.102
  350OcOH   HF2 9442   0.672   4.516   2.961
  350OcOH    CF 9443   0.745   4.557   3.031
  350OcOH   HG1 9444   0.918   4.685   3.028
  350OcOH   HG2 9445   0.898   4.590   2.883
  350OcOH    CG 9446   0.844   4.648   2.957
  350OcOH   HH1 9447   0.722   4.828   2.964
  350OcOH   HH2 9448   0.705   4.736   2.816
  350OcOH   HH3 9449   0.849   4.832   2.842
  350OcOH    CH 9450   0.776   4.768   2.891
  351OcOH    HO 9451   1.131   3.061   4.135
  351OcOH    OH 9452   1.036   3.050   4.145
  351OcOH   HA1 9453   0.893   3.083   4.287
  351OcOH   HA2 9454   1.058   3.083   4.347
  351OcOH    CA 9455   0.995   3.114   4.264
  351OcOH   HB1 9456   0.938   3.292   4.158
  351OcOH   HB2 9457   1.103   3.294   4.216
  351OcOH    CB 9458   1.001   3.266   4.243
  351OcOH   HC1 9459   0.857   3.308   4.397
  351OcOH   HC2 9460   1.022   3.326   4.451
  351OcOH    CC 9461   0.955   3.345   4.366
  351OcOH   HD1 9462   0.885   3.541   4.420
  351OcOH   HD2 9463   0.886   3.512   4.248
  351OcOH    CD 9464   0.943   3.496   4.340
  351OcOH   HE1 9465   1.128   3.565   4.427
  351OcOH   HE2 9466   1.144   3.517   4.260
  351OcOH    CE 9467   1.078   3.569   4.330
  351OcOH   HF1 9468   0.998   3.767   4.356
  351OcOH   HF2 9469   1.015   3.719   4.189
  351OcOH    CF 9470   1.064   3.715   4.286
  351OcOH   HG1 9471   1.245   3.788   4.378
  351OcOH   HG2 9472   1.267   3.732   4.214
  351OcOH    CG 9473   1.199   3.787   4.279
  351OcOH   HH1 9474   1.122   3.991   4.293
  351OcOH   HH2 9475   1.144   3.934   4.127
  351OcOH   HH3 9476   1.284   3.980   4.224
  351OcOH    CH 9477   1.186   3.931   4.228
  352OcOH    HO 9478   4.846   4.851   2.266
  352OcOH    OH 9479   4.887   4.931   2.233
  352OcOH   HA1 9480   5.049   4.852   2.329
  352OcOH   HA2 9481   5.060   4.855   2.153
  352OcOH    CA 9482   5.027   4.911   2.240
  352OcOH   HB1 9483   5.050   5.103   2.331
  352OcOH   HB2 9484   5.078   5.106   2.158
  352OcOH    CB 9485   5.096   5.048   2.249
  352OcOH   HC1 9486   0.141   5.132   2.325
  352OcOH   HC2 9487   0.128   4.963   2.354
  352OcOH    CC 9488   0.110   5.039   2.279
  352OcOH   HD1 9489   0.181   5.092   2.082
  352OcOH   HD2 9490   0.167   4.919   2.108
  352OcOH    CD 9491   0.197   5.012   2.155
  352OcOH   HE1 9492   0.374   5.097   2.244
  352OcOH   HE2 9493   0.362   4.924   2.262
  352OcOH    CE 9494   0.346   5.006   2.192
  352OcOH   HF1 9495   0.422   5.070   2.000
  352OcOH   HF2 9496   0.409   4.896   2.016
  352OcOH    CF 9497   0.437   4.987   2.070
  352OcOH   HG1 9498   0.612   5.071   2.163
  352OcOH   HG2 9499   0.601   4.898   2.178
  352OcOH    CG 9500   0.585   4.981   2.109
  352OcOH   HH1 9501   0.657   4.873   1.933
  352OcOH   HH2 9502   0.782   4.961   2.020
  352OcOH   HH3 9503   0.668   5.048   1.919
  352OcOH    CH 9504   0.678   4.965   1.988
  353OcOH    HO 9505   4.554   2.150   0.060
  353OcOH    OH 9506   4.569   2.145   0.155
  353OcOH   HA1 9507   4.718   2.186   0.288
  353OcOH   HA2 9508   4.768   2.181   0.120
  353OcOH    CA 9509   4.688   2.213   0.187
  353OcOH   HB1 9510   4.576   2.392   0.234
  353OcOH   HB2 9511   4.642   2.391   0.073
  353OcOH    CB 9512   4.664   2.365   0.176
  353OcOH   HC1 9513   4.805   2.421   0.330
  353OcOH   HC2 9514   4.873   2.416   0.169
  353OcOH    CC 9515   4.784   2.446   0.225
  353OcOH   HD1 9516   4.685   2.629   0.281
  353OcOH   HD2 9517   4.730   2.622   0.112
  353OcOH    CD 9518   4.764   2.598   0.213
  353OcOH   HE1 9519   4.932   2.648   0.341
  353OcOH   HE2 9520   4.969   2.648   0.170
  353OcOH    CE 9521   4.893   2.676   0.243
  353OcOH   HF1 9522   4.806   2.858   0.320
  353OcOH   HF2 9523   4.820   2.855   0.147
  353OcOH    CF 9524   4.872   2.828   0.239
  353OcOH   HG1 9525   5.056   2.881   0.339
  353OcOH   HG2 9526   5.069   2.877   0.165
  353OcOH    CG 9527   5.003   2.907   0.247
  353OcOH   HH1 9528   4.918   3.092   0.323
  353OcOH   HH2 9529   4.933   3.087   0.147
  353OcOH   HH3 9530   5.075   3.112   0.247
  353OcOH    CH 9531   4.981   3.058   0.240
  354OcOH    HO 9532   3.951   1.476   4.689
  354OcOH    OH 9533   3.877   1.463   4.630
  354OcOH   HA1 9534   3.803   1.303   4.736
  354OcOH   HA2 9535   3.748   1.461   4.790
  354OcOH    CA 9536   3.771   1.402   4.701
  354OcOH   HB1 9537   3.613   1.491   4.583
  354OcOH   HB2 9538   3.565   1.348   4.672
  354OcOH    CB 9539   3.646   1.391   4.612
  354OcOH   HC1 9540   3.742   1.350   4.423
  354OcOH   HC2 9541   3.707   1.207   4.516
  354OcOH    CC 9542   3.666   1.304   4.487
  354OcOH   HD1 9543   3.496   1.380   4.377
  354OcOH   HD2 9544   3.461   1.236   4.469
  354OcOH    CD 9545   3.537   1.283   4.406
  354OcOH   HE1 9546   3.635   1.247   4.218
  354OcOH   HE2 9547   3.602   1.102   4.309
  354OcOH    CE 9548   3.560   1.198   4.280
  354OcOH   HF1 9549   3.391   1.272   4.168
  354OcOH   HF2 9550   3.358   1.125   4.255
  354OcOH    CF 9551   3.434   1.176   4.196
  354OcOH   HG1 9552   3.536   1.148   4.008
  354OcOH   HG2 9553   3.509   1.000   4.096
  354OcOH    CG 9554   3.463   1.095   4.069
  354OcOH   HH1 9555   3.364   1.008   3.896
  354OcOH   HH2 9556   3.295   1.161   3.948
  354OcOH   HH3 9557   3.262   1.014   4.040
  354OcOH    CH 9558   3.339   1.068   3.984
  355OcOH    HO 9559   2.468   3.830   0.050
  355OcOH    OH 9560   2.524   3.770   5.136
  355OcOH   HA1 9561   2.633   3.936   5.089
  355OcOH   HA2 9562   2.678   3.790   5.001
  355OcOH    CA 9563   2.593   3.847   5.040
  355OcOH   HB1 9564   2.553   3.954   4.858
  355OcOH   HB2 9565   2.415   3.944   4.964
  355OcOH    CB 9566   2.499   3.887   4.925
  355OcOH   HC1 9567   2.533   3.706   4.813
  355OcOH   HC2 9568   2.388   3.703   4.910
  355OcOH    CC 9569   2.448   3.766   4.845
  355OcOH   HD1 9570   2.427   3.868   4.655
  355OcOH   HD2 9571   2.282   3.870   4.753
  355OcOH    CD 9572   2.366   3.807   4.722
  355OcOH   HE1 9573   2.395   3.623   4.613
  355OcOH   HE2 9574   2.252   3.624   4.714
  355OcOH    CE 9575   2.311   3.685   4.646
  355OcOH   HF1 9576   2.286   3.784   4.455
  355OcOH   HF2 9577   2.144   3.788   4.557
  355OcOH    CF 9578   2.226   3.724   4.524
  355OcOH   HG1 9579   2.251   3.538   4.417
  355OcOH   HG2 9580   2.111   3.542   4.520
  355OcOH    CG 9581   2.169   3.602   4.451
  355OcOH   HH1 9582   1.997   3.702   4.362
  355OcOH   HH2 9583   2.042   3.552   4.282
  355OcOH   HH3 9584   2.139   3.697   4.257
  355OcOH    CH 9585   2.082   3.640   4.331
  356OcOH    HO 9586   3.548   3.057   2.052
  356OcOH    OH 9587   3.459   3.095   2.056
  356OcOH   HA1 9588   3.384   2.909   2.096
  356OcOH   HA2 9589   3.266   3.025   2.040
  356OcOH    CA 9590   3.368   2.990   2.026
  356OcOH   HB1 9591   3.495   2.923   1.867
  356OcOH   HB2 9592   3.362   3.021   1.812
  356OcOH    CB 9593   3.389   2.942   1.882
  356OcOH   HC1 9594   3.327   2.742   1.931
  356OcOH   HC2 9595   3.205   2.834   1.847
  356OcOH    CC 9596   3.312   2.813   1.850
  356OcOH   HD1 9597   3.466   2.736   1.721
  356OcOH   HD2 9598   3.337   2.816   1.634
  356OcOH    CD 9599   3.357   2.749   1.718
  356OcOH   HE1 9600   3.303   2.550   1.782
  356OcOH   HE2 9601   3.186   2.623   1.676
  356OcOH    CE 9602   3.293   2.611   1.693
  356OcOH   HF1 9603   3.465   2.532   1.591
  356OcOH   HF2 9604   3.344   2.596   1.483
  356OcOH    CF 9605   3.357   2.538   1.574
  356OcOH   HG1 9606   3.313   2.340   1.648
  356OcOH   HG2 9607   3.197   2.399   1.531
  356OcOH    CG 9608   3.303   2.396   1.555
  356OcOH   HH1 9609   3.485   2.315   1.466
  356OcOH   HH2 9610   3.365   2.367   1.348
  356OcOH   HH3 9611   3.342   2.217   1.437
  356OcOH    CH 9612   3.378   2.319   1.445
  357OcOH    HO 9613   1.750   0.363   4.335
  357OcOH    OH 9614   1.798   0.391   4.256
  357OcOH   HA1 9615   1.944   0.432   4.394
  357OcOH   HA2 9616   1.976   0.296   4.288
  357OcOH    CA 9617   1.935   0.397   4.291
  357OcOH   HB1 9618   1.970   0.591   4.203
  357OcOH   HB2 9619   1.990   0.458   4.092
  357OcOH    CB 9620   2.009   0.489   4.195
  357OcOH   HC1 9621   2.202   0.391   4.200
  357OcOH   HC2 9622   2.206   0.554   4.138
  357OcOH    CC 9623   2.162   0.491   4.216
  357OcOH   HD1 9624   2.175   0.475   4.431
  357OcOH   HD2 9625   2.155   0.638   4.374
  357OcOH    CD 9626   2.206   0.544   4.353
  357OcOH   HE1 9627   2.409   0.473   4.338
  357OcOH   HE2 9628   2.387   0.637   4.284
  357OcOH    CE 9629   2.358   0.566   4.361
  357OcOH   HF1 9630   2.382   0.543   4.575
  357OcOH   HF2 9631   2.348   0.706   4.525
  357OcOH    CF 9632   2.404   0.617   4.498
  357OcOH   HG1 9633   2.612   0.559   4.482
  357OcOH   HG2 9634   2.578   0.718   4.418
  357OcOH    CG 9635   2.554   0.650   4.500
  357OcOH   HH1 9636   2.548   0.808   4.650
  357OcOH   HH2 9637   2.706   0.734   4.631
  357OcOH   HH3 9638   2.578   0.648   4.717
  357OcOH    CH 9639   2.599   0.714   4.632
  358OcOH    HO 9640   1.030   2.131   3.387
  358OcOH    OH 9641   1.026   2.186   3.466
  358OcOH   HA1 9642   0.986   2.368   3.379
  358OcOH   HA2 9643   0.853   2.252   3.378
  358OcOH    CA 9644   0.935   2.291   3.439
  358OcOH   HB1 9645   0.965   2.382   3.633
  358OcOH   HB2 9646   0.831   2.270   3.626
  358OcOH    CB 9647   0.882   2.349   3.570
  358OcOH   HC1 9648   0.839   2.552   3.508
  358OcOH   HC2 9649   0.714   2.438   3.470
  358OcOH    CC 9650   0.785   2.466   3.547
  358OcOH   HD1 9651   0.651   2.419   3.710
  358OcOH   HD2 9652   0.629   2.578   3.643
  358OcOH    CD 9653   0.705   2.506   3.672
  358OcOH   HE1 9654   0.859   2.490   3.824
  358OcOH   HE2 9655   0.852   2.646   3.746
  358OcOH    CE 9656   0.790   2.566   3.786
  358OcOH   HF1 9657   0.638   2.540   3.938
  358OcOH   HF2 9658   0.635   2.695   3.858
  358OcOH    CF 9659   0.702   2.620   3.899
  358OcOH   HG1 9660   0.846   2.762   3.977
  358OcOH   HG2 9661   0.708   2.735   4.080
  358OcOH    CG 9662   0.779   2.684   4.015
  358OcOH   HH1 9663   0.795   2.505   4.139
  358OcOH   HH2 9664   0.906   2.635   4.184
  358OcOH   HH3 9665   0.938   2.537   4.041
  358OcOH    CH 9666   0.859   2.584   4.099
  359OcOH    HO 9667   1.335   1.339   0.542
  359OcOH    OH 9668   1.286   1.347   0.625
  359OcOH   HA1 9669   1.366   1.165   0.668
  359OcOH   HA2 9670   1.249   1.225   0.785
  359OcOH    CA 9671   1.271   1.217   0.678
  359OcOH   HB1 9672   1.179   1.139   0.499
  359OcOH   HB2 9673   1.065   1.191   0.621
  359OcOH    CB 9674   1.160   1.140   0.607
  359OcOH   HC1 9675   1.245   0.945   0.633
  359OcOH   HC2 9676   1.146   0.996   0.767
  359OcOH    CC 9677   1.152   0.995   0.658
  359OcOH   HD1 9678   1.030   0.924   0.494
  359OcOH   HD2 9679   0.940   0.959   0.639
  359OcOH    CD 9680   1.033   0.915   0.602
  359OcOH   HE1 9681   1.133   0.724   0.602
  359OcOH   HE2 9682   1.049   0.759   0.751
  359OcOH    CE 9683   1.042   0.767   0.642
  359OcOH   HF1 9684   0.904   0.707   0.488
  359OcOH   HF2 9685   0.831   0.716   0.646
  359OcOH    CF 9686   0.921   0.685   0.593
  359OcOH   HG1 9687   0.856   0.482   0.561
  359OcOH   HG2 9688   1.029   0.502   0.548
  359OcOH    CG 9689   0.942   0.533   0.606
  359OcOH   HH1 9690   0.871   0.513   0.812
  359OcOH   HH2 9691   1.047   0.525   0.798
  359OcOH   HH3 9692   0.966   0.376   0.754
  359OcOH    CH 9693   0.957   0.484   0.751
  360OcOH    HO 9694   5.134   1.367   3.456
  360OcOH    OH 9695   5.064   1.431   3.462
  360OcOH   HA1 9696   4.992   1.314   3.614
  360OcOH   HA2 9697   4.887   1.446   3.566
  360OcOH    CA 9698   4.955   1.370   3.528
  360OcOH   HB1 9699   4.957   1.213   3.379
  360OcOH   HB2 9700   4.837   1.337   3.351
  360OcOH    CB 9701   4.884   1.277   3.429
  360OcOH   HC1 9702   4.826   1.121   3.567
  360OcOH   HC2 9703   4.708   1.249   3.553
  360OcOH    CC 9704   4.777   1.188   3.495
  360OcOH   HD1 9705   4.769   1.055   3.325
  360OcOH   HD2 9706   4.639   1.172   3.331
  360OcOH    CD 9707   4.699   1.105   3.393
  360OcOH   HE1 9708   4.671   0.930   3.516
  360OcOH   HE2 9709   4.541   1.046   3.528
  360OcOH    CE 9710   4.609   0.999   3.457
  360OcOH   HF1 9711   4.596   0.880   3.277
  360OcOH   HF2 9712   4.461   0.988   3.301
  360OcOH    CF 9713   4.529   0.920   3.353
  360OcOH   HG1 9714   4.517   0.733   3.460
  360OcOH   HG2 9715   4.388   0.843   3.498
  360OcOH    CG 9716   4.449   0.805   3.416
  360OcOH   HH1 9717   4.304   0.652   3.361
  360OcOH   HH2 9718   4.416   0.692   3.232
  360OcOH   HH3 9719   4.285   0.802   3.271
  360OcOH    CH 9720   4.358   0.734   3.314
  361OcOH    HO 9721   0.388   3.656   3.695
  361OcOH    OH 9722   0.368   3.565   3.719
  361OcOH   HA1 9723   0.202   3.624   3.825
  361OcOH   HA2 9724   0.176   3.589   3.654
  361OcOH    CA 9725   0.229   3.556   3.744
  361OcOH   HB1 9726   0.250   3.383   3.869
  361OcOH   HB2 9727   0.229   3.344   3.701
  361OcOH    CB 9728   0.194   3.411   3.779
  361OcOH   HC1 9729   0.031   3.286   3.842
  361OcOH   HC2 9730   0.009   3.454   3.883
  361OcOH    CC 9731   0.044   3.388   3.804
  361OcOH   HD1 9732   0.002   3.346   3.597
  361OcOH   HD2 9733   5.099   3.509   3.644
  361OcOH    CD 9734   5.096   3.405   3.677
  361OcOH   HE1 9735   4.946   3.258   3.727
  361OcOH   HE2 9736   4.906   3.420   3.780
  361OcOH    CE 9737   4.949   3.363   3.698
  361OcOH   HF1 9738   4.911   3.329   3.488
  361OcOH   HF2 9739   4.867   3.489   3.542
  361OcOH    CF 9740   4.866   3.384   3.571
  361OcOH   HG1 9741   4.717   3.233   3.617
  361OcOH   HG2 9742   4.674   3.394   3.670
  361OcOH    CG 9743   4.720   3.339   3.588
  361OcOH   HH1 9744   4.535   3.323   3.476
  361OcOH   HH2 9745   4.680   3.302   3.377
  361OcOH   HH3 9746   4.632   3.463   3.432
  361OcOH    CH 9747   4.637   3.358   3.461
  362OcOH    HO 9748   3.091   4.227   3.237
  362OcOH    OH 9749   3.046   4.218   3.152
  362OcOH   HA1 9750   2.883   4.125   3.236
  362OcOH   HA2 9751   2.905   4.097   3.065
  362OcOH    CA 9752   2.958   4.107   3.160
  362OcOH   HB1 9753   3.089   3.993   3.286
  362OcOH   HB2 9754   3.115   3.967   3.115
  362OcOH    CB 9755   3.038   3.981   3.191
  362OcOH   HC1 9756   2.868   3.871   3.267
  362OcOH   HC2 9757   2.903   3.838   3.100
  362OcOH    CC 9758   2.950   3.855   3.197
  362OcOH   HD1 9759   3.078   3.750   3.333
  362OcOH   HD2 9760   3.108   3.712   3.165
  362OcOH    CD 9761   3.029   3.731   3.238
  362OcOH   HE1 9762   2.865   3.622   3.327
  362OcOH   HE2 9763   2.889   3.586   3.158
  362OcOH    CE 9764   2.942   3.605   3.252
  362OcOH   HF1 9765   3.082   3.502   3.380
  362OcOH   HF2 9766   3.099   3.462   3.211
  362OcOH    CF 9767   3.025   3.481   3.289
  362OcOH   HG1 9768   2.869   3.373   3.392
  362OcOH   HG2 9769   2.879   3.337   3.221
  362OcOH    CG 9770   2.939   3.356   3.311
  362OcOH   HH1 9771   3.091   3.208   3.259
  362OcOH   HH2 9772   2.961   3.145   3.359
  362OcOH   HH3 9773   3.085   3.247   3.431
  362OcOH    CH 9774   3.024   3.232   3.342
  363OcOH    HO 9775   2.539   4.732   1.916
  363OcOH    OH 9776   2.583   4.802   1.867
  363OcOH   HA1 9777   2.593   4.864   1.672
  363OcOH   HA2 9778   2.559   4.693   1.695
  363OcOH    CA 9779   2.538   4.793   1.734
  363OcOH   HB1 9780   2.370   4.923   1.768
  363OcOH   HB2 9781   2.337   4.755   1.801
  363OcOH    CB 9782   2.387   4.822   1.731
  363OcOH   HC1 9783   2.376   4.875   1.523
  363OcOH   HC2 9784   2.342   4.706   1.553
  363OcOH    CC 9785   2.325   4.807   1.591
  363OcOH   HD1 9786   2.142   4.857   1.488
  363OcOH   HD2 9787   2.159   4.933   1.642
  363OcOH    CD 9788   2.175   4.839   1.590
  363OcOH   HE1 9789   2.065   4.655   1.573
  363OcOH   HE2 9790   2.141   4.673   1.728
  363OcOH    CE 9791   2.087   4.728   1.651
  363OcOH   HF1 9792   1.888   4.695   1.727
  363OcOH   HF2 9793   1.905   4.846   1.641
  363OcOH    CF 9794   1.955   4.780   1.711
  363OcOH   HG1 9795   2.030   4.786   1.915
  363OcOH   HG2 9796   2.039   4.939   1.833
  363OcOH    CG 9797   1.976   4.851   1.846
  363OcOH   HH1 9798   1.781   4.808   1.932
  363OcOH   HH2 9799   1.789   4.964   1.848
  363OcOH   HH3 9800   1.863   4.944   2.007
  363OcOH    CH 9801   1.844   4.894   1.912
  364OcOH    HO 9802   1.399   1.023   2.083
  364OcOH    OH 9803   1.389   0.996   2.175
  364OcOH   HA1 9804   1.308   0.841   2.281
  364OcOH   HA2 9805   1.230   0.877   2.128
  364OcOH    CA 9806   1.326   0.870   2.178
  364OcOH   HB1 9807   1.514   0.766   2.154
  364OcOH   HB2 9808   1.430   0.795   2.003
  364OcOH    CB 9809   1.415   0.766   2.108
  364OcOH   HC1 9810   1.345   0.596   2.219
  364OcOH   HC2 9811   1.255   0.625   2.072
  364OcOH    CC 9812   1.355   0.625   2.114
  364OcOH   HD1 9813   1.544   0.527   2.075
  364OcOH   HD2 9814   1.442   0.544   1.934
  364OcOH    CD 9815   1.441   0.520   2.040
  364OcOH   HE1 9816   1.392   0.354   2.168
  364OcOH   HE2 9817   1.284   0.371   2.033
  364OcOH    CE 9818   1.389   0.377   2.062
  364OcOH   HF1 9819   1.575   0.280   2.011
  364OcOH   HF2 9820   1.462   0.290   1.878
  364OcOH    CF 9821   1.469   0.271   1.985
  364OcOH   HG1 9822   1.423   0.113   2.124
  364OcOH   HG2 9823   1.314   0.120   1.988
  364OcOH    CG 9824   1.419   0.129   2.017
  364OcOH   HH1 9825   1.494   0.029   1.838
  364OcOH   HH2 9826   1.464   5.058   1.975
  364OcOH   HH3 9827   1.606   0.025   1.974
  364OcOH    CH 9828   1.501   0.020   1.947
  365OcOH    HO 9829   0.634   0.971   2.472
  365OcOH    OH 9830   0.699   0.985   2.405
  365OcOH   HA1 9831   0.902   1.015   2.395
  365OcOH   HA2 9832   0.817   1.121   2.506
  365OcOH    CA 9833   0.821   1.019   2.469
  365OcOH   HB1 9834   0.948   0.944   2.624
  365OcOH   HB2 9835   0.856   0.819   2.545
  365OcOH    CB 9836   0.849   0.921   2.583
  365OcOH   HC1 9837   0.730   1.034   2.723
  365OcOH   HC2 9838   0.649   0.892   2.664
  365OcOH    CC 9839   0.746   0.929   2.697
  365OcOH   HD1 9840   0.723   0.884   2.907
  365OcOH   HD2 9841   0.889   0.885   2.853
  365OcOH    CD 9842   0.788   0.854   2.825
  365OcOH   HE1 9843   0.682   0.669   2.790
  365OcOH   HE2 9844   0.845   0.670   2.728
  365OcOH    CE 9845   0.784   0.701   2.812
  365OcOH   HF1 9846   0.774   0.667   3.025
  365OcOH   HF2 9847   0.936   0.662   2.962
  365OcOH    CF 9848   0.833   0.632   2.940
  365OcOH   HG1 9849   0.846   0.438   3.034
  365OcOH   HG2 9850   0.722   0.447   2.912
  365OcOH    CG 9851   0.824   0.478   2.935
  365OcOH   HH1 9852   0.917   0.306   2.840
  365OcOH   HH2 9853   1.025   0.444   2.854
  365OcOH   HH3 9854   0.898   0.443   2.732
  365OcOH    CH 9855   0.922   0.414   2.834
  366OcOH    HO 9856   2.400   1.458   3.556
  366OcOH    OH 9857   2.426   1.522   3.489
  366OcOH   HA1 9858   2.530   1.592   3.652
  366OcOH   HA2 9859   2.579   1.658   3.496
  366OcOH    CA 9860   2.492   1.628   3.556
  366OcOH   HB1 9861   2.311   1.719   3.632
  366OcOH   HB2 9862   2.363   1.782   3.477
  366OcOH    CB 9863   2.399   1.748   3.575
  366OcOH   HC1 9864   2.498   1.833   3.747
  366OcOH   HC2 9865   2.565   1.885   3.594
  366OcOH    CC 9866   2.471   1.864   3.646
  366OcOH   HD1 9867   2.294   1.973   3.702
  366OcOH   HD2 9868   2.363   2.024   3.550
  366OcOH    CD 9869   2.388   1.993   3.651
  366OcOH   HE1 9870   2.488   2.077   3.824
  366OcOH   HE2 9871   2.557   2.126   3.671
  366OcOH    CE 9872   2.463   2.107   3.722
  366OcOH   HF1 9873   2.287   2.219   3.777
  366OcOH   HF2 9874   2.357   2.268   3.625
  366OcOH    CF 9875   2.382   2.237   3.727
  366OcOH   HG1 9876   2.483   2.321   3.898
  366OcOH   HG2 9877   2.551   2.370   3.745
  366OcOH    CG 9878   2.457   2.351   3.797
  366OcOH   HH1 9879   2.431   2.560   3.853
  366OcOH   HH2 9880   2.281   2.467   3.856
  366OcOH   HH3 9881   2.351   2.517   3.702
  366OcOH    CH 9882   2.375   2.481   3.802
  367OcOH    HO 9883   3.932   1.583   4.515
  367OcOH    OH 9884   3.976   1.652   4.463
  367OcOH   HA1 9885   3.804   1.651   4.353
  367OcOH   HA2 9886   3.934   1.750   4.288
  367OcOH    CA 9887   3.912   1.655   4.337
  367OcOH   HB1 9888   3.946   1.444   4.308
  367OcOH   HB2 9889   4.068   1.546   4.235
  367OcOH    CB 9890   3.961   1.537   4.252
  367OcOH   HC1 9891   3.781   1.519   4.135
  367OcOH   HC2 9892   3.900   1.624   4.064
  367OcOH    CC 9893   3.887   1.529   4.117
  367OcOH   HD1 9894   4.038   1.430   3.997
  367OcOH   HD2 9895   3.878   1.423   3.933
  367OcOH    CD 9896   3.934   1.415   4.026
  367OcOH   HE1 9897   4.011   1.239   4.125
  367OcOH   HE2 9898   3.849   1.280   4.172
  367OcOH    CE 9899   3.915   1.275   4.086
  367OcOH   HF1 9900   3.922   1.169   3.897
  367OcOH   HF2 9901   3.761   1.209   3.951
  367OcOH    CF 9902   3.858   1.174   3.985
  367OcOH   HG1 9903   3.940   0.996   4.078
  367OcOH   HG2 9904   3.780   1.037   4.134
  367OcOH    CG 9905   3.843   1.033   4.045
  367OcOH   HH1 9906   3.843   0.928   3.854
  367OcOH   HH2 9907   3.682   0.962   3.915
  367OcOH   HH3 9908   3.778   0.833   3.986
  367OcOH    CH 9909   3.783   0.934   3.945
  368OcOH    HO 9910   1.898   3.141   1.565
  368OcOH    OH 9911   1.865   3.230   1.582
  368OcOH   HA1 9912   1.844   3.245   1.379
  368OcOH   HA2 9913   1.825   3.396   1.468
  368OcOH    CA 9914   1.883   3.304   1.463
  368OcOH   HB1 9915   2.087   3.239   1.444
  368OcOH   HB2 9916   2.069   3.390   1.529
  368OcOH    CB 9917   2.032   3.334   1.444
  368OcOH   HC1 9918   2.173   3.408   1.300
  368OcOH   HC2 9919   2.024   3.355   1.228
  368OcOH    CC 9920   2.065   3.409   1.314
  368OcOH   HD1 9921   2.048   3.604   1.404
  368OcOH   HD2 9922   1.907   3.558   1.312
  368OcOH    CD 9923   2.016   3.555   1.312
  368OcOH   HE1 9924   2.180   3.629   1.195
  368OcOH   HE2 9925   2.042   3.586   1.099
  368OcOH    CE 9926   2.071   3.634   1.192
  368OcOH   HF1 9927   2.092   3.834   1.118
  368OcOH   HF2 9928   2.053   3.828   1.287
  368OcOH    CF 9929   2.030   3.782   1.191
  368OcOH   HG1 9930   1.858   3.750   1.064
  368OcOH   HG2 9931   1.819   3.765   1.234
  368OcOH    CG 9932   1.882   3.805   1.155
  368OcOH   HH1 9933   1.744   3.966   1.108
  368OcOH   HH2 9934   1.909   3.997   1.054
  368OcOH   HH3 9935   1.868   4.011   1.225
  368OcOH    CH 9936   1.849   3.953   1.134
  369OcOH    HO 9937   4.111   1.629   4.609
  369OcOH    OH 9938   4.136   1.585   4.691
  369OcOH   HA1 9939   4.327   1.661   4.696
  369OcOH   HA2 9940   4.301   1.513   4.785
  369OcOH    CA 9941   4.276   1.565   4.693
  369OcOH   HB1 9942   4.253   1.396   4.560
  369OcOH   HB2 9943   4.419   1.439   4.592
  369OcOH    CB 9944   4.320   1.481   4.572
  369OcOH   HC1 9945   4.234   1.617   4.427
  369OcOH   HC2 9946   4.405   1.638   4.449
  369OcOH    CC 9947   4.327   1.562   4.442
  369OcOH   HD1 9948   4.269   1.402   4.311
  369OcOH   HD2 9949   4.442   1.414   4.333
  369OcOH    CD 9950   4.351   1.473   4.319
  369OcOH   HE1 9951   4.280   1.625   4.183
  369OcOH   HE2 9952   4.453   1.613   4.189
  369OcOH    CE 9953   4.362   1.554   4.189
  369OcOH   HF1 9954   4.269   1.402   4.066
  369OcOH   HF2 9955   4.443   1.395   4.066
  369OcOH    CF 9956   4.359   1.464   4.064
  369OcOH   HG1 9957   4.282   1.621   3.937
  369OcOH   HG2 9958   4.455   1.600   3.926
  369OcOH    CG 9959   4.361   1.546   3.934
  369OcOH   HH1 9960   4.423   1.385   3.800
  369OcOH   HH2 9961   4.341   1.520   3.720
  369OcOH   HH3 9962   4.248   1.404   3.813
  369OcOH    CH 9963   4.342   1.458   3.810
  370OcOH    HO 9964   3.014   3.033   2.161
  370OcOH    OH 9965   2.974   2.946   2.173
  370OcOH   HA1 9966   3.024   2.762   2.242
  370OcOH   HA2 9967   3.161   2.865   2.205
  370OcOH    CA 9968   3.061   2.864   2.248
  370OcOH   HB1 9969   3.119   2.833   2.453
  370OcOH   HB2 9970   2.963   2.909   2.436
  370OcOH    CB 9971   3.064   2.908   2.395
  370OcOH   HC1 9972   3.232   3.043   2.376
  370OcOH   HC2 9973   3.077   3.121   2.360
  370OcOH    CC 9974   3.131   3.045   2.417
  370OcOH   HD1 9975   3.181   3.008   2.624
  370OcOH   HD2 9976   3.034   3.099   2.601
  370OcOH    CD 9977   3.136   3.087   2.564
  370OcOH   HE1 9978   3.319   3.199   2.558
  370OcOH   HE2 9979   3.180   3.294   2.516
  370OcOH    CE 9980   3.215   3.218   2.585
  370OcOH   HF1 9981   3.292   3.342   2.743
  370OcOH   HF2 9982   3.227   3.191   2.800
  370OcOH    CF 9983   3.210   3.272   2.729
  370OcOH   HG1 9984   3.061   3.425   2.690
  370OcOH   HG2 9985   2.994   3.276   2.751
  370OcOH    CG 9986   3.078   3.344   2.762
  370OcOH   HH1 9987   3.157   3.476   2.917
  370OcOH   HH2 9988   3.090   3.325   2.979
  370OcOH   HH3 9989   2.983   3.454   2.924
  370OcOH    CH 9990   3.077   3.403   2.904
  371OcOH    HO 9991   2.281   1.395   1.118
  371OcOH    OH 9992   2.250   1.440   1.038
  371OcOH   HA1 9993   2.208   1.393   0.842
  371OcOH   HA2 9994   2.363   1.338   0.902
  371OcOH    CA 9995   2.258   1.350   0.929
  371OcOH   HB1 9996   2.254   1.171   1.049
  371OcOH   HB2 9997   2.213   1.145   0.882
  371OcOH    CB 9998   2.199   1.214   0.966
  371OcOH   HC1 9999   2.035   1.288   1.085
  371OcOH   HC210000   1.992   1.257   0.919
  371OcOH    CC10001   2.050   1.218   1.003
  371OcOH   HD110002   2.059   1.039   1.124
  371OcOH   HD210003   2.008   1.010   0.959
  371OcOH    CD10004   1.997   1.079   1.043
  371OcOH   HE110005   1.841   1.153   1.171
  371OcOH   HE210006   1.790   1.121   1.007
  371OcOH    CE10007   1.851   1.083   1.088
  371OcOH   HF110008   1.858   0.904   1.212
  371OcOH   HF210009   1.811   0.875   1.047
  371OcOH    CF10010   1.798   0.945   1.131
  371OcOH   HG110011   1.591   0.994   1.091
  371OcOH   HG210012   1.613   0.844   1.176
  371OcOH    CG10013   1.649   0.946   1.170
  371OcOH   HH110014   1.515   1.021   1.323
  371OcOH   HH210015   1.659   1.118   1.305
  371OcOH   HH310016   1.668   0.962   1.387
  371OcOH    CH10017   1.622   1.016   1.304
  372OcOH    HO10018   2.674   2.637   1.335
  372OcOH    OH10019   2.589   2.654   1.295
  372OcOH   HA110020   2.690   2.767   1.159
  372OcOH   HA210021   2.659   2.602   1.110
  372OcOH    CA10022   2.615   2.688   1.161
  372OcOH   HB110023   2.440   2.814   1.145
  372OcOH   HB210024   2.416   2.651   1.084
  372OcOH    CB10025   2.488   2.734   1.089
  372OcOH   HC110026   2.591   2.866   0.955
  372OcOH   HC210027   2.571   2.704   0.893
  372OcOH    CC10028   2.520   2.783   0.947
  372OcOH   HD110029   2.337   2.897   0.923
  372OcOH   HD210030   2.335   2.741   0.846
  372OcOH    CD10031   2.398   2.827   0.866
  372OcOH   HE110032   2.483   2.990   0.753
  372OcOH   HE210033   2.520   2.833   0.687
  372OcOH    CE10034   2.440   2.892   0.733
  372OcOH   HF110035   2.240   2.955   0.680
  372OcOH   HF210036   2.290   2.803   0.608
  372OcOH    CF10037   2.324   2.904   0.634
  372OcOH   HG110038   2.384   3.082   0.528
  372OcOH   HG210039   2.458   2.936   0.467
  372OcOH    CG10040   2.365   2.977   0.505
  372OcOH   HH110041   2.242   2.863   0.366
  372OcOH   HH210042   2.286   3.023   0.308
  372OcOH   HH310043   2.162   3.006   0.432
  372OcOH    CH10044   2.257   2.967   0.397
  373OcOH    HO10045   4.223   4.641   3.850
  373OcOH    OH10046   4.219   4.550   3.884
  373OcOH   HA110047   4.206   4.514   3.683
  373OcOH   HA210048   4.341   4.438   3.763
  373OcOH    CA10049   4.236   4.463   3.774
  373OcOH   HB110050   4.165   4.272   3.705
  373OcOH   HB210051   4.046   4.364   3.794
  373OcOH    CB10052   4.151   4.336   3.792
  373OcOH   HC110053   4.289   4.237   3.927
  373OcOH   HC210054   4.156   4.316   4.007
  373OcOH    CC10055   4.182   4.255   3.920
  373OcOH   HD110056   4.153   4.054   3.851
  373OcOH   HD210057   4.004   4.133   3.893
  373OcOH    CD10058   4.108   4.121   3.924
  373OcOH   HE110059   4.095   3.946   4.050
  373OcOH   HE210060   4.210   4.064   4.106
  373OcOH    CE10061   4.111   4.053   4.062
  373OcOH   HF110062   3.906   4.093   4.116
  373OcOH   HF210063   4.017   4.216   4.169
  373OcOH    CF10064   4.005   4.109   4.159
  373OcOH   HG110065   4.000   3.936   4.289
  373OcOH   HG210066   4.108   4.062   4.343
  373OcOH    CG10067   4.010   4.044   4.298
  373OcOH   HH110068   3.907   4.052   4.489
  373OcOH   HH210069   3.801   4.076   4.350
  373OcOH   HH310070   3.909   4.206   4.403
  373OcOH    CH10071   3.900   4.098   4.390
  374OcOH    HO10072   0.305   0.039   4.018
  374OcOH    OH10073   0.295   0.060   3.925
  374OcOH   HA110074   0.150   0.053   3.780
  374OcOH   HA210075   0.157   5.051   3.888
  374OcOH    CA10076   0.165   0.023   3.884
  374OcOH   HB110077   0.078   0.198   3.975
  374OcOH   HB210078   0.079   0.059   4.079
  374OcOH    CB10079   0.062   0.090   3.976
  374OcOH   HC110080   4.988   0.117   4.007
  374OcOH   HC210081   5.031   0.101   3.839
  374OcOH    CC10082   5.052   0.061   3.939
  374OcOH   HD110083   5.054   5.005   4.037
  374OcOH   HD210084   5.065   4.996   3.863
  374OcOH    CD10085   5.015   5.049   3.945
  374OcOH   HE110086   4.816   5.068   4.024
  374OcOH   HE210087   4.823   5.075   3.849
  374OcOH    CE10088   4.864   5.024   3.937
  374OcOH   HF110089   4.880   4.821   4.010
  374OcOH   HF210090   4.872   4.834   3.836
  374OcOH    CF10091   4.831   4.875   3.929
  374OcOH   HG110092   4.640   4.879   4.031
  374OcOH   HG210093   4.629   4.906   3.859
  374OcOH    CG10094   4.680   4.847   3.935
  374OcOH   HH110095   4.693   4.637   3.989
  374OcOH   HH210096   4.683   4.664   3.816
  374OcOH   HH310097   4.540   4.682   3.916
  374OcOH    CH10098   4.647   4.699   3.913
  375OcOH    HO10099   1.592   2.588   4.087
  375OcOH    OH10100   1.605   2.530   4.012
  375OcOH   HA110101   1.510   2.500   3.833
  375OcOH   HA210102   1.435   2.619   3.937
  375OcOH    CA10103   1.531   2.581   3.902
  375OcOH   HB110104   1.709   2.650   3.801
  375OcOH   HB210105   1.635   2.771   3.904
  375OcOH    CB10106   1.613   2.691   3.833
  375OcOH   HC110107   1.514   2.669   3.642
  375OcOH   HC210108   1.446   2.794   3.743
  375OcOH    CC10109   1.540   2.750   3.710
  375OcOH   HD110110   1.716   2.812   3.601
  375OcOH   HD210111   1.648   2.937   3.703
  375OcOH    CD10112   1.622   2.856   3.635
  375OcOH   HE110113   1.514   2.829   3.450
  375OcOH   HE210114   1.452   2.959   3.547
  375OcOH    CE10115   1.545   2.913   3.514
  375OcOH   HF110116   1.569   3.030   3.336
  375OcOH   HF210117   1.719   2.966   3.397
  375OcOH    CF10118   1.625   3.012   3.428
  375OcOH   HG110119   1.559   3.190   3.531
  375OcOH   HG210120   1.714   3.131   3.585
  375OcOH    CG10121   1.653   3.146   3.496
  375OcOH   HH110122   1.820   3.207   3.370
  375OcOH   HH210123   1.741   3.341   3.453
  375OcOH   HH310124   1.663   3.266   3.314
  375OcOH    CH10125   1.723   3.246   3.403
  376OcOH    HO10126   1.198   4.627   4.204
  376OcOH    OH10127   1.206   4.719   4.177
  376OcOH   HA110128   1.010   4.738   4.224
  376OcOH   HA210129   1.120   4.791   4.349
  376OcOH    CA10130   1.104   4.791   4.241
  376OcOH   HB110131   1.002   4.979   4.221
  376OcOH   HB210132   1.088   4.931   4.077
  376OcOH    CB10133   1.095   4.934   4.186
  376OcOH   HC110134   1.217   5.025   4.338
  376OcOH   HC210135   1.306   4.977   4.195
  376OcOH    CC10136   1.212   5.022   4.229
  376OcOH   HD110137   1.108   0.074   4.206
  376OcOH   HD210138   1.198   0.026   4.065
  376OcOH    CD10139   1.202   0.029   4.174
  376OcOH   HE110140   1.320   0.123   4.328
  376OcOH   HE210141   1.412   0.069   4.190
  376OcOH    CE10142   1.319   0.117   4.219
  376OcOH   HF110143   1.225   0.310   4.190
  376OcOH   HF210144   1.312   0.251   4.050
  376OcOH    CF10145   1.316   0.258   4.159
  376OcOH   HG110146   1.439   0.357   4.308
  376OcOH   HG210147   1.530   0.284   4.179
  376OcOH    CG10148   1.439   0.341   4.200
  376OcOH   HH110149   1.364   0.540   4.154
  376OcOH   HH210150   1.448   0.462   4.020
  376OcOH   HH310151   1.539   0.528   4.155
  376OcOH    CH10152   1.448   0.476   4.128
  377OcOH    HO10153   4.609   2.267   1.365
  377OcOH    OH10154   4.599   2.281   1.270
  377OcOH   HA110155   4.690   2.459   1.225
  377OcOH   HA210156   4.795   2.336   1.294
  377OcOH    CA10157   4.713   2.352   1.225
  377OcOH   HB110158   4.660   2.298   1.023
  377OcOH   HB210159   4.790   2.203   1.090
  377OcOH    CB10160   4.750   2.304   1.084
  377OcOH   HC110161   4.807   2.497   1.008
  377OcOH   HC210162   4.940   2.408   1.078
  377OcOH    CC10163   4.851   2.398   1.016
  377OcOH   HD110164   4.802   2.325   0.818
  377OcOH   HD210165   4.948   2.257   0.884
  377OcOH    CD10166   4.891   2.349   0.876
  377OcOH   HE110167   4.916   2.547   0.793
  377OcOH   HE210168   5.064   2.477   0.855
  377OcOH    CE10169   4.974   2.454   0.799
  377OcOH   HF110170   4.920   2.378   0.605
  377OcOH   HF210171   5.073   2.319   0.662
  377OcOH    CF10172   5.011   2.408   0.657
  377OcOH   HG110173   5.085   2.485   0.470
  377OcOH   HG210174   5.021   2.608   0.575
  377OcOH    CG10175   5.081   2.517   0.574
  377OcOH   HH110176   0.134   2.622   0.556
  377OcOH   HH210177   0.149   2.459   0.620
  377OcOH   HH310178   0.088   2.589   0.722
  377OcOH    CH10179   0.087   2.548   0.621
  378OcOH    HO10180   4.946   3.501   5.036
  378OcOH    OH10181   4.857   3.464   5.033
  378OcOH   HA110182   4.883   3.284   5.126
  378OcOH   HA210183   4.771   3.283   4.990
  378OcOH    CA10184   4.866   3.324   5.026
  378OcOH   HB110185   4.990   3.174   4.932
  378OcOH   HB210186   5.076   3.318   4.975
  378OcOH    CB10187   4.982   3.283   4.933
  378OcOH   HC110188   4.879   3.285   4.743
  378OcOH   HC210189   4.944   3.440   4.789
  378OcOH    CC10190   4.966   3.333   4.789
  378OcOH   HD110191   5.119   3.204   4.708
  378OcOH   HD210192   0.038   3.364   4.747
  378OcOH    CD10193   5.091   3.309   4.704
  378OcOH   HE110194   4.989   3.298   4.514
  378OcOH   HE210195   5.044   3.458   4.555
  378OcOH    CE10196   5.072   3.353   4.558
  378OcOH   HF110197   0.093   3.227   4.482
  378OcOH   HF210198   0.143   3.391   4.515
  378OcOH    CF10199   0.062   3.331   4.474
  378OcOH   HG110200   5.097   3.306   4.285
  378OcOH   HG210201   0.009   3.471   4.318
  378OcOH    CG10202   0.041   3.367   4.326
  378OcOH   HH110203   0.204   3.243   4.251
  378OcOH   HH210204   0.248   3.411   4.280
  378OcOH   HH310205   0.151   3.369   4.139
  378OcOH    CH10206   0.169   3.346   4.244
  379OcOH    HO10207   4.378   5.013   1.806
  379OcOH    OH10208   4.365   5.012   1.901
  379OcOH   HA110209   4.569   5.000   1.923
  379OcOH   HA210210   4.501   0.025   1.920
  379OcOH    CA10211   4.485   5.061   1.958
  379OcOH   HB110212   4.402   5.130   2.145
  379OcOH   HB210213   4.575   5.103   2.146
  379OcOH    CB10214   4.480   5.062   2.111
  379OcOH   HC110215   4.358   4.891   2.156
  379OcOH   HC210216   4.525   4.850   2.126
  379OcOH    CC10217   4.460   4.923   2.175
  379OcOH   HD110218   4.444   5.012   2.371
  379OcOH   HD210219   4.596   4.932   2.343
  379OcOH    CD10220   4.488   4.924   2.326
  379OcOH   HE110221   4.329   4.785   2.369
  379OcOH   HE210222   4.486   4.710   2.363
  379OcOH    CE10223   4.433   4.799   2.397
  379OcOH   HF110224   4.382   4.723   2.592
  379OcOH   HF210225   4.384   4.897   2.583
  379OcOH    CF10226   4.437   4.808   2.551
  379OcOH   HG110227   4.632   4.718   2.575
  379OcOH   HG210228   4.635   4.892   2.568
  379OcOH    CG10229   4.579   4.808   2.608
  379OcOH   HH110230   4.528   4.902   2.798
  379OcOH   HH210231   4.684   4.821   2.797
  379OcOH   HH310232   4.536   4.726   2.805
  379OcOH    CH10233   4.582   4.815   2.761
  380OcOH    HO10234   2.543   1.381   4.471
  380OcOH    OH10235   2.616   1.362   4.412
  380OcOH   HA110236   2.714   1.517   4.505
  380OcOH   HA210237   2.798   1.443   4.369
  380OcOH    CA10238   2.700   1.475   4.405
  380OcOH   HB110239   2.540   1.608   4.349
  380OcOH   HB210240   2.619   1.533   4.213
  380OcOH    CB10241   2.638   1.579   4.310
  380OcOH   HC110242   2.663   1.780   4.241
  380OcOH   HC210243   2.752   1.746   4.387
  380OcOH    CC10244   2.724   1.704   4.290
  380OcOH   HD110245   2.820   1.629   4.112
  380OcOH   HD210246   2.917   1.612   4.256
  380OcOH    CD10247   2.849   1.679   4.204
  380OcOH   HE110248   2.857   1.875   4.113
  380OcOH   HE210249   2.952   1.861   4.259
  380OcOH    CE10250   2.924   1.808   4.168
  380OcOH   HF110251   3.024   1.716   4.001
  380OcOH   HF210252   3.124   1.728   4.143
  380OcOH    CF10253   3.050   1.782   4.084
  380OcOH   HG110254   3.197   1.881   3.961
  380OcOH   HG210255   3.042   1.960   3.961
  380OcOH    CG10256   3.114   1.909   4.025
  380OcOH   HH110257   3.084   2.048   4.192
  380OcOH   HH210258   3.218   2.091   4.085
  380OcOH   HH310259   3.235   1.958   4.199
  380OcOH    CH10260   3.166   2.007   4.132
  381OcOH    HO10261   4.492   4.154   1.798
  381OcOH    OH10262   4.564   4.218   1.786
  381OcOH   HA110263   4.430   4.322   1.674
  381OcOH   HA210264   4.596   4.376   1.660
  381OcOH    CA10265   4.533   4.288   1.667
  381OcOH   HB110266   4.513   4.251   1.457
  381OcOH   HB210267   4.488   4.109   1.554
  381OcOH    CB10268   4.551   4.197   1.545
  381OcOH   HC110269   4.759   4.247   1.523
  381OcOH   HC210270   4.729   4.094   1.603
  381OcOH    CC10271   4.697   4.157   1.521
  381OcOH   HD110272   4.674   4.138   1.307
  381OcOH   HD210273   4.671   3.985   1.391
  381OcOH    CD10274   4.720   4.082   1.389
  381OcOH   HE110275   4.878   4.016   1.257
  381OcOH   HE210276   4.915   4.163   1.344
  381OcOH    CE10277   4.869   4.064   1.355
  381OcOH   HF110278   4.904   3.883   1.468
  381OcOH   HF210279   4.939   4.030   1.557
  381OcOH    CF10280   4.948   3.983   1.459
  381OcOH   HG110281   5.108   3.917   1.329
  381OcOH   HG210282   0.001   4.070   1.408
  381OcOH    CG10283   5.096   3.971   1.423
  381OcOH   HH110284   5.135   3.801   1.552
  381OcOH   HH210285   0.035   3.956   1.627
  381OcOH   HH310286   0.144   3.889   1.505
  381OcOH    CH10287   0.039   3.900   1.533
  382OcOH    HO10288   0.509   4.636   4.360
  382OcOH    OH10289   0.417   4.642   4.388
  382OcOH   HA110290   0.493   4.569   4.564
  382OcOH   HA210291   0.322   4.607   4.566
  382OcOH    CA10292   0.402   4.564   4.505
  382OcOH   HB110293   0.453   4.377   4.411
  382OcOH   HB210294   0.284   4.419   4.397
  382OcOH    CB10295   0.369   4.420   4.465
  382OcOH   HC110296   0.418   4.337   4.658
  382OcOH   HC210297   0.249   4.374   4.638
  382OcOH    CC10298   0.336   4.332   4.587
  382OcOH   HD110299   0.396   4.142   4.503
  382OcOH   HD210300   0.228   4.181   4.475
  382OcOH    CD10301   0.308   4.186   4.550
  382OcOH   HE110302   0.347   4.110   4.747
  382OcOH   HE210303   0.180   4.149   4.718
  382OcOH    CE10304   0.268   4.104   4.673
  382OcOH   HF110305   0.325   3.909   4.598
  382OcOH   HF210306   0.160   3.952   4.566
  382OcOH    CF10307   0.238   3.956   4.642
  382OcOH   HG110308   0.098   3.920   4.804
  382OcOH   HG210309   0.161   3.776   4.730
  382OcOH    CG10310   0.189   3.876   4.763
  382OcOH   HH110311   0.386   3.815   4.837
  382OcOH   HH210312   0.256   3.798   4.955
  382OcOH   HH310313   0.320   3.957   4.919
  382OcOH    CH10314   0.294   3.861   4.875
  383OcOH    HO10315   3.057   2.681   0.741
  383OcOH    OH10316   2.992   2.679   0.813
  383OcOH   HA110317   2.790   2.698   0.834
  383OcOH   HA210318   2.856   2.761   0.684
  383OcOH    CA10319   2.863   2.678   0.755
  383OcOH   HB110320   2.841   2.466   0.765
  383OcOH   HB210321   2.915   2.520   0.617
  383OcOH    CB10322   2.836   2.543   0.688
  383OcOH   HC110323   2.681   2.428   0.593
  383OcOH   HC210324   2.619   2.561   0.686
  383OcOH    CC10325   2.699   2.533   0.618
  383OcOH   HD110326   2.776   2.592   0.425
  383OcOH   HD210327   2.699   2.722   0.514
  383OcOH    CD10328   2.691   2.616   0.489
  383OcOH   HE110329   2.556   2.490   0.377
  383OcOH   HE210330   2.475   2.614   0.470
  383OcOH    CE10331   2.562   2.595   0.407
  383OcOH   HF110332   2.649   2.672   0.224
  383OcOH   HF210333   2.560   2.789   0.316
  383OcOH    CF10334   2.559   2.686   0.283
  383OcOH   HG110335   2.345   2.658   0.255
  383OcOH   HG210336   2.422   2.753   0.131
  383OcOH    CG10337   2.435   2.665   0.194
  383OcOH   HH110338   2.357   2.530   0.042
  383OcOH   HH210339   2.460   2.450   0.161
  383OcOH   HH310340   2.531   2.551   0.035
  383OcOH    CH10341   2.447   2.542   0.103
  384OcOH    HO10342   4.417   0.176   0.271
  384OcOH    OH10343   4.362   0.105   0.305
  384OcOH   HA110344   4.384   5.119   0.142
  384OcOH   HA210345   4.515   5.111   0.258
  384OcOH    CA10346   4.406   5.119   0.248
  384OcOH   HB110347   4.363   4.909   0.265
  384OcOH   HB210348   4.229   5.011   0.307
  384OcOH    CB10349   4.337   5.001   0.317
  384OcOH   HC110350   4.484   4.985   0.475
  384OcOH   HC210351   4.341   5.076   0.519
  384OcOH    CC10352   4.375   4.987   0.466
  384OcOH   HD110353   4.354   4.773   0.481
  384OcOH   HD210354   4.208   4.861   0.518
  384OcOH    CD10355   4.316   4.862   0.531
  384OcOH   HE110356   4.456   4.863   0.696
  384OcOH   HE210357   4.303   4.940   0.732
  384OcOH    CE10358   4.348   4.854   0.681
  384OcOH   HF110359   4.349   4.639   0.701
  384OcOH   HF210360   4.192   4.712   0.727
  384OcOH    CF10361   4.299   4.725   0.747
  384OcOH   HG110362   4.429   4.743   0.918
  384OcOH   HG210363   4.268   4.806   0.944
  384OcOH    CG10364   4.324   4.724   0.898
  384OcOH   HH110365   4.348   4.511   0.936
  384OcOH   HH210366   4.181   4.565   0.941
  384OcOH   HH310367   4.289   4.601   1.074
  384OcOH    CH10368   4.283   4.593   0.966
  385OcOH    HO10369   3.631   2.699   2.289
  385OcOH    OH10370   3.556   2.719   2.346
  385OcOH   HA110371   3.554   2.902   2.255
  385OcOH   HA210372   3.453   2.889   2.398
  385OcOH    CA10373   3.549   2.860   2.355
  385OcOH   HB110374   3.759   2.865   2.410
  385OcOH   HB210375   3.649   2.881   2.545
  385OcOH    CB10376   3.665   2.912   2.441
  385OcOH   HC110377   3.706   3.088   2.328
  385OcOH   HC210378   3.583   3.112   2.449
  385OcOH    CC10379   3.680   3.064   2.431
  385OcOH   HD110380   3.805   3.227   2.494
  385OcOH   HD210381   3.881   3.071   2.511
  385OcOH    CD10382   3.786   3.124   2.524
  385OcOH   HE110383   3.647   3.172   2.682
  385OcOH   HE210384   3.729   3.020   2.705
  385OcOH    CE10385   3.744   3.123   2.672
  385OcOH   HF110386   3.858   3.296   2.735
  385OcOH   HF210387   3.943   3.144   2.752
  385OcOH    CF10388   3.846   3.191   2.764
  385OcOH   HG110389   3.706   3.232   2.924
  385OcOH   HG210390   3.789   3.079   2.938
  385OcOH    CG10391   3.803   3.183   2.911
  385OcOH   HH110392   3.874   3.236   3.110
  385OcOH   HH210393   3.918   3.353   2.987
  385OcOH   HH310394   4.003   3.200   2.997
  385OcOH    CH10395   3.905   3.246   3.007
  386OcOH    HO10396   2.328   3.389   2.609
  386OcOH    OH10397   2.257   3.380   2.545
  386OcOH   HA110398   2.165   3.321   2.718
  386OcOH   HA210399   2.059   3.391   2.598
  386OcOH    CA10400   2.145   3.325   2.611
  386OcOH   HB110401   2.205   3.124   2.555
  386OcOH   HB210402   2.082   3.193   2.452
  386OcOH    CB10403   2.114   3.184   2.556
  386OcOH   HC110404   2.043   3.092   2.739
  386OcOH   HC210405   1.920   3.179   2.651
  386OcOH    CC10406   2.006   3.112   2.638
  386OcOH   HD110407   1.921   3.001   2.473
  386OcOH   HD210408   1.867   2.948   2.629
  386OcOH    CD10409   1.955   2.981   2.574
  386OcOH   HE110410   2.149   2.899   2.522
  386OcOH   HE210411   2.087   2.842   2.675
  386OcOH    CE10412   2.058   2.867   2.573
  386OcOH   HF110413   1.974   2.767   2.401
  386OcOH   HF210414   1.912   2.708   2.552
  386OcOH    CF10415   2.003   2.741   2.502
  386OcOH   HG110416   2.197   2.658   2.453
  386OcOH   HG210417   2.129   2.595   2.600
  386OcOH    CG10418   2.104   2.625   2.498
  386OcOH   HH110419   2.124   2.424   2.419
  386OcOH   HH210420   1.959   2.465   2.464
  386OcOH   HH310421   2.029   2.531   2.316
  386OcOH    CH10422   2.051   2.504   2.420
  387OcOH    HO10423   4.445   0.415   0.221
  387OcOH    OH10424   4.498   0.335   0.223
  387OcOH   HA110425   4.661   0.439   0.290
  387OcOH   HA210426   4.554   0.381   0.416
  387OcOH    CA10427   4.599   0.355   0.320
  387OcOH   HB110428   4.715   0.195   0.234
  387OcOH   HB210429   4.623   0.147   0.375
  387OcOH    CB10430   4.684   0.227   0.333
  387OcOH   HC110431   4.860   0.337   0.388
  387OcOH   HC210432   4.777   0.267   0.524
  387OcOH    CC10433   4.808   0.247   0.421
  387OcOH   HD110434   4.932   0.109   0.312
  387OcOH   HD210435   4.854   0.038   0.451
  387OcOH    CD10436   4.904   0.128   0.415
  387OcOH   HE110437   5.079   0.245   0.465
  387OcOH   HE210438   5.004   0.167   0.603
  387OcOH    CE10439   5.031   0.152   0.498
  387OcOH   HF110440   0.023   0.023   0.383
  387OcOH   HF210441   5.086   5.081   0.521
  387OcOH    CF10442   5.132   0.037   0.487
  387OcOH   HG110443   0.171   0.156   0.535
  387OcOH   HG210444   0.096   0.081   0.674
  387OcOH    CG10445   0.123   0.064   0.570
  387OcOH   HH110446   0.180   4.993   0.600
  387OcOH   HH210447   0.312   5.107   0.620
  387OcOH   HH310448   0.253   5.067   0.459
  387OcOH    CH10449   0.223   5.085   0.562
  388OcOH    HO10450   3.617   1.615   0.027
  388OcOH    OH10451   3.656   1.567   5.090
  388OcOH   HA110452   3.846   1.526   5.025
  388OcOH   HA210453   3.831   1.659   0.003
  388OcOH    CA10454   3.794   1.559   5.115
  388OcOH   HB110455   3.762   1.495   0.183
  388OcOH   HB210456   3.925   1.472   0.125
  388OcOH    CB10457   3.820   1.464   0.096
  388OcOH   HC110458   3.685   1.307   0.033
  388OcOH   HC210459   3.848   1.285   5.112
  388OcOH    CC10460   3.789   1.317   0.062
  388OcOH   HD110461   3.758   1.255   0.266
  388OcOH   HD210462   3.923   1.236   0.210
  388OcOH    CD10463   3.819   1.224   0.181
  388OcOH   HE110464   3.686   1.066   0.119
  388OcOH   HE210465   3.851   1.043   0.065
  388OcOH    CE10466   3.790   1.076   0.150
  388OcOH   HF110467   3.776   0.885   0.247
  388OcOH   HF210468   3.758   1.019   0.357
  388OcOH    CF10469   3.815   0.984   0.271
  388OcOH   HG110470   4.021   0.940   0.221
  388OcOH   HG210471   4.003   1.067   0.340
  388OcOH    CG10472   3.963   0.970   0.309
  388OcOH   HH110473   3.932   0.898   0.512
  388OcOH   HH210474   4.092   0.863   0.448
  388OcOH   HH310475   3.953   0.770   0.393
  388OcOH    CH10476   3.986   0.869   0.422
  389OcOH    HO10477   4.950   4.199   0.491
  389OcOH    OH10478   4.936   4.163   0.402
  389OcOH   HA110479   4.751   4.106   0.467
  389OcOH   HA210480   4.755   4.260   0.384
  389OcOH    CA10481   4.796   4.159   0.383
  389OcOH   HB110482   4.654   4.066   0.251
  389OcOH   HB210483   4.811   3.990   0.248
  389OcOH    CB10484   4.761   4.087   0.252
  389OcOH   HC110485   4.743   4.265   0.131
  389OcOH   HC210486   4.901   4.190   0.125
  389OcOH    CC10487   4.794   4.169   0.126
  389OcOH   HD110488   4.651   4.062   0.005
  389OcOH   HD210489   4.813   4.005   5.122
  389OcOH    CD10490   4.754   4.096   5.133
  389OcOH   HE110491   4.735   4.124   4.921
  389OcOH   HE210492   4.694   4.265   5.013
  389OcOH    CE10493   4.766   4.183   5.007
  389OcOH   HF110494   4.930   4.313   5.061
  389OcOH   HF210495   4.900   4.303   4.890
  389OcOH    CF10496   4.905   4.243   4.981
  389OcOH   HG110497   5.024   4.078   5.056
  389OcOH   HG210498   4.992   4.070   4.885
  389OcOH    CG10499   5.016   4.138   4.966
  389OcOH   HH110500   0.095   4.128   4.934
  389OcOH   HH210501   0.042   4.273   5.019
  389OcOH   HH310502   0.015   4.259   4.846
  389OcOH    CH10503   0.016   4.204   4.939
  390OcOH    HO10504   1.933   1.233   1.705
  390OcOH    OH10505   1.920   1.146   1.746
  390OcOH   HA110506   1.847   0.961   1.696
  390OcOH   HA210507   1.763   1.097   1.625
  390OcOH    CA10508   1.862   1.059   1.651
  390OcOH   HB110509   1.958   1.146   1.478
  390OcOH   HB210510   1.896   0.986   1.452
  390OcOH    CB10511   1.948   1.049   1.525
  390OcOH   HC110512   2.144   1.055   1.616
  390OcOH   HC210513   2.078   0.894   1.601
  390OcOH    CC10514   2.088   0.989   1.549
  390OcOH   HD110515   2.176   1.064   1.367
  390OcOH   HD210516   2.108   0.904   1.352
  390OcOH    CD10517   2.165   0.969   1.418
  390OcOH   HE110518   2.364   0.975   1.503
  390OcOH   HE210519   2.295   0.814   1.496
  390OcOH    CE10520   2.304   0.908   1.440
  390OcOH   HF110521   2.383   0.974   1.251
  390OcOH   HF210522   2.319   0.812   1.247
  390OcOH    CF10523   2.377   0.882   1.308
  390OcOH   HG110524   2.575   0.893   1.393
  390OcOH   HG210525   2.513   0.730   1.381
  390OcOH    CG10526   2.519   0.825   1.328
  390OcOH   HH110527   2.546   0.731   1.134
  390OcOH   HH210528   2.697   0.774   1.215
  390OcOH   HH310529   2.599   0.899   1.140
  390OcOH    CH10530   2.594   0.806   1.197
  391OcOH    HO10531   1.141   1.780   3.104
  391OcOH    OH10532   1.047   1.765   3.124
  391OcOH   HA110533   1.067   1.608   2.994
  391OcOH   HA210534   0.904   1.635   3.052
  391OcOH    CA10535   0.995   1.686   3.018
  391OcOH   HB110536   0.942   1.706   2.811
  391OcOH   HB210537   1.054   1.826   2.865
  391OcOH    CB10538   0.965   1.772   2.895
  391OcOH   HC110539   0.757   1.809   2.939
  391OcOH   HC210540   0.865   1.929   3.004
  391OcOH    CC10541   0.846   1.867   2.916
  391OcOH   HD110542   0.798   1.894   2.708
  391OcOH   HD210543   0.909   2.013   2.770
  391OcOH    CD10544   0.819   1.957   2.794
  391OcOH   HE110545   0.614   1.995   2.848
  391OcOH   HE210546   0.723   2.118   2.903
  391OcOH    CE10547   0.701   2.053   2.818
  391OcOH   HF110548   0.565   2.180   2.711
  391OcOH   HF210549   0.655   2.072   2.608
  391OcOH    CF10550   0.664   2.137   2.695
  391OcOH   HG110551   0.765   2.320   2.752
  391OcOH   HG210552   0.864   2.212   2.656
  391OcOH    CG10553   0.763   2.251   2.667
  391OcOH   HH110554   0.626   2.372   2.547
  391OcOH   HH210555   0.728   2.265   2.452
  391OcOH   HH310556   0.796   2.411   2.523
  391OcOH    CH10557   0.726   2.330   2.540
  392OcOH    HO10558   4.877   0.496   1.473
  392OcOH    OH10559   4.874   0.580   1.425
  392OcOH   HA110560   4.670   0.551   1.426
  392OcOH   HA210561   4.729   0.671   1.539
  392OcOH    CA10562   4.742   0.631   1.438
  392OcOH   HB110563   4.722   0.695   1.233
  392OcOH   HB210564   4.805   0.809   1.335
  392OcOH    CB10565   4.721   0.740   1.332
  392OcOH   HC110566   4.506   0.751   1.345
  392OcOH   HC210567   4.589   0.860   1.453
  392OcOH    CC10568   4.591   0.819   1.352
  392OcOH   HD110569   4.472   0.975   1.266
  392OcOH   HD210570   4.577   0.898   1.150
  392OcOH    CD10571   4.573   0.935   1.252
  392OcOH   HE110572   4.680   1.075   1.378
  392OcOH   HE210573   4.774   1.015   1.243
  392OcOH    CE10574   4.675   1.049   1.272
  392OcOH   HF110575   4.540   1.210   1.219
  392OcOH   HF210576   4.636   1.151   1.085
  392OcOH    CF10577   4.640   1.175   1.192
  392OcOH   HG110578   4.748   1.311   1.321
  392OcOH   HG210579   4.841   1.255   1.184
  392OcOH    CG10580   4.741   1.288   1.215
  392OcOH   HH110581   4.780   1.493   1.155
  392OcOH   HH210582   4.699   1.397   1.031
  392OcOH   HH310583   4.609   1.456   1.171
  392OcOH    CH10584   4.705   1.416   1.139
  393OcOH    HO10585   4.307   2.324   2.577
  393OcOH    OH10586   4.335   2.415   2.594
  393OcOH   HA110587   4.528   2.353   2.629
  393OcOH   HA210588   4.487   2.384   2.461
  393OcOH    CA10589   4.473   2.420   2.563
  393OcOH   HB110590   4.514   2.594   2.682
  393OcOH   HB210591   4.459   2.631   2.519
  393OcOH    CB10592   4.523   2.564   2.577
  393OcOH   HC110593   4.732   2.509   2.581
  393OcOH   HC210594   4.675   2.562   2.425
  393OcOH    CC10595   4.668   2.583   2.531
  393OcOH   HD110596   4.720   2.740   2.669
  393OcOH   HD210597   4.654   2.798   2.518
  393OcOH    CD10598   4.721   2.724   2.561
  393OcOH   HE110599   4.928   2.665   2.539
  393OcOH   HE210600   4.861   2.744   2.398
  393OcOH    CE10601   4.863   2.747   2.507
  393OcOH   HF110602   4.922   2.883   2.664
  393OcOH   HF210603   4.860   2.962   2.521
  393OcOH    CF10604   4.923   2.880   2.554
  393OcOH   HG110605   5.128   2.816   2.534
  393OcOH   HG210606   5.068   2.904   2.396
  393OcOH    CG10607   5.067   2.901   2.505
  393OcOH   HH110608   0.096   3.040   2.525
  393OcOH   HH210609   5.132   3.029   2.669
  393OcOH   HH310610   5.075   3.118   2.528
  393OcOH    CH10611   5.130   3.030   2.560
  394OcOH    HO10612   2.019   4.253   0.451
  394OcOH    OH10613   2.103   4.225   0.415
  394OcOH   HA110614   2.288   4.176   0.486
  394OcOH   HA210615   2.177   4.236   0.608
  394OcOH    CA10616   2.184   4.173   0.519
  394OcOH   HB110617   2.221   3.982   0.610
  394OcOH   HB210618   2.141   3.971   0.456
  394OcOH    CB10619   2.143   4.028   0.549
  394OcOH   HC110620   2.017   4.062   0.720
  394OcOH   HC210621   1.932   4.069   0.568
  394OcOH    CC10622   2.009   4.015   0.622
  394OcOH   HD110623   2.045   3.812   0.690
  394OcOH   HD210624   1.957   3.823   0.540
  394OcOH    CD10625   1.966   3.868   0.639
  394OcOH   HE110626   1.842   3.903   0.812
  394OcOH   HE210627   1.754   3.902   0.662
  394OcOH    CE10628   1.834   3.852   0.716
  394OcOH   HF110629   1.703   3.705   0.801
  394OcOH   HF210630   1.870   3.658   0.805
  394OcOH    CF10631   1.795   3.705   0.742
  394OcOH   HG110632   1.705   3.673   0.548
  394OcOH   HG210633   1.867   3.611   0.560
  394OcOH    CG10634   1.773   3.622   0.615
  394OcOH   HH110635   1.701   3.427   0.551
  394OcOH   HH210636   1.623   3.487   0.697
  394OcOH   HH310637   1.787   3.423   0.704
  394OcOH    CH10638   1.718   3.482   0.644
  395OcOH    HO10639   4.207   2.545   2.570
  395OcOH    OH10640   4.137   2.607   2.546
  395OcOH   HA110641   4.032   2.761   2.630
  395OcOH   HA210642   4.109   2.654   2.746
  395OcOH    CA10643   4.123   2.703   2.649
  395OcOH   HB110644   4.272   2.821   2.548
  395OcOH   HB210645   4.331   2.740   2.690
  395OcOH    CB10646   4.246   2.795   2.651
  395OcOH   HC110647   4.136   2.975   2.700
  395OcOH   HC210648   4.208   2.896   2.837
  395OcOH    CC10649   4.226   2.923   2.733
  395OcOH   HD110650   4.437   2.964   2.750
  395OcOH   HD210651   4.335   3.094   2.803
  395OcOH    CD10652   4.346   3.018   2.726
  395OcOH   HE110653   4.379   3.015   2.511
  395OcOH   HE210654   4.265   3.135   2.565
  395OcOH    CE10655   4.361   3.088   2.589
  395OcOH   HF110656   4.456   3.266   2.668
  395OcOH   HF210657   4.457   3.255   2.495
  395OcOH    CF10658   4.470   3.196   2.586
  395OcOH   HG110659   4.631   3.085   2.680
  395OcOH   HG210660   4.625   3.067   2.506
  395OcOH    CG10661   4.613   3.139   2.587
  395OcOH   HH110662   4.708   3.303   2.479
  395OcOH   HH210663   4.820   3.206   2.575
  395OcOH   HH310664   4.713   3.322   2.653
  395OcOH    CH10665   4.720   3.249   2.573
  396OcOH    HO10666   2.135   4.139   0.268
  396OcOH    OH10667   2.153   4.087   0.189
  396OcOH   HA110668   2.012   4.198   0.089
  396OcOH   HA210669   2.178   4.252   0.071
  396OcOH    CA10670   2.115   4.164   0.077
  396OcOH   HB110671   2.232   4.042   5.078
  396OcOH   HB210672   2.115   4.145   4.999
  396OcOH    CB10673   2.130   4.080   5.086
  396OcOH   HC110674   2.041   3.899   0.029
  396OcOH   HC210675   1.928   4.003   5.083
  396OcOH    CC10676   2.030   3.963   5.078
  396OcOH   HD110677   2.144   3.830   4.952
  396OcOH   HD210678   2.045   3.943   4.864
  396OcOH    CD10679   2.046   3.878   4.951
  396OcOH   HE110680   1.940   3.705   5.023
  396OcOH   HE210681   1.839   3.821   4.941
  396OcOH    CE10682   1.936   3.772   4.937
  396OcOH   HF110683   2.041   3.635   4.809
  396OcOH   HF210684   1.951   3.757   4.722
  396OcOH    CF10685   1.947   3.690   4.808
  396OcOH   HG110686   1.821   3.528   4.879
  396OcOH   HG210687   1.737   3.650   4.787
  396OcOH    CG10688   1.829   3.593   4.791
  396OcOH   HH110689   1.848   3.567   4.576
  396OcOH   HH210690   1.755   3.440   4.655
  396OcOH   HH310691   1.930   3.443   4.670
  396OcOH    CH10692   1.841   3.506   4.666
  397OcOH    HO10693   3.618   4.944   3.112
  397OcOH    OH10694   3.573   4.862   3.086
  397OcOH   HA110695   3.639   4.872   2.892
  397OcOH   HA210696   3.488   4.786   2.915
  397OcOH    CA10697   3.545   4.873   2.948
  397OcOH   HB110698   3.459   5.016   2.811
  397OcOH   HB210699   3.529   5.088   2.954
  397OcOH    CB10700   3.469   5.003   2.919
  397OcOH   HC110701   3.267   4.930   2.940
  397OcOH   HC210702   3.339   4.984   3.090
  397OcOH    CC10703   3.330   5.007   2.984
  397OcOH   HD110704   3.252   0.036   2.866
  397OcOH   HD210705   3.323   0.083   3.018
  397OcOH    CD10706   3.261   0.007   2.971
  397OcOH   HE110707   3.053   5.083   2.978
  397OcOH   HE210708   3.129   5.098   3.135
  397OcOH    CE10709   3.122   0.008   3.036
  397OcOH   HF110710   3.055   0.197   2.955
  397OcOH   HF210711   3.134   0.210   3.111
  397OcOH    CF10712   3.064   0.149   3.053
  397OcOH   HG110713   2.853   0.102   3.057
  397OcOH   HG210714   2.932   0.086   3.212
  397OcOH    CG10715   2.927   0.148   3.122
  397OcOH   HH110716   2.952   0.338   3.228
  397OcOH   HH210717   2.785   0.284   3.217
  397OcOH   HH310718   2.864   0.352   3.076
  397OcOH    CH10719   2.880   0.288   3.163
  398OcOH    HO10720   4.462   2.036   1.917
  398OcOH    OH10721   4.540   1.981   1.935
  398OcOH   HA110722   4.549   1.944   1.733
  398OcOH   HA210723   4.652   1.843   1.833
  398OcOH    CA10724   4.554   1.890   1.828
  398OcOH   HB110725   4.454   1.726   1.927
  398OcOH   HB210726   4.464   1.711   1.754
  398OcOH    CB10727   4.445   1.782   1.834
  398OcOH   HC110728   4.279   1.899   1.907
  398OcOH   HC210729   4.297   1.904   1.734
  398OcOH    CC10730   4.302   1.838   1.820
  398OcOH   HD110731   4.209   1.655   1.888
  398OcOH   HD210732   4.217   1.671   1.714
  398OcOH    CD10733   4.198   1.727   1.806
  398OcOH   HE110734   4.033   1.831   1.900
  398OcOH   HE210735   4.045   1.857   1.728
  398OcOH    CE10736   4.054   1.780   1.805
  398OcOH   HF110737   3.954   1.598   1.864
  398OcOH   HF210738   3.976   1.614   1.691
  398OcOH    CF10739   3.950   1.670   1.782
  398OcOH   HG110740   3.782   1.784   1.856
  398OcOH   HG210741   3.804   1.794   1.683
  398OcOH    CG10742   3.808   1.725   1.768
  398OcOH   HH110743   3.603   1.657   1.742
  398OcOH   HH210744   3.705   1.544   1.831
  398OcOH   HH310745   3.721   1.559   1.656
  398OcOH    CH10746   3.703   1.615   1.748
  399OcOH    HO10747   2.708   0.497   0.622
  399OcOH    OH10748   2.785   0.501   0.680
  399OcOH   HA110749   2.688   0.613   0.820
  399OcOH   HA210750   2.861   0.634   0.818
  399OcOH    CA10751   2.774   0.621   0.754
  399OcOH   HB110752   2.747   0.831   0.721
  399OcOH   HB210753   2.663   0.731   0.605
  399OcOH    CB10754   2.757   0.741   0.660
  399OcOH   HC110755   2.967   0.768   0.616
  399OcOH   HC210756   2.882   0.672   0.498
  399OcOH    CC10757   2.873   0.760   0.561
  399OcOH   HD110758   2.847   0.973   0.536
  399OcOH   HD210759   2.757   0.877   0.421
  399OcOH    CD10760   2.853   0.885   0.473
  399OcOH   HE110761   3.061   0.911   0.421
  399OcOH   HE210762   2.971   0.813   0.307
  399OcOH    CE10763   2.965   0.903   0.370
  399OcOH   HF110764   2.937   1.115   0.346
  399OcOH   HF210765   2.847   1.020   0.231
  399OcOH    CF10766   2.943   1.027   0.281
  399OcOH   HG110767   3.042   1.150   0.136
  399OcOH   HG210768   3.152   1.050   0.227
  399OcOH    CG10769   3.055   1.050   0.178
  399OcOH   HH110770   2.957   0.946   0.013
  399OcOH   HH210771   3.075   0.847   0.099
  399OcOH   HH310772   3.129   0.973   5.125
  399OcOH    CH10773   3.054   0.948   0.063
  400OcOH    HO10774   3.687   0.368   1.450
  400OcOH    OH10775   3.742   0.398   1.376
  400OcOH   HA110776   3.812   0.207   1.351
  400OcOH   HA210777   3.673   0.250   1.252
  400OcOH    CA10778   3.767   0.287   1.292
  400OcOH   HB110779   3.953   0.371   1.221
  400OcOH   HB210780   3.817   0.408   1.118
  400OcOH    CB10781   3.862   0.328   1.178
  400OcOH   HC110782   3.927   0.125   1.148
  400OcOH   HC210783   3.813   0.180   1.028
  400OcOH    CC10784   3.900   0.210   1.087
  400OcOH   HD110785   4.102   0.276   1.052
  400OcOH   HD210786   3.991   0.327   0.929
  400OcOH    CD10787   4.017   0.243   0.993
  400OcOH   HE110788   4.072   0.036   0.971
  400OcOH   HE210789   3.981   0.097   0.836
  400OcOH    CE10790   4.060   0.123   0.906
  400OcOH   HF110791   4.227   0.048   0.793
  400OcOH   HF210792   4.269   0.177   0.902
  400OcOH    CF10793   4.192   0.144   0.832
  400OcOH   HG110794   4.110   0.207   0.642
  400OcOH   HG210795   4.146   0.340   0.751
  400OcOH    CG10796   4.183   0.244   0.715
  400OcOH   HH110797   4.307   0.335   0.561
  400OcOH   HH210798   4.357   0.172   0.604
  400OcOH   HH310799   4.391   0.308   0.713
  400OcOH    CH10800   4.317   0.266   0.644
  401OcOH    HO10801   4.081   2.659   0.945
  401OcOH    OH10802   4.030   2.681   0.866
  401OcOH   HA110803   3.939   2.851   0.936
  401OcOH   HA210804   4.107   2.869   0.891
  401OcOH    CA10805   4.014   2.821   0.862
  401OcOH   HB110806   3.882   2.807   0.693
  401OcOH   HB210807   4.049   2.838   0.650
  401OcOH    CB10808   3.971   2.864   0.721
  401OcOH   HC110809   3.858   3.035   0.784
  401OcOH   HC210810   4.025   3.072   0.749
  401OcOH    CC10811   3.939   3.014   0.714
  401OcOH   HD110812   3.836   3.152   0.586
  401OcOH   HD210813   3.831   2.989   0.527
  401OcOH    CD10814   3.896   3.063   0.574
  401OcOH   HE110815   4.078   3.170   0.533
  401OcOH   HE210816   4.076   3.009   0.465
  401OcOH    CE10817   4.015   3.097   0.483
  401OcOH   HF110818   3.896   3.235   0.366
  401OcOH   HF210819   3.917   3.079   0.291
  401OcOH    CF10820   3.969   3.156   0.348
  401OcOH   HG110821   4.137   3.289   0.323
  401OcOH   HG210822   4.159   3.134   0.247
  401OcOH    CG10823   4.086   3.212   0.266
  401OcOH   HH110824   3.994   3.197   0.069
  401OcOH   HH210825   4.125   3.314   0.077
  401OcOH   HH310826   3.968   3.352   0.147
  401OcOH    CH10827   4.040   3.272   0.132
  402OcOH    HO10828   0.731   0.821   3.300
  402OcOH    OH10829   0.725   0.730   3.332
  402OcOH   HA110830   0.928   0.698   3.328
  402OcOH   HA210831   0.866   0.776   3.473
  402OcOH    CA10832   0.845   0.699   3.399
  402OcOH   HB110833   0.806   0.486   3.391
  402OcOH   HB210834   0.741   0.566   3.533
  402OcOH    CB10835   0.828   0.562   3.466
  402OcOH   HC110836   1.037   0.509   3.480
  402OcOH   HC210837   0.978   0.597   3.618
  402OcOH    CC10838   0.952   0.519   3.547
  402OcOH   HD110839   0.906   0.307   3.552
  402OcOH   HD210840   0.837   0.398   3.683
  402OcOH    CD10841   0.927   0.387   3.622
  402OcOH   HE110842   1.071   0.430   3.779
  402OcOH   HE210843   1.008   0.268   3.782
  402OcOH    CE10844   1.043   0.346   3.715
  402OcOH   HF110845   1.204   0.372   3.573
  402OcOH   HF210846   1.137   0.211   3.575
  402OcOH    CF10847   1.166   0.294   3.639
  402OcOH   HG110848   1.304   0.330   3.801
  402OcOH   HG210849   1.241   0.167   3.797
  402OcOH    CG10850   1.277   0.248   3.734
  402OcOH   HH110851   1.444   0.282   3.597
  402OcOH   HH210852   1.380   0.118   3.593
  402OcOH   HH310853   1.479   0.170   3.728
  402OcOH    CH10854   1.402   0.202   3.658
  403OcOH    HO10855   4.862   3.979   1.808
  403OcOH    OH10856   4.872   3.883   1.808
  403OcOH   HA110857   4.782   3.722   1.901
  403OcOH   HA210858   4.745   3.880   1.968
  403OcOH    CA10859   4.761   3.826   1.874
  403OcOH   HB110860   4.616   3.939   1.762
  403OcOH   HB210861   4.550   3.799   1.842
  403OcOH    CB10862   4.636   3.835   1.786
  403OcOH   HC110863   4.739   3.784   1.604
  403OcOH   HC210864   4.660   3.648   1.679
  403OcOH    CC10865   4.648   3.753   1.656
  403OcOH   HD110866   4.513   3.880   1.548
  403OcOH   HD210867   4.437   3.736   1.609
  403OcOH    CD10868   4.528   3.773   1.562
  403OcOH   HE110869   4.648   3.734   1.389
  403OcOH   HE210870   4.548   3.599   1.436
  403OcOH    CE10871   4.549   3.707   1.425
  403OcOH   HF110872   4.442   3.860   1.316
  403OcOH   HF210873   4.344   3.722   1.358
  403OcOH    CF10874   4.443   3.751   1.323
  403OcOH   HG110875   4.456   3.585   1.183
  403OcOH   HG210876   4.385   3.729   1.117
  403OcOH    CG10877   4.465   3.693   1.182
  403OcOH   HH110878   4.619   3.839   1.131
  403OcOH   HH210879   4.601   3.711   1.013
  403OcOH   HH310880   4.682   3.679   1.165
  403OcOH    CH10881   4.600   3.733   1.119
  404OcOH    HO10882   4.203   4.962   1.969
  404OcOH    OH10883   4.123   4.917   1.999
  404OcOH   HA110884   4.122   4.757   1.870
  404OcOH   HA210885   4.249   4.755   1.990
  404OcOH    CA10886   4.144   4.779   1.975
  404OcOH   HB110887   4.058   4.591   2.036
  404OcOH   HB210888   3.950   4.726   2.058
  404OcOH    CB10889   4.054   4.695   2.068
  404OcOH   HC110890   4.203   4.673   2.221
  404OcOH   HC210891   4.097   4.810   2.246
  404OcOH    CC10892   4.099   4.706   2.214
  404OcOH   HD110893   4.019   4.517   2.280
  404OcOH   HD210894   3.910   4.652   2.304
  404OcOH    CD10895   4.015   4.622   2.311
  404OcOH   HE110896   4.170   4.614   2.462
  404OcOH   HE210897   4.051   4.738   2.488
  404OcOH    CE10898   4.063   4.634   2.456
  404OcOH   HF110899   3.881   4.552   2.540
  404OcOH   HF210900   4.008   4.579   2.656
  404OcOH    CF10901   3.989   4.543   2.555
  404OcOH   HG110902   4.016   4.358   2.445
  404OcOH   HG210903   4.138   4.387   2.565
  404OcOH    CG10904   4.031   4.395   2.546
  404OcOH   HH110905   3.847   4.308   2.623
  404OcOH   HH210906   3.969   4.336   2.747
  404OcOH   HH310907   3.987   4.202   2.635
  404OcOH    CH10908   3.954   4.306   2.644
  405OcOH    HO10909   3.960   2.107   1.946
  405OcOH    OH10910   3.870   2.107   1.915
  405OcOH   HA110911   3.813   2.208   2.084
  405OcOH   HA210912   3.683   2.130   1.997
  405OcOH    CA10913   3.786   2.118   2.028
  405OcOH   HB110914   3.907   1.976   2.137
  405OcOH   HB210915   3.769   1.905   2.057
  405OcOH    CB10916   3.801   1.992   2.114
  405OcOH   HC110917   3.761   2.084   2.305
  405OcOH   HC210918   3.618   2.025   2.224
  405OcOH    CC10919   3.722   2.001   2.245
  405OcOH   HD110920   3.835   1.842   2.338
  405OcOH   HD210921   3.682   1.791   2.270
  405OcOH    CD10922   3.730   1.871   2.326
  405OcOH   HE110923   3.720   1.954   2.526
  405OcOH   HE210924   3.564   1.925   2.454
  405OcOH    CE10925   3.664   1.883   2.465
  405OcOH   HF110926   3.584   1.683   2.485
  405OcOH   HF210927   3.603   1.767   2.636
  405OcOH    CF10928   3.652   1.749   2.540
  405OcOH   HG110929   3.761   1.579   2.612
  405OcOH   HG210930   3.831   1.648   2.469
  405OcOH    CG10931   3.784   1.674   2.564
  405OcOH   HH110932   3.839   1.777   2.748
  405OcOH   HH210933   3.916   1.843   2.604
  405OcOH   HH310934   3.972   1.691   2.672
  405OcOH    CH10935   3.883   1.751   2.652
  406OcOH    HO10936   0.944   1.227   1.668
  406OcOH    OH10937   0.930   1.310   1.714
  406OcOH   HA110938   0.961   1.468   1.587
  406OcOH   HA210939   0.836   1.356   1.537
  406OcOH    CA10940   0.880   1.406   1.623
  406OcOH   HB110941   0.815   1.526   1.790
  406OcOH   HB210942   0.692   1.422   1.725
  406OcOH    CB10943   0.773   1.488   1.697
  406OcOH   HC110944   0.699   1.573   1.512
  406OcOH   HC210945   0.619   1.632   1.655
  406OcOH    CC10946   0.717   1.605   1.615
  406OcOH   HD110947   0.907   1.703   1.582
  406OcOH   HD210948   0.819   1.761   1.721
  406OcOH    CD10949   0.807   1.729   1.618
  406OcOH   HE110950   0.751   1.814   1.428
  406OcOH   HE210951   0.649   1.866   1.559
  406OcOH    CE10952   0.752   1.845   1.533
  406OcOH   HF110953   0.813   2.039   1.460
  406OcOH   HF210954   0.942   1.950   1.535
  406OcOH    CF10955   0.836   1.974   1.545
  406OcOH   HG110956   0.705   2.079   1.681
  406OcOH   HG210957   0.830   1.987   1.761
  406OcOH    CG10958   0.810   2.051   1.675
  406OcOH   HH110959   0.874   2.231   1.780
  406OcOH   HH210960   0.878   2.246   1.605
  406OcOH   HH310961   1.002   2.153   1.688
  406OcOH    CH10962   0.896   2.177   1.687
  407OcOH    HO10963   3.270   0.665   2.100
  407OcOH    OH10964   3.355   0.680   2.143
  407OcOH   HA110965   3.255   0.678   2.321
  407OcOH   HA210966   3.420   0.738   2.329
  407OcOH    CA10967   3.329   0.739   2.269
  407OcOH   HB110968   3.242   0.918   2.347
  407OcOH   HB210969   3.188   0.881   2.186
  407OcOH    CB10970   3.276   0.882   2.250
  407OcOH   HC110971   3.468   0.980   2.263
  407OcOH   HC210972   3.419   0.943   2.100
  407OcOH    CC10973   3.382   0.979   2.196
  407OcOH   HD110974   3.288   1.156   2.278
  407OcOH   HD210975   3.243   1.121   2.112
  407OcOH    CD10976   3.328   1.122   2.182
  407OcOH   HE110977   3.515   1.225   2.206
  407OcOH   HE210978   3.478   1.184   2.040
  407OcOH    CE10979   3.434   1.221   2.133
  407OcOH   HF110980   3.325   1.397   2.199
  407OcOH   HF210981   3.301   1.355   2.031
  407OcOH    CF10982   3.377   1.362   2.110
  407OcOH   HG110983   3.546   1.423   1.988
  407OcOH   HG210984   3.433   1.551   2.023
  407OcOH    CG10985   3.483   1.465   2.067
  407OcOH   HH110986   3.510   1.563   2.260
  407OcOH   HH210987   3.645   1.585   2.149
  407OcOH   HH310988   3.623   1.432   2.232
  407OcOH    CH10989   3.570   1.514   2.184
  408OcOH    HO10990   3.397   0.047   1.967
  408OcOH    OH10991   3.344   5.103   1.970
  408OcOH   HA110992   3.325   0.001   2.171
  408OcOH   HA210993   3.189   0.051   2.073
  408OcOH    CA10994   3.264   5.109   2.086
  408OcOH   HB110995   3.135   4.946   2.023
  408OcOH   HB210996   3.125   4.985   2.193
  408OcOH    CB10997   3.195   4.974   2.110
  408OcOH   HC110998   3.356   4.841   2.057
  408OcOH   HC210999   3.361   4.896   2.223
  408OcOH    CC11000   3.294   4.861   2.144
  408OcOH   HD111001   3.150   4.702   2.117
  408OcOH   HD211002   3.171   4.752   2.283
  408OcOH    CD11003   3.225   4.732   2.191
  408OcOH   HE111004   3.367   4.587   2.117
  408OcOH   HE211005   3.409   4.655   2.272
  408OcOH    CE11006   3.325   4.618   2.213
  408OcOH   HF111007   3.215   4.530   2.377
  408OcOH   HF211008   3.346   4.432   2.321
  408OcOH    CF11009   3.265   4.496   2.287
  408OcOH   HG111010   3.115   4.343   2.269
  408OcOH   HG211011   3.091   4.476   2.158
  408OcOH    CG11012   3.168   4.412   2.202
  408OcOH   HH111013   3.314   4.264   2.136
  408OcOH   HH211014   3.286   4.393   2.019
  408OcOH   HH311015   3.165   4.267   2.041
  408OcOH    CH11016   3.237   4.330   2.093
  409OcOH    HO11017   2.730   0.223   2.223
  409OcOH    OH11018   2.769   0.279   2.292
  409OcOH   HA111019   2.612   0.385   2.374
  409OcOH   HA211020   2.601   0.210   2.388
  409OcOH    CA11021   2.670   0.294   2.393
  409OcOH   HB111022   2.810   0.381   2.533
  409OcOH   HB211023   2.797   0.207   2.542
  409OcOH    CB11024   2.739   0.298   2.530
  409OcOH   HC111025   2.595   0.411   2.645
  409OcOH   HC211026   2.558   0.240   2.632
  409OcOH    CC11027   2.640   0.311   2.646
  409OcOH   HD111028   2.792   0.350   2.796
  409OcOH   HD211029   2.747   0.183   2.782
  409OcOH    CD11030   2.706   0.285   2.782
  409OcOH   HE111031   2.516   0.247   2.881
  409OcOH   HE211032   2.654   0.244   2.986
  409OcOH    CE11033   2.611   0.298   2.902
  409OcOH   HF111034   2.533   0.496   2.864
  409OcOH   HF211035   2.681   0.495   2.957
  409OcOH    CF11036   2.585   0.444   2.944
  409OcOH   HG111037   2.409   0.405   3.062
  409OcOH   HG211038   2.557   0.399   3.154
  409OcOH    CG11039   2.505   0.454   3.074
  409OcOH   HH111040   2.428   0.602   3.214
  409OcOH   HH211041   2.426   0.655   3.046
  409OcOH   HH311042   2.578   0.650   3.136
  409OcOH    CH11043   2.483   0.599   3.120
  410OcOH    HO11044   2.678   4.940   1.938
  410OcOH    OH11045   2.729   5.006   1.986
  410OcOH   HA111046   2.885   4.875   1.992
  410OcOH   HA211047   2.894   5.007   2.108
  410OcOH    CA11048   2.826   4.936   2.061
  410OcOH   HB111049   2.679   4.789   2.121
  410OcOH   HB211050   2.710   4.912   2.241
  410OcOH    CB11051   2.758   4.848   2.167
  410OcOH   HC111052   2.901   4.687   2.160
  410OcOH   HC211053   2.937   4.809   2.281
  410OcOH    CC11054   2.856   4.752   2.236
  410OcOH   HD111055   2.698   4.621   2.301
  410OcOH   HD211056   2.756   4.728   2.426
  410OcOH    CD11057   2.788   4.665   2.343
  410OcOH   HE111058   2.901   4.484   2.313
  410OcOH   HE211059   2.974   4.592   2.429
  410OcOH    CE11060   2.878   4.552   2.395
  410OcOH   HF111061   2.717   4.433   2.475
  410OcOH   HF211062   2.789   4.542   2.591
  410OcOH    CF11063   2.813   4.473   2.510
  410OcOH   HG111064   2.924   4.289   2.483
  410OcOH   HG211065   2.996   4.399   2.598
  410OcOH    CG11066   2.900   4.359   2.563
  410OcOH   HH111067   2.809   4.351   2.761
  410OcOH   HH211068   2.896   4.205   2.718
  410OcOH   HH311069   2.739   4.238   2.646
  410OcOH    CH11070   2.832   4.284   2.679
  411OcOH    HO11071   1.203   0.100   1.151
  411OcOH    OH11072   1.234   0.015   1.117
  411OcOH   HA111073   1.089   5.130   0.975
  411OcOH   HA211074   1.158   4.980   1.032
  411OcOH    CA11075   1.125   5.079   1.064
  411OcOH   HB111076   0.926   5.021   1.114
  411OcOH   HB211077   0.975   0.029   1.196
  411OcOH    CB11078   1.010   5.067   1.166
  411OcOH   HC111079   0.944   4.958   1.338
  411OcOH   HC211080   1.084   4.886   1.262
  411OcOH    CC11081   1.040   4.982   1.291
  411OcOH   HD111082   1.098   0.020   1.405
  411OcOH   HD211083   1.232   5.056   1.356
  411OcOH    CD11084   1.130   5.052   1.395
  411OcOH   HE111085   1.151   4.878   1.522
  411OcOH   HE211086   1.219   5.025   1.587
  411OcOH    CE11087   1.133   4.985   1.533
  411OcOH   HF111088   0.922   4.959   1.569
  411OcOH   HF211089   0.980   5.116   1.614
  411OcOH    CF11090   1.006   5.010   1.616
  411OcOH   HG111091   0.917   4.960   1.805
  411OcOH   HG211092   1.056   4.861   1.766
  411OcOH    CG11093   1.017   4.964   1.762
  411OcOH   HH111094   1.103   5.022   1.953
  411OcOH   HH211095   1.066   0.022   1.848
  411OcOH   HH311096   1.207   5.058   1.816
  411OcOH    CH11097   1.103   5.056   1.850
  412OcOH    HO11098   4.539   3.941   4.871
  412OcOH    OH11099   4.449   3.975   4.873
  412OcOH   HA111100   4.407   3.899   4.687
  412OcOH   HA211101   4.389   3.787   4.820
  412OcOH    CA11102   4.372   3.890   4.790
  412OcOH   HB111103   4.207   4.028   4.770
  412OcOH   HB211104   4.190   3.916   4.903
  412OcOH    CB11105   4.223   3.924   4.799
  412OcOH   HC111106   4.169   3.846   4.606
  412OcOH   HC211107   4.159   3.728   4.734
  412OcOH    CC11108   4.138   3.833   4.710
  412OcOH   HD111109   3.966   3.962   4.700
  412OcOH   HD211110   3.956   3.841   4.825
  412OcOH    CD11111   3.987   3.858   4.722
  412OcOH   HE111112   3.940   3.782   4.526
  412OcOH   HE211113   3.925   3.663   4.652
  412OcOH    CE11114   3.905   3.767   4.628
  412OcOH   HF111115   3.733   3.896   4.604
  412OcOH   HF211116   3.722   3.787   4.740
  412OcOH    CF11117   3.754   3.794   4.636
  412OcOH   HG111118   3.685   3.594   4.589
  412OcOH   HG211119   3.564   3.717   4.570
  412OcOH    CG11120   3.669   3.695   4.553
  412OcOH   HH111121   3.797   3.667   4.378
  412OcOH   HH211122   3.685   3.803   4.364
  412OcOH   HH311123   3.626   3.638   4.348
  412OcOH    CH11124   3.696   3.702   4.402
  413OcOH    HO11125   3.645   0.600   3.665
  413OcOH    OH11126   3.593   0.645   3.597
  413OcOH   HA111127   3.699   0.509   3.485
  413OcOH   HA211128   3.569   0.590   3.400
  413OcOH    CA11129   3.649   0.605   3.473
  413OcOH   HB111130   3.692   0.805   3.407
  413OcOH   HB211131   3.778   0.681   3.323
  413OcOH    CB11132   3.746   0.711   3.422
  413OcOH   HC111133   3.838   0.770   3.609
  413OcOH   HC211134   3.919   0.638   3.529
  413OcOH    CC11135   3.869   0.733   3.511
  413OcOH   HD111136   3.914   0.924   3.423
  413OcOH   HD211137   3.996   0.790   3.348
  413OcOH    CD11138   3.967   0.831   3.445
  413OcOH   HE111139   4.145   0.767   3.550
  413OcOH   HE211140   4.163   0.913   3.456
  413OcOH    CE11141   4.095   0.861   3.523
  413OcOH   HF111142   4.014   0.895   3.720
  413OcOH   HF211143   4.021   1.039   3.620
  413OcOH    CF11144   4.075   0.949   3.647
  413OcOH   HG111145   4.258   0.896   3.747
  413OcOH   HG211146   4.275   1.031   3.637
  413OcOH    CG11147   4.209   0.987   3.712
  413OcOH   HH111148   4.290   1.110   3.872
  413OcOH   HH211149   4.132   1.043   3.908
  413OcOH   HH311150   4.147   1.178   3.795
  413OcOH    CH11151   4.193   1.085   3.828
  414OcOH    HO11152   0.090   1.654   4.195
  414OcOH    OH11153   0.006   1.610   4.187
  414OcOH   HA111154   0.016   1.552   4.383
  414OcOH   HA211155   5.060   1.699   4.352
  414OcOH    CA11156   5.083   1.599   4.314
  414OcOH   HB111157   4.980   1.418   4.260
  414OcOH   HB211158   4.887   1.563   4.232
  414OcOH    CB11159   4.955   1.516   4.302
  414OcOH   HC111160   4.951   1.455   4.511
  414OcOH   HC211161   4.854   1.595   4.474
  414OcOH    CC11162   4.883   1.497   4.437
  414OcOH   HD111163   4.692   1.446   4.347
  414OcOH   HD211164   4.699   1.421   4.519
  414OcOH    CD11165   4.756   1.410   4.427
  414OcOH   HE111166   4.841   1.246   4.312
  414OcOH   HE211167   4.854   1.226   4.485
  414OcOH    CE11168   4.787   1.260   4.406
  414OcOH   HF111169   4.594   1.204   4.323
  414OcOH   HF211170   4.604   1.192   4.496
  414OcOH    CF11171   4.660   1.174   4.405
  414OcOH   HG111172   4.763   0.994   4.470
  414OcOH   HG211173   4.598   0.968   4.421
  414OcOH    CG11174   4.689   1.023   4.395
  414OcOH   HH111175   4.660   1.001   4.181
  414OcOH   HH211176   4.753   0.870   4.254
  414OcOH   HH311177   4.828   1.027   4.226
  414OcOH    CH11178   4.735   0.978   4.256
  415OcOH    HO11179   4.962   0.112   2.256
  415OcOH    OH11180   4.941   0.204   2.262
  415OcOH   HA111181   4.882   0.192   2.459
  415OcOH   HA211182   4.812   0.324   2.366
  415OcOH    CA11183   4.841   0.220   2.361
  415OcOH   HB111184   4.751   0.025   2.329
  415OcOH   HB211185   4.697   0.149   2.219
  415OcOH    CB11186   4.722   0.130   2.324
  415OcOH   HC111187   4.567   0.260   2.401
  415OcOH   HC211188   4.514   0.099   2.363
  415OcOH    CC11189   4.596   0.155   2.408
  415OcOH   HD111190   4.679   0.181   2.606
  415OcOH   HD211191   4.654   0.014   2.562
  415OcOH    CD11192   4.610   0.113   2.555
  415OcOH   HE111193   4.423   0.209   2.607
  415OcOH   HE211194   4.411   0.036   2.583
  415OcOH    CE11195   4.474   0.114   2.626
  415OcOH   HF111196   4.540   0.176   2.822
  415OcOH   HF211197   4.543   0.003   2.799
  415OcOH    CF11198   4.485   0.093   2.778
  415OcOH   HG111199   4.286   0.168   2.816
  415OcOH   HG211200   4.295   5.131   2.802
  415OcOH    CG11201   4.346   0.082   2.843
  415OcOH   HH111202   4.250   0.071   3.037
  415OcOH   HH211203   4.398   5.113   3.026
  415OcOH   HH311204   4.406   0.153   3.040
  415OcOH    CH11205   4.351   0.070   2.995
  416OcOH    HO11206   3.529   0.352   1.670
  416OcOH    OH11207   3.585   0.320   1.598
  416OcOH   HA111208   3.420   0.198   1.587
  416OcOH   HA211209   3.507   0.222   1.437
  416OcOH    CA11210   3.520   0.207   1.544
  416OcOH   HB111211   3.605   0.068   1.683
  416OcOH   HB211212   3.707   0.097   1.545
  416OcOH    CB11213   3.604   0.082   1.575
  416OcOH   HC111214   3.598   5.005   1.557
  416OcOH   HC211215   3.443   5.080   1.531
  416OcOH    CC11216   3.549   5.090   1.509
  416OcOH   HD111217   3.680   5.092   1.336
  416OcOH   HD211218   3.526   0.033   1.309
  416OcOH    CD11219   3.573   5.083   1.357
  416OcOH   HE111220   3.412   4.946   1.315
  416OcOH   HE211221   3.523   4.969   1.183
  416OcOH    CE11222   3.518   4.956   1.291
  416OcOH   HF111223   3.581   4.806   1.435
  416OcOH   HF211224   3.701   4.844   1.315
  416OcOH    CF11225   3.594   4.828   1.329
  416OcOH   HG111226   3.563   4.725   1.141
  416OcOH   HG211227   3.621   4.623   1.269
  416OcOH    CG11228   3.552   4.704   1.247
  416OcOH   HH111229   3.396   4.634   1.382
  416OcOH   HH211230   3.387   4.565   1.221
  416OcOH   HH311231   3.335   4.731   1.248
  416OcOH    CH11232   3.409   4.656   1.276
  417OcOH    HO11233   3.253   2.612   0.617
  417OcOH    OH11234   3.182   2.676   0.609
  417OcOH   HA111235   3.263   2.779   0.449
  417OcOH   HA211236   3.192   2.623   0.413
  417OcOH    CA11237   3.179   2.714   0.472
  417OcOH   HB111238   2.964   2.716   0.471
  417OcOH   HB211239   3.035   2.784   0.328
  417OcOH    CB11240   3.045   2.780   0.437
  417OcOH   HC111241   3.043   2.922   0.600
  417OcOH   HC211242   3.102   2.988   0.450
  417OcOH    CC11243   3.026   2.922   0.493
  417OcOH   HD111244   2.812   2.915   0.513
  417OcOH   HD211245   2.864   2.966   0.355
  417OcOH    CD11246   2.886   2.976   0.462
  417OcOH   HE111247   2.898   3.137   0.605
  417OcOH   HE211248   2.927   3.187   0.440
  417OcOH    CE11249   2.865   3.123   0.502
  417OcOH   HF111250   2.658   3.108   0.561
  417OcOH   HF211251   2.680   3.141   0.392
  417OcOH    CF11252   2.718   3.166   0.491
  417OcOH   HG111253   2.735   3.341   0.616
  417OcOH   HG211254   2.756   3.374   0.446
  417OcOH    CG11255   2.697   3.316   0.517
  417OcOH   HH111256   2.539   3.465   0.524
  417OcOH   HH211257   2.489   3.306   0.580
  417OcOH   HH311258   2.510   3.336   0.407
  417OcOH    CH11259   2.550   3.358   0.506
  418OcOH    HO11260   4.429   4.152   4.867
  418OcOH    OH11261   4.423   4.248   4.877
  418OcOH   HA111262   4.294   4.245   5.037
  418OcOH   HA211263   4.460   4.203   5.073
  418OcOH    CA11264   4.398   4.271   5.014
  418OcOH   HB111265   4.364   4.483   4.994
  418OcOH   HB211266   4.530   4.441   5.024
  418OcOH    CB11267   4.428   4.417   5.052
  418OcOH   HC111268   4.304   4.419   0.090
  418OcOH   HC211269   4.469   4.374   0.124
  418OcOH    CC11270   4.407   4.443   0.066
  418OcOH   HD111271   4.393   4.602   0.209
  418OcOH   HD211272   4.384   4.657   0.044
  418OcOH    CD11273   4.436   4.587   0.110
  418OcOH   HE111274   4.637   4.550   0.179
  418OcOH   HE211275   4.630   4.615   0.016
  418OcOH    CE11276   4.586   4.623   0.116
  418OcOH   HF111277   4.564   4.771   0.271
  418OcOH   HF211278   4.558   4.837   0.108
  418OcOH    CF11279   4.609   4.764   0.171
  418OcOH   HG111280   4.810   4.729   0.245
  418OcOH   HG211281   4.804   4.793   0.082
  418OcOH    CG11282   4.758   4.801   0.181
  418OcOH   HH111283   4.734   4.954   0.334
  418OcOH   HH211284   4.735   5.018   0.170
  418OcOH   HH311285   4.885   4.965   0.245
  418OcOH    CH11286   4.779   4.943   0.236
  419OcOH    HO11287   0.691   1.792   4.001
  419OcOH    OH11288   0.692   1.699   4.021
  419OcOH   HA111289   0.807   1.657   3.857
  419OcOH   HA211290   0.895   1.711   3.998
  419OcOH    CA11291   0.812   1.648   3.965
  419OcOH   HB111292   0.755   1.439   3.970
  419OcOH   HB211293   0.837   1.495   4.115
  419OcOH    CB11294   0.837   1.502   4.006
  419OcOH   HC111295   0.970   1.457   3.842
  419OcOH   HC211296   1.050   1.518   3.984
  419OcOH    CC11297   0.971   1.451   3.951
  419OcOH   HD111298   0.931   1.238   3.957
  419OcOH   HD211299   0.996   1.303   4.105
  419OcOH    CD11300   1.004   1.308   3.996
  419OcOH   HE111301   1.218   1.340   3.988
  419OcOH   HE211302   1.171   1.174   4.014
  419OcOH    CE11303   1.147   1.264   3.957
  419OcOH   HF111304   1.131   1.321   3.749
  419OcOH   HF211305   1.099   1.152   3.777
  419OcOH    CF11306   1.164   1.234   3.807
  419OcOH   HG111307   1.315   1.199   3.658
  419OcOH   HG211308   1.374   1.284   3.798
  419OcOH    CG11309   1.309   1.202   3.766
  419OcOH   HH111310   1.365   1.072   3.932
  419OcOH   HH211311   1.463   1.051   3.787
  419OcOH   HH311312   1.299   0.986   3.793
  419OcOH    CH11313   1.361   1.070   3.823
  420OcOH    HO11314   2.913   0.374   0.686
  420OcOH    OH11315   2.979   0.304   0.692
  420OcOH   HA111316   3.012   0.346   0.890
  420OcOH   HA211317   3.141   0.259   0.810
  420OcOH    CA11318   3.068   0.338   0.796
  420OcOH   HB111319   3.200   0.499   0.851
  420OcOH   HB211320   3.063   0.551   0.757
  420OcOH    CB11321   3.138   0.472   0.766
  420OcOH   HC111322   3.298   0.390   0.645
  420OcOH   HC211323   3.162   0.446   0.552
  420OcOH    CC11324   3.224   0.470   0.638
  420OcOH   HD111325   3.357   0.628   0.702
  420OcOH   HD211326   3.218   0.683   0.611
  420OcOH    CD11327   3.294   0.605   0.616
  420OcOH   HE111328   3.451   0.526   0.492
  420OcOH   HE211329   3.317   0.590   0.400
  420OcOH    CE11330   3.379   0.608   0.488
  420OcOH   HF111331   3.531   0.727   0.392
  420OcOH   HF211332   3.514   0.761   0.561
  420OcOH    CF11333   3.457   0.740   0.470
  420OcOH   HG111334   3.304   0.836   0.350
  420OcOH   HG211335   3.300   0.881   0.519
  420OcOH    CG11336   3.367   0.860   0.436
  420OcOH   HH111337   3.512   1.015   0.486
  420OcOH   HH211338   3.380   1.071   0.385
  420OcOH   HH311339   3.509   0.974   0.315
  420OcOH    CH11340   3.447   0.987   0.404
  421OcOH    HO11341   4.312   0.439   1.658
  421OcOH    OH11342   4.368   0.485   1.722
  421OcOH   HA111343   4.449   0.616   1.584
  421OcOH   HA211344   4.294   0.664   1.652
  421OcOH    CA11345   4.389   0.617   1.676
  421OcOH   HB111346   4.556   0.647   1.809
  421OcOH   HB211347   4.399   0.690   1.877
  421OcOH    CB11348   4.460   0.695   1.787
  421OcOH   HC111349   4.551   0.852   1.670
  421OcOH   HC211350   4.393   0.893   1.732
  421OcOH    CC11351   4.487   0.843   1.757
  421OcOH   HD111352   4.651   0.869   1.896
  421OcOH   HD211353   4.494   0.896   1.966
  421OcOH    CD11354   4.553   0.914   1.876
  421OcOH   HE111355   4.475   1.109   1.827
  421OcOH   HE211356   4.592   1.109   1.956
  421OcOH    CE11357   4.570   1.066   1.859
  421OcOH   HF111358   4.660   1.066   1.662
  421OcOH   HF211359   4.775   1.060   1.793
  421OcOH    CF11360   4.681   1.106   1.761
  421OcOH   HG111361   4.605   1.303   1.720
  421OcOH   HG211362   4.719   1.298   1.852
  421OcOH    CG11363   4.699   1.258   1.753
  421OcOH   HH111364   4.816   1.409   1.650
  421OcOH   HH211365   4.794   1.262   1.557
  421OcOH   HH311366   4.908   1.265   1.692
  421OcOH    CH11367   4.811   1.301   1.657
  422OcOH    HO11368   4.142   2.842   4.007
  422OcOH    OH11369   4.214   2.906   4.009
  422OcOH   HA111370   4.293   3.037   4.145
  422OcOH   HA211371   4.123   3.062   4.107
  422OcOH    CA11372   4.199   2.986   4.124
  422OcOH   HB111373   4.226   2.812   4.250
  422OcOH   HB211374   4.060   2.855   4.223
  422OcOH    CB11375   4.158   2.897   4.242
  422OcOH   HC111376   4.254   3.009   4.400
  422OcOH   HC211377   4.088   3.057   4.370
  422OcOH    CC11378   4.154   2.970   4.377
  422OcOH   HD111379   4.171   2.790   4.494
  422OcOH   HD211380   4.006   2.841   4.466
  422OcOH    CD11381   4.106   2.878   4.489
  422OcOH   HE111382   4.205   2.979   4.652
  422OcOH   HE211383   4.043   3.036   4.621
  422OcOH    CE11384   4.104   2.946   4.627
  422OcOH   HF111385   4.109   2.760   4.735
  422OcOH   HF211386   3.948   2.824   4.714
  422OcOH    CF11387   4.051   2.853   4.736
  422OcOH   HG111388   4.040   2.834   4.950
  422OcOH   HG211389   4.161   2.947   4.897
  422OcOH    CG11390   4.059   2.913   4.877
  422OcOH   HH111391   3.857   2.994   4.884
  422OcOH   HH211392   3.979   3.112   4.835
  422OcOH   HH311393   3.966   3.063   5.003
  422OcOH    CH11394   3.959   3.027   4.901
  423OcOH    HO11395   2.837   4.442   4.673
  423OcOH    OH11396   2.836   4.375   4.605
  423OcOH   HA111397   2.926   4.194   4.567
  423OcOH   HA211398   3.025   4.310   4.655
  423OcOH    CA11399   2.923   4.271   4.645
  423OcOH   HB111400   2.771   4.179   4.767
  423OcOH   HB211401   2.874   4.291   4.854
  423OcOH    CB11402   2.874   4.212   4.778
  423OcOH   HC111403   2.957   4.015   4.751
  423OcOH   HC211404   3.064   4.127   4.833
  423OcOH    CC11405   2.960   4.095   4.826
  423OcOH   HD111406   2.809   4.011   4.954
  423OcOH   HD211407   2.920   4.118   5.036
  423OcOH    CD11408   2.914   4.039   4.961
  423OcOH   HE111409   2.983   3.835   4.937
  423OcOH   HE211410   3.103   3.943   5.003
  423OcOH    CE11411   2.997   3.918   5.007
  423OcOH   HF111412   2.858   3.835   0.015
  423OcOH   HF211413   2.965   3.957   0.080
  423OcOH    CF11414   2.961   3.872   0.012
  423OcOH   HG111415   3.051   3.676   5.132
  423OcOH   HG211416   3.157   3.798   0.063
  423OcOH    CG11417   3.055   3.761   0.063
  423OcOH   HH111418   2.918   3.675   0.209
  423OcOH   HH211419   3.027   3.796   0.277
  423OcOH   HH311420   3.087   3.635   0.237
  423OcOH    CH11421   3.020   3.714   0.205
  424OcOH    HO11422   4.165   4.226   0.510
  424OcOH    OH11423   4.115   4.158   0.463
  424OcOH   HA111424   4.013   4.162   0.286
  424OcOH   HA211425   4.100   4.309   0.327
  424OcOH    CA11426   4.106   4.200   0.329
  424OcOH   HB111427   4.319   4.187   0.288
  424OcOH   HB211428   4.219   4.197   0.146
  424OcOH    CB11429   4.226   4.151   0.245
  424OcOH   HC111430   4.238   3.952   0.327
  424OcOH   HC211431   4.135   3.965   0.186
  424OcOH    CC11432   4.229   3.999   0.229
  424OcOH   HD111433   4.440   3.979   0.182
  424OcOH   HD211434   4.338   3.998   0.041
  424OcOH    CD11435   4.344   3.949   0.139
  424OcOH   HE111436   4.342   3.748   0.217
  424OcOH   HE211437   4.246   3.770   0.073
  424OcOH    CE11438   4.341   3.797   0.120
  424OcOH   HF111439   4.552   3.774   0.082
  424OcOH   HF211440   4.457   3.794   5.074
  424OcOH    CF11441   4.458   3.745   0.035
  424OcOH   HG111442   4.552   3.563   5.106
  424OcOH   HG211443   4.456   3.543   0.113
  424OcOH    CG11444   4.457   3.592   0.016
  424OcOH   HH111445   4.351   3.434   5.048
  424OcOH   HH211446   4.340   3.590   4.968
  424OcOH   HH311447   4.245   3.558   5.113
  424OcOH    CH11448   4.342   3.541   5.066
  425OcOH    HO11449   5.002   3.487   1.793
  425OcOH    OH11450   4.980   3.393   1.797
  425OcOH   HA111451   4.787   3.444   1.752
  425OcOH   HA211452   4.885   3.394   1.615
  425OcOH    CA11453   4.864   3.373   1.720
  425OcOH   HB111454   4.803   3.208   1.845
  425OcOH   HB211455   4.889   3.158   1.702
  425OcOH    CB11456   4.814   3.228   1.738
  425OcOH   HC111457   4.611   3.281   1.691
  425OcOH   HC211458   4.695   3.204   1.560
  425OcOH    CC11459   4.681   3.201   1.667
  425OcOH   HD111460   4.608   3.063   1.817
  425OcOH   HD211461   4.686   2.986   1.681
  425OcOH    CD11462   4.619   3.067   1.708
  425OcOH   HE111463   4.417   3.129   1.660
  425OcOH   HE211464   4.492   3.034   1.536
  425OcOH    CE11465   4.481   3.042   1.644
  425OcOH   HF111466   4.395   2.929   1.806
  425OcOH   HF211467   4.478   2.831   1.687
  425OcOH    CF11468   4.412   2.917   1.698
  425OcOH   HG111469   4.212   2.975   1.638
  425OcOH   HG211470   4.295   2.874   1.522
  425OcOH    CG11471   4.278   2.889   1.629
  425OcOH   HH111472   4.186   2.776   1.791
  425OcOH   HH211473   4.269   2.676   1.671
  425OcOH   HH311474   4.113   2.748   1.632
  425OcOH    CH11475   4.207   2.765   1.684
  426OcOH    HO11476   3.944   2.760   3.936
  426OcOH    OH11477   4.012   2.724   3.994
  426OcOH   HA111478   4.016   2.611   4.165
  426OcOH   HA211479   3.862   2.686   4.127
  426OcOH    CA11480   3.948   2.635   4.083
  426OcOH   HB111481   3.994   2.454   3.975
  426OcOH   HB211482   3.848   2.534   3.921
  426OcOH    CB11483   3.905   2.508   4.010
  426OcOH   HC111484   3.876   2.397   4.192
  426OcOH   HC211485   3.731   2.472   4.130
  426OcOH    CC11486   3.821   2.418   4.100
  426OcOH   HD111487   3.869   2.228   4.009
  426OcOH   HD211488   3.727   2.305   3.942
  426OcOH    CD11489   3.779   2.285   4.035
  426OcOH   HE111490   3.742   2.190   4.224
  426OcOH   HE211491   3.599   2.257   4.152
  426OcOH    CE11492   3.690   2.202   4.129
  426OcOH   HF111493   3.610   2.005   4.159
  426OcOH   HF211494   3.746   2.008   4.049
  426OcOH    CF11495   3.655   2.062   4.077
  426OcOH   HG111496   3.469   2.123   3.985
  426OcOH   HG211497   3.602   2.114   3.873
  426OcOH    CG11498   3.556   2.064   3.959
  426OcOH   HH111499   3.442   1.927   3.835
  426OcOH   HH211500   3.461   1.873   4.001
  426OcOH   HH311501   3.596   1.861   3.889
  426OcOH    CH11502   3.512   1.923   3.918
  427OcOH    HO11503   3.030   3.433   5.074
  427OcOH    OH11504   3.109   3.384   5.102
  427OcOH   HA111505   3.013   3.267   0.104
  427OcOH   HA211506   2.989   3.224   5.072
  427OcOH    CA11507   3.063   3.258   0.007
  427OcOH   HB111508   3.250   3.186   0.091
  427OcOH   HB211509   3.233   3.159   5.056
  427OcOH    CB11510   3.179   3.157   0.014
  427OcOH   HC111511   3.091   3.006   0.143
  427OcOH   HC211512   3.043   2.994   5.112
  427OcOH    CC11513   3.128   3.014   0.040
  427OcOH   HD111514   3.321   2.922   0.081
  427OcOH   HD211515   3.273   2.918   5.049
  427OcOH    CD11516   3.236   2.907   0.014
  427OcOH   HE111517   3.156   2.748   0.137
  427OcOH   HE211518   3.090   2.752   5.112
  427OcOH    CE11519   3.182   2.764   0.032
  427OcOH   HF111520   3.377   2.668   0.042
  427OcOH   HF211521   3.307   2.675   5.019
  427OcOH    CF11522   3.283   2.657   5.123
  427OcOH   HG111523   3.133   2.504   5.090
  427OcOH   HG211524   3.297   2.447   5.082
  427OcOH    CG11525   3.231   2.513   0.001
  427OcOH   HH111526   3.196   2.358   0.149
  427OcOH   HH211527   3.150   2.519   0.204
  427OcOH   HH311528   3.320   2.473   0.196
  427OcOH    CH11529   3.224   2.464   0.146
  428OcOH    HO11530   2.661   3.660   2.877
  428OcOH    OH11531   2.675   3.613   2.793
  428OcOH   HA111532   2.765   3.649   2.613
  428OcOH   HA211533   2.664   3.780   2.675
  428OcOH    CA11534   2.737   3.703   2.704
  428OcOH   HB111535   2.930   3.690   2.800
  428OcOH   HB211536   2.833   3.825   2.854
  428OcOH    CB11537   2.861   3.768   2.766
  428OcOH   HC111538   2.863   3.933   2.628
  428OcOH   HC211539   2.967   3.801   2.581
  428OcOH    CC11540   2.934   3.860   2.667
  428OcOH   HD111541   3.125   3.863   2.767
  428OcOH   HD211542   3.021   3.996   2.810
  428OcOH    CD11543   3.054   3.935   2.726
  428OcOH   HE111544   3.160   3.961   2.540
  428OcOH   HE211545   3.050   4.091   2.577
  428OcOH    CE11546   3.123   4.024   2.621
  428OcOH   HF111547   3.315   4.039   2.719
  428OcOH   HF211548   3.204   4.166   2.763
  428OcOH    CF11549   3.239   4.106   2.679
  428OcOH   HG111550   3.333   4.142   2.487
  428OcOH   HG211551   3.228   4.271   2.540
  428OcOH    CG11552   3.303   4.199   2.574
  428OcOH   HH111553   3.504   4.207   2.657
  428OcOH   HH211554   3.398   4.333   2.718
  428OcOH   HH311555   3.463   4.345   2.555
  428OcOH    CH11556   3.424   4.276   2.629
  429OcOH    HO11557   4.493   0.398   1.838
  429OcOH    OH11558   4.566   0.349   1.878
  429OcOH   HA111559   4.468   0.310   2.055
  429OcOH   HA211560   4.644   0.307   2.062
  429OcOH    CA11561   4.559   0.359   2.019
  429OcOH   HB111562   4.468   0.553   2.031
  429OcOH   HB211563   4.641   0.556   2.005
  429OcOH    CB11564   4.561   0.506   2.061
  429OcOH   HC111565   4.503   0.481   2.266
  429OcOH   HC211566   4.676   0.481   2.243
  429OcOH    CC11567   4.583   0.529   2.211
  429OcOH   HD111568   4.582   0.688   2.357
  429OcOH   HD211569   4.498   0.728   2.210
  429OcOH    CD11570   4.587   0.679   2.248
  429OcOH   HE111571   4.802   0.704   2.239
  429OcOH   HE211572   4.720   0.743   2.090
  429OcOH    CE11573   4.713   0.752   2.198
  429OcOH   HF111574   4.713   0.912   2.342
  429OcOH   HF211575   4.623   0.948   2.197
  429OcOH    CF11576   4.714   0.901   2.234
  429OcOH   HG111577   4.928   0.933   2.219
  429OcOH   HG211578   4.842   0.957   2.068
  429OcOH    CG11579   4.836   0.975   2.176
  429OcOH   HH111580   4.747   1.172   2.153
  429OcOH   HH211581   4.922   1.174   2.164
  429OcOH   HH311582   4.825   1.148   2.308
  429OcOH    CH11583   4.832   1.126   2.202
  430OcOH    HO11584   1.766   4.265   0.302
  430OcOH    OH11585   1.720   4.209   0.239
  430OcOH   HA111586   1.737   4.016   0.171
  430OcOH   HA211587   1.872   4.075   0.265
  430OcOH    CA11588   1.763   4.076   0.258
  430OcOH   HB111589   1.723   4.082   0.471
  430OcOH   HB211590   1.751   3.922   0.407
  430OcOH    CB11591   1.701   4.017   0.386
  430OcOH   HC111592   1.498   4.086   0.356
  430OcOH   HC211593   1.529   3.927   0.291
  430OcOH    CC11594   1.550   3.992   0.376
  430OcOH   HD111595   1.556   3.844   0.532
  430OcOH   HD211596   1.501   4.000   0.586
  430OcOH    CD11597   1.493   3.928   0.504
  430OcOH   HE111598   1.284   3.962   0.462
  430OcOH   HE211599   1.343   3.807   0.409
  430OcOH    CE11600   1.349   3.879   0.490
  430OcOH   HF111601   1.300   3.886   0.701
  430OcOH   HF211602   1.366   3.733   0.649
  430OcOH    CF11603   1.298   3.813   0.620
  430OcOH   HG111604   1.088   3.834   0.573
  430OcOH   HG211605   1.154   3.679   0.529
  430OcOH    CG11606   1.156   3.756   0.606
  430OcOH   HH111607   1.098   3.773   0.816
  430OcOH   HH211608   1.169   3.617   0.774
  430OcOH   HH311609   1.004   3.654   0.724
  430OcOH    CH11610   1.104   3.697   0.738
  431OcOH    HO11611   4.901   1.689   2.492
  431OcOH    OH11612   4.861   1.601   2.497
  431OcOH   HA111613   4.978   1.582   2.664
  431OcOH   HA211614   4.808   1.613   2.694
  431OcOH    CA11615   4.877   1.557   2.630
  431OcOH   HB111616   4.753   1.383   2.601
  431OcOH   HB211617   4.848   1.379   2.747
  431OcOH    CB11618   4.851   1.406   2.641
  431OcOH   HC111619   4.959   1.343   2.464
  431OcOH   HC211620   5.057   1.349   2.609
  431OcOH    CC11621   4.958   1.321   2.571
  431OcOH   HD111622   4.839   1.142   2.553
  431OcOH   HD211623   4.933   1.149   2.700
  431OcOH    CD11624   4.937   1.170   2.593
  431OcOH   HE111625   5.049   1.104   2.420
  431OcOH   HE211626   0.007   1.113   2.566
  431OcOH    CE11627   5.046   1.084   2.527
  431OcOH   HF111628   4.926   0.905   2.513
  431OcOH   HF211629   5.022   0.914   2.658
  431OcOH    CF11630   5.024   0.934   2.551
  431OcOH   HG111631   5.134   0.865   2.378
  431OcOH   HG211632   0.094   0.876   2.523
  431OcOH    CG11633   5.132   0.847   2.486
  431OcOH   HH111634   5.113   0.675   2.618
  431OcOH   HH211635   0.054   0.638   2.464
  431OcOH   HH311636   5.016   0.663   2.471
  431OcOH    CH11637   5.112   0.697   2.511
  432OcOH    HO11638   0.850   1.785   0.610
  432OcOH    OH11639   0.844   1.881   0.604
  432OcOH   HA111640   0.645   1.854   0.572
  432OcOH   HA211641   0.704   2.015   0.533
  432OcOH    CA11642   0.728   1.908   0.528
  432OcOH   HB111643   0.795   1.764   0.383
  432OcOH   HB211644   0.825   1.929   0.336
  432OcOH    CB11645   0.752   1.864   0.383
  432OcOH   HC111646   0.551   1.795   0.351
  432OcOH   HC211647   0.577   1.960   0.298
  432OcOH    CC11648   0.623   1.860   0.301
  432OcOH   HD111649   0.706   1.718   0.163
  432OcOH   HD211650   0.704   1.882   0.102
  432OcOH    CD11651   0.646   1.809   0.158
  432OcOH   HE111652   0.457   1.704   0.141
  432OcOH   HE211653   0.452   1.869   0.085
  432OcOH    CE11654   0.514   1.779   0.085
  432OcOH   HF111655   0.579   1.810   5.017
  432OcOH   HF211656   0.433   1.717   5.034
  432OcOH    CF11657   0.532   1.731   5.077
  432OcOH   HG111658   0.715   1.617   5.091
  432OcOH   HG211659   0.571   1.527   5.133
  432OcOH    CG11660   0.611   1.600   5.063
  432OcOH   HH111661   0.643   1.615   4.848
  432OcOH   HH211662   0.504   1.517   4.893
  432OcOH   HH311663   0.666   1.453   4.913
  432OcOH    CH11664   0.606   1.543   4.921
  433OcOH    HO11665   3.583   4.812   3.274
  433OcOH    OH11666   3.618   4.810   3.364
  433OcOH   HA111667   3.542   4.623   3.406
  433OcOH   HA211668   3.583   4.722   3.544
  433OcOH    CA11669   3.539   4.725   3.445
  433OcOH   HB111670   3.395   4.881   3.485
  433OcOH   HB211671   3.344   4.721   3.532
  433OcOH    CB11672   3.395   4.777   3.454
  433OcOH   HC111673   3.367   4.817   3.244
  433OcOH   HC211674   3.321   4.656   3.291
  433OcOH    CC11675   3.317   4.760   3.322
  433OcOH   HD111676   3.170   4.912   3.357
  433OcOH   HD211677   3.122   4.755   3.415
  433OcOH    CD11678   3.171   4.806   3.333
  433OcOH   HE111679   3.150   4.822   3.119
  433OcOH   HE211680   3.086   4.674   3.185
  433OcOH    CE11681   3.094   4.781   3.203
  433OcOH   HF111682   2.962   4.951   3.225
  433OcOH   HF211683   2.894   4.802   3.284
  433OcOH    CF11684   2.954   4.844   3.204
  433OcOH   HG111685   2.946   4.864   2.989
  433OcOH   HG211686   2.866   4.720   3.049
  433OcOH    CG11687   2.882   4.826   3.069
  433OcOH   HH111688   2.677   4.860   3.136
  433OcOH   HH211689   2.704   4.893   2.965
  433OcOH   HH311690   2.761   5.007   3.086
  433OcOH    CH11691   2.748   4.901   3.064
  434OcOH    HO11692   0.989   3.743   2.080
  434OcOH    OH11693   0.980   3.670   2.141
  434OcOH   HA111694   1.120   3.587   2.018
  434OcOH   HA211695   1.179   3.638   2.175
  434OcOH    CA11696   1.096   3.591   2.124
  434OcOH   HB111697   0.987   3.404   2.125
  434OcOH   HB211698   1.039   3.458   2.283
  434OcOH    CB11699   1.070   3.450   2.179
  434OcOH   HC111700   1.279   3.408   2.217
  434OcOH   HC211701   1.174   3.270   2.230
  434OcOH    CC11702   1.194   3.358   2.170
  434OcOH   HD111703   1.243   3.400   1.963
  434OcOH   HD211704   1.146   3.256   1.986
  434OcOH    CD11705   1.230   3.313   2.028
  434OcOH   HE111706   1.440   3.286   2.066
  434OcOH   HE211707   1.345   3.141   2.089
  434OcOH    CE11708   1.357   3.228   2.024
  434OcOH   HF111709   1.408   3.268   1.818
  434OcOH   HF211710   1.313   3.123   1.841
  434OcOH    CF11711   1.395   3.181   1.883
  434OcOH   HG111712   1.605   3.157   1.925
  434OcOH   HG211713   1.511   3.012   1.949
  434OcOH    CG11714   1.524   3.098   1.883
  434OcOH   HH111715   1.656   2.987   1.751
  434OcOH   HH211716   1.587   3.131   1.677
  434OcOH   HH311717   1.488   2.986   1.699
  434OcOH    CH11718   1.565   3.048   1.744
  435OcOH    HO11719   4.262   1.888   0.039
  435OcOH    OH11720   4.171   1.918   0.038
  435OcOH   HA111721   4.168   1.880   4.973
  435OcOH   HA211722   4.101   1.754   5.075
  435OcOH    CA11723   4.108   1.862   5.062
  435OcOH   HB111724   3.977   2.032   5.036
  435OcOH   HB211725   3.909   1.905   5.134
  435OcOH    CB11726   3.968   1.924   5.045
  435OcOH   HC111727   3.954   1.889   4.832
  435OcOH   HC211728   3.891   1.759   4.929
  435OcOH    CC11729   3.896   1.868   4.922
  435OcOH   HD111730   3.758   2.031   4.883
  435OcOH   HD211731   3.701   1.916   5.001
  435OcOH    CD11732   3.753   1.924   4.905
  435OcOH   HE111733   3.653   1.748   4.832
  435OcOH   HE211734   3.570   1.896   4.795
  435OcOH    CE11735   3.669   1.851   4.799
  435OcOH   HF111736   3.665   1.787   4.593
  435OcOH   HF211737   3.826   1.795   4.659
  435OcOH    CF11738   3.730   1.847   4.657
  435OcOH   HG111739   3.652   2.038   4.589
  435OcOH   HG211740   3.814   2.047   4.656
  435OcOH    CG11741   3.748   1.986   4.594
  435OcOH   HH111742   3.744   1.924   4.385
  435OcOH   HH211743   3.905   1.928   4.456
  435OcOH   HH311744   3.825   2.077   4.412
  435OcOH    CH11745   3.809   1.978   4.453
  436OcOH    HO11746   4.825   0.518   3.351
  436OcOH    OH11747   4.757   0.456   3.380
  436OcOH   HA111748   4.625   0.587   3.299
  436OcOH   HA211749   4.666   0.451   3.196
  436OcOH    CA11750   4.644   0.479   3.299
  436OcOH   HB111751   4.435   0.436   3.296
  436OcOH   HB211752   4.505   0.431   3.456
  436OcOH    CB11753   4.522   0.403   3.352
  436OcOH   HC111754   4.572   0.225   3.241
  436OcOH   HC211755   4.611   0.215   3.411
  436OcOH    CC11756   4.535   0.250   3.341
  436OcOH   HD111757   4.331   0.209   3.288
  436OcOH   HD211758   4.360   0.208   3.460
  436OcOH    CD11759   4.402   0.178   3.364
  436OcOH   HE111760   4.467   5.133   3.270
  436OcOH   HE211761   4.477   5.129   3.444
  436OcOH    CE11762   4.415   0.025   3.361
  436OcOH   HF111763   4.219   5.122   3.279
  436OcOH   HF211764   4.224   5.121   3.454
  436OcOH    CF11765   4.279   5.090   3.365
  436OcOH   HG111766   4.351   4.906   3.277
  436OcOH   HG211767   4.349   4.905   3.452
  436OcOH    CG11768   4.293   4.937   3.364
  436OcOH   HH111769   4.096   4.893   3.449
  436OcOH   HH211770   4.170   4.758   3.364
  436OcOH   HH311771   4.100   4.891   3.273
  436OcOH    CH11772   4.157   4.866   3.362
  437OcOH    HO11773   3.478   2.495   0.571
  437OcOH    OH11774   3.385   2.484   0.597
  437OcOH   HA111775   3.458   2.348   0.731
  437OcOH   HA211776   3.283   2.352   0.718
  437OcOH    CA11777   3.376   2.358   0.660
  437OcOH   HB111778   3.399   2.151   0.609
  437OcOH   HB211779   3.467   2.258   0.490
  437OcOH    CB11780   3.381   2.245   0.556
  437OcOH   HC111781   3.168   2.224   0.543
  437OcOH   HC211782   3.236   2.322   0.416
  437OcOH    CC11783   3.252   2.231   0.474
  437OcOH   HD111784   3.279   2.020   0.438
  437OcOH   HD211785   3.328   2.120   0.304
  437OcOH    CD11786   3.252   2.108   0.381
  437OcOH   HE111787   3.038   2.082   0.393
  437OcOH   HE211788   3.088   2.170   0.252
  437OcOH    CE11789   3.114   2.085   0.315
  437OcOH   HF111790   3.137   1.871   0.296
  437OcOH   HF211791   3.178   1.960   0.151
  437OcOH    CF11792   3.107   1.955   0.233
  437OcOH   HG111793   2.894   1.929   0.261
  437OcOH   HG211794   2.936   2.013   0.114
  437OcOH    CG11795   2.965   1.930   0.179
  437OcOH   HH111796   2.850   1.783   0.067
  437OcOH   HH211797   2.982   1.713   0.161
  437OcOH   HH311798   3.016   1.800   0.012
  437OcOH    CH11799   2.953   1.799   0.101
  438OcOH    HO11800   3.845   5.077   4.759
  438OcOH    OH11801   3.865   5.085   4.665
  438OcOH   HA111802   3.914   4.938   4.531
  438OcOH   HA211803   3.843   4.881   4.680
  438OcOH    CA11804   3.837   4.960   4.605
  438OcOH   HB111805   3.684   4.865   4.490
  438OcOH   HB211806   3.700   5.035   4.456
  438OcOH    CB11807   3.700   4.962   4.537
  438OcOH   HC111808   3.600   4.933   4.724
  438OcOH   HC211809   3.588   5.096   4.666
  438OcOH    CC11810   3.584   4.992   4.634
  438OcOH   HD111811   3.372   4.967   4.659
  438OcOH   HD211812   3.443   4.852   4.549
  438OcOH    CD11813   3.445   4.957   4.578
  438OcOH   HE111814   3.395   0.013   4.493
  438OcOH   HE211815   3.475   5.041   4.382
  438OcOH    CE11816   3.400   5.045   4.461
  438OcOH   HF111817   3.190   5.003   4.483
  438OcOH   HF211818   3.272   4.897   4.371
  438OcOH    CF11819   3.265   5.001   4.404
  438OcOH   HG111820   3.204   0.054   4.320
  438OcOH   HG211821   3.295   5.091   4.209
  438OcOH    CG11822   3.218   5.088   4.286
  438OcOH   HH111823   3.007   5.037   4.299
  438OcOH   HH211824   3.098   4.934   4.188
  438OcOH   HH311825   3.056   5.098   4.141
  438OcOH    CH11826   3.087   5.036   4.225
  439OcOH    HO11827   0.441   4.280   0.452
  439OcOH    OH11828   0.519   4.335   0.447
  439OcOH   HA111829   0.377   4.480   0.455
  439OcOH   HA211830   0.479   4.468   0.597
  439OcOH    CA11831   0.479   4.464   0.488
  439OcOH   HB111832   0.578   4.559   0.322
  439OcOH   HB211833   0.673   4.557   0.469
  439OcOH    CB11834   0.572   4.571   0.431
  439OcOH   HC111835   0.418   4.721   0.431
  439OcOH   HC211836   0.522   4.726   0.572
  439OcOH    CC11837   0.522   4.712   0.464
  439OcOH   HD111838   0.613   4.804   0.291
  439OcOH   HD211839   0.707   4.823   0.438
  439OcOH    CD11840   0.605   4.824   0.398
  439OcOH   HE111841   0.440   4.959   0.378
  439OcOH   HE211842   0.532   4.983   0.524
  439OcOH    CE11843   0.541   4.962   0.418
  439OcOH   HF111844   0.631   5.050   0.243
  439OcOH   HF211845   0.719   5.081   0.391
  439OcOH    CF11846   0.619   5.074   0.349
  439OcOH   HG111847   0.449   0.068   0.316
  439OcOH   HG211848   0.532   0.097   0.466
  439OcOH    CG11849   0.548   0.074   0.361
  439OcOH   HH111850   0.641   0.169   0.189
  439OcOH   HH211851   0.726   0.199   0.341
  439OcOH   HH311852   0.575   0.283   0.306
  439OcOH    CH11853   0.627   0.187   0.296
  440OcOH    HO11854   5.087   4.847   2.625
  440OcOH    OH11855   5.000   4.855   2.666
  440OcOH   HA111856   4.944   4.982   2.514
  440OcOH   HA211857   4.834   4.971   2.650
  440OcOH    CA11858   4.940   4.974   2.623
  440OcOH   HB111859   4.999   5.085   2.798
  440OcOH   HB211860   4.946   0.047   2.665
  440OcOH    CB11861   5.005   5.096   2.690
  440OcOH   HC111862   0.077   5.037   2.681
  440OcOH   HC211863   0.021   5.122   2.540
  440OcOH    CC11864   0.015   5.120   2.649
  440OcOH   HD111865   0.065   0.112   2.814
  440OcOH   HD211866   0.005   0.197   2.674
  440OcOH    CD11867   0.070   0.115   2.705
  440OcOH   HE111868   0.276   0.059   2.689
  440OcOH   HE211869   0.219   0.149   2.552
  440OcOH    CE11870   0.214   0.144   2.660
  440OcOH   HF111871   0.382   0.271   2.704
  440OcOH   HF211872   0.262   0.270   2.830
  440OcOH    CF11873   0.274   0.271   2.722
  440OcOH   HG111874   0.229   0.403   2.556
  440OcOH   HG211875   0.108   0.405   2.680
  440OcOH    CG11876   0.215   0.401   2.664
  440OcOH   HH111877   0.387   0.529   2.708
  440OcOH   HH211878   0.263   0.531   2.833
  440OcOH   HH311879   0.237   0.617   2.681
  440OcOH    CH11880   0.279   0.527   2.725
  441OcOH    HO11881   4.628   3.991   4.546
  441OcOH    OH11882   4.715   3.955   4.570
  441OcOH   HA111883   4.763   4.150   4.532
  441OcOH   HA211884   4.812   4.091   4.689
  441OcOH    CA11885   4.804   4.063   4.584
  441OcOH   HB111886   4.980   3.936   4.576
  441OcOH   HB211887   5.011   4.106   4.552
  441OcOH    CB11888   4.942   4.026   4.527
  441OcOH   HC111889   4.884   3.916   4.348
  441OcOH   HC211890   4.883   4.088   4.331
  441OcOH    CC11891   4.940   4.006   4.374
  441OcOH   HD111892   0.004   4.084   4.354
  441OcOH   HD211893   5.069   4.033   4.204
  441OcOH    CD11894   5.079   4.006   4.309
  441OcOH   HE111895   0.014   3.832   4.419
  441OcOH   HE211896   5.099   3.798   4.256
  441OcOH    CE11897   0.016   3.871   4.317
  441OcOH   HF111898   0.214   3.950   4.338
  441OcOH   HF211899   0.165   3.933   4.172
  441OcOH    CF11900   0.161   3.884   4.269
  441OcOH   HG111901   0.344   3.772   4.265
  441OcOH   HG211902   0.215   3.688   4.346
  441OcOH    CG11903   0.238   3.751   4.260
  441OcOH   HH111904   0.273   3.587   4.121
  441OcOH   HH211905   0.230   3.738   4.043
  441OcOH   HH311906   0.106   3.643   4.123
  441OcOH    CH11907   0.210   3.675   4.129
  442OcOH    HO11908   3.423   3.821   1.591
  442OcOH    OH11909   3.467   3.842   1.508
  442OcOH   HA111910   3.459   3.758   1.321
  442OcOH   HA211911   3.349   3.691   1.439
  442OcOH    CA11912   3.392   3.785   1.403
  442OcOH   HB111913   3.217   3.905   1.441
  442OcOH   HB211914   3.218   3.830   1.284
  442OcOH    CB11915   3.281   3.881   1.356
  442OcOH   HC111916   3.247   4.078   1.277
  442OcOH   HC211917   3.397   4.064   1.365
  442OcOH    CC11918   3.333   4.012   1.294
  442OcOH   HD111919   3.348   3.936   1.091
  442OcOH   HD211920   3.496   3.931   1.182
  442OcOH    CD11921   3.409   3.993   1.162
  442OcOH   HE111922   3.512   4.183   1.170
  442OcOH   HE211923   3.532   4.097   1.020
  442OcOH    CE11924   3.458   4.123   1.096
  442OcOH   HF111925   3.273   4.235   1.104
  442OcOH   HF211926   3.295   4.144   0.957
  442OcOH    CF11927   3.347   4.206   1.030
  442OcOH   HG111928   3.448   4.397   1.033
  442OcOH   HG211929   3.480   4.303   0.889
  442OcOH    CG11930   3.401   4.331   0.959
  442OcOH   HH111931   3.249   4.346   0.805
  442OcOH   HH211932   3.332   4.498   0.838
  442OcOH   HH311933   3.212   4.437   0.951
  442OcOH    CH11934   3.292   4.407   0.884
  443OcOH    HO11935   3.961   4.068   0.493
  443OcOH    OH11936   3.882   4.013   0.498
  443OcOH   HA111937   3.820   3.839   0.406
  443OcOH   HA211938   3.945   3.928   0.322
  443OcOH    CA11939   3.911   3.898   0.420
  443OcOH   HB111940   3.981   3.788   0.591
  443OcOH   HB211941   4.105   3.879   0.510
  443OcOH    CB11942   4.018   3.816   0.493
  443OcOH   HC111943   3.981   3.617   0.415
  443OcOH   HC211944   4.079   3.717   0.311
  443OcOH    CC11945   4.062   3.690   0.416
  443OcOH   HD111946   4.271   3.701   0.468
  443OcOH   HD211947   4.222   3.546   0.404
  443OcOH    CD11948   4.191   3.627   0.471
  443OcOH   HE111949   4.133   3.647   0.678
  443OcOH   HE211950   4.107   3.487   0.613
  443OcOH    CE11951   4.177   3.571   0.613
  443OcOH   HF111952   4.381   3.611   0.670
  443OcOH   HF211953   4.354   3.447   0.615
  443OcOH    CF11954   4.311   3.528   0.674
  443OcOH   HG111955   4.246   3.562   0.877
  443OcOH   HG211956   4.229   3.397   0.825
  443OcOH    CG11957   4.295   3.483   0.820
  443OcOH   HH111958   4.497   3.534   0.884
  443OcOH   HH211959   4.477   3.365   0.838
  443OcOH   HH311960   4.413   3.423   0.992
  443OcOH    CH11961   4.428   3.450   0.887
  444OcOH    HO11962   1.057   4.726   0.421
  444OcOH    OH11963   0.978   4.674   0.426
  444OcOH   HA111964   0.876   4.537   0.313
  444OcOH   HA211965   0.982   4.646   0.224
  444OcOH    CA11966   0.973   4.587   0.315
  444OcOH   HB111967   1.079   4.428   0.417
  444OcOH   HB211968   1.183   4.536   0.327
  444OcOH    CB11969   1.087   4.484   0.324
  444OcOH   HC111970   0.991   4.333   0.203
  444OcOH   HC211971   1.089   4.445   0.112
  444OcOH    CC11972   1.086   4.387   0.204
  444OcOH   HD111973   1.205   4.238   0.305
  444OcOH   HD211974   1.297   4.341   0.198
  444OcOH    CD11975   1.203   4.287   0.207
  444OcOH   HE111976   1.277   4.109   0.113
  444OcOH   HE211977   1.104   4.120   0.112
  444OcOH    CE11978   1.195   4.179   0.098
  444OcOH   HF111979   1.290   4.295   5.079
  444OcOH   HF211980   1.115   4.298   5.072
  444OcOH    CF11981   1.201   4.233   5.091
  444OcOH   HG111982   1.288   4.057   5.002
  444OcOH   HG211983   1.114   4.057   4.999
  444OcOH    CG11984   1.202   4.121   4.986
  444OcOH   HH111985   1.115   4.233   4.821
  444OcOH   HH211986   1.207   4.092   4.770
  444OcOH   HH311987   1.291   4.237   4.825
  444OcOH    CH11988   1.204   4.174   4.842
  445OcOH    HO11989   4.250   3.380   3.135
  445OcOH    OH11990   4.225   3.310   3.197
  445OcOH   HA111991   4.387   3.214   3.116
  445OcOH   HA211992   4.408   3.273   3.280
  445OcOH    CA11993   4.337   3.225   3.212
  445OcOH   HB111994   4.238   3.100   3.359
  445OcOH   HB211995   4.384   3.031   3.292
  445OcOH    CB11996   4.294   3.088   3.266
  445OcOH   HC111997   4.121   3.062   3.141
  445OcOH   HC211998   4.268   3.000   3.070
  445OcOH    CC11999   4.212   3.007   3.164
  445OcOH   HD112000   4.117   2.874   3.304
  445OcOH   HD212001   4.266   2.811   3.239
  445OcOH    CD12002   4.176   2.866   3.212
  445OcOH   HE112003   4.014   2.849   3.070
  445OcOH   HE212004   4.161   2.769   3.020
  445OcOH    CE12005   4.097   2.788   3.106
  445OcOH   HF112006   3.981   2.674   3.247
  445OcOH   HF212007   4.125   2.591   3.190
  445OcOH    CF12008   4.042   2.655   3.159
  445OcOH   HG112009   3.873   2.645   3.026
  445OcOH   HG212010   4.014   2.562   2.965
  445OcOH    CG12011   3.956   2.581   3.055
  445OcOH   HH112012   3.839   2.463   3.197
  445OcOH   HH212013   3.981   2.379   3.135
  445OcOH   HH312014   3.839   2.399   3.033
  445OcOH    CH12015   3.901   2.448   3.108
  446OcOH    HO12016   5.084   1.805   2.504
  446OcOH    OH12017   4.995   1.838   2.488
  446OcOH   HA112018   5.021   1.855   2.285
  446OcOH   HA212019   4.899   1.961   2.353
  446OcOH    CA12020   4.998   1.918   2.371
  446OcOH   HB112021   5.106   2.086   2.292
  446OcOH   HB212022   0.065   1.983   2.396
  446OcOH    CB12023   5.103   2.029   2.385
  446OcOH   HC112024   4.973   2.158   2.498
  446OcOH   HC212025   5.086   2.070   2.597
  446OcOH    CC12026   5.077   2.124   2.503
  446OcOH   HD112027   5.134   2.315   2.583
  446OcOH   HD212028   0.022   2.302   2.412
  446OcOH    CD12029   0.032   2.248   2.505
  446OcOH   HE112030   0.192   2.163   2.625
  446OcOH   HE212031   0.215   2.145   2.454
  446OcOH    CE12032   0.181   2.215   2.530
  446OcOH   HF112033   0.265   2.389   2.431
  446OcOH   HF212034   0.376   2.301   2.532
  446OcOH    CF12035   0.274   2.337   2.527
  446OcOH   HG112036   0.153   2.486   2.629
  446OcOH   HG212037   0.243   2.382   2.736
  446OcOH    CG12038   0.249   2.436   2.642
  446OcOH   HH112039   0.340   2.610   2.735
  446OcOH   HH212040   0.367   2.602   2.561
  446OcOH   HH312041   0.457   2.496   2.670
  446OcOH    CH12042   0.360   2.542   2.652
  447OcOH    HO12043   1.999   5.013   4.143
  447OcOH    OH12044   2.063   4.946   4.117
  447OcOH   HA112045   2.244   4.876   4.182
  447OcOH   HA212046   2.201   5.037   4.239
  447OcOH    CA12047   2.162   4.937   4.218
  447OcOH   HB112048   2.054   4.780   4.318
  447OcOH   HB212049   2.019   4.940   4.380
  447OcOH    CB12050   2.100   4.876   4.344
  447OcOH   HC112051   2.282   4.789   4.418
  447OcOH   HC212052   2.251   4.949   4.480
  447OcOH    CC12053   2.203   4.854   4.455
  447OcOH   HD112054   2.086   4.703   4.555
  447OcOH   HD212055   2.070   4.862   4.625
  447OcOH    CD12056   2.142   4.793   4.582
  447OcOH   HE112057   2.319   4.686   4.643
  447OcOH   HE212058   2.305   4.846   4.713
  447OcOH    CE12059   2.248   4.756   4.687
  447OcOH   HF112060   2.123   4.611   4.784
  447OcOH   HF212061   2.123   4.766   4.864
  447OcOH    CF12062   2.188   4.694   4.813
  447OcOH   HG112063   2.244   4.582   4.989
  447OcOH   HG212064   2.359   4.569   4.859
  447OcOH    CG12065   2.293   4.640   4.911
  447OcOH   HH112066   2.451   4.706   5.044
  447OcOH   HH212067   2.315   4.818   5.035
  447OcOH   HH312068   2.432   4.809   4.903
  447OcOH    CH12069   2.378   4.750   4.977
  448OcOH    HO12070   3.753   0.555   1.296
  448OcOH    OH12071   3.745   0.640   1.252
  448OcOH   HA112072   3.674   0.728   1.421
  448OcOH   HA212073   3.848   0.733   1.405
  448OcOH    CA12074   3.755   0.742   1.350
  448OcOH   HB112075   3.728   0.955   1.359
  448OcOH   HB212076   3.655   0.882   1.219
  448OcOH    CB12077   3.744   0.879   1.282
  448OcOH   HC112078   3.953   0.933   1.264
  448OcOH   HC212079   3.894   0.831   1.135
  448OcOH    CC12080   3.868   0.916   1.198
  448OcOH   HD112081   3.763   1.017   1.040
  448OcOH   HD212082   3.934   1.048   1.042
  448OcOH    CD12083   3.846   1.038   1.106
  448OcOH   HE112084   3.731   1.161   1.241
  448OcOH   HE212085   3.903   1.193   1.246
  448OcOH    CE12086   3.820   1.170   1.179
  448OcOH   HF112087   3.726   1.258   1.005
  448OcOH   HF212088   3.894   1.303   1.024
  448OcOH    CF12089   3.801   1.286   1.079
  448OcOH   HG112090   3.665   1.400   1.204
  448OcOH   HG212091   3.833   1.446   1.220
  448OcOH    CG12092   3.757   1.416   1.148
  448OcOH   HH112093   3.708   1.623   1.099
  448OcOH   HH212094   3.655   1.507   0.978
  448OcOH   HH312095   3.825   1.551   0.990
  448OcOH    CH12096   3.735   1.531   1.048
  449OcOH    HO12097   2.066   4.538   0.552
  449OcOH    OH12098   2.031   4.581   0.473
  449OcOH   HA112099   2.224   4.618   0.414
  449OcOH   HA212100   2.152   4.473   0.347
  449OcOH    CA12101   2.131   4.577   0.373
  449OcOH   HB112102   2.176   4.668   0.184
  449OcOH   HB212103   2.063   4.760   0.280
  449OcOH    CB12104   2.089   4.658   0.250
  449OcOH   HC112105   2.001   4.491   0.145
  449OcOH   HC212106   1.886   4.587   0.234
  449OcOH    CC12107   1.974   4.594   0.171
  449OcOH   HD112108   2.030   4.681   5.118
  449OcOH   HD212109   1.912   4.774   0.070
  449OcOH    CD12110   1.941   4.672   0.043
  449OcOH   HE112111   1.858   4.505   5.072
  449OcOH   HE212112   1.739   4.598   0.023
  449OcOH    CE12113   1.829   4.607   5.098
  449OcOH   HF112114   1.885   4.693   4.908
  449OcOH   HF212115   1.770   4.788   4.999
  449OcOH    CF12116   1.796   4.686   4.971
  449OcOH   HG112117   1.590   4.620   4.952
  449OcOH   HG212118   1.655   4.699   4.810
  449OcOH    CG12119   1.680   4.628   4.889
  449OcOH   HH112120   1.726   4.415   4.901
  449OcOH   HH212121   1.799   4.496   4.762
  449OcOH   HH312122   1.627   4.459   4.763
  449OcOH    CH12123   1.710   4.492   4.825
  450OcOH    HO12124   3.753   2.149   1.776
  450OcOH    OH12125   3.697   2.182   1.706
  450OcOH   HA112126   3.579   2.105   1.559
  450OcOH   HA212127   3.675   1.987   1.645
  450OcOH    CA12128   3.616   2.077   1.657
  450OcOH   HB112129   3.446   2.149   1.767
  450OcOH   HB212130   3.536   2.026   1.851
  450OcOH    CB12131   3.498   2.055   1.753
  450OcOH   HC112132   3.365   1.975   1.604
  450OcOH   HC212133   3.450   1.853   1.694
  450OcOH    CC12134   3.399   1.949   1.704
  450OcOH   HD112135   3.225   2.029   1.802
  450OcOH   HD212136   3.312   1.912   1.898
  450OcOH    CD12137   3.278   1.934   1.797
  450OcOH   HE112138   3.152   1.841   1.647
  450OcOH   HE212139   3.231   1.727   1.753
  450OcOH    CE12140   3.180   1.824   1.751
  450OcOH   HF112141   3.002   1.915   1.832
  450OcOH   HF212142   3.082   1.806   1.943
  450OcOH    CF12143   3.054   1.819   1.839
  450OcOH   HG112144   2.934   1.715   1.692
  450OcOH   HG212145   3.007   1.610   1.810
  450OcOH    CG12146   2.958   1.706   1.798
  450OcOH   HH112147   2.762   1.627   1.848
  450OcOH   HH212148   2.774   1.802   1.865
  450OcOH   HH312149   2.848   1.697   1.985
  450OcOH    CH12150   2.828   1.708   1.879
  451OcOH    HO12151   2.647   4.006   0.747
  451OcOH    OH12152   2.617   4.073   0.810
  451OcOH   HA112153   2.743   4.189   0.699
  451OcOH   HA212154   2.574   4.232   0.688
  451OcOH    CA12155   2.652   4.199   0.757
  451OcOH   HB112156   2.579   4.312   0.927
  451OcOH   HB212157   2.691   4.398   0.826
  451OcOH    CB12158   2.671   4.301   0.870
  451OcOH   HC112159   2.762   4.169   1.014
  451OcOH   HC212160   2.876   4.243   0.904
  451OcOH    CC12161   2.787   4.263   0.964
  451OcOH   HD112162   2.732   4.383   1.134
  451OcOH   HD212163   2.836   4.465   1.020
  451OcOH    CD12164   2.819   4.369   1.069
  451OcOH   HE112165   2.926   4.233   1.198
  451OcOH   HE212166   3.028   4.322   1.087
  451OcOH    CE12167   2.942   4.332   1.153
  451OcOH   HF112168   2.888   4.438   1.333
  451OcOH   HF212169   2.981   4.533   1.220
  451OcOH    CF12170   2.972   4.434   1.263
  451OcOH   HG112171   3.094   4.301   1.383
  451OcOH   HG212172   3.186   4.400   1.272
  451OcOH    CG12173   3.101   4.401   1.341
  451OcOH   HH112174   3.220   4.478   1.505
  451OcOH   HH212175   3.047   4.500   1.527
  451OcOH   HH312176   3.136   4.603   1.415
  451OcOH    CH12177   3.128   4.501   1.453
  452OcOH    HO12178   4.770   2.149   0.579
  452OcOH    OH12179   4.850   2.102   0.553
  452OcOH   HA112180   4.936   2.057   0.734
  452OcOH   HA212181   4.783   1.978   0.702
  452OcOH    CA12182   4.877   2.008   0.656
  452OcOH   HB112183   4.974   1.819   0.683
  452OcOH   HB212184   5.047   1.916   0.558
  452OcOH    CB12185   4.951   1.886   0.600
  452OcOH   HC112186   4.772   1.782   0.540
  452OcOH   HC212187   4.846   1.876   0.412
  452OcOH    CC12188   4.868   1.810   0.496
  452OcOH   HD112189   4.946   1.611   0.525
  452OcOH   HD212190   5.039   1.707   0.412
  452OcOH    CD12191   4.937   1.683   0.444
  452OcOH   HE112192   4.754   1.612   0.354
  452OcOH   HE212193   4.861   1.691   0.242
  452OcOH    CE12194   4.859   1.622   0.326
  452OcOH   HF112195   4.914   1.418   0.368
  452OcOH   HF212196   5.018   1.497   0.252
  452OcOH    CF12197   4.914   1.486   0.283
  452OcOH   HG112198   4.728   1.416   0.197
  452OcOH   HG212199   4.836   1.491   0.082
  452OcOH    CG12200   4.833   1.424   0.168
  452OcOH   HH112201   4.829   1.246   0.044
  452OcOH   HH212202   4.878   1.216   0.211
  452OcOH   HH312203   4.990   1.291   0.098
  452OcOH    CH12204   4.885   1.286   0.128
  453OcOH    HO12205   4.100   0.046   0.019
  453OcOH    OH12206   4.093   0.002   5.069
  453OcOH   HA112207   4.128   0.045   4.872
  453OcOH   HA212208   4.044   0.170   4.963
  453OcOH    CA12209   4.125   0.096   4.969
  453OcOH   HB112210   4.254   0.211   5.099
  453OcOH   HB212211   4.271   0.248   4.930
  453OcOH    CB12212   4.258   0.165   4.999
  453OcOH   HC112213   4.364   5.120   5.050
  453OcOH   HC212214   4.389   0.037   4.886
  453OcOH    CC12215   4.380   0.072   4.989
  453OcOH   HD112216   4.500   0.173   0.000
  453OcOH   HD212217   4.520   0.235   4.975
  453OcOH    CD12218   4.509   0.143   5.033
  453OcOH   HE112219   4.628   5.105   5.078
  453OcOH   HE212220   4.642   0.022   4.912
  453OcOH    CE12221   4.635   0.057   5.015
  453OcOH   HF112222   4.755   0.173   0.016
  453OcOH   HF212223   4.770   0.224   4.987
  453OcOH    CF12224   4.763   0.135   5.051
  453OcOH   HG112225   4.882   5.097   5.096
  453OcOH   HG212226   4.900   0.019   4.932
  453OcOH    CG12227   4.890   0.051   5.036
  453OcOH   HH112228   5.029   0.219   5.018
  453OcOH   HH212229   5.105   0.068   5.066
  453OcOH   HH312230   5.010   0.159   0.046
  453OcOH    CH12231   5.016   0.129   5.078
  454OcOH    HO12232   2.219   1.335   1.829
  454OcOH    OH12233   2.269   1.401   1.779
  454OcOH   HA112234   2.439   1.512   1.811
  454OcOH   HA212235   2.359   1.452   1.955
  454OcOH    CA12236   2.387   1.426   1.852
  454OcOH   HB112237   2.423   1.216   1.890
  454OcOH   HB212238   2.560   1.319   1.922
  454OcOH    CB12239   2.478   1.302   1.851
  454OcOH   HC112240   2.457   1.252   1.642
  454OcOH   HC212241   2.592   1.357   1.676
  454OcOH    CC12242   2.538   1.270   1.713
  454OcOH   HD112243   2.574   1.060   1.749
  454OcOH   HD212244   2.707   1.164   1.794
  454OcOH    CD12245   2.631   1.148   1.718
  454OcOH   HE112246   2.626   1.109   1.505
  454OcOH   HE212247   2.764   1.203   1.557
  454OcOH    CE12248   2.700   1.119   1.584
  454OcOH   HF112249   2.718   0.906   1.610
  454OcOH   HF212250   2.854   0.995   1.673
  454OcOH    CF12251   2.784   0.990   1.590
  454OcOH   HG112252   2.795   0.969   1.374
  454OcOH   HG212253   2.936   1.041   1.445
  454OcOH    CG12254   2.862   0.963   1.460
  454OcOH   HH112255   2.857   0.745   1.470
  454OcOH   HH212256   3.002   0.816   1.541
  454OcOH   HH312257   2.984   0.809   1.366
  454OcOH    CH12258   2.930   0.826   1.459
  455OcOH    HO12259   0.365   4.845   2.694
  455OcOH    OH12260   0.349   4.879   2.605
  455OcOH   HA112261   0.415   5.034   2.490
  455OcOH   HA212262   0.460   5.042   2.660
  455OcOH    CA12263   0.448   4.975   2.575
  455OcOH   HB112264   0.564   4.829   2.465
  455OcOH   HB212265   0.613   4.848   2.632
  455OcOH    CB12266   0.580   4.903   2.544
  455OcOH   HC112267   0.656   5.052   2.408
  455OcOH   HC212268   0.702   5.079   2.575
  455OcOH    CC12269   0.689   5.001   2.499
  455OcOH   HD112270   0.810   4.848   2.406
  455OcOH   HD212271   0.862   4.891   2.567
  455OcOH    CD12272   0.824   4.932   2.474
  455OcOH   HE112273   0.892   5.063   2.316
  455OcOH   HE212274   0.936   5.117   2.476
  455OcOH    CE12275   0.928   5.029   2.413
  455OcOH   HF112276   1.057   4.870   2.343
  455OcOH   HF212277   1.105   4.938   2.496
  455OcOH    CF12278   1.066   4.964   2.398
  455OcOH   HG112279   1.130   5.077   2.224
  455OcOH   HG212280   1.172   0.015   2.376
  455OcOH    CG12281   1.166   5.056   2.325
  455OcOH   HH112282   1.350   4.985   2.417
  455OcOH   HH212283   1.373   5.056   2.258
  455OcOH   HH312284   1.303   4.896   2.272
  455OcOH    CH12285   1.306   4.994   2.317
  456OcOH    HO12286   4.052   4.732   4.505
  456OcOH    OH12287   4.060   4.720   4.600
  456OcOH   HA112288   4.261   4.739   4.636
  456OcOH   HA212289   4.180   4.884   4.580
  456OcOH    CA12290   4.169   4.797   4.645
  456OcOH   HB112291   4.058   4.908   4.793
  456OcOH   HB212292   4.230   4.906   4.820
  456OcOH    CB12293   4.146   4.844   4.790
  456OcOH   HC112294   4.043   4.669   4.859
  456OcOH   HC212295   4.215   4.662   4.883
  456OcOH    CC12296   4.129   4.728   4.889
  456OcOH   HD112297   4.030   4.850   5.037
  456OcOH   HD212298   4.200   4.827   5.067
  456OcOH    CD12299   4.110   4.776   5.034
  456OcOH   HE112300   3.981   4.616   5.097
  456OcOH   HE212301   4.151   4.583   5.117
  456OcOH    CE12302   4.076   4.660   5.128
  456OcOH   HF112303   3.991   4.780   0.151
  456OcOH   HF212304   4.161   4.748   0.170
  456OcOH    CF12305   4.067   4.703   0.139
  456OcOH   HG112306   3.937   4.543   0.203
  456OcOH   HG212307   4.107   4.505   0.212
  456OcOH    CG12308   4.034   4.584   0.230
  456OcOH   HH112309   3.960   4.694   0.402
  456OcOH   HH212310   4.132   4.656   0.410
  456OcOH   HH312311   4.013   4.531   0.440
  456OcOH    CH12312   4.035   4.619   0.379
  457OcOH    HO12313   2.306   1.460   1.610
  457OcOH    OH12314   2.306   1.477   1.515
  457OcOH   HA112315   2.311   1.639   1.390
  457OcOH   HA212316   2.283   1.677   1.559
  457OcOH    CA12317   2.340   1.613   1.492
  457OcOH   HB112318   2.544   1.557   1.452
  457OcOH   HB212319   2.518   1.614   1.615
  457OcOH    CB12320   2.491   1.632   1.511
  457OcOH   HC112321   2.513   1.789   1.365
  457OcOH   HC212322   2.490   1.848   1.527
  457OcOH    CC12323   2.540   1.771   1.469
  457OcOH   HD112324   2.742   1.701   1.434
  457OcOH   HD212325   2.720   1.777   1.590
  457OcOH    CD12326   2.693   1.785   1.484
  457OcOH   HE112327   2.715   1.926   1.322
  457OcOH   HE212328   2.705   2.001   1.480
  457OcOH    CE12329   2.748   1.916   1.426
  457OcOH   HF112330   2.943   1.834   1.386
  457OcOH   HF212331   2.933   1.922   1.537
  457OcOH    CF12332   2.901   1.923   1.432
  457OcOH   HG112333   2.920   2.052   1.260
  457OcOH   HG212334   2.920   2.137   1.412
  457OcOH    CG12335   2.957   2.048   1.362
  457OcOH   HH112336   3.146   2.140   1.311
  457OcOH   HH212337   3.151   1.964   1.308
  457OcOH   HH312338   3.151   2.050   1.462
  457OcOH    CH12339   3.110   2.050   1.361
  458OcOH    HO12340   4.210   2.082   2.143
  458OcOH    OH12341   4.151   2.146   2.101
  458OcOH   HA112342   4.010   2.280   2.170
  458OcOH   HA212343   4.062   2.159   2.286
  458OcOH    CA12344   4.097   2.225   2.206
  458OcOH   HB112345   4.292   2.268   2.291
  458OcOH   HB212346   4.162   2.367   2.352
  458OcOH    CB12347   4.202   2.322   2.261
  458OcOH   HC112348   4.286   2.390   2.074
  458OcOH   HC212349   4.148   2.484   2.128
  458OcOH    CC12350   4.239   2.434   2.162
  458OcOH   HD112351   4.423   2.489   2.260
  458OcOH   HD212352   4.285   2.582   2.312
  458OcOH    CD12353   4.333   2.538   2.224
  458OcOH   HE112354   4.422   2.607   2.040
  458OcOH   HE212355   4.280   2.697   2.089
  458OcOH    CE12356   4.371   2.650   2.126
  458OcOH   HF112357   4.554   2.710   2.226
  458OcOH   HF212358   4.412   2.797   2.279
  458OcOH    CF12359   4.461   2.756   2.191
  458OcOH   HG112360   4.556   2.832   2.012
  458OcOH   HG212361   4.403   2.909   2.049
  458OcOH    CG12362   4.495   2.871   2.094
  458OcOH   HH112363   4.662   2.953   2.206
  458OcOH   HH212364   4.508   3.030   2.242
  458OcOH   HH312365   4.591   3.065   2.091
  458OcOH    CH12366   4.568   2.986   2.162
  459OcOH    HO12367   5.039   1.625   4.038
  459OcOH    OH12368   4.997   1.658   3.958
  459OcOH   HA112369   4.809   1.614   4.028
  459OcOH   HA212370   4.821   1.637   3.855
  459OcOH    CA12371   4.872   1.594   3.942
  459OcOH   HB112372   4.949   1.404   4.007
  459OcOH   HB212373   4.952   1.426   3.834
  459OcOH    CB12374   4.892   1.444   3.923
  459OcOH   HC112375   4.698   1.388   4.002
  459OcOH   HC212376   4.701   1.408   3.828
  459OcOH    CC12377   4.758   1.369   3.912
  459OcOH   HD112378   4.841   1.181   3.977
  459OcOH   HD212379   4.833   1.199   3.803
  459OcOH    CD12380   4.778   1.218   3.896
  459OcOH   HE112381   4.592   1.157   3.987
  459OcOH   HE212382   4.583   1.174   3.813
  459OcOH    CE12383   4.647   1.139   3.894
  459OcOH   HF112384   4.744   0.955   3.953
  459OcOH   HF212385   4.719   0.970   3.781
  459OcOH    CF12386   4.673   0.988   3.878
  459OcOH   HG112387   4.495   0.924   3.984
  459OcOH   HG212388   4.477   0.931   3.810
  459OcOH    CG12389   4.546   0.903   3.889
  459OcOH   HH112390   4.646   0.722   3.959
  459OcOH   HH212391   4.620   0.726   3.785
  459OcOH   HH312392   4.485   0.694   3.894
  459OcOH    CH12393   4.576   0.753   3.881
  460OcOH    HO12394   0.964   3.779   1.871
  460OcOH    OH12395   1.024   3.837   1.919
  460OcOH   HA112396   0.987   3.965   1.763
  460OcOH   HA212397   0.916   4.011   1.917
  460OcOH    CA12398   1.005   3.968   1.870
  460OcOH   HB112399   1.216   4.007   1.852
  460OcOH   HB212400   1.151   4.050   2.007
  460OcOH    CB12401   1.130   4.052   1.901
  460OcOH   HC112402   1.098   4.200   1.746
  460OcOH   HC212403   1.023   4.239   1.899
  460OcOH    CC12404   1.114   4.198   1.854
  460OcOH   HD112405   1.247   4.290   1.998
  460OcOH   HD212406   1.205   4.392   1.863
  460OcOH    CD12407   1.232   4.290   1.890
  460OcOH   HE112408   1.402   4.159   1.860
  460OcOH   HE212409   1.345   4.236   1.713
  460OcOH    CE12410   1.363   4.253   1.819
  460OcOH   HF112411   1.480   4.391   1.939
  460OcOH   HF212412   1.434   4.452   1.783
  460OcOH    CF12413   1.469   4.363   1.834
  460OcOH   HG112414   1.644   4.236   1.833
  460OcOH   HG212415   1.597   4.292   1.675
  460OcOH    CG12416   1.607   4.323   1.779
  460OcOH   HH112417   1.723   4.469   1.892
  460OcOH   HH212418   1.679   4.522   1.729
  460OcOH   HH312419   1.807   4.404   1.752
  460OcOH    CH12420   1.710   4.436   1.788
  461OcOH    HO12421   4.098   0.103   1.727
  461OcOH    OH12422   4.149   0.076   1.649
  461OcOH   HA112423   4.174   5.011   1.615
  461OcOH   HA212424   4.017   5.058   1.674
  461OcOH    CA12425   4.097   5.088   1.607
  461OcOH   HB112426   3.968   0.042   1.461
  461OcOH   HB212427   3.992   5.008   1.436
  461OcOH    CB12428   4.044   5.100   1.463
  461OcOH   HC112429   4.104   0.027   1.266
  461OcOH   HC212430   4.214   0.078   1.392
  461OcOH    CC12431   4.152   5.131   1.358
  461OcOH   HD112432   4.182   4.929   1.287
  461OcOH   HD212433   4.289   4.974   1.417
  461OcOH    CD12434   4.242   5.011   1.326
  461OcOH   HE112435   4.308   5.081   1.131
  461OcOH   HE212436   4.413   5.128   1.264
  461OcOH    CE12437   4.353   5.046   1.224
  461OcOH   HF112438   4.383   4.844   1.155
  461OcOH   HF212439   4.483   4.888   1.291
  461OcOH    CF12440   4.443   4.925   1.196
  461OcOH   HG112441   4.595   4.862   1.057
  461OcOH   HG212442   4.524   5.015   1.015
  461OcOH    CG12443   4.559   4.955   1.100
  461OcOH   HH112444   4.757   5.047   1.097
  461OcOH   HH212445   4.720   4.962   1.246
  461OcOH   HH312446   4.647   5.119   1.215
  461OcOH    CH12447   4.677   5.025   1.168
  462OcOH    HO12448   4.865   0.294   1.639
  462OcOH    OH12449   4.892   0.339   1.557
  462OcOH   HA112450   5.032   0.313   1.409
  462OcOH   HA212451   5.081   0.262   1.569
  462OcOH    CA12452   4.997   0.264   1.500
  462OcOH   HB112453   4.871   0.126   1.392
  462OcOH   HB212454   4.903   0.078   1.557
  462OcOH    CB12455   4.949   0.121   1.469
  462OcOH   HC112456   5.112   0.073   1.335
  462OcOH   HC212457   0.003   0.025   1.500
  462OcOH    CC12458   5.063   0.030   1.422
  462OcOH   HD112459   4.944   5.029   1.307
  462OcOH   HD212460   4.961   4.983   1.474
  462OcOH    CD12461   5.015   5.024   1.389
  462OcOH   HE112462   0.054   4.975   1.274
  462OcOH   HE212463   0.058   4.917   1.438
  462OcOH    CE12464   5.130   4.929   1.352
  462OcOH   HF112465   5.017   4.808   1.215
  462OcOH   HF212466   5.015   4.747   1.379
  462OcOH    CF12467   5.079   4.793   1.303
  462OcOH   HG112468   0.013   4.611   1.211
  462OcOH   HG212469   0.126   4.743   1.198
  462OcOH    CG12470   0.056   4.695   1.266
  462OcOH   HH112471   0.063   4.587   1.456
  462OcOH   HH212472   0.182   4.717   1.443
  462OcOH   HH312473   0.206   4.566   1.356
  462OcOH    CH12474   0.131   4.638   1.387
  463OcOH    HO12475   2.271   0.106   2.517
  463OcOH    OH12476   2.221   0.188   2.524
  463OcOH   HA112477   2.322   0.257   2.688
  463OcOH   HA212478   2.159   0.321   2.668
  463OcOH    CA12479   2.220   0.231   2.659
  463OcOH   HB112480   2.175   0.152   2.854
  463OcOH   HB212481   2.231   0.032   2.741
  463OcOH    CB12482   2.167   0.119   2.750
  463OcOH   HC112483   1.956   0.167   2.729
  463OcOH   HC212484   2.014   0.044   2.618
  463OcOH    CC12485   2.021   0.079   2.721
  463OcOH   HD112486   1.969   0.007   2.918
  463OcOH   HD212487   2.044   5.024   2.816
  463OcOH    CD12488   1.972   5.106   2.816
  463OcOH   HE112489   1.760   5.130   2.779
  463OcOH   HE212490   1.839   5.015   2.673
  463OcOH    CE12491   1.834   5.050   2.777
  463OcOH   HF112492   1.778   4.971   2.970
  463OcOH   HF212493   1.867   4.859   2.870
  463OcOH    CF12494   1.789   4.935   2.867
  463OcOH   HG112495   1.578   4.944   2.821
  463OcOH   HG212496   1.669   4.838   2.717
  463OcOH    CG12497   1.658   4.870   2.820
  463OcOH   HH112498   1.527   4.704   2.868
  463OcOH   HH212499   1.599   4.780   3.010
  463OcOH   HH312500   1.696   4.674   2.908
  463OcOH    CH12501   1.618   4.750   2.907
  464OcOH    HO12502   4.944   1.687   1.851
  464OcOH    OH12503   4.965   1.735   1.770
  464OcOH   HA112504   5.103   1.831   1.886
  464OcOH   HA212505   5.088   1.892   1.722
  464OcOH    CA12506   5.032   1.853   1.807
  464OcOH   HB112507   4.868   1.912   1.933
  464OcOH   HB212508   4.860   1.980   1.773
  464OcOH    CB12509   4.929   1.956   1.855
  464OcOH   HC112510   4.910   2.145   1.954
  464OcOH   HC212511   5.057   2.061   1.994
  464OcOH    CC12512   4.991   2.085   1.911
  464OcOH   HD112513   5.001   2.191   1.722
  464OcOH   HD212514   0.015   2.115   1.767
  464OcOH    CD12515   5.066   2.170   1.807
  464OcOH   HE112516   5.030   2.357   1.907
  464OcOH   HE212517   0.045   2.282   1.950
  464OcOH    CE12518   5.115   2.303   1.866
  464OcOH   HF112519   5.120   2.416   1.683
  464OcOH   HF212520   0.135   2.338   1.721
  464OcOH    CF12521   0.051   2.392   1.765
  464OcOH   HG112522   0.020   2.577   1.874
  464OcOH   HG212523   0.172   2.498   1.910
  464OcOH    CG12524   0.103   2.522   1.828
  464OcOH   HH112525   0.213   2.703   1.777
  464OcOH   HH212526   0.106   2.647   1.650
  464OcOH   HH312527   0.258   2.563   1.680
  464OcOH    CH12528   0.174   2.614   1.728
  465OcOH    HO12529   0.598   0.602   3.322
  465OcOH    OH12530   0.529   0.535   3.308
  465OcOH   HA112531   0.566   0.535   3.107
  465OcOH   HA212532   0.407   0.476   3.152
  465OcOH    CA12533   0.483   0.552   3.175
  465OcOH   HB112534   0.403   0.707   3.051
  465OcOH   HB212535   0.504   0.767   3.180
  465OcOH    CB12536   0.427   0.693   3.157
  465OcOH   HC112537   0.223   0.649   3.210
  465OcOH   HC212538   0.319   0.700   3.346
  465OcOH    CC12539   0.300   0.720   3.240
  465OcOH   HD112540   0.142   0.865   3.257
  465OcOH   HD212541   0.242   0.888   3.117
  465OcOH    CD12542   0.245   0.863   3.223
  465OcOH   HE112543   0.320   0.946   3.407
  465OcOH   HE212544   0.429   0.966   3.272
  465OcOH    CE12545   0.324   0.969   3.300
  465OcOH   HF112546   0.162   1.112   3.298
  465OcOH   HF212547   0.280   1.136   3.171
  465OcOH    CF12548   0.269   1.111   3.277
  465OcOH   HG112549   0.324   1.195   3.468
  465OcOH   HG212550   0.447   1.213   3.346
  465OcOH    CG12551   0.339   1.217   3.362
  465OcOH   HH112552   0.182   1.367   3.346
  465OcOH   HH212553   0.312   1.387   3.229
  465OcOH   HH312554   0.337   1.433   3.396
  465OcOH    CH12555   0.289   1.359   3.332
  466OcOH    HO12556   4.862   1.639   2.085
  466OcOH    OH12557   4.917   1.613   2.010
  466OcOH   HA112558   5.010   1.493   2.146
  466OcOH   HA212559   4.895   1.411   2.042
  466OcOH    CA12560   4.973   1.488   2.043
  466OcOH   HB112561   0.025   1.531   1.948
  466OcOH   HB212562   5.046   1.453   1.844
  466OcOH    CB12563   5.086   1.453   1.945
  466OcOH   HC112564   5.075   1.238   1.969
  466OcOH   HC212565   0.083   1.294   1.890
  466OcOH    CC12566   0.015   1.316   1.972
  466OcOH   HD112567   0.026   1.329   2.188
  466OcOH   HD212568   0.168   1.388   2.106
  466OcOH    CD12569   0.093   1.309   2.104
  466OcOH   HE112570   0.086   1.094   2.118
  466OcOH   HE212571   0.234   1.156   2.047
  466OcOH    CE12572   0.161   1.174   2.126
  466OcOH   HF112573   0.156   1.183   2.342
  466OcOH   HF212574   0.305   1.243   2.271
  466OcOH    CF12575   0.230   1.165   2.263
  466OcOH   HG112576   0.223   0.949   2.273
  466OcOH   HG212577   0.374   1.012   2.212
  466OcOH    CG12578   0.296   1.028   2.287
  466OcOH   HH112579   0.280   1.030   2.504
  466OcOH   HH212580   0.433   1.093   2.443
  466OcOH   HH312581   0.403   0.920   2.442
  466OcOH    CH12582   0.357   1.017   2.427
  467OcOH    HO12583   4.156   4.394   0.674
  467OcOH    OH12584   4.220   4.367   0.608
  467OcOH   HA112585   4.363   4.376   0.757
  467OcOH   HA212586   4.305   4.215   0.716
  467OcOH    CA12587   4.333   4.312   0.674
  467OcOH   HB112588   4.414   4.234   0.490
  467OcOH   HB212589   4.528   4.235   0.621
  467OcOH    CB12590   4.449   4.294   0.574
  467OcOH   HC112591   4.563   4.405   0.429
  467OcOH   HC212592   4.428   4.494   0.494
  467OcOH    CC12593   4.508   4.426   0.521
  467OcOH   HD112594   4.687   4.426   0.644
  467OcOH   HD212595   4.552   4.512   0.715
  467OcOH    CD12596   4.604   4.494   0.621
  467OcOH   HE112597   4.716   4.609   0.476
  467OcOH   HE212598   4.578   4.693   0.541
  467OcOH    CE12599   4.660   4.627   0.568
  467OcOH   HF112600   4.836   4.632   0.693
  467OcOH   HF212601   4.696   4.711   0.763
  467OcOH    CF12602   4.751   4.697   0.670
  467OcOH   HG112603   4.856   4.820   0.526
  467OcOH   HG212604   4.718   4.898   0.599
  467OcOH    CG12605   4.802   4.833   0.620
  467OcOH   HH112606   4.985   4.842   0.738
  467OcOH   HH212607   4.846   4.915   0.818
  467OcOH   HH312608   4.926   5.000   0.686
  467OcOH    CH12609   4.895   4.901   0.722
  468OcOH    HO12610   1.542   2.556   1.335
  468OcOH    OH12611   1.603   2.543   1.408
  468OcOH   HA112612   1.518   2.705   1.497
  468OcOH   HA212613   1.452   2.551   1.547
  468OcOH    CA12614   1.544   2.602   1.522
  468OcOH   HB112615   1.604   2.664   1.719
  468OcOH   HB212616   1.738   2.644   1.609
  468OcOH    CB12617   1.643   2.600   1.639
  468OcOH   HC112618   1.570   2.419   1.731
  468OcOH   HC212619   1.700   2.394   1.616
  468OcOH    CC12620   1.665   2.460   1.696
  468OcOH   HD112621   1.734   2.524   1.892
  468OcOH   HD212622   1.862   2.497   1.775
  468OcOH    CD12623   1.767   2.457   1.811
  468OcOH   HE112624   1.698   2.282   1.917
  468OcOH   HE212625   1.806   2.247   1.784
  468OcOH    CE12626   1.789   2.316   1.867
  468OcOH   HF112627   1.891   2.375   2.048
  468OcOH   HF212628   1.997   2.344   1.913
  468OcOH    CF12629   1.908   2.308   1.964
  468OcOH   HG112630   1.846   2.130   2.071
  468OcOH   HG212631   1.944   2.098   1.930
  468OcOH    CG12632   1.933   2.166   2.015
  468OcOH   HH112633   2.047   2.216   2.193
  468OcOH   HH212634   2.146   2.192   2.049
  468OcOH   HH312635   2.078   2.053   2.132
  468OcOH    CH12636   2.058   2.156   2.103
  469OcOH    HO12637   4.532   2.171   0.684
  469OcOH    OH12638   4.607   2.206   0.636
  469OcOH   HA112639   4.610   2.318   0.465
  469OcOH   HA212640   4.453   2.302   0.541
  469OcOH    CA12641   4.560   2.316   0.561
  469OcOH   HB112642   4.548   2.529   0.572
  469OcOH   HB212643   4.693   2.465   0.644
  469OcOH    CB12644   4.585   2.449   0.635
  469OcOH   HC112645   4.414   2.432   0.769
  469OcOH   HC212646   4.563   2.380   0.838
  469OcOH    CC12647   4.520   2.457   0.774
  469OcOH   HD112648   4.643   2.618   0.850
  469OcOH   HD212649   4.502   2.583   0.947
  469OcOH    CD12650   4.537   2.593   0.844
  469OcOH   HE112651   4.499   2.725   0.676
  469OcOH   HE212652   4.356   2.676   0.763
  469OcOH    CE12653   4.459   2.707   0.776
  469OcOH   HF112654   4.564   2.868   0.875
  469OcOH   HF212655   4.414   2.822   0.952
  469OcOH    CF12656   4.461   2.838   0.855
  469OcOH   HG112657   4.441   2.972   0.687
  469OcOH   HG212658   4.289   2.918   0.751
  469OcOH    CG12659   4.389   2.951   0.780
  469OcOH   HH112660   4.475   3.119   0.887
  469OcOH   HH212661   4.323   3.062   0.956
  469OcOH   HH312662   4.323   3.156   0.807
  469OcOH    CH12663   4.377   3.080   0.862
  470OcOH    HO12664   1.217   0.717   3.140
  470OcOH    OH12665   1.258   0.635   3.112
  470OcOH   HA112666   1.120   0.555   3.241
  470OcOH   HA212667   1.103   0.507   3.073
  470OcOH    CA12668   1.176   0.528   3.152
  470OcOH   HB112669   1.339   0.432   3.255
  470OcOH   HB212670   1.320   0.381   3.088
  470OcOH    CB12671   1.265   0.406   3.179
  470OcOH   HC112672   1.127   0.309   3.314
  470OcOH   HC212673   1.113   0.255   3.149
  470OcOH    CC12674   1.185   0.283   3.226
  470OcOH   HD112675   1.345   0.191   3.338
  470OcOH   HD212676   1.338   0.140   3.171
  470OcOH    CD12677   1.276   0.163   3.258
  470OcOH   HE112678   1.133   0.062   3.385
  470OcOH   HE212679   1.132   0.008   3.219
  470OcOH    CE12680   1.198   0.038   3.300
  470OcOH   HF112681   1.352   5.086   3.422
  470OcOH   HF212682   1.357   5.036   3.255
  470OcOH    CF12683   1.289   5.057   3.337
  470OcOH   HG112684   1.137   4.953   3.450
  470OcOH   HG212685   1.153   4.898   3.286
  470OcOH    CG12686   1.210   4.931   3.373
  470OcOH   HH112687   1.351   4.842   3.514
  470OcOH   HH212688   1.378   4.794   3.347
  470OcOH   HH312689   1.243   4.725   3.437
  470OcOH    CH12690   1.301   4.816   3.420
  471OcOH    HO12691   0.338   0.231   3.915
  471OcOH    OH12692   0.350   0.326   3.930
  471OcOH   HA112693   0.515   0.368   3.816
  471OcOH   HA212694   0.508   0.450   3.970
  471OcOH    CA12695   0.488   0.355   3.921
  471OcOH   HB112696   0.556   0.150   3.930
  471OcOH   HB212697   0.535   0.226   4.086
  471OcOH    CB12698   0.571   0.243   3.985
  471OcOH   HC112699   0.755   0.299   3.888
  471OcOH   HC212700   0.736   0.368   4.047
  471OcOH    CC12701   0.721   0.277   3.989
  471OcOH   HD112702   0.914   0.187   4.029
  471OcOH   HD212703   0.790   0.072   3.988
  471OcOH    CD12704   0.809   0.163   4.045
  471OcOH   HE112705   0.681   0.116   4.214
  471OcOH   HE212706   0.836   0.038   4.218
  471OcOH    CE12707   0.787   0.132   4.194
  471OcOH   HF112708   0.799   0.337   4.265
  471OcOH   HF212709   0.949   0.249   4.276
  471OcOH    CF12710   0.841   0.240   4.289
  471OcOH   HG112711   0.702   0.206   4.451
  471OcOH   HG212712   0.844   0.107   4.459
  471OcOH    CG12713   0.810   0.208   4.436
  471OcOH   HH112714   0.835   0.408   4.517
  471OcOH   HH212715   0.981   0.310   4.523
  471OcOH   HH312716   0.851   0.280   4.637
  471OcOH    CH12717   0.873   0.307   4.534
  472OcOH    HO12718   3.513   3.381   4.997
  472OcOH    OH12719   3.572   3.338   4.934
  472OcOH   HA112720   3.765   3.277   4.919
  472OcOH   HA212721   3.735   3.393   5.047
  472OcOH    CA12722   3.694   3.305   4.997
  472OcOH   HB112723   3.772   3.148   5.120
  472OcOH   HB212724   3.620   3.108   5.045
  472OcOH    CB12725   3.674   3.189   5.095
  472OcOH   HC112726   3.663   3.303   0.142
  472OcOH   HC212727   3.508   3.276   0.066
  472OcOH    CC12728   3.603   3.228   0.089
  472OcOH   HD112729   3.673   3.055   0.198
  472OcOH   HD212730   3.514   3.037   0.128
  472OcOH    CD12731   3.579   3.107   0.180
  472OcOH   HE112732   3.589   3.200   0.374
  472OcOH   HE212733   3.432   3.213   0.299
  472OcOH    CE12734   3.516   3.145   0.315
  472OcOH   HF112735   3.545   2.946   0.398
  472OcOH   HF212736   3.385   2.976   0.335
  472OcOH    CF12737   3.466   3.021   0.392
  472OcOH   HG112738   3.346   3.138   0.529
  472OcOH   HG212739   3.355   2.969   0.569
  472OcOH    CG12740   3.414   3.053   0.533
  472OcOH   HH112741   3.484   3.098   0.734
  472OcOH   HH212742   3.585   3.167   0.608
  472OcOH   HH312743   3.594   2.995   0.643
  472OcOH    CH12744   3.526   3.080   0.635
  473OcOH    HO12745   2.968   2.630   0.987
  473OcOH    OH12746   2.943   2.591   1.072
  473OcOH   HA112747   2.930   2.401   1.146
  473OcOH   HA212748   2.969   2.412   0.975
  473OcOH    CA12749   2.988   2.458   1.073
  473OcOH   HB112750   3.167   2.346   1.110
  473OcOH   HB212751   3.152   2.487   1.211
  473OcOH    CB12752   3.137   2.451   1.109
  473OcOH   HC112753   3.202   2.506   0.910
  473OcOH   HC212754   3.210   2.636   1.025
  473OcOH    CC12755   3.228   2.529   1.013
  473OcOH   HD112756   3.396   2.394   1.008
  473OcOH   HD212757   3.403   2.507   1.140
  473OcOH    CD12758   3.378   2.499   1.035
  473OcOH   HE112759   3.568   2.538   0.942
  473OcOH   HE212760   3.433   2.598   0.850
  473OcOH    CE12761   3.471   2.588   0.951
  473OcOH   HF112762   3.531   2.714   1.116
  473OcOH   HF212763   3.400   2.779   1.021
  473OcOH    CF12764   3.495   2.726   1.014
  473OcOH   HG112765   3.689   2.757   0.924
  473OcOH   HG212766   3.557   2.827   0.833
  473OcOH    CG12767   3.595   2.811   0.934
  473OcOH   HH112768   3.529   3.005   1.008
  473OcOH   HH212769   3.692   3.006   0.942
  473OcOH   HH312770   3.662   2.935   1.100
  473OcOH    CH12771   3.621   2.947   1.000
  474OcOH    HO12772   1.664   2.360   3.993
  474OcOH    OH12773   1.706   2.274   3.985
  474OcOH   HA112774   1.887   2.369   3.992
  474OcOH   HA212775   1.832   2.302   4.144
  474OcOH    CA12776   1.837   2.283   4.036
  474OcOH   HB112777   1.861   2.069   4.051
  474OcOH   HB212778   2.011   2.159   4.058
  474OcOH    CB12779   1.914   2.154   4.008
  474OcOH   HC112780   1.841   2.119   3.807
  474OcOH   HC212781   1.982   2.220   3.814
  474OcOH    CC12782   1.937   2.131   3.857
  474OcOH   HD112783   2.125   2.024   3.872
  474OcOH   HD212784   2.046   2.011   3.717
  474OcOH    CD12785   2.028   2.011   3.824
  474OcOH   HE112786   1.964   1.867   3.973
  474OcOH   HE212787   1.865   1.868   3.829
  474OcOH    CE12788   1.968   1.875   3.864
  474OcOH   HF112789   2.153   1.766   3.838
  474OcOH   HF212790   2.048   1.762   3.699
  474OcOH    CF12791   2.049   1.757   3.808
  474OcOH   HG112792   2.002   1.613   3.962
  474OcOH   HG212793   1.888   1.614   3.830
  474OcOH    CG12794   1.994   1.621   3.853
  474OcOH   HH112795   2.030   1.408   3.824
  474OcOH   HH212796   2.175   1.507   3.809
  474OcOH   HH312797   2.055   1.505   3.679
  474OcOH    CH12798   2.068   1.504   3.788
  475OcOH    HO12799   1.901   3.438   1.969
  475OcOH    OH12800   1.953   3.480   2.039
  475OcOH   HA112801   2.103   3.360   1.967
  475OcOH   HA212802   2.144   3.452   2.111
  475OcOH    CA12803   2.064   3.395   2.063
  475OcOH   HB112804   2.001   3.314   2.252
  475OcOH   HB212805   2.112   3.213   2.165
  475OcOH    CB12806   2.025   3.277   2.152
  475OcOH   HC112807   1.820   3.256   2.085
  475OcOH   HC212808   1.934   3.159   1.996
  475OcOH    CC12809   1.909   3.193   2.096
  475OcOH   HD112810   1.843   3.107   2.283
  475OcOH   HD212811   1.963   3.011   2.198
  475OcOH    CD12812   1.874   3.073   2.184
  475OcOH   HE112813   1.670   3.046   2.123
  475OcOH   HE212814   1.786   2.966   2.019
  475OcOH    CE12815   1.762   2.987   2.123
  475OcOH   HF112816   1.707   2.876   2.299
  475OcOH   HF212817   1.831   2.799   2.203
  475OcOH    CF12818   1.738   2.855   2.197
  475OcOH   HG112819   1.538   2.824   2.120
  475OcOH   HG212820   1.663   2.749   2.024
  475OcOH    CG12821   1.632   2.769   2.127
  475OcOH   HH112822   1.533   2.576   2.145
  475OcOH   HH212823   1.572   2.651   2.300
  475OcOH   HH312824   1.699   2.576   2.203
  475OcOH    CH12825   1.608   2.635   2.198
  476OcOH    HO12826   4.888   1.768   3.244
  476OcOH    OH12827   4.819   1.817   3.197
  476OcOH   HA112828   4.701   1.790   3.031
  476OcOH   HA212829   4.862   1.719   3.021
  476OcOH    CA12830   4.777   1.737   3.088
  476OcOH   HB112831   4.641   1.626   3.211
  476OcOH   HB212832   4.798   1.552   3.198
  476OcOH    CB12833   4.721   1.604   3.141
  476OcOH   HC112834   4.588   1.565   2.976
  476OcOH   HC212835   4.745   1.493   2.957
  476OcOH    CC12836   4.667   1.513   3.030
  476OcOH   HD112837   4.533   1.401   3.157
  476OcOH   HD212838   4.692   1.329   3.140
  476OcOH    CD12839   4.613   1.380   3.085
  476OcOH   HE112840   4.481   1.339   2.919
  476OcOH   HE212841   4.638   1.264   2.904
  476OcOH    CE12842   4.559   1.287   2.975
  476OcOH   HF112843   4.421   1.181   3.103
  476OcOH   HF212844   4.578   1.105   3.090
  476OcOH    CF12845   4.501   1.157   3.033
  476OcOH   HG112846   4.373   1.115   2.864
  476OcOH   HG212847   4.528   1.035   2.856
  476OcOH    CG12848   4.447   1.063   2.924
  476OcOH   HH112849   4.299   0.959   3.047
  476OcOH   HH212850   4.456   0.879   3.041
  476OcOH   HH312851   4.347   0.871   2.902
  476OcOH    CH12852   4.384   0.936   2.982
  477OcOH    HO12853   4.813   0.720   0.262
  477OcOH    OH12854   4.773   0.782   0.324
  477OcOH   HA112855   4.796   0.985   0.329
  477OcOH   HA212856   4.828   0.910   0.173
  477OcOH    CA12857   4.762   0.908   0.260
  477OcOH   HB112858   4.552   0.925   0.307
  477OcOH   HB212859   4.583   0.853   0.151
  477OcOH    CB12860   4.616   0.932   0.219
  477OcOH   HC112861   4.629   1.147   0.223
  477OcOH   HC212862   4.661   1.077   0.066
  477OcOH    CC12863   4.596   1.069   0.154
  477OcOH   HD112864   4.384   1.081   0.196
  477OcOH   HD212865   4.421   1.025   0.035
  477OcOH    CD12866   4.451   1.097   0.112
  477OcOH   HE112867   4.451   1.311   0.141
  477OcOH   HE212868   4.508   1.261   5.120
  477OcOH    CE12869   4.433   1.240   0.059
  477OcOH   HF112870   4.217   1.239   0.073
  477OcOH   HF212871   4.279   1.197   5.052
  477OcOH    CF12872   4.294   1.265   5.136
  477OcOH   HG112873   4.278   1.476   0.040
  477OcOH   HG212874   4.357   1.439   5.025
  477OcOH    CG12875   4.275   1.410   5.090
  477OcOH   HH112876   4.141   1.374   4.922
  477OcOH   HH212877   4.128   1.536   4.989
  477OcOH   HH312878   4.058   1.399   5.075
  477OcOH    CH12879   4.143   1.431   5.015
  478OcOH    HO12880   0.252   3.453   4.815
  478OcOH    OH12881   0.227   3.510   4.888
  478OcOH   HA112882   0.418   3.462   4.948
  478OcOH   HA212883   0.336   3.583   5.044
  478OcOH    CA12884   0.321   3.489   4.991
  478OcOH   HB112885   0.176   3.411   5.131
  478OcOH   HB212886   0.341   3.375   0.035
  478OcOH    CB12887   0.271   3.381   5.088
  478OcOH   HC112888   0.187   3.251   4.939
  478OcOH   HC212889   0.352   3.212   4.979
  478OcOH    CC12890   0.257   3.243   5.022
  478OcOH   HD112891   0.173   3.048   5.061
  478OcOH   HD212892   0.115   3.171   0.033
  478OcOH    CD12893   0.205   3.135   5.119
  478OcOH   HE112894   0.395   3.045   0.034
  478OcOH   HE212895   0.346   3.173   0.142
  478OcOH    CE12896   0.309   3.088   0.085
  478OcOH   HF112897   0.211   2.900   0.128
  478OcOH   HF212898   0.167   3.029   0.236
  478OcOH    CF12899   0.251   2.985   0.183
  478OcOH   HG112900   0.436   2.885   0.234
  478OcOH   HG212901   0.398   3.020   0.337
  478OcOH    CG12902   0.354   2.935   0.285
  478OcOH   HH112903   0.367   2.806   0.459
  478OcOH   HH212904   0.249   2.752   0.340
  478OcOH   HH312905   0.212   2.889   0.445
  478OcOH    CH12906   0.292   2.840   0.388
  479OcOH    HO12907   0.552   1.634   4.112
  479OcOH    OH12908   0.485   1.598   4.171
  479OcOH   HA112909   0.518   1.404   4.110
  479OcOH   HA212910   0.629   1.468   4.229
  479OcOH    CA12911   0.525   1.466   4.200
  479OcOH   HB112912   0.431   1.480   4.394
  479OcOH   HB212913   0.494   1.323   4.357
  479OcOH    CB12914   0.440   1.407   4.314
  479OcOH   HC112915   0.249   1.437   4.217
  479OcOH   HC212916   0.314   1.277   4.198
  479OcOH    CC12917   0.302   1.358   4.270
  479OcOH   HD112918   0.189   1.397   4.448
  479OcOH   HD212919   0.278   1.248   4.456
  479OcOH    CD12920   0.218   1.310   4.389
  479OcOH   HE112921   0.020   1.237   4.432
  479OcOH   HE212922   0.042   1.281   4.265
  479OcOH    CE12923   0.091   1.232   4.349
  479OcOH   HF112924   0.173   1.039   4.400
  479OcOH   HF212925   0.184   1.077   4.230
  479OcOH    CF12926   0.119   1.085   4.317
  479OcOH   HG112927   5.059   1.016   4.376
  479OcOH   HG212928   5.075   1.045   4.205
  479OcOH    CG12929   5.127   1.005   4.292
  479OcOH   HH112930   0.067   0.811   4.356
  479OcOH   HH212931   0.081   0.839   4.183
  479OcOH   HH312932   5.061   0.801   4.254
  479OcOH    CH12933   0.018   0.855   4.270
  480OcOH    HO12934   3.137   1.276   3.473
  480OcOH    OH12935   3.139   1.181   3.459
  480OcOH   HA112936   3.227   1.021   3.556
  480OcOH   HA212937   3.278   1.178   3.609
  480OcOH    CA12938   3.191   1.121   3.576
  480OcOH   HB112939   3.031   1.216   3.687
  480OcOH   HB212940   3.132   1.110   3.782
  480OcOH    CB12941   3.083   1.120   3.686
  480OcOH   HC112942   2.929   1.016   3.576
  480OcOH   HC212943   3.040   0.912   3.661
  480OcOH    CC12944   2.983   1.005   3.670
  480OcOH   HD112945   2.814   1.076   3.786
  480OcOH   HD212946   2.938   0.997   3.881
  480OcOH    CD12947   2.884   0.992   3.786
  480OcOH   HE112948   2.755   0.850   3.685
  480OcOH   HE212949   2.876   0.776   3.786
  480OcOH    CE12950   2.805   0.859   3.781
  480OcOH   HF112951   2.622   0.919   3.879
  480OcOH   HF212952   2.748   0.871   3.990
  480OcOH    CF12953   2.702   0.846   3.894
  480OcOH   HG112954   2.596   0.679   3.807
  480OcOH   HG212955   2.723   0.632   3.917
  480OcOH    CG12956   2.643   0.705   3.902
  480OcOH   HH112957   2.505   0.586   4.021
  480OcOH   HH212958   2.453   0.752   3.996
  480OcOH   HH312959   2.582   0.717   4.111
  480OcOH    CH12960   2.540   0.689   4.015
  481OcOH    HO12961   3.653   1.747   0.256
  481OcOH    OH12962   3.596   1.724   0.182
  481OcOH   HA112963   3.437   1.837   0.247
  481OcOH   HA212964   3.564   1.924   0.165
  481OcOH    CA12965   3.507   1.831   0.163
  481OcOH   HB112966   3.505   1.808   5.085
  481OcOH   HB212967   3.378   1.909   0.010
  481OcOH    CB12968   3.433   1.817   0.029
  481OcOH   HC112969   3.388   1.605   0.043
  481OcOH   HC212970   3.266   1.709   0.111
  481OcOH    CC12971   3.335   1.699   0.027
  481OcOH   HD112972   3.208   1.786   5.011
  481OcOH   HD212973   3.168   1.621   5.052
  481OcOH    CD12974   3.252   1.689   5.034
  481OcOH   HE112975   3.412   1.707   4.890
  481OcOH   HE212976   3.378   1.543   4.938
  481OcOH    CE12977   3.331   1.638   4.913
  481OcOH   HF112978   3.198   1.717   4.761
  481OcOH   HF212979   3.158   1.555   4.814
  481OcOH    CF12980   3.242   1.620   4.789
  481OcOH   HG112981   3.398   1.629   4.640
  481OcOH   HG212982   3.365   1.468   4.699
  481OcOH    CG12983   3.318   1.562   4.669
  481OcOH   HH112984   3.283   1.493   4.466
  481OcOH   HH212985   3.181   1.628   4.513
  481OcOH   HH312986   3.147   1.466   4.574
  481OcOH    CH12987   3.227   1.536   4.549
  482OcOH    HO12988   3.421   0.653   3.537
  482OcOH    OH12989   3.328   0.647   3.512
  482OcOH   HA112990   3.293   0.476   3.620
  482OcOH   HA212991   3.298   0.625   3.713
  482OcOH    CA12992   3.263   0.581   3.619
  482OcOH   HB112993   3.085   0.701   3.603
  482OcOH   HB212994   3.067   0.559   3.703
  482OcOH    CB12995   3.111   0.595   3.610
  482OcOH   HC112996   3.097   0.553   3.400
  482OcOH   HC212997   3.070   0.413   3.500
  482OcOH    CC12998   3.048   0.519   3.491
  482OcOH   HD112999   2.866   0.512   3.377
  482OcOH   HD213000   2.876   0.649   3.485
  482OcOH    CD13001   2.897   0.542   3.478
  482OcOH   HE113002   2.830   0.359   3.571
  482OcOH   HE213003   2.839   0.495   3.681
  482OcOH    CE13004   2.811   0.466   3.580
  482OcOH   HF113005   2.632   0.471   3.457
  482OcOH   HF213006   2.643   0.601   3.572
  482OcOH    CF13007   2.661   0.494   3.560
  482OcOH   HG113008   2.603   0.431   3.759
  482OcOH   HG213009   2.469   0.462   3.652
  482OcOH    CG13010   2.569   0.418   3.656
  482OcOH   HH113011   2.484   0.220   3.690
  482OcOH   HH213012   2.651   0.216   3.636
  482OcOH   HH313013   2.521   0.253   3.522
  482OcOH    CH13014   2.556   0.268   3.624
  483OcOH    HO13015   5.091   1.639   3.171
  483OcOH    OH13016   5.125   1.631   3.081
  483OcOH   HA113017   0.076   1.490   2.961
  483OcOH   HA213018   0.102   1.468   3.134
  483OcOH    CA13019   0.028   1.497   3.059
  483OcOH   HB113020   4.967   1.444   2.996
  483OcOH   HB213021   4.997   1.412   3.165
  483OcOH    CB13022   5.041   1.406   3.065
  483OcOH   HC113023   5.114   1.255   2.930
  483OcOH   HC213024   0.011   1.221   3.098
  483OcOH    CC13025   5.072   1.260   3.030
  483OcOH   HD113026   4.869   1.217   2.973
  483OcOH   HD213027   4.907   1.173   3.138
  483OcOH    CD13028   4.946   1.173   3.036
  483OcOH   HE113029   5.004   1.027   2.888
  483OcOH   HE213030   5.050   0.983   3.051
  483OcOH    CE13031   4.970   1.028   2.991
  483OcOH   HF113032   4.760   0.994   2.954
  483OcOH   HF213033   4.815   0.936   3.110
  483OcOH    CF13034   4.842   0.943   3.004
  483OcOH   HG113035   4.875   0.808   2.838
  483OcOH   HG213036   4.942   0.751   2.989
  483OcOH    CG13037   4.856   0.802   2.946
  483OcOH   HH113038   4.712   0.705   3.077
  483OcOH   HH213039   4.739   0.619   2.926
  483OcOH   HH313040   4.642   0.766   2.927
  483OcOH    CH13041   4.730   0.718   2.970
  484OcOH    HO13042   2.309   1.451   4.444
  484OcOH    OH13043   2.259   1.466   4.364
  484OcOH   HA113044   2.109   1.374   4.259
  484OcOH   HA213045   2.215   1.268   4.351
  484OcOH    CA13046   2.163   1.363   4.353
  484OcOH   HB113047   2.009   1.462   4.471
  484OcOH   HB213048   2.127   1.374   4.565
  484OcOH    CB13049   2.068   1.369   4.473
  484OcOH   HC113050   2.035   1.156   4.470
  484OcOH   HC213051   1.935   1.242   4.584
  484OcOH    CC13052   1.976   1.247   4.483
  484OcOH   HD113053   1.895   1.262   4.282
  484OcOH   HD213054   1.792   1.331   4.405
  484OcOH    CD13055   1.859   1.247   4.383
  484OcOH   HE113056   1.848   1.033   4.365
  484OcOH   HE213057   1.747   1.098   4.492
  484OcOH    CE13058   1.780   1.115   4.390
  484OcOH   HF113059   1.692   1.127   4.193
  484OcOH   HF213060   1.592   1.194   4.319
  484OcOH    CF13061   1.659   1.111   4.296
  484OcOH   HG113062   1.651   0.895   4.284
  484OcOH   HG213063   1.550   0.963   4.409
  484OcOH    CG13064   1.583   0.978   4.306
  484OcOH   HH113065   1.494   0.981   4.108
  484OcOH   HH213066   1.412   0.875   4.221
  484OcOH   HH313067   1.391   1.050   4.233
  484OcOH    CH13068   1.463   0.971   4.212
  485OcOH    HO13069   3.285   0.625   4.235
  485OcOH    OH13070   3.372   0.661   4.230
  485OcOH   HA113071   3.467   0.838   4.271
  485OcOH   HA213072   3.302   0.854   4.215
  485OcOH    CA13073   3.368   0.794   4.278
  485OcOH   HB113074   3.383   0.731   4.484
  485OcOH   HB213075   3.218   0.758   4.431
  485OcOH    CB13076   3.320   0.797   4.424
  485OcOH   HC113077   3.426   0.978   4.473
  485OcOH   HC213078   3.260   1.004   4.425
  485OcOH    CC13079   3.324   0.938   4.483
  485OcOH   HD113080   3.342   0.876   4.689
  485OcOH   HD213081   3.178   0.912   4.639
  485OcOH    CD13082   3.282   0.945   4.630
  485OcOH   HE113083   3.398   1.121   4.676
  485OcOH   HE213084   3.234   1.155   4.628
  485OcOH    CE13085   3.295   1.087   4.687
  485OcOH   HF113086   3.320   1.033   4.895
  485OcOH   HF213087   3.154   1.059   4.848
  485OcOH    CF13088   3.255   1.097   4.835
  485OcOH   HG113089   3.366   1.278   4.879
  485OcOH   HG213090   3.202   1.306   4.824
  485OcOH    CG13091   3.263   1.241   4.887
  485OcOH   HH113092   3.276   1.194   5.099
  485OcOH   HH213093   3.112   1.225   5.042
  485OcOH   HH313094   3.223   1.359   5.065
  485OcOH    CH13095   3.216   1.255   5.032
  486OcOH    HO13096   2.479   4.343   4.594
  486OcOH    OH13097   2.416   4.378   4.657
  486OcOH   HA113098   2.360   4.185   4.696
  486OcOH   HA213099   2.252   4.310   4.759
  486OcOH    CA13100   2.314   4.281   4.673
  486OcOH   HB113101   2.298   4.255   4.461
  486OcOH   HB213102   2.185   4.370   4.525
  486OcOH    CB13103   2.231   4.274   4.545
  486OcOH   HC113104   2.079   4.158   4.447
  486OcOH   HC213105   2.171   4.067   4.564
  486OcOH    CC13106   2.124   4.164   4.546
  486OcOH   HD113107   1.971   4.287   4.637
  486OcOH   HD213108   2.053   4.183   4.750
  486OcOH    CD13109   2.012   4.187   4.649
  486OcOH   HE113110   1.851   4.093   4.539
  486OcOH   HE213111   1.939   3.983   4.642
  486OcOH    CE13112   1.898   4.084   4.637
  486OcOH   HF113113   1.752   4.203   4.742
  486OcOH   HF213114   1.838   4.091   4.844
  486OcOH    CF13115   1.792   4.101   4.746
  486OcOH   HG113116   1.627   4.014   4.637
  486OcOH   HG213117   1.716   3.899   4.734
  486OcOH    CG13118   1.676   4.001   4.734
  486OcOH   HH113119   1.491   3.945   4.834
  486OcOH   HH213120   1.531   4.116   4.848
  486OcOH   HH313121   1.619   3.997   4.944
  486OcOH    CH13122   1.574   4.015   4.846
  487OcOH    HO13123   4.779   1.634   2.326
  487OcOH    OH13124   4.771   1.663   2.235
  487OcOH   HA113125   4.588   1.754   2.267
  487OcOH   HA213126   4.629   1.720   2.100
  487OcOH    CA13127   4.635   1.680   2.201
  487OcOH   HB113128   4.619   1.470   2.154
  487OcOH   HB213129   4.467   1.553   2.156
  487OcOH    CB13130   4.562   1.545   2.208
  487OcOH   HC113131   4.627   1.504   2.411
  487OcOH   HC213132   4.465   1.567   2.399
  487OcOH    CC13133   4.535   1.498   2.352
  487OcOH   HD113134   4.559   1.286   2.326
  487OcOH   HD213135   4.397   1.342   2.293
  487OcOH    CD13136   4.482   1.355   2.361
  487OcOH   HE113137   4.516   1.343   2.575
  487OcOH   HE213138   4.351   1.377   2.530
  487OcOH    CE13139   4.438   1.317   2.503
  487OcOH   HF113140   4.338   1.136   2.437
  487OcOH   HF213141   4.341   1.157   2.610
  487OcOH    CF13142   4.402   1.168   2.520
  487OcOH   HG113143   4.588   1.087   2.443
  487OcOH   HG213144   4.586   1.108   2.616
  487OcOH    CG13145   4.525   1.077   2.532
  487OcOH   HH113146   4.424   0.914   2.637
  487OcOH   HH213147   4.576   0.867   2.561
  487OcOH   HH313148   4.433   0.891   2.462
  487OcOH    CH13149   4.487   0.929   2.549
  488OcOH    HO13150   4.630   0.706   0.394
  488OcOH    OH13151   4.545   0.672   0.426
  488OcOH   HA113152   4.566   0.818   0.568
  488OcOH   HA213153   4.428   0.712   0.588
  488OcOH    CA13154   4.533   0.715   0.560
  488OcOH   HB113155   4.572   0.524   0.654
  488OcOH   HB213156   4.606   0.661   0.755
  488OcOH    CB13157   4.615   0.624   0.653
  488OcOH   HC113158   4.773   0.561   0.520
  488OcOH   HC213159   4.805   0.714   0.599
  488OcOH    CC13160   4.764   0.614   0.615
  488OcOH   HD113161   4.790   0.457   0.760
  488OcOH   HD213162   4.862   0.608   0.808
  488OcOH    CD13163   4.847   0.542   0.723
  488OcOH   HE113164   5.026   0.430   0.752
  488OcOH   HE213165   4.965   0.421   0.590
  488OcOH    CE13166   4.982   0.490   0.672
  488OcOH   HF113167   5.090   0.674   0.706
  488OcOH   HF213168   5.043   0.649   0.540
  488OcOH    CF13169   5.081   0.598   0.629
  488OcOH   HG113170   0.121   0.489   0.689
  488OcOH   HG213171   0.075   0.462   0.523
  488OcOH    CG13172   0.083   0.539   0.599
  488OcOH   HH113173   0.284   0.599   0.542
  488OcOH   HH213174   0.195   0.724   0.629
  488OcOH   HH313175   0.157   0.689   0.459
  488OcOH    CH13176   0.186   0.644   0.555
  489OcOH    HO13177   3.332   0.409   1.751
  489OcOH    OH13178   3.417   0.405   1.799
  489OcOH   HA113179   3.346   0.557   1.917
  489OcOH   HA213180   3.518   0.524   1.932
  489OcOH    CA13181   3.435   0.531   1.861
  489OcOH   HB113182   3.373   0.662   1.701
  489OcOH   HB213183   3.533   0.597   1.680
  489OcOH    CB13184   3.465   0.638   1.754
  489OcOH   HC113185   3.453   0.816   1.876
  489OcOH   HC213186   3.608   0.738   1.881
  489OcOH    CC13187   3.526   0.765   1.814
  489OcOH   HD113188   3.498   0.889   1.640
  489OcOH   HD213189   3.652   0.807   1.645
  489OcOH    CD13190   3.580   0.860   1.706
  489OcOH   HE113191   3.573   1.046   1.817
  489OcOH   HE213192   3.723   0.959   1.835
  489OcOH    CE13193   3.647   0.987   1.762
  489OcOH   HF113194   3.636   1.097   1.577
  489OcOH   HF213195   3.787   1.012   1.600
  489OcOH    CF13196   3.711   1.072   1.652
  489OcOH   HG113197   3.699   1.263   1.752
  489OcOH   HG213198   3.848   1.178   1.781
  489OcOH    CG13199   3.775   1.201   1.704
  489OcOH   HH113200   3.923   1.223   1.545
  489OcOH   HH213201   3.890   1.372   1.633
  489OcOH   HH313202   3.773   1.312   1.516
  489OcOH    CH13203   3.844   1.281   1.593
  490OcOH    HO13204   3.223   1.850   2.843
  490OcOH    OH13205   3.232   1.811   2.931
  490OcOH   HA113206   3.433   1.845   2.943
  490OcOH   HA213207   3.376   1.708   3.037
  490OcOH    CA13208   3.364   1.761   2.942
  490OcOH   HB113209   3.499   1.636   2.832
  490OcOH   HB213210   3.389   1.725   2.731
  490OcOH    CB13211   3.395   1.668   2.824
  490OcOH   HC113212   3.319   1.480   2.902
  490OcOH   HC213213   3.200   1.577   2.819
  490OcOH    CC13214   3.304   1.544   2.815
  490OcOH   HD113215   3.315   1.532   2.599
  490OcOH   HD213216   3.240   1.394   2.675
  490OcOH    CD13217   3.323   1.464   2.685
  490OcOH   HE113218   3.539   1.453   2.695
  490OcOH   HE213219   3.457   1.314   2.760
  490OcOH    CE13220   3.455   1.386   2.679
  490OcOH   HF113221   3.473   1.389   2.464
  490OcOH   HF213222   3.388   1.249   2.523
  490OcOH    CF13223   3.473   1.314   2.544
  490OcOH   HG113224   3.620   1.205   2.431
  490OcOH   HG213225   3.689   1.296   2.563
  490OcOH    CG13226   3.604   1.233   2.535
  490OcOH   HH113227   3.524   1.038   2.589
  490OcOH   HH213228   3.698   1.052   2.609
  490OcOH   HH313229   3.590   1.126   2.726
  490OcOH    CH13230   3.604   1.105   2.620
  491OcOH    HO13231   1.447   1.467   3.072
  491OcOH    OH13232   1.391   1.533   3.116
  491OcOH   HA113233   1.272   1.525   3.283
  491OcOH   HA213234   1.203   1.455   3.138
  491OcOH    CA13235   1.295   1.465   3.195
  491OcOH   HB113236   1.357   1.264   3.147
  491OcOH   HB213237   1.266   1.277   3.295
  491OcOH    CB13238   1.345   1.326   3.236
  491OcOH   HC113239   1.556   1.368   3.256
  491OcOH   HC213240   1.465   1.392   3.403
  491OcOH    CC13241   1.476   1.326   3.317
  491OcOH   HD113242   1.509   1.116   3.279
  491OcOH   HD213243   1.443   1.151   3.438
  491OcOH    CD13244   1.515   1.185   3.363
  491OcOH   HE113245   1.730   1.197   3.342
  491OcOH   HE213246   1.671   1.260   3.493
  491OcOH    CE13247   1.657   1.179   3.421
  491OcOH   HF113248   1.671   0.964   3.419
  491OcOH   HF213249   1.613   1.029   3.570
  491OcOH    CF13250   1.686   1.045   3.490
  491OcOH   HG113251   1.901   1.046   3.468
  491OcOH   HG213252   1.845   1.122   3.615
  491OcOH    CG13253   1.828   1.037   3.548
  491OcOH   HH113254   1.785   0.899   3.710
  491OcOH   HH213255   1.954   0.903   3.663
  491OcOH   HH313256   1.836   0.820   3.562
  491OcOH    CH13257   1.852   0.907   3.625
  492OcOH    HO13258   1.796   3.785   2.689
  492OcOH    OH13259   1.856   3.758   2.759
  492OcOH   HA113260   1.850   3.743   2.963
  492OcOH   HA213261   1.725   3.843   2.892
  492OcOH    CA13262   1.781   3.751   2.879
  492OcOH   HB113263   1.743   3.541   2.843
  492OcOH   HB213264   1.611   3.646   2.798
  492OcOH    CB13265   1.688   3.629   2.874
  492OcOH   HC113266   1.702   3.588   3.084
  492OcOH   HC213267   1.568   3.692   3.044
  492OcOH    CC13268   1.623   3.603   3.011
  492OcOH   HD113269   1.511   3.454   3.118
  492OcOH   HD213270   1.581   3.394   2.971
  492OcOH    CD13271   1.531   3.480   3.014
  492OcOH   HE113272   1.351   3.595   2.982
  492OcOH   HE213273   1.414   3.520   2.837
  492OcOH    CE13274   1.397   3.504   2.943
  492OcOH   HF113275   1.283   3.370   3.069
  492OcOH   HF213276   1.345   3.295   2.923
  492OcOH    CF13277   1.299   3.387   2.962
  492OcOH   HG113278   1.119   3.502   2.932
  492OcOH   HG213279   1.183   3.430   2.787
  492OcOH    CG13280   1.165   3.412   2.893
  492OcOH   HH113281   1.041   3.280   3.013
  492OcOH   HH213282   1.112   3.201   2.873
  492OcOH   HH313283   0.977   3.311   2.851
  492OcOH    CH13284   1.068   3.294   2.909
  493OcOH    HO13285   0.355   3.245   4.687
  493OcOH    OH13286   0.348   3.341   4.695
  493OcOH   HA113287   0.552   3.358   4.699
  493OcOH   HA213288   0.480   3.349   4.539
  493OcOH    CA13289   0.467   3.392   4.639
  493OcOH   HB113290   0.443   3.585   4.731
  493OcOH   HB213291   0.378   3.576   4.569
  493OcOH    CB13292   0.462   3.545   4.632
  493OcOH   HC113293   0.676   3.566   4.636
  493OcOH   HC213294   0.609   3.566   4.476
  493OcOH    CC13295   0.593   3.603   4.577
  493OcOH   HD113296   0.577   3.793   4.677
  493OcOH   HD213297   0.512   3.793   4.515
  493OcOH    CD13298   0.594   3.756   4.576
  493OcOH   HE113299   0.810   3.767   4.577
  493OcOH   HE213300   0.739   3.784   4.418
  493OcOH    CE13301   0.727   3.813   4.523
  493OcOH   HF113302   0.729   3.993   4.641
  493OcOH   HF213303   0.649   4.011   4.487
  493OcOH    CF13304   0.735   3.965   4.536
  493OcOH   HG113305   0.951   3.976   4.523
  493OcOH   HG213306   0.870   3.995   4.370
  493OcOH    CG13307   0.864   4.022   4.475
  493OcOH   HH113308   0.966   4.211   4.443
  493OcOH   HH213309   0.876   4.204   4.594
  493OcOH   HH313310   0.791   4.224   4.441
  493OcOH    CH13311   0.874   4.174   4.489
  494OcOH    HO13312   2.705   2.188   2.936
  494OcOH    OH13313   2.659   2.245   2.873
  494OcOH   HA113314   2.596   2.438   2.860
  494OcOH   HA213315   2.614   2.377   3.024
  494OcOH    CA13316   2.658   2.377   2.925
  494OcOH   HB113317   2.844   2.428   2.827
  494OcOH   HB213318   2.864   2.368   2.990
  494OcOH    CB13319   2.801   2.432   2.928
  494OcOH   HC113320   2.738   2.638   2.923
  494OcOH   HC213321   2.771   2.578   3.084
  494OcOH    CC13322   2.807   2.576   2.980
  494OcOH   HD113323   2.980   2.642   2.869
  494OcOH   HD213324   3.018   2.569   3.022
  494OcOH    CD13325   2.948   2.637   2.973
  494OcOH   HE113326   2.934   2.769   3.144
  494OcOH   HE213327   3.065   2.804   3.036
  494OcOH    CE13328   2.960   2.775   3.039
  494OcOH   HF113329   2.771   2.865   2.985
  494OcOH   HF213330   2.895   2.883   2.863
  494OcOH    CF13331   2.877   2.885   2.971
  494OcOH   HG113332   2.899   3.026   3.134
  494OcOH   HG213333   3.014   3.049   3.004
  494OcOH    CG13334   2.910   3.025   3.025
  494OcOH   HH113335   2.717   3.120   2.994
  494OcOH   HH213336   2.826   3.134   2.856
  494OcOH   HH313337   2.851   3.233   2.999
  494OcOH    CH13338   2.821   3.134   2.965
  495OcOH    HO13339   1.595   0.345   4.522
  495OcOH    OH13340   1.677   0.308   4.487
  495OcOH   HA113341   1.627   0.128   4.567
  495OcOH   HA213342   1.798   0.148   4.532
  495OcOH    CA13343   1.710   0.199   4.570
  495OcOH   HB113344   1.652   0.318   4.740
  495OcOH   HB213345   1.825   0.308   4.718
  495OcOH    CB13346   1.733   0.249   4.713
  495OcOH   HC113347   1.709   0.179   4.915
  495OcOH   HC213348   1.656   0.065   4.795
  495OcOH    CC13349   1.735   0.137   4.818
  495OcOH   HD113350   1.940   0.134   4.880
  495OcOH   HD213351   1.912   0.043   4.734
  495OcOH    CD13352   1.870   0.066   4.832
  495OcOH   HE113353   1.783   5.084   4.992
  495OcOH   HE213354   1.818   4.995   4.847
  495OcOH    CE13355   1.857   5.072   4.913
  495OcOH   HF113356   2.070   5.028   4.902
  495OcOH   HF213357   1.978   4.919   5.001
  495OcOH    CF13358   1.989   5.024   4.975
  495OcOH   HG113359   2.054   0.067   5.078
  495OcOH   HG213360   1.939   5.108   0.032
  495OcOH    CG13361   2.026   5.101   5.103
  495OcOH   HH113362   2.160   5.091   0.137
  495OcOH   HH213363   2.232   5.031   5.124
  495OcOH   HH313364   2.114   4.934   0.074
  495OcOH    CH13365   2.140   5.036   0.045
  496OcOH    HO13366   2.444   1.583   3.320
  496OcOH    OH13367   2.453   1.622   3.232
  496OcOH   HA113368   2.573   1.599   3.067
  496OcOH   HA213369   2.638   1.534   3.217
  496OcOH    CA13370   2.546   1.546   3.159
  496OcOH   HB113371   2.388   1.424   3.078
  496OcOH   HB213372   2.465   1.355   3.218
  496OcOH    CB13373   2.484   1.409   3.125
  496OcOH   HC113374   2.592   1.378   2.940
  496OcOH   HC213375   2.669   1.308   3.080
  496OcOH    CC13376   2.573   1.324   3.033
  496OcOH   HD113377   2.417   1.204   2.942
  496OcOH   HD213378   2.476   1.141   3.093
  496OcOH    CD13379   2.508   1.188   3.000
  496OcOH   HE113380   2.633   1.137   2.831
  496OcOH   HE213381   2.693   1.080   2.983
  496OcOH    CE13382   2.602   1.093   2.925
  496OcOH   HF113383   2.471   0.962   2.813
  496OcOH   HF213384   2.473   0.929   2.984
  496OcOH    CF13385   2.537   0.955   2.900
  496OcOH   HG113386   2.691   0.822   2.973
  496OcOH   HG213387   2.582   0.749   2.859
  496OcOH    CG13388   2.637   0.840   2.880
  496OcOH   HH113389   2.687   0.889   2.673
  496OcOH   HH213390   2.798   0.774   2.749
  496OcOH   HH313391   2.806   0.944   2.792
  496OcOH    CH13392   2.738   0.864   2.767
  497OcOH    HO13393   3.263   1.757   2.379
  497OcOH    OH13394   3.199   1.744   2.448
  497OcOH   HA113395   2.994   1.738   2.468
  497OcOH   HA213396   3.056   1.868   2.369
  497OcOH    CA13397   3.070   1.763   2.393
  497OcOH   HB113398   3.132   1.697   2.195
  497OcOH   HB213399   2.960   1.708   2.218
  497OcOH    CB13400   3.052   1.677   2.267
  497OcOH   HC113401   3.139   1.492   2.338
  497OcOH   HC213402   2.970   1.511   2.376
  497OcOH    CC13403   3.044   1.527   2.297
  497OcOH   HD113404   3.085   1.448   2.099
  497OcOH   HD213405   2.918   1.487   2.128
  497OcOH    CD13406   3.006   1.443   2.174
  497OcOH   HE113407   3.067   1.247   2.243
  497OcOH   HE213408   2.907   1.294   2.294
  497OcOH    CE13409   2.975   1.297   2.209
  497OcOH   HF113410   2.980   1.216   2.008
  497OcOH   HF213411   2.823   1.271   2.060
  497OcOH    CF13412   2.912   1.219   2.093
  497OcOH   HG113413   2.964   1.018   2.155
  497OcOH   HG213414   2.816   1.078   2.226
  497OcOH    CG13415   2.874   1.076   2.134
  497OcOH   HH113416   2.767   0.902   2.057
  497OcOH   HH213417   2.845   0.998   1.932
  497OcOH   HH313418   2.697   1.055   2.009
  497OcOH    CH13419   2.791   1.003   2.026
  498OcOH    HO13420   0.507   3.037   4.664
  498OcOH    OH13421   0.418   3.074   4.669
  498OcOH   HA113422   0.401   2.970   4.846
  498OcOH   HA213423   0.260   3.061   4.795
  498OcOH    CA13424   0.341   2.997   4.759
  498OcOH   HB113425   0.367   2.809   4.657
  498OcOH   HB213426   0.233   2.903   4.597
  498OcOH    CB13427   0.284   2.873   4.689
  498OcOH   HC113428   0.161   2.700   4.722
  498OcOH   HC213429   0.237   2.760   4.868
  498OcOH    CC13430   0.187   2.791   4.776
  498OcOH   HD113431   0.017   2.910   4.718
  498OcOH   HD213432   0.080   2.953   4.874
  498OcOH    CD13433   0.058   2.868   4.809
  498OcOH   HE113434   5.058   2.701   4.811
  498OcOH   HE213435   5.128   2.735   4.967
  498OcOH    CE13436   5.087   2.782   4.877
  498OcOH   HF113437   4.927   2.917   4.826
  498OcOH   HF213438   4.994   2.943   4.985
  498OcOH    CF13439   4.964   2.865   4.915
  498OcOH   HG113440   4.819   2.705   4.907
  498OcOH   HG213441   4.886   2.731   5.066
  498OcOH    CG13442   4.850   2.783   4.977
  498OcOH   HH113443   4.756   2.951   5.079
  498OcOH   HH213444   4.652   2.810   5.062
  498OcOH   HH313445   4.685   2.913   4.923
  498OcOH    CH13446   4.729   2.869   5.012
  499OcOH    HO13447   2.877   1.579   3.357
  499OcOH    OH13448   2.880   1.593   3.453
  499OcOH   HA113449   2.715   1.472   3.478
  499OcOH   HA213450   2.869   1.390   3.482
  499OcOH    CA13451   2.817   1.481   3.513
  499OcOH   HB113452   2.772   1.588   3.697
  499OcOH   HB213453   2.927   1.508   3.696
  499OcOH    CB13454   2.823   1.497   3.666
  499OcOH   HC113455   2.656   1.369   3.711
  499OcOH   HC213456   2.807   1.285   3.697
  499OcOH    CC13457   2.762   1.375   3.737
  499OcOH   HD113458   2.727   1.285   3.927
  499OcOH   HD213459   2.720   1.459   3.933
  499OcOH    CD13460   2.776   1.376   3.890
  499OcOH   HE113461   2.983   1.313   3.880
  499OcOH   HE213462   2.962   1.479   3.928
  499OcOH    CE13463   2.921   1.379   3.941
  499OcOH   HF113464   2.903   1.231   4.096
  499OcOH   HF213465   2.864   1.392   4.149
  499OcOH    CF13466   2.934   1.335   4.087
  499OcOH   HG113467   3.146   1.300   4.075
  499OcOH   HG213468   3.105   1.458   4.138
  499OcOH    CG13469   3.077   1.352   4.141
  499OcOH   HH113470   3.025   1.348   4.353
  499OcOH   HH213471   3.195   1.316   4.320
  499OcOH   HH313472   3.074   1.192   4.287
  499OcOH    CH13473   3.093   1.299   4.283
  500OcOH    HO13474   3.490   3.271   4.790
  500OcOH    OH13475   3.428   3.245   4.722
  500OcOH   HA113476   3.337   3.117   4.854
  500OcOH   HA213477   3.269   3.280   4.846
  500OcOH    CA13478   3.311   3.198   4.786
  500OcOH   HB113479   3.246   3.058   4.635
  500OcOH   HB213480   3.205   3.224   4.600
  500OcOH    CB13481   3.210   3.150   4.681
  500OcOH   HC113482   3.074   3.061   4.823
  500OcOH   HC213483   3.035   3.225   4.780
  500OcOH    CC13484   3.069   3.130   4.739
  500OcOH   HD113485   2.869   3.073   4.687
  500OcOH   HD213486   2.991   2.976   4.609
  500OcOH    CD13487   2.966   3.079   4.637
  500OcOH   HE113488   2.946   3.271   4.538
  500OcOH   HE213489   3.044   3.155   4.451
  500OcOH    CE13490   2.953   3.165   4.511
  500OcOH   HF113491   2.741   3.140   4.481
  500OcOH   HF213492   2.839   3.021   4.398
  500OcOH    CF13493   2.833   3.127   4.424
  500OcOH   HG113494   2.822   3.317   4.320
  500OcOH   HG213495   2.916   3.196   4.236
  500OcOH    CG13496   2.825   3.211   4.295
  500OcOH   HH113497   2.703   3.071   4.180
  500OcOH   HH213498   2.703   3.235   4.117
  500OcOH   HH313499   2.610   3.197   4.262
  500OcOH    CH13500   2.703   3.176   4.209
  501OcOH    HO13501   4.064   1.978   0.621
  501OcOH    OH13502   4.120   1.989   0.697
  501OcOH   HA113503   4.102   2.068   0.887
  501OcOH   HA213504   3.976   2.112   0.774
  501OcOH    CA13505   4.040   2.029   0.806
  501OcOH   HB113506   3.892   1.872   0.776
  501OcOH   HB213507   3.877   1.961   0.924
  501OcOH    CB13508   3.950   1.915   0.857
  501OcOH   HC113509   4.109   1.850   0.990
  501OcOH   HC213510   3.956   1.772   1.016
  501OcOH    CC13511   4.024   1.807   0.938
  501OcOH   HD113512   4.138   1.715   0.778
  501OcOH   HD213513   3.981   1.643   0.803
  501OcOH    CD13514   4.068   1.684   0.855
  501OcOH   HE113515   4.222   1.615   0.989
  501OcOH   HE213516   4.063   1.555   1.028
  501OcOH    CE13517   4.130   1.576   0.945
  501OcOH   HF113518   4.225   1.462   0.787
  501OcOH   HF213519   4.067   1.404   0.831
  501OcOH    CF13520   4.160   1.444   0.872
  501OcOH   HG113521   4.317   1.381   1.006
  501OcOH   HG213522   4.158   1.324   1.051
  501OcOH    CG13523   4.224   1.341   0.966
  501OcOH   HH113524   4.322   1.220   0.814
  501OcOH   HH213525   4.161   1.162   0.859
  501OcOH   HH313526   4.298   1.137   0.967
  501OcOH    CH13527   4.253   1.207   0.897
  502OcOH    HO13528   1.148   2.229   3.587
  502OcOH    OH13529   1.220   2.254   3.646
  502OcOH   HA113530   1.425   2.264   3.638
  502OcOH   HA213531   1.349   2.155   3.522
  502OcOH    CA13532   1.339   2.252   3.571
  502OcOH   HB113533   1.325   2.461   3.521
  502OcOH   HB213534   1.244   2.356   3.408
  502OcOH    CB13535   1.334   2.366   3.468
  502OcOH   HC113536   1.547   2.382   3.435
  502OcOH   HC213537   1.466   2.275   3.323
  502OcOH    CC13538   1.456   2.371   3.375
  502OcOH   HD113539   1.438   2.580   3.326
  502OcOH   HD213540   1.353   2.474   3.217
  502OcOH    CD13541   1.446   2.485   3.273
  502OcOH   HE113542   1.576   2.397   3.124
  502OcOH   HE213543   1.535   2.564   3.096
  502OcOH    CE13544   1.562   2.493   3.174
  502OcOH   HF113545   1.730   2.465   3.307
  502OcOH   HF213546   1.677   2.631   3.294
  502OcOH    CF13547   1.694   2.540   3.236
  502OcOH   HG113548   1.824   2.474   3.076
  502OcOH   HG213549   1.765   2.638   3.057
  502OcOH    CG13550   1.802   2.566   3.131
  502OcOH   HH113551   2.004   2.645   3.113
  502OcOH   HH213552   1.978   2.549   3.258
  502OcOH   HH313553   1.913   2.713   3.248
  502OcOH    CH13554   1.932   2.621   3.191
  503OcOH    HO13555   1.269   3.068   3.970
  503OcOH    OH13556   1.307   3.073   4.059
  503OcOH   HA113557   1.494   3.068   4.143
  503OcOH   HA213558   1.481   2.998   3.982
  503OcOH    CA13559   1.447   3.080   4.045
  503OcOH   HB113560   1.450   3.296   4.048
  503OcOH   HB213561   1.439   3.229   3.888
  503OcOH    CB13562   1.487   3.216   3.984
  503OcOH   HC113563   1.689   3.212   4.062
  503OcOH   HC213564   1.675   3.153   3.898
  503OcOH    CC13565   1.639   3.230   3.966
  503OcOH   HD113566   1.643   3.444   3.984
  503OcOH   HD213567   1.627   3.390   3.819
  503OcOH    CD13568   1.679   3.369   3.913
  503OcOH   HE113569   1.850   3.495   3.886
  503OcOH   HE213570   1.883   3.356   3.985
  503OcOH    CE13571   1.830   3.388   3.895
  503OcOH   HF113572   1.834   3.351   3.683
  503OcOH   HF213573   1.870   3.210   3.778
  503OcOH    CF13574   1.887   3.317   3.771
  503OcOH   HG113575   2.057   3.450   3.750
  503OcOH   HG213576   2.092   3.304   3.839
  503OcOH    CG13577   2.038   3.343   3.753
  503OcOH   HH113578   2.201   3.298   3.616
  503OcOH   HH213579   2.045   3.317   3.536
  503OcOH   HH313580   2.080   3.170   3.627
  503OcOH    CH13581   2.094   3.278   3.625
  504OcOH    HO13582   3.526   0.797   3.134
  504OcOH    OH13583   3.576   0.772   3.056
  504OcOH   HA113584   3.454   0.610   3.044
  504OcOH   HA213585   3.404   0.748   2.947
  504OcOH    CA13586   3.491   0.690   2.979
  504OcOH   HB113587   3.499   0.550   2.818
  504OcOH   HB213588   3.654   0.578   2.892
  504OcOH    CB13589   3.563   0.628   2.859
  504OcOH   HC113590   3.504   0.781   2.719
  504OcOH   HC213591   3.665   0.803   2.783
  504OcOH    CC13592   3.595   0.728   2.746
  504OcOH   HD113593   3.583   0.580   2.590
  504OcOH   HD213594   3.745   0.607   2.650
  504OcOH    CD13595   3.653   0.658   2.622
  504OcOH   HE113596   3.589   0.809   2.482
  504OcOH   HE213597   3.755   0.826   2.533
  504OcOH    CE13598   3.679   0.752   2.505
  504OcOH   HF113599   3.650   0.602   2.353
  504OcOH   HF213600   3.817   0.623   2.400
  504OcOH    CF13601   3.725   0.677   2.379
  504OcOH   HG113602   3.654   0.824   2.237
  504OcOH   HG213603   3.822   0.845   2.282
  504OcOH    CG13604   3.747   0.769   2.258
  504OcOH   HH113605   3.714   0.620   2.103
  504OcOH   HH213606   3.883   0.640   2.148
  504OcOH   HH313607   3.804   0.762   2.049
  504OcOH    CH13608   3.789   0.693   2.132
  505OcOH    HO13609   2.225   0.001   3.740
  505OcOH    OH13610   2.216   0.097   3.744
  505OcOH   HA113611   2.106   0.234   3.851
  505OcOH   HA213612   2.046   0.069   3.854
  505OcOH    CA13613   2.137   0.129   3.856
  505OcOH   HB113614   2.240   5.133   3.992
  505OcOH   HB213615   2.146   0.121   4.071
  505OcOH    CB13616   2.213   0.102   3.987
  505OcOH   HC113617   2.409   0.165   3.921
  505OcOH   HC213618   2.312   0.294   3.988
  505OcOH    CC13619   2.339   0.189   4.001
  505OcOH   HD113620   2.435   0.066   4.151
  505OcOH   HD213621   2.341   0.197   4.217
  505OcOH    CD13622   2.410   0.171   4.137
  505OcOH   HE113623   2.604   0.234   4.065
  505OcOH   HE213624   2.509   0.363   4.135
  505OcOH    CE13625   2.536   0.258   4.148
  505OcOH   HF113626   2.641   0.136   4.292
  505OcOH   HF213627   2.540   0.260   4.364
  505OcOH    CF13628   2.609   0.240   4.281
  505OcOH   HG113629   2.800   0.313   4.211
  505OcOH   HG213630   2.699   0.436   4.283
  505OcOH    CG13631   2.731   0.333   4.293
  505OcOH   HH113632   2.889   0.386   4.433
  505OcOH   HH213633   2.846   0.215   4.437
  505OcOH   HH313634   2.739   0.335   4.511
  505OcOH    CH13635   2.805   0.316   4.427
  506OcOH    HO13636   3.826   1.888   0.392
  506OcOH    OH13637   3.763   1.816   0.384
  506OcOH   HA113638   3.845   1.643   0.457
  506OcOH   HA213639   3.850   1.780   0.566
  506OcOH    CA13640   3.788   1.729   0.493
  506OcOH   HB113641   3.679   1.613   0.636
  506OcOH   HB213642   3.597   1.628   0.483
  506OcOH    CB13643   3.656   1.683   0.556
  506OcOH   HC113644   3.634   1.860   0.678
  506OcOH   HC213645   3.540   1.864   0.531
  506OcOH    CC13646   3.572   1.799   0.613
  506OcOH   HD113647   3.482   1.688   0.774
  506OcOH   HD213648   3.389   1.684   0.626
  506OcOH    CD13649   3.449   1.749   0.690
  506OcOH   HE113650   3.422   1.930   0.805
  506OcOH   HE213651   3.327   1.924   0.659
  506OcOH    CE13652   3.361   1.864   0.743
  506OcOH   HF113653   3.274   1.751   0.905
  506OcOH   HF213654   3.178   1.751   0.759
  506OcOH    CF13655   3.240   1.815   0.823
  506OcOH   HG113656   3.218   1.994   0.942
  506OcOH   HG213657   3.120   1.993   0.797
  506OcOH    CG13658   3.156   1.930   0.879
  506OcOH   HH113659   2.979   1.965   1.001
  506OcOH   HH213660   3.067   1.819   1.045
  506OcOH   HH313661   2.967   1.822   0.899
  506OcOH    CH13662   3.035   1.881   0.961
  507OcOH    HO13663   4.589   2.058   2.329
  507OcOH    OH13664   4.533   2.051   2.408
  507OcOH   HA113665   4.706   2.105   2.503
  507OcOH   HA213666   4.569   2.080   2.608
  507OcOH    CA13667   4.619   2.041   2.520
  507OcOH   HB113668   4.745   1.895   2.616
  507OcOH   HB213669   4.708   1.858   2.450
  507OcOH    CB13670   4.665   1.896   2.542
  507OcOH   HC113671   4.466   1.813   2.525
  507OcOH   HC213672   4.588   1.698   2.574
  507OcOH    CC13673   4.553   1.800   2.589
  507OcOH   HD113674   4.488   1.921   2.756
  507OcOH   HD213675   4.599   1.795   2.800
  507OcOH    CD13676   4.514   1.817   2.736
  507OcOH   HE113677   4.315   1.740   2.703
  507OcOH   HE213678   4.426   1.622   2.769
  507OcOH    CE13679   4.395   1.727   2.775
  507OcOH   HF113680   4.314   1.862   2.923
  507OcOH   HF213681   4.421   1.742   2.990
  507OcOH    CF13682   4.342   1.757   2.916
  507OcOH   HG113683   4.142   1.683   2.878
  507OcOH   HG213684   4.249   1.564   2.948
  507OcOH    CG13685   4.221   1.669   2.952
  507OcOH   HH113686   4.240   1.684   3.169
  507OcOH   HH213687   4.080   1.637   3.115
  507OcOH   HH313688   4.132   1.804   3.098
  507OcOH    CH13689   4.165   1.700   3.092
  508OcOH    HO13690   3.736   4.899   3.459
  508OcOH    OH13691   3.800   4.938   3.520
  508OcOH   HA113692   3.662   5.087   3.554
  508OcOH   HA213693   3.667   4.959   3.675
  508OcOH    CA13694   3.729   5.021   3.610
  508OcOH   HB113695   3.895   5.036   3.748
  508OcOH   HB213696   3.771   0.020   3.770
  508OcOH    CB13697   3.828   5.103   3.694
  508OcOH   HC113698   3.970   0.014   3.538
  508OcOH   HC213699   3.840   0.129   3.553
  508OcOH    CC13700   3.909   0.068   3.611
  508OcOH   HD113701   4.073   0.096   3.748
  508OcOH   HD213702   3.938   0.203   3.777
  508OcOH    CD13703   3.998   0.157   3.698
  508OcOH   HE113704   4.123   0.222   3.535
  508OcOH   HE213705   3.990   0.330   3.570
  508OcOH    CE13706   4.067   0.268   3.616
  508OcOH   HF113707   4.237   0.293   3.747
  508OcOH   HF213708   4.103   0.400   3.783
  508OcOH    CF13709   4.160   0.355   3.701
  508OcOH   HG113710   4.282   0.422   3.536
  508OcOH   HG213711   4.149   0.529   3.573
  508OcOH    CG13712   4.226   0.466   3.618
  508OcOH   HH113713   4.399   0.494   3.748
  508OcOH   HH213714   4.266   0.606   3.781
  508OcOH   HH313715   4.368   0.629   3.640
  508OcOH    CH13716   4.320   0.554   3.702
  509OcOH    HO13717   4.148   2.809   3.670
  509OcOH    OH13718   4.087   2.742   3.640
  509OcOH   HA113719   4.238   2.602   3.644
  509OcOH   HA213720   4.144   2.615   3.791
  509OcOH    CA13721   4.137   2.616   3.683
  509OcOH   HB113722   3.941   2.530   3.664
  509OcOH   HB213723   4.067   2.412   3.685
  509OcOH    CB13724   4.043   2.505   3.634
  509OcOH   HC113725   3.949   2.455   3.445
  509OcOH   HC213726   4.066   2.582   3.434
  509OcOH    CC13727   4.047   2.485   3.481
  509OcOH   HD113728   4.249   2.406   3.481
  509OcOH   HD213729   4.170   2.400   3.326
  509OcOH    CD13730   4.153   2.385   3.433
  509OcOH   HE113731   4.091   2.221   3.560
  509OcOH   HE213732   4.019   2.219   3.401
  509OcOH    CE13733   4.112   2.238   3.455
  509OcOH   HF113734   4.312   2.156   3.462
  509OcOH   HF213735   4.241   2.156   3.302
  509OcOH    CF13736   4.219   2.139   3.407
  509OcOH   HG113737   4.149   1.975   3.531
  509OcOH   HG213738   4.085   1.974   3.368
  509OcOH    CG13739   4.176   1.993   3.426
  509OcOH   HH113740   4.248   1.791   3.394
  509OcOH   HH213741   4.373   1.903   3.446
  509OcOH   HH313742   4.314   1.908   3.280
  509OcOH    CH13743   4.284   1.893   3.384
  510OcOH    HO13744   1.085   3.099   3.816
  510OcOH    OH13745   1.177   3.073   3.801
  510OcOH   HA113746   1.243   3.261   3.757
  510OcOH   HA213747   1.339   3.130   3.691
  510OcOH    CA13748   1.237   3.163   3.710
  510OcOH   HB113749   1.061   3.219   3.595
  510OcOH   HB213750   1.136   3.071   3.542
  510OcOH    CB13751   1.158   3.172   3.578
  510OcOH   HC113752   1.327   3.193   3.445
  510OcOH   HC213753   1.175   3.242   3.375
  510OcOH    CC13754   1.234   3.246   3.466
  510OcOH   HD113755   1.321   3.399   3.592
  510OcOH   HD213756   1.170   3.446   3.516
  510OcOH    CD13757   1.264   3.394   3.499
  510OcOH   HE113758   1.434   3.409   3.366
  510OcOH   HE213759   1.285   3.471   3.299
  510OcOH    CE13760   1.344   3.466   3.390
  510OcOH   HF113761   1.447   3.601   3.523
  510OcOH   HF213762   1.296   3.664   3.463
  510OcOH    CF13763   1.385   3.608   3.434
  510OcOH   HG113764   1.550   3.629   3.297
  510OcOH   HG213765   1.399   3.692   3.236
  510OcOH    CG13766   1.460   3.685   3.325
  510OcOH   HH113767   1.565   3.821   3.458
  510OcOH   HH213768   1.414   3.886   3.396
  510OcOH   HH313769   1.556   3.878   3.292
  510OcOH    CH13770   1.501   3.826   3.371
  511OcOH    HO13771   2.597   1.705   0.686
  511OcOH    OH13772   2.649   1.627   0.662
  511OcOH   HA113773   2.732   1.694   0.487
  511OcOH   HA213774   2.802   1.762   0.633
  511OcOH    CA13775   2.762   1.670   0.589
  511OcOH   HB113776   2.825   1.467   0.556
  511OcOH   HB213777   2.898   1.543   0.695
  511OcOH    CB13778   2.868   1.560   0.592
  511OcOH   HC113779   2.962   1.602   0.402
  511OcOH   HC213780   3.031   1.691   0.535
  511OcOH    CC13781   2.992   1.593   0.507
  511OcOH   HD113782   3.060   1.388   0.507
  511OcOH   HD213783   3.142   1.490   0.623
  511OcOH    CD13784   3.103   1.488   0.521
  511OcOH   HE113785   3.176   1.499   0.320
  511OcOH   HE213786   3.257   1.609   0.429
  511OcOH    CE13787   3.217   1.507   0.420
  511OcOH   HF113788   3.291   1.305   0.444
  511OcOH   HF213789   3.377   1.424   0.538
  511OcOH    CF13790   3.331   1.406   0.440
  511OcOH   HG113791   3.469   1.518   0.317
  511OcOH   HG213792   3.529   1.362   0.367
  511OcOH    CG13793   3.439   1.414   0.332
  511OcOH   HH113794   3.309   1.403   0.158
  511OcOH   HH213795   3.374   1.247   0.208
  511OcOH   HH313796   3.476   1.364   0.124
  511OcOH    CH13797   3.397   1.353   0.198
  512OcOH    HO13798   4.354   3.584   3.053
  512OcOH    OH13799   4.323   3.498   3.021
  512OcOH   HA113800   4.347   3.379   2.857
  512OcOH   HA213801   4.390   3.548   2.833
  512OcOH    CA13802   4.395   3.465   2.904
  512OcOH   HB113803   4.590   3.392   2.850
  512OcOH   HB213804   4.543   3.351   3.013
  512OcOH    CB13805   4.541   3.431   2.939
  512OcOH   HC113806   4.618   3.631   2.917
  512OcOH   HC213807   4.571   3.592   3.080
  512OcOH    CC13808   4.620   3.552   2.991
  512OcOH   HD113809   4.816   3.474   2.944
  512OcOH   HD213810   4.765   3.443   3.108
  512OcOH    CD13811   4.765   3.518   3.029
  512OcOH   HE113812   4.847   3.714   2.994
  512OcOH   HE213813   4.785   3.692   3.155
  512OcOH    CE13814   4.842   3.643   3.076
  512OcOH   HF113815   5.038   3.556   3.049
  512OcOH   HF213816   4.975   3.542   3.211
  512OcOH    CF13817   4.983   3.610   3.126
  512OcOH   HG113818   5.007   3.792   3.241
  512OcOH   HG213819   0.017   3.700   3.221
  512OcOH    CG13820   5.064   3.733   3.169
  512OcOH   HH113821   0.036   3.902   3.085
  512OcOH   HH213822   5.021   3.869   3.003
  512OcOH   HH313823   0.024   3.765   2.976
  512OcOH    CH13824   5.107   3.822   3.051
   5.13652   5.13652   5.13652
