Georgetown Riga Oslo Madrid Amsterdam Chisinau Stockholm
 5616
    1c2      cw    1   0.621   4.104   3.570
    1c2      na    2   0.546   3.991   3.544
    1c2      cr    3   0.616   3.914   3.463
    1c2      na    4   0.731   3.971   3.436
    1c2      cw    5   0.736   4.091   3.503
    1c2      c3    6   0.416   3.962   3.595
    1c2      c5    7   0.833   3.922   3.349
    1c2      c4    8   0.780   3.806   3.263
    1c2      hb    9   0.585   4.184   3.633
    1c2      hb   10   0.822   4.157   3.497
    1c2      ha   11   0.581   3.818   3.426
    2c2      cw   12   3.572   3.748   2.526
    2c2      na   13   3.494   3.856   2.492
    2c2      cr   14   3.384   3.811   2.437
    2c2      na   15   3.388   3.680   2.429
    2c2      cw   16   3.506   3.638   2.488
    2c2      c3   17   3.528   3.994   2.512
    2c2      c5   18   3.291   3.596   2.367
    2c2      c4   19   3.196   3.535   2.472
    2c2      hb   20   3.668   3.760   2.574
    2c2      hb   21   3.532   3.534   2.496
    2c2      ha   22   3.303   3.874   2.403
    3c2      cw   23   2.842   4.039   2.315
    3c2      na   24   2.839   3.954   2.207
    3c2      cr   25   2.847   4.026   2.097
    3c2      na   26   2.852   4.154   2.129
    3c2      cw   27   2.851   4.164   2.266
    3c2      c3   28   2.832   3.811   2.212
    3c2      c5   29   2.866   4.262   2.036
    3c2      c4   30   2.732   4.335   2.015
    3c2      hb   31   2.838   4.003   2.416
    3c2      hb   32   2.859   4.259   2.318
    3c2      ha   33   2.851   3.986   1.997
    4c2      cw   34   1.535   4.449   2.381
    4c2      na   35   1.661   4.395   2.367
    4c2      cr   36   1.741   4.457   2.450
    4c2      na   37   1.674   0.033   2.518
    4c2      cw   38   1.543   0.030   2.475
    4c2      c3   39   1.696   4.289   2.277
    4c2      c5   40   1.727   0.120   2.618
    4c2      c4   41   1.712   0.056   2.757
    4c2      hb   42   1.451   4.413   2.323
    4c2      hb   43   1.466   0.095   2.514
    4c2      ha   44   1.847   4.437   2.459
    5c2      cw   45   1.186   2.840   1.857
    5c2      na   46   1.132   2.928   1.948
    5c2      cr   47   1.018   2.973   1.898
    5c2      na   48   0.996   2.917   1.782
    5c2      cw   49   1.101   2.833   1.754
    5c2      c3   50   1.190   2.965   2.073
    5c2      c5   51   0.881   2.938   1.699
    5c2      c4   52   0.923   2.974   1.556
    5c2      hb   53   1.281   2.790   1.874
    5c2      hb   54   1.110   2.774   1.663
    5c2      ha   55   0.954   3.045   1.948
    6c2      cw   56   1.201   0.723   4.024
    6c2      na   57   1.320   0.793   4.018
    6c2      cr   58   1.341   0.849   4.135
    6c2      na   59   1.241   0.821   4.216
    6c2      cw   60   1.151   0.742   4.147
    6c2      c3   61   1.409   0.797   3.906
    6c2      c5   62   1.226   0.861   4.352
    6c2      c4   63   1.233   1.015   4.363
    6c2      hb   64   1.164   0.666   3.941
    6c2      hb   65   1.060   0.706   4.194
    6c2      ha   66   1.429   0.908   4.159
    7c2      cw   67   3.666   0.324   3.309
    7c2      na   68   3.761   0.408   3.363
    7c2      cr   69   3.863   0.335   3.403
    7c2      na   70   3.839   0.208   3.378
    7c2      cw   71   3.716   0.200   3.316
    7c2      c3   72   3.748   0.550   3.375
    7c2      c5   73   3.924   0.098   3.408
    7c2      c4   74   3.928   0.074   3.560
    7c2      hb   75   3.572   0.359   3.270
    7c2      hb   76   3.672   0.107   3.283
    7c2      ha   77   3.952   0.375   3.450
    8c2      cw   78   0.933   2.533   2.659
    8c2      na   79   0.806   2.554   2.610
    8c2      cr   80   0.813   2.556   2.478
    8c2      na   81   0.937   2.534   2.440
    8c2      cw   82   1.015   2.522   2.553
    8c2      c3   83   0.687   2.572   2.687
    8c2      c5   84   0.983   2.522   2.305
    8c2      c4   85   1.026   2.660   2.252
    8c2      hb   86   0.953   2.528   2.765
    8c2      hb   87   1.122   2.506   2.549
    8c2      ha   88   0.729   2.572   2.412
    9c2      cw   89   3.699   1.027   3.768
    9c2      na   90   3.701   0.953   3.884
    9c2      cr   91   3.600   0.869   3.880
    9c2      na   92   3.534   0.884   3.767
    9c2      cw   93   3.596   0.983   3.694
    9c2      c3   94   3.796   0.966   3.990
    9c2      c5   95   3.416   0.813   3.728
    9c2      c4   96   3.454   0.675   3.671
    9c2      hb   97   3.772   1.105   3.748
    9c2      hb   98   3.563   1.015   3.596
    9c2      ha   99   3.576   0.798   3.958
   10c2      cw  100   3.026   1.386   2.810
   10c2      na  101   2.992   1.520   2.818
   10c2      cr  102   2.941   1.542   2.938
   10c2      na  103   2.943   1.430   3.007
   10c2      cw  104   2.996   1.330   2.928
   10c2      c3  105   3.009   1.617   2.715
   10c2      c5  106   2.895   1.415   3.141
   10c2      c4  107   3.015   1.424   3.238
   10c2      hb  108   3.070   1.343   2.722
   10c2      hb  109   3.008   1.229   2.963
   10c2      ha  110   2.904   1.637   2.973
   11c2      cw  111   0.495   1.460   3.895
   11c2      na  112   0.403   1.477   3.794
   11c2      cr  113   0.284   1.492   3.850
   11c2      na  114   0.295   1.483   3.981
   11c2      cw  115   0.428   1.465   4.011
   11c2      c3  116   0.432   1.478   3.654
   11c2      c5  117   0.188   1.490   4.076
   11c2      c4  118   0.150   1.348   4.121
   11c2      hb  119   0.600   1.444   3.878
   11c2      hb  120   0.465   1.454   4.112
   11c2      ha  121   0.193   1.507   3.795
   12c2      cw  122   0.002   1.181   0.374
   12c2      na  123   4.414   1.178   0.282
   12c2      cr  124   4.386   1.053   0.254
   12c2      na  125   4.464   0.974   0.325
   12c2      cw  126   0.033   1.053   0.401
   12c2      c3  127   4.348   1.294   0.228
   12c2      c5  128   4.465   0.831   0.328
   12c2      c4  129   4.379   0.772   0.214
   12c2      hb  130   0.044   1.274   0.411
   12c2      hb  131   0.108   1.013   0.467
   12c2      ha  132   4.310   1.023   0.183
   13c2      cw  133   4.144   1.672   1.759
   13c2      na  134   4.175   1.546   1.806
   13c2      cr  135   4.067   1.473   1.801
   13c2      na  136   3.967   1.544   1.753
   13c2      cw  137   4.014   1.671   1.727
   13c2      c3  138   4.303   1.503   1.854
   13c2      c5  139   3.833   1.497   1.733
   13c2      c4  140   3.739   1.555   1.840
   13c2      hb  141   4.218   1.751   1.754
   13c2      hb  142   3.953   1.750   1.687
   13c2      ha  143   4.062   1.369   1.831
   14c2      cw  144   1.540   1.330   0.798
   14c2      na  145   1.424   1.256   0.805
   14c2      cr  146   1.457   1.131   0.829
   14c2      na  147   1.587   1.121   0.843
   14c2      cw  148   1.642   1.246   0.820
   14c2      c3  149   1.292   1.308   0.787
   14c2      c5  150   1.665   1.005   0.874
   14c2      c4  151   1.582   0.876   0.856
   14c2      hb  152   1.540   1.436   0.778
   14c2      hb  153   1.748   1.265   0.822
   14c2      ha  154   1.385   1.050   0.837
   15c2      cw  155   3.829   3.521   3.827
   15c2      na  156   3.885   3.645   3.808
   15c2      cr  157   4.016   3.632   3.811
   15c2      na  158   4.046   3.506   3.831
   15c2      cw  159   3.930   3.434   3.841
   15c2      c3  160   3.813   3.766   3.784
   15c2      c5  161   4.178   3.451   3.840
   15c2      c4  162   4.208   3.372   3.711
   15c2      hb  163   3.722   3.504   3.828
   15c2      hb  164   3.925   3.327   3.857
   15c2      ha  165   4.086   3.713   3.796
   16c2      cw  166   3.455   3.329   4.181
   16c2      na  167   3.376   3.217   4.177
   16c2      cr  168   3.324   3.198   4.296
   16c2      na  169   3.366   3.292   4.378
   16c2      cw  170   3.450   3.375   4.307
   16c2      c3  171   3.354   3.135   4.061
   16c2      c5  172   3.333   3.310   0.002
   16c2      c4  173   3.216   3.220   0.044
   16c2      hb  174   3.509   3.366   4.095
   16c2      hb  175   3.499   3.461   4.351
   16c2      ha  176   3.257   3.116   4.320
   17c2      cw  177   3.945   1.348   2.517
   17c2      na  178   3.997   1.475   2.502
   17c2      cr  179   3.942   1.530   2.395
   17c2      na  180   3.855   1.446   2.344
   17c2      cw  181   3.859   1.329   2.417
   17c2      c3  182   4.094   1.535   2.588
   17c2      c5  183   3.772   1.468   2.229
   17c2      c4  184   3.628   1.502   2.274
   17c2      hb  185   3.975   1.282   2.597
   17c2      hb  186   3.800   1.242   2.392
   17c2      ha  187   3.966   1.628   2.357
   18c2      cw  188   3.438   1.984   2.684
   18c2      na  189   3.483   1.901   2.584
   18c2      cr  190   3.584   1.960   2.524
   18c2      na  191   3.604   2.078   2.579
   18c2      cw  192   3.514   2.094   2.682
   18c2      c3  193   3.429   1.772   2.552
   18c2      c5  194   3.705   2.172   2.541
   18c2      c4  195   3.644   2.287   2.459
   18c2      hb  196   3.356   1.956   2.749
   18c2      hb  197   3.512   2.183   2.744
   18c2      ha  198   3.642   1.920   2.442
   19c2      cw  199   4.453   1.975   4.330
   19c2      na  200   0.060   1.912   4.347
   19c2      cr  201   0.047   1.821   4.440
   19c2      na  202   4.437   1.820   4.484
   19c2      cw  203   4.367   1.918   4.416
   19c2      c3  204   0.180   1.943   4.275
   19c2      c5  205   4.381   1.737   0.072
   19c2      c4  206   4.489   1.650   0.138
   19c2      hb  207   4.438   2.054   4.258
   19c2      hb  208   4.263   1.939   4.435
   19c2      ha  209   0.127   1.757   4.474
   20c2      cw  210   0.529   1.981   2.550
   20c2      na  211   0.535   1.857   2.491
   20c2      cr  212   0.445   1.780   2.548
   20c2      na  213   0.383   1.847   2.643
   20c2      cw  214   0.434   1.975   2.644
   20c2      c3  215   0.622   1.820   2.384
   20c2      c5  216   0.279   1.801   2.730
   20c2      c4  217   0.223   1.666   2.684
   20c2      hb  218   0.593   2.063   2.519
   20c2      hb  219   0.398   2.052   2.711
   20c2      ha  220   0.427   1.678   2.519
   21c2      cw  221   3.929   2.449   0.840
   21c2      na  222   3.893   2.476   0.970
   21c2      cr  223   3.826   2.589   0.972
   21c2      na  224   3.812   2.634   0.849
   21c2      cw  225   3.878   2.548   0.764
   21c2      c3  226   3.922   2.393   1.082
   21c2      c5  227   3.734   2.747   0.808
   21c2      c4  228   3.825   2.862   0.761
   21c2      hb  229   3.986   2.362   0.814
   21c2      hb  230   3.882   2.562   0.657
   21c2      ha  231   3.786   2.636   1.061
   22c2      cw  232   0.313   3.250   2.544
   22c2      na  233   0.305   3.361   2.625
   22c2      cr  234   0.405   3.441   2.593
   22c2      na  235   0.478   3.385   2.499
   22c2      cw  236   0.421   3.265   2.466
   22c2      c3  237   0.205   3.386   2.724
   22c2      c5  238   0.594   3.443   2.438
   22c2      c4  239   0.720   3.365   2.483
   22c2      hb  240   0.239   3.171   2.551
   22c2      hb  241   0.461   3.200   2.390
   22c2      ha  242   0.423   3.537   2.638
   23c2      cw  243   3.593   1.175   3.015
   23c2      na  244   3.722   1.208   3.049
   23c2      cr  245   3.718   1.309   3.134
   23c2      na  246   3.593   1.346   3.152
   23c2      cw  247   3.512   1.263   3.077
   23c2      c3  248   3.839   1.142   3.002
   23c2      c5  249   3.544   1.452   3.235
   23c2      c4  250   3.635   1.474   3.357
   23c2      hb  251   3.570   1.093   2.950
   23c2      hb  252   3.405   1.272   3.076
   23c2      ha  253   3.807   1.351   3.179
   24c2      cw  254   2.906   2.312   0.297
   24c2      na  255   2.778   2.332   0.343
   24c2      cr  256   2.784   2.363   0.471
   24c2      na  257   2.910   2.359   0.510
   24c2      cw  258   2.988   2.329   0.401
   24c2      c3  259   2.658   2.319   0.266
   24c2      c5  260   2.958   2.383   0.643
   24c2      c4  261   2.990   2.248   0.711
   24c2      hb  262   2.926   2.286   0.194
   24c2      hb  263   3.096   2.321   0.408
   24c2      ha  264   2.699   2.385   0.533
   25c2      cw  265   3.825   3.919   1.246
   25c2      na  266   3.896   3.973   1.140
   25c2      cr  267   4.021   3.933   1.151
   25c2      na  268   4.035   3.856   1.256
   25c2      cw  269   3.912   3.847   1.318
   25c2      c3  270   3.843   4.059   1.039
   25c2      c5  271   4.155   3.793   1.300
   25c2      c4  272   4.197   3.847   1.438
   25c2      hb  273   3.720   3.937   1.260
   25c2      hb  274   3.896   3.791   1.409
   25c2      ha  275   4.100   3.961   1.083
   26c2      cw  276   0.129   3.440   4.265
   26c2      na  277   0.233   3.362   4.219
   26c2      cr  278   0.185   3.278   4.130
   26c2      na  279   0.056   3.298   4.115
   26c2      cw  280   0.019   3.400   4.199
   26c2      c3  281   0.370   3.373   4.261
   26c2      c5  282   4.484   3.227   4.026
   26c2      c4  283   4.398   3.125   4.104
   26c2      hb  284   0.143   3.518   4.338
   26c2      hb  285   4.432   3.438   4.205
   26c2      ha  286   0.244   3.205   4.076
   27c2      cw  287   1.140   0.027   3.440
   27c2      na  288   1.081   0.151   3.434
   27c2      cr  289   1.144   0.231   3.517
   27c2      na  290   1.240   0.164   3.578
   27c2      cw  291   1.238   0.035   3.530
   27c2      c3  292   0.967   0.185   3.354
   27c2      c5  293   1.326   0.215   3.680
   27c2      c4  294   1.434   0.307   3.619
   27c2      hb  295   1.105   4.457   3.381
   27c2      hb  296   1.306   4.472   3.565
   27c2      ha  297   1.118   0.334   3.534
   28c2      cw  298   3.457   3.315   1.242
   28c2      na  299   3.532   3.293   1.356
   28c2      cr  300   3.659   3.311   1.326
   28c2      na  301   3.669   3.346   1.199
   28c2      cw  302   3.543   3.348   1.144
   28c2      c3  303   3.480   3.257   1.484
   28c2      c5  304   3.791   3.379   1.131
   28c2      c4  305   3.823   3.272   1.024
   28c2      hb  306   3.350   3.306   1.242
   28c2      hb  307   3.524   3.374   1.041
   28c2      ha  308   3.740   3.300   1.396
   29c2      cw  309   3.095   2.868   0.476
   29c2      na  310   3.187   2.794   0.405
   29c2      cr  311   3.131   2.754   0.293
   29c2      na  312   3.006   2.794   0.290
   29c2      cw  313   2.981   2.867   0.405
   29c2      c3  314   3.321   2.766   0.445
   29c2      c5  315   2.910   2.771   0.186
   29c2      c4  316   2.977   2.777   0.048
   29c2      hb  317   3.120   2.916   0.569
   29c2      hb  318   2.885   2.912   0.423
   29c2      ha  319   3.182   2.696   0.217
   30c2      cw  320   1.991   1.392   1.041
   30c2      na  321   2.045   1.265   1.034
   30c2      cr  322   2.069   1.223   1.156
   30c2      na  323   2.037   1.318   1.242
   30c2      cw  324   1.987   1.425   1.171
   30c2      c3  325   2.074   1.194   0.913
   30c2      c5  326   2.054   1.313   1.384
   30c2      c4  327   1.918   1.335   1.453
   30c2      hb  328   1.964   1.448   0.953
   30c2      hb  329   1.953   1.516   1.217
   30c2      ha  330   2.109   1.127   1.181
   31c2      cw  331   0.333   0.756   1.702
   31c2      na  332   0.277   0.641   1.650
   31c2      cr  333   0.146   0.656   1.650
   31c2      na  334   0.115   0.775   1.696
   31c2      cw  335   0.231   0.840   1.729
   31c2      c3  336   0.351   0.528   1.605
   31c2      c5  337   4.497   0.828   1.710
   31c2      c4  338   4.480   0.952   1.621
   31c2      hb  339   0.439   0.770   1.714
   31c2      hb  340   0.233   0.941   1.768
   31c2      ha  341   0.077   0.580   1.616
   32c2      cw  342   1.020   3.067   0.223
   32c2      na  343   1.110   3.050   0.119
   32c2      cr  344   1.043   3.033   0.008
   32c2      na  345   0.914   3.036   0.033
   32c2      cw  346   0.898   3.058   0.168
   32c2      c3  347   1.253   3.050   0.132
   32c2      c5  348   0.808   3.012   4.454
   32c2      c4  349   0.759   3.145   4.393
   32c2      hb  350   1.053   3.081   0.324
   32c2      hb  351   0.800   3.064   0.214
   32c2      ha  352   1.088   3.018   4.425
   33c2      cw  353   1.160   4.472   2.777
   33c2      na  354   1.133   0.054   2.682
   33c2      cr  355   1.164   0.171   2.733
   33c2      na  356   1.208   0.155   2.856
   33c2      cw  357   1.207   0.021   2.886
   33c2      c3  358   1.081   0.032   2.550
   33c2      c5  359   1.245   0.260   2.947
   33c2      c4  360   1.388   0.308   2.917
   33c2      hb  361   1.142   4.367   2.758
   33c2      hb  362   1.238   4.494   2.981
   33c2      ha  363   1.154   0.265   2.680
   34c2      cw  364   3.843   3.848   1.899
   34c2      na  365   3.719   3.883   1.851
   34c2      cr  366   3.699   4.010   1.878
   34c2      na  367   3.803   4.057   1.944
   34c2      cw  368   3.896   3.957   1.956
   34c2      c3  369   3.628   3.796   1.783
   34c2      c5  370   3.820   4.190   1.996
   34c2      c4  371   3.683   4.258   2.015
   34c2      hb  372   3.883   3.748   1.887
   34c2      hb  373   3.991   3.970   2.005
   34c2      ha  374   3.611   4.066   1.850
   35c2      cw  375   1.685   2.934   1.819
   35c2      na  376   1.811   2.988   1.827
   35c2      cr  377   1.884   2.936   1.730
   35c2      na  378   1.811   2.853   1.660
   35c2      cw  379   1.684   2.850   1.714
   35c2      c3  380   1.855   3.082   1.925
   35c2      c5  381   1.855   2.776   1.548
   35c2      c4  382   1.790   2.827   1.418
   35c2      hb  383   1.607   2.961   1.889
   35c2      hb  384   1.604   2.788   1.676
   35c2      ha  385   1.988   2.959   1.712
   36c2      cw  386   0.741   0.492   1.891
   36c2      na  387   0.758   0.356   1.912
   36c2      cr  388   0.818   0.306   1.807
   36c2      na  389   0.841   0.401   1.719
   36c2      cw  390   0.791   0.519   1.770
   36c2      c3  391   0.718   0.285   2.030
   36c2      c5  392   0.908   0.390   1.594
   36c2      c4  393   1.012   0.277   1.599
   36c2      hb  394   0.696   0.557   1.965
   36c2      hb  395   0.797   0.612   1.715
   36c2      ha  396   0.843   0.201   1.796
   37c2      cw  397   3.254   0.387   0.879
   37c2      na  398   3.124   0.365   0.919
   37c2      cr  399   3.103   0.235   0.924
   37c2      na  400   3.213   0.172   0.890
   37c2      cw  401   3.309   0.266   0.860
   37c2      c3  402   3.027   0.466   0.949
   37c2      c5  403   3.231   0.031   0.881
   37c2      c4  404   3.095   4.472   0.885
   37c2      hb  405   3.295   0.486   0.866
   37c2      hb  406   3.409   0.239   0.827
   37c2      ha  407   3.009   0.190   0.951
   38c2      cw  408   1.651   0.314   1.953
   38c2      na  409   1.561   0.211   1.945
   38c2      cr  410   1.443   0.258   1.979
   38c2      na  411   1.452   0.386   2.009
   38c2      cw  412   1.584   0.423   1.994
   38c2      c3  413   1.590   0.077   1.904
   38c2      c5  414   1.345   0.470   2.051
   38c2      c4  415   1.296   0.557   1.933
   38c2      hb  416   1.755   0.300   1.928
   38c2      hb  417   1.619   0.523   2.013
   38c2      ha  418   1.351   0.200   1.979
   39c2      cw  419   2.818   0.923   4.279
   39c2      na  420   2.692   0.879   4.315
   39c2      cr  421   2.668   0.918   4.438
   39c2      na  422   2.772   0.985   4.484
   39c2      cw  423   2.868   0.988   4.385
   39c2      c3  424   2.604   0.804   4.230
   39c2      c5  425   2.785   1.042   0.100
   39c2      c4  426   2.786   1.196   0.092
   39c2      hb  427   2.861   0.903   4.182
   39c2      hb  428   2.964   1.037   4.399
   39c2      ha  429   2.577   0.899   4.493
   40c2      cw  430   2.006   2.157   1.977
   40c2      na  431   1.967   2.259   1.894
   40c2      cr  432   2.074   2.312   1.841
   40c2      na  433   2.181   2.252   1.888
   40c2      cw  434   2.140   2.152   1.973
   40c2      c3  435   1.832   2.300   1.870
   40c2      c5  436   2.317   2.285   1.857
   40c2      c4  437   2.384   2.171   1.778
   40c2      hb  438   1.934   2.097   2.031
   40c2      hb  439   2.208   2.086   2.025
   40c2      ha  440   2.074   2.394   1.770
   41c2      cw  441   1.209   1.377   2.733
   41c2      na  442   1.142   1.445   2.634
   41c2      cr  443   1.039   1.507   2.689
   41c2      na  444   1.036   1.480   2.818
   41c2      cw  445   1.144   1.399   2.848
   41c2      c3  446   1.177   1.448   2.496
   41c2      c5  447   0.937   1.525   2.910
   41c2      c4  448   0.854   1.405   2.958
   41c2      hb  449   1.297   1.317   2.714
   41c2      hb  450   1.166   1.362   2.947
   41c2      ha  451   0.969   1.568   2.635
   42c2      cw  452   2.281   2.329   4.003
   42c2      na  453   2.416   2.355   3.994
   42c2      cr  454   2.434   2.484   4.006
   42c2      na  455   2.318   2.544   4.021
   42c2      cw  456   2.220   2.446   4.023
   42c2      c3  457   2.518   2.256   3.977
   42c2      c5  458   2.296   2.684   4.033
   42c2      c4  459   2.206   2.715   4.155
   42c2      hb  460   2.243   2.228   3.997
   42c2      hb  461   2.115   2.469   4.038
   42c2      ha  462   2.530   2.533   4.003
   43c2      cw  463   3.735   3.209   0.106
   43c2      na  464   3.854   3.141   0.089
   43c2      cr  465   3.948   3.208   0.152
   43c2      na  466   3.896   3.313   0.211
   43c2      cw  467   3.761   3.316   0.182
   43c2      c3  468   3.871   3.022   0.013
   43c2      c5  469   3.966   3.410   0.289
   43c2      c4  470   3.931   3.391   0.438
   43c2      hb  471   3.643   3.175   0.062
   43c2      hb  472   3.696   3.395   0.218
   43c2      ha  473   4.052   3.180   0.154
   44c2      cw  474   0.444   0.582   3.969
   44c2      na  475   0.515   0.474   4.017
   44c2      cr  476   0.638   0.482   3.971
   44c2      na  477   0.648   0.585   3.890
   44c2      cw  478   0.527   0.652   3.891
   44c2      c3  479   0.463   0.370   4.101
   44c2      c5  480   0.761   0.620   3.810
   44c2      c4  481   0.867   0.693   3.893
   44c2      hb  482   0.340   0.600   3.994
   44c2      hb  483   0.510   0.743   3.835
   44c2      ha  484   0.716   0.413   3.997
   45c2      cw  485   2.420   2.978   3.216
   45c2      na  486   2.423   2.944   3.349
   45c2      cr  487   2.461   2.818   3.359
   45c2      na  488   2.480   2.768   3.238
   45c2      cw  489   2.455   2.868   3.147
   45c2      c3  490   2.392   3.029   3.459
   45c2      c5  491   2.521   2.635   3.207
   45c2      c4  492   2.398   2.547   3.178
   45c2      hb  493   2.392   3.076   3.182
   45c2      hb  494   2.464   2.854   3.040
   45c2      ha  495   2.474   2.765   3.452
   46c2      cw  496   4.222   1.488   1.100
   46c2      na  497   4.235   1.605   1.172
   46c2      cr  498   4.147   1.691   1.126
   46c2      na  499   4.078   1.636   1.029
   46c2      cw  500   4.124   1.507   1.011
   46c2      c3  501   4.328   1.628   1.278
   46c2      c5  502   3.971   1.698   0.956
   46c2      c4  503   4.017   1.733   0.814
   46c2      hb  504   4.283   1.401   1.120
   46c2      hb  505   4.082   1.440   0.937
   46c2      ha  506   4.134   1.791   1.164
   47c2      cw  507   2.625   2.786   1.413
   47c2      na  508   2.496   2.820   1.449
   47c2      cr  509   2.500   2.870   1.571
   47c2      na  510   2.625   2.874   1.613
   47c2      cw  511   2.705   2.818   1.516
   47c2      c3  512   2.379   2.804   1.369
   47c2      c5  513   2.668   2.924   1.740
   47c2      c4  514   2.689   3.076   1.731
   47c2      hb  515   2.647   2.740   1.318
   47c2      hb  516   2.811   2.805   1.528
   47c2      ha  517   2.414   2.903   1.627
   48c2      cw  518   1.378   3.492   3.589
   48c2      na  519   1.281   3.527   3.680
   48c2      cr  520   1.176   3.570   3.613
   48c2      na  521   1.200   3.564   3.484
   48c2      cw  522   1.328   3.516   3.466
   48c2      c3  523   1.292   3.516   3.822
   48c2      c5  524   1.109   3.599   3.379
   48c2      c4  525   1.068   3.472   3.303
   48c2      hb  526   1.474   3.453   3.618
   48c2      hb  527   1.373   3.503   3.369
   48c2      ha  528   1.084   3.604   3.659
   49c2      cw  529   1.936   1.497   1.938
   49c2      na  530   1.873   1.436   2.044
   49c2      cr  531   1.851   1.310   2.013
   49c2      na  532   1.897   1.286   1.892
   49c2      cw  533   1.953   1.403   1.843
   49c2      c3  534   1.840   1.502   2.167
   49c2      c5  535   1.892   1.164   1.817
   49c2      c4  536   1.812   1.054   1.890
   49c2      hb  537   1.966   1.601   1.939
   49c2      hb  538   2.000   1.411   1.747
   49c2      ha  539   1.804   1.240   2.079
   50c2      cw  540   0.292   2.591   3.233
   50c2      na  541   0.250   2.518   3.124
   50c2      cr  542   0.123   2.544   3.103
   50c2      na  543   0.081   2.632   3.191
   50c2      cw  544   0.186   2.663   3.274
   50c2      c3  545   0.333   2.431   3.045
   50c2      c5  546   4.464   2.689   3.203
   50c2      c4  547   4.360   2.610   3.122
   50c2      hb  548   0.393   2.585   3.271
   50c2      hb  549   0.176   2.734   3.355
   50c2      ha  550   0.065   2.498   3.024
   51c2      cw  551   3.366   3.523   0.511
   51c2      na  552   3.278   3.601   0.582
   51c2      cr  553   3.346   3.678   0.664
   51c2      na  554   3.475   3.656   0.647
   51c2      cw  555   3.490   3.557   0.551
   51c2      c3  556   3.135   3.598   0.567
   51c2      c5  557   3.582   3.720   0.716
   51c2      c4  558   3.639   3.835   0.631
   51c2      hb  559   3.334   3.452   0.436
   51c2      hb  560   3.585   3.520   0.518
   51c2      ha  561   3.303   3.749   0.733
   52c2      cw  562   2.213   3.315   2.085
   52c2      na  563   2.268   3.337   2.210
   52c2      cr  564   2.301   3.464   2.218
   52c2      na  565   2.273   3.525   2.105
   52c2      cw  566   2.216   3.432   2.020
   52c2      c3  567   2.283   3.240   2.314
   52c2      c5  568   2.294   3.663   2.076
   52c2      c4  569   2.419   3.680   1.988
   52c2      hb  570   2.177   3.218   2.053
   52c2      hb  571   2.181   3.456   1.921
   52c2      ha  572   2.345   3.510   2.305
   53c2      cw  573   0.098   0.013   2.782
   53c2      na  574   0.140   4.492   2.908
   53c2      cr  575   0.115   4.364   2.927
   53c2      na  576   0.058   4.315   2.819
   53c2      cw  577   0.045   4.417   2.727
   53c2      c3  578   0.204   0.066   3.001
   53c2      c5  579   0.019   4.179   2.798
   53c2      c4  580   4.388   4.172   2.745
   53c2      hb  581   0.109   0.113   2.744
   53c2      hb  582   0.002   4.403   2.629
   53c2      ha  583   0.140   4.309   3.016
   54c2      cw  584   1.843   3.284   3.517
   54c2      na  585   1.934   3.241   3.422
   54c2      cr  586   1.870   3.169   3.332
   54c2      na  587   1.742   3.168   3.361
   54c2      cw  588   1.723   3.239   3.478
   54c2      c3  589   2.074   3.270   3.424
   54c2      c5  590   1.636   3.107   3.287
   54c2      c4  591   1.683   3.068   3.146
   54c2      hb  592   1.874   3.344   3.601
   54c2      hb  593   1.627   3.251   3.525
   54c2      ha  594   1.918   3.121   3.249
   55c2      cw  595   1.265   0.045   4.152
   55c2      na  596   1.192   4.479   4.066
   55c2      cr  597   1.067   4.477   4.108
   55c2      na  598   1.055   0.040   4.214
   55c2      cw  599   1.179   0.092   4.243
   55c2      c3  600   1.244   4.405   3.955
   55c2      c5  601   0.938   0.063   4.292
   55c2      c4  602   0.833   4.466   4.267
   55c2      hb  603   1.371   0.061   4.140
   55c2      hb  604   1.194   0.158   4.327
   55c2      ha  605   0.990   4.419   4.061
   56c2      cw  606   3.189   4.077   1.324
   56c2      na  607   3.233   4.206   1.304
   56c2      cr  608   3.237   4.266   1.421
   56c2      na  609   3.201   4.183   1.515
   56c2      cw  610   3.169   4.063   1.456
   56c2      c3  611   3.273   4.261   1.178
   56c2      c5  612   3.196   4.207   1.656
   56c2      c4  613   3.226   4.355   1.687
   56c2      hb  614   3.178   4.007   1.242
   56c2      hb  615   3.135   3.977   1.513
   56c2      ha  616   3.270   4.369   1.434
   57c2      cw  617   0.020   2.457   3.977
   57c2      na  618   4.461   2.557   3.917
   57c2      cr  619   4.367   2.501   3.844
   57c2      na  620   4.377   2.370   3.853
   57c2      cw  621   4.481   2.340   3.938
   57c2      c3  622   4.484   2.698   3.932
   57c2      c5  623   4.294   2.274   3.787
   57c2      c4  624   4.370   2.211   3.669
   57c2      hb  625   0.103   2.478   4.043
   57c2      hb  626   4.509   2.239   3.963
   57c2      ha  627   4.295   2.554   3.784
   58c2      cw  628   2.484   2.615   2.251
   58c2      na  629   2.614   2.656   2.230
   58c2      cr  630   2.653   2.723   2.336
   58c2      na  631   2.555   2.728   2.424
   58c2      cw  632   2.448   2.659   2.372
   58c2      c3  633   2.692   2.632   2.112
   58c2      c5  634   2.559   2.795   2.550
   58c2      c4  635   2.489   2.932   2.539
   58c2      hb  636   2.428   2.559   2.178
   58c2      hb  637   2.353   2.648   2.423
   58c2      ha  638   2.751   2.767   2.349
   59c2      cw  639   1.145   4.054   0.496
   59c2      na  640   1.014   4.044   0.453
   59c2      cr  641   1.002   3.934   0.382
   59c2      na  642   1.118   3.872   0.378
   59c2      cw  643   1.210   3.947   0.449
   59c2      c3  644   0.909   4.137   0.481
   59c2      c5  645   1.148   3.748   0.313
   59c2      c4  646   1.024   3.657   0.310
   59c2      hb  647   1.180   4.136   0.556
   59c2      hb  648   1.313   3.917   0.459
   59c2      ha  649   0.911   3.903   0.334
   60c2      cw  650   4.432   1.596   3.082
   60c2      na  651   4.483   1.556   3.203
   60c2      cr  652   4.491   1.661   3.282
   60c2      na  653   4.445   1.767   3.219
   60c2      cw  654   4.410   1.728   3.091
   60c2      c3  655   0.006   1.422   3.237
   60c2      c5  656   4.432   1.900   3.268
   60c2      c4  657   0.031   1.935   3.367
   60c2      hb  658   4.415   1.529   3.000
   60c2      hb  659   4.370   1.797   3.018
   60c2      ha  660   0.013   1.658   3.383
   61c2      cw  661   2.794   0.223   4.424
   61c2      na  662   2.832   0.297   4.315
   61c2      cr  663   2.921   0.386   4.354
   61c2      na  664   2.943   0.371   4.483
   61c2      cw  665   2.864   0.269   0.015
   61c2      c3  666   2.782   0.280   4.182
   61c2      c5  667   3.034   0.446   0.051
   61c2      c4  668   3.106   0.554   4.483
   61c2      hb  669   2.720   0.144   4.418
   61c2      hb  670   2.864   0.238   0.118
   61c2      ha  671   2.966   0.458   4.288
   62c2      cw  672   1.410   2.661   3.300
   62c2      na  673   1.276   2.628   3.292
   62c2      cr  674   1.237   2.583   3.409
   62c2      na  675   1.339   2.585   3.493
   62c2      cw  676   1.449   2.635   3.425
   62c2      c3  677   1.196   2.640   3.174
   62c2      c5  678   1.340   2.546   3.630
   62c2      c4  679   1.200   2.560   3.693
   62c2      hb  680   1.464   2.700   3.215
   62c2      hb  681   1.546   2.647   3.471
   62c2      ha  682   1.137   2.550   3.432
   63c2      cw  683   3.481   4.072   4.153
   63c2      na  684   3.469   4.118   4.282
   63c2      cr  685   3.555   4.052   4.357
   63c2      na  686   3.620   3.964   4.283
   63c2      cw  687   3.576   3.977   4.153
   63c2      c3  688   3.379   4.219   4.326
   63c2      c5  689   3.719   3.871   4.327
   63c2      c4  690   3.805   3.933   4.439
   63c2      hb  691   3.421   4.110   4.072
   63c2      hb  692   3.615   3.917   4.073
   63c2      ha  693   3.567   4.067   4.463
   64c2      cw  694   1.227   2.375   0.065
   64c2      na  695   1.311   2.438   4.490
   64c2      cr  696   1.262   2.422   4.369
   64c2      na  697   1.152   2.351   4.375
   64c2      cw  698   1.127   2.321   4.507
   64c2      c3  699   1.432   2.506   0.010
   64c2      c5  700   1.070   2.305   4.267
   64c2      c4  701   1.150   2.297   4.135
   64c2      hb  702   1.246   2.373   0.171
   64c2      hb  703   1.043   2.262   0.025
   64c2      ha  704   1.308   2.463   4.280
   65c2      cw  705   0.277   0.298   0.146
   65c2      na  706   0.402   0.309   0.202
   65c2      cr  707   0.472   0.204   0.166
   65c2      na  708   0.397   0.124   0.092
   65c2      cw  709   0.274   0.184   0.077
   65c2      c3  710   0.448   0.418   0.283
   65c2      c5  711   0.436   4.512   0.038
   65c2      c4  712   0.362   4.400   0.114
   65c2      hb  713   0.200   0.373   0.160
   65c2      hb  714   0.193   0.141   0.019
   65c2      ha  715   0.575   0.185   0.193
   66c2      cw  716   0.477   2.202   1.783
   66c2      na  717   0.413   2.081   1.795
   66c2      cr  718   0.419   2.020   1.678
   66c2      na  719   0.481   2.097   1.591
   66c2      cw  720   0.519   2.213   1.656
   66c2      c3  721   0.353   2.030   1.915
   66c2      c5  722   0.508   2.068   1.454
   66c2      c4  723   0.442   1.935   1.412
   66c2      hb  724   0.487   2.270   1.866
   66c2      hb  725   0.573   2.292   1.607
   66c2      ha  726   0.379   1.922   1.660
   67c2      cw  727   0.007   3.512   3.441
   67c2      na  728   0.095   3.406   3.433
   67c2      cr  729   0.190   3.437   3.348
   67c2      na  730   0.167   3.556   3.298
   67c2      cw  731   0.052   3.606   3.357
   67c2      c3  732   0.084   3.283   3.505
   67c2      c5  733   0.247   3.624   3.201
   67c2      c4  734   0.181   3.610   3.062
   67c2      hb  735   4.434   3.512   3.505
   67c2      hb  736   0.012   3.704   3.335
   67c2      ha  737   0.273   3.373   3.323
   68c2      cw  738   1.371   0.988   3.273
   68c2      na  739   1.483   0.986   3.353
   68c2      cr  740   1.560   0.887   3.313
   68c2      na  741   1.503   0.825   3.211
   68c2      cw  742   1.383   0.887   3.185
   68c2      c3  743   1.510   1.074   3.462
   68c2      c5  744   1.556   0.713   3.141
   68c2      c4  745   1.591   0.753   2.997
   68c2      hb  746   1.291   1.060   3.284
   68c2      hb  747   1.314   0.855   3.108
   68c2      ha  748   1.655   0.861   3.357
   69c2      cw  749   3.082   0.369   3.664
   69c2      na  750   2.948   0.361   3.635
   69c2      cr  751   2.926   0.423   3.521
   69c2      na  752   3.040   0.471   3.475
   69c2      cw  753   3.139   0.439   3.565
   69c2      c3  754   2.848   0.297   3.715
   69c2      c5  755   3.059   0.543   3.353
   69c2      c4  756   3.122   0.450   3.247
   69c2      hb  757   3.124   0.324   3.753
   69c2      hb  758   3.242   0.468   3.550
   69c2      ha  759   2.830   0.433   3.473
   70c2      cw  760   0.210   0.854   4.481
   70c2      na  761   0.279   0.924   4.384
   70c2      cr  762   0.407   0.925   4.417
   70c2      na  763   0.424   0.860   0.016
   70c2      cw  764   0.300   0.814   0.058
   70c2      c3  765   0.221   0.986   4.270
   70c2      c5  766   0.545   0.843   0.089
   70c2      c4  767   0.661   0.921   0.024
   70c2      hb  768   0.104   0.839   4.473
   70c2      hb  769   0.288   0.756   0.148
   70c2      ha  770   0.484   0.972   4.359
   71c2      cw  771   1.589   1.282   4.377
   71c2      na  772   1.536   1.342   4.489
   71c2      cr  773   1.631   1.415   0.031
   71c2      na  774   1.741   1.405   4.474
   71c2      cw  775   1.717   1.320   4.369
   71c2      c3  776   1.403   1.326   0.024
   71c2      c5  777   1.866   1.470   4.499
   71c2      c4  778   1.850   1.588   0.082
   71c2      hb  779   1.532   1.216   4.313
   71c2      hb  780   1.791   1.293   4.295
   71c2      ha  781   1.615   1.471   0.122
   72c2      cw  782   3.357   4.398   2.885
   72c2      na  783   3.278   4.355   2.781
   72c2      cr  784   3.152   4.359   2.820
   72c2      na  785   3.146   4.404   2.944
   72c2      cw  786   3.275   4.430   2.986
   72c2      c3  787   3.324   4.313   2.652
   72c2      c5  788   3.027   4.428   3.020
   72c2      c4  789   3.008   4.317   3.125
   72c2      hb  790   3.464   4.404   2.876
   72c2      hb  791   3.297   4.471   3.083
   72c2      ha  792   3.068   4.331   2.758
   73c2      cw  793   4.191   2.184   1.574
   73c2      na  794   4.188   2.304   1.641
   73c2      cr  795   4.256   2.392   1.571
   73c2      na  796   4.305   2.334   1.464
   73c2      cw  797   4.264   2.203   1.463
   73c2      c3  798   4.124   2.328   1.767
   73c2      c5  799   4.386   2.397   1.364
   73c2      c4  800   0.016   2.343   1.372
   73c2      hb  801   4.141   2.095   1.610
   73c2      hb  802   4.289   2.133   1.385
   73c2      ha  803   4.269   2.495   1.600
   74c2      cw  804   1.334   1.799   0.446
   74c2      na  805   1.306   1.921   0.503
   74c2      cr  806   1.416   1.967   0.560
   74c2      na  807   1.512   1.878   0.544
   74c2      cw  808   1.462   1.772   0.472
   74c2      c3  809   1.181   1.990   0.499
   74c2      c5  810   1.646   1.891   0.594
   74c2      c4  811   1.661   1.805   0.721
   74c2      hb  812   1.260   1.742   0.392
   74c2      hb  813   1.521   1.686   0.444
   74c2      ha  814   1.424   2.062   0.611
   75c2      cw  815   4.002   3.597   2.878
   75c2      na  816   4.020   3.726   2.835
   75c2      cr  817   3.926   3.801   2.889
   75c2      na  818   3.848   3.726   2.964
   75c2      cw  819   3.895   3.597   2.959
   75c2      c3  820   4.124   3.771   2.747
   75c2      c5  821   3.733   3.769   3.037
   75c2      c4  822   3.763   3.777   3.188
   75c2      hb  823   4.068   3.517   2.847
   75c2      hb  824   3.849   3.516   3.014
   75c2      ha  825   3.915   3.907   2.874
   76c2      cw  826   0.487   2.594   1.899
   76c2      na  827   0.446   2.706   1.968
   76c2      cr  828   0.447   2.807   1.884
   76c2      na  829   0.486   2.766   1.766
   76c2      cw  830   0.513   2.631   1.773
   76c2      c3  831   0.409   2.708   2.106
   76c2      c5  832   0.496   2.846   1.647
   76c2      c4  833   0.423   2.774   1.532
   76c2      hb  834   0.494   2.496   1.945
   76c2      hb  835   0.548   2.572   1.689
   76c2      ha  836   0.419   2.909   1.909
   77c2      cw  837   1.760   0.515   4.090
   77c2      na  838   1.852   0.434   4.154
   77c2      cr  839   1.874   0.329   4.078
   77c2      na  840   1.801   0.337   3.970
   77c2      cw  841   1.729   0.454   3.975
   77c2      c3  842   1.911   0.460   4.282
   77c2      c5  843   1.792   0.238   3.867
   77c2      c4  844   1.852   0.290   3.735
   77c2      hb  845   1.724   0.607   4.133
   77c2      hb  846   1.660   0.485   3.898
   77c2      ha  847   1.941   0.248   4.104
   78c2      cw  848   1.986   3.296   1.258
   78c2      na  849   2.097   3.333   1.185
   78c2      cr  850   2.075   3.454   1.137
   78c2      na  851   1.958   3.497   1.177
   78c2      cw  852   1.900   3.398   1.254
   78c2      c3  853   2.216   3.256   1.169
   78c2      c5  854   1.899   3.624   1.148
   78c2      c4  855   1.900   3.712   1.275
   78c2      hb  856   1.979   3.200   1.308
   78c2      hb  857   1.803   3.408   1.300
   78c2      ha  858   2.145   3.508   1.075
   79c2      cw  859   2.574   1.485   2.337
   79c2      na  860   2.554   1.388   2.433
   79c2      cr  861   2.549   1.271   2.373
   79c2      na  862   2.564   1.288   2.243
   79c2      cw  863   2.580   1.422   2.219
   79c2      c3  864   2.543   1.409   2.574
   79c2      c5  865   2.564   1.185   2.144
   79c2      c4  866   2.450   1.208   2.042
   79c2      hb  867   2.582   1.591   2.360
   79c2      hb  868   2.595   1.463   2.120
   79c2      ha  869   2.535   1.177   2.423
   80c2      cw  870   4.103   1.010   0.938
   80c2      na  871   3.993   0.958   0.874
   80c2      cr  872   4.020   0.834   0.838
   80c2      na  873   4.143   0.805   0.873
   80c2      cw  874   4.197   0.914   0.939
   80c2      c3  875   3.869   1.027   0.853
   80c2      c5  876   4.211   0.682   0.848
   80c2      c4  877   4.316   0.701   0.737
   80c2      hb  878   4.105   1.110   0.978
   80c2      hb  879   4.297   0.914   0.980
   80c2      ha  880   3.950   0.768   0.789
   81c2      cw  881   1.601   3.036   4.226
   81c2      na  882   1.618   3.096   4.104
   81c2      cr  883   1.617   3.003   4.011
   81c2      na  884   1.598   2.886   4.068
   81c2      cw  885   1.589   2.905   4.204
   81c2      c3  886   1.638   3.236   4.082
   81c2      c5  887   1.586   2.759   4.002
   81c2      c4  888   1.535   2.777   3.858
   81c2      hb  889   1.599   3.095   4.317
   81c2      hb  890   1.576   2.822   4.272
   81c2      ha  891   1.632   3.021   3.906
   82c2      cw  892   4.274   4.088   3.537
   82c2      na  893   4.328   4.188   3.459
   82c2      cr  894   4.415   4.255   3.533
   82c2      na  895   4.417   4.204   3.654
   82c2      cw  896   4.330   4.097   3.659
   82c2      c3  897   4.295   4.214   3.323
   82c2      c5  898   4.494   4.253   3.764
   82c2      c4  899   0.103   4.163   3.787
   82c2      hb  900   4.199   4.020   3.500
   82c2      hb  901   4.314   4.038   3.747
   82c2      ha  902   4.472   4.339   3.498
   83c2      cw  903   1.287   2.128   1.924
   83c2      na  904   1.171   2.136   1.851
   83c2      cr  905   1.070   2.106   1.930
   83c2      na  906   1.115   2.079   2.051
   83c2      cw  907   1.252   2.093   2.049
   83c2      c3  908   1.163   2.170   1.712
   83c2      c5  909   1.039   2.042   2.166
   83c2      c4  910   0.888   2.042   2.137
   83c2      hb  911   1.384   2.147   1.882
   83c2      hb  912   1.315   2.078   2.136
   83c2      ha  913   0.967   2.105   1.897
   84c2      cw  914   2.587   0.765   3.260
   84c2      na  915   2.657   0.827   3.361
   84c2      cr  916   2.590   0.812   3.473
   84c2      na  917   2.479   0.745   3.449
   84c2      cw  918   2.475   0.715   3.314
   84c2      c3  919   2.782   0.896   3.347
   84c2      c5  920   2.378   0.711   3.544
   84c2      c4  921   2.385   0.561   3.578
   84c2      hb  922   2.623   0.762   3.158
   84c2      hb  923   2.394   0.660   3.269
   84c2      ha  924   2.622   0.850   3.569
   85c2      cw  925   4.496   0.741   3.774
   85c2      na  926   4.371   0.706   3.726
   85c2      cr  927   4.303   0.816   3.706
   85c2      na  928   4.375   0.920   3.739
   85c2      cw  929   4.499   0.875   3.781
   85c2      c3  930   4.326   0.572   3.703
   85c2      c5  931   4.335   1.057   3.730
   85c2      c4  932   4.292   1.110   3.868
   85c2      hb  933   0.057   0.668   3.799
   85c2      hb  934   0.064   0.941   3.812
   85c2      ha  935   4.202   0.818   3.667
   86c2      cw  936   0.085   2.664   2.486
   86c2      na  937   0.012   2.729   2.389
   86c2      cr  938   4.445   2.813   2.449
   86c2      na  939   4.461   2.804   2.580
   86c2      cw  940   0.045   2.712   2.605
   86c2      c3  941   0.025   2.710   2.248
   86c2      c5  942   4.390   2.880   2.678
   86c2      c4  943   4.275   2.797   2.737
   86c2      hb  944   0.159   2.589   2.461
   86c2      hb  945   0.079   2.687   2.704
   86c2      ha  946   4.376   2.878   2.398
   87c2      cw  947   2.523   1.958   1.307
   87c2      na  948   2.651   1.941   1.259
   87c2      cr  949   2.726   1.899   1.358
   87c2      na  950   2.654   1.888   1.467
   87c2      cw  951   2.525   1.924   1.437
   87c2      c3  952   2.691   1.968   1.125
   87c2      c5  953   2.699   1.850   1.598
   87c2      c4  954   2.853   1.848   1.605
   87c2      hb  955   2.443   1.994   1.244
   87c2      hb  956   2.445   1.923   1.510
   87c2      ha  957   2.832   1.877   1.346
   88c2      cw  958   2.383   0.017   2.074
   88c2      na  959   2.339   4.477   1.956
   88c2      cr  960   2.314   4.349   1.976
   88c2      na  961   2.342   4.318   2.100
   88c2      cw  962   2.385   4.432   2.165
   88c2      c3  963   2.323   0.033   1.832
   88c2      c5  964   2.326   4.190   2.161
   88c2      c4  965   2.464   4.125   2.183
   88c2      hb  966   2.408   0.122   2.085
   88c2      hb  967   2.413   4.435   2.269
   88c2      ha  968   2.277   4.282   1.899
   89c2      cw  969   2.445   1.760   0.441
   89c2      na  970   2.383   1.669   0.523
   89c2      cr  971   2.362   1.559   0.454
   89c2      na  972   2.404   1.576   0.331
   89c2      cw  973   2.458   1.702   0.320
   89c2      c3  974   2.349   1.691   0.660
   89c2      c5  975   2.399   1.480   0.225
   89c2      c4  976   2.267   1.494   0.147
   89c2      hb  977   2.476   1.858   0.474
   89c2      hb  978   2.502   1.740   0.229
   89c2      ha  979   2.318   1.469   0.494
   90c2      cw  980   3.006   2.646   3.934
   90c2      na  981   3.075   2.663   4.052
   90c2      cr  982   3.147   2.556   4.073
   90c2      na  983   3.130   2.471   3.974
   90c2      cw  984   3.041   2.527   3.885
   90c2      c3  985   3.070   2.778   4.137
   90c2      c5  986   3.193   2.343   3.961
   90c2      c4  987   3.340   2.360   3.918
   90c2      hb  988   2.938   2.721   3.896
   90c2      hb  989   3.010   2.476   3.794
   90c2      ha  990   3.211   2.541   4.159
   91c2      cw  991   3.233   2.152   1.648
   91c2      na  992   3.265   2.083   1.533
   91c2      cr  993   3.281   1.956   1.565
   91c2      na  994   3.259   1.939   1.693
   91c2      cw  995   3.229   2.062   1.748
   91c2      c3  996   3.281   2.140   1.403
   91c2      c5  997   3.265   1.819   1.771
   91c2      c4  998   3.304   1.697   1.685
   91c2      hb  999   3.215   2.259   1.648
   91c2      hb 1000   3.208   2.074   1.853
   91c2      ha 1001   3.310   1.881   1.493
   92c2      cw 1002   1.109   2.037   1.242
   92c2      na 1003   0.978   2.019   1.200
   92c2      cr 1004   0.971   1.906   1.134
   92c2      na 1005   1.090   1.851   1.129
   92c2      cw 1006   1.179   1.932   1.197
   92c2      c3 1007   0.870   2.110   1.226
   92c2      c5 1008   1.124   1.726   1.066
   92c2      c4 1009   1.177   1.751   0.924
   92c2      hb 1010   1.141   2.122   1.300
   92c2      hb 1011   1.283   1.908   1.209
   92c2      ha 1012   0.881   1.865   1.092
   93c2      cw 1013   1.455   0.718   0.291
   93c2      na 1014   1.418   0.818   0.378
   93c2      cr 1015   1.287   0.814   0.392
   93c2      na 1016   1.237   0.718   0.317
   93c2      cw 1017   1.342   0.656   0.252
   93c2      c3 1018   1.507   0.910   0.441
   93c2      c5 1019   1.099   0.682   0.306
   93c2      c4 1020   1.030   0.772   0.202
   93c2      hb 1021   1.558   0.700   0.264
   93c2      hb 1022   1.327   0.574   0.184
   93c2      ha 1023   1.230   0.880   0.456
   94c2      cw 1024   3.797   2.101   3.112
   94c2      na 1025   3.765   2.074   3.243
   94c2      cr 1026   3.865   2.114   3.319
   94c2      na 1027   3.960   2.165   3.243
   94c2      cw 1028   3.918   2.158   3.112
   94c2      c3 1029   3.644   2.010   3.287
   94c2      c5 1030   4.086   2.213   3.288
   94c2      c4 1031   4.087   2.367   3.288
   94c2      hb 1032   3.731   2.076   3.030
   94c2      hb 1033   3.976   2.194   3.028
   94c2      ha 1034   3.868   2.105   3.426
   95c2      cw 1035   1.352   3.529   2.637
   95c2      na 1036   1.244   3.585   2.572
   95c2      cr 1037   1.157   3.490   2.549
   95c2      na 1038   1.203   3.375   2.593
   95c2      cw 1039   1.326   3.398   2.651
   95c2      c3 1040   1.230   3.723   2.537
   95c2      c5 1041   1.135   3.250   2.586
   95c2      c4 1042   1.181   3.170   2.463
   95c2      hb 1043   1.436   3.589   2.668
   95c2      hb 1044   1.384   3.320   2.698
   95c2      ha 1045   1.061   3.504   2.500
   96c2      cw 1046   0.654   2.436   4.462
   96c2      na 1047   0.606   2.329   0.021
   96c2      cr 1048   0.482   2.308   4.499
   96c2      na 1049   0.448   2.393   4.405
   96c2      cw 1050   0.556   2.475   4.380
   96c2      c3 1051   0.678   2.256   0.121
   96c2      c5 1052   0.320   2.399   4.340
   96c2      c4 1053   0.240   2.520   4.393
   96c2      hb 1054   0.754   2.474   4.474
   96c2      hb 1055   0.555   2.554   4.307
   96c2      ha 1056   0.418   2.232   0.027
   97c2      cw 1057   1.394   1.537   1.776
   97c2      na 1058   1.395   1.406   1.819
   97c2      cr 1059   1.329   1.400   1.933
   97c2      na 1060   1.285   1.520   1.964
   97c2      cw 1061   1.326   1.608   1.866
   97c2      c3 1062   1.456   1.297   1.750
   97c2      c5 1063   1.206   1.555   2.078
   97c2      c4 1064   1.288   1.644   2.173
   97c2      hb 1065   1.442   1.568   1.684
   97c2      hb 1066   1.303   1.714   1.868
   97c2      ha 1067   1.313   1.311   1.991
   98c2      cw 1068   2.596   4.320   3.670
   98c2      na 1069   2.728   4.349   3.700
   98c2      cr 1070   2.749   4.317   3.825
   98c2      na 1071   2.638   4.271   3.879
   98c2      cw 1072   2.540   4.271   3.781
   98c2      c3 1073   2.822   4.406   3.609
   98c2      c5 1074   2.620   4.229   4.014
   98c2      c4 1075   2.585   4.079   4.017
   98c2      hb 1076   2.555   4.336   3.571
   98c2      hb 1077   2.439   4.237   3.799
   98c2      ha 1078   2.844   4.328   3.876
   99c2      cw 1079   1.093   1.021   2.255
   99c2      na 1080   1.096   0.930   2.358
   99c2      cr 1081   0.972   0.901   2.392
   99c2      na 1082   0.889   0.968   2.315
   99c2      cw 1083   0.964   1.044   2.228
   99c2      c3 1084   1.215   0.877   2.417
   99c2      c5 1085   0.746   0.968   2.317
   99c2      c4 1086   0.691   0.874   2.426
   99c2      hb 1087   1.182   1.061   2.210
   99c2      hb 1088   0.918   1.108   2.153
   99c2      ha 1089   0.947   0.832   2.471
  100c2      cw 1090   3.211   3.967   3.342
  100c2      na 1091   3.230   3.854   3.419
  100c2      cr 1092   3.325   3.879   3.506
  100c2      na 1093   3.367   4.003   3.490
  100c2      cw 1094   3.296   4.060   3.387
  100c2      c3 1095   3.159   3.731   3.403
  100c2      c5 1096   3.469   4.069   3.567
  100c2      c4 1097   3.600   4.076   3.487
  100c2      hb 1098   3.138   3.972   3.263
  100c2      hb 1099   3.311   4.162   3.354
  100c2      ha 1100   3.363   3.809   3.578
  101c2      cw 1101   4.147   4.486   4.193
  101c2      na 1102   4.252   0.059   4.212
  101c2      cr 1103   4.323   0.016   4.314
  101c2      na 1104   4.268   4.421   4.363
  101c2      cw 1105   4.157   4.391   4.288
  101c2      c3 1106   4.279   0.175   4.133
  101c2      c5 1107   4.318   4.343   4.472
  101c2      c4 1108   4.217   4.342   0.074
  101c2      hb 1109   4.073   4.497   4.115
  101c2      hb 1110   4.093   4.306   4.305
  101c2      ha 1111   4.412   0.065   4.350
  102c2      cw 1112   0.031   4.427   2.204
  102c2      na 1113   4.508   4.295   2.190
  102c2      cr 1114   4.404   4.290   2.110
  102c2      na 1115   4.373   4.412   2.071
  102c2      cw 1116   4.462   4.500   2.129
  102c2      c3 1117   0.056   4.183   2.254
  102c2      c5 1118   4.267   4.452   1.984
  102c2      c4 1119   4.179   4.330   1.947
  102c2      hb 1120   0.115   4.456   2.266
  102c2      hb 1121   4.457   0.092   2.112
  102c2      ha 1122   4.355   4.198   2.082
  103c2      cw 1123   3.170   2.813   0.950
  103c2      na 1124   3.242   2.800   1.067
  103c2      cr 1125   3.167   2.735   1.154
  103c2      na 1126   3.052   2.704   1.098
  103c2      cw 1127   3.051   2.753   0.970
  103c2      c3 1128   3.374   2.850   1.090
  103c2      c5 1129   2.946   2.633   1.163
  103c2      c4 1130   2.949   2.484   1.121
  103c2      hb 1131   3.211   2.864   0.864
  103c2      hb 1132   2.966   2.743   0.905
  103c2      ha 1133   3.196   2.712   1.255
  104c2      cw 1134   0.755   2.924   3.684
  104c2      na 1135   0.707   2.858   3.795
  104c2      cr 1136   0.724   2.936   3.899
  104c2      na 1137   0.781   3.048   3.861
  104c2      cw 1138   0.799   3.043   3.725
  104c2      c3 1139   0.648   2.727   3.796
  104c2      c5 1140   0.817   3.157   3.947
  104c2      c4 1141   0.970   3.160   3.965
  104c2      hb 1142   0.754   2.879   3.585
  104c2      hb 1143   0.843   3.125   3.670
  104c2      ha 1144   0.696   2.912   4.001
  105c2      cw 1145   3.339   3.026   2.525
  105c2      na 1146   3.234   2.938   2.530
  105c2      cr 1147   3.280   2.818   2.500
  105c2      na 1148   3.409   2.825   2.473
  105c2      cw 1149   3.448   2.956   2.489
  105c2      c3 1150   3.099   2.972   2.561
  105c2      c5 1151   3.493   2.718   2.430
  105c2      c4 1152   3.613   2.704   2.526
  105c2      hb 1153   3.328   3.132   2.545
  105c2      hb 1154   3.549   2.991   2.472
  105c2      ha 1155   3.220   2.728   2.495
  106c2      cw 1156   3.856   0.942   1.545
  106c2      na 1157   3.862   0.863   1.657
  106c2      cr 1158   3.959   0.775   1.642
  106c2      na 1159   4.014   0.791   1.523
  106c2      cw 1160   3.950   0.896   1.461
  106c2      c3 1161   3.778   0.876   1.772
  106c2      c5 1162   4.122   0.718   1.465
  106c2      c4 1163   4.175   0.608   1.559
  106c2      hb 1164   3.787   1.024   1.534
  106c2      hb 1165   3.979   0.931   1.363
  106c2      ha 1166   3.987   0.703   1.717
  107c2      cw 1167   3.316   0.891   0.375
  107c2      na 1168   3.196   0.880   0.440
  107c2      cr 1169   3.210   0.929   0.561
  107c2      na 1170   3.334   0.972   0.577
  107c2      cw 1171   3.402   0.950   0.459
  107c2      c3 1172   3.076   0.824   0.385
  107c2      c5 1173   3.389   1.032   0.694
  107c2      c4 1174   3.464   0.926   0.777
  107c2      hb 1175   3.331   0.855   0.274
  107c2      hb 1176   3.506   0.976   0.445
  107c2      ha 1177   3.133   0.932   0.636
  108c2      cw 1178   1.800   1.591   2.665
  108c2      na 1179   1.804   1.725   2.630
  108c2      cr 1180   1.914   1.745   2.561
  108c2      na 1181   1.981   1.633   2.550
  108c2      cw 1182   1.910   1.534   2.615
  108c2      c3 1183   1.704   1.822   2.662
  108c2      c5 1184   2.106   1.615   2.484
  108c2      c4 1185   2.218   1.607   2.589
  108c2      hb 1186   1.719   1.549   2.723
  108c2      hb 1187   1.942   1.431   2.620
  108c2      ha 1188   1.944   1.841   2.521
  109c2      cw 1189   1.442   3.397   0.951
  109c2      na 1190   1.423   3.534   0.944
  109c2      cr 1191   1.324   3.566   1.024
  109c2      na 1192   1.280   3.458   1.085
  109c2      cw 1193   1.353   3.350   1.040
  109c2      c3 1194   1.498   3.624   0.862
  109c2      c5 1195   1.176   3.451   1.183
  109c2      c4 1196   1.143   3.591   1.237
  109c2      hb 1197   1.517   3.345   0.893
  109c2      hb 1198   1.336   3.250   1.074
  109c2      ha 1199   1.287   3.667   1.036
  110c2      cw 1200   3.736   2.315   0.098
  110c2      na 1201   3.743   2.376   4.489
  110c2      cr 1202   3.770   2.504   4.508
  110c2      na 1203   3.780   2.527   0.123
  110c2      cw 1204   3.759   2.409   0.191
  110c2      c3 1205   3.722   2.312   4.362
  110c2      c5 1206   3.807   2.653   0.184
  110c2      c4 1207   3.687   2.696   0.271
  110c2      hb 1208   3.713   2.210   0.109
  110c2      hb 1209   3.761   2.399   0.298
  110c2      ha 1210   3.780   2.576   4.429
  111c2      cw 1211   2.222   2.050   2.908
  111c2      na 1212   2.118   1.998   2.982
  111c2      cr 1213   2.041   2.098   3.020
  111c2      na 1214   2.092   2.211   2.977
  111c2      cw 1215   2.206   2.183   2.905
  111c2      c3 1216   2.097   1.859   3.009
  111c2      c5 1217   2.037   2.342   2.996
  111c2      c4 1218   2.009   2.369   3.145
  111c2      hb 1219   2.299   1.988   2.863
  111c2      hb 1220   2.268   2.257   2.857
  111c2      ha 1221   1.949   2.086   3.075
  112c2      cw 1222   2.543   3.147   0.933
  112c2      na 1223   2.628   3.172   0.828
  112c2      cr 1224   2.561   3.159   0.716
  112c2      na 1225   2.435   3.130   0.744
  112c2      cw 1226   2.423   3.120   0.880
  112c2      c3 1227   2.768   3.200   0.840
  112c2      c5 1228   2.328   3.107   0.652
  112c2      c4 1229   2.378   3.105   0.507
  112c2      hb 1230   2.577   3.149   1.036
  112c2      hb 1231   2.329   3.092   0.927
  112c2      ha 1232   2.606   3.170   0.618
  113c2      cw 1233   4.413   2.819   1.187
  113c2      na 1234   4.468   2.787   1.065
  113c2      cr 1235   0.082   2.815   1.070
  113c2      na 1236   0.113   2.863   1.189
  113c2      cw 1237   4.512   2.867   1.264
  113c2      c3 1238   4.397   2.734   0.953
  113c2      c5 1239   0.241   2.906   1.235
  113c2      c4 1240   0.354   2.853   1.145
  113c2      hb 1241   4.308   2.805   1.207
  113c2      hb 1242   4.511   2.903   1.366
  113c2      ha 1243   0.150   2.801   0.987
  114c2      cw 1244   2.615   4.368   1.083
  114c2      na 1245   2.501   4.327   1.150
  114c2      cr 1246   2.513   4.364   1.276
  114c2      na 1247   2.628   4.426   1.293
  114c2      cw 1248   2.693   4.431   1.172
  114c2      c3 1249   2.391   4.256   1.092
  114c2      c5 1250   2.680   4.476   1.416
  114c2      c4 1251   2.604   0.089   1.457
  114c2      hb 1252   2.628   4.349   0.977
  114c2      hb 1253   2.790   4.477   1.158
  114c2      ha 1254   2.439   4.345   1.352
  115c2      cw 1255   0.776   3.166   3.182
  115c2      na 1256   0.670   3.078   3.176
  115c2      cr 1257   0.664   3.028   3.055
  115c2      na 1258   0.761   3.079   2.982
  115c2      cw 1259   0.832   3.167   3.060
  115c2      c3 1260   0.581   3.048   3.285
  115c2      c5 1261   0.785   3.052   2.843
  115c2      c4 1262   0.865   2.921   2.829
  115c2      hb 1263   0.801   3.219   3.272
  115c2      hb 1264   0.916   3.224   3.023
  115c2      ha 1265   0.591   2.955   3.021
  116c2      cw 1266   0.620   0.572   2.620
  116c2      na 1267   0.646   0.439   2.593
  116c2      cr 1268   0.705   0.387   2.698
  116c2      na 1269   0.720   0.480   2.791
  116c2      cw 1270   0.666   0.597   2.743
  116c2      c3 1271   0.614   0.371   2.471
  116c2      c5 1272   0.780   0.462   2.920
  116c2      c4 1273   0.929   0.498   2.913
  116c2      hb 1274   0.571   0.636   2.549
  116c2      hb 1275   0.663   0.688   2.801
  116c2      ha 1276   0.737   0.284   2.706
  117c2      cw 1277   3.821   3.144   3.316
  117c2      na 1278   3.754   3.084   3.211
  117c2      cr 1279   3.843   3.036   3.128
  117c2      na 1280   3.964   3.063   3.172
  117c2      cw 1281   3.952   3.130   3.292
  117c2      c3 1282   3.612   3.075   3.197
  117c2      c5 1283   4.087   3.027   3.109
  117c2      c4 1284   4.136   3.142   3.018
  117c2      hb 1285   3.769   3.191   3.398
  117c2      hb 1286   4.037   3.161   3.351
  117c2      ha 1287   3.820   2.982   3.038
  118c2      cw 1288   1.933   4.050   1.583
  118c2      na 1289   1.983   4.115   1.472
  118c2      cr 1290   1.896   4.206   1.434
  118c2      na 1291   1.793   4.204   1.515
  118c2      cw 1292   1.814   4.105   1.609
  118c2      c3 1293   2.107   4.085   1.406
  118c2      c5 1294   1.677   4.287   1.511
  118c2      c4 1295   1.696   4.400   1.407
  118c2      hb 1296   1.987   3.971   1.634
  118c2      hb 1297   1.743   4.083   1.688
  118c2      ha 1298   1.910   4.270   1.348
  119c2      cw 1299   2.241   0.220   3.472
  119c2      na 1300   2.187   0.093   3.457
  119c2      cr 1301   2.094   0.099   3.365
  119c2      na 1302   2.087   0.221   3.317
  119c2      cw 1303   2.180   0.299   3.382
  119c2      c3 1304   2.226   4.490   3.529
  119c2      c5 1305   1.998   0.266   3.214
  119c2      c4 1306   1.894   0.362   3.273
  119c2      hb 1307   2.319   0.241   3.544
  119c2      hb 1308   2.194   0.403   3.359
  119c2      ha 1309   2.034   0.014   3.335
  120c2      cw 1310   0.482   3.909   0.719
  120c2      na 1311   0.364   3.856   0.670
  120c2      cr 1312   0.311   3.943   0.587
  120c2      na 1313   0.387   4.050   0.580
  120c2      cw 1314   0.496   4.030   0.663
  120c2      c3 1315   0.309   3.728   0.704
  120c2      c5 1316   0.365   4.163   0.496
  120c2      c4 1317   0.258   4.255   0.556
  120c2      hb 1318   0.544   3.854   0.788
  120c2      hb 1319   0.574   4.103   0.674
  120c2      ha 1320   0.218   3.927   0.534
  121c2      cw 1321   3.826   3.249   2.192
  121c2      na 1322   3.825   3.306   2.318
  121c2      cr 1323   3.890   3.226   2.400
  121c2      na 1324   3.934   3.121   2.333
  121c2      cw 1325   3.894   3.133   2.202
  121c2      c3 1326   3.760   3.429   2.351
  121c2      c5 1327   4.011   3.014   2.388
  121c2      c4 1328   3.920   2.899   2.434
  121c2      hb 1329   3.778   3.297   2.108
  121c2      hb 1330   3.917   3.059   2.127
  121c2      ha 1331   3.904   3.245   2.505
  122c2      cw 1332   3.345   1.329   1.286
  122c2      na 1333   3.458   1.382   1.227
  122c2      cr 1334   3.528   1.283   1.178
  122c2      na 1335   3.468   1.169   1.204
  122c2      cw 1336   3.351   1.196   1.271
  122c2      c3 1337   3.491   1.521   1.221
  122c2      c5 1338   3.514   1.039   1.166
  122c2      c4 1339   3.550   0.958   1.292
  122c2      hb 1340   3.271   1.390   1.335
  122c2      hb 1341   3.282   1.120   1.304
  122c2      ha 1342   3.621   1.294   1.124
  123c2      cw 1343   3.097   1.110   3.869
  123c2      na 1344   3.180   1.207   3.921
  123c2      cr 1345   3.204   1.295   3.827
  123c2      na 1346   3.143   1.259   3.716
  123c2      cw 1347   3.074   1.143   3.741
  123c2      c3 1348   3.228   1.212   4.056
  123c2      c5 1349   3.143   1.326   3.590
  123c2      c4 1350   3.186   1.473   3.603
  123c2      hb 1351   3.061   1.027   3.928
  123c2      hb 1352   3.014   1.093   3.667
  123c2      ha 1353   3.266   1.383   3.840
  124c2      cw 1354   1.422   2.598   0.866
  124c2      na 1355   1.285   2.609   0.871
  124c2      cr 1356   1.253   2.667   0.985
  124c2      na 1357   1.361   2.695   1.053
  124c2      cw 1358   1.470   2.653   0.979
  124c2      c3 1359   1.195   2.564   0.770
  124c2      c5 1360   1.370   2.756   1.182
  124c2      c4 1361   1.231   2.759   1.250
  124c2      hb 1362   1.474   2.551   0.784
  124c2      hb 1363   1.572   2.663   1.014
  124c2      ha 1364   1.151   2.688   1.015
  125c2      cw 1365   0.683   2.987   0.756
  125c2      na 1366   0.741   3.088   0.829
  125c2      cr 1367   0.749   3.195   0.753
  125c2      na 1368   0.699   3.169   0.635
  125c2      cw 1369   0.656   3.038   0.635
  125c2      c3 1370   0.786   3.078   0.965
  125c2      c5 1371   0.690   3.257   0.522
  125c2      c4 1372   0.734   3.399   0.559
  125c2      hb 1373   0.665   2.888   0.795
  125c2      hb 1374   0.610   2.989   0.550
  125c2      ha 1375   0.790   3.290   0.786
  126c2      cw 1376   2.343   0.757   2.342
  126c2      na 1377   2.271   0.641   2.358
  126c2      cr 1378   2.301   0.588   2.474
  126c2      na 1379   2.393   0.662   2.533
  126c2      cw 1380   2.420   0.770   2.451
  126c2      c3 1381   2.177   0.589   2.263
  126c2      c5 1382   2.457   0.637   2.658
  126c2      c4 1383   2.476   0.486   2.678
  126c2      hb 1384   2.333   0.820   2.255
  126c2      hb 1385   2.491   0.847   2.477
  126c2      ha 1386   2.256   0.499   2.514
  127c2      cw 1387   2.867   3.900   0.069
  127c2      na 1388   2.929   3.894   4.460
  127c2      cr 1389   2.978   3.774   4.445
  127c2      na 1390   2.957   3.702   0.039
  127c2      cw 1391   2.885   3.780   0.127
  127c2      c3 1392   2.937   4.001   4.365
  127c2      c5 1393   3.003   3.569   0.063
  127c2      c4 1394   2.912   3.468   4.504
  127c2      hb 1395   2.816   3.989   0.104
  127c2      hb 1396   2.852   3.744   0.224
  127c2      ha 1397   3.029   3.740   4.356
  128c2      cw 1398   4.404   2.460   0.420
  128c2      na 1399   4.326   2.440   0.308
  128c2      cr 1400   4.376   2.513   0.210
  128c2      na 1401   4.480   2.580   0.254
  128c2      cw 1402   4.500   2.548   0.386
  128c2      c3 1403   4.212   2.354   0.300
  128c2      c5 1404   0.045   2.673   0.179
  128c2      c4 1405   0.033   2.813   0.241
  128c2      hb 1406   4.384   2.413   0.515
  128c2      hb 1407   0.065   2.589   0.447
  128c2      ha 1408   4.337   2.516   0.109
  129c2      cw 1409   0.852   4.215   1.922
  129c2      na 1410   0.795   4.147   2.028
  129c2      cr 1411   0.673   4.191   2.044
  129c2      na 1412   0.646   4.282   1.953
  129c2      cw 1413   0.759   4.300   1.876
  129c2      c3 1414   0.860   4.046   2.106
  129c2      c5 1415   0.521   4.349   1.936
  129c2      c4 1416   0.427   4.261   1.851
  129c2      hb 1417   0.953   4.196   1.890
  129c2      hb 1418   0.765   4.371   1.795
  129c2      ha 1419   0.603   4.157   2.120
  130c2      cw 1420   2.796   1.453   0.843
  130c2      na 1421   2.814   1.588   0.820
  130c2      cr 1422   2.940   1.608   0.789
  130c2      na 1423   3.005   1.494   0.795
  130c2      cw 1424   2.916   1.395   0.828
  130c2      c3 1425   2.711   1.687   0.827
  130c2      c5 1426   3.144   1.474   0.768
  130c2      c4 1427   3.217   1.422   0.894
  130c2      hb 1428   2.700   1.409   0.865
  130c2      hb 1429   2.942   1.290   0.837
  130c2      ha 1430   2.982   1.704   0.762
  131c2      cw 1431   2.221   0.970   0.194
  131c2      na 1432   2.109   0.991   0.272
  131c2      cr 1433   2.056   0.875   0.299
  131c2      na 1434   2.127   0.779   0.242
  131c2      cw 1435   2.232   0.838   0.176
  131c2      c3 1436   2.061   1.119   0.315
  131c2      c5 1437   2.102   0.639   0.252
  131c2      c4 1438   2.025   0.590   0.128
  131c2      hb 1439   2.284   1.051   0.160
  131c2      hb 1440   2.307   0.783   0.120
  131c2      ha 1441   1.967   0.861   0.359
  132c2      cw 1442   1.590   1.699   3.191
  132c2      na 1443   1.459   1.702   3.233
  132c2      cr 1444   1.457   1.678   3.362
  132c2      na 1445   1.580   1.658   3.405
  132c2      cw 1446   1.665   1.673   3.298
  132c2      c3 1447   1.345   1.729   3.150
  132c2      c5 1448   1.620   1.625   3.538
  132c2      c4 1449   1.535   1.508   3.590
  132c2      hb 1450   1.618   1.717   3.088
  132c2      hb 1451   1.773   1.663   3.308
  132c2      ha 1452   1.367   1.676   3.423
  133c2      cw 1453   0.639   4.158   2.773
  133c2      na 1454   0.565   4.055   2.720
  133c2      cr 1455   0.640   3.988   2.635
  133c2      na 1456   0.760   4.043   2.630
  133c2      cw 1457   0.761   4.152   2.716
  133c2      c3 1458   0.428   4.026   2.751
  133c2      c5 1459   0.871   4.003   2.551
  133c2      c4 1460   0.844   3.864   2.489
  133c2      hb 1461   0.599   4.227   2.845
  133c2      hb 1462   0.847   4.216   2.728
  133c2      ha 1463   0.605   3.903   2.579
  134c2      cw 1464   4.106   4.507   1.594
  134c2      na 1465   4.221   0.012   1.520
  134c2      cr 1466   4.194   0.097   1.424
  134c2      na 1467   4.067   0.129   1.427
  134c2      cw 1468   4.009   0.066   1.536
  134c2      c3 1469   4.348   4.465   1.546
  134c2      c5 1470   3.998   0.215   1.336
  134c2      c4 1471   3.936   0.130   1.223
  134c2      hb 1472   4.102   4.444   1.681
  134c2      hb 1473   3.906   0.078   1.566
  134c2      ha 1474   4.267   0.134   1.353
  135c2      cw 1475   2.704   3.528   3.952
  135c2      na 1476   2.624   3.549   3.842
  135c2      cr 1477   2.666   3.657   3.780
  135c2      na 1478   2.768   3.708   3.846
  135c2      cw 1479   2.794   3.627   3.955
  135c2      c3 1480   2.513   3.467   3.803
  135c2      c5 1481   2.837   3.829   3.815
  135c2      c4 1482   2.946   3.802   3.710
  135c2      hb 1483   2.688   3.444   4.018
  135c2      hb 1484   2.873   3.648   4.025
  135c2      ha 1485   2.622   3.698   3.690
  136c2      cw 1486   3.119   2.131   3.427
  136c2      na 1487   3.167   2.041   3.519
  136c2      cr 1488   3.081   1.942   3.529
  136c2      na 1489   2.978   1.965   3.449
  136c2      cw 1490   3.001   2.083   3.383
  136c2      c3 1491   3.291   2.051   3.590
  136c2      c5 1492   2.866   1.879   3.431
  136c2      c4 1493   2.747   1.928   3.516
  136c2      hb 1494   3.172   2.221   3.400
  136c2      hb 1495   2.933   2.123   3.309
  136c2      ha 1496   3.092   1.856   3.593
  137c2      cw 1497   3.951   0.763   2.521
  137c2      na 1498   3.837   0.707   2.576
  137c2      cr 1499   3.769   0.649   2.480
  137c2      na 1500   3.834   0.663   2.366
  137c2      cw 1501   3.948   0.735   2.390
  137c2      c3 1502   3.800   0.712   2.714
  137c2      c5 1503   3.792   0.615   2.238
  137c2      c4 1504   3.861   0.480   2.208
  137c2      hb 1505   4.023   0.818   2.580
  137c2      hb 1506   4.019   0.762   2.312
  137c2      ha 1507   3.675   0.598   2.493
  138c2      cw 1508   3.210   0.264   2.359
  138c2      na 1509   3.293   0.213   2.261
  138c2      cr 1510   3.225   0.211   2.148
  138c2      na 1511   3.104   0.259   2.168
  138c2      cw 1512   3.093   0.292   2.302
  138c2      c3 1513   3.428   0.171   2.277
  138c2      c5 1514   3.003   0.275   2.069
  138c2      c4 1515   2.992   0.423   2.029
  138c2      hb 1516   3.243   0.274   2.462
  138c2      hb 1517   3.002   0.332   2.344
  138c2      ha 1518   3.265   0.175   2.055
  139c2      cw 1519   1.546   2.307   2.421
  139c2      na 1520   1.476   2.301   2.540
  139c2      cr 1521   1.561   2.325   2.637
  139c2      na 1522   1.681   2.346   2.587
  139c2      cw 1523   1.673   2.335   2.450
  139c2      c3 1524   1.337   2.273   2.554
  139c2      c5 1525   1.800   2.372   2.662
  139c2      c4 1526   1.796   2.515   2.720
  139c2      hb 1527   1.497   2.288   2.326
  139c2      hb 1528   1.759   2.348   2.385
  139c2      ha 1529   1.535   2.325   2.742
  140c2      cw 1530   1.114   1.207   1.399
  140c2      na 1531   0.997   1.150   1.352
  140c2      cr 1532   1.012   1.020   1.349
  140c2      na 1533   1.131   0.988   1.397
  140c2      cw 1534   1.197   1.105   1.427
  140c2      c3 1535   0.881   1.222   1.309
  140c2      c5 1536   1.186   0.858   1.416
  140c2      c4 1537   1.083   0.748   1.387
  140c2      hb 1538   1.128   1.313   1.409
  140c2      hb 1539   1.297   1.104   1.467
  140c2      ha 1540   0.936   0.952   1.314
  141c2      cw 1541   0.186   1.944   0.600
  141c2      na 1542   0.060   1.943   0.656
  141c2      cr 1543   0.073   1.947   0.787
  141c2      na 1544   0.200   1.951   0.818
  141c2      cw 1545   0.273   1.949   0.701
  141c2      c3 1546   4.451   1.940   0.583
  141c2      c5 1547   0.259   1.957   0.949
  141c2      c4 1548   0.157   1.926   1.060
  141c2      hb 1549   0.201   1.941   0.493
  141c2      hb 1550   0.381   1.951   0.700
  141c2      ha 1551   4.503   1.947   0.855
  142c2      cw 1552   0.845   2.027   3.672
  142c2      na 1553   0.806   2.157   3.692
  142c2      cr 1554   0.686   2.173   3.641
  142c2      na 1555   0.645   2.059   3.589
  142c2      cw 1556   0.745   1.965   3.607
  142c2      c3 1557   0.884   2.259   3.756
  142c2      c5 1558   0.520   2.035   3.525
  142c2      c4 1559   0.434   1.942   3.613
  142c2      hb 1560   0.940   1.988   3.706
  142c2      hb 1561   0.738   1.863   3.573
  142c2      ha 1562   0.630   2.265   3.643
  143c2      cw 1563   2.432   3.094   4.441
  143c2      na 1564   2.470   3.225   4.424
  143c2      cr 1565   2.423   3.267   4.308
  143c2      na 1566   2.357   3.169   4.249
  143c2      cw 1567   2.362   3.059   4.332
  143c2      c3 1568   2.546   3.302   0.004
  143c2      c5 1569   2.294   3.176   4.121
  143c2      c4 1570   2.141   3.172   4.136
  143c2      hb 1571   2.457   3.037   0.015
  143c2      hb 1572   2.314   2.965   4.308
  143c2      ha 1573   2.437   3.366   4.268
  144c2      cw 1574   4.362   0.843   3.105
  144c2      na 1575   4.435   0.748   3.174
  144c2      cr 1576   4.445   0.641   3.099
  144c2      na 1577   4.379   0.660   2.986
  144c2      cw 1578   4.327   0.787   2.988
  144c2      c3 1579   4.492   0.765   3.304
  144c2      c5 1580   4.365   0.565   2.880
  144c2      c4 1581   4.221   0.509   2.879
  144c2      hb 1582   4.342   0.941   3.144
  144c2      hb 1583   4.271   0.829   2.906
  144c2      ha 1584   4.498   0.551   3.127
  145c2      cw 1585   2.310   3.954   0.485
  145c2      na 1586   2.417   3.868   0.475
  145c2      cr 1587   2.372   3.751   0.436
  145c2      na 1588   2.241   3.757   0.422
  145c2      cw 1589   2.201   3.885   0.451
  145c2      c3 1590   2.553   3.901   0.504
  145c2      c5 1591   2.153   3.651   0.383
  145c2      c4 1592   2.231   3.521   0.361
  145c2      hb 1593   2.322   4.057   0.517
  145c2      hb 1594   2.097   3.917   0.446
  145c2      ha 1595   2.435   3.664   0.421
  146c2      cw 1596   3.919   2.851   1.706
  146c2      na 1597   3.870   2.980   1.718
  146c2      cr 1598   3.973   3.060   1.733
  146c2      na 1599   4.084   2.990   1.735
  146c2      cw 1600   4.052   2.858   1.718
  146c2      c3 1601   3.732   3.017   1.715
  146c2      c5 1602   4.217   3.043   1.749
  146c2      c4 1603   4.245   3.078   1.896
  146c2      hb 1604   3.852   2.768   1.690
  146c2      hb 1605   4.127   2.780   1.715
  146c2      ha 1606   3.966   3.168   1.742
  147c2      cw 1607   2.433   1.301   3.239
  147c2      na 1608   2.296   1.290   3.226
  147c2      cr 1609   2.242   1.403   3.267
  147c2      na 1610   2.338   1.486   3.304
  147c2      cw 1611   2.459   1.423   3.288
  147c2      c3 1612   2.225   1.175   3.180
  147c2      c5 1613   2.319   1.619   3.352
  147c2      c4 1614   2.366   1.629   3.499
  147c2      hb 1615   2.499   1.220   3.212
  147c2      hb 1616   2.553   1.468   3.314
  147c2      ha 1617   2.136   1.424   3.270
  148c2      cw 1618   4.331   3.974   0.607
  148c2      na 1619   4.268   4.097   0.612
  148c2      cr 1620   4.147   4.083   0.563
  148c2      na 1621   4.129   3.959   0.524
  148c2      cw 1622   4.243   3.888   0.553
  148c2      c3 1623   4.327   4.217   0.663
  148c2      c5 1624   4.010   3.906   0.466
  148c2      c4 1625   4.006   3.935   0.314
  148c2      hb 1626   4.431   3.960   0.643
  148c2      hb 1627   4.254   3.782   0.533
  148c2      ha 1628   4.075   4.163   0.556
  149c2      cw 1629   1.890   3.869   3.583
  149c2      na 1630   1.946   3.993   3.560
  149c2      cr 1631   1.861   4.085   3.599
  149c2      na 1632   1.754   4.027   3.649
  149c2      cw 1633   1.769   3.890   3.637
  149c2      c3 1634   2.075   4.016   3.502
  149c2      c5 1635   1.639   4.093   3.704
  149c2      c4 1636   1.634   4.072   3.856
  149c2      hb 1637   1.939   3.776   3.559
  149c2      hb 1638   1.693   3.820   3.668
  149c2      ha 1639   1.876   4.191   3.593
  150c2      cw 1640   2.386   0.205   0.330
  150c2      na 1641   2.408   0.267   0.451
  150c2      cr 1642   2.530   0.237   0.490
  150c2      na 1643   2.587   0.158   0.401
  150c2      cw 1644   2.497   0.137   0.299
  150c2      c3 1645   2.314   0.349   0.521
  150c2      c5 1646   2.719   0.106   0.408
  150c2      c4 1647   2.717   4.470   0.442
  150c2      hb 1648   2.292   0.216   0.276
  150c2      hb 1649   2.521   0.076   0.213
  150c2      ha 1650   2.576   0.272   0.580
  151c2      cw 1651   3.991   1.509   3.824
  151c2      na 1652   4.026   1.619   3.748
  151c2      cr 1653   4.068   1.713   3.830
  151c2      na 1654   4.058   1.671   3.954
  151c2      cw 1655   4.013   1.541   3.953
  151c2      c3 1656   4.020   1.626   3.606
  151c2      c5 1657   4.091   1.746   4.072
  151c2      c4 1658   3.963   1.783   4.149
  151c2      hb 1659   3.955   1.417   3.781
  151c2      hb 1660   4.000   1.483   4.042
  151c2      ha 1661   4.105   1.809   3.798
  152c2      cw 1662   1.114   4.329   1.144
  152c2      na 1663   1.078   4.206   1.195
  152c2      cr 1664   1.129   4.195   1.315
  152c2      na 1665   1.194   4.305   1.346
  152c2      cw 1666   1.186   4.391   1.238
  152c2      c3 1667   0.999   4.108   1.127
  152c2      c5 1668   1.264   4.330   1.468
  152c2      c4 1669   1.175   4.412   1.563
  152c2      hb 1670   1.084   4.361   1.045
  152c2      hb 1671   1.233   4.488   1.238
  152c2      ha 1672   1.118   4.108   1.379
  153c2      cw 1673   0.233   1.346   2.431
  153c2      na 1674   0.208   1.218   2.476
  153c2      cr 1675   0.103   1.172   2.412
  153c2      na 1676   0.058   1.263   2.329
  153c2      cw 1677   0.139   1.374   2.340
  153c2      c3 1678   0.283   1.148   2.575
  153c2      c5 1679   4.459   1.251   2.242
  153c2      c4 1680   4.503   1.261   2.095
  153c2      hb 1681   0.315   1.405   2.468
  153c2      hb 1682   0.123   1.464   2.282
  153c2      ha 1683   0.060   1.074   2.427
  154c2      cw 1684   1.766   2.205   3.768
  154c2      na 1685   1.745   2.277   3.653
  154c2      cr 1686   1.848   2.356   3.633
  154c2      na 1687   1.936   2.337   3.729
  154c2      cw 1688   1.886   2.242   3.816
  154c2      c3 1689   1.630   2.266   3.568
  154c2      c5 1690   2.063   2.401   3.740
  154c2      c4 1691   2.149   2.369   3.616
  154c2      hb 1692   1.693   2.135   3.806
  154c2      hb 1693   1.939   2.208   3.904
  154c2      ha 1694   1.857   2.424   3.550
  155c2      cw 1695   3.715   0.150   4.055
  155c2      na 1696   3.616   0.085   3.986
  155c2      cr 1697   3.505   0.156   3.996
  155c2      na 1698   3.528   0.260   4.073
  155c2      cw 1699   3.660   0.259   4.111
  155c2      c3 1700   3.630   4.476   3.916
  155c2      c5 1701   3.431   0.360   4.109
  155c2      c4 1702   3.365   0.322   4.243
  155c2      hb 1703   3.816   0.112   4.059
  155c2      hb 1704   3.704   0.335   4.174
  155c2      ha 1705   3.412   0.131   3.949
  156c2      cw 1706   2.866   1.388   1.548
  156c2      na 1707   2.786   1.319   1.460
  156c2      cr 1708   2.660   1.342   1.491
  156c2      na 1709   2.655   1.423   1.595
  156c2      cw 1710   2.785   1.452   1.634
  156c2      c3 1711   2.832   1.234   1.354
  156c2      c5 1712   2.538   1.477   1.656
  156c2      c4 1713   2.425   1.488   1.552
  156c2      hb 1714   2.973   1.386   1.542
  156c2      hb 1715   2.809   1.514   1.718
  156c2      ha 1716   2.575   1.301   1.439
  157c2      cw 1717   1.610   3.218   0.521
  157c2      na 1718   1.638   3.241   0.388
  157c2      cr 1719   1.652   3.124   0.329
  157c2      na 1720   1.630   3.028   0.416
  157c2      cw 1721   1.604   3.085   0.539
  157c2      c3 1722   1.650   3.369   0.327
  157c2      c5 1723   1.633   2.887   0.390
  157c2      c4 1724   1.489   2.833   0.393
  157c2      hb 1725   1.596   3.298   0.593
  157c2      hb 1726   1.584   3.028   0.628
  157c2      ha 1727   1.676   3.110   0.225
  158c2      cw 1728   1.668   0.448   0.963
  158c2      na 1729   1.749   0.474   1.072
  158c2      cr 1730   1.678   0.542   1.160
  158c2      na 1731   1.556   0.559   1.114
  158c2      cw 1732   1.547   0.500   0.990
  158c2      c3 1733   1.886   0.437   1.084
  158c2      c5 1734   1.450   0.627   1.182
  158c2      c4 1735   1.327   0.534   1.190
  158c2      hb 1736   1.704   0.395   0.877
  158c2      hb 1737   1.458   0.500   0.930
  158c2      ha 1738   1.716   0.578   1.255
  159c2      cw 1739   0.441   0.093   3.640
  159c2      na 1740   0.321   0.156   3.660
  159c2      cr 1741   0.299   0.237   3.559
  159c2      na 1742   0.400   0.232   3.476
  159c2      cw 1743   0.491   0.140   3.524
  159c2      c3 1744   0.233   0.135   3.772
  159c2      c5 1745   0.412   0.305   3.353
  159c2      c4 1746   0.524   0.410   3.365
  159c2      hb 1747   0.482   0.020   3.708
  159c2      hb 1748   0.582   0.114   3.473
  159c2      ha 1749   0.210   0.298   3.547
  160c2      cw 1750   0.063   3.536   1.364
  160c2      na 1751   0.099   3.501   1.235
  160c2      cr 1752   0.002   3.429   1.183
  160c2      na 1753   4.419   3.416   1.270
  160c2      cw 1754   4.456   3.483   1.385
  160c2      c3 1755   0.222   3.538   1.171
  160c2      c5 1756   4.295   3.347   1.254
  160c2      c4 1757   4.278   3.296   1.109
  160c2      hb 1758   0.127   3.594   1.428
  160c2      hb 1759   4.395   3.486   1.474
  160c2      ha 1760   0.005   3.389   1.083
  161c2      cw 1761   2.171   2.297   0.192
  161c2      na 1762   2.067   2.388   0.186
  161c2      cr 1763   1.954   2.322   0.196
  161c2      na 1764   1.978   2.193   0.201
  161c2      cw 1765   2.115   2.175   0.201
  161c2      c3 1766   2.082   2.530   0.172
  161c2      c5 1767   1.881   2.088   0.208
  161c2      c4 1768   1.824   2.061   0.068
  161c2      hb 1769   2.274   2.327   0.189
  161c2      hb 1770   2.161   2.078   0.209
  161c2      ha 1771   1.856   2.368   0.198
  162c2      cw 1772   1.826   1.862   1.370
  162c2      na 1773   1.813   1.998   1.391
  162c2      cr 1774   1.863   2.060   1.287
  162c2      na 1775   1.909   1.973   1.201
  162c2      cw 1776   1.886   1.847   1.251
  162c2      c3 1777   1.755   2.060   1.506
  162c2      c5 1778   1.973   2.002   1.076
  162c2      c4 1779   1.867   2.015   0.965
  162c2      hb 1780   1.790   1.790   1.442
  162c2      hb 1781   1.914   1.758   1.197
  162c2      ha 1782   1.865   2.168   1.276
  163c2      cw 1783   0.520   1.526   1.772
  163c2      na 1784   0.504   1.434   1.873
  163c2      cr 1785   0.604   1.349   1.868
  163c2      na 1786   0.685   1.382   1.770
  163c2      cw 1787   0.634   1.494   1.707
  163c2      c3 1788   0.397   1.432   1.968
  163c2      c5 1789   0.805   1.313   1.733
  163c2      c4 1790   0.923   1.369   1.816
  163c2      hb 1791   0.451   1.607   1.754
  163c2      hb 1792   0.681   1.542   1.623
  163c2      ha 1793   0.617   1.266   1.936
  164c2      cw 1794   4.027   4.486   2.609
  164c2      na 1795   3.934   0.058   2.555
  164c2      cr 1796   3.909   0.151   2.645
  164c2      na 1797   3.979   0.128   2.753
  164c2      cw 1798   4.056   0.016   2.732
  164c2      c3 1799   3.876   0.048   2.425
  164c2      c5 1800   3.980   0.207   2.873
  164c2      c4 1801   3.928   0.124   2.991
  164c2      hb 1802   4.064   4.401   2.554
  164c2      hb 1803   4.125   4.491   2.806
  164c2      ha 1804   3.842   0.234   2.630
  165c2      cw 1805   4.470   3.216   0.304
  165c2      na 1806   4.482   3.254   0.436
  165c2      cr 1807   0.094   3.281   0.459
  165c2      na 1808   0.165   3.260   0.350
  165c2      cw 1809   0.078   3.220   0.251
  165c2      c3 1810   4.375   3.262   0.531
  165c2      c5 1811   0.306   3.277   0.337
  165c2      c4 1812   0.374   3.139   0.326
  165c2      hb 1813   4.374   3.190   0.261
  165c2      hb 1814   0.112   3.199   0.150
  165c2      ha 1815   0.134   3.315   0.554
  166c2      cw 1816   0.931   1.968   3.196
  166c2      na 1817   0.943   2.082   3.120
  166c2      cr 1818   0.831   2.098   3.052
  166c2      na 1819   0.749   1.998   3.078
  166c2      cw 1820   0.811   1.915   3.170
  166c2      c3 1821   1.057   2.168   3.115
  166c2      c5 1822   0.618   1.975   3.026
  166c2      c4 1823   0.564   2.099   2.953
  166c2      hb 1824   1.010   1.934   3.262
  166c2      hb 1825   0.763   1.826   3.207
  166c2      ha 1826   0.813   2.180   2.984
  167c2      cw 1827   0.044   0.627   2.118
  167c2      na 1828   4.512   0.635   2.247
  167c2      cr 1829   0.042   0.530   2.314
  167c2      na 1830   0.110   0.453   2.232
  167c2      cw 1831   0.114   0.513   2.108
  167c2      c3 1832   4.431   0.740   2.300
  167c2      c5 1833   0.172   0.328   2.265
  167c2      c4 1834   0.320   0.327   2.226
  167c2      hb 1835   0.024   0.704   2.045
  167c2      hb 1836   0.165   0.471   2.023
  167c2      ha 1837   0.023   0.513   2.419
  168c2      cw 1838   0.094   3.506   1.909
  168c2      na 1839   0.142   3.490   2.037
  168c2      cr 1840   0.072   3.566   2.118
  168c2      na 1841   4.494   3.630   2.049
  168c2      cw 1842   4.507   3.593   1.917
  168c2      c3 1843   0.250   3.403   2.075
  168c2      c5 1844   4.395   3.721   2.098
  168c2      c4 1845   4.399   3.730   2.252
  168c2      hb 1846   0.137   3.455   1.824
  168c2      hb 1847   4.443   3.634   1.839
  168c2      ha 1848   0.089   3.574   2.224
  169c2      cw 1849   0.906   1.350   3.687
  169c2      na 1850   0.984   1.246   3.732
  169c2      cr 1851   1.051   1.287   3.837
  169c2      na 1852   1.023   1.414   3.860
  169c2      cw 1853   0.931   1.455   3.767
  169c2      c3 1854   0.990   1.115   3.674
  169c2      c5 1855   1.078   1.494   3.965
  169c2      c4 1856   1.161   1.609   3.905
  169c2      hb 1857   0.841   1.340   3.601
  169c2      hb 1858   0.892   1.556   3.764
  169c2      ha 1859   1.118   1.225   3.895
  170c2      cw 1860   1.980   1.166   3.881
  170c2      na 1861   2.101   1.212   3.927
  170c2      cr 1862   2.171   1.109   3.968
  170c2      na 1863   2.102   0.999   3.951
  170c2      cw 1864   1.980   1.033   3.897
  170c2      c3 1865   2.144   1.349   3.931
  170c2      c5 1866   2.143   0.866   3.987
  170c2      c4 1867   2.183   0.788   3.861
  170c2      hb 1868   1.903   1.231   3.841
  170c2      hb 1869   1.902   0.961   3.875
  170c2      ha 1870   2.271   1.115   4.011
  171c2      cw 1871   0.615   3.632   1.629
  171c2      na 1872   0.679   3.574   1.736
  171c2      cr 1873   0.778   3.501   1.690
  171c2      na 1874   0.782   3.509   1.559
  171c2      cw 1875   0.679   3.592   1.518
  171c2      c3 1876   0.641   3.588   1.873
  171c2      c5 1877   0.875   3.443   1.473
  171c2      c4 1878   0.803   3.331   1.395
  171c2      hb 1879   0.529   3.697   1.640
  171c2      hb 1880   0.660   3.618   1.415
  171c2      ha 1881   0.846   3.444   1.752
  172c2      cw 1882   1.563   4.479   0.285
  172c2      na 1883   1.535   4.473   0.150
  172c2      cr 1884   1.407   4.499   0.134
  172c2      na 1885   1.351   0.008   0.251
  172c2      cw 1886   1.448   4.509   0.348
  172c2      c3 1887   1.627   4.441   0.045
  172c2      c5 1888   1.213   0.040   0.272
  172c2      c4 1889   1.136   4.427   0.310
  172c2      hb 1890   1.662   4.458   0.322
  172c2      hb 1891   1.427   0.008   0.453
  172c2      ha 1892   1.356   4.500   0.039
  173c2      cw 1893   2.647   0.611   1.598
  173c2      na 1894   2.737   0.559   1.508
  173c2      cr 1895   2.851   0.623   1.521
  173c2      na 1896   2.838   0.714   1.615
  173c2      cw 1897   2.710   0.708   1.665
  173c2      c3 1898   2.710   0.455   1.413
  173c2      c5 1899   2.940   0.806   1.656
  173c2      c4 1900   3.014   0.752   1.779
  173c2      hb 1901   2.545   0.575   1.606
  173c2      hb 1902   2.675   0.773   1.744
  173c2      ha 1903   2.939   0.603   1.463
  174c2      cw 1904   3.566   2.262   1.809
  174c2      na 1905   3.619   2.378   1.756
  174c2      cr 1906   3.575   2.480   1.826
  174c2      na 1907   3.496   2.436   1.922
  174c2      cw 1908   3.490   2.298   1.914
  174c2      c3 1909   3.707   2.384   1.644
  174c2      c5 1910   3.433   2.516   2.023
  174c2      c4 1911   3.291   2.557   1.979
  174c2      hb 1912   3.588   2.164   1.768
  174c2      hb 1913   3.433   2.238   1.983
  174c2      ha 1914   3.599   2.583   1.808
  175c2      cw 1915   1.303   4.109   3.194
  175c2      na 1916   1.305   4.017   3.091
  175c2      cr 1917   1.429   4.003   3.051
  175c2      na 1918   1.507   4.081   3.123
  175c2      cw 1919   1.430   4.147   3.215
  175c2      c3 1920   1.191   3.950   3.037
  175c2      c5 1921   1.649   4.095   3.108
  175c2      c4 1922   1.680   4.223   3.028
  175c2      hb 1923   1.211   4.138   3.243
  175c2      hb 1924   1.471   4.217   3.287
  175c2      ha 1925   1.461   3.939   2.970
  176c2      cw 1926   2.510   3.879   2.886
  176c2      na 1927   2.567   3.819   2.996
  176c2      cr 1928   2.474   3.800   3.086
  176c2      na 1929   2.359   3.843   3.040
  176c2      cw 1930   2.379   3.894   2.913
  176c2      c3 1931   2.705   3.783   3.007
  176c2      c5 1932   2.234   3.839   3.109
  176c2      c4 1933   2.155   3.712   3.070
  176c2      hb 1934   2.567   3.904   2.798
  176c2      hb 1935   2.300   3.936   2.853
  176c2      ha 1936   2.491   3.755   3.183
  177c2      cw 1937   1.795   3.706   2.538
  177c2      na 1938   1.878   3.729   2.646
  177c2      cr 1939   1.974   3.810   2.608
  177c2      na 1940   1.959   3.840   2.481
  177c2      cw 1941   1.845   3.777   2.435
  177c2      c3 1942   1.859   3.675   2.777
  177c2      c5 1943   2.045   3.923   2.403
  177c2      c4 1944   2.023   4.071   2.438
  177c2      hb 1945   1.708   3.644   2.544
  177c2      hb 1946   1.810   3.787   2.334
  177c2      ha 1947   2.053   3.846   2.673
  178c2      cw 1948   2.623   2.255   2.409
  178c2      na 1949   2.639   2.264   2.546
  178c2      cr 1950   2.739   2.185   2.581
  178c2      na 1951   2.787   2.126   2.474
  178c2      cw 1952   2.717   2.170   2.364
  178c2      c3 1953   2.564   2.348   2.634
  178c2      c5 1954   2.896   2.032   2.472
  178c2      c4 1955   2.843   1.891   2.440
  178c2      hb 1956   2.547   2.311   2.357
  178c2      hb 1957   2.739   2.137   2.264
  178c2      ha 1958   2.775   2.173   2.682
  179c2      cw 1959   0.302   0.249   0.815
  179c2      na 1960   0.276   0.222   0.947
  179c2      cr 1961   0.328   0.318   1.020
  179c2      na 1962   0.389   0.404   0.941
  179c2      cw 1963   0.372   0.363   0.811
  179c2      c3 1964   0.206   0.107   0.997
  179c2      c5 1965   0.462   0.520   0.984
  179c2      c4 1966   0.386   0.648   0.945
  179c2      hb 1967   0.268   0.184   0.735
  179c2      hb 1968   0.412   0.417   0.726
  179c2      ha 1969   0.323   0.325   1.128
  180c2      cw 1970   1.709   4.258   0.776
  180c2      na 1971   1.823   4.263   0.699
  180c2      cr 1972   1.855   4.389   0.682
  180c2      na 1973   1.771   4.465   0.749
  180c2      cw 1974   1.677   4.384   0.809
  180c2      c3 1975   1.893   4.149   0.648
  180c2      c5 1976   1.775   0.094   0.757
  180c2      c4 1977   1.661   0.154   0.674
  180c2      hb 1978   1.660   4.164   0.801
  180c2      hb 1979   1.596   4.421   0.869
  180c2      ha 1980   1.938   4.424   0.622
  181c2      cw 1981   2.551   0.623   0.755
  181c2      na 1982   2.666   0.699   0.745
  181c2      cr 1983   2.645   0.814   0.805
  181c2      na 1984   2.522   0.816   0.854
  181c2      cw 1985   2.461   0.696   0.822
  181c2      c3 1986   2.787   0.658   0.681
  181c2      c5 1987   2.459   0.921   0.927
  181c2      c4 1988   2.544   1.049   0.924
  181c2      hb 1989   2.544   0.524   0.713
  181c2      hb 1990   2.360   0.673   0.849
  181c2      ha 1991   2.719   0.892   0.812
  182c2      cw 1992   3.306   1.897   4.323
  182c2      na 1993   3.417   1.822   4.291
  182c2      cr 1994   3.436   1.733   4.386
  182c2      na 1995   3.342   1.746   4.477
  182c2      cw 1996   3.259   1.849   4.439
  182c2      c3 1997   3.497   1.838   4.173
  182c2      c5 1998   3.326   1.666   0.080
  182c2      c4 1999   3.333   1.516   0.043
  182c2      hb 2000   3.270   1.977   4.259
  182c2      hb 2001   3.173   1.880   4.498
  182c2      ha 2002   3.517   1.662   4.387
  183c2      cw 2003   1.608   1.954   4.240
  183c2      na 2004   1.534   1.888   4.144
  183c2      cr 2005   1.615   1.850   4.048
  183c2      na 2006   1.738   1.886   4.078
  183c2      cw 2007   1.736   1.953   4.198
  183c2      c3 2008   1.393   1.866   4.149
  183c2      c5 2009   1.854   1.862   3.998
  183c2      c4 2010   1.930   1.739   4.053
  183c2      hb 2011   1.562   1.995   4.328
  183c2      hb 2012   1.825   1.996   4.242
  183c2      ha 2013   1.584   1.798   3.958
  184c2      cw 2014   3.314   1.960   0.685
  184c2      na 2015   3.384   1.881   0.598
  184c2      cr 2016   3.503   1.858   0.650
  184c2      na 2017   3.514   1.922   0.764
  184c2      cw 2018   3.395   1.986   0.789
  184c2      c3 2019   3.336   1.834   0.471
  184c2      c5 2020   3.631   1.928   0.846
  184c2      c4 2021   3.598   1.886   0.991
  184c2      hb 2022   3.212   1.992   0.665
  184c2      hb 2023   3.378   2.045   0.878
  184c2      ha 2024   3.579   1.797   0.603
  185c2      cw 2025   3.827   0.774   0.043
  185c2      na 2026   3.800   0.641   0.018
  185c2      cr 2027   3.908   0.586   4.481
  185c2      na 2028   4.005   0.675   4.476
  185c2      cw 2029   3.955   0.795   0.010
  185c2      c3 2030   3.676   0.576   0.046
  185c2      c5 2031   4.139   0.656   4.432
  185c2      c4 2032   4.185   0.510   4.453
  185c2      hb 2033   3.751   0.839   0.083
  185c2      hb 2034   4.016   0.884   0.016
  185c2      ha 2035   3.914   0.483   4.449
  186c2      cw 2036   2.939   3.720   1.137
  186c2      na 2037   2.866   3.638   1.055
  186c2      cr 2038   2.747   3.621   1.108
  186c2      na 2039   2.739   3.690   1.220
  186c2      cw 2040   2.861   3.752   1.241
  186c2      c3 2041   2.912   3.580   0.932
  186c2      c5 2042   2.626   3.696   1.307
  186c2      c4 2043   2.558   3.834   1.295
  186c2      hb 2044   3.041   3.749   1.114
  186c2      hb 2045   2.881   3.814   1.327
  186c2      ha 2046   2.669   3.561   1.066
  187c2      cw 2047   1.926   3.727   4.268
  187c2      na 2048   1.859   3.660   4.368
  187c2      cr 2049   1.737   3.708   4.376
  187c2      na 2050   1.721   3.801   4.284
  187c2      cw 2051   1.839   3.815   4.215
  187c2      c3 2052   1.915   3.557   4.451
  187c2      c5 2053   1.603   3.879   4.264
  187c2      c4 2054   1.507   3.808   4.166
  187c2      hb 2055   2.029   3.706   4.243
  187c2      hb 2056   1.853   3.885   4.135
  187c2      ha 2057   1.662   3.675   4.446
  188c2      cw 2058   0.682   0.944   3.170
  188c2      na 2059   0.640   1.061   3.230
  188c2      cr 2060   0.512   1.076   3.205
  188c2      na 2061   0.468   0.975   3.134
  188c2      cw 2062   0.575   0.890   3.111
  188c2      c3 2063   0.722   1.151   3.304
  188c2      c5 2064   0.336   0.954   3.084
  188c2      c4 2065   0.256   1.086   3.077
  188c2      hb 2066   0.785   0.910   3.174
  188c2      hb 2067   0.566   0.800   3.053
  188c2      ha 2068   0.454   1.161   3.240
  189c2      cw 2069   0.227   4.138   1.398
  189c2      na 2070   0.276   4.264   1.423
  189c2      cr 2071   0.390   4.278   1.358
  189c2      na 2072   0.417   4.167   1.293
  189c2      cw 2073   0.315   4.077   1.318
  189c2      c3 2074   0.214   4.363   1.506
  189c2      c5 2075   0.528   4.140   1.207
  189c2      c4 2076   0.606   4.270   1.177
  189c2      hb 2077   0.134   4.102   1.440
  189c2      hb 2078   0.312   3.977   1.278
  189c2      ha 2079   0.449   4.368   1.361
  190c2      cw 2080   3.120   3.073   3.445
  190c2      na 2081   2.997   3.045   3.500
  190c2      cr 2082   2.990   3.106   3.616
  190c2      na 2083   3.102   3.172   3.638
  190c2      cw 2084   3.185   3.152   3.531
  190c2      c3 2085   2.895   2.963   3.443
  190c2      c5 2086   3.132   3.248   3.756
  190c2      c4 2087   3.100   3.397   3.733
  190c2      hb 2088   3.151   3.032   3.350
  190c2      hb 2089   3.285   3.195   3.524
  190c2      ha 2090   2.905   3.103   3.683
  191c2      cw 2091   1.288   3.819   1.981
  191c2      na 2092   1.411   3.819   2.042
  191c2      cr 2093   1.489   3.735   1.978
  191c2      na 2094   1.422   3.680   1.879
  191c2      cw 2095   1.294   3.731   1.880
  191c2      c3 2096   1.447   3.896   2.157
  191c2      c5 2097   1.469   3.582   1.786
  191c2      c4 2098   1.581   3.496   1.848
  191c2      hb 2099   1.206   3.881   2.015
  191c2      hb 2100   1.219   3.701   1.809
  191c2      ha 2101   1.593   3.716   2.002
  192c2      cw 2102   3.129   0.810   2.867
  192c2      na 2103   3.228   0.736   2.805
  192c2      cr 2104   3.171   0.641   2.735
  192c2      na 2105   3.041   0.649   2.748
  192c2      cw 2106   3.012   0.756   2.831
  192c2      c3 2107   3.369   0.761   2.816
  192c2      c5 2108   2.944   0.563   2.688
  192c2      c4 2109   2.855   0.502   2.798
  192c2      hb 2110   3.150   0.895   2.930
  192c2      hb 2111   2.911   0.785   2.857
  192c2      ha 2112   3.225   0.568   2.676
  193c2      cw 2113   2.350   4.364   4.438
  193c2      na 2114   2.230   4.432   4.433
  193c2      cr 2115   2.135   4.350   4.476
  193c2      na 2116   2.188   4.234   4.507
  193c2      cw 2117   2.324   4.241   4.484
  193c2      c3 2118   2.212   0.053   4.390
  193c2      c5 2119   2.117   4.121   0.044
  193c2      c4 2120   2.035   4.056   4.445
  193c2      hb 2121   2.442   4.412   4.409
  193c2      hb 2122   2.391   4.157   4.502
  193c2      ha 2123   2.031   4.376   4.484
  194c2      cw 2124   3.498   0.244   1.590
  194c2      na 2125   3.530   0.287   1.463
  194c2      cr 2126   3.521   0.418   1.461
  194c2      na 2127   3.484   0.462   1.580
  194c2      cw 2128   3.470   0.353   1.663
  194c2      c3 2129   3.567   0.204   1.353
  194c2      c5 2130   3.468   0.599   1.617
  194c2      c4 2131   3.324   0.645   1.585
  194c2      hb 2132   3.498   0.139   1.618
  194c2      hb 2133   3.440   0.362   1.766
  194c2      ha 2134   3.542   0.480   1.375
  195c2      cw 2135   3.057   3.539   2.844
  195c2      na 2136   3.052   3.470   2.963
  195c2      cr 2137   2.937   3.406   2.968
  195c2      na 2138   2.867   3.432   2.859
  195c2      cw 2139   2.942   3.516   2.780
  195c2      c3 2140   3.154   3.468   3.062
  195c2      c5 2141   2.736   3.386   2.825
  195c2      c4 2142   2.651   3.364   2.952
  195c2      hb 2143   3.143   3.599   2.817
  195c2      hb 2144   2.906   3.553   2.685
  195c2      ha 2145   2.907   3.341   3.049
  196c2      cw 2146   0.763   1.211   0.688
  196c2      na 2147   0.783   1.344   0.721
  196c2      cr 2148   0.685   1.414   0.668
  196c2      na 2149   0.603   1.334   0.603
  196c2      cw 2150   0.651   1.206   0.614
  196c2      c3 2151   0.890   1.397   0.800
  196c2      c5 2152   0.487   1.375   0.530
  196c2      c4 2153   0.362   1.359   0.619
  196c2      hb 2154   0.831   1.133   0.718
  196c2      hb 2155   0.604   1.120   0.568
  196c2      ha 2156   0.677   1.521   0.677
  197c2      cw 2157   3.309   2.500   2.912
  197c2      na 2158   3.314   2.626   2.968
  197c2      cr 2159   3.209   2.640   3.046
  197c2      na 2160   3.136   2.531   3.043
  197c2      cw 2161   3.198   2.441   2.959
  197c2      c3 2162   3.415   2.723   2.944
  197c2      c5 2163   3.014   2.505   3.113
  197c2      c4 2164   2.986   2.614   3.218
  197c2      hb 2165   3.384   2.463   2.844
  197c2      hb 2166   3.158   2.342   2.940
  197c2      ha 2167   3.190   2.729   3.104
  198c2      cw 2168   0.866   3.693   4.157
  198c2      na 2169   0.940   3.795   4.213
  198c2      cr 2170   0.882   3.909   4.181
  198c2      na 2171   0.774   3.885   4.110
  198c2      cw 2172   0.762   3.749   4.093
  198c2      c3 2173   1.058   3.780   4.291
  198c2      c5 2174   0.684   3.984   4.059
  198c2      c4 2175   0.682   3.979   3.905
  198c2      hb 2176   0.895   3.589   4.168
  198c2      hb 2177   0.682   3.702   4.038
  198c2      ha 2178   0.919   4.007   4.210
  199c2      cw 2179   1.679   1.063   2.754
  199c2      na 2180   1.802   1.004   2.769
  199c2      cr 2181   1.813   0.908   2.679
  199c2      na 2182   1.703   0.903   2.607
  199c2      cw 2183   1.616   0.999   2.654
  199c2      c3 2184   1.902   1.040   2.864
  199c2      c5 2185   1.676   0.815   2.497
  199c2      c4 2186   1.807   0.777   2.426
  199c2      hb 2187   1.646   1.146   2.815
  199c2      hb 2188   1.517   1.015   2.612
  199c2      ha 2189   1.900   0.846   2.670
  200c2      cw 2190   0.935   0.219   0.731
  200c2      na 2191   0.927   0.345   0.674
  200c2      cr 2192   0.912   0.433   0.770
  200c2      na 2193   0.910   0.372   0.886
  200c2      cw 2194   0.923   0.237   0.863
  200c2      c3 2195   0.933   0.372   0.534
  200c2      c5 2196   0.895   0.428   1.017
  200c2      c4 2197   0.844   0.573   1.011
  200c2      hb 2198   0.946   0.129   0.673
  200c2      hb 2199   0.921   0.164   0.943
  200c2      ha 2200   0.904   0.539   0.752
  201c2      cw 2201   3.280   1.124   2.275
  201c2      na 2202   3.335   1.105   2.150
  201c2      cr 2203   3.239   1.065   2.069
  201c2      na 2204   3.126   1.058   2.136
  201c2      cw 2205   3.150   1.095   2.266
  201c2      c3 2206   3.473   1.123   2.117
  201c2      c5 2207   2.999   1.017   2.084
  201c2      c4 2208   2.924   1.138   2.027
  201c2      hb 2209   3.339   1.156   2.360
  201c2      hb 2210   3.073   1.097   2.343
  201c2      ha 2211   3.253   1.042   1.965
  202c2      cw 2212   3.887   2.544   3.844
  202c2      na 2213   3.796   2.603   3.758
  202c2      cr 2214   3.775   2.726   3.797
  202c2      na 2215   3.850   2.752   3.903
  202c2      cw 2216   3.920   2.637   3.935
  202c2      c3 2217   3.738   2.538   3.644
  202c2      c5 2218   3.861   2.875   3.975
  202c2      c4 2219   3.773   2.984   3.909
  202c2      hb 2220   3.918   2.442   3.831
  202c2      hb 2221   3.987   2.633   4.019
  202c2      ha 2222   3.707   2.794   3.749
  203c2      cw 2223   3.129   3.184   1.639
  203c2      na 2224   3.096   3.172   1.772
  203c2      cr 2225   3.056   3.290   1.815
  203c2      na 2226   3.060   3.377   1.716
  203c2      cw 2227   3.106   3.312   1.604
  203c2      c3 2228   3.106   3.053   1.850
  203c2      c5 2229   3.026   3.516   1.721
  203c2      c4 2230   3.032   3.570   1.865
  203c2      hb 2231   3.166   3.100   1.581
  203c2      hb 2232   3.120   3.362   1.509
  203c2      ha 2233   3.025   3.309   1.917
  204c2      cw 2234   1.744   2.951   2.421
  204c2      na 2235   1.851   2.888   2.480
  204c2      cr 2236   1.904   2.969   2.569
  204c2      na 2237   1.838   3.083   2.569
  204c2      cw 2238   1.736   3.074   2.476
  204c2      c3 2239   1.898   2.757   2.446
  204c2      c5 2240   1.867   3.199   2.647
  204c2      c4 2241   1.750   3.230   2.742
  204c2      hb 2242   1.684   2.904   2.344
  204c2      hb 2243   1.669   3.155   2.455
  204c2      ha 2244   1.989   2.946   2.631
  205c2      cw 2245   2.443   0.037   2.699
  205c2      na 2246   2.380   0.074   2.816
  205c2      cr 2247   2.433   0.006   2.915
  205c2      na 2248   2.530   4.445   2.868
  205c2      cw 2249   2.537   4.462   2.732
  205c2      c3 2250   2.273   0.169   2.828
  205c2      c5 2251   2.615   4.359   2.945
  205c2      c4 2252   2.589   4.211   2.909
  205c2      hb 2253   2.415   0.078   2.603
  205c2      hb 2254   2.609   4.409   2.671
  205c2      ha 2255   2.402   0.013   3.018
  206c2      cw 2256   4.025   0.233   0.455
  206c2      na 2257   3.934   0.260   0.554
  206c2      cr 2258   3.973   0.197   0.663
  206c2      na 2259   4.086   0.134   0.640
  206c2      cw 2260   4.120   0.154   0.508
  206c2      c3 2261   3.815   0.338   0.539
  206c2      c5 2262   4.157   0.053   0.734
  206c2      c4 2263   4.260   0.139   0.810
  206c2      hb 2264   4.013   0.273   0.355
  206c2      hb 2265   4.207   0.109   0.463
  206c2      ha 2266   3.919   0.197   0.757
  207c2      cw 2267   3.906   1.529   0.103
  207c2      na 2268   3.892   1.479   0.231
  207c2      cr 2269   3.818   1.371   0.224
  207c2      na 2270   3.785   1.348   0.099
  207c2      cw 2271   3.839   1.448   0.021
  207c2      c3 2272   3.948   1.536   0.350
  207c2      c5 2273   3.706   1.238   0.053
  207c2      c4 2274   3.797   1.129   4.510
  207c2      hb 2275   3.962   1.619   0.081
  207c2      hb 2276   3.826   1.453   4.428
  207c2      ha 2277   3.789   1.310   0.309
  208c2      cw 2278   0.096   3.895   4.414
  208c2      na 2279   0.104   3.962   4.294
  208c2      cr 2280   0.231   3.987   4.270
  208c2      na 2281   0.305   3.942   4.370
  208c2      cw 2282   0.221   3.883   4.461
  208c2      c3 2283   4.508   3.996   4.209
  208c2      c5 2284   0.447   3.949   4.379
  208c2      c4 2285   0.489   4.076   4.457
  208c2      hb 2286   0.002   3.862   4.456
  208c2      hb 2287   0.256   3.837   0.038
  208c2      ha 2288   0.269   4.037   4.182
  209c2      cw 2289   2.573   1.725   4.267
  209c2      na 2290   2.646   1.740   4.151
  209c2      cr 2291   2.736   1.834   4.171
  209c2      na 2292   2.724   1.881   4.293
  209c2      cw 2293   2.624   1.811   4.357
  209c2      c3 2294   2.627   1.665   4.031
  209c2      c5 2295   2.801   1.987   4.350
  209c2      c4 2296   2.710   2.110   4.373
  209c2      hb 2297   2.493   1.654   4.277
  209c2      hb 2298   2.595   1.828   4.459
  209c2      ha 2299   2.808   1.868   4.098
  210c2      cw 2300   0.113   1.031   1.069
  210c2      na 2301   0.183   1.102   1.164
  210c2      cr 2302   0.306   1.117   1.122
  210c2      na 2303   0.319   1.063   1.003
  210c2      cw 2304   0.198   1.007   0.968
  210c2      c3 2305   0.128   1.152   1.286
  210c2      c5 2306   0.435   1.062   0.918
  210c2      c4 2307   0.564   1.036   0.999
  210c2      hb 2308   0.009   1.006   1.083
  210c2      hb 2309   0.182   0.956   0.874
  210c2      ha 2310   0.383   1.169   1.178
  211c2      cw 2311   3.494   4.362   0.291
  211c2      na 2312   3.430   4.483   0.276
  211c2      cr 2313   3.327   4.486   0.357
  211c2      na 2314   3.322   4.373   0.425
  211c2      cw 2315   3.427   4.294   0.385
  211c2      c3 2316   3.469   0.075   0.188
  211c2      c5 2317   3.226   4.340   0.526
  211c2      c4 2318   3.093   4.296   0.460
  211c2      hb 2319   3.582   4.335   0.235
  211c2      hb 2320   3.447   4.196   0.426
  211c2      ha 2321   3.258   0.054   0.365
  212c2      cw 2322   4.456   2.125   2.342
  212c2      na 2323   4.376   2.149   2.232
  212c2      cr 2324   4.254   2.171   2.274
  212c2      na 2325   4.250   2.163   2.405
  212c2      cw 2326   4.377   2.134   2.450
  212c2      c3 2327   4.421   2.149   2.096
  212c2      c5 2328   4.134   2.182   2.488
  212c2      c4 2329   4.100   2.051   2.562
  212c2      hb 2330   0.047   2.103   2.333
  212c2      hb 2331   4.401   2.122   2.555
  212c2      ha 2332   4.170   2.195   2.211
  213c2      cw 2333   0.514   2.458   0.656
  213c2      na 2334   0.481   2.380   0.765
  213c2      cr 2335   0.591   2.322   0.809
  213c2      na 2336   0.692   2.359   0.734
  213c2      cw 2337   0.646   2.444   0.637
  213c2      c3 2338   0.350   2.365   0.819
  213c2      c5 2339   0.829   2.318   0.751
  213c2      c4 2340   0.874   2.234   0.630
  213c2      hb 2341   0.440   2.516   0.602
  213c2      hb 2342   0.710   2.489   0.562
  213c2      ha 2343   0.596   2.255   0.894
  214c2      cw 2344   2.094   0.465   1.415
  214c2      na 2345   2.146   0.589   1.384
  214c2      cr 2346   2.151   0.660   1.494
  214c2      na 2347   2.105   0.589   1.595
  214c2      cw 2348   2.067   0.465   1.547
  214c2      c3 2349   2.185   0.633   1.254
  214c2      c5 2350   2.097   0.631   1.731
  214c2      c4 2351   1.956   0.685   1.762
  214c2      hb 2352   2.081   0.387   1.342
  214c2      hb 2353   2.026   0.387   1.609
  214c2      ha 2354   2.187   0.762   1.501
  215c2      cw 2355   2.291   2.628   0.664
  215c2      na 2356   2.166   2.682   0.646
  215c2      cr 2357   2.089   2.645   0.746
  215c2      na 2358   2.158   2.569   0.828
  215c2      cw 2359   2.287   2.559   0.779
  215c2      c3 2360   2.126   2.765   0.536
  215c2      c5 2361   2.110   2.507   0.947
  215c2      c4 2362   2.076   2.360   0.918
  215c2      hb 2363   2.373   2.643   0.596
  215c2      hb 2364   2.364   2.502   0.830
  215c2      ha 2365   1.985   2.671   0.757
  216c2      cw 2366   0.765   1.730   4.445
  216c2      na 2367   0.844   1.748   0.043
  216c2      cr 2368   0.900   1.632   0.072
  216c2      na 2369   0.859   1.542   4.500
  216c2      cw 2370   0.776   1.602   4.409
  216c2      c3 2371   0.862   1.871   0.113
  216c2      c5 2372   0.894   1.403   4.502
  216c2      c4 2373   0.774   1.321   0.041
  216c2      hb 2374   0.707   1.811   4.402
  216c2      hb 2375   0.730   1.549   4.326
  216c2      ha 2376   0.967   1.615   0.155
  217ntf2     c 2377   4.188   2.631   2.117
  217ntf2     f 2378   4.214   2.619   1.987
  217ntf2     f 2379   4.299   2.602   2.182
  217ntf2     s 2380   4.051   2.522   2.167
  217ntf2     o 2381   4.111   2.392   2.154
  217ntf2     f 2382   4.161   2.758   2.139
  217ntf2     o 2383   4.021   2.568   2.300
  217ntf2     n 2384   3.953   2.558   2.050
  217ntf2     s 2385   3.858   2.681   2.028
  217ntf2     o 2386   3.906   2.812   2.065
  217ntf2     o 2387   3.782   2.671   1.906
  217ntf2     c 2388   3.733   2.641   2.153
  217ntf2     f 2389   3.775   2.667   2.276
  217ntf2     f 2390   3.701   2.513   2.149
  217ntf2     f 2391   3.622   2.710   2.135
  218ntf2     c 2392   2.510   3.797   4.176
  218ntf2     f 2393   2.384   3.805   4.137
  218ntf2     f 2394   2.585   3.791   4.068
  218ntf2     s 2395   2.537   3.654   4.285
  218ntf2     o 2396   2.505   3.544   4.198
  218ntf2     f 2397   2.539   3.911   4.238
  218ntf2     o 2398   2.675   3.670   4.325
  218ntf2     n 2399   2.425   3.686   4.390
  218ntf2     s 2400   2.424   3.765   0.011
  218ntf2     o 2401   2.462   3.692   0.130
  218ntf2     o 2402   2.452   3.906   0.005
  218ntf2     c 2403   2.243   3.768   0.029
  218ntf2     f 2404   2.185   3.821   4.437
  218ntf2     f 2405   2.205   3.838   0.135
  218ntf2     f 2406   2.194   3.646   0.043
  219ntf2     c 2407   2.347   0.458   0.066
  219ntf2     f 2408   2.322   0.588   0.072
  219ntf2     f 2409   2.307   0.405   0.180
  219ntf2     s 2410   2.524   0.426   0.037
  219ntf2     o 2411   2.527   0.282   0.035
  219ntf2     f 2412   2.271   0.407   4.484
  219ntf2     o 2413   2.551   0.496   4.428
  219ntf2     n 2414   2.575   0.489   0.171
  219ntf2     s 2415   2.628   0.633   0.208
  219ntf2     o 2416   2.770   0.643   0.228
  219ntf2     o 2417   2.557   0.746   0.153
  219ntf2     c 2418   2.566   0.631   0.379
  219ntf2     f 2419   2.610   0.526   0.446
  219ntf2     f 2420   2.434   0.626   0.383
  219ntf2     f 2421   2.604   0.739   0.447
  220ntf2     c 2422   4.506   0.066   0.240
  220ntf2     f 2423   0.046   0.165   0.171
  220ntf2     f 2424   4.380   0.054   0.201
  220ntf2     s 2425   0.003   0.096   0.419
  220ntf2     o 2426   4.450   4.494   0.472
  220ntf2     f 2427   0.054   4.469   0.205
  220ntf2     o 2428   0.145   0.109   0.442
  220ntf2     n 2429   4.427   0.225   0.422
  220ntf2     s 2430   4.460   0.378   0.420
  220ntf2     o 2431   0.069   0.423   0.361
  220ntf2     o 2432   4.343   0.461   0.403
  220ntf2     c 2433   4.490   0.395   0.599
  220ntf2     f 2434   0.003   0.520   0.633
  220ntf2     f 2435   0.077   0.320   0.639
  220ntf2     f 2436   4.384   0.357   0.669
  221ntf2     c 2437   4.351   3.309   2.246
  221ntf2     f 2438   4.350   3.438   2.278
  221ntf2     f 2439   4.228   3.276   2.210
  221ntf2     s 2440   4.408   3.207   2.385
  221ntf2     o 2441   4.395   3.074   2.332
  221ntf2     f 2442   4.429   3.296   2.140
  221ntf2     o 2443   0.028   3.255   2.409
  221ntf2     n 2444   4.293   3.244   2.485
  221ntf2     s 2445   4.280   3.353   2.598
  221ntf2     o 2446   4.366   3.468   2.595
  221ntf2     o 2447   4.144   3.372   2.644
  221ntf2     c 2448   4.351   3.251   2.731
  221ntf2     f 2449   4.351   3.315   2.847
  221ntf2     f 2450   4.475   3.217   2.704
  221ntf2     f 2451   4.282   3.139   2.748
  222ntf2     c 2452   1.458   1.493   4.160
  222ntf2     f 2453   1.345   1.550   4.121
  222ntf2     f 2454   1.517   1.576   4.244
  222ntf2     s 2455   1.565   1.454   4.018
  222ntf2     o 2456   1.578   1.584   3.957
  222ntf2     f 2457   1.426   1.384   4.227
  222ntf2     o 2458   1.682   1.398   4.080
  222ntf2     n 2459   1.463   1.360   3.945
  222ntf2     s 2460   1.438   1.205   3.953
  222ntf2     o 2461   1.466   1.137   4.077
  222ntf2     o 2462   1.322   1.163   3.879
  222ntf2     c 2463   1.573   1.154   3.841
  222ntf2     f 2464   1.691   1.191   3.887
  222ntf2     f 2465   1.558   1.209   3.722
  222ntf2     f 2466   1.575   1.023   3.825
  223ntf2     c 2467   3.292   3.804   3.004
  223ntf2     f 2468   3.415   3.795   3.052
  223ntf2     f 2469   3.277   3.709   2.913
  223ntf2     s 2470   3.258   3.968   2.933
  223ntf2     o 2471   3.258   4.051   3.051
  223ntf2     f 2472   3.209   3.777   3.103
  223ntf2     o 2473   3.366   3.986   2.839
  223ntf2     n 2474   3.115   3.933   2.879
  223ntf2     s 2475   3.056   3.900   2.737
  223ntf2     o 2476   3.144   3.892   2.623
  223ntf2     o 2477   2.945   3.809   2.741
  223ntf2     c 2478   2.974   4.061   2.712
  223ntf2     f 2479   2.916   4.069   2.594
  223ntf2     f 2480   3.060   4.161   2.722
  223ntf2     f 2481   2.880   4.082   2.803
  224ntf2     c 2482   4.211   2.234   4.296
  224ntf2     f 2483   4.094   2.266   4.349
  224ntf2     f 2484   4.250   2.120   4.350
  224ntf2     s 2485   4.333   2.366   4.323
  224ntf2     o 2486   4.340   2.371   4.467
  224ntf2     f 2487   4.192   2.213   4.167
  224ntf2     o 2488   4.446   2.314   4.250
  224ntf2     n 2489   4.252   2.478   4.248
  224ntf2     s 2490   4.215   2.627   4.284
  224ntf2     o 2491   4.287   2.691   4.391
  224ntf2     o 2492   4.178   2.706   4.169
  224ntf2     c 2493   4.053   2.592   4.359
  224ntf2     f 2494   3.991   2.703   4.397
  224ntf2     f 2495   4.064   2.515   4.465
  224ntf2     f 2496   3.973   2.530   4.274
  225ntf2     c 2497   3.669   1.737   1.539
  225ntf2     f 2498   3.787   1.744   1.599
  225ntf2     f 2499   3.675   1.636   1.454
  225ntf2     s 2500   3.628   1.893   1.454
  225ntf2     o 2501   3.504   1.857   1.389
  225ntf2     f 2502   3.579   1.706   1.631
  225ntf2     o 2503   3.620   1.990   1.561
  225ntf2     n 2504   3.753   1.894   1.359
  225ntf2     s 2505   3.901   1.940   1.382
  225ntf2     o 2506   3.947   1.963   1.517
  225ntf2     o 2507   3.995   1.882   1.289
  225ntf2     c 2508   3.882   2.109   1.316
  225ntf2     f 2509   3.995   2.177   1.321
  225ntf2     f 2510   3.792   2.177   1.385
  225ntf2     f 2511   3.842   2.107   1.190
  226ntf2     c 2512   3.083   0.065   3.452
  226ntf2     f 2513   3.048   0.032   3.575
  226ntf2     f 2514   2.998   0.007   3.369
  226ntf2     s 2515   3.255   0.017   3.416
  226ntf2     o 2516   3.246   4.387   3.411
  226ntf2     f 2517   3.067   0.196   3.441
  226ntf2     o 2518   3.280   0.086   3.292
  226ntf2     n 2519   3.316   0.073   3.549
  226ntf2     s 2520   3.404   0.198   3.586
  226ntf2     o 2521   3.417   0.306   3.491
  226ntf2     o 2522   3.400   0.233   3.726
  226ntf2     c 2523   3.563   0.111   3.573
  226ntf2     f 2524   3.569   0.009   3.657
  226ntf2     f 2525   3.665   0.191   3.601
  226ntf2     f 2526   3.582   0.063   3.452
  227ntf2     c 2527   2.416   0.317   1.163
  227ntf2     f 2528   2.320   0.395   1.209
  227ntf2     f 2529   2.501   0.296   1.262
  227ntf2     s 2530   2.500   0.391   1.019
  227ntf2     o 2531   2.391   0.409   0.926
  227ntf2     f 2532   2.362   0.200   1.133
  227ntf2     o 2533   2.560   0.508   1.078
  227ntf2     n 2534   2.598   0.271   0.993
  227ntf2     s 2535   2.683   0.227   0.868
  227ntf2     o 2536   2.683   0.315   0.753
  227ntf2     o 2537   2.805   0.158   0.901
  227ntf2     c 2538   2.574   0.093   0.812
  227ntf2     f 2539   2.553   0.004   0.908
  227ntf2     f 2540   2.626   0.029   0.708
  227ntf2     f 2541   2.456   0.139   0.774
  228ntf2     c 2542   1.118   3.273   4.340
  228ntf2     f 2543   1.051   3.346   4.427
  228ntf2     f 2544   1.196   3.192   4.409
  228ntf2     s 2545   1.213   3.377   4.225
  228ntf2     o 2546   1.286   3.283   4.144
  228ntf2     f 2547   1.030   3.198   4.276
  228ntf2     o 2548   1.109   3.453   4.161
  228ntf2     n 2549   1.293   3.459   4.333
  228ntf2     s 2550   1.413   3.422   4.428
  228ntf2     o 2551   1.458   3.285   4.432
  228ntf2     o 2552   1.511   3.526   4.443
  228ntf2     c 2553   1.320   3.434   0.069
  228ntf2     f 2554   1.265   3.553   0.084
  228ntf2     f 2555   1.398   3.412   0.174
  228ntf2     f 2556   1.223   3.344   0.074
  229ntf2     c 2557   0.458   3.752   2.143
  229ntf2     f 2558   0.570   3.725   2.207
  229ntf2     f 2559   0.488   3.765   2.015
  229ntf2     s 2560   0.379   3.902   2.209
  229ntf2     o 2561   0.476   4.004   2.175
  229ntf2     f 2562   0.380   3.646   2.155
  229ntf2     o 2563   0.251   3.905   2.144
  229ntf2     n 2564   0.384   3.860   2.360
  229ntf2     s 2565   0.294   3.761   2.443
  229ntf2     o 2566   0.219   3.660   2.373
  229ntf2     o 2567   0.354   3.724   2.569
  229ntf2     c 2568   0.168   3.882   2.495
  229ntf2     f 2569   0.224   3.986   2.556
  229ntf2     f 2570   0.082   3.829   2.580
  229ntf2     f 2571   0.100   3.929   2.392
  230ntf2     c 2572   3.999   4.208   1.407
  230ntf2     f 2573   4.046   4.331   1.401
  230ntf2     f 2574   3.918   4.192   1.304
  230ntf2     s 2575   3.912   4.178   1.564
  230ntf2     o 2576   3.879   4.038   1.553
  230ntf2     f 2577   4.101   4.125   1.391
  230ntf2     o 2578   4.012   4.218   1.661
  230ntf2     n 2579   3.798   4.283   1.539
  230ntf2     s 2580   3.643   4.279   1.564
  230ntf2     o 2581   3.592   4.190   1.666
  230ntf2     o 2582   3.576   4.405   1.545
  230ntf2     c 2583   3.601   4.193   1.409
  230ntf2     f 2584   3.471   4.175   1.398
  230ntf2     f 2585   3.658   4.074   1.401
  230ntf2     f 2586   3.640   4.263   1.304
  231ntf2     c 2587   3.930   2.222   4.033
  231ntf2     f 2588   4.004   2.128   4.089
  231ntf2     f 2589   3.897   2.309   4.128
  231ntf2     s 2590   3.785   2.152   3.950
  231ntf2     o 2591   3.717   2.088   4.060
  231ntf2     f 2592   4.008   2.286   3.947
  231ntf2     o 2593   3.723   2.269   3.892
  231ntf2     n 2594   3.865   2.054   3.857
  231ntf2     s 2595   3.910   2.057   3.707
  231ntf2     o 2596   3.887   2.175   3.627
  231ntf2     o 2597   4.029   1.981   3.680
  231ntf2     c 2598   3.781   1.945   3.645
  231ntf2     f 2599   3.660   1.990   3.670
  231ntf2     f 2600   3.792   1.825   3.700
  231ntf2     f 2601   3.791   1.929   3.514
  232ntf2     c 2602   0.303   1.780   3.143
  232ntf2     f 2603   0.187   1.726   3.110
  232ntf2     f 2604   0.375   1.789   3.033
  232ntf2     s 2605   0.386   1.682   3.272
  232ntf2     o 2606   0.512   1.749   3.290
  232ntf2     f 2607   0.277   1.903   3.185
  232ntf2     o 2608   0.290   1.690   3.380
  232ntf2     n 2609   0.383   1.544   3.198
  232ntf2     s 2610   0.460   1.490   3.072
  232ntf2     o 2611   0.541   1.581   2.996
  232ntf2     o 2612   0.503   1.353   3.085
  232ntf2     c 2613   0.313   1.472   2.967
  232ntf2     f 2614   0.226   1.388   3.020
  232ntf2     f 2615   0.344   1.426   2.846
  232ntf2     f 2616   0.252   1.588   2.951
  233ntf2     c 2617   0.594   1.099   1.571
  233ntf2     f 2618   0.594   1.055   1.696
  233ntf2     f 2619   0.566   1.228   1.574
  233ntf2     s 2620   0.476   1.008   1.467
  233ntf2     o 2621   0.352   1.030   1.536
  233ntf2     f 2622   0.718   1.087   1.526
  233ntf2     o 2623   0.492   1.069   1.337
  233ntf2     n 2624   0.536   0.865   1.490
  233ntf2     s 2625   0.651   0.786   1.418
  233ntf2     o 2626   0.752   0.861   1.347
  233ntf2     o 2627   0.695   0.669   1.491
  233ntf2     c 2628   0.550   0.713   1.287
  233ntf2     f 2629   0.494   0.806   1.211
  233ntf2     f 2630   0.452   0.639   1.337
  233ntf2     f 2631   0.621   0.635   1.207
  234ntf2     c 2632   2.406   1.011   0.525
  234ntf2     f 2633   2.276   1.034   0.519
  234ntf2     f 2634   2.438   0.997   0.652
  234ntf2     s 2635   2.502   1.144   0.446
  234ntf2     o 2636   2.460   1.133   0.309
  234ntf2     f 2637   2.428   0.894   0.466
  234ntf2     o 2638   2.459   1.260   0.520
  234ntf2     n 2639   2.643   1.082   0.476
  234ntf2     s 2640   2.759   1.113   0.577
  234ntf2     o 2641   2.742   1.217   0.675
  234ntf2     o 2642   2.834   0.997   0.618
  234ntf2     c 2643   2.873   1.189   0.458
  234ntf2     f 2644   2.911   1.103   0.365
  234ntf2     f 2645   2.983   1.233   0.517
  234ntf2     f 2646   2.817   1.292   0.396
  235ntf2     c 2647   2.027   0.141   1.998
  235ntf2     f 2648   1.941   0.142   1.898
  235ntf2     f 2649   2.059   0.015   2.024
  235ntf2     s 2650   1.960   0.224   2.145
  235ntf2     o 2651   1.943   0.359   2.097
  235ntf2     f 2652   2.137   0.201   1.956
  235ntf2     o 2653   1.840   0.148   2.172
  235ntf2     n 2654   2.086   0.203   2.237
  235ntf2     s 2655   2.118   0.113   2.361
  235ntf2     o 2656   2.022   0.013   2.403
  235ntf2     o 2657   2.258   0.082   2.379
  235ntf2     c 2658   2.094   0.245   2.484
  235ntf2     f 2659   1.971   0.292   2.480
  235ntf2     f 2660   2.176   0.346   2.461
  235ntf2     f 2661   2.117   0.201   2.607
  236ntf2     c 2662   2.626   2.844   0.571
  236ntf2     f 2663   2.498   2.836   0.540
  236ntf2     f 2664   2.694   2.853   0.458
  236ntf2     s 2665   2.679   2.702   0.671
  236ntf2     o 2666   2.642   2.591   0.586
  236ntf2     f 2667   2.642   2.958   0.636
  236ntf2     o 2668   2.819   2.727   0.690
  236ntf2     n 2669   2.579   2.728   0.789
  236ntf2     s 2670   2.592   2.786   0.934
  236ntf2     o 2671   2.718   2.844   0.974
  236ntf2     o 2672   2.472   2.846   0.985
  236ntf2     c 2673   2.593   2.626   1.021
  236ntf2     f 2674   2.697   2.553   0.983
  236ntf2     f 2675   2.484   2.557   0.994
  236ntf2     f 2676   2.601   2.642   1.152
  237ntf2     c 2677   3.477   1.031   1.619
  237ntf2     f 2678   3.393   1.020   1.518
  237ntf2     f 2679   3.438   0.945   1.712
  237ntf2     s 2680   3.481   1.201   1.684
  237ntf2     o 2681   3.580   1.189   1.788
  237ntf2     f 2682   3.596   0.992   1.576
  237ntf2     o 2683   3.515   1.279   1.567
  237ntf2     n 2684   3.333   1.201   1.736
  237ntf2     s 2685   3.196   1.245   1.672
  237ntf2     o 2686   3.117   1.337   1.751
  237ntf2     o 2687   3.183   1.252   1.529
  237ntf2     c 2688   3.112   1.088   1.708
  237ntf2     f 2689   3.163   0.989   1.637
  237ntf2     f 2690   2.982   1.095   1.681
  237ntf2     f 2691   3.124   1.055   1.835
  238ntf2     c 2692   1.016   2.487   0.371
  238ntf2     f 2693   0.942   2.379   0.388
  238ntf2     f 2694   1.038   2.538   0.491
  238ntf2     s 2695   0.934   2.606   0.261
  238ntf2     o 2696   1.029   2.715   0.260
  238ntf2     f 2697   1.133   2.447   0.323
  238ntf2     o 2698   0.919   2.527   0.142
  238ntf2     n 2699   0.804   2.621   0.348
  238ntf2     s 2700   0.721   2.741   0.405
  238ntf2     o 2701   0.706   2.742   0.548
  238ntf2     o 2702   0.726   2.868   0.336
  238ntf2     c 2703   0.558   2.678   0.353
  238ntf2     f 2704   0.555   2.653   0.224
  238ntf2     f 2705   0.462   2.764   0.381
  238ntf2     f 2706   0.530   2.565   0.416
  239ntf2     c 2707   0.415   1.047   1.917
  239ntf2     f 2708   0.434   0.943   1.838
  239ntf2     f 2709   0.533   1.105   1.937
  239ntf2     s 2710   0.337   0.997   2.073
  239ntf2     o 2711   0.345   1.119   2.150
  239ntf2     f 2712   0.340   1.134   1.851
  239ntf2     o 2713   0.207   0.955   2.030
  239ntf2     n 2714   0.443   0.888   2.113
  239ntf2     s 2715   0.441   0.731   2.113
  239ntf2     o 2716   0.353   0.663   2.022
  239ntf2     o 2717   0.568   0.669   2.140
  239ntf2     c 2718   0.359   0.715   2.274
  239ntf2     f 2719   0.239   0.770   2.273
  239ntf2     f 2720   0.429   0.775   2.369
  239ntf2     f 2721   0.345   0.588   2.309
  240ntf2     c 2722   0.034   2.175   0.157
  240ntf2     f 2723   4.497   2.116   0.051
  240ntf2     f 2724   0.059   2.301   0.126
  240ntf2     s 2725   0.185   2.091   0.215
  240ntf2     o 2726   0.134   1.961   0.251
  240ntf2     f 2727   4.455   2.176   0.251
  240ntf2     o 2728   0.273   2.101   0.102
  240ntf2     n 2729   0.210   2.184   0.339
  240ntf2     s 2730   0.287   2.320   0.356
  240ntf2     o 2731   0.325   2.392   0.237
  240ntf2     o 2732   0.248   2.397   0.471
  240ntf2     c 2733   0.444   2.246   0.411
  240ntf2     f 2734   0.494   2.165   0.319
  240ntf2     f 2735   0.427   2.176   0.522
  240ntf2     f 2736   0.536   2.338   0.436
  241ntf2     c 2737   2.096   3.440   3.832
  241ntf2     f 2738   2.050   3.435   3.708
  241ntf2     f 2739   2.083   3.318   3.882
  241ntf2     s 2740   2.005   3.562   3.931
  241ntf2     o 2741   2.056   3.537   4.064
  241ntf2     f 2742   2.225   3.467   3.825
  241ntf2     o 2743   2.038   3.688   3.870
  241ntf2     n 2744   1.862   3.502   3.906
  241ntf2     s 2745   1.759   3.520   3.789
  241ntf2     o 2746   1.802   3.587   3.669
  241ntf2     o 2747   1.666   3.411   3.775
  241ntf2     c 2748   1.656   3.646   3.870
  241ntf2     f 2749   1.551   3.678   3.796
  241ntf2     f 2750   1.724   3.758   3.893
  241ntf2     f 2751   1.611   3.604   3.987
  242ntf2     c 2752   1.194   0.993   1.046
  242ntf2     f 2753   1.184   1.105   1.116
  242ntf2     f 2754   1.298   1.006   0.965
  242ntf2     s 2755   1.042   0.959   0.953
  242ntf2     o 2756   0.945   0.951   1.059
  242ntf2     f 2757   1.221   0.895   1.130
  242ntf2     o 2758   1.034   1.071   0.862
  242ntf2     n 2759   1.089   0.820   0.898
  242ntf2     s 2760   1.158   0.773   0.765
  242ntf2     o 2761   1.083   0.679   0.686
  242ntf2     o 2762   1.249   0.863   0.699
  242ntf2     c 2763   1.276   0.662   0.848
  242ntf2     f 2764   1.353   0.729   0.932
  242ntf2     f 2765   1.356   0.601   0.762
  242ntf2     f 2766   1.214   0.569   0.918
  243ntf2     c 2767   3.811   0.125   2.074
  243ntf2     f 2768   3.807   0.000   2.119
  243ntf2     f 2769   3.744   0.199   2.160
  243ntf2     s 2770   3.744   0.139   1.906
  243ntf2     o 2771   3.829   0.048   1.834
  243ntf2     f 2772   3.937   0.164   2.080
  243ntf2     o 2773   3.606   0.102   1.927
  243ntf2     n 2774   3.768   0.293   1.890
  243ntf2     s 2775   3.828   0.382   1.776
  243ntf2     o 2776   3.843   0.325   1.645
  243ntf2     o 2777   3.792   0.522   1.783
  243ntf2     c 2778   3.998   0.387   1.840
  243ntf2     f 2779   4.053   0.266   1.841
  243ntf2     f 2780   4.001   0.432   1.964
  243ntf2     f 2781   4.075   0.467   1.768
  244ntf2     c 2782   2.494   1.014   2.915
  244ntf2     f 2783   2.436   1.128   2.881
  244ntf2     f 2784   2.433   0.970   3.024
  244ntf2     s 2785   2.672   1.037   2.944
  244ntf2     o 2786   2.671   1.137   3.047
  244ntf2     f 2787   2.471   0.927   2.818
  244ntf2     o 2788   2.717   0.905   2.980
  244ntf2     n 2789   2.707   1.092   2.801
  244ntf2     s 2790   2.754   1.022   2.668
  244ntf2     o 2791   2.742   0.878   2.657
  244ntf2     o 2792   2.733   1.100   2.549
  244ntf2     c 2793   2.932   1.045   2.698
  244ntf2     f 2794   3.006   0.995   2.600
  244ntf2     f 2795   2.970   0.986   2.811
  244ntf2     f 2796   2.963   1.173   2.709
  245ntf2     c 2797   2.467   1.086   3.517
  245ntf2     f 2798   2.363   1.005   3.503
  245ntf2     f 2799   2.570   1.010   3.548
  245ntf2     s 2800   2.436   1.214   3.643
  245ntf2     o 2801   2.304   1.259   3.607
  245ntf2     f 2802   2.492   1.139   3.399
  245ntf2     o 2803   2.450   1.143   3.768
  245ntf2     n 2804   2.549   1.313   3.598
  245ntf2     s 2805   2.706   1.303   3.602
  245ntf2     o 2806   2.768   1.173   3.618
  245ntf2     o 2807   2.770   1.396   3.513
  245ntf2     c 2808   2.731   1.382   3.764
  245ntf2     f 2809   2.860   1.391   3.794
  245ntf2     f 2810   2.672   1.314   3.861
  245ntf2     f 2811   2.681   1.504   3.766
  246ntf2     c 2812   1.440   4.135   0.274
  246ntf2     f 2813   1.379   4.245   0.314
  246ntf2     f 2814   1.349   4.040   0.267
  246ntf2     s 2815   1.575   4.088   0.387
  246ntf2     o 2816   1.665   4.200   0.369
  246ntf2     f 2817   1.486   4.157   0.152
  246ntf2     o 2818   1.504   4.077   0.512
  246ntf2     n 2819   1.609   3.952   0.318
  246ntf2     s 2820   1.742   3.874   0.288
  246ntf2     o 2821   1.866   3.925   0.342
  246ntf2     o 2822   1.727   3.731   0.279
  246ntf2     c 2823   1.754   3.919   0.112
  246ntf2     f 2824   1.761   4.050   0.095
  246ntf2     f 2825   1.649   3.876   0.045
  246ntf2     f 2826   1.861   3.865   0.055
  247ntf2     c 2827   2.442   1.662   2.935
  247ntf2     f 2828   2.435   1.667   3.067
  247ntf2     f 2829   2.448   1.534   2.900
  247ntf2     s 2830   2.584   1.756   2.871
  247ntf2     o 2831   2.693   1.692   2.941
  247ntf2     f 2832   2.328   1.710   2.888
  247ntf2     o 2833   2.571   1.733   2.730
  247ntf2     n 2834   2.535   1.895   2.925
  247ntf2     s 2835   2.603   2.037   2.931
  247ntf2     o 2836   2.722   2.058   2.852
  247ntf2     o 2837   2.509   2.146   2.941
  247ntf2     c 2838   2.665   2.025   3.102
  247ntf2     f 2839   2.726   2.136   3.140
  247ntf2     f 2840   2.752   1.926   3.115
  247ntf2     f 2841   2.567   2.003   3.187
  248ntf2     c 2842   2.034   0.169   0.267
  248ntf2     f 2843   2.086   0.229   0.372
  248ntf2     f 2844   1.920   0.229   0.237
  248ntf2     s 2845   2.010   4.505   0.298
  248ntf2     o 2846   1.918   4.507   0.409
  248ntf2     f 2847   2.117   0.189   0.166
  248ntf2     o 2848   1.964   4.461   0.169
  248ntf2     n 2849   2.161   4.477   0.330
  248ntf2     s 2850   2.235   4.359   0.403
  248ntf2     o 2851   2.164   4.234   0.419
  248ntf2     o 2852   2.376   4.353   0.377
  248ntf2     c 2853   2.229   4.431   0.570
  248ntf2     f 2854   2.279   0.039   0.571
  248ntf2     f 2855   2.298   4.359   0.657
  248ntf2     f 2856   2.105   4.439   0.614
  249ntf2     c 2857   0.928   3.890   0.802
  249ntf2     f 2858   0.805   3.904   0.754
  249ntf2     f 2859   1.010   3.946   0.715
  249ntf2     s 2860   0.968   3.715   0.830
  249ntf2     o 2861   0.950   3.660   0.698
  249ntf2     f 2862   0.934   3.960   0.914
  249ntf2     o 2863   1.102   3.723   0.883
  249ntf2     n 2864   0.857   3.689   0.937
  249ntf2     s 2865   0.739   3.586   0.951
  249ntf2     o 2866   0.607   3.639   0.925
  249ntf2     o 2867   0.766   3.448   0.919
  249ntf2     c 2868   0.740   3.580   1.133
  249ntf2     f 2869   0.857   3.536   1.178
  249ntf2     f 2870   0.648   3.498   1.180
  249ntf2     f 2871   0.719   3.699   1.187
  250ntf2     c 2872   1.244   1.348   3.414
  250ntf2     f 2873   1.341   1.273   3.365
  250ntf2     f 2874   1.209   1.296   3.530
  250ntf2     s 2875   1.101   1.357   3.301
  250ntf2     o 2876   1.157   1.431   3.191
  250ntf2     f 2877   1.293   1.468   3.438
  250ntf2     o 2878   1.073   1.217   3.283
  250ntf2     n 2879   1.006   1.430   3.402
  250ntf2     s 2880   0.923   1.563   3.401
  250ntf2     o 2881   0.918   1.642   3.280
  250ntf2     o 2882   0.807   1.560   3.486
  250ntf2     c 2883   1.040   1.658   3.504
  250ntf2     f 2884   0.990   1.776   3.535
  250ntf2     f 2885   1.155   1.676   3.442
  250ntf2     f 2886   1.064   1.594   3.617
  251ntf2     c 2887   1.200   2.238   0.923
  251ntf2     f 2888   1.118   2.147   0.973
  251ntf2     f 2889   1.155   2.270   0.803
  251ntf2     s 2890   1.371   2.177   0.917
  251ntf2     o 2891   1.359   2.064   0.829
  251ntf2     f 2892   1.190   2.346   0.999
  251ntf2     o 2893   1.445   2.291   0.870
  251ntf2     n 2894   1.381   2.138   1.069
  251ntf2     s 2895   1.431   2.217   1.196
  251ntf2     o 2896   1.431   2.361   1.192
  251ntf2     o 2897   1.396   2.152   1.320
  251ntf2     c 2898   1.607   2.173   1.178
  251ntf2     f 2899   1.624   2.042   1.177
  251ntf2     f 2900   1.681   2.221   1.277
  251ntf2     f 2901   1.658   2.219   1.065
  252ntf2     c 2902   0.115   1.065   3.449
  252ntf2     f 2903   0.066   1.188   3.451
  252ntf2     f 2904   0.026   0.986   3.507
  252ntf2     s 2905   0.277   1.054   3.531
  252ntf2     o 2906   0.357   1.144   3.452
  252ntf2     f 2907   0.123   1.028   3.322
  252ntf2     o 2908   0.244   1.092   3.666
  252ntf2     n 2909   0.300   0.903   3.499
  252ntf2     s 2910   0.302   0.768   3.580
  252ntf2     o 2911   0.277   0.772   3.722
  252ntf2     o 2912   0.254   0.653   3.507
  252ntf2     c 2913   0.482   0.744   3.574
  252ntf2     f 2914   0.528   0.749   3.450
  252ntf2     f 2915   0.517   0.626   3.624
  252ntf2     f 2916   0.546   0.837   3.644
  253ntf2     c 2917   4.185   3.543   4.256
  253ntf2     f 2918   4.280   3.594   4.333
  253ntf2     f 2919   4.149   3.636   4.169
  253ntf2     s 2920   4.043   3.483   4.353
  253ntf2     o 2921   4.105   3.380   4.431
  253ntf2     f 2922   4.240   3.445   4.186
  253ntf2     o 2923   4.001   3.604   4.419
  253ntf2     n 2924   3.958   3.437   4.229
  253ntf2     s 2925   3.827   3.353   4.215
  253ntf2     o 2926   3.745   3.334   4.332
  253ntf2     o 2927   3.760   3.366   4.088
  253ntf2     c 2928   3.909   3.191   4.196
  253ntf2     f 2929   3.821   3.094   4.177
  253ntf2     f 2930   3.980   3.160   4.303
  253ntf2     f 2931   3.991   3.191   4.092
  254ntf2     c 2932   2.906   4.097   3.401
  254ntf2     f 2933   2.870   4.223   3.424
  254ntf2     f 2934   2.999   4.100   3.306
  254ntf2     s 2935   2.764   3.995   3.352
  254ntf2     o 2936   2.714   4.071   3.240
  254ntf2     f 2937   2.963   4.051   3.510
  254ntf2     o 2938   2.832   3.871   3.326
  254ntf2     n 2939   2.689   4.006   3.490
  254ntf2     s 2940   2.539   3.981   3.527
  254ntf2     o 2941   2.520   3.877   3.625
  254ntf2     o 2942   2.456   4.098   3.539
  254ntf2     c 2943   2.483   3.904   3.372
  254ntf2     f 2944   2.366   3.845   3.386
  254ntf2     f 2945   2.568   3.812   3.328
  254ntf2     f 2946   2.469   3.993   3.275
  255ntf2     c 2947   3.347   3.271   0.779
  255ntf2     f 2948   3.424   3.374   0.811
  255ntf2     f 2949   3.263   3.252   0.880
  255ntf2     s 2950   3.446   3.123   0.744
  255ntf2     o 2951   3.524   3.112   0.865
  255ntf2     f 2952   3.276   3.308   0.674
  255ntf2     o 2953   3.346   3.022   0.720
  255ntf2     n 2954   3.525   3.185   0.623
  255ntf2     s 2955   3.511   3.178   0.467
  255ntf2     o 2956   3.401   3.106   0.408
  255ntf2     o 2957   3.555   3.298   0.400
  255ntf2     c 2958   3.653   3.067   0.438
  255ntf2     f 2959   3.668   3.041   0.309
  255ntf2     f 2960   3.637   2.952   0.500
  255ntf2     f 2961   3.765   3.121   0.481
  256ntf2     c 2962   4.390   4.012   0.228
  256ntf2     f 2963   4.298   3.934   0.282
  256ntf2     f 2964   4.371   4.012   0.097
  256ntf2     s 2965   0.044   3.957   0.271
  256ntf2     o 2966   0.125   4.048   0.193
  256ntf2     f 2967   4.366   4.135   0.271
  256ntf2     o 2968   0.048   3.970   0.414
  256ntf2     n 2969   0.033   3.814   0.207
  256ntf2     s 2970   4.506   3.676   0.269
  256ntf2     o 2971   4.405   3.673   0.372
  256ntf2     o 2972   4.507   3.568   0.174
  256ntf2     c 2973   0.147   3.645   0.360
  256ntf2     f 2974   0.172   3.740   0.449
  256ntf2     f 2975   0.250   3.642   0.277
  256ntf2     f 2976   0.144   3.530   0.424
  257ntf2     c 2977   0.821   3.663   2.161
  257ntf2     f 2978   0.778   3.736   2.263
  257ntf2     f 2979   0.744   3.555   2.154
  257ntf2     s 2980   0.996   3.617   2.181
  257ntf2     o 2981   1.059   3.747   2.179
  257ntf2     f 2982   0.802   3.733   2.051
  257ntf2     o 2983   0.994   3.546   2.306
  257ntf2     n 2984   1.007   3.537   2.046
  257ntf2     s 2985   1.031   3.387   2.007
  257ntf2     o 2986   1.051   3.289   2.111
  257ntf2     o 2987   0.962   3.345   1.888
  257ntf2     c 2988   1.200   3.412   1.946
  257ntf2     f 2989   1.257   3.298   1.910
  257ntf2     f 2990   1.277   3.468   2.037
  257ntf2     f 2991   1.200   3.492   1.840
  258ntf2     c 2992   2.114   1.787   3.712
  258ntf2     f 2993   2.000   1.766   3.777
  258ntf2     f 2994   2.212   1.743   3.789
  258ntf2     s 2995   2.134   1.963   3.670
  258ntf2     o 2996   2.135   2.026   3.800
  258ntf2     f 2997   2.111   1.711   3.604
  258ntf2     o 2998   2.256   1.967   3.593
  258ntf2     n 2999   1.997   1.980   3.594
  258ntf2     s 3000   1.952   1.944   3.448
  258ntf2     o 3001   2.031   1.852   3.370
  258ntf2     o 3002   1.809   1.940   3.431
  258ntf2     c 3003   1.993   2.105   3.374
  258ntf2     f 3004   1.965   2.107   3.244
  258ntf2     f 3005   2.121   2.134   3.387
  258ntf2     f 3006   1.925   2.204   3.430
  259ntf2     c 3007   2.064   3.006   3.744
  259ntf2     f 3008   2.170   2.942   3.696
  259ntf2     f 3009   2.096   3.049   3.865
  259ntf2     s 3010   1.917   2.899   3.746
  259ntf2     o 3011   1.958   2.794   3.835
  259ntf2     f 3012   2.046   3.113   3.668
  259ntf2     o 3013   1.815   2.991   3.790
  259ntf2     n 3014   1.916   2.869   3.592
  259ntf2     s 3015   1.916   2.737   3.507
  259ntf2     o 3016   2.044   2.697   3.453
  259ntf2     o 3017   1.822   2.634   3.543
  259ntf2     c 3018   1.835   2.808   3.360
  259ntf2     f 3019   1.896   2.918   3.320
  259ntf2     f 3020   1.709   2.840   3.386
  259ntf2     f 3021   1.834   2.723   3.258
  260ntf2     c 3022   2.721   0.649   2.229
  260ntf2     f 3023   2.807   0.739   2.273
  260ntf2     f 3024   2.789   0.539   2.199
  260ntf2     s 3025   2.627   0.710   2.086
  260ntf2     o 3026   2.554   0.819   2.145
  260ntf2     f 3027   2.640   0.618   2.330
  260ntf2     o 3028   2.730   0.744   1.991
  260ntf2     n 3029   2.541   0.581   2.063
  260ntf2     s 3030   2.550   0.459   1.965
  260ntf2     o 3031   2.667   0.443   1.882
  260ntf2     o 3032   2.484   0.340   2.012
  260ntf2     c 3033   2.428   0.522   1.845
  260ntf2     f 3034   2.313   0.550   1.903
  260ntf2     f 3035   2.404   0.435   1.749
  260ntf2     f 3036   2.472   0.633   1.787
  261ntf2     c 3037   1.878   2.337   0.586
  261ntf2     f 3038   1.860   2.249   0.489
  261ntf2     f 3039   1.841   2.279   0.699
  261ntf2     s 3040   1.784   2.489   0.555
  261ntf2     o 3041   1.816   2.567   0.672
  261ntf2     f 3042   2.008   2.361   0.595
  261ntf2     o 3043   1.837   2.536   0.429
  261ntf2     n 3044   1.641   2.425   0.557
  261ntf2     s 3045   1.561   2.343   0.449
  261ntf2     o 3046   1.630   2.302   0.329
  261ntf2     o 3047   1.461   2.255   0.504
  261ntf2     c 3048   1.460   2.482   0.389
  261ntf2     f 3049   1.535   2.573   0.329
  261ntf2     f 3050   1.397   2.542   0.489
  261ntf2     f 3051   1.369   2.443   0.302
  262ntf2     c 3052   3.047   3.254   0.455
  262ntf2     f 3053   3.108   3.140   0.485
  262ntf2     f 3054   3.040   3.326   0.565
  262ntf2     s 3055   2.882   3.224   0.384
  262ntf2     o 3056   2.915   3.153   0.263
  262ntf2     f 3057   3.125   3.320   0.370
  262ntf2     o 3058   2.815   3.150   0.489
  262ntf2     n 3059   2.844   3.375   0.362
  262ntf2     s 3060   2.761   3.475   0.450
  262ntf2     o 3061   2.777   3.469   0.594
  262ntf2     o 3062   2.745   3.605   0.390
  262ntf2     c 3063   2.598   3.399   0.421
  262ntf2     f 3064   2.581   3.291   0.495
  262ntf2     f 3065   2.585   3.362   0.294
  262ntf2     f 3066   2.499   3.482   0.448
  263ntf2     c 3067   2.000   3.818   1.990
  263ntf2     f 3068   1.987   3.700   2.050
  263ntf2     f 3069   2.092   3.886   2.057
  263ntf2     s 3070   1.843   3.910   1.984
  263ntf2     o 3071   1.760   3.824   1.904
  263ntf2     f 3072   2.048   3.797   1.869
  263ntf2     o 3073   1.808   3.924   2.123
  263ntf2     n 3074   1.900   4.034   1.907
  263ntf2     s 3075   1.958   4.172   1.952
  263ntf2     o 3076   1.985   4.194   2.092
  263ntf2     o 3077   2.048   4.232   1.857
  263ntf2     c 3078   1.805   4.267   1.926
  263ntf2     f 3079   1.819   4.395   1.954
  263ntf2     f 3080   1.707   4.220   2.002
  263ntf2     f 3081   1.763   4.258   1.800
  264ntf2     c 3082   1.932   0.827   4.291
  264ntf2     f 3083   1.956   0.771   4.174
  264ntf2     f 3084   1.918   0.729   4.379
  264ntf2     s 3085   1.785   0.933   4.285
  264ntf2     o 3086   1.831   1.043   4.204
  264ntf2     f 3087   2.040   0.895   4.326
  264ntf2     o 3088   1.683   0.847   4.229
  264ntf2     n 3089   1.779   0.967   4.439
  264ntf2     s 3090   1.718   0.888   0.046
  264ntf2     o 3091   1.704   0.745   0.038
  264ntf2     o 3092   1.753   0.944   0.174
  264ntf2     c 3093   1.548   0.948   0.025
  264ntf2     f 3094   1.543   1.080   0.023
  264ntf2     f 3095   1.468   0.907   0.122
  264ntf2     f 3096   1.495   0.906   4.425
  265ntf2     c 3097   1.499   2.249   4.183
  265ntf2     f 3098   1.439   2.157   4.110
  265ntf2     f 3099   1.406   2.332   4.228
  265ntf2     s 3100   1.626   2.339   4.089
  265ntf2     o 3101   1.723   2.235   4.066
  265ntf2     f 3102   1.551   2.189   4.288
  265ntf2     o 3103   1.550   2.389   3.978
  265ntf2     n 3104   1.655   2.443   4.204
  265ntf2     s 3105   1.785   2.514   4.256
  265ntf2     o 3106   1.905   2.505   4.177
  265ntf2     o 3107   1.758   2.638   4.325
  265ntf2     c 3108   1.816   2.401   4.395
  265ntf2     f 3109   1.923   2.436   4.464
  265ntf2     f 3110   1.835   2.277   4.353
  265ntf2     f 3111   1.714   2.398   4.478
  266ntf2     c 3112   3.622   4.488   4.362
  266ntf2     f 3113   3.549   4.445   4.463
  266ntf2     f 3114   3.581   4.426   4.253
  266ntf2     s 3115   3.800   4.461   4.392
  266ntf2     o 3116   3.803   4.318   4.414
  266ntf2     f 3117   3.595   0.103   4.346
  266ntf2     o 3118   3.861   4.511   4.272
  266ntf2     n 3119   3.810   0.032   0.009
  266ntf2     s 3120   3.852   0.181   0.035
  266ntf2     o 3121   3.832   0.279   4.446
  266ntf2     o 3122   3.832   0.225   0.171
  266ntf2     c 3123   4.032   0.153   0.033
  266ntf2     f 3124   4.068   0.066   0.126
  266ntf2     f 3125   4.099   0.265   0.056
  266ntf2     f 3126   4.073   0.106   4.431
  267ntf2     c 3127   3.972   2.018   2.115
  267ntf2     f 3128   3.910   2.134   2.109
  267ntf2     f 3129   4.015   1.990   1.992
  267ntf2     s 3130   3.863   1.887   2.178
  267ntf2     o 3131   3.944   1.769   2.162
  267ntf2     f 3132   4.079   2.035   2.191
  267ntf2     o 3133   3.834   1.928   2.313
  267ntf2     n 3134   3.750   1.902   2.070
  267ntf2     s 3135   3.619   1.988   2.067
  267ntf2     o 3136   3.618   2.114   2.138
  267ntf2     o 3137   3.548   1.983   1.942
  267ntf2     c 3138   3.520   1.879   2.173
  267ntf2     f 3139   3.523   1.754   2.130
  267ntf2     f 3140   3.393   1.917   2.178
  267ntf2     f 3141   3.566   1.877   2.298
  268ntf2     c 3142   1.204   2.965   2.869
  268ntf2     f 3143   1.149   2.845   2.883
  268ntf2     f 3144   1.133   3.030   2.779
  268ntf2     s 3145   1.378   2.951   2.818
  268ntf2     o 3146   1.414   3.090   2.800
  268ntf2     f 3147   1.191   3.028   2.984
  268ntf2     o 3148   1.439   2.880   2.928
  268ntf2     n 3149   1.351   2.876   2.683
  268ntf2     s 3150   1.353   2.725   2.640
  268ntf2     o 3151   1.349   2.622   2.741
  268ntf2     o 3152   1.281   2.699   2.518
  268ntf2     c 3153   1.526   2.722   2.583
  268ntf2     f 3154   1.559   2.602   2.537
  268ntf2     f 3155   1.610   2.751   2.681
  268ntf2     f 3156   1.547   2.809   2.486
  269ntf2     c 3157   1.111   3.041   3.279
  269ntf2     f 3158   1.114   3.170   3.251
  269ntf2     f 3159   1.030   2.984   3.191
  269ntf2     s 3160   1.057   3.012   3.450
  269ntf2     o 3161   0.926   3.072   3.449
  269ntf2     f 3162   1.233   2.993   3.258
  269ntf2     o 3163   1.062   2.869   3.465
  269ntf2     n 3164   1.166   3.100   3.520
  269ntf2     s 3165   1.312   3.070   3.570
  269ntf2     o 3166   1.376   2.947   3.531
  269ntf2     o 3167   1.395   3.188   3.580
  269ntf2     c 3168   1.269   3.041   3.744
  269ntf2     f 3169   1.376   3.018   3.818
  269ntf2     f 3170   1.188   2.937   3.757
  269ntf2     f 3171   1.207   3.145   3.796
  270ntf2     c 3172   3.525   3.269   3.776
  270ntf2     f 3173   3.398   3.301   3.755
  270ntf2     f 3174   3.571   3.354   3.866
  270ntf2     s 3175   3.621   3.277   3.622
  270ntf2     o 3176   3.754   3.244   3.667
  270ntf2     f 3177   3.527   3.149   3.830
  270ntf2     o 3178   3.554   3.181   3.537
  270ntf2     n 3179   3.599   3.430   3.593
  270ntf2     s 3180   3.498   3.506   3.501
  270ntf2     o 3181   3.370   3.446   3.474
  270ntf2     o 3182   3.502   3.650   3.516
  270ntf2     c 3183   3.590   3.483   3.345
  270ntf2     f 3184   3.606   3.354   3.317
  270ntf2     f 3185   3.710   3.536   3.351
  270ntf2     f 3186   3.527   3.538   3.243
  271ntf2     c 3187   0.978   0.009   2.142
  271ntf2     f 3188   0.919   0.125   2.168
  271ntf2     f 3189   1.055   4.492   2.246
  271ntf2     s 3190   1.073   0.017   1.987
  271ntf2     o 3191   0.970   0.047   1.891
  271ntf2     f 3192   0.883   4.431   2.134
  271ntf2     o 3193   1.172   0.117   2.015
  271ntf2     n 3194   1.120   4.381   1.988
  271ntf2     s 3195   1.248   4.302   2.033
  271ntf2     o 3196   1.351   4.376   2.102
  271ntf2     o 3197   1.224   4.165   2.071
  271ntf2     c 3198   1.320   4.284   1.867
  271ntf2     f 3199   1.429   4.210   1.869
  271ntf2     f 3200   1.352   4.402   1.815
  271ntf2     f 3201   1.234   4.226   1.784
  272ntf2     c 3202   2.081   0.950   3.509
  272ntf2     f 3203   2.145   0.964   3.624
  272ntf2     f 3204   2.133   1.037   3.424
  272ntf2     s 3205   1.902   0.976   3.531
  272ntf2     o 3206   1.897   1.107   3.590
  272ntf2     f 3207   2.107   0.829   3.464
  272ntf2     o 3208   1.851   0.960   3.397
  272ntf2     n 3209   1.878   0.860   3.635
  272ntf2     s 3210   1.806   0.721   3.626
  272ntf2     o 3211   1.795   0.654   3.753
  272ntf2     o 3212   1.696   0.707   3.533
  272ntf2     c 3213   1.941   0.630   3.546
  272ntf2     f 3214   2.055   0.644   3.612
  272ntf2     f 3215   1.962   0.672   3.422
  272ntf2     f 3216   1.916   0.500   3.540
  273ntf2     c 3217   0.038   3.113   3.078
  273ntf2     f 3218   4.483   3.152   3.183
  273ntf2     f 3219   4.498   3.001   3.034
  273ntf2     s 3220   0.214   3.090   3.118
  273ntf2     o 3221   0.252   3.222   3.164
  273ntf2     f 3222   0.022   3.204   2.984
  273ntf2     o 3223   0.213   2.984   3.215
  273ntf2     n 3224   0.263   3.057   2.973
  273ntf2     s 3225   0.297   2.922   2.900
  273ntf2     o 3226   0.435   2.881   2.908
  273ntf2     o 3227   0.194   2.822   2.894
  273ntf2     c 3228   0.289   2.989   2.731
  273ntf2     f 3229   0.307   2.894   2.639
  273ntf2     f 3230   0.381   3.081   2.710
  273ntf2     f 3231   0.172   3.045   2.706
  274ntf2     c 3232   0.364   2.885   0.045
  274ntf2     f 3233   0.293   2.882   0.156
  274ntf2     f 3234   0.480   2.943   0.074
  274ntf2     s 3235   0.278   2.974   4.427
  274ntf2     o 3236   0.162   2.890   4.407
  274ntf2     f 3237   0.390   2.760   0.011
  274ntf2     o 3238   0.259   3.104   4.487
  274ntf2     n 3239   0.394   2.964   4.321
  274ntf2     s 3240   0.396   2.959   4.164
  274ntf2     o 3241   0.278   3.002   4.094
  274ntf2     o 3242   0.524   2.996   4.107
  274ntf2     c 3243   0.397   2.779   4.146
  274ntf2     f 3244   0.490   2.722   4.221
  274ntf2     f 3245   0.420   2.743   4.020
  274ntf2     f 3246   0.281   2.726   4.181
  275ntf2     c 3247   4.024   4.190   2.341
  275ntf2     f 3248   4.093   4.287   2.400
  275ntf2     f 3249   3.919   4.164   2.417
  275ntf2     s 3250   4.125   4.041   2.315
  275ntf2     o 3251   4.212   4.084   2.209
  275ntf2     f 3252   3.979   4.238   2.227
  275ntf2     o 3253   4.184   4.017   2.444
  275ntf2     n 3254   4.007   3.949   2.267
  275ntf2     s 3255   3.913   3.847   2.340
  275ntf2     o 3256   3.896   3.856   2.483
  275ntf2     o 3257   3.797   3.809   2.263
  275ntf2     c 3258   4.021   3.702   2.320
  275ntf2     f 3259   3.970   3.594   2.374
  275ntf2     f 3260   4.139   3.723   2.376
  275ntf2     f 3261   4.044   3.677   2.192
  276ntf2     c 3262   1.298   0.929   1.870
  276ntf2     f 3263   1.280   0.827   1.788
  276ntf2     f 3264   1.325   0.879   1.990
  276ntf2     s 3265   1.152   1.037   1.876
  276ntf2     o 3266   1.194   1.139   1.969
  276ntf2     f 3267   1.405   0.995   1.829
  276ntf2     o 3268   1.133   1.077   1.739
  276ntf2     n 3269   1.054   0.932   1.940
  276ntf2     s 3270   0.964   0.818   1.879
  276ntf2     o 3271   0.986   0.778   1.742
  276ntf2     o 3272   0.928   0.715   1.973
  276ntf2     c 3273   0.811   0.916   1.869
  276ntf2     f 3274   0.709   0.843   1.826
  276ntf2     f 3275   0.824   1.019   1.788
  276ntf2     f 3276   0.777   0.964   1.988
  277ntf2     c 3277   2.720   2.318   3.412
  277ntf2     f 3278   2.596   2.321   3.368
  277ntf2     f 3279   2.767   2.196   3.392
  277ntf2     s 3280   2.730   2.366   3.587
  277ntf2     o 3281   2.645   2.267   3.648
  277ntf2     f 3282   2.791   2.400   3.335
  277ntf2     o 3283   2.872   2.360   3.611
  277ntf2     n 3284   2.669   2.510   3.568
  277ntf2     s 3285   2.613   2.617   3.668
  277ntf2     o 3286   2.637   2.598   3.809
  277ntf2     o 3287   2.612   2.751   3.615
  277ntf2     c 3288   2.438   2.572   3.651
  277ntf2     f 3289   2.416   2.447   3.689
  277ntf2     f 3290   2.398   2.583   3.526
  277ntf2     f 3291   2.360   2.649   3.725
  278ntf2     c 3292   2.209   1.601   2.125
  278ntf2     f 3293   2.143   1.522   2.042
  278ntf2     f 3294   2.120   1.686   2.174
  278ntf2     s 3295   2.345   1.687   2.040
  278ntf2     o 3296   2.400   1.766   2.148
  278ntf2     f 3297   2.252   1.527   2.225
  278ntf2     o 3298   2.423   1.577   1.989
  278ntf2     n 3299   2.256   1.767   1.938
  278ntf2     s 3300   2.221   1.745   1.787
  278ntf2     o 3301   2.312   1.801   1.691
  278ntf2     o 3302   2.151   1.623   1.753
  278ntf2     c 3303   2.084   1.865   1.781
  278ntf2     f 3304   2.126   1.987   1.807
  278ntf2     f 3305   1.991   1.835   1.871
  278ntf2     f 3306   2.025   1.867   1.663
  279ntf2     c 3307   0.386   3.619   3.982
  279ntf2     f 3308   0.450   3.618   4.097
  279ntf2     f 3309   0.474   3.649   3.888
  279ntf2     s 3310   0.248   3.738   3.983
  279ntf2     o 3311   0.166   3.682   4.087
  279ntf2     f 3312   0.343   3.496   3.960
  279ntf2     o 3313   0.318   3.861   4.011
  279ntf2     n 3314   0.203   3.716   3.835
  279ntf2     s 3315   0.071   3.749   3.756
  279ntf2     o 3316   4.486   3.830   3.822
  279ntf2     o 3317   0.089   3.767   3.614
  279ntf2     c 3318   4.514   3.582   3.765
  279ntf2     f 3319   4.402   3.573   3.694
  279ntf2     f 3320   4.485   3.546   3.889
  279ntf2     f 3321   0.083   3.491   3.717
  280ntf2     c 3322   4.438   3.506   0.804
  280ntf2     f 3323   4.369   3.406   0.857
  280ntf2     f 3324   0.049   3.492   0.842
  280ntf2     s 3325   4.370   3.667   0.854
  280ntf2     o 3326   4.390   3.662   0.997
  280ntf2     f 3327   4.434   3.491   0.672
  280ntf2     o 3328   4.453   3.757   0.777
  280ntf2     n 3329   4.225   3.644   0.799
  280ntf2     s 3330   4.082   3.667   0.858
  280ntf2     o 3331   4.044   3.587   0.973
  280ntf2     o 3332   4.029   3.800   0.846
  280ntf2     c 3333   3.992   3.581   0.725
  280ntf2     f 3334   4.027   3.454   0.718
  280ntf2     f 3335   4.017   3.636   0.607
  280ntf2     f 3336   3.861   3.585   0.743
  281ntf2     c 3337   3.822   4.412   0.407
  281ntf2     f 3338   3.868   0.010   0.461
  281ntf2     f 3339   3.717   4.444   0.334
  281ntf2     s 3340   3.780   4.291   0.536
  281ntf2     o 3341   3.727   4.182   0.457
  281ntf2     f 3342   3.915   4.366   0.326
  281ntf2     o 3343   3.907   4.269   0.601
  281ntf2     n 3344   3.670   4.377   0.607
  281ntf2     s 3345   3.669   4.467   0.736
  281ntf2     o 3346   3.794   0.003   0.787
  281ntf2     o 3347   3.554   0.039   0.744
  281ntf2     c 3348   3.624   4.334   0.852
  281ntf2     f 3349   3.615   4.379   0.977
  281ntf2     f 3350   3.714   4.237   0.851
  281ntf2     f 3351   3.508   4.280   0.821
  282ntf2     c 3352   3.540   2.218   0.544
  282ntf2     f 3353   3.545   2.212   0.412
  282ntf2     f 3354   3.424   2.167   0.582
  282ntf2     s 3355   3.562   2.387   0.606
  282ntf2     o 3356   3.688   2.425   0.548
  282ntf2     f 3357   3.634   2.137   0.591
  282ntf2     o 3358   3.444   2.457   0.561
  282ntf2     n 3359   3.572   2.350   0.758
  282ntf2     s 3360   3.463   2.333   0.870
  282ntf2     o 3361   3.327   2.308   0.830
  282ntf2     o 3362   3.512   2.264   0.987
  282ntf2     c 3363   3.462   2.506   0.926
  282ntf2     f 3364   3.440   2.589   0.825
  282ntf2     f 3365   3.579   2.540   0.978
  282ntf2     f 3366   3.369   2.529   1.017
  283ntf2     c 3367   3.861   1.146   1.990
  283ntf2     f 3368   3.867   1.173   1.860
  283ntf2     f 3369   3.774   1.230   2.044
  283ntf2     s 3370   4.026   1.162   2.066
  283ntf2     o 3371   4.057   1.299   2.035
  283ntf2     f 3372   3.813   1.024   2.003
  283ntf2     o 3373   3.999   1.127   2.203
  283ntf2     n 3374   4.098   1.059   1.972
  283ntf2     s 3375   4.143   0.909   1.986
  283ntf2     o 3376   4.102   0.833   2.101
  283ntf2     o 3377   4.151   0.838   1.860
  283ntf2     c 3378   4.318   0.943   2.020
  283ntf2     f 3379   4.333   1.008   2.134
  283ntf2     f 3380   4.372   1.017   1.925
  283ntf2     f 3381   4.389   0.831   2.029
  284ntf2     c 3382   4.124   2.071   0.929
  284ntf2     f 3383   4.076   2.195   0.934
  284ntf2     f 3384   4.037   1.993   0.991
  284ntf2     s 3385   4.290   2.060   1.002
  284ntf2     o 3386   4.275   2.108   1.137
  284ntf2     f 3387   4.125   2.034   0.802
  284ntf2     o 3388   4.321   1.920   0.984
  284ntf2     n 3389   4.365   2.150   0.898
  284ntf2     s 3390   4.363   2.305   0.872
  284ntf2     o 3391   4.279   2.389   0.955
  284ntf2     o 3392   4.490   2.358   0.828
  284ntf2     c 3393   4.270   2.299   0.717
  284ntf2     f 3394   4.257   2.418   0.661
  284ntf2     f 3395   4.147   2.252   0.736
  284ntf2     f 3396   4.329   2.220   0.628
  285ntf2     c 3397   3.519   2.569   1.359
  285ntf2     f 3398   3.563   2.453   1.313
  285ntf2     f 3399   3.604   2.611   1.451
  285ntf2     s 3400   3.350   2.556   1.427
  285ntf2     o 3401   3.274   2.519   1.310
  285ntf2     f 3402   3.523   2.656   1.259
  285ntf2     o 3403   3.363   2.457   1.531
  285ntf2     n 3404   3.335   2.707   1.465
  285ntf2     s 3405   3.374   2.785   1.596
  285ntf2     o 3406   3.478   2.731   1.680
  285ntf2     o 3407   3.366   2.928   1.582
  285ntf2     c 3408   3.221   2.749   1.688
  285ntf2     f 3409   3.115   2.798   1.626
  285ntf2     f 3410   3.224   2.801   1.809
  285ntf2     f 3411   3.203   2.618   1.701
  286ntf2     c 3412   4.159   1.004   4.285
  286ntf2     f 3413   4.105   1.064   4.180
  286ntf2     f 3414   4.063   0.989   4.374
  286ntf2     s 3415   4.298   1.099   4.353
  286ntf2     o 3416   4.335   1.018   4.466
  286ntf2     f 3417   4.196   0.883   4.247
  286ntf2     o 3418   4.391   1.104   4.242
  286ntf2     n 3419   4.217   1.227   4.392
  286ntf2     s 3420   4.192   1.363   4.318
  286ntf2     o 3421   4.191   1.366   4.174
  286ntf2     o 3422   4.099   1.450   4.387
  286ntf2     c 3423   4.351   1.440   4.362
  286ntf2     f 3424   4.369   1.440   4.493
  286ntf2     f 3425   4.357   1.567   4.323
  286ntf2     f 3426   4.453   1.377   4.308
  287ntf2     c 3427   3.813   1.412   0.776
  287ntf2     f 3428   3.884   1.442   0.883
  287ntf2     f 3429   3.845   1.500   0.682
  287ntf2     s 3430   3.635   1.413   0.810
  287ntf2     o 3431   3.622   1.306   0.907
  287ntf2     f 3432   3.853   1.293   0.733
  287ntf2     o 3433   3.608   1.547   0.857
  287ntf2     n 3434   3.588   1.374   0.666
  287ntf2     s 3435   3.578   1.456   0.532
  287ntf2     o 3436   3.621   1.593   0.532
  287ntf2     o 3437   3.601   1.377   0.413
  287ntf2     c 3438   3.397   1.474   0.532
  287ntf2     f 3439   3.337   1.358   0.553
  287ntf2     f 3440   3.353   1.523   0.417
  287ntf2     f 3441   3.358   1.556   0.627
  288ntf2     c 3442   0.475   3.857   0.254
  288ntf2     f 3443   0.396   3.891   0.355
  288ntf2     f 3444   0.399   3.802   0.161
  288ntf2     s 3445   0.607   3.744   0.307
  288ntf2     o 3446   0.696   3.833   0.377
  288ntf2     f 3447   0.524   3.969   0.203
  288ntf2     o 3448   0.537   3.646   0.385
  288ntf2     n 3449   0.656   3.706   0.162
  288ntf2     s 3450   0.624   3.588   0.064
  288ntf2     o 3451   0.509   3.505   0.089
  288ntf2     o 3452   0.657   3.615   4.441
  288ntf2     c 3453   0.762   3.482   0.115
  288ntf2     f 3454   0.879   3.540   0.092
  288ntf2     f 3455   0.762   3.366   0.050
  288ntf2     f 3456   0.757   3.454   0.244
  289ntf2     c 3457   1.201   2.830   4.042
  289ntf2     f 3458   1.096   2.897   3.997
  289ntf2     f 3459   1.228   2.735   3.954
  289ntf2     s 3460   1.169   2.759   4.207
  289ntf2     o 3461   1.290   2.686   4.233
  289ntf2     f 3462   1.304   2.912   4.044
  289ntf2     o 3463   1.141   2.875   4.288
  289ntf2     n 3464   1.048   2.668   4.164
  289ntf2     s 3465   0.892   2.682   4.173
  289ntf2     o 3466   0.828   2.609   4.280
  289ntf2     o 3467   0.834   2.806   4.129
  289ntf2     c 3468   0.855   2.575   4.031
  289ntf2     f 3469   0.725   2.559   4.014
  289ntf2     f 3470   0.909   2.455   4.046
  289ntf2     f 3471   0.903   2.626   3.919
  290ntf2     c 3472   0.913   0.576   3.317
  290ntf2     f 3473   0.874   0.461   3.370
  290ntf2     f 3474   0.855   0.587   3.199
  290ntf2     s 3475   1.094   0.584   3.305
  290ntf2     o 3476   1.122   0.473   3.218
  290ntf2     f 3477   0.865   0.673   3.394
  290ntf2     o 3478   1.118   0.717   3.254
  290ntf2     n 3479   1.124   0.554   3.456
  290ntf2     s 3480   1.149   0.649   3.579
  290ntf2     o 3481   1.082   0.776   3.583
  290ntf2     o 3482   1.165   0.578   3.703
  290ntf2     c 3483   1.321   0.691   3.539
  290ntf2     f 3484   1.397   0.583   3.536
  290ntf2     f 3485   1.373   0.774   3.628
  290ntf2     f 3486   1.331   0.749   3.420
  291ntf2     c 3487   0.551   3.629   2.803
  291ntf2     f 3488   0.430   3.577   2.801
  291ntf2     f 3489   0.604   3.609   2.683
  291ntf2     s 3490   0.654   3.555   2.934
  291ntf2     o 3491   0.575   3.584   3.051
  291ntf2     f 3492   0.538   3.760   2.819
  291ntf2     o 3493   0.662   3.417   2.891
  291ntf2     n 3494   0.778   3.649   2.913
  291ntf2     s 3495   0.910   3.634   2.831
  291ntf2     o 3496   0.914   3.542   2.720
  291ntf2     o 3497   0.983   3.758   2.814
  291ntf2     c 3498   1.007   3.551   2.960
  291ntf2     f 3499   1.130   3.524   2.919
  291ntf2     f 3500   0.952   3.437   2.997
  291ntf2     f 3501   1.017   3.627   3.069
  292ntf2     c 3502   2.149   1.260   2.218
  292ntf2     f 3503   2.152   1.272   2.087
  292ntf2     f 3504   2.273   1.274   2.263
  292ntf2     s 3505   2.076   1.102   2.271
  292ntf2     o 3506   1.942   1.114   2.219
  292ntf2     f 3507   2.080   1.363   2.265
  292ntf2     o 3508   2.161   1.003   2.210
  292ntf2     n 3509   2.088   1.128   2.425
  292ntf2     s 3510   2.207   1.108   2.526
  292ntf2     o 3511   2.340   1.089   2.475
  292ntf2     o 3512   2.192   1.184   2.648
  292ntf2     c 3513   2.158   0.941   2.579
  292ntf2     f 3514   2.243   0.889   2.665
  292ntf2     f 3515   2.151   0.858   2.476
  292ntf2     f 3516   2.038   0.940   2.635
  293ntf2     c 3517   4.144   2.814   0.219
  293ntf2     f 3518   4.069   2.841   0.113
  293ntf2     f 3519   4.113   2.692   0.260
  293ntf2     s 3520   4.120   2.937   0.351
  293ntf2     o 3521   4.168   3.058   0.288
  293ntf2     f 3522   4.270   2.811   0.179
  293ntf2     o 3523   3.978   2.929   0.378
  293ntf2     n 3524   4.222   2.874   0.452
  293ntf2     s 3525   4.207   2.760   0.560
  293ntf2     o 3526   4.090   2.677   0.558
  293ntf2     o 3527   4.332   2.698   0.595
  293ntf2     c 3528   4.178   2.870   0.701
  293ntf2     f 3529   4.283   2.946   0.727
  293ntf2     f 3530   4.150   2.802   0.812
  293ntf2     f 3531   4.076   2.951   0.679
  294ntf2     c 3532   0.339   0.384   2.908
  294ntf2     f 3533   0.398   0.322   3.009
  294ntf2     f 3534   0.422   0.381   2.806
  294ntf2     s 3535   0.293   0.555   2.952
  294ntf2     o 3536   0.206   0.534   3.065
  294ntf2     f 3537   0.232   0.313   2.875
  294ntf2     o 3538   0.421   0.616   2.976
  294ntf2     n 3539   0.216   0.586   2.818
  294ntf2     s 3540   0.246   0.670   2.689
  294ntf2     o 3541   0.377   0.727   2.672
  294ntf2     o 3542   0.178   0.622   2.571
  294ntf2     c 3543   0.146   0.814   2.736
  294ntf2     f 3544   0.019   0.781   2.753
  294ntf2     f 3545   0.151   0.909   2.644
  294ntf2     f 3546   0.189   0.866   2.850
  295ntf2     c 3547   2.097   1.760   4.380
  295ntf2     f 3548   2.100   1.635   4.425
  295ntf2     f 3549   2.131   1.757   4.252
  295ntf2     s 3550   2.207   1.869   4.475
  295ntf2     o 3551   2.151   1.857   0.094
  295ntf2     f 3552   1.972   1.801   4.386
  295ntf2     o 3553   2.338   1.812   4.453
  295ntf2     n 3554   2.165   2.001   4.401
  295ntf2     s 3555   2.226   2.085   4.283
  295ntf2     o 3556   2.346   2.039   4.217
  295ntf2     o 3557   2.126   2.149   4.201
  295ntf2     c 3558   2.287   2.223   4.383
  295ntf2     f 3559   2.190   2.278   4.455
  295ntf2     f 3560   2.340   2.318   4.308
  295ntf2     f 3561   2.380   2.183   4.469
  296ntf2     c 3562   3.991   1.224   3.584
  296ntf2     f 3563   4.122   1.215   3.564
  296ntf2     f 3564   3.965   1.164   3.699
  296ntf2     s 3565   3.898   1.148   3.447
  296ntf2     o 3566   3.763   1.155   3.498
  296ntf2     f 3567   3.962   1.352   3.599
  296ntf2     o 3568   3.930   1.233   3.335
  296ntf2     n 3569   3.963   1.006   3.460
  296ntf2     s 3570   4.087   0.937   3.391
  296ntf2     o 3571   4.181   1.017   3.318
  296ntf2     o 3572   4.140   0.827   3.467
  296ntf2     c 3573   3.994   0.852   3.260
  296ntf2     f 3574   3.929   0.937   3.183
  296ntf2     f 3575   3.905   0.768   3.310
  296ntf2     f 3576   4.075   0.782   3.181
  297ntf2     c 3577   2.823   3.058   2.063
  297ntf2     f 3578   2.695   3.033   2.039
  297ntf2     f 3579   2.891   2.954   2.019
  297ntf2     s 3580   2.852   3.089   2.239
  297ntf2     o 3581   2.814   2.964   2.298
  297ntf2     f 3582   2.857   3.161   1.988
  297ntf2     o 3583   2.992   3.124   2.244
  297ntf2     n 3584   2.746   3.203   2.257
  297ntf2     s 3585   2.753   3.358   2.231
  297ntf2     o 3586   2.850   3.408   2.137
  297ntf2     o 3587   2.624   3.424   2.235
  297ntf2     c 3588   2.822   3.404   2.393
  297ntf2     f 3589   2.836   3.535   2.405
  297ntf2     f 3590   2.941   3.351   2.413
  297ntf2     f 3591   2.745   3.364   2.492
  298ntf2     c 3592   2.754   0.860   3.853
  298ntf2     f 3593   2.686   0.933   3.767
  298ntf2     f 3594   2.820   0.943   3.933
  298ntf2     s 3595   2.867   0.745   3.769
  298ntf2     o 3596   2.779   0.683   3.673
  298ntf2     f 3597   2.667   0.795   3.929
  298ntf2     o 3598   2.971   0.830   3.716
  298ntf2     n 3599   2.899   0.656   3.894
  298ntf2     s 3600   2.997   0.675   4.014
  298ntf2     o 3601   3.050   0.807   4.039
  298ntf2     o 3602   2.965   0.594   4.129
  298ntf2     c 3603   3.137   0.584   3.942
  298ntf2     f 3604   3.101   0.463   3.904
  298ntf2     f 3605   3.237   0.570   4.027
  298ntf2     f 3606   3.185   0.645   3.834
  299ntf2     c 3607   3.131   0.985   3.386
  299ntf2     f 3608   3.225   0.966   3.477
  299ntf2     f 3609   3.067   0.870   3.371
  299ntf2     s 3610   3.201   1.042   3.228
  299ntf2     o 3611   3.084   1.054   3.146
  299ntf2     f 3612   3.045   1.072   3.436
  299ntf2     o 3613   3.271   1.162   3.264
  299ntf2     n 3614   3.286   0.913   3.198
  299ntf2     s 3615   3.435   0.873   3.227
  299ntf2     o 3616   3.525   0.886   3.115
  299ntf2     o 3617   3.485   0.893   3.361
  299ntf2     c 3618   3.405   0.694   3.227
  299ntf2     f 3619   3.348   0.655   3.115
  299ntf2     f 3620   3.324   0.659   3.326
  299ntf2     f 3621   3.517   0.625   3.241
  300ntf2     c 3622   0.856   4.297   3.855
  300ntf2     f 3623   0.753   4.304   3.938
  300ntf2     f 3624   0.965   4.311   3.929
  300ntf2     s 3625   0.848   4.425   3.727
  300ntf2     o 3626   0.963   4.394   3.646
  300ntf2     f 3627   0.857   4.175   3.804
  300ntf2     o 3628   0.717   4.401   3.671
  300ntf2     n 3629   0.867   0.032   3.825
  300ntf2     s 3630   0.801   0.173   3.842
  300ntf2     o 3631   0.707   0.218   3.742
  300ntf2     o 3632   0.778   0.214   3.978
  300ntf2     c 3633   0.949   0.268   3.799
  300ntf2     f 3634   0.932   0.397   3.823
  300ntf2     f 3635   0.980   0.256   3.671
  300ntf2     f 3636   1.054   0.228   3.868
  301ntf2     c 3637   2.183   0.804   2.996
  301ntf2     f 3638   2.187   0.899   3.088
  301ntf2     f 3639   2.128   0.856   2.888
  301ntf2     s 3640   2.090   0.658   3.053
  301ntf2     o 3641   2.168   0.615   3.167
  301ntf2     f 3642   2.308   0.772   2.966
  301ntf2     o 3643   1.958   0.710   3.078
  301ntf2     n 3644   2.114   0.571   2.924
  301ntf2     s 3645   2.032   0.555   2.791
  301ntf2     o 3646   1.935   0.656   2.755
  301ntf2     o 3647   2.109   0.497   2.684
  301ntf2     c 3648   1.931   0.415   2.846
  301ntf2     f 3649   1.848   0.372   2.752
  301ntf2     f 3650   1.857   0.447   2.951
  301ntf2     f 3651   2.006   0.312   2.882
  302ntf2     c 3652   2.640   1.274   4.235
  302ntf2     f 3653   2.601   1.172   4.161
  302ntf2     f 3654   2.727   1.227   4.322
  302ntf2     s 3655   2.499   1.353   4.318
  302ntf2     o 3656   2.565   1.449   4.403
  302ntf2     f 3657   2.703   1.359   4.156
  302ntf2     o 3658   2.419   1.404   4.210
  302ntf2     n 3659   2.450   1.225   4.395
  302ntf2     s 3660   2.350   1.110   4.358
  302ntf2     o 3661   2.312   1.093   4.220
  302ntf2     o 3662   2.367   0.991   4.437
  302ntf2     c 3663   2.202   1.185   4.434
  302ntf2     f 3664   2.174   1.303   4.381
  302ntf2     f 3665   2.220   1.205   0.050
  302ntf2     f 3666   2.095   1.109   4.421
  303ntf2     c 3667   1.503   3.312   2.243
  303ntf2     f 3668   1.580   3.206   2.259
  303ntf2     f 3669   1.483   3.327   2.113
  303ntf2     s 3670   1.576   3.461   2.317
  303ntf2     o 3671   1.472   3.559   2.298
  303ntf2     f 3672   1.386   3.283   2.298
  303ntf2     o 3673   1.606   3.421   2.452
  303ntf2     n 3674   1.696   3.476   2.216
  303ntf2     s 3675   1.833   3.401   2.204
  303ntf2     o 3676   1.849   3.276   2.273
  303ntf2     o 3677   1.896   3.415   2.075
  303ntf2     c 3678   1.929   3.517   2.306
  303ntf2     f 3679   1.884   3.519   2.431
  303ntf2     f 3680   1.921   3.641   2.260
  303ntf2     f 3681   2.057   3.484   2.311
  304ntf2     c 3682   2.058   0.025   1.520
  304ntf2     f 3683   1.992   4.432   1.478
  304ntf2     f 3684   1.968   0.117   1.549
  304ntf2     s 3685   2.175   0.084   1.394
  304ntf2     o 3686   2.230   0.201   1.458
  304ntf2     f 3687   2.119   4.506   1.632
  304ntf2     o 3688   2.263   4.486   1.374
  304ntf2     n 3689   2.069   0.116   1.284
  304ntf2     s 3690   1.994   0.025   1.180
  304ntf2     o 3691   1.995   4.396   1.201
  304ntf2     o 3692   1.874   0.083   1.127
  304ntf2     c 3693   2.110   0.048   1.042
  304ntf2     f 3694   2.066   4.503   0.932
  304ntf2     f 3695   2.229   4.513   1.069
  304ntf2     f 3696   2.125   0.176   1.014
  305ntf2     c 3697   1.140   4.393   0.747
  305ntf2     f 3698   1.125   4.319   0.638
  305ntf2     f 3699   1.029   4.463   0.764
  305ntf2     s 3700   1.285   4.502   0.736
  305ntf2     o 3701   1.390   4.409   0.703
  305ntf2     f 3702   1.149   4.310   0.850
  305ntf2     o 3703   1.242   0.080   0.634
  305ntf2     n 3704   1.282   0.033   0.886
  305ntf2     s 3705   1.282   0.172   0.960
  305ntf2     o 3706   1.305   0.292   0.884
  305ntf2     o 3707   1.192   0.178   1.073
  305ntf2     c 3708   1.443   0.149   1.041
  305ntf2     f 3709   1.484   0.260   1.101
  305ntf2     f 3710   1.536   0.116   0.953
  305ntf2     f 3711   1.439   0.053   1.132
  306ntf2     c 3712   0.490   4.435   0.824
  306ntf2     f 3713   0.412   4.337   0.781
  306ntf2     f 3714   0.432   0.034   0.787
  306ntf2     s 3715   0.657   4.421   0.756
  306ntf2     o 3716   0.723   0.019   0.817
  306ntf2     f 3717   0.489   4.432   0.956
  306ntf2     o 3718   0.694   4.287   0.797
  306ntf2     n 3719   0.615   4.434   0.605
  306ntf2     s 3720   0.686   4.489   0.477
  306ntf2     o 3721   0.825   0.010   0.486
  306ntf2     o 3722   0.638   4.431   0.354
  306ntf2     c 3723   0.604   0.137   0.474
  306ntf2     f 3724   0.644   0.214   0.574
  306ntf2     f 3725   0.472   0.125   0.484
  306ntf2     f 3726   0.628   0.203   0.362
  307ntf2     c 3727   0.653   0.592   4.367
  307ntf2     f 3728   0.619   0.597   4.495
  307ntf2     f 3729   0.570   0.508   4.308
  307ntf2     s 3730   0.826   0.540   4.346
  307ntf2     o 3731   0.834   0.523   4.203
  307ntf2     f 3732   0.631   0.712   4.316
  307ntf2     o 3733   0.903   0.646   4.406
  307ntf2     n 3734   0.812   0.404   4.424
  307ntf2     s 3735   0.815   0.370   0.063
  307ntf2     o 3736   0.794   0.476   0.159
  307ntf2     o 3737   0.756   0.242   0.094
  307ntf2     c 3738   0.993   0.336   0.076
  307ntf2     f 3739   1.064   0.445   0.053
  307ntf2     f 3740   1.031   0.244   4.503
  307ntf2     f 3741   1.025   0.292   0.197
  308ntf2     c 3742   3.118   4.329   0.069
  308ntf2     f 3743   3.139   4.253   4.476
  308ntf2     f 3744   3.075   4.249   0.165
  308ntf2     s 3745   2.998   4.461   0.035
  308ntf2     o 3746   2.976   0.002   0.166
  308ntf2     f 3747   3.235   4.377   0.107
  308ntf2     o 3748   3.069   0.027   4.453
  308ntf2     n 3749   2.886   4.368   4.489
  308ntf2     s 3750   2.738   4.336   0.016
  308ntf2     o 3751   2.717   4.213   0.087
  308ntf2     o 3752   2.651   4.448   0.044
  308ntf2     c 3753   2.680   4.292   4.364
  308ntf2     f 3754   2.751   4.193   4.312
  308ntf2     f 3755   2.689   4.394   4.281
  308ntf2     f 3756   2.553   4.253   4.365
  309ntf2     c 3757   3.294   0.829   2.399
  309ntf2     f 3758   3.195   0.853   2.315
  309ntf2     f 3759   3.383   0.926   2.382
  309ntf2     s 3760   3.368   0.666   2.371
  309ntf2     o 3761   3.469   0.661   2.474
  309ntf2     f 3762   3.245   0.840   2.521
  309ntf2     o 3763   3.256   0.576   2.383
  309ntf2     n 3764   3.427   0.695   2.228
  309ntf2     s 3765   3.364   0.697   2.084
  309ntf2     o 3766   3.220   0.699   2.072
  309ntf2     o 3767   3.439   0.774   1.989
  309ntf2     c 3768   3.407   0.527   2.039
  309ntf2     f 3769   3.535   0.501   2.062
  309ntf2     f 3770   3.385   0.502   1.911
  309ntf2     f 3771   3.337   0.438   2.108
  310ntf2     c 3772   1.960   0.895   0.667
  310ntf2     f 3773   2.003   0.925   0.545
  310ntf2     f 3774   2.011   0.983   0.751
  310ntf2     s 3775   2.005   0.724   0.712
  310ntf2     o 3776   2.149   0.728   0.705
  310ntf2     f 3777   1.829   0.911   0.666
  310ntf2     o 3778   1.944   0.710   0.842
  310ntf2     n 3779   1.935   0.660   0.586
  310ntf2     s 3780   1.804   0.578   0.561
  310ntf2     o 3781   1.723   0.539   0.674
  310ntf2     o 3782   1.736   0.612   0.438
  310ntf2     c 3783   1.886   0.422   0.519
  310ntf2     f 3784   1.955   0.375   0.621
  310ntf2     f 3785   1.971   0.438   0.418
  310ntf2     f 3786   1.799   0.328   0.484
  311ntf2     c 3787   1.260   0.881   2.797
  311ntf2     f 3788   1.373   0.905   2.733
  311ntf2     f 3789   1.191   0.794   2.724
  311ntf2     s 3790   1.165   1.033   2.826
  311ntf2     o 3791   1.251   1.104   2.917
  311ntf2     f 3792   1.291   0.821   2.911
  311ntf2     o 3793   1.150   1.087   2.693
  311ntf2     n 3794   1.040   0.966   2.894
  311ntf2     s 3795   0.905   0.912   2.835
  311ntf2     o 3796   0.901   0.870   2.697
  311ntf2     o 3797   0.826   0.836   2.929
  311ntf2     c 3798   0.816   1.071   2.835
  311ntf2     f 3799   0.804   1.118   2.958
  311ntf2     f 3800   0.694   1.058   2.786
  311ntf2     f 3801   0.880   1.162   2.763
  312ntf2     c 3802   3.849   4.187   2.646
  312ntf2     f 3803   3.880   4.306   2.597
  312ntf2     f 3804   3.763   4.131   2.562
  312ntf2     s 3805   3.779   4.200   2.814
  312ntf2     o 3806   3.668   4.290   2.792
  312ntf2     f 3807   3.960   4.115   2.646
  312ntf2     o 3808   3.750   4.063   2.845
  312ntf2     n 3809   3.905   4.268   2.879
  312ntf2     s 3810   4.025   4.213   2.963
  312ntf2     o 3811   4.054   4.071   2.958
  312ntf2     o 3812   4.137   4.303   2.970
  312ntf2     c 3813   3.949   4.235   3.126
  312ntf2     f 3814   3.839   4.163   3.138
  312ntf2     f 3815   3.916   4.361   3.148
  312ntf2     f 3816   4.031   4.198   3.224
  313ntf2     c 3817   4.026   2.056   0.017
  313ntf2     f 3818   4.120   2.150   0.030
  313ntf2     f 3819   3.924   2.111   4.467
  313ntf2     s 3820   3.977   1.990   0.178
  313ntf2     o 3821   4.103   1.946   0.231
  313ntf2     f 3822   4.076   1.961   4.453
  313ntf2     o 3823   3.913   2.103   0.241
  313ntf2     n 3824   3.888   1.873   0.123
  313ntf2     s 3825   3.736   1.865   0.083
  313ntf2     o 3826   3.672   1.985   0.033
  313ntf2     o 3827   3.699   1.740   0.022
  313ntf2     c 3828   3.670   1.846   0.251
  313ntf2     f 3829   3.685   1.957   0.323
  313ntf2     f 3830   3.733   1.749   0.316
  313ntf2     f 3831   3.541   1.817   0.250
  314ntf2     c 3832   3.074   2.409   4.373
  314ntf2     f 3833   2.976   2.376   4.291
  314ntf2     f 3834   3.157   2.486   4.303
  314ntf2     s 3835   3.159   2.263   4.441
  314ntf2     o 3836   3.051   2.193   4.505
  314ntf2     f 3837   3.024   2.485   4.469
  314ntf2     o 3838   3.217   2.206   4.322
  314ntf2     n 3839   3.259   2.343   0.017
  314ntf2     s 3840   3.269   2.366   0.172
  314ntf2     o 3841   3.201   2.484   0.221
  314ntf2     o 3842   3.272   2.250   0.257
  314ntf2     c 3843   3.443   2.418   0.174
  314ntf2     f 3844   3.476   2.478   0.287
  314ntf2     f 3845   3.470   2.502   0.076
  314ntf2     f 3846   3.524   2.314   0.160
  315ntf2     c 3847   2.010   1.422   2.941
  315ntf2     f 3848   1.966   1.416   2.816
  315ntf2     f 3849   2.055   1.302   2.972
  315ntf2     s 3850   1.878   1.475   3.054
  315ntf2     o 3851   1.950   1.474   3.179
  315ntf2     f 3852   2.113   1.505   2.943
  315ntf2     o 3853   1.840   1.602   2.997
  315ntf2     n 3854   1.782   1.355   3.025
  315ntf2     s 3855   1.650   1.303   3.093
  315ntf2     o 3856   1.617   1.167   3.060
  315ntf2     o 3857   1.618   1.351   3.225
  315ntf2     c 3858   1.536   1.397   2.988
  315ntf2     f 3859   1.555   1.369   2.860
  315ntf2     f 3860   1.554   1.527   3.002
  315ntf2     f 3861   1.409   1.371   3.015
  316ntf2     c 3862   0.828   2.602   1.931
  316ntf2     f 3863   0.756   2.601   2.041
  316ntf2     f 3864   0.773   2.689   1.848
  316ntf2     s 3865   0.839   2.436   1.856
  316ntf2     o 3866   0.905   2.360   1.959
  316ntf2     f 3867   0.948   2.648   1.962
  316ntf2     o 3868   0.701   2.404   1.826
  316ntf2     n 3869   0.933   2.476   1.736
  316ntf2     s 3870   0.902   2.535   1.594
  316ntf2     o 3871   0.777   2.605   1.576
  316ntf2     o 3872   1.019   2.590   1.529
  316ntf2     c 3873   0.879   2.377   1.509
  316ntf2     f 3874   0.984   2.298   1.524
  316ntf2     f 3875   0.860   2.392   1.379
  316ntf2     f 3876   0.774   2.311   1.556
  317ntf2     c 3877   1.480   1.737   1.378
  317ntf2     f 3878   1.580   1.820   1.403
  317ntf2     f 3879   1.392   1.750   1.476
  317ntf2     s 3880   1.539   1.566   1.364
  317ntf2     o 3881   1.595   1.545   1.496
  317ntf2     f 3882   1.421   1.777   1.266
  317ntf2     o 3883   1.420   1.492   1.329
  317ntf2     n 3884   1.648   1.594   1.255
  317ntf2     s 3885   1.650   1.574   1.099
  317ntf2     o 3886   1.528   1.585   1.023
  317ntf2     o 3887   1.771   1.625   1.038
  317ntf2     c 3888   1.683   1.396   1.102
  317ntf2     f 3889   1.572   1.325   1.118
  317ntf2     f 3890   1.765   1.365   1.201
  317ntf2     f 3891   1.740   1.355   0.990
  318ntf2     c 3892   1.924   2.960   4.390
  318ntf2     f 3893   2.029   2.974   4.311
  318ntf2     f 3894   1.822   2.923   4.314
  318ntf2     s 3895   1.886   3.115   4.478
  318ntf2     o 3896   1.854   3.204   4.369
  318ntf2     f 3897   1.950   2.862   4.475
  318ntf2     o 3898   1.779   3.078   0.052
  318ntf2     n 3899   2.030   3.139   0.024
  318ntf2     s 3900   2.092   3.111   0.165
  318ntf2     o 3901   2.037   3.007   0.248
  318ntf2     o 3902   2.234   3.134   0.172
  318ntf2     c 3903   2.028   3.263   0.242
  318ntf2     f 3904   2.065   3.371   0.175
  318ntf2     f 3905   2.070   3.277   0.367
  318ntf2     f 3906   1.895   3.263   0.245
  319ntf2     c 3907   3.390   3.968   2.004
  319ntf2     f 3908   3.391   4.015   1.880
  319ntf2     f 3909   3.417   3.839   1.997
  319ntf2     s 3910   3.230   3.999   2.085
  319ntf2     o 3911   3.137   3.932   1.997
  319ntf2     f 3912   3.489   4.027   2.068
  319ntf2     o 3913   3.249   3.945   2.217
  319ntf2     n 3914   3.230   4.156   2.069
  319ntf2     s 3915   3.260   4.275   2.167
  319ntf2     o 3916   3.148   4.322   2.246
  319ntf2     o 3917   3.392   4.284   2.223
  319ntf2     c 3918   3.266   4.401   2.037
  319ntf2     f 3919   3.360   4.374   1.948
  319ntf2     f 3920   3.290   0.008   2.085
  319ntf2     f 3921   3.151   4.408   1.971
  320ntf2     c 3922   3.901   2.580   1.371
  320ntf2     f 3923   3.935   2.452   1.372
  320ntf2     f 3924   3.827   2.600   1.263
  320ntf2     s 3925   4.047   2.688   1.374
  320ntf2     o 3926   4.109   2.649   1.498
  320ntf2     f 3927   3.824   2.601   1.476
  320ntf2     o 3928   4.116   2.657   1.252
  320ntf2     n 3929   3.969   2.825   1.383
  320ntf2     s 3930   3.903   2.914   1.272
  320ntf2     o 3931   3.862   2.852   1.149
  320ntf2     o 3932   3.821   3.020   1.324
  320ntf2     c 3933   4.054   3.005   1.226
  320ntf2     f 3934   4.107   3.066   1.331
  320ntf2     f 3935   4.030   3.097   1.134
  320ntf2     f 3936   4.147   2.924   1.178
  321ntf2     c 3937   4.141   1.185   1.575
  321ntf2     f 3938   4.126   1.302   1.634
  321ntf2     f 3939   4.225   1.113   1.648
  321ntf2     s 3940   4.201   1.203   1.404
  321ntf2     o 3941   4.324   1.275   1.422
  321ntf2     f 3942   4.024   1.124   1.578
  321ntf2     o 3943   4.208   1.067   1.357
  321ntf2     n 3944   4.082   1.292   1.351
  321ntf2     s 3945   3.954   1.260   1.266
  321ntf2     o 3946   3.970   1.266   1.123
  321ntf2     o 3947   3.861   1.164   1.320
  321ntf2     c 3948   3.868   1.416   1.300
  321ntf2     f 3949   3.938   1.520   1.257
  321ntf2     f 3950   3.848   1.433   1.429
  321ntf2     f 3951   3.750   1.420   1.240
  322ntf2     c 3952   0.351   3.195   0.944
  322ntf2     f 3953   0.351   3.126   1.057
  322ntf2     f 3954   0.380   3.321   0.974
  322ntf2     s 3955   0.190   3.182   0.860
  322ntf2     o 3956   0.101   3.236   0.959
  322ntf2     f 3957   0.449   3.148   0.870
  322ntf2     o 3958   0.208   3.258   0.738
  322ntf2     n 3959   0.187   3.026   0.850
  322ntf2     s 3960   0.248   2.925   0.747
  322ntf2     o 3961   0.359   2.967   0.665
  322ntf2     o 3962   0.247   2.789   0.795
  322ntf2     c 3963   0.108   2.925   0.631
  322ntf2     f 3964   0.095   3.043   0.571
  322ntf2     f 3965   4.508   2.901   0.694
  322ntf2     f 3966   0.121   2.834   0.536
  323ntf2     c 3967   3.380   3.787   1.488
  323ntf2     f 3968   3.411   3.905   1.437
  323ntf2     f 3969   3.494   3.730   1.525
  323ntf2     s 3970   3.290   3.684   1.369
  323ntf2     o 3971   3.270   3.561   1.441
  323ntf2     f 3972   3.310   3.809   1.598
  323ntf2     o 3973   3.172   3.763   1.340
  323ntf2     n 3974   3.404   3.677   1.262
  323ntf2     s 3975   3.441   3.767   1.139
  323ntf2     o 3976   3.381   3.898   1.128
  323ntf2     o 3977   3.577   3.752   1.093
  323ntf2     c 3978   3.349   3.670   1.016
  323ntf2     f 3979   3.220   3.666   1.044
  323ntf2     f 3980   3.392   3.545   1.012
  323ntf2     f 3981   3.361   3.720   0.894
  324ntf2     c 3982   3.760   0.850   0.570
  324ntf2     f 3983   3.744   0.980   0.588
  324ntf2     f 3984   3.851   0.809   0.657
  324ntf2     s 3985   3.810   0.812   0.399
  324ntf2     o 3986   3.817   0.668   0.399
  324ntf2     f 3987   3.645   0.792   0.602
  324ntf2     o 3988   3.705   0.875   0.321
  324ntf2     n 3989   3.950   0.883   0.405
  324ntf2     s 3990   4.005   1.020   0.353
  324ntf2     o 3991   4.093   1.010   0.239
  324ntf2     o 3992   3.922   1.137   0.365
  324ntf2     c 3993   4.124   1.045   0.488
  324ntf2     f 3994   4.212   0.946   0.494
  324ntf2     f 3995   4.063   1.050   0.605
  324ntf2     f 3996   4.192   1.158   0.473
  325ntf2     c 3997   0.979   1.912   4.210
  325ntf2     f 3998   1.061   2.008   4.249
  325ntf2     f 3999   1.037   1.848   4.110
  325ntf2     s 4000   0.816   1.977   4.164
  325ntf2     o 4001   0.769   2.028   4.291
  325ntf2     f 4002   0.970   1.825   4.310
  325ntf2     o 4003   0.846   2.072   4.060
  325ntf2     n 4004   0.753   1.838   4.126
  325ntf2     s 4005   0.747   1.756   3.992
  325ntf2     o 4006   0.832   1.793   3.882
  325ntf2     o 4007   0.723   1.615   4.011
  325ntf2     c 4008   0.583   1.814   3.937
  325ntf2     f 4009   0.490   1.791   4.029
  325ntf2     f 4010   0.545   1.752   3.826
  325ntf2     f 4011   0.583   1.944   3.913
  326ntf2     c 4012   4.409   0.564   4.092
  326ntf2     f 4013   4.363   0.612   4.207
  326ntf2     f 4014   4.346   0.450   4.070
  326ntf2     s 4015   0.075   0.540   4.098
  326ntf2     o 4016   0.100   0.475   3.972
  326ntf2     f 4017   4.374   0.649   3.997
  326ntf2     o 4018   0.127   0.673   4.114
  326ntf2     n 4019   0.077   0.442   4.221
  326ntf2     s 4020   0.085   0.468   4.376
  326ntf2     o 4021   0.055   0.599   4.427
  326ntf2     o 4022   0.046   0.354   4.456
  326ntf2     c 4023   0.266   0.461   4.388
  326ntf2     f 4024   0.309   0.490   4.509
  326ntf2     f 4025   0.323   0.546   4.304
  326ntf2     f 4026   0.312   0.340   4.357
  327ntf2     c 4027   1.419   2.103   0.169
  327ntf2     f 4028   1.401   2.234   0.159
  327ntf2     f 4029   1.542   2.076   0.128
  327ntf2     s 4030   1.296   2.010   0.074
  327ntf2     o 4031   1.172   2.058   0.130
  327ntf2     f 4032   1.413   2.072   0.298
  327ntf2     o 4033   1.326   2.046   4.452
  327ntf2     n 4034   1.338   1.868   0.126
  327ntf2     s 4035   1.438   1.761   0.071
  327ntf2     o 4036   1.543   1.802   4.494
  327ntf2     o 4037   1.472   1.657   0.165
  327ntf2     c 4038   1.319   1.676   4.477
  327ntf2     f 4039   1.373   1.572   4.415
  327ntf2     f 4040   1.273   1.758   4.383
  327ntf2     f 4041   1.215   1.632   0.031
  328ntf2     c 4042   4.199   3.924   4.000
  328ntf2     f 4043   4.301   3.990   3.947
  328ntf2     f 4044   4.161   3.832   3.913
  328ntf2     s 4045   4.063   4.037   4.041
  328ntf2     o 4046   3.959   3.945   4.078
  328ntf2     f 4047   4.245   3.861   4.107
  328ntf2     o 4048   4.125   4.118   4.144
  328ntf2     n 4049   4.051   4.098   3.897
  328ntf2     s 4050   3.998   4.235   3.841
  328ntf2     o 4051   3.972   4.342   3.933
  328ntf2     o 4052   4.050   4.268   3.710
  328ntf2     c 4053   3.831   4.175   3.800
  328ntf2     f 4054   3.836   4.071   3.718
  328ntf2     f 4055   3.758   4.268   3.741
  328ntf2     f 4056   3.766   4.136   3.908
  329ntf2     c 4057   3.273   1.139   4.439
  329ntf2     f 4058   3.189   1.159   4.339
  329ntf2     f 4059   3.385   1.203   4.410
  329ntf2     s 4060   3.301   0.962   4.465
  329ntf2     o 4061   3.391   0.964   0.064
  329ntf2     f 4062   3.221   1.197   0.032
  329ntf2     o 4063   3.166   0.916   4.486
  329ntf2     n 4064   3.364   0.933   4.324
  329ntf2     s 4065   3.440   0.809   4.265
  329ntf2     o 4066   3.429   0.683   4.334
  329ntf2     o 4067   3.448   0.807   4.121
  329ntf2     c 4068   3.608   0.864   4.309
  329ntf2     f 4069   3.623   0.876   4.440
  329ntf2     f 4070   3.636   0.981   4.254
  329ntf2     f 4071   3.700   0.778   4.267
  330ntf2     c 4072   0.671   4.083   1.643
  330ntf2     f 4073   0.750   4.180   1.686
  330ntf2     f 4074   0.632   4.015   1.749
  330ntf2     s 4075   0.758   3.976   1.524
  330ntf2     o 4076   0.653   3.886   1.483
  330ntf2     f 4077   0.564   4.139   1.589
  330ntf2     o 4078   0.807   4.071   1.427
  330ntf2     n 4079   0.859   3.915   1.628
  330ntf2     s 4080   1.014   3.927   1.653
  330ntf2     o 4081   1.094   4.004   1.561
  330ntf2     o 4082   1.051   3.927   1.792
  330ntf2     c 4083   1.054   3.757   1.604
  330ntf2     f 4084   1.021   3.733   1.478
  330ntf2     f 4085   0.988   3.669   1.678
  330ntf2     f 4086   1.183   3.730   1.617
  331ntf2     c 4087   0.007   0.690   1.368
  331ntf2     f 4088   0.018   0.591   1.455
  331ntf2     f 4089   4.403   0.747   1.388
  331ntf2     s 4090   0.025   0.632   1.196
  331ntf2     o 4091   0.013   0.754   1.122
  331ntf2     f 4092   0.099   0.780   1.399
  331ntf2     o 4093   0.154   0.566   1.201
  331ntf2     n 4094   4.411   0.541   1.194
  331ntf2     s 4095   4.388   0.386   1.178
  331ntf2     o 4096   4.443   0.324   1.060
  331ntf2     o 4097   4.380   0.309   1.299
  331ntf2     c 4098   4.213   0.398   1.133
  331ntf2     f 4099   4.142   0.452   1.231
  331ntf2     f 4100   4.161   0.278   1.109
  331ntf2     f 4101   4.195   0.472   1.025
  332ntf2     c 4102   1.296   2.546   1.981
  332ntf2     f 4103   1.204   2.471   1.924
  332ntf2     f 4104   1.360   2.611   1.885
  332ntf2     s 4105   1.411   2.448   2.083
  332ntf2     o 4106   1.322   2.390   2.181
  332ntf2     f 4107   1.234   2.638   2.054
  332ntf2     o 4108   1.472   2.358   1.988
  332ntf2     n 4109   1.495   2.569   2.137
  332ntf2     s 4110   1.617   2.648   2.078
  332ntf2     o 4111   1.646   2.636   1.937
  332ntf2     o 4112   1.637   2.777   2.139
  332ntf2     c 4113   1.747   2.548   2.157
  332ntf2     f 4114   1.741   2.421   2.118
  332ntf2     f 4115   1.735   2.548   2.289
  332ntf2     f 4116   1.868   2.593   2.128
  333ntf2     c 4117   3.381   2.142   3.031
  333ntf2     f 4118   3.373   2.270   2.999
  333ntf2     f 4119   3.464   2.084   2.947
  333ntf2     s 4120   3.217   2.062   3.027
  333ntf2     o 4121   3.146   2.143   3.123
  333ntf2     f 4122   3.435   2.134   3.152
  333ntf2     o 4123   3.185   2.076   2.887
  333ntf2     n 4124   3.266   1.921   3.073
  333ntf2     s 4125   3.193   1.794   3.130
  333ntf2     o 4126   3.235   1.752   3.261
  333ntf2     o 4127   3.055   1.772   3.093
  333ntf2     c 4128   3.277   1.672   3.023
  333ntf2     f 4129   3.232   1.550   3.045
  333ntf2     f 4130   3.407   1.672   3.044
  333ntf2     f 4131   3.257   1.700   2.895
  334ntf2     c 4132   0.024   2.745   1.600
  334ntf2     f 4133   0.143   2.804   1.600
  334ntf2     f 4134   4.451   2.830   1.550
  334ntf2     s 4135   4.491   2.687   1.766
  334ntf2     o 4136   4.487   2.811   1.841
  334ntf2     f 4137   0.032   2.643   1.515
  334ntf2     o 4138   4.367   2.621   1.739
  334ntf2     n 4139   0.106   2.602   1.792
  334ntf2     s 4140   0.139   2.449   1.793
  334ntf2     o 4141   0.040   2.356   1.745
  334ntf2     o 4142   0.278   2.419   1.766
  334ntf2     c 4143   0.130   2.428   1.973
  334ntf2     f 4144   0.216   2.508   2.035
  334ntf2     f 4145   0.158   2.304   2.010
  334ntf2     f 4146   0.010   2.457   2.020
  335ntf2     c 4147   3.748   0.385   3.773
  335ntf2     f 4148   3.675   0.393   3.663
  335ntf2     f 4149   3.667   0.411   3.875
  335ntf2     s 4150   3.888   0.500   3.768
  335ntf2     o 4151   3.962   0.450   3.655
  335ntf2     f 4152   3.788   0.259   3.786
  335ntf2     o 4153   3.825   0.628   3.755
  335ntf2     n 4154   3.950   0.459   3.907
  335ntf2     s 4155   3.922   0.511   4.052
  335ntf2     o 4156   3.792   0.564   4.083
  335ntf2     o 4157   3.987   0.433   4.155
  335ntf2     c 4158   4.028   0.659   4.044
  335ntf2     f 4159   4.035   0.720   4.161
  335ntf2     f 4160   3.982   0.747   3.957
  335ntf2     f 4161   4.151   0.628   4.007
  336ntf2     c 4162   3.477   0.415   3.017
  336ntf2     f 4163   3.418   0.496   2.932
  336ntf2     f 4164   3.595   0.467   3.045
  336ntf2     s 4165   3.494   0.247   2.950
  336ntf2     o 4166   3.565   0.179   3.056
  336ntf2     f 4167   3.406   0.416   3.129
  336ntf2     o 4168   3.357   0.208   2.924
  336ntf2     n 4169   3.586   0.286   2.829
  336ntf2     s 4170   3.557   0.309   2.676
  336ntf2     o 4171   3.424   0.345   2.633
  336ntf2     o 4172   3.669   0.367   2.605
  336ntf2     c 4173   3.573   0.134   2.628
  336ntf2     f 4174   3.573   0.119   2.497
  336ntf2     f 4175   3.474   0.061   2.678
  336ntf2     f 4176   3.686   0.084   2.673
  337ntf2     c 4177   0.579   1.771   0.832
  337ntf2     f 4178   0.624   1.659   0.777
  337ntf2     f 4179   0.453   1.785   0.795
  337ntf2     s 4180   0.678   1.915   0.781
  337ntf2     o 4181   0.606   2.024   0.842
  337ntf2     f 4182   0.582   1.755   0.963
  337ntf2     o 4183   0.810   1.887   0.830
  337ntf2     n 4184   0.649   1.903   0.627
  337ntf2     s 4185   0.705   1.805   0.518
  337ntf2     o 4186   0.762   1.680   0.561
  337ntf2     o 4187   0.631   1.807   0.394
  337ntf2     c 4188   0.851   1.905   0.474
  337ntf2     f 4189   0.928   1.844   0.385
  337ntf2     f 4190   0.926   1.930   0.580
  337ntf2     f 4191   0.816   2.021   0.422
  338ntf2     c 4192   0.263   0.810   0.643
  338ntf2     f 4193   0.313   0.855   0.757
  338ntf2     f 4194   0.234   0.683   0.660
  338ntf2     s 4195   0.380   0.834   0.506
  338ntf2     o 4196   0.304   0.786   0.393
  338ntf2     f 4197   0.150   0.875   0.621
  338ntf2     o 4198   0.405   0.976   0.514
  338ntf2     n 4199   0.489   0.734   0.558
  338ntf2     s 4200   0.633   0.749   0.618
  338ntf2     o 4201   0.676   0.879   0.663
  338ntf2     o 4202   0.677   0.634   0.692
  338ntf2     c 4203   0.721   0.727   0.460
  338ntf2     f 4204   0.853   0.731   0.475
  338ntf2     f 4205   0.688   0.821   0.373
  338ntf2     f 4206   0.691   0.611   0.405
  339ntf2     c 4207   2.132   2.621   1.831
  339ntf2     f 4208   2.073   2.555   1.930
  339ntf2     f 4209   2.179   2.530   1.747
  339ntf2     s 4210   2.264   2.730   1.892
  339ntf2     o 4211   2.355   2.636   1.953
  339ntf2     f 4212   2.039   2.689   1.767
  339ntf2     o 4213   2.306   2.795   1.769
  339ntf2     n 4214   2.173   2.819   1.984
  339ntf2     s 4215   2.179   2.851   2.138
  339ntf2     o 4216   2.088   2.954   2.180
  339ntf2     o 4217   2.205   2.743   2.230
  339ntf2     c 4218   2.337   2.941   2.134
  339ntf2     f 4219   2.327   3.052   2.063
  339ntf2     f 4220   2.434   2.868   2.082
  339ntf2     f 4221   2.376   2.976   2.256
  340ntf2     c 4222   2.024   3.535   1.581
  340ntf2     f 4223   2.011   3.666   1.590
  340ntf2     f 4224   1.966   3.482   1.688
  340ntf2     s 4225   2.198   3.484   1.567
  340ntf2     o 4226   2.236   3.550   1.445
  340ntf2     f 4227   1.954   3.496   1.476
  340ntf2     o 4228   2.255   3.532   1.691
  340ntf2     n 4229   2.170   3.331   1.550
  340ntf2     s 4230   2.174   3.208   1.648
  340ntf2     o 4231   2.172   3.231   1.790
  340ntf2     o 4232   2.103   3.093   1.599
  340ntf2     c 4233   2.347   3.162   1.615
  340ntf2     f 4234   2.384   3.056   1.685
  340ntf2     f 4235   2.430   3.260   1.644
  340ntf2     f 4236   2.365   3.131   1.487
  341ntf2     c 4237   2.976   0.403   0.421
  341ntf2     f 4238   2.916   0.461   0.523
  341ntf2     f 4239   2.884   0.338   0.352
  341ntf2     s 4240   3.108   0.291   0.478
  341ntf2     o 4241   3.038   0.202   0.567
  341ntf2     f 4242   3.025   0.499   0.344
  341ntf2     o 4243   3.161   0.235   0.356
  341ntf2     n 4244   3.193   0.401   0.553
  341ntf2     s 4245   3.313   0.491   0.506
  341ntf2     o 4246   3.317   0.531   0.367
  341ntf2     o 4247   3.353   0.587   0.605
  341ntf2     c 4248   3.442   0.363   0.520
  341ntf2     f 4249   3.453   0.321   0.644
  341ntf2     f 4250   3.560   0.409   0.482
  341ntf2     f 4251   3.415   0.258   0.445
  342ntf2     c 4252   3.200   0.275   1.260
  342ntf2     f 4253   3.276   0.228   1.163
  342ntf2     f 4254   3.280   0.334   1.348
  342ntf2     s 4255   3.102   0.144   1.338
  342ntf2     o 4256   3.012   0.108   1.231
  342ntf2     f 4257   3.123   0.369   1.208
  342ntf2     o 4258   3.202   0.047   1.376
  342ntf2     n 4259   3.038   0.236   1.449
  342ntf2     s 4260   3.074   0.268   1.598
  342ntf2     o 4261   3.195   0.214   1.655
  342ntf2     o 4262   3.034   0.400   1.640
  342ntf2     c 4263   2.945   0.163   1.672
  342ntf2     f 4264   2.824   0.200   1.632
  342ntf2     f 4265   2.946   0.168   1.804
  342ntf2     f 4266   2.960   0.037   1.637
  343ntf2     c 4267   1.579   1.483   2.464
  343ntf2     f 4268   1.471   1.505   2.391
  343ntf2     f 4269   1.682   1.535   2.400
  343ntf2     s 4270   1.604   1.305   2.493
  343ntf2     o 4271   1.727   1.306   2.568
  343ntf2     f 4272   1.565   1.549   2.578
  343ntf2     o 4273   1.484   1.264   2.562
  343ntf2     n 4274   1.621   1.264   2.342
  343ntf2     s 4275   1.517   1.226   2.231
  343ntf2     o 4276   1.381   1.270   2.245
  343ntf2     o 4277   1.573   1.226   2.098
  343ntf2     c 4278   1.508   1.048   2.269
  343ntf2     f 4279   1.622   0.987   2.246
  343ntf2     f 4280   1.414   0.988   2.198
  343ntf2     f 4281   1.479   1.028   2.397
  344ntf2     c 4282   1.234   2.002   3.838
  344ntf2     f 4283   1.256   2.120   3.893
  344ntf2     f 4284   1.233   1.912   3.935
  344ntf2     s 4285   1.359   1.963   3.712
  344ntf2     o 4286   1.482   1.977   3.787
  344ntf2     f 4287   1.112   2.006   3.786
  344ntf2     o 4288   1.323   1.830   3.668
  344ntf2     n 4289   1.327   2.084   3.618
  344ntf2     s 4290   1.224   2.102   3.500
  344ntf2     o 4291   1.103   2.024   3.501
  344ntf2     o 4292   1.215   2.237   3.452
  344ntf2     c 4293   1.324   2.022   3.371
  344ntf2     f 4294   1.356   1.898   3.405
  344ntf2     f 4295   1.437   2.087   3.350
  344ntf2     f 4296   1.259   2.015   3.257
  345ntf2     c 4297   1.797   2.019   2.280
  345ntf2     f 4298   1.897   1.933   2.271
  345ntf2     f 4299   1.788   2.057   2.406
  345ntf2     s 4300   1.642   1.944   2.221
  345ntf2     o 4301   1.637   1.824   2.301
  345ntf2     f 4302   1.829   2.125   2.208
  345ntf2     o 4303   1.547   2.049   2.248
  345ntf2     n 4304   1.688   1.925   2.072
  345ntf2     s 4305   1.610   1.891   1.940
  345ntf2     o 4306   1.467   1.883   1.945
  345ntf2     o 4307   1.671   1.944   1.821
  345ntf2     c 4308   1.658   1.716   1.932
  345ntf2     f 4309   1.790   1.700   1.930
  345ntf2     f 4310   1.610   1.656   1.823
  345ntf2     f 4311   1.612   1.648   2.036
  346ntf2     c 4312   0.606   2.977   2.500
  346ntf2     f 4313   0.652   2.922   2.612
  346ntf2     f 4314   0.478   2.945   2.489
  346ntf2     s 4315   0.701   2.924   2.355
  346ntf2     o 4316   0.831   2.976   2.387
  346ntf2     f 4317   0.611   3.109   2.515
  346ntf2     o 4318   0.680   2.781   2.359
  346ntf2     n 4319   0.614   3.003   2.250
  346ntf2     s 4320   0.640   3.055   2.104
  346ntf2     o 4321   0.766   3.023   2.042
  346ntf2     o 4322   0.522   3.054   2.021
  346ntf2     c 4323   0.656   3.231   2.146
  346ntf2     f 4324   0.548   3.274   2.210
  346ntf2     f 4325   0.671   3.306   2.039
  346ntf2     f 4326   0.759   3.252   2.226
  347ntf2     c 4327   0.171   2.144   2.851
  347ntf2     f 4328   0.177   2.080   2.735
  347ntf2     f 4329   0.249   2.079   2.935
  347ntf2     s 4330   4.514   2.157   2.912
  347ntf2     o 4331   4.475   2.019   2.921
  347ntf2     f 4332   0.225   2.264   2.833
  347ntf2     o 4333   0.015   2.231   3.035
  347ntf2     n 4334   4.456   2.232   2.786
  347ntf2     s 4335   4.437   2.384   2.753
  347ntf2     o 4336   4.513   2.482   2.828
  347ntf2     o 4337   4.413   2.412   2.613
  347ntf2     c 4338   4.270   2.399   2.823
  347ntf2     f 4339   4.186   2.316   2.764
  347ntf2     f 4340   4.223   2.522   2.809
  347ntf2     f 4341   4.270   2.371   2.952
  348ntf2     c 4342   3.569   3.604   0.054
  348ntf2     f 4343   3.589   3.475   0.069
  348ntf2     f 4344   3.682   3.657   0.010
  348ntf2     s 4345   3.514   3.683   0.208
  348ntf2     o 4346   3.389   3.614   0.230
  348ntf2     f 4347   3.479   3.619   4.471
  348ntf2     o 4348   3.625   3.653   0.295
  348ntf2     n 4349   3.506   3.829   0.152
  348ntf2     s 4350   3.436   3.960   0.203
  348ntf2     o 4351   3.386   3.963   0.338
  348ntf2     o 4352   3.493   4.081   0.149
  348ntf2     c 4353   3.285   3.944   0.103
  348ntf2     f 4354   3.315   3.947   4.488
  348ntf2     f 4355   3.201   4.043   0.125
  348ntf2     f 4356   3.221   3.831   0.127
  349ntf2     c 4357   0.255   3.794   1.755
  349ntf2     f 4358   0.339   3.895   1.776
  349ntf2     f 4359   0.327   3.689   1.721
  349ntf2     s 4360   0.133   3.836   1.626
  349ntf2     o 4361   0.216   3.847   1.509
  349ntf2     f 4362   0.196   3.767   1.870
  349ntf2     o 4363   0.043   3.724   1.632
  349ntf2     n 4364   0.090   3.974   1.687
  349ntf2     s 4365   4.477   4.028   1.762
  349ntf2     o 4366   4.369   3.937   1.792
  349ntf2     o 4367   4.503   4.134   1.856
  349ntf2     c 4368   4.412   4.121   1.620
  349ntf2     f 4369   4.378   4.040   1.521
  349ntf2     f 4370   4.503   4.205   1.573
  349ntf2     f 4371   4.306   4.193   1.653
  350ntf2     c 4372   0.517   3.216   1.605
  350ntf2     f 4373   0.494   3.125   1.698
  350ntf2     f 4374   0.627   3.281   1.640
  350ntf2     s 4375   0.376   3.329   1.586
  350ntf2     o 4376   0.368   3.387   1.718
  350ntf2     f 4377   0.543   3.151   1.493
  350ntf2     o 4378   0.421   3.413   1.477
  350ntf2     n 4379   0.271   3.219   1.548
  350ntf2     s 4380   0.116   3.208   1.571
  350ntf2     o 4381   0.044   3.326   1.612
  350ntf2     o 4382   0.050   3.118   1.480
  350ntf2     c 4383   0.124   3.111   1.724
  350ntf2     f 4384   0.194   3.000   1.708
  350ntf2     f 4385   0.003   3.077   1.766
  350ntf2     f 4386   0.182   3.180   1.821
  351ntf2     c 4387   2.886   2.129   1.833
  351ntf2     f 4388   2.757   2.118   1.809
  351ntf2     f 4389   2.915   2.048   1.934
  351ntf2     s 4390   2.934   2.301   1.868
  351ntf2     o 4391   2.857   2.326   1.987
  351ntf2     f 4392   2.950   2.082   1.726
  351ntf2     o 4393   3.077   2.286   1.879
  351ntf2     n 4394   2.882   2.360   1.733
  351ntf2     s 4395   2.838   2.504   1.688
  351ntf2     o 4396   2.871   2.615   1.774
  351ntf2     o 4397   2.841   2.527   1.546
  351ntf2     c 4398   2.660   2.482   1.718
  351ntf2     f 4399   2.590   2.586   1.676
  351ntf2     f 4400   2.634   2.467   1.847
  351ntf2     f 4401   2.613   2.375   1.656
  352ntf2     c 4402   4.079   3.375   1.556
  352ntf2     f 4403   4.182   3.457   1.562
  352ntf2     f 4404   4.075   3.324   1.434
  352ntf2     s 4405   3.923   3.459   1.598
  352ntf2     o 4406   3.920   3.565   1.500
  352ntf2     f 4407   4.102   3.275   1.640
  352ntf2     o 4408   3.827   3.352   1.584
  352ntf2     n 4409   3.965   3.504   1.742
  352ntf2     s 4410   3.944   3.443   1.885
  352ntf2     o 4411   3.860   3.521   1.973
  352ntf2     o 4412   3.944   3.300   1.899
  352ntf2     c 4413   4.110   3.485   1.949
  352ntf2     f 4414   4.133   3.615   1.942
  352ntf2     f 4415   4.204   3.424   1.879
  352ntf2     f 4416   4.124   3.448   2.075
  353ntf2     c 4417   4.098   3.842   3.343
  353ntf2     f 4418   4.214   3.903   3.330
  353ntf2     f 4419   4.013   3.931   3.392
  353ntf2     s 4420   4.112   3.696   3.451
  353ntf2     o 4421   4.165   3.754   3.572
  353ntf2     f 4422   4.056   3.809   3.222
  353ntf2     o 4423   3.977   3.645   3.457
  353ntf2     n 4424   4.218   3.620   3.365
  353ntf2     s 4425   4.206   3.519   3.245
  353ntf2     o 4426   4.080   3.506   3.176
  353ntf2     o 4427   4.327   3.507   3.168
  353ntf2     c 4428   4.212   3.368   3.347
  353ntf2     f 4429   4.109   3.362   3.430
  353ntf2     f 4430   4.322   3.364   3.420
  353ntf2     f 4431   4.209   3.258   3.273
  354ntf2     c 4432   2.377   3.984   1.638
  354ntf2     f 4433   2.392   3.915   1.526
  354ntf2     f 4434   2.248   4.014   1.647
  354ntf2     s 4435   2.482   4.132   1.638
  354ntf2     o 4436   2.436   4.202   1.521
  354ntf2     f 4437   2.406   3.904   1.739
  354ntf2     o 4438   2.454   4.192   1.767
  354ntf2     n 4439   2.619   4.059   1.618
  354ntf2     s 4440   2.738   4.020   1.713
  354ntf2     o 4441   2.856   4.101   1.699
  354ntf2     o 4442   2.706   3.969   1.844
  354ntf2     c 4443   2.786   3.869   1.625
  354ntf2     f 4444   2.687   3.782   1.620
  354ntf2     f 4445   2.889   3.809   1.684
  354ntf2     f 4446   2.822   3.895   1.500
  355ntf2     c 4447   4.402   1.579   0.777
  355ntf2     f 4448   4.306   1.614   0.861
  355ntf2     f 4449   4.437   1.687   0.710
  355ntf2     s 4450   4.346   1.445   0.667
  355ntf2     o 4451   4.225   1.502   0.612
  355ntf2     f 4452   4.506   1.541   0.850
  355ntf2     o 4453   4.457   1.427   0.577
  355ntf2     n 4454   4.321   1.339   0.779
  355ntf2     s 4455   4.414   1.233   0.848
  355ntf2     o 4456   0.043   1.245   0.834
  355ntf2     o 4457   4.364   1.185   0.974
  355ntf2     c 4458   4.375   1.093   0.738
  355ntf2     f 4459   4.414   1.116   0.614
  355ntf2     f 4460   4.245   1.069   0.736
  355ntf2     f 4461   4.435   0.982   0.779
  356ntf2     c 4462   0.334   4.448   3.302
  356ntf2     f 4463   0.379   4.448   3.178
  356ntf2     f 4464   0.439   4.453   3.382
  356ntf2     s 4465   0.231   4.302   3.335
  356ntf2     o 4466   0.208   4.313   3.477
  356ntf2     f 4467   0.266   0.046   3.320
  356ntf2     o 4468   0.118   4.321   3.248
  356ntf2     n 4469   0.339   4.194   3.296
  356ntf2     s 4470   0.367   4.120   3.161
  356ntf2     o 4471   0.316   4.177   3.039
  356ntf2     o 4472   0.494   4.052   3.156
  356ntf2     c 4473   0.254   3.981   3.191
  356ntf2     f 4474   0.288   3.913   3.299
  356ntf2     f 4475   0.251   3.897   3.089
  356ntf2     f 4476   0.130   4.024   3.210
  357ntf2     c 4477   2.065   2.355   2.275
  357ntf2     f 4478   1.937   2.354   2.308
  357ntf2     f 4479   2.084   2.256   2.188
  357ntf2     s 4480   2.172   2.336   2.420
  357ntf2     o 4481   2.303   2.343   2.361
  357ntf2     f 4482   2.089   2.468   2.210
  357ntf2     o 4483   2.128   2.445   2.504
  357ntf2     n 4484   2.118   2.194   2.460
  357ntf2     s 4485   2.179   2.074   2.542
  357ntf2     o 4486   2.299   2.098   2.618
  357ntf2     o 4487   2.080   1.985   2.598
  357ntf2     c 4488   2.238   1.978   2.399
  357ntf2     f 4489   2.329   2.045   2.330
  357ntf2     f 4490   2.139   1.948   2.317
  357ntf2     f 4491   2.293   1.864   2.437
  358ntf2     c 4492   2.922   4.088   1.128
  358ntf2     f 4493   2.921   3.971   1.191
  358ntf2     f 4494   2.867   4.177   1.209
  358ntf2     s 4495   2.836   4.079   0.968
  358ntf2     o 4496   2.709   4.024   1.007
  358ntf2     f 4497   3.049   4.122   1.113
  358ntf2     o 4498   2.838   4.216   0.923
  358ntf2     n 4499   2.934   3.975   0.903
  358ntf2     s 4500   3.064   3.992   0.816
  358ntf2     o 4501   3.138   4.115   0.823
  358ntf2     o 4502   3.140   3.870   0.803
  358ntf2     c 4503   2.981   4.000   0.654
  358ntf2     f 4504   2.898   4.102   0.647
  358ntf2     f 4505   2.911   3.890   0.631
  358ntf2     f 4506   3.068   4.013   0.555
  359ntf2     c 4507   0.292   2.196   3.845
  359ntf2     f 4508   0.363   2.112   3.918
  359ntf2     f 4509   0.282   2.145   3.723
  359ntf2     s 4510   0.365   2.363   3.842
  359ntf2     o 4511   0.345   2.405   3.978
  359ntf2     f 4512   0.170   2.199   3.896
  359ntf2     o 4513   0.500   2.339   3.796
  359ntf2     n 4514   0.261   2.424   3.742
  359ntf2     s 4515   0.259   2.442   3.585
  359ntf2     o 4516   0.350   2.364   3.505
  359ntf2     o 4517   0.128   2.468   3.532
  359ntf2     c 4518   0.333   2.608   3.583
  359ntf2     f 4519   0.262   2.693   3.656
  359ntf2     f 4520   0.340   2.657   3.461
  359ntf2     f 4521   0.456   2.607   3.633
  360ntf2     c 4522   2.111   2.544   1.373
  360ntf2     f 4523   2.171   2.531   1.256
  360ntf2     f 4524   2.196   2.603   1.454
  360ntf2     s 4525   2.057   2.383   1.438
  360ntf2     o 4526   2.002   2.418   1.566
  360ntf2     f 4527   2.008   2.626   1.355
  360ntf2     o 4528   1.966   2.334   1.338
  360ntf2     n 4529   2.200   2.318   1.448
  360ntf2     s 4530   2.284   2.227   1.351
  360ntf2     o 4531   2.244   2.216   1.213
  360ntf2     o 4532   2.425   2.223   1.380
  360ntf2     c 4533   2.228   2.069   1.421
  360ntf2     f 4534   2.260   2.059   1.549
  360ntf2     f 4535   2.282   1.966   1.358
  360ntf2     f 4536   2.096   2.057   1.412
  361ntf2     c 4537   3.871   0.729   1.175
  361ntf2     f 4538   3.973   0.675   1.238
  361ntf2     f 4539   3.833   0.836   1.245
  361ntf2     s 4540   3.734   0.611   1.155
  361ntf2     o 4541   3.700   0.581   1.292
  361ntf2     f 4542   3.915   0.772   1.058
  361ntf2     o 4543   3.639   0.686   1.077
  361ntf2     n 4544   3.818   0.498   1.084
  361ntf2     s 4545   3.843   0.467   0.932
  361ntf2     o 4546   3.848   0.578   0.840
  361ntf2     o 4547   3.933   0.357   0.909
  361ntf2     c 4548   3.682   0.388   0.901
  361ntf2     f 4549   3.658   0.292   0.989
  361ntf2     f 4550   3.678   0.333   0.781
  361ntf2     f 4551   3.582   0.474   0.909
  362ntf2     c 4552   3.514   2.963   0.018
  362ntf2     f 4553   3.606   2.907   0.095
  362ntf2     f 4554   3.456   3.059   0.089
  362ntf2     s 4555   3.394   2.841   4.471
  362ntf2     o 4556   3.338   2.791   0.080
  362ntf2     f 4557   3.578   3.022   4.433
  362ntf2     o 4558   3.309   2.919   4.386
  362ntf2     n 4559   3.501   2.746   4.405
  362ntf2     s 4560   3.570   2.744   4.264
  362ntf2     o 4561   3.551   2.856   4.176
  362ntf2     o 4562   3.699   2.680   4.265
  362ntf2     c 4563   3.464   2.616   4.190
  362ntf2     f 4564   3.497   2.593   4.064
  362ntf2     f 4565   3.337   2.651   4.191
  362ntf2     f 4566   3.474   2.501   4.255
  363ntf2     c 4567   1.964   1.633   0.528
  363ntf2     f 4568   1.842   1.682   0.539
  363ntf2     f 4569   2.006   1.659   0.405
  363ntf2     s 4570   1.968   1.454   0.562
  363ntf2     o 4571   2.105   1.422   0.532
  363ntf2     f 4572   2.042   1.700   0.611
  363ntf2     o 4573   1.924   1.443   0.699
  363ntf2     n 4574   1.868   1.412   0.448
  363ntf2     s 4575   1.712   1.395   0.447
  363ntf2     o 4576   1.634   1.469   0.543
  363ntf2     o 4577   1.657   1.376   0.315
  363ntf2     c 4578   1.710   1.225   0.513
  363ntf2     f 4579   1.587   1.179   0.529
  363ntf2     f 4580   1.770   1.218   0.631
  363ntf2     f 4581   1.774   1.142   0.433
  364ntf2     c 4582   4.460   1.994   1.786
  364ntf2     f 4583   0.067   2.010   1.834
  364ntf2     f 4584   4.391   1.925   1.875
  364ntf2     s 4585   4.461   1.908   1.625
  364ntf2     o 4586   4.322   1.914   1.589
  364ntf2     f 4587   4.403   2.113   1.777
  364ntf2     o 4588   0.040   1.986   1.547
  364ntf2     n 4589   4.505   1.768   1.680
  364ntf2     s 4590   0.126   1.689   1.680
  364ntf2     o 4591   0.250   1.762   1.666
  364ntf2     o 4592   0.127   1.574   1.767
  364ntf2     c 4593   0.103   1.612   1.517
  364ntf2     f 4594   4.504   1.543   1.513
  364ntf2     f 4595   0.201   1.529   1.487
  364ntf2     f 4596   0.096   1.703   1.421
  365ntf2     c 4597   1.972   3.249   0.814
  365ntf2     f 4598   2.090   3.192   0.824
  365ntf2     f 4599   1.961   3.335   0.914
  365ntf2     s 4600   1.837   3.127   0.817
  365ntf2     o 4601   1.720   3.212   0.812
  365ntf2     f 4602   1.971   3.319   0.701
  365ntf2     o 4603   1.864   3.044   0.703
  365ntf2     n 4604   1.869   3.070   0.960
  365ntf2     s 4605   1.973   2.965   1.011
  365ntf2     o 4606   2.082   2.929   0.924
  365ntf2     o 4607   2.002   2.974   1.152
  365ntf2     c 4608   1.864   2.819   1.003
  365ntf2     f 4609   1.754   2.836   1.074
  365ntf2     f 4610   1.925   2.710   1.049
  365ntf2     f 4611   1.827   2.794   0.879
  366ntf2     c 4612   0.656   1.270   2.553
  366ntf2     f 4613   0.760   1.200   2.513
  366ntf2     f 4614   0.548   1.206   2.511
  366ntf2     s 4615   0.661   1.440   2.489
  366ntf2     o 4616   0.535   1.493   2.534
  366ntf2     f 4617   0.654   1.267   2.685
  366ntf2     o 4618   0.781   1.495   2.547
  366ntf2     n 4619   0.661   1.402   2.337
  366ntf2     s 4620   0.776   1.371   2.234
  366ntf2     o 4621   0.909   1.348   2.282
  366ntf2     o 4622   0.732   1.294   2.120
  366ntf2     c 4623   0.786   1.538   2.164
  366ntf2     f 4624   0.673   1.573   2.105
  366ntf2     f 4625   0.882   1.547   2.073
  366ntf2     f 4626   0.811   1.629   2.257
  367ntf2     c 4627   1.625   4.480   3.604
  367ntf2     f 4628   1.643   0.087   3.654
  367ntf2     f 4629   1.663   4.393   3.695
  367ntf2     s 4630   1.715   4.459   3.448
  367ntf2     o 4631   1.850   4.491   3.488
  367ntf2     f 4632   1.494   4.465   3.587
  367ntf2     o 4633   1.686   4.322   3.414
  367ntf2     n 4634   1.642   0.060   3.371
  367ntf2     s 4635   1.524   0.066   3.268
  367ntf2     o 4636   1.448   4.461   3.240
  367ntf2     o 4637   1.452   0.191   3.268
  367ntf2     c 4638   1.626   0.084   3.119
  367ntf2     f 4639   1.553   0.090   3.009
  367ntf2     f 4640   1.709   4.496   3.105
  367ntf2     f 4641   1.700   0.193   3.123
  368ntf2     c 4642   2.424   1.006   1.299
  368ntf2     f 4643   2.310   0.962   1.248
  368ntf2     f 4644   2.512   1.012   1.200
  368ntf2     s 4645   2.482   0.900   1.434
  368ntf2     o 4646   2.493   0.772   1.369
  368ntf2     f 4647   2.403   1.130   1.341
  368ntf2     o 4648   2.604   0.965   1.477
  368ntf2     n 4649   2.354   0.913   1.524
  368ntf2     s 4650   2.315   1.014   1.638
  368ntf2     o 4651   2.381   1.142   1.642
  368ntf2     o 4652   2.175   1.009   1.673
  368ntf2     c 4653   2.391   0.920   1.774
  368ntf2     f 4654   2.377   0.982   1.890
  368ntf2     f 4655   2.521   0.902   1.754
  368ntf2     f 4656   2.336   0.801   1.785
  369ntf2     c 4657   0.486   1.654   0.050
  369ntf2     f 4658   0.596   1.597   0.096
  369ntf2     f 4659   0.416   1.696   0.154
  369ntf2     s 4660   0.390   1.539   4.462
  369ntf2     o 4661   0.272   1.617   4.434
  369ntf2     f 4662   0.523   1.761   4.496
  369ntf2     o 4663   0.482   1.513   4.354
  369ntf2     n 4664   0.380   1.425   0.055
  369ntf2     s 4665   0.265   1.331   0.106
  369ntf2     o 4666   0.220   1.354   0.241
  369ntf2     o 4667   0.169   1.284   0.009
  369ntf2     c 4668   0.368   1.183   0.127
  369ntf2     f 4669   0.297   1.080   0.170
  369ntf2     f 4670   0.466   1.203   0.213
  369ntf2     f 4671   0.424   1.147   0.013
  370ntf2     c 4672   1.380   3.136   1.721
  370ntf2     f 4673   1.484   3.097   1.793
  370ntf2     f 4674   1.272   3.116   1.793
  370ntf2     s 4675   1.372   3.046   1.563
  370ntf2     o 4676   1.368   2.910   1.609
  370ntf2     f 4677   1.393   3.267   1.702
  370ntf2     o 4678   1.253   3.101   1.503
  370ntf2     n 4679   1.513   3.091   1.509
  370ntf2     s 4680   1.558   3.184   1.391
  370ntf2     o 4681   1.701   3.194   1.376
  370ntf2     o 4682   1.478   3.186   1.271
  370ntf2     c 4683   1.519   3.343   1.471
  370ntf2     f 4684   1.576   3.352   1.590
  370ntf2     f 4685   1.389   3.359   1.488
  370ntf2     f 4686   1.562   3.445   1.399
  371ntf2     c 4687   3.883   2.436   2.752
  371ntf2     f 4688   3.879   2.543   2.675
  371ntf2     f 4689   3.888   2.330   2.672
  371ntf2     s 4690   3.740   2.427   2.864
  371ntf2     o 4691   3.630   2.477   2.787
  371ntf2     f 4692   3.997   2.438   2.820
  371ntf2     o 4693   3.738   2.287   2.899
  371ntf2     n 4694   3.795   2.519   2.979
  371ntf2     s 4695   3.843   2.669   2.980
  371ntf2     o 4696   3.904   2.723   2.861
  371ntf2     o 4697   3.765   2.758   3.062
  371ntf2     c 4698   3.989   2.641   3.085
  371ntf2     f 4699   4.069   2.550   3.033
  371ntf2     f 4700   3.953   2.598   3.205
  371ntf2     f 4701   4.059   2.752   3.101
  372ntf2     c 4702   3.146   3.113   2.911
  372ntf2     f 4703   3.196   3.026   2.824
  372ntf2     f 4704   3.247   3.185   2.958
  372ntf2     s 4705   3.055   3.030   3.044
  372ntf2     o 4706   3.153   2.939   3.098
  372ntf2     f 4707   3.067   3.195   2.844
  372ntf2     o 4708   3.016   3.143   3.125
  372ntf2     n 4709   2.947   2.962   2.952
  372ntf2     s 4710   2.791   2.975   2.938
  372ntf2     o 4711   2.716   3.017   3.054
  372ntf2     o 4712   2.745   3.015   2.808
  372ntf2     c 4713   2.756   2.797   2.937
  372ntf2     f 4714   2.810   2.737   2.832
  372ntf2     f 4715   2.626   2.772   2.936
  372ntf2     f 4716   2.806   2.738   3.045
  373ntf2     c 4717   0.833   4.459   1.495
  373ntf2     f 4718   0.833   4.398   1.377
  373ntf2     f 4719   0.869   4.370   1.586
  373ntf2     s 4720   0.671   0.018   1.532
  373ntf2     o 4721   0.585   4.417   1.524
  373ntf2     f 4722   0.928   0.037   1.490
  373ntf2     o 4723   0.696   0.075   1.663
  373ntf2     n 4724   0.671   0.121   1.414
  373ntf2     s 4725   0.581   0.144   1.287
  373ntf2     o 4726   0.654   0.161   1.164
  373ntf2     o 4727   0.452   0.080   1.282
  373ntf2     c 4728   0.536   0.316   1.324
  373ntf2     f 4729   0.478   0.327   1.443
  373ntf2     f 4730   0.451   0.363   1.234
  373ntf2     f 4731   0.642   0.396   1.324
  374ntf2     c 4732   3.272   3.383   2.065
  374ntf2     f 4733   3.171   3.326   2.002
  374ntf2     f 4734   3.254   3.514   2.057
  374ntf2     s 4735   3.432   3.332   1.996
  374ntf2     o 4736   3.417   3.370   1.858
  374ntf2     f 4737   3.262   3.351   2.193
  374ntf2     o 4738   3.527   3.404   2.076
  374ntf2     n 4739   3.413   3.178   2.021
  374ntf2     s 4740   3.445   3.085   2.144
  374ntf2     o 4741   3.481   3.146   2.270
  374ntf2     o 4742   3.368   2.964   2.148
  374ntf2     c 4743   3.606   3.025   2.084
  374ntf2     f 4744   3.688   3.125   2.056
  374ntf2     f 4745   3.592   2.954   1.973
  374ntf2     f 4746   3.666   2.948   2.174
  375ntf2     c 4747   1.999   4.287   2.786
  375ntf2     f 4748   1.874   4.273   2.827
  375ntf2     f 4749   1.999   4.274   2.654
  375ntf2     s 4750   2.109   4.166   2.866
  375ntf2     o 4751   2.054   4.040   2.822
  375ntf2     f 4752   2.035   4.411   2.814
  375ntf2     o 4753   2.240   4.201   2.817
  375ntf2     n 4754   2.072   4.201   3.015
  375ntf2     s 4755   2.129   4.307   3.115
  375ntf2     o 4756   2.202   4.420   3.064
  375ntf2     o 4757   2.046   4.331   3.231
  375ntf2     c 4758   2.260   4.202   3.186
  375ntf2     f 4759   2.344   4.161   3.092
  375ntf2     f 4760   2.208   4.093   3.242
  375ntf2     f 4761   2.329   4.266   3.278
  376ntf2     c 4762   1.630   4.215   1.066
  376ntf2     f 4763   1.736   4.269   1.008
  376ntf2     f 4764   1.602   4.287   1.173
  376ntf2     s 4765   1.659   4.041   1.110
  376ntf2     o 4766   1.662   3.980   0.979
  376ntf2     f 4767   1.528   4.228   0.982
  376ntf2     o 4768   1.782   4.051   1.184
  376ntf2     n 4769   1.529   4.024   1.196
  376ntf2     s 4770   1.441   3.900   1.237
  376ntf2     o 4771   1.300   3.918   1.215
  376ntf2     o 4772   1.496   3.768   1.220
  376ntf2     c 4773   1.455   3.926   1.417
  376ntf2     f 4774   1.581   3.921   1.456
  376ntf2     f 4775   1.388   3.834   1.485
  376ntf2     f 4776   1.407   4.044   1.452
  377ntf2     c 4777   0.663   4.290   2.346
  377ntf2     f 4778   0.575   4.302   2.248
  377ntf2     f 4779   0.635   4.178   2.410
  377ntf2     s 4780   0.660   4.433   2.459
  377ntf2     o 4781   0.767   4.401   2.549
  377ntf2     f 4782   0.782   4.274   2.290
  377ntf2     o 4783   0.678   0.031   2.370
  377ntf2     n 4784   0.516   4.407   2.517
  377ntf2     s 4785   0.375   4.469   2.489
  377ntf2     o 4786   0.328   0.050   2.586
  377ntf2     o 4787   0.335   4.486   2.351
  377ntf2     c 4788   0.280   4.321   2.533
  377ntf2     f 4789   0.315   4.217   2.459
  377ntf2     f 4790   0.150   4.339   2.516
  377ntf2     f 4791   0.299   4.286   2.659
  378ntf2     c 4792   2.597   0.357   3.024
  378ntf2     f 4793   2.711   0.318   2.969
  378ntf2     f 4794   2.559   0.466   2.959
  378ntf2     s 4795   2.617   0.388   3.202
  378ntf2     o 4796   2.713   0.496   3.204
  378ntf2     f 4797   2.508   0.263   3.000
  378ntf2     o 4798   2.483   0.418   3.247
  378ntf2     n 4799   2.680   0.249   3.239
  378ntf2     s 4800   2.614   0.109   3.263
  378ntf2     o 4801   2.483   0.084   3.208
  378ntf2     o 4802   2.708   4.514   3.264
  378ntf2     c 4803   2.582   0.131   3.441
  378ntf2     f 4804   2.692   0.167   3.505
  378ntf2     f 4805   2.537   0.020   3.497
  378ntf2     f 4806   2.492   0.226   3.461
  379ntf2     c 4807   2.106   3.809   0.873
  379ntf2     f 4808   2.082   3.696   0.938
  379ntf2     f 4809   2.076   3.789   0.746
  379ntf2     s 4810   2.280   3.860   0.892
  379ntf2     o 4811   2.283   3.982   0.816
  379ntf2     f 4812   2.023   3.900   0.920
  379ntf2     o 4813   2.295   3.868   1.036
  379ntf2     n 4814   2.342   3.737   0.818
  379ntf2     s 4815   2.396   3.597   0.866
  379ntf2     o 4816   2.534   3.591   0.907
  379ntf2     o 4817   2.301   3.508   0.929
  379ntf2     c 4818   2.405   3.526   0.699
  379ntf2     f 4819   2.463   3.407   0.699
  379ntf2     f 4820   2.473   3.604   0.617
  379ntf2     f 4821   2.284   3.510   0.647
  380ntf2     c 4822   1.356   0.541   2.637
  380ntf2     f 4823   1.254   0.519   2.720
  380ntf2     f 4824   1.358   0.671   2.611
  380ntf2     s 4825   1.338   0.442   2.485
  380ntf2     o 4826   1.455   0.483   2.410
  380ntf2     f 4827   1.467   0.511   2.702
  380ntf2     o 4828   1.335   0.307   2.536
  380ntf2     n 4829   1.204   0.508   2.437
  380ntf2     s 4830   1.053   0.479   2.466
  380ntf2     o 4831   1.020   0.389   2.574
  380ntf2     o 4832   0.966   0.593   2.446
  380ntf2     c 4833   1.021   0.380   2.318
  380ntf2     f 4834   1.057   0.443   2.208
  380ntf2     f 4835   0.892   0.350   2.306
  380ntf2     f 4836   1.088   0.266   2.322
  381ntf2     c 4837   0.735   1.570   1.352
  381ntf2     f 4838   0.861   1.592   1.386
  381ntf2     f 4839   0.717   1.439   1.356
  381ntf2     s 4840   0.698   1.636   1.187
  381ntf2     o 4841   0.710   1.778   1.209
  381ntf2     f 4842   0.658   1.623   1.445
  381ntf2     o 4843   0.799   1.572   1.107
  381ntf2     n 4844   0.551   1.582   1.181
  381ntf2     s 4845   0.475   1.477   1.091
  381ntf2     o 4846   0.537   1.434   0.968
  381ntf2     o 4847   0.397   1.381   1.163
  381ntf2     c 4848   0.346   1.590   1.029
  381ntf2     f 4849   0.392   1.713   1.012
  381ntf2     f 4850   0.244   1.597   1.112
  381ntf2     f 4851   0.299   1.550   0.912
  382ntf2     c 4852   2.207   3.137   2.929
  382ntf2     f 4853   2.222   3.117   2.799
  382ntf2     f 4854   2.328   3.137   2.983
  382ntf2     s 4855   2.102   3.009   3.004
  382ntf2     o 4856   2.103   3.047   3.143
  382ntf2     f 4857   2.155   3.258   2.945
  382ntf2     o 4858   1.978   3.022   2.932
  382ntf2     n 4859   2.196   2.888   2.970
  382ntf2     s 4860   2.207   2.795   2.844
  382ntf2     o 4861   2.147   2.838   2.720
  382ntf2     o 4862   2.332   2.722   2.837
  382ntf2     c 4863   2.094   2.666   2.903
  382ntf2     f 4864   2.085   2.565   2.818
  382ntf2     f 4865   1.971   2.714   2.921
  382ntf2     f 4866   2.134   2.617   3.019
  383ntf2     c 4867   0.832   0.112   2.914
  383ntf2     f 4868   0.751   0.186   2.840
  383ntf2     f 4869   0.904   0.039   2.831
  383ntf2     s 4870   0.741   0.009   3.033
  383ntf2     o 4871   0.676   0.109   3.114
  383ntf2     f 4872   0.916   0.194   2.975
  383ntf2     o 4873   0.659   4.440   2.949
  383ntf2     n 4874   0.867   4.461   3.102
  383ntf2     s 4875   0.961   4.341   3.062
  383ntf2     o 4876   0.967   4.299   2.924
  383ntf2     o 4877   1.085   4.340   3.136
  383ntf2     c 4878   0.868   4.208   3.143
  383ntf2     f 4879   0.932   4.093   3.135
  383ntf2     f 4880   0.750   4.191   3.086
  383ntf2     f 4881   0.847   4.234   3.271
  384ntf2     c 4882   1.319   0.276   1.422
  384ntf2     f 4883   1.225   0.183   1.432
  384ntf2     f 4884   1.375   0.263   1.302
  384ntf2     s 4885   1.442   0.261   1.555
  384ntf2     o 4886   1.364   0.304   1.668
  384ntf2     f 4887   1.259   0.393   1.424
  384ntf2     o 4888   1.479   0.122   1.544
  384ntf2     n 4889   1.544   0.366   1.495
  384ntf2     s 4890   1.677   0.429   1.549
  384ntf2     o 4891   1.741   0.369   1.664
  384ntf2     o 4892   1.761   0.484   1.446
  384ntf2     c 4893   1.601   0.578   1.620
  384ntf2     f 4894   1.522   0.638   1.532
  384ntf2     f 4895   1.692   0.666   1.660
  384ntf2     f 4896   1.527   0.549   1.726
  385ntf2     c 4897   3.939   1.566   3.140
  385ntf2     f 4898   4.011   1.556   3.250
  385ntf2     f 4899   3.938   1.448   3.081
  385ntf2     s 4900   4.003   1.697   3.030
  385ntf2     o 4901   3.983   1.815   3.111
  385ntf2     f 4902   3.815   1.591   3.177
  385ntf2     o 4903   4.139   1.653   3.008
  385ntf2     n 4904   3.906   1.668   2.910
  385ntf2     s 4905   3.791   1.746   2.837
  385ntf2     o 4906   3.746   1.872   2.891
  385ntf2     o 4907   3.790   1.730   2.693
  385ntf2     c 4908   3.657   1.634   2.887
  385ntf2     f 4909   3.541   1.670   2.834
  385ntf2     f 4910   3.643   1.631   3.018
  385ntf2     f 4911   3.682   1.509   2.848
  386ntf2     c 4912   0.040   4.360   4.112
  386ntf2     f 4913   0.081   4.248   4.053
  386ntf2     f 4914   0.018   4.449   4.016
  386ntf2     s 4915   0.163   4.420   4.231
  386ntf2     o 4916   0.099   0.026   4.281
  386ntf2     f 4917   4.438   4.333   4.170
  386ntf2     o 4918   0.176   4.310   4.324
  386ntf2     n 4919   0.277   4.445   4.126
  386ntf2     s 4920   0.382   4.349   4.061
  386ntf2     o 4921   0.367   4.207   4.081
  386ntf2     o 4922   0.430   4.394   3.932
  386ntf2     c 4923   0.520   4.391   4.171
  386ntf2     f 4924   0.491   4.365   4.297
  386ntf2     f 4925   0.550   0.006   4.164
  386ntf2     f 4926   0.629   4.323   4.140
  387ntf2     c 4927   3.019   0.005   4.113
  387ntf2     f 4928   2.892   0.001   4.076
  387ntf2     f 4929   3.035   0.116   4.184
  387ntf2     s 4930   3.128   0.001   3.968
  387ntf2     o 4931   3.090   0.123   3.901
  387ntf2     f 4932   3.040   4.416   4.193
  387ntf2     o 4933   3.261   4.511   4.025
  387ntf2     n 4934   3.066   4.385   3.906
  387ntf2     s 4935   3.099   4.232   3.918
  387ntf2     o 4936   3.196   4.189   4.015
  387ntf2     o 4937   2.982   4.149   3.898
  387ntf2     c 4938   3.186   4.215   3.760
  387ntf2     f 4939   3.112   4.257   3.659
  387ntf2     f 4940   3.219   4.089   3.735
  387ntf2     f 4941   3.298   4.286   3.759
  388ntf2     c 4942   3.650   1.581   3.818
  388ntf2     f 4943   3.688   1.583   3.691
  388ntf2     f 4944   3.751   1.628   3.889
  388ntf2     s 4945   3.604   1.414   3.872
  388ntf2     o 4946   3.489   1.386   3.790
  388ntf2     f 4947   3.550   1.667   3.831
  388ntf2     o 4948   3.724   1.338   3.846
  388ntf2     n 4949   3.568   1.451   4.020
  388ntf2     s 4950   3.645   1.433   4.156
  388ntf2     o 4951   3.789   1.436   4.155
  388ntf2     o 4952   3.580   1.492   4.270
  388ntf2     c 4953   3.605   1.257   4.176
  388ntf2     f 4954   3.659   1.208   4.287
  388ntf2     f 4955   3.651   1.185   4.075
  388ntf2     f 4956   3.475   1.237   4.182
  389ntf2     c 4957   2.415   2.596   0.112
  389ntf2     f 4958   2.349   2.643   0.217
  389ntf2     f 4959   2.520   2.531   0.159
  389ntf2     s 4960   2.461   2.728   4.511
  389ntf2     o 4961   2.334   2.793   4.487
  389ntf2     f 4962   2.337   2.506   0.054
  389ntf2     o 4963   2.560   2.804   0.070
  389ntf2     n 4964   2.508   2.637   4.392
  389ntf2     s 4965   2.641   2.558   4.367
  389ntf2     o 4966   2.718   2.515   4.481
  389ntf2     o 4967   2.634   2.470   4.253
  389ntf2     c 4968   2.737   2.697   4.300
  389ntf2     f 4969   2.858   2.658   4.263
  389ntf2     f 4970   2.752   2.794   4.388
  389ntf2     f 4971   2.678   2.749   4.193
  390ntf2     c 4972   2.391   3.449   3.464
  390ntf2     f 4973   2.391   3.336   3.533
  390ntf2     f 4974   2.265   3.484   3.447
  390ntf2     s 4975   2.477   3.427   3.305
  390ntf2     o 4976   2.398   3.323   3.243
  390ntf2     f 4977   2.449   3.541   3.539
  390ntf2     o 4978   2.473   3.558   3.245
  390ntf2     n 4979   2.613   3.375   3.362
  390ntf2     s 4980   2.735   3.450   3.426
  390ntf2     o 4981   2.712   3.576   3.493
  390ntf2     o 4982   2.832   3.361   3.486
  390ntf2     c 4983   2.818   3.496   3.271
  390ntf2     f 4984   2.746   3.579   3.199
  390ntf2     f 4985   2.841   3.390   3.195
  390ntf2     f 4986   2.935   3.554   3.293
  391ntf2     c 4987   4.290   0.174   3.164
  391ntf2     f 4988   4.408   0.115   3.173
  391ntf2     f 4989   4.274   0.211   3.038
  391ntf2     s 4990   4.276   0.315   3.277
  391ntf2     o 4991   4.387   0.398   3.239
  391ntf2     f 4992   4.198   0.082   3.190
  391ntf2     o 4993   4.143   0.363   3.248
  391ntf2     n 4994   4.286   0.233   3.411
  391ntf2     s 4995   4.406   0.174   3.492
  391ntf2     o 4996   4.432   0.033   3.474
  391ntf2     o 4997   0.003   0.261   3.522
  391ntf2     c 4998   4.322   0.171   3.653
  391ntf2     f 4999   4.287   0.293   3.691
  391ntf2     f 5000   4.398   0.120   3.748
  391ntf2     f 5001   4.211   0.099   3.648
  392ntf2     c 5002   2.732   0.097   2.253
  392ntf2     f 5003   2.774   0.220   2.230
  392ntf2     f 5004   2.625   0.076   2.178
  392ntf2     s 5005   2.698   0.070   2.430
  392ntf2     o 5006   2.599   0.171   2.458
  392ntf2     f 5007   2.826   0.015   2.210
  392ntf2     o 5008   2.655   4.446   2.428
  392ntf2     n 5009   2.842   0.103   2.481
  392ntf2     s 5010   2.947   0.032   2.573
  392ntf2     o 5011   2.916   4.417   2.629
  392ntf2     o 5012   3.085   0.060   2.541
  392ntf2     c 5013   2.921   0.140   2.716
  392ntf2     f 5014   2.999   0.108   2.818
  392ntf2     f 5015   2.796   0.133   2.759
  392ntf2     f 5016   2.945   0.267   2.686
  393ntf2     c 5017   3.015   1.858   0.974
  393ntf2     f 5018   3.069   1.777   0.885
  393ntf2     f 5019   2.994   1.974   0.913
  393ntf2     s 5020   3.122   1.877   1.120
  393ntf2     o 5021   3.242   1.929   1.061
  393ntf2     f 5022   2.898   1.808   1.006
  393ntf2     o 5023   3.044   1.963   1.206
  393ntf2     n 5024   3.129   1.724   1.155
  393ntf2     s 5025   3.043   1.632   1.250
  393ntf2     o 5026   2.916   1.681   1.297
  393ntf2     o 5027   3.056   1.491   1.222
  393ntf2     c 5028   3.149   1.649   1.396
  393ntf2     f 5029   3.269   1.597   1.376
  393ntf2     f 5030   3.097   1.588   1.501
  393ntf2     f 5031   3.167   1.776   1.429
  394ntf2     c 5032   2.943   2.429   2.721
  394ntf2     f 5033   2.874   2.510   2.799
  394ntf2     f 5034   3.045   2.383   2.792
  394ntf2     s 5035   3.001   2.511   2.570
  394ntf2     o 5036   2.876   2.546   2.506
  394ntf2     f 5037   2.866   2.325   2.694
  394ntf2     o 5038   3.082   2.620   2.619
  394ntf2     n 5039   3.072   2.386   2.508
  394ntf2     s 5040   3.221   2.337   2.512
  394ntf2     o 5041   3.304   2.377   2.623
  394ntf2     o 5042   3.242   2.205   2.458
  394ntf2     c 5043   3.279   2.443   2.376
  394ntf2     f 5044   3.255   2.571   2.402
  394ntf2     f 5045   3.218   2.415   2.262
  394ntf2     f 5046   3.409   2.431   2.356
  395ntf2     c 5047   1.218   4.112   2.649
  395ntf2     f 5048   1.242   4.033   2.752
  395ntf2     f 5049   1.181   4.035   2.548
  395ntf2     s 5050   1.365   4.211   2.607
  395ntf2     o 5051   1.314   4.295   2.501
  395ntf2     f 5052   1.115   4.188   2.680
  395ntf2     o 5053   1.399   4.276   2.731
  395ntf2     n 5054   1.453   4.092   2.555
  395ntf2     s 5055   1.539   3.984   2.631
  395ntf2     o 5056   1.527   3.974   2.774
  395ntf2     o 5057   1.558   3.862   2.556
  395ntf2     c 5058   1.699   4.068   2.609
  395ntf2     f 5059   1.729   4.081   2.481
  395ntf2     f 5060   1.798   4.001   2.666
  395ntf2     f 5061   1.698   4.190   2.661
  396ntf2     c 5062   0.073   1.897   3.774
  396ntf2     f 5063   0.065   1.892   3.642
  396ntf2     f 5064   0.197   1.866   3.807
  396ntf2     s 5065   4.467   1.785   3.852
  396ntf2     o 5066   4.499   1.802   3.992
  396ntf2     f 5067   0.053   2.023   3.810
  396ntf2     o 5068   4.340   1.836   3.806
  396ntf2     n 5069   0.009   1.653   3.789
  396ntf2     s 5070   4.482   1.567   3.665
  396ntf2     o 5071   4.401   1.626   3.561
  396ntf2     o 5072   0.071   1.475   3.623
  396ntf2     c 5073   4.368   1.457   3.753
  396ntf2     f 5074   4.432   1.385   3.844
  396ntf2     f 5075   4.307   1.372   3.672
  396ntf2     f 5076   4.274   1.526   3.816
  397ntf2     c 5077   1.109   3.358   0.595
  397ntf2     f 5078   1.132   3.457   0.510
  397ntf2     f 5079   1.083   3.411   0.713
  397ntf2     s 5080   1.250   3.243   0.604
  397ntf2     o 5081   1.253   3.191   0.470
  397ntf2     f 5082   1.000   3.295   0.555
  397ntf2     o 5083   1.357   3.331   0.647
  397ntf2     n 5084   1.188   3.152   0.716
  397ntf2     s 5085   1.212   3.002   0.756
  397ntf2     o 5086   1.330   2.936   0.705
  397ntf2     o 5087   1.169   2.969   0.890
  397ntf2     c 5088   1.078   2.933   0.655
  397ntf2     f 5089   1.096   2.957   0.527
  397ntf2     f 5090   0.961   2.985   0.689
  397ntf2     f 5091   1.068   2.802   0.671
  398ntf2     c 5092   1.232   0.426   4.140
  398ntf2     f 5093   1.204   0.479   4.021
  398ntf2     f 5094   1.195   0.514   4.231
  398ntf2     s 5095   1.408   0.384   4.155
  398ntf2     o 5096   1.424   0.287   4.049
  398ntf2     f 5097   1.156   0.319   4.155
  398ntf2     o 5098   1.475   0.510   4.140
  398ntf2     n 5099   1.400   0.318   4.297
  398ntf2     s 5100   1.400   0.380   4.442
  398ntf2     o 5101   1.373   0.521   4.459
  398ntf2     o 5102   1.349   0.290   0.027
  398ntf2     c 5103   1.579   0.367   4.470
  398ntf2     f 5104   1.620   0.241   4.465
  398ntf2     f 5105   1.614   0.415   0.074
  398ntf2     f 5106   1.648   0.434   4.378
  399ntf2     c 5107   2.182   2.110   0.545
  399ntf2     f 5108   2.150   2.165   0.662
  399ntf2     f 5109   2.170   1.979   0.559
  399ntf2     s 5110   2.351   2.156   0.495
  399ntf2     o 5111   2.365   2.082   0.371
  399ntf2     f 5112   2.092   2.149   0.457
  399ntf2     o 5113   2.346   2.299   0.485
  399ntf2     n 5114   2.424   2.088   0.616
  399ntf2     s 5115   2.468   2.138   0.758
  399ntf2     o 5116   2.433   2.272   0.799
  399ntf2     o 5117   2.472   2.035   0.858
  399ntf2     c 5118   2.645   2.156   0.719
  399ntf2     f 5119   2.714   2.204   0.820
  399ntf2     f 5120   2.664   2.237   0.616
  399ntf2     f 5121   2.698   2.039   0.687
  400ntf2     c 5122   2.331   0.464   4.017
  400ntf2     f 5123   2.415   0.502   3.923
  400ntf2     f 5124   2.400   0.456   4.130
  400ntf2     s 5125   2.252   0.305   3.976
  400ntf2     o 5126   2.165   0.285   4.089
  400ntf2     f 5127   2.242   0.560   4.032
  400ntf2     o 5128   2.190   0.333   3.849
  400ntf2     n 5129   2.383   0.218   3.980
  400ntf2     s 5130   2.481   0.169   3.867
  400ntf2     o 5131   2.484   0.241   3.742
  400ntf2     o 5132   2.605   0.115   3.916
  400ntf2     c 5133   2.388   0.019   3.825
  400ntf2     f 5134   2.437   4.474   3.717
  400ntf2     f 5135   2.261   0.046   3.799
  400ntf2     f 5136   2.390   4.445   3.923
  401ntf2     c 5137   3.017   3.205   4.186
  401ntf2     f 5138   3.044   3.256   4.067
  401ntf2     f 5139   3.094   3.099   4.201
  401ntf2     s 5140   2.841   3.162   4.202
  401ntf2     o 5141   2.838   3.102   4.333
  401ntf2     f 5142   3.054   3.294   4.277
  401ntf2     o 5143   2.774   3.290   4.186
  401ntf2     n 5144   2.837   3.060   4.083
  401ntf2     s 5145   2.799   3.070   3.931
  401ntf2     o 5146   2.786   3.201   3.871
  401ntf2     o 5147   2.858   2.967   3.849
  401ntf2     c 5148   2.626   3.016   3.947
  401ntf2     f 5149   2.558   3.095   4.028
  401ntf2     f 5150   2.617   2.893   3.996
  401ntf2     f 5151   2.564   3.016   3.830
  402ntf2     c 5152   0.883   3.435   3.670
  402ntf2     f 5153   0.996   3.477   3.724
  402ntf2     f 5154   0.903   3.424   3.540
  402ntf2     s 5155   0.745   3.548   3.706
  402ntf2     o 5156   0.743   3.545   3.850
  402ntf2     f 5157   0.859   3.313   3.717
  402ntf2     o 5158   0.791   3.669   3.641
  402ntf2     n 5159   0.633   3.463   3.636
  402ntf2     s 5160   0.553   3.482   3.503
  402ntf2     o 5161   0.454   3.380   3.478
  402ntf2     o 5162   0.522   3.616   3.460
  402ntf2     c 5163   0.687   3.430   3.391
  402ntf2     f 5164   0.740   3.316   3.432
  402ntf2     f 5165   0.784   3.520   3.387
  402ntf2     f 5166   0.644   3.410   3.268
  403ntf2     c 5167   2.029   4.221   3.856
  403ntf2     f 5168   1.907   4.225   3.805
  403ntf2     f 5169   2.088   4.114   3.806
  403ntf2     s 5170   2.025   4.219   4.038
  403ntf2     o 5171   1.948   4.099   4.062
  403ntf2     f 5172   2.094   4.327   3.810
  403ntf2     o 5173   2.166   4.218   4.070
  403ntf2     n 5174   1.951   4.356   4.057
  403ntf2     s 5175   1.880   4.423   4.179
  403ntf2     o 5176   1.894   4.361   4.308
  403ntf2     o 5177   1.877   0.053   4.175
  403ntf2     c 5178   1.709   4.381   4.132
  403ntf2     f 5179   1.678   4.431   4.013
  403ntf2     f 5180   1.621   4.428   4.218
  403ntf2     f 5181   1.692   4.250   4.124
  404ntf2     c 5182   0.652   2.652   3.076
  404ntf2     f 5183   0.696   2.774   3.104
  404ntf2     f 5184   0.551   2.627   3.158
  404ntf2     s 5185   0.783   2.527   3.090
  404ntf2     o 5186   0.713   2.407   3.054
  404ntf2     f 5187   0.602   2.656   2.953
  404ntf2     o 5188   0.881   2.579   2.997
  404ntf2     n 5189   0.816   2.554   3.242
  404ntf2     s 5190   0.826   2.464   3.370
  404ntf2     o 5191   0.797   2.323   3.359
  404ntf2     o 5192   0.929   2.504   3.462
  404ntf2     c 5193   0.677   2.527   3.452
  404ntf2     f 5194   0.689   2.654   3.485
  404ntf2     f 5195   0.650   2.459   3.562
  404ntf2     f 5196   0.571   2.518   3.372
  405ntf2     c 5197   2.913   1.006   0.998
  405ntf2     f 5198   2.885   1.031   1.125
  405ntf2     f 5199   2.820   0.925   0.952
  405ntf2     s 5200   3.079   0.935   0.980
  405ntf2     o 5201   3.079   0.895   0.841
  405ntf2     f 5202   2.902   1.121   0.933
  405ntf2     o 5203   3.165   1.045   1.016
  405ntf2     n 5204   3.060   0.815   1.079
  405ntf2     s 5205   3.107   0.787   1.227
  405ntf2     o 5206   3.154   0.897   1.308
  405ntf2     o 5207   3.034   0.682   1.293
  405ntf2     c 5208   3.261   0.702   1.181
  405ntf2     f 5209   3.237   0.600   1.100
  405ntf2     f 5210   3.325   0.655   1.287
  405ntf2     f 5211   3.343   0.784   1.117
  406ntf2     c 5212   2.440   1.328   1.188
  406ntf2     f 5213   2.453   1.344   1.319
  406ntf2     f 5214   2.514   1.224   1.154
  406ntf2     s 5215   2.490   1.478   1.098
  406ntf2     o 5216   2.621   1.500   1.153
  406ntf2     f 5217   2.314   1.296   1.165
  406ntf2     o 5218   2.482   1.434   0.961
  406ntf2     n 5219   2.379   1.572   1.156
  406ntf2     s 5220   2.247   1.634   1.096
  406ntf2     o 5221   2.193   1.579   0.974
  406ntf2     o 5222   2.153   1.678   1.196
  406ntf2     c 5223   2.322   1.790   1.040
  406ntf2     f 5224   2.416   1.766   0.949
  406ntf2     f 5225   2.379   1.854   1.140
  406ntf2     f 5226   2.232   1.870   0.985
  407ntf2     c 5227   1.595   1.167   1.425
  407ntf2     f 5228   1.474   1.191   1.472
  407ntf2     f 5229   1.631   1.271   1.351
  407ntf2     s 5230   1.602   1.012   1.330
  407ntf2     o 5231   1.561   0.918   1.431
  407ntf2     f 5232   1.677   1.163   1.529
  407ntf2     o 5233   1.510   1.039   1.222
  407ntf2     n 5234   1.754   1.020   1.294
  407ntf2     s 5235   1.866   0.912   1.273
  407ntf2     o 5236   1.827   0.774   1.256
  407ntf2     o 5237   1.979   0.959   1.197
  407ntf2     c 5238   1.933   0.917   1.442
  407ntf2     f 5239   1.966   1.041   1.475
  407ntf2     f 5240   2.041   0.843   1.454
  407ntf2     f 5241   1.845   0.875   1.531
  408ntf2     c 5242   0.867   4.248   0.091
  408ntf2     f 5243   0.895   4.358   0.023
  408ntf2     f 5244   0.912   4.265   0.214
  408ntf2     s 5245   0.943   4.102   0.013
  408ntf2     o 5246   0.918   3.999   0.111
  408ntf2     f 5247   0.735   4.237   0.097
  408ntf2     o 5248   0.873   4.094   4.402
  408ntf2     n 5249   1.090   4.157   0.016
  408ntf2     s 5250   1.190   4.211   4.422
  408ntf2     o 5251   1.149   4.211   4.283
  408ntf2     o 5252   1.272   4.321   4.466
  408ntf2     c 5253   1.305   4.071   4.426
  408ntf2     f 5254   1.248   3.960   4.382
  408ntf2     f 5255   1.346   4.046   0.035
  408ntf2     f 5256   1.413   4.092   4.352
  409ntf2     c 5257   4.494   0.128   2.452
  409ntf2     f 5258   0.063   0.033   2.492
  409ntf2     f 5259   0.032   0.244   2.489
  409ntf2     s 5260   4.328   0.104   2.522
  409ntf2     o 5261   4.299   4.484   2.478
  409ntf2     f 5262   4.492   0.126   2.320
  409ntf2     o 5263   4.349   0.124   2.663
  409ntf2     n 5264   4.257   0.217   2.440
  409ntf2     s 5265   4.224   0.367   2.471
  409ntf2     o 5266   4.092   0.393   2.525
  409ntf2     o 5267   4.333   0.452   2.511
  409ntf2     c 5268   4.203   0.419   2.298
  409ntf2     f 5269   4.316   0.407   2.231
  409ntf2     f 5270   4.165   0.545   2.289
  409ntf2     f 5271   4.112   0.346   2.237
  410ntf2     c 5272   3.008   2.973   1.352
  410ntf2     f 5273   3.016   2.989   1.483
  410ntf2     f 5274   3.101   2.886   1.316
  410ntf2     s 5275   3.026   3.131   1.265
  410ntf2     o 5276   3.156   3.174   1.311
  410ntf2     f 5277   2.890   2.917   1.327
  410ntf2     o 5278   3.012   3.094   1.127
  410ntf2     n 5279   2.906   3.205   1.336
  410ntf2     s 5280   2.759   3.238   1.293
  410ntf2     o 5281   2.741   3.320   1.175
  410ntf2     o 5282   2.660   3.138   1.322
  410ntf2     c 5283   2.730   3.361   1.424
  410ntf2     f 5284   2.745   3.307   1.544
  410ntf2     f 5285   2.608   3.412   1.417
  410ntf2     f 5286   2.816   3.461   1.416
  411ntf2     c 5287   3.532   3.046   2.788
  411ntf2     f 5288   3.503   3.030   2.916
  411ntf2     f 5289   3.545   2.925   2.735
  411ntf2     s 5290   3.682   3.147   2.766
  411ntf2     o 5291   3.778   3.075   2.845
  411ntf2     f 5292   3.427   3.102   2.730
  411ntf2     o 5293   3.699   3.147   2.622
  411ntf2     n 5294   3.627   3.277   2.834
  411ntf2     s 5295   3.564   3.410   2.777
  411ntf2     o 5296   3.657   3.506   2.722
  411ntf2     o 5297   3.433   3.401   2.719
  411ntf2     c 5298   3.528   3.484   2.939
  411ntf2     f 5299   3.637   3.495   3.012
  411ntf2     f 5300   3.442   3.410   3.008
  411ntf2     f 5301   3.475   3.604   2.927
  412ntf2     c 5302   0.208   0.196   1.630
  412ntf2     f 5303   0.144   0.108   1.555
  412ntf2     f 5304   0.338   0.179   1.609
  412ntf2     s 5305   0.165   0.179   1.805
  412ntf2     o 5306   0.205   0.043   1.834
  412ntf2     f 5307   0.176   0.316   1.584
  412ntf2     o 5308   0.238   0.285   1.870
  412ntf2     n 5309   0.010   0.195   1.786
  412ntf2     s 5310   4.432   0.322   1.774
  412ntf2     o 5311   4.493   0.450   1.753
  412ntf2     o 5312   4.306   0.295   1.708
  412ntf2     c 5313   4.385   0.327   1.949
  412ntf2     f 5314   4.492   0.336   2.026
  412ntf2     f 5315   4.322   0.216   1.986
  412ntf2     f 5316   4.306   0.429   1.977
  413ntf2     c 5317   3.384   1.409   2.733
  413ntf2     f 5318   3.272   1.480   2.735
  413ntf2     f 5319   3.457   1.453   2.632
  413ntf2     s 5320   3.349   1.232   2.720
  413ntf2     o 5321   3.282   1.205   2.844
  413ntf2     f 5322   3.449   1.437   2.845
  413ntf2     o 5323   3.271   1.223   2.599
  413ntf2     n 5324   3.499   1.184   2.717
  413ntf2     s 5325   3.599   1.146   2.603
  413ntf2     o 5326   3.567   1.181   2.466
  413ntf2     o 5327   3.738   1.150   2.642
  413ntf2     c 5328   3.567   0.967   2.609
  413ntf2     f 5329   3.438   0.941   2.591
  413ntf2     f 5330   3.600   0.917   2.727
  413ntf2     f 5331   3.635   0.901   2.517
  414ntf2     c 5332   2.783   1.702   2.096
  414ntf2     f 5333   2.697   1.755   2.011
  414ntf2     f 5334   2.852   1.801   2.151
  414ntf2     s 5335   2.892   1.580   2.016
  414ntf2     o 5336   2.797   1.479   1.978
  414ntf2     f 5337   2.713   1.646   2.193
  414ntf2     o 5338   2.951   1.659   1.911
  414ntf2     n 5339   2.974   1.546   2.146
  414ntf2     s 5340   3.118   1.579   2.198
  414ntf2     o 5341   3.211   1.649   2.113
  414ntf2     o 5342   3.124   1.604   2.340
  414ntf2     c 5343   3.180   1.408   2.189
  414ntf2     f 5344   3.175   1.361   2.065
  414ntf2     f 5345   3.109   1.327   2.264
  414ntf2     f 5346   3.306   1.399   2.229
  415ntf2     c 5347   3.187   1.963   3.958
  415ntf2     f 5348   3.295   1.888   3.946
  415ntf2     f 5349   3.189   2.015   4.080
  415ntf2     s 5350   3.036   1.866   3.930
  415ntf2     o 5351   2.932   1.962   3.957
  415ntf2     f 5352   3.198   2.063   3.872
  415ntf2     o 5353   3.051   1.822   3.794
  415ntf2     n 5354   3.058   1.764   4.048
  415ntf2     s 5355   3.118   1.620   4.057
  415ntf2     o 5356   3.190   1.567   3.943
  415ntf2     o 5357   3.164   1.583   4.188
  415ntf2     c 5358   2.959   1.532   4.047
  415ntf2     f 5359   2.881   1.563   4.149
  415ntf2     f 5360   2.975   1.401   4.047
  415ntf2     f 5361   2.894   1.565   3.937
  416ntf2     c 5362   1.038   1.840   1.502
  416ntf2     f 5363   0.995   1.962   1.531
  416ntf2     f 5364   0.963   1.796   1.403
  416ntf2     s 5365   1.033   1.731   1.646
  416ntf2     o 5366   1.080   1.605   1.593
  416ntf2     f 5367   1.161   1.853   1.454
  416ntf2     o 5368   1.117   1.797   1.743
  416ntf2     n 5369   0.877   1.735   1.669
  416ntf2     s 5370   0.786   1.831   1.754
  416ntf2     o 5371   0.833   1.964   1.783
  416ntf2     o 5372   0.645   1.813   1.729
  416ntf2     c 5373   0.806   1.744   1.912
  416ntf2     f 5374   0.772   1.617   1.901
  416ntf2     f 5375   0.732   1.798   2.007
  416ntf2     f 5376   0.932   1.747   1.954
  417ntf2     c 5377   2.413   3.972   2.554
  417ntf2     f 5378   2.284   3.943   2.539
  417ntf2     f 5379   2.437   4.081   2.484
  417ntf2     s 5380   2.518   3.833   2.502
  417ntf2     o 5381   2.482   3.815   2.363
  417ntf2     f 5382   2.432   4.000   2.681
  417ntf2     o 5383   2.650   3.885   2.531
  417ntf2     n 5384   2.464   3.731   2.608
  417ntf2     s 5385   2.328   3.654   2.619
  417ntf2     o 5386   2.227   3.718   2.699
  417ntf2     o 5387   2.287   3.575   2.506
  417ntf2     c 5388   2.388   3.525   2.733
  417ntf2     f 5389   2.290   3.443   2.769
  417ntf2     f 5390   2.437   3.578   2.844
  417ntf2     f 5391   2.484   3.452   2.679
  418ntf2     c 5392   0.663   2.374   2.289
  418ntf2     f 5393   0.667   2.500   2.246
  418ntf2     f 5394   0.762   2.309   2.230
  418ntf2     s 5395   0.502   2.297   2.257
  418ntf2     o 5396   0.480   2.329   2.118
  418ntf2     f 5397   0.690   2.379   2.418
  418ntf2     o 5398   0.525   2.159   2.291
  418ntf2     n 5399   0.422   2.388   2.357
  418ntf2     s 5400   0.382   2.373   2.508
  418ntf2     o 5401   0.445   2.271   2.588
  418ntf2     o 5402   0.353   2.499   2.572
  418ntf2     c 5403   0.215   2.307   2.478
  418ntf2     f 5404   0.141   2.395   2.412
  418ntf2     f 5405   0.153   2.279   2.591
  418ntf2     f 5406   0.219   2.196   2.406
  419ntf2     c 5407   1.305   1.443   0.406
  419ntf2     f 5408   1.357   1.372   0.505
  419ntf2     f 5409   1.367   1.560   0.405
  419ntf2     s 5410   1.126   1.463   0.428
  419ntf2     o 5411   1.121   1.541   0.549
  419ntf2     f 5412   1.334   1.380   0.294
  419ntf2     o 5413   1.082   1.526   0.306
  419ntf2     n 5414   1.096   1.310   0.451
  419ntf2     s 5415   1.084   1.189   0.352
  419ntf2     o 5416   1.112   1.209   0.212
  419ntf2     o 5417   1.124   1.062   0.410
  419ntf2     c 5418   0.903   1.177   0.355
  419ntf2     f 5419   0.858   1.082   0.275
  419ntf2     f 5420   0.847   1.291   0.316
  419ntf2     f 5421   0.858   1.152   0.477
  420ntf2     c 5422   1.507   3.412   3.040
  420ntf2     f 5423   1.612   3.362   2.976
  420ntf2     f 5424   1.398   3.368   2.979
  420ntf2     s 5425   1.513   3.594   3.043
  420ntf2     o 5426   1.510   3.626   2.903
  420ntf2     f 5427   1.508   3.361   3.162
  420ntf2     o 5428   1.399   3.631   3.123
  420ntf2     n 5429   1.656   3.606   3.107
  420ntf2     s 5430   1.706   3.602   3.256
  420ntf2     o 5431   1.618   3.546   3.356
  420ntf2     o 5432   1.847   3.579   3.270
  420ntf2     c 5433   1.695   3.781   3.285
  420ntf2     f 5434   1.728   3.814   3.409
  420ntf2     f 5435   1.572   3.827   3.264
  420ntf2     f 5436   1.775   3.848   3.204
  421ntf2     c 5437   2.888   2.015   0.439
  421ntf2     f 5438   2.820   2.045   0.330
  421ntf2     f 5439   3.011   2.061   0.422
  421ntf2     s 5440   2.887   1.837   0.472
  421ntf2     o 5441   2.978   1.827   0.583
  421ntf2     f 5442   2.835   2.084   0.539
  421ntf2     o 5443   2.748   1.808   0.497
  421ntf2     n 5444   2.951   1.795   0.334
  421ntf2     s 5445   2.890   1.749   0.197
  421ntf2     o 5446   2.748   1.761   0.175
  421ntf2     o 5447   2.977   1.773   0.085
  421ntf2     c 5448   2.914   1.570   0.224
  421ntf2     f 5449   3.041   1.541   0.243
  421ntf2     f 5450   2.871   1.498   0.122
  421ntf2     f 5451   2.848   1.530   0.332
  422ntf2     c 5452   1.607   2.458   3.007
  422ntf2     f 5453   1.555   2.578   3.024
  422ntf2     f 5454   1.576   2.418   2.885
  422ntf2     s 5455   1.551   2.341   3.134
  422ntf2     o 5456   1.590   2.410   3.254
  422ntf2     f 5457   1.739   2.472   3.009
  422ntf2     o 5458   1.410   2.327   3.106
  422ntf2     n 5459   1.648   2.224   3.093
  422ntf2     s 5460   1.642   2.119   2.977
  422ntf2     o 5461   1.561   2.148   2.862
  422ntf2     o 5462   1.769   2.054   2.953
  422ntf2     c 5463   1.550   1.989   3.064
  422ntf2     f 5464   1.610   1.954   3.176
  422ntf2     f 5465   1.538   1.880   2.991
  422ntf2     f 5466   1.427   2.028   3.096
  423ntf2     c 5467   1.310   4.183   3.615
  423ntf2     f 5468   1.242   4.295   3.630
  423ntf2     f 5469   1.399   4.204   3.519
  423ntf2     s 5470   1.202   4.042   3.577
  423ntf2     o 5471   1.123   4.094   3.468
  423ntf2     f 5472   1.377   4.163   3.727
  423ntf2     o 5473   1.295   3.936   3.546
  423ntf2     n 5474   1.128   4.039   3.715
  423ntf2     s 5475   1.156   3.965   3.851
  423ntf2     o 5476   1.284   3.902   3.871
  423ntf2     o 5477   1.092   4.026   3.965
  423ntf2     c 5478   1.046   3.824   3.820
  423ntf2     f 5479   1.048   3.737   3.920
  423ntf2     f 5480   1.081   3.758   3.710
  423ntf2     f 5481   0.920   3.863   3.804
  424ntf2     c 5482   4.291   4.361   1.047
  424ntf2     f 5483   4.384   4.455   1.042
  424ntf2     f 5484   4.192   4.408   1.122
  424ntf2     s 5485   4.357   4.204   1.111
  424ntf2     o 5486   4.401   4.245   1.242
  424ntf2     f 5487   4.244   4.347   0.924
  424ntf2     o 5488   4.241   4.119   1.099
  424ntf2     n 5489   4.466   4.188   0.999
  424ntf2     s 5490   0.087   4.110   0.989
  424ntf2     o 5491   0.123   4.019   1.095
  424ntf2     o 5492   0.126   4.075   0.854
  424ntf2     c 5493   0.195   4.252   1.021
  424ntf2     f 5494   0.175   4.349   0.933
  424ntf2     f 5495   0.323   4.220   1.016
  424ntf2     f 5496   0.173   4.304   1.141
  425ntf2     c 5497   0.905   2.149   2.527
  425ntf2     f 5498   0.784   2.194   2.495
  425ntf2     f 5499   0.935   2.054   2.439
  425ntf2     s 5500   0.910   2.086   2.697
  425ntf2     o 5501   0.888   2.206   2.774
  425ntf2     f 5502   0.990   2.248   2.509
  425ntf2     o 5503   0.806   1.987   2.699
  425ntf2     n 5504   1.060   2.039   2.695
  425ntf2     s 5505   1.130   1.901   2.670
  425ntf2     o 5506   1.054   1.793   2.611
  425ntf2     o 5507   1.269   1.911   2.635
  425ntf2     c 5508   1.139   1.852   2.845
  425ntf2     f 5509   1.206   1.941   2.917
  425ntf2     f 5510   1.199   1.735   2.861
  425ntf2     f 5511   1.019   1.843   2.899
  426ntf2     c 5512   3.260   3.799   4.297
  426ntf2     f 5513   3.190   3.756   4.400
  426ntf2     f 5514   3.238   3.929   4.285
  426ntf2     s 5515   3.214   3.711   4.144
  426ntf2     o 5516   3.242   3.575   4.183
  426ntf2     f 5517   3.388   3.783   4.325
  426ntf2     o 5518   3.076   3.751   4.133
  426ntf2     n 5519   3.319   3.784   4.054
  426ntf2     s 5520   3.369   3.760   3.907
  426ntf2     o 5521   3.277   3.705   3.811
  426ntf2     o 5522   3.464   3.859   3.862
  426ntf2     c 5523   3.479   3.620   3.946
  426ntf2     f 5524   3.559   3.649   4.047
  426ntf2     f 5525   3.556   3.589   3.842
  426ntf2     f 5526   3.411   3.511   3.979
  427ntf2     c 5527   0.588   0.988   3.911
  427ntf2     f 5528   0.466   0.940   3.895
  427ntf2     f 5529   0.671   0.885   3.909
  427ntf2     s 5530   0.604   1.083   4.066
  427ntf2     o 5531   0.514   1.193   4.042
  427ntf2     f 5532   0.616   1.063   3.806
  427ntf2     o 5533   0.566   0.987   4.167
  427ntf2     n 5534   0.756   1.120   4.048
  427ntf2     s 5535   0.887   1.064   4.115
  427ntf2     o 5536   0.888   0.928   4.163
  427ntf2     o 5537   1.008   1.115   4.056
  427ntf2     c 5538   0.875   1.163   4.267
  427ntf2     f 5539   0.871   1.292   4.239
  427ntf2     f 5540   0.978   1.143   4.347
  427ntf2     f 5541   0.765   1.134   4.335
  428ntf2     c 5542   4.278   1.661   2.259
  428ntf2     f 5543   4.256   1.762   2.177
  428ntf2     f 5544   4.167   1.639   2.327
  428ntf2     s 5545   4.419   1.695   2.370
  428ntf2     o 5546   4.373   1.814   2.438
  428ntf2     f 5547   4.301   1.554   2.185
  428ntf2     o 5548   4.427   1.571   2.444
  428ntf2     n 5549   0.011   1.714   2.257
  428ntf2     s 5550   0.159   1.767   2.254
  428ntf2     o 5551   0.176   1.910   2.241
  428ntf2     o 5552   0.256   1.691   2.330
  428ntf2     c 5553   0.196   1.710   2.085
  428ntf2     f 5554   0.178   1.579   2.075
  428ntf2     f 5555   0.321   1.736   2.051
  428ntf2     f 5556   0.117   1.768   1.996
  429ntf2     c 5557   0.387   2.484   1.175
  429ntf2     f 5558   0.349   2.584   1.252
  429ntf2     f 5559   0.304   2.383   1.197
  429ntf2     s 5560   0.560   2.437   1.206
  429ntf2     o 5561   0.556   2.408   1.347
  429ntf2     f 5562   0.370   2.523   1.050
  429ntf2     o 5563   0.576   2.328   1.113
  429ntf2     n 5564   0.621   2.577   1.167
  429ntf2     s 5565   0.738   2.625   1.074
  429ntf2     o 5566   0.839   2.530   1.036
  429ntf2     o 5567   0.702   2.727   0.979
  429ntf2     c 5568   0.827   2.722   1.200
  429ntf2     f 5569   0.939   2.773   1.152
  429ntf2     f 5570   0.859   2.647   1.304
  429ntf2     f 5571   0.753   2.822   1.245
  430ntf2     c 5572   4.366   3.010   3.642
  430ntf2     f 5573   4.441   2.955   3.737
  430ntf2     f 5574   4.385   3.141   3.648
  430ntf2     s 5575   4.192   2.965   3.663
  430ntf2     o 5576   4.164   3.020   3.794
  430ntf2     f 5577   4.414   2.968   3.526
  430ntf2     o 5578   4.130   3.028   3.549
  430ntf2     n 5579   4.213   2.809   3.663
  430ntf2     s 5580   4.179   2.692   3.564
  430ntf2     o 5581   4.129   2.574   3.630
  430ntf2     o 5582   4.133   2.722   3.431
  430ntf2     c 5583   4.351   2.641   3.534
  430ntf2     f 5584   4.358   2.540   3.450
  430ntf2     f 5585   4.408   2.603   3.648
  430ntf2     f 5586   4.424   2.740   3.485
  431ntf2     c 5587   3.270   2.778   3.778
  431ntf2     f 5588   3.312   2.698   3.874
  431ntf2     f 5589   3.146   2.741   3.748
  431ntf2     s 5590   3.378   2.772   3.632
  431ntf2     o 5591   3.311   2.863   3.543
  431ntf2     f 5592   3.262   2.900   3.829
  431ntf2     o 5593   3.505   2.811   3.689
  431ntf2     n 5594   3.362   2.617   3.608
  431ntf2     s 5595   3.332   2.529   3.481
  431ntf2     o 5596   3.336   2.590   3.350
  431ntf2     o 5597   3.376   2.392   3.493
  431ntf2     c 5598   3.154   2.512   3.512
  431ntf2     f 5599   3.091   2.627   3.500
  431ntf2     f 5600   3.132   2.467   3.635
  431ntf2     f 5601   3.099   2.427   3.428
  432ntf2     c 5602   4.164   1.188   2.905
  432ntf2     f 5603   4.093   1.271   2.830
  432ntf2     f 5604   4.151   1.226   3.031
  432ntf2     s 5605   4.338   1.185   2.852
  432ntf2     o 5606   4.380   1.321   2.877
  432ntf2     f 5607   4.109   1.069   2.894
  432ntf2     o 5608   4.395   1.081   2.934
  432ntf2     n 5609   4.308   1.153   2.701
  432ntf2     s 5610   4.304   1.019   2.619
  432ntf2     o 5611   4.417   0.995   2.533
  432ntf2     o 5612   4.235   0.906   2.677
  432ntf2     c 5613   4.179   1.075   2.499
  432ntf2     f 5614   4.224   1.177   2.427
  432ntf2     f 5615   4.069   1.115   2.560
  432ntf2     f 5616   4.146   0.977   2.416
   4.51420   4.51420   4.51420
