DYMJ in water
 2640
    1DYMJ    O2    1   1.295   1.666   1.640
    1DYMJ    C6    2   1.358   1.610   1.550
    1DYMJ    N1    3   1.342   1.471   1.528
    1DYMJ    C7    4   1.221   1.394   1.574
    1DYMJ    H6    5   1.243   1.339   1.666
    1DYMJ    H7    6   1.184   1.325   1.498
    1DYMJ    H8    7   1.140   1.463   1.597
    1DYMJ    C4    8   1.440   1.401   1.456
    1DYMJ    O1    9   1.415   1.329   1.360
    1DYMJ    C3   10   1.567   1.463   1.468
    1DYMJ    C1   11   1.578   1.598   1.477
    1DYMJ    N3   12   1.465   1.676   1.491
    1DYMJ    C2   13   1.443   1.800   1.408
    1DYMJ    H3   14   1.477   1.784   1.305
    1DYMJ    H4   15   1.502   1.882   1.449
    1DYMJ    H5   16   1.338   1.830   1.407
    1DYMJ    N2   17   1.703   1.634   1.512
    1DYMJ    C5   18   1.767   1.518   1.526
    1DYMJ   H10   19   1.874   1.506   1.544
    1DYMJ    N4   20   1.688   1.411   1.504
    1DYMJ    C8   21   1.726   1.270   1.506
    1DYMJ    H1   22   1.773   1.244   1.412
    1DYMJ    H2   23   1.638   1.206   1.512
    1DYMJ    H9   24   1.794   1.249   1.588
    2SOL     OW   25   0.236   0.658   0.106
    2SOL    HW1   26   0.167   0.610   0.160
    2SOL    HW2   27   0.256   0.606   0.023
    3SOL     OW   28   0.204   0.272   1.002
    3SOL    HW1   29   0.245   0.248   1.090
    3SOL    HW2   30   0.106   0.257   1.005
    4SOL     OW   31   0.009   0.391   0.659
    4SOL    HW1   32   2.922   0.433   0.688
    4SOL    HW2   33   2.990   0.316   0.597
    5SOL     OW   34   0.568   1.284   1.174
    5SOL    HW1   35   0.475   1.276   1.138
    5SOL    HW2   36   0.581   1.376   1.212
    6SOL     OW   37   1.556   1.510   0.707
    6SOL    HW1   38   1.513   1.493   0.795
    6SOL    HW2   39   1.485   1.519   0.636
    7SOL     OW   40   1.131   0.702   0.700
    7SOL    HW1   41   1.184   0.786   0.685
    7SOL    HW2   42   1.080   0.710   0.785
    8SOL     OW   43   1.764   0.594   0.231
    8SOL    HW1   44   1.746   0.583   0.133
    8SOL    HW2   45   1.725   0.516   0.280
    9SOL     OW   46   0.761   1.147   1.037
    9SOL    HW1   47   0.687   1.176   1.098
    9SOL    HW2   48   0.795   1.227   0.987
   10SOL     OW   49   0.861   0.782   1.818
   10SOL    HW1   50   0.853   0.852   1.889
   10SOL    HW2   51   0.889   0.824   1.732
   11SOL     OW   52   0.684   1.005   0.654
   11SOL    HW1   53   0.754   0.991   0.724
   11SOL    HW2   54   0.608   1.058   0.692
   12SOL     OW   55   0.706   1.156   1.811
   12SOL    HW1   56   0.759   1.236   1.837
   12SOL    HW2   57   0.617   1.184   1.774
   13SOL     OW   58   0.327   1.432   1.069
   13SOL    HW1   59   0.260   1.376   1.021
   13SOL    HW2   60   0.385   1.479   1.003
   14SOL     OW   61   0.451   0.402   1.492
   14SOL    HW1   62   0.530   0.340   1.494
   14SOL    HW2   63   0.367   0.348   1.505
   15SOL     OW   64   1.612   0.458   0.737
   15SOL    HW1   65   1.533   0.480   0.680
   15SOL    HW2   66   1.630   0.534   0.800
   16SOL     OW   67   0.220   1.717   0.480
   16SOL    HW1   68   0.239   1.801   0.530
   16SOL    HW2   69   0.292   1.702   0.411
   17SOL     OW   70   0.250   1.452   0.532
   17SOL    HW1   71   0.215   1.546   0.525
   17SOL    HW2   72   0.188   1.397   0.589
   18SOL     OW   73   0.262   1.083   0.900
   18SOL    HW1   74   0.258   0.989   0.932
   18SOL    HW2   75   0.196   1.139   0.950
   19SOL     OW   76   0.614   1.793   1.432
   19SOL    HW1   77   0.528   1.769   1.477
   19SOL    HW2   78   0.639   1.886   1.457
   20SOL     OW   79   0.589   0.975   0.153
   20SOL    HW1   80   0.598   1.047   0.084
   20SOL    HW2   81   0.632   1.004   0.238
   21SOL     OW   82   1.551   0.146   1.466
   21SOL    HW1   83   1.585   0.219   1.407
   21SOL    HW2   84   1.626   0.113   1.524
   22SOL     OW   85   0.119   0.631   0.572
   22SOL    HW1   86   0.081   0.546   0.608
   22SOL    HW2   87   0.117   0.701   0.643
   23SOL     OW   88   1.845   1.759   0.335
   23SOL    HW1   89   1.902   1.721   0.408
   23SOL    HW2   90   1.869   1.856   0.322
   24SOL     OW   91   0.019   1.597   0.115
   24SOL    HW1   92   0.021   1.498   0.130
   24SOL    HW2   93   2.991   1.643   0.199
   25SOL     OW   94   1.691   0.921   0.640
   25SOL    HW1   95   1.778   0.874   0.624
   25SOL    HW2   96   1.667   0.975   0.559
   26SOL     OW   97   1.648   1.109   0.433
   26SOL    HW1   98   1.736   1.110   0.386
   26SOL    HW2   99   1.651   1.172   0.510
   27SOL     OW  100   0.129   0.747   1.591
   27SOL    HW1  101   0.229   0.753   1.593
   27SOL    HW2  102   0.090   0.839   1.591
   28SOL     OW  103   0.609   1.383   0.734
   28SOL    HW1  104   0.562   1.296   0.747
   28SOL    HW2  105   0.595   1.416   0.641
   29SOL     OW  106   0.818   0.016   0.511
   29SOL    HW1  107   0.854   0.108   0.496
   29SOL    HW2  108   0.719   0.017   0.499
   30SOL     OW  109   0.189   0.956   1.274
   30SOL    HW1  110   0.277   0.915   1.253
   30SOL    HW2  111   0.118   0.914   1.217
   31SOL     OW  112   1.506   1.007   0.214
   31SOL    HW1  113   1.437   0.945   0.249
   31SOL    HW2  114   1.564   1.039   0.289
   32SOL     OW  115   0.332   0.253   1.799
   32SOL    HW1  116   0.390   0.331   1.821
   32SOL    HW2  117   0.244   0.263   1.845
   33SOL     OW  118   1.464   1.415   0.959
   33SOL    HW1  119   1.393   1.434   1.027
   33SOL    HW2  120   1.453   1.322   0.924
   34SOL     OW  121   1.659   1.732   0.577
   34SOL    HW1  122   1.635   1.708   0.483
   34SOL    HW2  123   1.632   1.658   0.638
   35SOL     OW  124   0.592   0.720   0.269
   35SOL    HW1  125   0.603   0.805   0.217
   35SOL    HW2  126   0.525   0.733   0.342
   36SOL     OW  127   1.285   0.341   0.930
   36SOL    HW1  128   1.188   0.316   0.935
   36SOL    HW2  129   1.336   0.292   1.001
   37SOL     OW  130   1.586   1.667   0.309
   37SOL    HW1  131   1.679   1.703   0.305
   37SOL    HW2  132   1.554   1.645   0.216
   38SOL     OW  133   0.792   0.614   1.455
   38SOL    HW1  134   0.764   0.594   1.549
   38SOL    HW2  135   0.749   0.549   1.393
   39SOL     OW  136   1.396   0.477   1.678
   39SOL    HW1  137   1.393   0.525   1.766
   39SOL    HW2  138   1.455   0.397   1.686
   40SOL     OW  139   0.958   0.888   1.579
   40SOL    HW1  140   1.016   0.814   1.544
   40SOL    HW2  141   0.906   0.928   1.504
   41SOL     OW  142   0.996   0.419   1.226
   41SOL    HW1  143   0.920   0.437   1.287
   41SOL    HW2  144   0.964   0.366   1.147
   42SOL     OW  145   1.047   0.705   0.425
   42SOL    HW1  146   1.068   0.697   0.522
   42SOL    HW2  147   0.964   0.653   0.404
   43SOL     OW  148   0.105   0.819   0.763
   43SOL    HW1  149   0.186   0.813   0.821
   43SOL    HW2  150   0.034   0.871   0.810
   44SOL     OW  151   0.141   1.843   1.575
   44SOL    HW1  152   0.128   1.816   1.671
   44SOL    HW2  153   0.053   1.870   1.536
   45SOL     OW  154   0.926   0.339   0.221
   45SOL    HW1  155   0.939   0.403   0.145
   45SOL    HW2  156   0.879   0.257   0.187
   46SOL     OW  157   1.711   0.579   1.826
   46SOL    HW1  158   1.670   0.658   1.780
   46SOL    HW2  159   1.736   0.510   1.758
   47SOL     OW  160   1.375   1.142   0.538
   47SOL    HW1  161   1.459   1.125   0.487
   47SOL    HW2  162   1.319   1.209   0.490
   48SOL     OW  163   0.513   0.200   0.916
   48SOL    HW1  164   0.537   0.211   1.013
   48SOL    HW2  165   0.551   0.276   0.864
   49SOL     OW  166   1.004   1.447   0.471
   49SOL    HW1  167   0.963   1.521   0.419
   49SOL    HW2  168   0.990   1.463   0.569
   50SOL     OW  169   0.356   1.807   0.856
   50SOL    HW1  170   0.402   1.719   0.869
   50SOL    HW2  171   0.421   1.881   0.875
   51SOL     OW  172   1.796   1.059   0.868
   51SOL    HW1  173   1.743   1.041   0.785
   51SOL    HW2  174   1.734   1.063   0.947
   52SOL     OW  175   0.321   0.948   0.232
   52SOL    HW1  176   0.418   0.959   0.208
   52SOL    HW2  177   0.290   0.857   0.203
   53SOL     OW  178   1.477   0.742   0.727
   53SOL    HW1  179   1.464   0.693   0.813
   53SOL    HW2  180   1.557   0.801   0.734
   54SOL     OW  181   0.464   1.259   1.731
   54SOL    HW1  182   0.436   1.267   1.635
   54SOL    HW2  183   0.383   1.265   1.790
   55SOL     OW  184   1.110   1.774   0.224
   55SOL    HW1  185   1.046   1.727   0.286
   55SOL    HW2  186   1.145   1.708   0.157
   56SOL     OW  187   0.202   0.299   1.498
   56SOL    HW1  188   0.116   0.346   1.483
   56SOL    HW2  189   0.186   0.217   1.553
   57SOL     OW  190   1.624   1.361   0.085
   57SOL    HW1  191   1.600   1.458   0.077
   57SOL    HW2  192   1.542   1.305   0.078
   58SOL     OW  193   0.467   1.723   0.333
   58SOL    HW1  194   0.498   1.796   0.394
   58SOL    HW2  195   0.536   1.708   0.262
   59SOL     OW  196   1.410   0.108   0.433
   59SOL    HW1  197   1.390   0.080   0.339
   59SOL    HW2  198   1.508   0.127   0.442
   60SOL     OW  199   0.265   1.798   1.231
   60SOL    HW1  200   0.306   1.724   1.284
   60SOL    HW2  201   0.223   1.761   1.148
   61SOL     OW  202   0.936   1.699   0.899
   61SOL    HW1  203   1.018   1.649   0.926
   61SOL    HW2  204   0.889   1.650   0.826
   62SOL     OW  205   0.392   0.688   0.475
   62SOL    HW1  206   0.426   0.596   0.492
   62SOL    HW2  207   0.295   0.692   0.500
   63SOL     OW  208   1.537   0.251   1.739
   63SOL    HW1  209   1.538   0.258   1.838
   63SOL    HW2  210   1.483   0.171   1.712
   64SOL     OW  211   0.609   0.108   0.102
   64SOL    HW1  212   0.708   0.108   0.119
   64SOL    HW2  213   0.591   0.144   0.011
   65SOL     OW  214   0.765   0.271   1.751
   65SOL    HW1  215   0.845   0.211   1.761
   65SOL    HW2  216   0.717   0.278   1.838
   66SOL     OW  217   0.875   1.519   1.189
   66SOL    HW1  218   0.856   1.487   1.096
   66SOL    HW2  219   0.928   1.450   1.237
   67SOL     OW  220   1.344   0.588   1.433
   67SOL    HW1  221   1.373   0.553   1.523
   67SOL    HW2  222   1.376   0.682   1.422
   68SOL     OW  223   0.815   1.396   0.933
   68SOL    HW1  224   0.904   1.387   0.889
   68SOL    HW2  225   0.743   1.395   0.864
   69SOL     OW  226   0.926   0.510   0.901
   69SOL    HW1  227   0.902   0.503   0.804
   69SOL    HW2  228   0.961   0.421   0.932
   70SOL     OW  229   0.538   0.048   0.497
   70SOL    HW1  230   0.450   0.038   0.543
   70SOL    HW2  231   0.537   0.128   0.438
   71SOL     OW  232   1.410   1.207   0.052
   71SOL    HW1  233   1.434   1.128   0.109
   71SOL    HW2  234   1.318   1.238   0.076
   72SOL     OW  235   0.298   0.081   0.199
   72SOL    HW1  236   0.379   0.139   0.198
   72SOL    HW2  237   0.327   2.985   0.201
   73SOL     OW  238   0.949   0.253   0.474
   73SOL    HW1  239   0.920   0.291   0.387
   73SOL    HW2  240   1.048   0.261   0.483
   74SOL     OW  241   1.080   0.679   1.458
   74SOL    HW1  242   1.002   0.617   1.466
   74SOL    HW2  243   1.165   0.626   1.452
   75SOL     OW  244   1.225   1.568   0.795
   75SOL    HW1  245   1.239   1.638   0.724
   75SOL    HW2  246   1.296   1.579   0.865
   76SOL     OW  247   0.466   1.147   0.737
   76SOL    HW1  248   0.394   1.128   0.803
   76SOL    HW2  249   0.429   1.136   0.644
   77SOL     OW  250   1.269   1.794   0.604
   77SOL    HW1  251   1.318   1.857   0.543
   77SOL    HW2  252   1.200   1.846   0.655
   78SOL     OW  253   1.042   0.499   0.033
   78SOL    HW1  254   0.999   0.588   0.020
   78SOL    HW2  255   1.115   0.507   0.102
   79SOL     OW  256   0.084   0.566   1.390
   79SOL    HW1  257   0.176   0.559   1.351
   79SOL    HW2  258   0.085   0.632   1.465
   80SOL     OW  259   0.579   0.212   1.180
   80SOL    HW1  260   0.623   0.165   1.257
   80SOL    HW2  261   0.482   0.222   1.199
   81SOL     OW  262   0.875   0.471   0.638
   81SOL    HW1  263   0.819   0.524   0.574
   81SOL    HW2  264   0.888   0.379   0.601
   82SOL     OW  265   0.995   0.056   0.764
   82SOL    HW1  266   0.959   0.068   0.672
   82SOL    HW2  267   0.974   2.964   0.796
   83SOL     OW  268   1.438   1.163   0.858
   83SOL    HW1  269   1.367   1.092   0.859
   83SOL    HW2  270   1.466   1.180   0.763
   84SOL     OW  271   1.470   0.601   0.981
   84SOL    HW1  272   1.413   0.518   0.983
   84SOL    HW2  273   1.533   0.600   1.058
   85SOL     OW  274   1.846   0.817   0.381
   85SOL    HW1  275   1.903   0.761   0.441
   85SOL    HW2  276   1.817   0.762   0.303
   86SOL     OW  277   0.487   1.407   0.153
   86SOL    HW1  278   0.421   1.374   0.221
   86SOL    HW2  279   0.442   1.416   0.065
   87SOL     OW  280   1.669   1.266   0.650
   87SOL    HW1  281   1.769   1.267   0.659
   87SOL    HW2  282   1.633   1.357   0.670
   88SOL     OW  283   1.412   0.575   0.101
   88SOL    HW1  284   1.337   0.569   0.167
   88SOL    HW2  285   1.463   0.490   0.101
   89SOL     OW  286   0.527   0.262   0.322
   89SOL    HW1  287   0.572   0.207   0.251
   89SOL    HW2  288   0.500   0.350   0.284
   90SOL     OW  289   1.121   1.227   1.113
   90SOL    HW1  290   1.041   1.207   1.170
   90SOL    HW2  291   1.092   1.241   1.019
   91SOL     OW  292   1.628   1.100   1.078
   91SOL    HW1  293   1.620   1.165   1.154
   91SOL    HW2  294   1.547   1.105   1.021
   92SOL     OW  295   0.901   0.112   1.385
   92SOL    HW1  296   0.939   0.088   1.296
   92SOL    HW2  297   0.967   0.168   1.435
   93SOL     OW  298   0.982   1.111   1.729
   93SOL    HW1  299   0.885   1.133   1.745
   93SOL    HW2  300   0.988   1.034   1.666
   94SOL     OW  301   0.706   1.061   0.380
   94SOL    HW1  302   0.687   1.049   0.478
   94SOL    HW2  303   0.790   1.012   0.356
   95SOL     OW  304   0.421   0.811   1.250
   95SOL    HW1  305   0.493   0.826   1.318
   95SOL    HW2  306   0.380   0.721   1.264
   96SOL     OW  307   1.271   0.389   1.261
   96SOL    HW1  308   1.303   0.462   1.321
   96SOL    HW2  309   1.172   0.400   1.246
   97SOL     OW  310   0.068   1.570   1.310
   97SOL    HW1  311   0.021   1.654   1.337
   97SOL    HW2  312   0.161   1.571   1.346
   98SOL     OW  313   0.361   1.113   0.488
   98SOL    HW1  314   0.348   1.191   0.427
   98SOL    HW2  315   0.356   1.028   0.435
   99SOL     OW  316   0.553   0.546   0.863
   99SOL    HW1  317   0.571   0.602   0.782
   99SOL    HW2  318   0.619   0.569   0.935
  100SOL     OW  319   1.247   1.349   0.398
  100SOL    HW1  320   1.307   1.424   0.425
  100SOL    HW2  321   1.153   1.371   0.427
  101SOL     OW  322   1.271   1.451   1.150
  101SOL    HW1  323   1.323   1.427   1.232
  101SOL    HW2  324   1.210   1.375   1.127
  102SOL     OW  325   1.582   0.626   0.478
  102SOL    HW1  326   1.534   0.682   0.546
  102SOL    HW2  327   1.632   0.686   0.415
  103SOL     OW  328   0.352   1.527   1.320
  103SOL    HW1  329   0.328   1.485   1.232
  103SOL    HW2  330   0.451   1.541   1.324
  104SOL     OW  331   0.411   0.740   1.600
  104SOL    HW1  332   0.469   0.795   1.540
  104SOL    HW2  333   0.458   0.654   1.622
  105SOL     OW  334   1.600   0.782   1.681
  105SOL    HW1  335   1.507   0.817   1.678
  105SOL    HW2  336   1.654   0.826   1.609
  106SOL     OW  337   1.006   0.112   1.762
  106SOL    HW1  338   1.049   0.199   1.739
  106SOL    HW2  339   1.024   0.045   1.690
  107SOL     OW  340   0.502   0.052   1.751
  107SOL    HW1  341   0.475   2.985   1.682
  107SOL    HW2  342   0.431   0.121   1.760
  108SOL     OW  343   0.584   0.870   1.033
  108SOL    HW1  344   0.613   0.965   1.024
  108SOL    HW2  345   0.522   0.861   1.112
  109SOL     OW  346   1.358   0.860   1.024
  109SOL    HW1  347   1.270   0.852   0.978
  109SOL    HW2  348   1.401   0.770   1.030
  110SOL     OW  349   1.203   0.530   0.273
  110SOL    HW1  350   1.215   0.445   0.324
  110SOL    HW2  351   1.158   0.598   0.331
  111SOL     OW  352   0.324   0.208   1.247
  111SOL    HW1  353   0.290   0.257   1.327
  111SOL    HW2  354   0.275   0.121   1.238
  112SOL     OW  355   0.036   1.305   1.280
  112SOL    HW1  356   0.071   1.253   1.359
  112SOL    HW2  357   0.046   1.403   1.298
  113SOL     OW  358   0.727   0.632   1.059
  113SOL    HW1  359   0.802   0.609   0.997
  113SOL    HW2  360   0.693   0.724   1.038
  114SOL     OW  361   1.728   0.963   1.847
  114SOL    HW1  362   1.683   0.899   1.785
  114SOL    HW2  363   1.671   0.976   1.929
  115SOL     OW  364   0.309   0.072   0.644
  115SOL    HW1  365   0.306   0.164   0.683
  115SOL    HW2  366   0.283   0.006   0.715
  116SOL     OW  367   1.620   0.377   0.367
  116SOL    HW1  368   1.650   0.305   0.429
  116SOL    HW2  369   1.590   0.456   0.419
  117SOL     OW  370   1.024   0.757   0.963
  117SOL    HW1  371   1.025   0.779   1.060
  117SOL    HW2  372   0.996   0.662   0.950
  118SOL     OW  373   0.968   1.575   1.718
  118SOL    HW1  374   0.959   1.622   1.630
  118SOL    HW2  375   0.981   1.477   1.702
  119SOL     OW  376   0.356   0.914   1.806
  119SOL    HW1  377   0.437   0.937   1.859
  119SOL    HW2  378   0.381   0.849   1.734
  120SOL     OW  379   1.500   0.301   0.128
  120SOL    HW1  380   1.458   0.211   0.139
  120SOL    HW2  381   1.559   0.320   0.206
  121SOL     OW  382   1.293   0.822   0.035
  121SOL    HW1  383   1.336   0.733   0.051
  121SOL    HW2  384   1.321   0.856   2.946
  122SOL     OW  385   1.068   1.334   0.851
  122SOL    HW1  386   1.067   1.257   0.787
  122SOL    HW2  387   1.130   1.405   0.816
  123SOL     OW  388   0.313   0.807   0.946
  123SOL    HW1  389   0.410   0.831   0.942
  123SOL    HW2  390   0.303   0.716   0.985
  124SOL     OW  391   0.334   0.513   1.016
  124SOL    HW1  392   0.291   0.426   0.995
  124SOL    HW2  393   0.412   0.527   0.954
  125SOL     OW  394   1.141   0.384   1.702
  125SOL    HW1  395   1.091   0.440   1.769
  125SOL    HW2  396   1.233   0.420   1.690
  126SOL     OW  397   1.099   0.256   1.476
  126SOL    HW1  398   1.119   0.310   1.557
  126SOL    HW2  399   1.184   0.236   1.427
  127SOL     OW  400   0.009   1.313   0.170
  127SOL    HW1  401   2.914   1.333   0.145
  127SOL    HW2  402   0.011   1.235   0.232
  128SOL     OW  403   0.102   1.803   0.968
  128SOL    HW1  404   0.054   1.737   0.911
  128SOL    HW2  405   0.192   1.822   0.929
  129SOL     OW  406   0.497   1.573   0.903
  129SOL    HW1  407   0.566   1.640   0.932
  129SOL    HW2  408   0.539   1.504   0.845
  130SOL     OW  409   0.985   0.800   1.229
  130SOL    HW1  410   1.042   0.771   1.306
  130SOL    HW2  411   0.895   0.756   1.237
  131SOL     OW  412   0.045   0.557   1.107
  131SOL    HW1  413   0.138   0.534   1.077
  131SOL    HW2  414   0.038   0.543   1.206
  132SOL     OW  415   0.193   0.519   1.721
  132SOL    HW1  416   0.267   0.486   1.662
  132SOL    HW2  417   0.154   0.602   1.682
  133SOL     OW  418   1.369   0.928   1.655
  133SOL    HW1  419   1.392   1.025   1.663
  133SOL    HW2  420   1.368   0.901   1.559
  134SOL     OW  421   0.819   0.578   0.347
  134SOL    HW1  422   0.827   0.494   0.294
  134SOL    HW2  423   0.735   0.626   0.323
  135SOL     OW  424   1.645   0.605   1.189
  135SOL    HW1  425   1.624   0.544   1.265
  135SOL    HW2  426   1.735   0.582   1.152
  136SOL     OW  427   0.284   1.559   1.749
  136SOL    HW1  428   0.223   1.625   1.793
  136SOL    HW2  429   0.254   1.466   1.770
  137SOL     OW  430   0.693   0.458   1.262
  137SOL    HW1  431   0.646   0.375   1.232
  137SOL    HW2  432   0.697   0.523   1.186
  138SOL     OW  433   0.932   1.685   1.468
  138SOL    HW1  434   0.905   1.642   1.382
  138SOL    HW2  435   0.931   1.785   1.457
  139SOL     OW  436   0.448   0.495   0.203
  139SOL    HW1  437   0.518   0.564   0.221
  139SOL    HW2  438   0.360   0.540   0.190
  140SOL     OW  439   0.160   1.140   1.465
  140SOL    HW1  440   0.144   1.095   1.553
  140SOL    HW2  441   0.170   1.072   1.394
  141SOL     OW  442   1.334   1.040   1.225
  141SOL    HW1  443   1.346   0.978   1.148
  141SOL    HW2  444   1.267   1.110   1.201
  142SOL     OW  445   1.306   0.851   0.309
  142SOL    HW1  446   1.227   0.823   0.364
  142SOL    HW2  447   1.285   0.839   0.212
  143SOL     OW  448   1.754   1.757   1.138
  143SOL    HW1  449   1.827   1.777   1.072
  143SOL    HW2  450   1.732   1.659   1.134
  144SOL     OW  451   1.246   1.731   1.118
  144SOL    HW1  452   1.330   1.754   1.068
  144SOL    HW2  453   1.244   1.633   1.137
  145SOL     OW  454   0.093   1.248   1.026
  145SOL    HW1  455   0.076   1.261   1.124
  145SOL    HW2  456   0.008   1.266   0.975
  146SOL     OW  457   0.676   1.667   1.726
  146SOL    HW1  458   0.616   1.748   1.728
  146SOL    HW2  459   0.740   1.675   1.650
  147SOL     OW  460   0.877   0.083   0.147
  147SOL    HW1  461   0.932   0.066   0.065
  147SOL    HW2  462   0.910   0.026   0.222
  148SOL     OW  463   1.712   0.140   0.502
  148SOL    HW1  464   1.786   0.140   0.434
  148SOL    HW2  465   1.723   0.062   0.564
  149SOL     OW  466   1.392   1.570   0.483
  149SOL    HW1  467   1.458   1.600   0.413
  149SOL    HW2  468   1.340   1.649   0.515
  150SOL     OW  469   0.126   1.793   1.845
  150SOL    HW1  470   0.079   1.721   1.894
  150SOL    HW2  471   0.187   1.842   1.907
  151SOL     OW  472   1.280   0.925   0.667
  151SOL    HW1  473   1.354   0.859   0.679
  151SOL    HW2  474   1.313   1.003   0.615
  152SOL     OW  475   0.821   1.279   1.416
  152SOL    HW1  476   0.806   1.314   1.508
  152SOL    HW2  477   0.740   1.295   1.361
  153SOL     OW  478   0.670   1.608   0.160
  153SOL    HW1  479   0.677   1.632   0.064
  153SOL    HW2  480   0.613   1.526   0.170
  154SOL     OW  481   1.848   0.157   0.964
  154SOL    HW1  482   1.856   0.069   0.917
  154SOL    HW2  483   1.762   0.201   0.937
  155SOL     OW  484   0.267   0.333   0.741
  155SOL    HW1  485   0.175   0.365   0.722
  155SOL    HW2  486   0.273   0.301   0.836
  156SOL     OW  487   1.207   1.603   0.036
  156SOL    HW1  488   1.199   1.509   0.070
  156SOL    HW2  489   1.153   1.611   2.951
  157SOL     OW  490   0.823   1.010   1.375
  157SOL    HW1  491   0.870   0.991   1.289
  157SOL    HW2  492   0.827   1.108   1.395
  158SOL     OW  493   0.923   0.929   0.304
  158SOL    HW1  494   0.989   0.966   0.238
  158SOL    HW2  495   0.967   0.856   0.357
  159SOL     OW  496   1.486   1.602   0.050
  159SOL    HW1  497   1.387   1.610   0.057
  159SOL    HW2  498   1.517   1.641   2.964
  160SOL     OW  499   0.372   1.303   1.487
  160SOL    HW1  500   0.359   1.387   1.435
  160SOL    HW2  501   0.293   1.243   1.475
  161SOL     OW  502   1.050   1.104   0.709
  161SOL    HW1  503   0.975   1.052   0.751
  161SOL    HW2  504   1.116   1.040   0.669
  162SOL     OW  505   1.018   0.242   0.966
  162SOL    HW1  506   1.010   0.192   0.880
  162SOL    HW2  507   1.021   0.177   1.042
  163SOL     OW  508   0.602   1.490   0.484
  163SOL    HW1  509   0.645   1.435   0.412
  163SOL    HW2  510   0.535   1.551   0.442
  164SOL     OW  511   1.724   0.391   1.379
  164SOL    HW1  512   1.797   0.460   1.376
  164SOL    HW2  513   1.748   0.316   1.317
  165SOL     OW  514   0.264   1.335   0.297
  165SOL    HW1  515   0.173   1.338   0.255
  165SOL    HW2  516   0.262   1.383   0.384
  166SOL     OW  517   0.126   1.016   1.711
  166SOL    HW1  518   0.045   0.977   1.754
  166SOL    HW2  519   0.208   0.978   1.753
  167SOL     OW  520   0.667   0.212   1.494
  167SOL    HW1  521   0.751   0.180   1.449
  167SOL    HW2  522   0.686   0.229   1.590
  168SOL     OW  523   0.069   0.318   0.054
  168SOL    HW1  524   2.972   0.330   0.033
  168SOL    HW2  525   0.121   0.399   0.024
  169SOL     OW  526   1.430   0.854   1.398
  169SOL    HW1  527   1.380   0.923   1.345
  169SOL    HW2  528   1.527   0.856   1.372
  170SOL     OW  529   0.035   0.184   0.288
  170SOL    HW1  530   0.037   0.245   0.209
  170SOL    HW2  531   0.127   0.145   0.302
  171SOL     OW  532   1.183   1.349   0.126
  171SOL    HW1  533   1.085   1.337   0.111
  171SOL    HW2  534   1.203   1.339   0.224
  172SOL     OW  535   0.619   0.832   1.432
  172SOL    HW1  536   0.675   0.914   1.419
  172SOL    HW2  537   0.679   0.752   1.443
  173SOL     OW  538   1.490   1.774   0.982
  173SOL    HW1  539   1.509   1.833   0.903
  173SOL    HW2  540   1.574   1.758   1.033
  174SOL     OW  541   0.717   0.565   1.708
  174SOL    HW1  542   0.757   0.636   1.766
  174SOL    HW2  543   0.756   0.477   1.733
  175SOL     OW  544   1.461   1.180   1.672
  175SOL    HW1  545   1.443   1.192   1.770
  175SOL    HW2  546   1.548   1.223   1.649
  176SOL     OW  547   0.386   1.736   1.564
  176SOL    HW1  548   0.298   1.781   1.550
  176SOL    HW2  549   0.373   1.651   1.615
  177SOL     OW  550   1.678   0.880   1.254
  177SOL    HW1  551   1.665   0.788   1.218
  177SOL    HW2  552   1.660   0.947   1.181
  178SOL     OW  553   1.228   0.316   0.456
  178SOL    HW1  554   1.291   0.238   0.451
  178SOL    HW2  555   1.250   0.371   0.537
  179SOL     OW  556   0.592   0.741   0.663
  179SOL    HW1  557   0.633   0.832   0.654
  179SOL    HW2  558   0.515   0.733   0.599
  180SOL     OW  559   1.761   0.354   1.646
  180SOL    HW1  560   1.745   0.377   1.550
  180SOL    HW2  561   1.677   0.316   1.686
  181SOL     OW  562   1.745   0.932   1.510
  181SOL    HW1  563   1.795   1.017   1.524
  181SOL    HW2  564   1.729   0.918   1.412
  182SOL     OW  565   0.907   1.388   0.061
  182SOL    HW1  566   0.834   1.382   0.129
  182SOL    HW2  567   0.868   1.413   2.973
  183SOL     OW  568   0.660   1.793   0.948
  183SOL    HW1  569   0.634   1.886   0.922
  183SOL    HW2  570   0.759   1.782   0.937
  184SOL     OW  571   0.867   0.966   0.858
  184SOL    HW1  572   0.918   0.889   0.897
  184SOL    HW2  573   0.829   1.022   0.932
  185SOL     OW  574   1.099   1.019   0.099
  185SOL    HW1  575   1.059   1.061   0.017
  185SOL    HW2  576   1.169   0.953   0.072
  186SOL     OW  577   1.855   1.559   0.846
  186SOL    HW1  578   1.776   1.547   0.785
  186SOL    HW2  579   1.856   1.485   0.913
  187SOL     OW  580   0.222   1.303   1.853
  187SOL    HW1  581   0.177   1.218   1.825
  187SOL    HW2  582   0.214   1.314   1.952
  188SOL     OW  583   0.130   1.249   0.661
  188SOL    HW1  584   0.078   1.185   0.717
  188SOL    HW2  585   0.181   1.199   0.592
  189SOL     OW  586   0.682   1.403   1.627
  189SOL    HW1  587   0.601   1.350   1.652
  189SOL    HW2  588   0.674   1.495   1.665
  190SOL     OW  589   1.791   0.174   1.232
  190SOL    HW1  590   1.842   0.101   1.280
  190SOL    HW2  591   1.821   0.178   1.137
  191SOL     OW  592   0.461   0.430   0.546
  191SOL    HW1  593   0.457   0.364   0.471
  191SOL    HW2  594   0.404   0.398   0.622
  192SOL     OW  595   1.689   1.497   1.111
  192SOL    HW1  596   1.613   1.458   1.060
  192SOL    HW2  597   1.730   1.427   1.169
  193SOL     OW  598   0.333   0.552   1.289
  193SOL    HW1  599   0.391   0.499   1.349
  193SOL    HW2  600   0.351   0.526   1.194
  194SOL     OW  601   0.825   1.578   0.680
  194SOL    HW1  602   0.823   1.629   0.594
  194SOL    HW2  603   0.744   1.520   0.687
  195SOL     OW  604   1.427   0.218   1.127
  195SOL    HW1  605   1.451   0.137   1.182
  195SOL    HW2  606   1.375   0.282   1.183
  196SOL     OW  607   1.010   0.029   1.148
  196SOL    HW1  608   0.925   2.996   1.106
  196SOL    HW2  609   1.082   2.960   1.135
  197SOL     OW  610   0.767   1.327   0.314
  197SOL    HW1  611   0.732   1.235   0.330
  197SOL    HW2  612   0.856   1.337   0.357
  198SOL     OW  613   0.624   1.561   1.286
  198SOL    HW1  614   0.622   1.646   1.339
  198SOL    HW2  615   0.713   1.551   1.242
  199SOL     OW  616   1.357   0.056   0.167
  199SOL    HW1  617   1.420   2.981   0.147
  199SOL    HW2  618   1.263   0.025   0.152
  200SOL     OW  619   1.295   0.461   0.683
  200SOL    HW1  620   1.239   0.544   0.688
  200SOL    HW2  621   1.295   0.415   0.772
  201SOL     OW  622   1.604   0.233   0.887
  201SOL    HW1  623   1.523   0.228   0.947
  201SOL    HW2  624   1.596   0.312   0.827
  202SOL     OW  625   0.070   1.090   0.341
  202SOL    HW1  626   0.152   1.048   0.302
  202SOL    HW2  627   2.995   1.025   0.338
  203SOL     OW  628   0.880   1.655   0.346
  203SOL    HW1  629   0.809   1.629   0.281
  203SOL    HW2  630   0.849   1.733   0.400
  204SOL     OW  631   0.240   0.643   1.975
  204SOL    HW1  632   0.168   0.606   2.034
  204SOL    HW2  633   0.228   0.607   1.882
  205SOL     OW  634   0.234   0.250   2.850
  205SOL    HW1  635   0.252   0.231   2.947
  205SOL    HW2  636   0.136   0.241   2.832
  206SOL     OW  637   0.008   0.390   2.523
  206SOL    HW1  638   2.920   0.429   2.549
  206SOL    HW2  639   2.994   0.315   2.459
  207SOL     OW  640   1.556   1.509   2.568
  207SOL    HW1  641   1.510   1.490   2.655
  207SOL    HW2  642   1.487   1.519   2.496
  208SOL     OW  643   1.133   0.701   2.563
  208SOL    HW1  644   1.186   0.784   2.545
  208SOL    HW2  645   1.081   0.712   2.647
  209SOL     OW  646   1.763   0.606   2.091
  209SOL    HW1  647   1.744   0.599   1.993
  209SOL    HW2  648   1.729   0.524   2.136
  210SOL     OW  649   0.750   1.146   2.892
  210SOL    HW1  650   0.680   1.185   2.952
  210SOL    HW2  651   0.801   1.220   2.848
  211SOL     OW  652   0.683   1.007   2.513
  211SOL    HW1  653   0.754   0.991   2.582
  211SOL    HW2  654   0.607   1.058   2.553
  212SOL     OW  655   0.332   1.451   2.930
  212SOL    HW1  656   0.275   1.382   2.886
  212SOL    HW2  657   0.391   1.494   2.862
  213SOL     OW  658   1.616   0.458   2.595
  213SOL    HW1  659   1.538   0.477   2.535
  213SOL    HW2  660   1.616   0.522   2.671
  214SOL     OW  661   0.222   1.712   2.347
  214SOL    HW1  662   0.241   1.799   2.393
  214SOL    HW2  663   0.282   1.703   2.267
  215SOL     OW  664   0.252   1.448   2.388
  215SOL    HW1  665   0.221   1.543   2.386
  215SOL    HW2  666   0.190   1.394   2.446
  216SOL     OW  667   0.241   1.085   2.753
  216SOL    HW1  668   0.259   0.995   2.794
  216SOL    HW2  669   0.191   1.142   2.818
  217SOL     OW  670   0.588   0.983   1.996
  217SOL    HW1  671   0.631   1.035   1.922
  217SOL    HW2  672   0.629   1.009   2.083
  218SOL     OW  673   0.124   0.627   2.436
  218SOL    HW1  674   0.083   0.544   2.472
  218SOL    HW2  675   0.120   0.699   2.506
  219SOL     OW  676   1.843   1.761   2.198
  219SOL    HW1  677   1.903   1.728   2.271
  219SOL    HW2  678   1.867   1.856   2.176
  220SOL     OW  679   0.027   1.596   1.999
  220SOL    HW1  680   0.021   1.497   2.007
  220SOL    HW2  681   2.975   1.639   2.073
  221SOL     OW  682   1.690   0.920   2.500
  221SOL    HW1  683   1.778   0.875   2.486
  221SOL    HW2  684   1.666   0.973   2.419
  222SOL     OW  685   1.647   1.108   2.293
  222SOL    HW1  686   1.735   1.112   2.245
  222SOL    HW2  687   1.649   1.172   2.370
  223SOL     OW  688   0.607   1.381   2.593
  223SOL    HW1  689   0.559   1.295   2.605
  223SOL    HW2  690   0.594   1.413   2.499
  224SOL     OW  691   0.819   0.015   2.372
  224SOL    HW1  692   0.856   0.105   2.350
  224SOL    HW2  693   0.720   0.016   2.359
  225SOL     OW  694   1.535   0.989   2.064
  225SOL    HW1  695   1.460   0.928   2.088
  225SOL    HW2  696   1.575   1.028   2.146
  226SOL     OW  697   1.432   1.422   2.799
  226SOL    HW1  698   1.419   1.430   2.898
  226SOL    HW2  699   1.440   1.326   2.774
  227SOL     OW  700   1.658   1.733   2.440
  227SOL    HW1  701   1.635   1.708   2.346
  227SOL    HW2  702   1.633   1.659   2.501
  228SOL     OW  703   0.597   0.724   2.127
  228SOL    HW1  704   0.607   0.805   2.070
  228SOL    HW2  705   0.528   0.741   2.198
  229SOL     OW  706   1.294   0.336   2.808
  229SOL    HW1  707   1.195   0.323   2.797
  229SOL    HW2  708   1.323   0.301   2.897
  230SOL     OW  709   1.585   1.667   2.172
  230SOL    HW1  710   1.678   1.704   2.169
  230SOL    HW2  711   1.553   1.651   2.079
  231SOL     OW  712   1.047   0.698   2.290
  231SOL    HW1  713   1.066   0.693   2.388
  231SOL    HW2  714   0.962   0.649   2.270
  232SOL     OW  715   0.106   0.817   2.625
  232SOL    HW1  716   0.188   0.813   2.682
  232SOL    HW2  717   0.040   0.880   2.667
  233SOL     OW  718   0.872   0.357   2.050
  233SOL    HW1  719   0.932   0.418   1.999
  233SOL    HW2  720   0.902   0.263   2.037
  234SOL     OW  721   1.376   1.144   2.401
  234SOL    HW1  722   1.458   1.124   2.348
  234SOL    HW2  723   1.319   1.210   2.352
  235SOL     OW  724   0.557   0.202   2.835
  235SOL    HW1  725   0.503   0.274   2.877
  235SOL    HW2  726   0.580   0.227   2.741
  236SOL     OW  727   1.004   1.444   2.333
  236SOL    HW1  728   0.964   1.521   2.283
  236SOL    HW2  729   0.993   1.459   2.432
  237SOL     OW  730   0.356   1.803   2.715
  237SOL    HW1  731   0.402   1.716   2.729
  237SOL    HW2  732   0.417   1.878   2.738
  238SOL     OW  733   1.804   1.060   2.719
  238SOL    HW1  734   1.746   1.040   2.640
  238SOL    HW2  735   1.748   1.063   2.802
  239SOL     OW  736   0.316   0.948   2.107
  239SOL    HW1  737   0.403   0.979   2.069
  239SOL    HW2  738   0.293   0.859   2.068
  240SOL     OW  739   1.476   0.746   2.588
  240SOL    HW1  740   1.470   0.688   2.669
  240SOL    HW2  741   1.559   0.801   2.591
  241SOL     OW  742   1.117   1.778   2.095
  241SOL    HW1  743   1.042   1.739   2.148
  241SOL    HW2  744   1.146   1.713   2.025
  242SOL     OW  745   1.631   1.380   1.939
  242SOL    HW1  746   1.590   1.471   1.938
  242SOL    HW2  747   1.558   1.311   1.938
  243SOL     OW  748   0.467   1.738   2.181
  243SOL    HW1  749   0.505   1.799   2.251
  243SOL    HW2  750   0.541   1.706   2.121
  244SOL     OW  751   1.410   0.111   2.293
  244SOL    HW1  752   1.391   0.076   2.201
  244SOL    HW2  753   1.508   0.129   2.302
  245SOL     OW  754   0.264   1.799   0.098
  245SOL    HW1  755   0.307   1.729   0.156
  245SOL    HW2  756   0.201   1.755   0.034
  246SOL     OW  757   0.942   1.691   2.755
  246SOL    HW1  758   1.028   1.640   2.762
  246SOL    HW2  759   0.884   1.649   2.685
  247SOL     OW  760   0.392   0.689   2.339
  247SOL    HW1  761   0.428   0.596   2.353
  247SOL    HW2  762   0.295   0.691   2.362
  248SOL     OW  763   0.626   0.120   1.975
  248SOL    HW1  764   0.719   0.084   1.976
  248SOL    HW2  765   0.584   0.101   1.886
  249SOL     OW  766   0.807   1.396   2.789
  249SOL    HW1  767   0.899   1.389   2.750
  249SOL    HW2  768   0.739   1.391   2.716
  250SOL     OW  769   0.920   0.517   2.757
  250SOL    HW1  770   0.900   0.499   2.661
  250SOL    HW2  771   0.953   0.433   2.801
  251SOL     OW  772   0.542   0.060   2.366
  251SOL    HW1  773   0.452   0.042   2.405
  251SOL    HW2  774   0.536   0.133   2.299
  252SOL     OW  775   1.428   1.204   1.931
  252SOL    HW1  776   1.454   1.120   1.979
  252SOL    HW2  777   1.334   1.228   1.955
  253SOL     OW  778   0.291   0.032   2.053
  253SOL    HW1  779   0.338   0.113   2.019
  253SOL    HW2  780   0.357   2.967   2.090
  254SOL     OW  781   0.941   0.254   2.324
  254SOL    HW1  782   0.906   0.302   2.244
  254SOL    HW2  783   1.041   0.265   2.328
  255SOL     OW  784   1.219   1.584   2.672
  255SOL    HW1  785   1.242   1.644   2.596
  255SOL    HW2  786   1.303   1.558   2.720
  256SOL     OW  787   0.461   1.145   2.601
  256SOL    HW1  788   0.387   1.128   2.666
  256SOL    HW2  789   0.426   1.131   2.508
  257SOL     OW  790   1.270   1.794   2.466
  257SOL    HW1  791   1.318   1.856   2.405
  257SOL    HW2  792   1.200   1.845   2.516
  258SOL     OW  793   1.021   0.548   1.887
  258SOL    HW1  794   0.979   0.636   1.864
  258SOL    HW2  795   1.091   0.563   1.957
  259SOL     OW  796   0.872   0.467   2.497
  259SOL    HW1  797   0.821   0.523   2.431
  259SOL    HW2  798   0.890   0.377   2.458
  260SOL     OW  799   0.996   0.050   2.622
  260SOL    HW1  800   0.961   0.061   2.529
  260SOL    HW2  801   0.975   2.957   2.655
  261SOL     OW  802   1.440   1.161   2.712
  261SOL    HW1  803   1.361   1.099   2.711
  261SOL    HW2  804   1.470   1.178   2.618
  262SOL     OW  805   1.488   0.584   2.818
  262SOL    HW1  806   1.419   0.511   2.822
  262SOL    HW2  807   1.510   0.613   2.911
  263SOL     OW  808   1.849   0.816   2.242
  263SOL    HW1  809   1.907   0.764   2.306
  263SOL    HW2  810   1.814   0.754   2.172
  264SOL     OW  811   0.491   1.412   2.025
  264SOL    HW1  812   0.410   1.384   2.077
  264SOL    HW2  813   0.473   1.401   1.927
  265SOL     OW  814   1.669   1.267   2.509
  265SOL    HW1  815   1.769   1.268   2.520
  265SOL    HW2  816   1.632   1.357   2.531
  266SOL     OW  817   1.391   0.573   1.934
  266SOL    HW1  818   1.328   0.554   2.009
  266SOL    HW2  819   1.482   0.539   1.958
  267SOL     OW  820   0.528   0.265   2.181
  267SOL    HW1  821   0.567   0.207   2.110
  267SOL    HW2  822   0.506   0.355   2.143
  268SOL     OW  823   1.650   1.105   2.932
  268SOL    HW1  824   1.656   1.176   0.003
  268SOL    HW2  825   1.561   1.111   2.886
  269SOL     OW  826   0.709   1.056   2.234
  269SOL    HW1  827   0.693   1.045   2.333
  269SOL    HW2  828   0.789   1.003   2.207
  270SOL     OW  829   0.352   1.110   2.352
  270SOL    HW1  830   0.356   1.189   2.291
  270SOL    HW2  831   0.356   1.026   2.298
  271SOL     OW  832   0.545   0.551   2.731
  271SOL    HW1  833   0.565   0.600   2.647
  271SOL    HW2  834   0.618   0.568   2.798
  272SOL     OW  835   1.247   1.349   2.258
  272SOL    HW1  836   1.307   1.424   2.285
  272SOL    HW2  837   1.153   1.370   2.287
  273SOL     OW  838   1.582   0.626   2.339
  273SOL    HW1  839   1.534   0.682   2.406
  273SOL    HW2  840   1.628   0.686   2.273
  274SOL     OW  841   0.578   0.872   2.880
  274SOL    HW1  842   0.622   0.957   2.850
  274SOL    HW2  843   0.549   0.882   2.975
  275SOL     OW  844   1.207   0.534   2.133
  275SOL    HW1  845   1.215   0.448   2.183
  275SOL    HW2  846   1.161   0.601   2.191
  276SOL     OW  847   0.731   0.641   2.915
  276SOL    HW1  848   0.801   0.610   2.851
  276SOL    HW2  849   0.693   0.729   2.884
  277SOL     OW  850   0.309   0.071   2.507
  277SOL    HW1  851   0.304   0.164   2.545
  277SOL    HW2  852   0.281   0.005   2.577
  278SOL     OW  853   1.613   0.377   2.231
  278SOL    HW1  854   1.652   0.308   2.293
  278SOL    HW2  855   1.590   0.459   2.284
  279SOL     OW  856   1.018   0.760   2.817
  279SOL    HW1  857   1.022   0.773   2.916
  279SOL    HW2  858   0.990   0.666   2.797
  280SOL     OW  859   1.529   0.272   1.999
  280SOL    HW1  860   1.462   0.202   2.023
  280SOL    HW2  861   1.566   0.313   2.082
  281SOL     OW  862   1.296   0.827   1.896
  281SOL    HW1  863   1.336   0.736   1.904
  281SOL    HW2  864   1.320   0.867   1.807
  282SOL     OW  865   1.052   1.349   2.694
  282SOL    HW1  866   1.063   1.261   2.647
  282SOL    HW2  867   1.131   1.408   2.675
  283SOL     OW  868   0.313   0.811   2.810
  283SOL    HW1  869   0.411   0.833   2.807
  283SOL    HW2  870   0.301   0.718   2.845
  284SOL     OW  871   0.320   0.519   2.874
  284SOL    HW1  872   0.284   0.428   2.852
  284SOL    HW2  873   0.402   0.536   2.819
  285SOL     OW  874   2.994   1.318   2.043
  285SOL    HW1  875   2.899   1.326   2.012
  285SOL    HW2  876   0.005   1.233   2.094
  286SOL     OW  877   0.097   1.816   2.810
  286SOL    HW1  878   0.054   1.736   2.768
  286SOL    HW2  879   0.192   1.823   2.780
  287SOL     OW  880   0.504   1.576   2.761
  287SOL    HW1  881   0.574   1.642   2.787
  287SOL    HW2  882   0.545   1.505   2.704
  288SOL     OW  883   0.976   0.753   0.084
  288SOL    HW1  884   1.033   0.754   0.167
  288SOL    HW2  885   0.881   0.772   0.109
  289SOL     OW  886   0.814   0.571   2.215
  289SOL    HW1  887   0.822   0.492   2.154
  289SOL    HW2  888   0.738   0.628   2.187
  290SOL     OW  889   0.696   0.439   0.088
  290SOL    HW1  890   0.598   0.427   0.101
  290SOL    HW2  891   0.712   0.519   0.030
  291SOL     OW  892   0.465   0.497   2.052
  291SOL    HW1  893   0.532   0.569   2.071
  291SOL    HW2  894   0.375   0.537   2.039
  292SOL     OW  895   1.308   0.856   2.167
  292SOL    HW1  896   1.230   0.828   2.222
  292SOL    HW2  897   1.288   0.843   2.070
  293SOL     OW  898   1.738   1.766   2.971
  293SOL    HW1  899   1.814   1.793   2.913
  293SOL    HW2  900   1.765   1.687   0.027
  294SOL     OW  901   0.073   1.251   2.902
  294SOL    HW1  902   0.047   1.275   2.996
  294SOL    HW2  903   0.003   1.281   2.838
  295SOL     OW  904   1.718   0.143   2.362
  295SOL    HW1  905   1.783   0.140   2.286
  295SOL    HW2  906   1.729   0.063   2.420
  296SOL     OW  907   1.393   1.570   2.346
  296SOL    HW1  908   1.457   1.598   2.275
  296SOL    HW2  909   1.340   1.649   2.377
  297SOL     OW  910   1.279   0.926   2.528
  297SOL    HW1  911   1.353   0.860   2.542
  297SOL    HW2  912   1.313   1.004   2.475
  298SOL     OW  913   0.671   1.615   2.017
  298SOL    HW1  914   0.682   1.631   1.919
  298SOL    HW2  915   0.615   1.533   2.031
  299SOL     OW  916   1.851   0.161   2.812
  299SOL    HW1  917   1.855   0.069   2.772
  299SOL    HW2  918   1.763   0.203   2.793
  300SOL     OW  919   0.270   0.333   2.598
  300SOL    HW1  920   0.178   0.367   2.583
  300SOL    HW2  921   0.278   0.300   2.692
  301SOL     OW  922   1.202   1.602   1.911
  301SOL    HW1  923   1.197   1.505   1.935
  301SOL    HW2  924   1.153   1.617   1.825
  302SOL     OW  925   0.918   0.910   2.149
  302SOL    HW1  926   0.980   0.945   2.080
  302SOL    HW2  927   0.962   0.836   2.200
  303SOL     OW  928   1.492   1.624   1.910
  303SOL    HW1  929   1.393   1.616   1.903
  303SOL    HW2  930   1.531   1.640   1.819
  304SOL     OW  931   1.052   1.103   2.573
  304SOL    HW1  932   0.976   1.052   2.612
  304SOL    HW2  933   1.117   1.039   2.532
  305SOL     OW  934   1.021   0.247   2.810
  305SOL    HW1  935   1.012   0.178   2.738
  305SOL    HW2  936   1.050   0.203   2.895
  306SOL     OW  937   0.602   1.487   2.343
  306SOL    HW1  938   0.646   1.434   2.271
  306SOL    HW2  939   0.531   1.545   2.303
  307SOL     OW  940   0.251   1.347   2.144
  307SOL    HW1  941   0.154   1.341   2.123
  307SOL    HW2  942   0.263   1.387   2.234
  308SOL     OW  943   0.098   0.327   1.911
  308SOL    HW1  944   0.011   0.292   1.877
  308SOL    HW2  945   0.118   0.415   1.868
  309SOL     OW  946   0.017   0.215   2.142
  309SOL    HW1  947   0.061   0.267   2.068
  309SOL    HW2  948   0.074   0.137   2.166
  310SOL     OW  949   1.185   1.341   1.987
  310SOL    HW1  950   1.092   1.306   1.973
  310SOL    HW2  951   1.206   1.339   2.085
  311SOL     OW  952   1.507   1.782   2.832
  311SOL    HW1  953   1.515   1.834   2.746
  311SOL    HW2  954   1.593   1.788   2.883
  312SOL     OW  955   1.714   0.848   0.060
  312SOL    HW1  956   1.636   0.808   0.109
  312SOL    HW2  957   1.695   0.944   0.039
  313SOL     OW  958   1.225   0.316   2.319
  313SOL    HW1  959   1.289   0.239   2.314
  313SOL    HW2  960   1.246   0.372   2.399
  314SOL     OW  961   0.590   0.742   2.526
  314SOL    HW1  962   0.634   0.831   2.514
  314SOL    HW2  963   0.516   0.732   2.460
  315SOL     OW  964   0.859   1.373   1.895
  315SOL    HW1  965   0.819   1.383   1.986
  315SOL    HW2  966   0.874   1.464   1.856
  316SOL     OW  967   0.664   1.795   2.822
  316SOL    HW1  968   0.637   1.886   2.790
  316SOL    HW2  969   0.762   1.782   2.804
  317SOL     OW  970   0.863   0.966   2.717
  317SOL    HW1  971   0.916   0.890   2.754
  317SOL    HW2  972   0.830   1.023   2.792
  318SOL     OW  973   1.080   0.988   1.950
  318SOL    HW1  974   1.052   1.042   1.870
  318SOL    HW2  975   1.160   0.932   1.925
  319SOL     OW  976   1.853   1.558   2.714
  319SOL    HW1  977   1.776   1.545   2.651
  319SOL    HW2  978   1.865   1.476   2.769
  320SOL     OW  979   0.130   1.247   2.518
  320SOL    HW1  980   0.091   1.184   2.586
  320SOL    HW2  981   0.191   1.196   2.458
  321SOL     OW  982   1.808   0.186   0.080
  321SOL    HW1  983   1.834   0.102   0.127
  321SOL    HW2  984   1.829   0.177   2.982
  322SOL     OW  985   0.460   0.432   2.403
  322SOL    HW1  986   0.459   0.365   2.329
  322SOL    HW2  987   0.408   0.397   2.481
  323SOL     OW  988   0.818   1.586   2.540
  323SOL    HW1  989   0.821   1.627   2.449
  323SOL    HW2  990   0.741   1.522   2.544
  324SOL     OW  991   0.773   1.330   2.172
  324SOL    HW1  992   0.737   1.237   2.179
  324SOL    HW2  993   0.859   1.337   2.223
  325SOL     OW  994   1.347   0.046   2.029
  325SOL    HW1  995   1.418   2.984   1.996
  325SOL    HW2  996   1.260   2.997   2.034
  326SOL     OW  997   1.296   0.458   2.549
  326SOL    HW1  998   1.240   0.541   2.553
  326SOL    HW2  999   1.295   0.413   2.638
  327SOL     OW 1000   1.600   0.237   2.749
  327SOL    HW1 1001   1.507   0.224   2.784
  327SOL    HW2 1002   1.602   0.315   2.686
  328SOL     OW 1003   0.065   1.080   2.160
  328SOL    HW1 1004   0.158   1.043   2.161
  328SOL    HW2 1005   0.002   1.014   2.200
  329SOL     OW 1006   0.878   1.653   2.210
  329SOL    HW1 1007   0.808   1.630   2.142
  329SOL    HW2 1008   0.850   1.733   2.262
  330SOL     OW 1009   0.238   2.513   0.099
  330SOL    HW1 1010   0.167   2.469   0.155
  330SOL    HW2 1011   0.253   2.459   0.016
  331SOL     OW 1012   0.211   2.137   0.991
  331SOL    HW1 1013   0.247   2.107   1.080
  331SOL    HW2 1014   0.119   2.100   0.978
  332SOL     OW 1015   0.016   2.250   0.644
  332SOL    HW1 1016   2.928   2.290   0.670
  332SOL    HW2 1017   0.002   2.163   0.598
  333SOL     OW 1018   1.134   2.570   0.701
  333SOL    HW1 1019   1.184   2.656   0.690
  333SOL    HW2 1020   1.079   2.574   0.784
  334SOL     OW 1021   1.759   2.455   0.226
  334SOL    HW1 1022   1.749   2.438   0.128
  334SOL    HW2 1023   1.724   2.377   0.278
  335SOL     OW 1024   0.760   0.011   1.029
  335SOL    HW1 1025   0.673   0.039   1.071
  335SOL    HW2 1026   0.786   0.078   0.960
  336SOL     OW 1027   0.866   2.638   1.821
  336SOL    HW1 1028   0.845   2.700   1.896
  336SOL    HW2 1029   0.891   2.690   1.740
  337SOL     OW 1030   0.653   2.851   0.713
  337SOL    HW1 1031   0.751   2.853   0.728
  337SOL    HW2 1032   0.626   2.932   0.660
  338SOL     OW 1033   0.473   2.270   1.487
  338SOL    HW1 1034   0.549   2.205   1.489
  338SOL    HW2 1035   0.387   2.222   1.503
  339SOL     OW 1036   1.614   2.311   0.740
  339SOL    HW1 1037   1.534   2.334   0.685
  339SOL    HW2 1038   1.636   2.387   0.801
  340SOL     OW 1039   0.211   0.316   0.462
  340SOL    HW1 1040   0.228   0.393   0.522
  340SOL    HW2 1041   0.202   0.232   0.516
  341SOL     OW 1042   0.234   2.942   0.877
  341SOL    HW1 1043   0.259   2.856   0.921
  341SOL    HW2 1044   0.203   0.007   0.946
  342SOL     OW 1045   0.617   2.832   0.151
  342SOL    HW1 1046   0.595   2.927   0.127
  342SOL    HW2 1047   0.683   2.831   0.226
  343SOL     OW 1048   0.114   2.499   0.566
  343SOL    HW1 1049   0.092   2.407   0.599
  343SOL    HW2 1050   0.114   2.563   0.643
  344SOL     OW 1051   1.702   2.806   0.626
  344SOL    HW1 1052   1.782   2.748   0.637
  344SOL    HW2 1053   1.685   2.822   0.529
  345SOL     OW 1054   0.129   2.609   1.589
  345SOL    HW1 1055   0.228   2.615   1.592
  345SOL    HW2 1056   0.088   2.698   1.609
  346SOL     OW 1057   0.658   0.243   0.686
  346SOL    HW1 1058   0.593   0.174   0.718
  346SOL    HW2 1059   0.611   0.305   0.623
  347SOL     OW 1060   1.305   0.053   1.441
  347SOL    HW1 1061   1.325   2.988   1.368
  347SOL    HW2 1062   1.388   0.102   1.467
  348SOL     OW 1063   0.812   1.865   0.506
  348SOL    HW1 1064   0.858   1.952   0.490
  348SOL    HW2 1065   0.714   1.879   0.515
  349SOL     OW 1066   0.192   2.835   1.258
  349SOL    HW1 1067   0.279   2.787   1.251
  349SOL    HW2 1068   0.117   2.774   1.231
  350SOL     OW 1069   1.522   2.845   0.208
  350SOL    HW1 1070   1.449   2.796   0.256
  350SOL    HW2 1071   1.596   2.865   0.271
  351SOL     OW 1072   0.337   2.112   1.811
  351SOL    HW1 1073   0.391   2.195   1.826
  351SOL    HW2 1074   0.246   2.123   1.850
  352SOL     OW 1075   0.594   2.583   0.273
  352SOL    HW1 1076   0.598   2.665   0.216
  352SOL    HW2 1077   0.522   2.594   0.342
  353SOL     OW 1078   1.278   2.209   0.932
  353SOL    HW1 1079   1.184   2.177   0.937
  353SOL    HW2 1080   1.335   2.158   0.997
  354SOL     OW 1081   0.792   2.475   1.454
  354SOL    HW1 1082   0.765   2.455   1.548
  354SOL    HW2 1083   0.749   2.409   1.392
  355SOL     OW 1084   1.393   2.334   1.678
  355SOL    HW1 1085   1.392   2.381   1.766
  355SOL    HW2 1086   1.459   2.258   1.682
  356SOL     OW 1087   0.959   2.757   1.590
  356SOL    HW1 1088   1.015   2.683   1.553
  356SOL    HW2 1089   0.902   2.795   1.517
  357SOL     OW 1090   0.993   2.275   1.234
  357SOL    HW1 1091   0.910   2.299   1.283
  357SOL    HW2 1092   0.970   2.220   1.154
  358SOL     OW 1093   1.049   2.566   0.424
  358SOL    HW1 1094   1.067   2.561   0.522
  358SOL    HW2 1095   0.965   2.517   0.402
  359SOL     OW 1096   0.105   2.671   0.769
  359SOL    HW1 1097   0.185   2.674   0.828
  359SOL    HW2 1098   0.042   2.745   0.795
  360SOL     OW 1099   0.926   2.194   0.222
  360SOL    HW1 1100   0.939   2.260   0.148
  360SOL    HW2 1101   0.896   2.107   0.184
  361SOL     OW 1102   1.710   2.438   1.824
  361SOL    HW1 1103   1.671   2.517   1.778
  361SOL    HW2 1104   1.734   2.368   1.757
  362SOL     OW 1105   0.545   2.044   0.895
  362SOL    HW1 1106   0.551   2.070   0.991
  362SOL    HW2 1107   0.550   2.125   0.838
  363SOL     OW 1108   1.795   2.906   0.867
  363SOL    HW1 1109   1.742   2.888   0.785
  363SOL    HW2 1110   1.734   2.916   0.945
  364SOL     OW 1111   1.484   2.601   0.726
  364SOL    HW1 1112   1.461   2.547   0.807
  364SOL    HW2 1113   1.559   2.663   0.747
  365SOL     OW 1114   0.232   2.166   1.509
  365SOL    HW1 1115   0.151   2.214   1.475
  365SOL    HW2 1116   0.205   2.083   1.556
  366SOL     OW 1117   1.403   1.967   0.429
  366SOL    HW1 1118   1.391   1.945   0.332
  366SOL    HW2 1119   1.500   1.980   0.448
  367SOL     OW 1120   0.388   2.552   0.475
  367SOL    HW1 1121   0.415   2.456   0.485
  367SOL    HW2 1122   0.291   2.562   0.497
  368SOL     OW 1123   1.538   2.098   1.730
  368SOL    HW1 1124   1.540   2.112   1.829
  368SOL    HW2 1125   1.479   2.020   1.709
  369SOL     OW 1126   0.627   1.983   0.118
  369SOL    HW1 1127   0.725   1.962   0.121
  369SOL    HW2 1128   0.585   1.934   0.042
  370SOL     OW 1129   0.765   2.139   1.754
  370SOL    HW1 1130   0.845   2.078   1.757
  370SOL    HW2 1131   0.710   2.126   1.836
  371SOL     OW 1132   1.341   2.451   1.435
  371SOL    HW1 1133   1.372   2.412   1.522
  371SOL    HW2 1134   1.378   2.543   1.424
  372SOL     OW 1135   0.927   2.371   0.900
  372SOL    HW1 1136   0.901   2.362   0.804
  372SOL    HW2 1137   0.961   2.282   0.933
  373SOL     OW 1138   0.545   1.924   0.503
  373SOL    HW1 1139   0.462   1.924   0.558
  373SOL    HW2 1140   0.545   2.004   0.443
  374SOL     OW 1141   0.945   2.104   0.473
  374SOL    HW1 1142   0.915   2.143   0.386
  374SOL    HW2 1143   1.044   2.115   0.483
  375SOL     OW 1144   1.079   2.546   1.458
  375SOL    HW1 1145   1.001   2.483   1.467
  375SOL    HW2 1146   1.164   2.493   1.453
  376SOL     OW 1147   1.048   2.358   0.030
  376SOL    HW1 1148   0.999   2.443   0.015
  376SOL    HW2 1149   1.113   2.370   0.105
  377SOL     OW 1150   0.090   2.416   1.400
  377SOL    HW1 1151   0.178   2.419   1.352
  377SOL    HW2 1152   0.087   2.490   1.468
  378SOL     OW 1153   0.561   2.086   1.165
  378SOL    HW1 1154   0.605   2.004   1.200
  378SOL    HW2 1155   0.465   2.087   1.193
  379SOL     OW 1156   0.870   2.322   0.638
  379SOL    HW1 1157   0.818   2.383   0.578
  379SOL    HW2 1158   0.893   2.238   0.589
  380SOL     OW 1159   1.016   1.912   0.751
  380SOL    HW1 1160   0.954   1.913   0.672
  380SOL    HW2 1161   0.993   1.836   0.811
  381SOL     OW 1162   1.429   2.992   0.874
  381SOL    HW1 1163   1.360   2.932   0.834
  381SOL    HW2 1164   1.453   0.063   0.808
  382SOL     OW 1165   1.468   2.463   0.982
  382SOL    HW1 1166   1.414   2.379   0.982
  382SOL    HW2 1167   1.533   2.461   1.058
  383SOL     OW 1168   1.830   2.663   0.389
  383SOL    HW1 1169   1.895   2.616   0.449
  383SOL    HW2 1170   1.812   2.607   0.309
  384SOL     OW 1171   1.411   2.436   0.102
  384SOL    HW1 1172   1.336   2.428   0.167
  384SOL    HW2 1173   1.465   2.352   0.102
  385SOL     OW 1174   0.522   2.126   0.323
  385SOL    HW1 1175   0.561   2.070   0.250
  385SOL    HW2 1176   0.499   2.216   0.287
  386SOL     OW 1177   1.782   0.079   1.590
  386SOL    HW1 1178   1.873   0.042   1.571
  386SOL    HW2 1179   1.791   0.168   1.633
  387SOL     OW 1180   1.626   2.955   1.076
  387SOL    HW1 1181   1.648   0.041   1.123
  387SOL    HW2 1182   1.548   2.970   1.015
  388SOL     OW 1183   0.921   1.960   1.398
  388SOL    HW1 1184   0.940   1.937   1.302
  388SOL    HW2 1185   1.002   2.004   1.438
  389SOL     OW 1186   0.416   2.678   1.254
  389SOL    HW1 1187   0.490   2.688   1.320
  389SOL    HW2 1188   0.377   2.586   1.262
  390SOL     OW 1189   1.265   2.242   1.273
  390SOL    HW1 1190   1.303   2.319   1.324
  390SOL    HW2 1191   1.171   2.261   1.246
  391SOL     OW 1192   0.555   2.403   0.863
  391SOL    HW1 1193   0.570   2.459   0.781
  391SOL    HW2 1194   0.621   2.429   0.934
  392SOL     OW 1195   1.578   2.487   0.475
  392SOL    HW1 1196   1.536   2.541   0.548
  392SOL    HW2 1197   1.639   2.546   0.422
  393SOL     OW 1198   0.412   2.599   1.602
  393SOL    HW1 1199   0.471   2.651   1.541
  393SOL    HW2 1200   0.456   2.512   1.624
  394SOL     OW 1201   1.599   2.640   1.680
  394SOL    HW1 1202   1.506   2.677   1.676
  394SOL    HW2 1203   1.655   2.683   1.609
  395SOL     OW 1204   0.993   1.988   1.758
  395SOL    HW1 1205   1.051   2.063   1.726
  395SOL    HW2 1206   1.035   1.901   1.734
  396SOL     OW 1207   0.497   1.903   1.745
  396SOL    HW1 1208   0.457   1.843   1.676
  396SOL    HW2 1209   0.436   1.981   1.762
  397SOL     OW 1210   0.592   2.727   1.040
  397SOL    HW1 1211   0.599   2.821   1.006
  397SOL    HW2 1212   0.522   2.723   1.112
  398SOL     OW 1213   1.349   2.712   1.032
  398SOL    HW1 1214   1.275   2.710   0.966
  398SOL    HW2 1215   1.398   2.625   1.032
  399SOL     OW 1216   1.202   2.393   0.273
  399SOL    HW1 1217   1.212   2.305   0.319
  399SOL    HW2 1218   1.154   2.457   0.333
  400SOL     OW 1219   0.300   2.065   1.243
  400SOL    HW1 1220   0.282   2.100   1.334
  400SOL    HW2 1221   0.285   1.966   1.242
  401SOL     OW 1222   0.054   0.169   1.270
  401SOL    HW1 1223   0.084   0.131   1.357
  401SOL    HW2 1224   0.006   0.255   1.286
  402SOL     OW 1225   0.730   2.493   1.061
  402SOL    HW1 1226   0.802   2.471   0.994
  402SOL    HW2 1227   0.693   2.584   1.041
  403SOL     OW 1228   1.733   2.820   1.843
  403SOL    HW1 1229   1.687   2.756   1.781
  403SOL    HW2 1230   1.677   2.832   1.925
  404SOL     OW 1231   0.301   1.930   0.625
  404SOL    HW1 1232   0.285   2.026   0.649
  404SOL    HW2 1233   0.312   1.876   0.709
  405SOL     OW 1234   1.622   2.237   0.369
  405SOL    HW1 1235   1.647   2.165   0.433
  405SOL    HW2 1236   1.590   2.318   0.419
  406SOL     OW 1237   1.025   2.615   0.967
  406SOL    HW1 1238   1.027   2.635   1.065
  406SOL    HW2 1239   0.997   2.520   0.952
  407SOL     OW 1240   0.358   2.786   1.794
  407SOL    HW1 1241   0.420   2.786   1.873
  407SOL    HW2 1242   0.382   2.711   1.733
  408SOL     OW 1243   1.504   2.165   0.129
  408SOL    HW1 1244   1.460   2.075   0.139
  408SOL    HW2 1245   1.560   2.184   0.209
  409SOL     OW 1246   1.296   2.683   0.039
  409SOL    HW1 1247   1.337   2.593   0.052
  409SOL    HW2 1248   1.323   2.718   2.949
  410SOL     OW 1249   0.314   2.676   0.950
  410SOL    HW1 1250   0.412   2.689   0.932
  410SOL    HW2 1251   0.299   2.584   0.986
  411SOL     OW 1252   0.335   2.377   1.014
  411SOL    HW1 1253   0.292   2.289   0.995
  411SOL    HW2 1254   0.414   2.389   0.953
  412SOL     OW 1255   1.136   2.239   1.686
  412SOL    HW1 1256   1.084   2.297   1.750
  412SOL    HW2 1257   1.229   2.274   1.678
  413SOL     OW 1258   1.155   2.075   1.471
  413SOL    HW1 1259   1.148   2.137   1.549
  413SOL    HW2 1260   1.199   2.122   1.395
  414SOL     OW 1261   0.980   2.670   1.234
  414SOL    HW1 1262   1.038   2.638   1.309
  414SOL    HW2 1263   0.896   2.617   1.232
  415SOL     OW 1264   0.049   2.440   1.117
  415SOL    HW1 1265   0.125   2.393   1.072
  415SOL    HW2 1266   0.032   2.398   1.207
  416SOL     OW 1267   0.196   2.381   1.722
  416SOL    HW1 1268   0.265   2.343   1.660
  416SOL    HW2 1269   0.157   2.464   1.682
  417SOL     OW 1270   1.377   2.804   1.660
  417SOL    HW1 1271   1.402   2.900   1.666
  417SOL    HW2 1272   1.372   2.775   1.565
  418SOL     OW 1273   0.820   2.440   0.348
  418SOL    HW1 1274   0.824   2.356   0.293
  418SOL    HW2 1275   0.737   2.490   0.327
  419SOL     OW 1276   1.645   2.466   1.190
  419SOL    HW1 1277   1.628   2.404   1.266
  419SOL    HW2 1278   1.735   2.447   1.150
  420SOL     OW 1279   0.698   2.315   1.260
  420SOL    HW1 1280   0.644   2.235   1.232
  420SOL    HW2 1281   0.699   2.381   1.185
  421SOL     OW 1282   0.439   2.359   0.211
  421SOL    HW1 1283   0.518   2.419   0.222
  421SOL    HW2 1284   0.359   2.413   0.187
  422SOL     OW 1285   0.158   0.007   1.469
  422SOL    HW1 1286   0.146   2.956   1.555
  422SOL    HW2 1287   0.174   2.943   1.394
  423SOL     OW 1288   1.346   2.905   1.220
  423SOL    HW1 1289   1.363   2.840   1.146
  423SOL    HW2 1290   1.274   2.968   1.192
  424SOL     OW 1291   1.299   2.722   0.312
  424SOL    HW1 1292   1.224   2.679   0.362
  424SOL    HW2 1293   1.291   2.700   0.215
  425SOL     OW 1294   0.898   1.938   0.127
  425SOL    HW1 1295   0.944   1.921   0.040
  425SOL    HW2 1296   0.950   1.895   0.201
  426SOL     OW 1297   1.712   2.002   0.508
  426SOL    HW1 1298   1.796   1.999   0.453
  426SOL    HW2 1299   1.698   1.914   0.553
  427SOL     OW 1300   1.294   2.793   0.683
  427SOL    HW1 1301   1.365   2.723   0.683
  427SOL    HW2 1302   1.304   2.850   0.601
  428SOL     OW 1303   1.840   2.035   0.964
  428SOL    HW1 1304   1.875   1.945   0.941
  428SOL    HW2 1305   1.749   2.047   0.926
  429SOL     OW 1306   0.267   2.180   0.722
  429SOL    HW1 1307   0.180   2.219   0.691
  429SOL    HW2 1308   0.263   2.165   0.821
  430SOL     OW 1309   0.814   2.861   1.374
  430SOL    HW1 1310   0.872   2.825   1.301
  430SOL    HW2 1311   0.837   2.957   1.391
  431SOL     OW 1312   0.903   2.794   0.286
  431SOL    HW1 1313   0.983   2.819   0.230
  431SOL    HW2 1314   0.933   2.736   0.362
  432SOL     OW 1315   1.019   2.101   0.966
  432SOL    HW1 1316   1.014   2.055   0.877
  432SOL    HW2 1317   1.016   2.032   1.039
  433SOL     OW 1318   1.724   2.260   1.378
  433SOL    HW1 1319   1.801   2.324   1.376
  433SOL    HW2 1320   1.746   2.179   1.324
  434SOL     OW 1321   0.118   2.866   1.697
  434SOL    HW1 1322   0.043   2.846   1.760
  434SOL    HW2 1323   0.205   2.850   1.742
  435SOL     OW 1324   0.679   2.059   1.498
  435SOL    HW1 1325   0.765   2.038   1.452
  435SOL    HW2 1326   0.697   2.087   1.593
  436SOL     OW 1327   0.052   2.171   0.056
  436SOL    HW1 1328   2.962   2.204   0.030
  436SOL    HW2 1329   0.122   2.233   0.019
  437SOL     OW 1330   1.433   2.717   1.403
  437SOL    HW1 1331   1.385   2.778   1.339
  437SOL    HW2 1332   1.530   2.715   1.380
  438SOL     OW 1333   0.062   2.060   0.320
  438SOL    HW1 1334   0.047   2.102   0.231
  438SOL    HW2 1335   0.129   1.987   0.312
  439SOL     OW 1336   1.139   0.213   0.093
  439SOL    HW1 1337   1.063   0.255   0.144
  439SOL    HW2 1338   1.222   0.218   0.148
  440SOL     OW 1339   0.615   2.690   1.435
  440SOL    HW1 1340   0.673   2.769   1.417
  440SOL    HW2 1341   0.672   2.608   1.445
  441SOL     OW 1342   0.719   2.426   1.707
  441SOL    HW1 1343   0.758   2.495   1.768
  441SOL    HW2 1344   0.751   2.336   1.734
  442SOL     OW 1345   1.677   2.744   1.254
  442SOL    HW1 1346   1.667   2.651   1.218
  442SOL    HW2 1347   1.657   2.810   1.182
  443SOL     OW 1348   1.223   2.179   0.462
  443SOL    HW1 1349   1.288   2.104   0.447
  443SOL    HW2 1350   1.251   2.233   0.541
  444SOL     OW 1351   0.590   2.589   0.663
  444SOL    HW1 1352   0.618   2.684   0.675
  444SOL    HW2 1353   0.517   2.584   0.595
  445SOL     OW 1354   1.760   2.221   1.645
  445SOL    HW1 1355   1.745   2.239   1.548
  445SOL    HW2 1356   1.685   2.164   1.680
  446SOL     OW 1357   1.737   2.796   1.513
  446SOL    HW1 1358   1.751   2.892   1.538
  446SOL    HW2 1359   1.728   2.788   1.414
  447SOL     OW 1360   0.891   2.830   0.865
  447SOL    HW1 1361   0.929   2.745   0.901
  447SOL    HW2 1362   0.827   2.868   0.931
  448SOL     OW 1363   1.111   2.887   0.085
  448SOL    HW1 1364   1.057   2.893   0.001
  448SOL    HW2 1365   1.176   2.811   0.077
  449SOL     OW 1366   1.809   2.045   1.237
  449SOL    HW1 1367   1.812   1.947   1.258
  449SOL    HW2 1368   1.822   2.059   1.138
  450SOL     OW 1369   0.432   2.292   0.528
  450SOL    HW1 1370   0.464   2.221   0.466
  450SOL    HW2 1371   0.381   2.250   0.604
  451SOL     OW 1372   0.336   2.416   1.288
  451SOL    HW1 1373   0.398   2.363   1.346
  451SOL    HW2 1374   0.349   2.389   1.192
  452SOL     OW 1375   1.431   2.088   1.117
  452SOL    HW1 1376   1.480   2.015   1.164
  452SOL    HW2 1377   1.376   2.139   1.183
  453SOL     OW 1378   1.008   1.882   1.144
  453SOL    HW1 1379   0.946   1.814   1.105
  453SOL    HW2 1380   1.101   1.844   1.148
  454SOL     OW 1381   1.352   1.914   0.162
  454SOL    HW1 1382   1.386   1.863   0.083
  454SOL    HW2 1383   1.263   1.877   0.189
  455SOL     OW 1384   1.298   2.325   0.685
  455SOL    HW1 1385   1.240   2.407   0.689
  455SOL    HW2 1386   1.294   2.278   0.774
  456SOL     OW 1387   1.587   2.069   0.879
  456SOL    HW1 1388   1.521   2.083   0.953
  456SOL    HW2 1389   1.589   2.151   0.821
  457SOL     OW 1390   2.999   2.884   0.283
  457SOL    HW1 1391   0.088   2.917   0.250
  457SOL    HW2 1392   0.009   2.849   0.376
  458SOL     OW 1393   0.231   2.501   1.972
  458SOL    HW1 1394   0.161   2.458   2.029
  458SOL    HW2 1395   0.224   2.465   1.879
  459SOL     OW 1396   0.234   2.125   2.839
  459SOL    HW1 1397   0.273   2.099   2.927
  459SOL    HW2 1398   0.143   2.087   2.830
  460SOL     OW 1399   0.016   2.249   2.503
  460SOL    HW1 1400   2.929   2.288   2.533
  460SOL    HW2 1401   0.001   2.158   2.465
  461SOL     OW 1402   1.136   2.570   2.563
  461SOL    HW1 1403   1.187   2.655   2.550
  461SOL    HW2 1404   1.081   2.576   2.646
  462SOL     OW 1405   1.759   2.466   2.089
  462SOL    HW1 1406   1.743   2.458   1.990
  462SOL    HW2 1407   1.728   2.383   2.134
  463SOL     OW 1408   0.784   0.012   2.877
  463SOL    HW1 1409   0.695   0.021   2.922
  463SOL    HW2 1410   0.800   0.092   2.819
  464SOL     OW 1411   0.652   2.847   2.571
  464SOL    HW1 1412   0.749   2.847   2.595
  464SOL    HW2 1413   0.629   2.932   2.523
  465SOL     OW 1414   1.618   2.312   2.595
  465SOL    HW1 1415   1.538   2.333   2.539
  465SOL    HW2 1416   1.624   2.377   2.671
  466SOL     OW 1417   0.208   0.313   2.324
  466SOL    HW1 1418   0.232   0.391   2.383
  466SOL    HW2 1419   0.205   0.230   2.379
  467SOL     OW 1420   0.235   2.944   2.743
  467SOL    HW1 1421   0.259   2.854   2.780
  467SOL    HW2 1422   0.211   0.005   2.819
  468SOL     OW 1423   0.607   2.823   1.993
  468SOL    HW1 1424   0.595   2.908   1.942
  468SOL    HW2 1425   0.670   2.839   2.070
  469SOL     OW 1426   0.116   2.498   2.427
  469SOL    HW1 1427   0.093   2.407   2.462
  469SOL    HW2 1428   0.118   2.563   2.503
  470SOL     OW 1429   1.701   2.805   2.487
  470SOL    HW1 1430   1.783   2.749   2.500
  470SOL    HW2 1431   1.686   2.820   2.389
  471SOL     OW 1432   0.624   0.245   2.573
  471SOL    HW1 1433   0.592   0.154   2.544
  471SOL    HW2 1434   0.614   0.309   2.497
  472SOL     OW 1435   0.812   1.865   2.366
  472SOL    HW1 1436   0.858   1.952   2.349
  472SOL    HW2 1437   0.714   1.881   2.378
  473SOL     OW 1438   0.215   2.805   0.103
  473SOL    HW1 1439   0.280   2.729   0.100
  473SOL    HW2 1440   0.122   2.769   0.093
  474SOL     OW 1441   1.539   2.844   2.048
  474SOL    HW1 1442   1.467   2.786   2.088
  474SOL    HW2 1443   1.601   2.874   2.120
  475SOL     OW 1444   0.597   2.581   2.130
  475SOL    HW1 1445   0.602   2.661   2.070
  475SOL    HW2 1446   0.528   2.596   2.201
  476SOL     OW 1447   1.298   2.199   2.809
  476SOL    HW1 1448   1.200   2.179   2.798
  476SOL    HW2 1449   1.328   2.170   2.900
  477SOL     OW 1450   1.050   2.561   2.289
  477SOL    HW1 1451   1.067   2.558   2.388
  477SOL    HW2 1452   0.965   2.514   2.268
  478SOL     OW 1453   0.109   2.673   2.626
  478SOL    HW1 1454   0.189   2.672   2.686
  478SOL    HW2 1455   0.041   2.737   2.661
  479SOL     OW 1456   0.887   2.210   2.056
  479SOL    HW1 1457   0.931   2.276   1.995
  479SOL    HW2 1458   0.903   2.118   2.022
  480SOL     OW 1459   0.549   2.045   2.767
  480SOL    HW1 1460   0.516   2.078   2.856
  480SOL    HW2 1461   0.560   2.123   2.705
  481SOL     OW 1462   1.796   2.907   2.729
  481SOL    HW1 1463   1.740   2.888   2.648
  481SOL    HW2 1464   1.737   2.914   2.809
  482SOL     OW 1465   1.483   2.604   2.584
  482SOL    HW1 1466   1.467   2.545   2.663
  482SOL    HW2 1467   1.562   2.663   2.602
  483SOL     OW 1468   1.402   1.968   2.292
  483SOL    HW1 1469   1.387   1.943   2.196
  483SOL    HW2 1470   1.500   1.979   2.309
  484SOL     OW 1471   0.396   2.551   2.336
  484SOL    HW1 1472   0.414   2.454   2.350
  484SOL    HW2 1473   0.299   2.570   2.354
  485SOL     OW 1474   0.629   1.985   1.967
  485SOL    HW1 1475   0.709   1.928   1.985
  485SOL    HW2 1476   0.580   1.951   1.887
  486SOL     OW 1477   0.922   2.379   2.756
  486SOL    HW1 1478   0.900   2.358   2.661
  486SOL    HW2 1479   0.961   2.298   2.799
  487SOL     OW 1480   0.546   1.925   2.365
  487SOL    HW1 1481   0.462   1.924   2.419
  487SOL    HW2 1482   0.546   2.006   2.306
  488SOL     OW 1483   0.292   1.904   2.042
  488SOL    HW1 1484   0.347   1.981   2.008
  488SOL    HW2 1485   0.351   1.838   2.087
  489SOL     OW 1486   0.940   2.106   2.324
  489SOL    HW1 1487   0.904   2.151   2.243
  489SOL    HW2 1488   1.039   2.119   2.328
  490SOL     OW 1489   1.024   2.406   1.884
  490SOL    HW1 1490   0.977   2.491   1.860
  490SOL    HW2 1491   1.092   2.424   1.955
  491SOL     OW 1492   0.868   2.318   2.498
  491SOL    HW1 1493   0.819   2.381   2.438
  491SOL    HW2 1494   0.891   2.235   2.448
  492SOL     OW 1495   1.012   1.909   2.612
  492SOL    HW1 1496   0.953   1.910   2.531
  492SOL    HW2 1497   0.991   1.829   2.668
  493SOL     OW 1498   1.424   2.997   2.736
  493SOL    HW1 1499   1.353   2.937   2.700
  493SOL    HW2 1500   1.454   0.060   2.664
  494SOL     OW 1501   1.485   2.447   2.817
  494SOL    HW1 1502   1.417   2.374   2.824
  494SOL    HW2 1503   1.512   2.477   2.909
  495SOL     OW 1504   1.837   2.665   2.251
  495SOL    HW1 1505   1.899   2.616   2.313
  495SOL    HW2 1506   1.812   2.604   2.175
  496SOL     OW 1507   1.392   2.435   1.934
  496SOL    HW1 1508   1.330   2.413   2.010
  496SOL    HW2 1509   1.484   2.403   1.956
  497SOL     OW 1510   0.529   2.126   2.180
  497SOL    HW1 1511   0.568   2.070   2.107
  497SOL    HW2 1512   0.508   2.217   2.144
  498SOL     OW 1513   1.626   2.966   2.935
  498SOL    HW1 1514   1.638   0.047   2.994
  498SOL    HW2 1515   1.548   2.981   2.874
  499SOL     OW 1516   0.552   2.400   2.726
  499SOL    HW1 1517   0.567   2.457   2.645
  499SOL    HW2 1518   0.616   2.428   2.798
  500SOL     OW 1519   1.577   2.486   2.335
  500SOL    HW1 1520   1.536   2.540   2.408
  500SOL    HW2 1521   1.636   2.544   2.279
  501SOL     OW 1522   0.577   2.726   2.884
  501SOL    HW1 1523   0.617   2.807   2.840
  501SOL    HW2 1524   0.561   2.745   2.980
  502SOL     OW 1525   1.205   2.391   2.133
  502SOL    HW1 1526   1.216   2.307   2.186
  502SOL    HW2 1527   1.157   2.460   2.188
  503SOL     OW 1528   0.327   2.060   0.079
  503SOL    HW1 1529   0.319   2.110   0.165
  503SOL    HW2 1530   0.303   1.964   0.092
  504SOL     OW 1531   0.729   2.500   2.912
  504SOL    HW1 1532   0.799   2.474   2.846
  504SOL    HW2 1533   0.690   2.588   2.886
  505SOL     OW 1534   0.302   1.930   2.485
  505SOL    HW1 1535   0.284   2.026   2.509
  505SOL    HW2 1536   0.310   1.876   2.569
  506SOL     OW 1537   1.617   2.236   2.231
  506SOL    HW1 1538   1.646   2.166   2.298
  506SOL    HW2 1539   1.591   2.319   2.280
  507SOL     OW 1540   1.023   2.617   2.821
  507SOL    HW1 1541   1.026   2.628   2.920
  507SOL    HW2 1542   0.992   2.524   2.799
  508SOL     OW 1543   1.528   2.132   1.995
  508SOL    HW1 1544   1.459   2.064   2.019
  508SOL    HW2 1545   1.565   2.173   2.078
  509SOL     OW 1546   1.294   2.687   1.895
  509SOL    HW1 1547   1.334   2.596   1.903
  509SOL    HW2 1548   1.323   2.729   1.809
  510SOL     OW 1549   0.314   2.673   2.808
  510SOL    HW1 1550   0.412   2.693   2.809
  510SOL    HW2 1551   0.298   2.581   2.843
  511SOL     OW 1552   0.320   2.384   2.867
  511SOL    HW1 1553   0.285   2.292   2.853
  511SOL    HW2 1554   0.404   2.397   2.814
  512SOL     OW 1555   0.982   2.616   0.086
  512SOL    HW1 1556   1.032   2.606   0.172
  512SOL    HW2 1557   0.886   2.634   0.106
  513SOL     OW 1558   0.818   2.433   2.215
  513SOL    HW1 1559   0.823   2.352   2.156
  513SOL    HW2 1560   0.740   2.489   2.189
  514SOL     OW 1561   0.701   2.313   0.101
  514SOL    HW1 1562   0.616   2.262   0.091
  514SOL    HW2 1563   0.705   2.386   0.033
  515SOL     OW 1564   0.464   2.358   2.050
  515SOL    HW1 1565   0.531   2.429   2.072
  515SOL    HW2 1566   0.373   2.399   2.041
  516SOL     OW 1567   1.302   2.725   2.168
  516SOL    HW1 1568   1.227   2.685   2.221
  516SOL    HW2 1569   1.289   2.704   2.071
  517SOL     OW 1570   1.717   2.003   2.369
  517SOL    HW1 1571   1.795   1.995   2.307
  517SOL    HW2 1572   1.701   1.915   2.414
  518SOL     OW 1573   1.295   2.796   2.544
  518SOL    HW1 1574   1.364   2.724   2.547
  518SOL    HW2 1575   1.305   2.848   2.459
  519SOL     OW 1576   1.841   2.040   2.820
  519SOL    HW1 1577   1.876   1.949   2.797
  519SOL    HW2 1578   1.747   2.049   2.786
  520SOL     OW 1579   0.269   2.181   2.577
  520SOL    HW1 1580   0.181   2.221   2.550
  520SOL    HW2 1581   0.270   2.165   2.676
  521SOL     OW 1582   0.906   2.759   2.112
  521SOL    HW1 1583   0.983   2.811   2.074
  521SOL    HW2 1584   0.936   2.707   2.191
  522SOL     OW 1585   1.037   2.108   2.803
  522SOL    HW1 1586   1.023   2.048   2.724
  522SOL    HW2 1587   1.011   2.060   2.887
  523SOL     OW 1588   0.093   2.181   1.918
  523SOL    HW1 1589   0.008   2.146   1.880
  523SOL    HW2 1590   0.112   2.271   1.879
  524SOL     OW 1591   0.065   2.060   2.176
  524SOL    HW1 1592   0.067   2.112   2.091
  524SOL    HW2 1593   0.134   1.987   2.173
  525SOL     OW 1594   1.128   0.240   2.004
  525SOL    HW1 1595   1.101   0.161   1.949
  525SOL    HW2 1596   1.214   0.221   2.050
  526SOL     OW 1597   1.728   2.710   0.052
  526SOL    HW1 1598   1.657   2.661   0.104
  526SOL    HW2 1599   1.698   2.804   0.035
  527SOL     OW 1600   1.221   2.180   2.321
  527SOL    HW1 1601   1.286   2.105   2.308
  527SOL    HW2 1602   1.247   2.233   2.401
  528SOL     OW 1603   0.593   2.585   2.525
  528SOL    HW1 1604   0.620   2.681   2.538
  528SOL    HW2 1605   0.520   2.581   2.457
  529SOL     OW 1606   0.885   2.824   2.717
  529SOL    HW1 1607   0.930   2.744   2.758
  529SOL    HW2 1608   0.846   2.880   2.790
  530SOL     OW 1609   1.105   2.876   1.953
  530SOL    HW1 1610   1.057   2.906   1.871
  530SOL    HW2 1611   1.164   2.798   1.930
  531SOL     OW 1612   1.825   2.052   0.093
  531SOL    HW1 1613   1.793   1.958   0.109
  531SOL    HW2 1614   1.832   2.069   2.995
  532SOL     OW 1615   0.428   2.290   2.383
  532SOL    HW1 1616   0.463   2.217   2.325
  532SOL    HW2 1617   0.380   2.251   2.461
  533SOL     OW 1618   1.348   1.915   2.028
  533SOL    HW1 1619   1.384   1.856   1.955
  533SOL    HW2 1620   1.258   1.882   2.056
  534SOL     OW 1621   1.295   2.321   2.549
  534SOL    HW1 1622   1.240   2.404   2.555
  534SOL    HW2 1623   1.297   2.276   2.639
  535SOL     OW 1624   1.585   2.077   2.737
  535SOL    HW1 1625   1.498   2.088   2.785
  535SOL    HW2 1626   1.599   2.154   2.675
  536SOL     OW 1627   0.019   2.932   2.156
  536SOL    HW1 1628   0.117   2.923   2.141
  536SOL    HW2 1629   2.991   2.874   2.233
  537SOL     OW 1630   2.092   0.632   0.121
  537SOL    HW1 1631   1.994   0.628   0.141
  537SOL    HW2 1632   2.108   0.601   0.027
  538SOL     OW 1633   2.077   0.286   1.009
  538SOL    HW1 1634   2.113   0.251   1.095
  538SOL    HW2 1635   1.989   0.242   0.989
  539SOL     OW 1636   1.865   0.383   0.641
  539SOL    HW1 1637   1.780   0.412   0.685
  539SOL    HW2 1638   1.846   0.305   0.581
  540SOL     OW 1639   2.426   1.283   1.174
  540SOL    HW1 1640   2.336   1.285   1.131
  540SOL    HW2 1641   2.447   1.373   1.211
  541SOL     OW 1642   2.614   1.145   1.033
  541SOL    HW1 1643   2.544   1.176   1.097
  541SOL    HW2 1644   2.659   1.224   0.991
  542SOL     OW 1645   2.719   0.778   1.815
  542SOL    HW1 1646   2.714   0.846   1.888
  542SOL    HW2 1647   2.745   0.823   1.729
  543SOL     OW 1648   2.545   1.006   0.653
  543SOL    HW1 1649   2.612   0.988   0.725
  543SOL    HW2 1650   2.469   1.059   0.690
  544SOL     OW 1651   2.569   1.156   1.812
  544SOL    HW1 1652   2.621   1.236   1.840
  544SOL    HW2 1653   2.481   1.185   1.774
  545SOL     OW 1654   2.192   1.428   1.066
  545SOL    HW1 1655   2.115   1.392   1.014
  545SOL    HW2 1656   2.250   1.483   1.006
  546SOL     OW 1657   2.312   0.401   1.487
  546SOL    HW1 1658   2.392   0.340   1.491
  546SOL    HW2 1659   2.229   0.347   1.502
  547SOL     OW 1660   2.085   1.714   0.475
  547SOL    HW1 1661   2.103   1.793   0.533
  547SOL    HW2 1662   2.161   1.701   0.411
  548SOL     OW 1663   2.979   1.347   1.693
  548SOL    HW1 1664   0.046   1.348   1.767
  548SOL    HW2 1665   2.932   1.258   1.692
  549SOL     OW 1666   2.084   1.443   0.536
  549SOL    HW1 1667   2.076   1.542   0.540
  549SOL    HW2 1668   2.024   1.401   0.603
  550SOL     OW 1669   2.120   1.087   0.893
  550SOL    HW1 1670   2.118   0.996   0.934
  550SOL    HW2 1671   2.060   1.148   0.943
  551SOL     OW 1672   2.474   1.792   1.433
  551SOL    HW1 1673   2.388   1.769   1.478
  551SOL    HW2 1674   2.500   1.886   1.455
  552SOL     OW 1675   2.453   0.977   0.150
  552SOL    HW1 1676   2.472   1.048   0.082
  552SOL    HW2 1677   2.491   1.003   0.238
  553SOL     OW 1678   1.977   0.647   0.564
  553SOL    HW1 1679   1.933   0.560   0.584
  553SOL    HW2 1680   1.972   0.707   0.644
  554SOL     OW 1681   1.872   1.587   0.123
  554SOL    HW1 1682   1.888   1.492   0.149
  554SOL    HW2 1683   1.877   1.645   0.205
  555SOL     OW 1684   1.985   0.742   1.587
  555SOL    HW1 1685   2.083   0.758   1.597
  555SOL    HW2 1686   1.936   0.828   1.597
  556SOL     OW 1687   2.471   1.384   0.734
  556SOL    HW1 1688   2.425   1.296   0.746
  556SOL    HW2 1689   2.457   1.416   0.640
  557SOL     OW 1690   2.681   0.018   0.517
  557SOL    HW1 1691   2.715   0.110   0.497
  557SOL    HW2 1692   2.582   0.015   0.501
  558SOL     OW 1693   2.053   0.965   1.266
  558SOL    HW1 1694   2.142   0.922   1.254
  558SOL    HW2 1695   1.982   0.908   1.225
  559SOL     OW 1696   2.187   0.254   1.803
  559SOL    HW1 1697   2.244   0.333   1.825
  559SOL    HW2 1698   2.096   0.267   1.844
  560SOL     OW 1699   2.453   0.722   0.269
  560SOL    HW1 1700   2.461   0.806   0.216
  560SOL    HW2 1701   2.386   0.734   0.341
  561SOL     OW 1702   2.649   0.624   1.454
  561SOL    HW1 1703   2.625   0.599   1.548
  561SOL    HW2 1704   2.611   0.557   1.390
  562SOL     OW 1705   2.830   0.881   1.573
  562SOL    HW1 1706   2.859   0.790   1.544
  562SOL    HW2 1707   2.779   0.925   1.499
  563SOL     OW 1708   2.847   0.374   1.260
  563SOL    HW1 1709   2.771   0.429   1.294
  563SOL    HW2 1710   2.844   0.372   1.160
  564SOL     OW 1711   2.892   0.713   0.407
  564SOL    HW1 1712   2.937   0.700   0.496
  564SOL    HW2 1713   2.812   0.654   0.401
  565SOL     OW 1714   1.953   0.823   0.775
  565SOL    HW1 1715   2.038   0.810   0.825
  565SOL    HW2 1716   1.904   0.902   0.810
  566SOL     OW 1717   1.991   1.844   1.578
  566SOL    HW1 1718   1.991   1.821   1.675
  566SOL    HW2 1719   1.898   1.836   1.542
  567SOL     OW 1720   2.778   0.343   0.219
  567SOL    HW1 1721   2.770   0.402   0.139
  567SOL    HW2 1722   2.772   0.247   0.191
  568SOL     OW 1723   2.379   0.200   0.913
  568SOL    HW1 1724   2.398   0.212   1.011
  568SOL    HW2 1725   2.407   0.282   0.863
  569SOL     OW 1726   2.854   1.441   0.466
  569SOL    HW1 1727   2.823   1.523   0.418
  569SOL    HW2 1728   2.863   1.461   0.564
  570SOL     OW 1729   2.218   1.807   0.858
  570SOL    HW1 1730   2.261   1.718   0.869
  570SOL    HW2 1731   2.284   1.879   0.877
  571SOL     OW 1732   2.182   0.951   0.243
  571SOL    HW1 1733   2.271   0.971   0.202
  571SOL    HW2 1734   2.149   0.863   0.211
  572SOL     OW 1735   2.325   1.259   1.734
  572SOL    HW1 1736   2.298   1.268   1.638
  572SOL    HW2 1737   2.244   1.262   1.792
  573SOL     OW 1738   2.064   0.295   1.498
  573SOL    HW1 1739   1.978   0.346   1.493
  573SOL    HW2 1740   2.054   0.219   1.563
  574SOL     OW 1741   2.329   1.723   0.332
  574SOL    HW1 1742   2.360   1.796   0.393
  574SOL    HW2 1743   2.398   1.706   0.262
  575SOL     OW 1744   2.128   1.798   1.231
  575SOL    HW1 1745   2.181   1.731   1.283
  575SOL    HW2 1746   2.096   1.756   1.145
  576SOL     OW 1747   2.799   1.696   0.900
  576SOL    HW1 1748   2.864   1.629   0.936
  576SOL    HW2 1749   2.749   1.655   0.823
  577SOL     OW 1750   2.256   0.686   0.477
  577SOL    HW1 1751   2.290   0.594   0.495
  577SOL    HW2 1752   2.158   0.690   0.498
  578SOL     OW 1753   2.477   0.105   0.102
  578SOL    HW1 1754   2.575   0.113   0.120
  578SOL    HW2 1755   2.456   0.145   0.012
  579SOL     OW 1756   2.632   0.277   1.755
  579SOL    HW1 1757   2.706   0.210   1.764
  579SOL    HW2 1758   2.574   0.273   1.836
  580SOL     OW 1759   2.740   1.513   1.191
  580SOL    HW1 1760   2.716   1.481   1.100
  580SOL    HW2 1761   2.806   1.452   1.233
  581SOL     OW 1762   2.670   1.401   0.937
  581SOL    HW1 1763   2.759   1.388   0.893
  581SOL    HW2 1764   2.598   1.397   0.867
  582SOL     OW 1765   2.784   0.504   0.904
  582SOL    HW1 1766   2.754   0.496   0.809
  582SOL    HW2 1767   2.828   0.419   0.933
  583SOL     OW 1768   2.400   0.048   0.496
  583SOL    HW1 1769   2.312   0.036   0.542
  583SOL    HW2 1770   2.398   0.130   0.440
  584SOL     OW 1771   0.320   1.151   0.045
  584SOL    HW1 1772   0.311   1.088   0.123
  584SOL    HW2 1773   0.252   1.224   0.054
  585SOL     OW 1774   2.160   0.088   0.188
  585SOL    HW1 1775   2.242   0.142   0.203
  585SOL    HW2 1776   2.180   2.991   0.201
  586SOL     OW 1777   2.826   0.246   0.466
  586SOL    HW1 1778   2.779   0.299   0.396
  586SOL    HW2 1779   2.908   0.204   0.427
  587SOL     OW 1780   0.081   1.577   0.798
  587SOL    HW1 1781   0.104   1.620   0.711
  587SOL    HW2 1782   0.165   1.550   0.845
  588SOL     OW 1783   2.327   1.147   0.733
  588SOL    HW1 1784   2.257   1.128   0.802
  588SOL    HW2 1785   2.290   1.133   0.642
  589SOL     OW 1786   2.887   0.508   0.026
  589SOL    HW1 1787   2.840   0.594   0.006
  589SOL    HW2 1788   2.944   0.520   0.107
  590SOL     OW 1789   1.940   0.558   1.390
  590SOL    HW1 1790   2.035   0.551   1.358
  590SOL    HW2 1791   1.934   0.630   1.459
  591SOL     OW 1792   2.427   0.214   1.183
  591SOL    HW1 1793   2.472   0.165   1.258
  591SOL    HW2 1794   2.330   0.225   1.203
  592SOL     OW 1795   2.743   0.469   0.635
  592SOL    HW1 1796   2.676   0.525   0.586
  592SOL    HW2 1797   2.740   0.375   0.601
  593SOL     OW 1798   2.859   0.058   0.759
  593SOL    HW1 1799   2.819   0.065   0.668
  593SOL    HW2 1800   2.836   2.969   0.799
  594SOL     OW 1801   2.350   1.401   0.152
  594SOL    HW1 1802   2.283   1.372   0.220
  594SOL    HW2 1803   2.305   1.410   0.063
  595SOL     OW 1804   2.392   0.261   0.320
  595SOL    HW1 1805   2.437   0.208   0.249
  595SOL    HW2 1806   2.363   0.349   0.283
  596SOL     OW 1807   2.776   0.114   1.399
  596SOL    HW1 1808   2.805   0.096   1.305
  596SOL    HW2 1809   2.839   0.179   1.442
  597SOL     OW 1810   2.838   1.108   1.728
  597SOL    HW1 1811   2.742   1.134   1.742
  597SOL    HW2 1812   2.843   1.037   1.657
  598SOL     OW 1813   2.566   1.060   0.380
  598SOL    HW1 1814   2.547   1.048   0.477
  598SOL    HW2 1815   2.655   1.018   0.358
  599SOL     OW 1816   2.280   0.813   1.253
  599SOL    HW1 1817   2.353   0.827   1.319
  599SOL    HW2 1818   2.241   0.721   1.266
  600SOL     OW 1819   1.944   1.571   1.292
  600SOL    HW1 1820   1.893   1.656   1.291
  600SOL    HW2 1821   2.037   1.588   1.326
  601SOL     OW 1822   2.217   1.110   0.487
  601SOL    HW1 1823   2.214   1.191   0.428
  601SOL    HW2 1824   2.213   1.028   0.431
  602SOL     OW 1825   2.417   0.547   0.864
  602SOL    HW1 1826   2.434   0.603   0.783
  602SOL    HW2 1827   2.484   0.570   0.934
  603SOL     OW 1828   2.219   1.521   1.318
  603SOL    HW1 1829   2.197   1.480   1.229
  603SOL    HW2 1830   2.317   1.537   1.324
  604SOL     OW 1831   2.274   0.744   1.600
  604SOL    HW1 1832   2.336   0.795   1.541
  604SOL    HW2 1833   2.313   0.654   1.620
  605SOL     OW 1834   2.867   0.120   1.758
  605SOL    HW1 1835   2.901   0.201   1.711
  605SOL    HW2 1836   2.902   0.038   1.713
  606SOL     OW 1837   2.364   0.056   1.749
  606SOL    HW1 1838   2.333   2.983   1.689
  606SOL    HW2 1839   2.290   0.123   1.760
  607SOL     OW 1840   2.442   0.872   1.032
  607SOL    HW1 1841   2.480   0.965   1.027
  607SOL    HW2 1842   2.384   0.865   1.113
  608SOL     OW 1843   0.063   0.532   0.270
  608SOL    HW1 1844   0.088   0.445   0.313
  608SOL    HW2 1845   0.028   0.594   0.340
  609SOL     OW 1846   2.160   0.198   1.251
  609SOL    HW1 1847   2.129   0.242   1.335
  609SOL    HW2 1848   2.141   0.100   1.255
  610SOL     OW 1849   1.932   1.310   1.254
  610SOL    HW1 1850   1.969   1.259   1.332
  610SOL    HW2 1851   1.942   1.408   1.270
  611SOL     OW 1852   2.590   0.634   1.060
  611SOL    HW1 1853   2.668   0.612   1.002
  611SOL    HW2 1854   2.557   0.726   1.038
  612SOL     OW 1855   2.169   0.063   0.643
  612SOL    HW1 1856   2.172   0.160   0.668
  612SOL    HW2 1857   2.151   0.008   0.725
  613SOL     OW 1858   2.866   0.769   0.970
  613SOL    HW1 1859   2.893   0.779   1.066
  613SOL    HW2 1860   2.870   0.672   0.945
  614SOL     OW 1861   2.829   1.567   1.701
  614SOL    HW1 1862   2.824   1.612   1.612
  614SOL    HW2 1863   2.889   1.487   1.694
  615SOL     OW 1864   2.214   0.917   1.803
  615SOL    HW1 1865   2.295   0.940   1.856
  615SOL    HW2 1866   2.238   0.851   1.732
  616SOL     OW 1867   2.908   1.343   0.834
  616SOL    HW1 1868   2.909   1.260   0.778
  616SOL    HW2 1869   2.981   1.405   0.805
  617SOL     OW 1870   2.174   0.807   0.946
  617SOL    HW1 1871   2.270   0.836   0.942
  617SOL    HW2 1872   2.168   0.714   0.981
  618SOL     OW 1873   2.196   0.525   1.014
  618SOL    HW1 1874   2.155   0.434   1.001
  618SOL    HW2 1875   2.275   0.534   0.953
  619SOL     OW 1876   2.962   0.367   1.667
  619SOL    HW1 1877   2.903   0.433   1.716
  619SOL    HW2 1878   0.056   0.402   1.665
  620SOL     OW 1879   1.872   1.315   0.180
  620SOL    HW1 1880   1.778   1.334   0.154
  620SOL    HW2 1881   1.876   1.227   0.229
  621SOL     OW 1882   1.954   1.790   0.938
  621SOL    HW1 1883   1.917   1.707   0.896
  621SOL    HW2 1884   2.049   1.804   0.907
  622SOL     OW 1885   2.361   1.575   0.907
  622SOL    HW1 1886   2.431   1.642   0.933
  622SOL    HW2 1887   2.402   1.505   0.847
  623SOL     OW 1888   2.862   0.795   1.249
  623SOL    HW1 1889   2.916   0.732   1.305
  623SOL    HW2 1890   2.769   0.760   1.240
  624SOL     OW 1891   1.898   0.542   1.118
  624SOL    HW1 1892   1.980   0.525   1.064
  624SOL    HW2 1893   1.922   0.553   1.214
  625SOL     OW 1894   2.051   0.520   1.726
  625SOL    HW1 1895   2.109   0.473   1.660
  625SOL    HW2 1896   2.005   0.597   1.682
  626SOL     OW 1897   2.673   0.572   0.349
  626SOL    HW1 1898   2.683   0.489   0.295
  626SOL    HW2 1899   2.589   0.620   0.323
  627SOL     OW 1900   2.132   1.554   1.737
  627SOL    HW1 1901   2.084   1.625   1.790
  627SOL    HW2 1902   2.111   1.464   1.775
  628SOL     OW 1903   2.556   0.460   1.262
  628SOL    HW1 1904   2.508   0.377   1.234
  628SOL    HW2 1905   2.560   0.524   1.186
  629SOL     OW 1906   2.800   1.690   1.459
  629SOL    HW1 1907   2.769   1.633   1.382
  629SOL    HW2 1908   2.774   1.785   1.443
  630SOL     OW 1909   2.315   0.494   0.202
  630SOL    HW1 1910   2.378   0.569   0.224
  630SOL    HW2 1911   2.224   0.532   0.184
  631SOL     OW 1912   2.013   1.138   1.465
  631SOL    HW1 1913   2.014   1.092   1.553
  631SOL    HW2 1914   2.032   1.072   1.392
  632SOL     OW 1915   1.943   1.269   0.994
  632SOL    HW1 1916   1.940   1.280   1.093
  632SOL    HW2 1917   1.872   1.204   0.965
  633SOL     OW 1918   2.539   1.666   1.730
  633SOL    HW1 1919   2.482   1.748   1.723
  633SOL    HW2 1920   2.610   1.669   1.660
  634SOL     OW 1921   2.763   0.085   0.143
  634SOL    HW1 1922   2.794   0.038   0.061
  634SOL    HW2 1923   2.809   0.048   0.223
  635SOL     OW 1924   2.000   1.788   1.844
  635SOL    HW1 1925   1.943   1.722   1.893
  635SOL    HW2 1926   2.052   1.843   1.910
  636SOL     OW 1927   2.677   1.270   1.427
  636SOL    HW1 1928   2.665   1.317   1.514
  636SOL    HW2 1929   2.603   1.297   1.365
  637SOL     OW 1930   2.527   1.609   0.160
  637SOL    HW1 1931   2.540   1.632   0.064
  637SOL    HW2 1932   2.473   1.525   0.168
  638SOL     OW 1933   2.134   0.346   0.751
  638SOL    HW1 1934   2.041   0.369   0.722
  638SOL    HW2 1935   2.133   0.312   0.845
  639SOL     OW 1936   2.689   1.008   1.376
  639SOL    HW1 1937   2.738   0.993   1.290
  639SOL    HW2 1938   2.689   1.105   1.398
  640SOL     OW 1939   2.797   0.947   0.310
  640SOL    HW1 1940   2.841   0.959   0.221
  640SOL    HW2 1941   2.826   0.860   0.350
  641SOL     OW 1942   2.230   1.301   1.491
  641SOL    HW1 1943   2.224   1.383   1.434
  641SOL    HW2 1944   2.151   1.242   1.474
  642SOL     OW 1945   2.915   1.085   0.724
  642SOL    HW1 1946   2.837   1.041   0.768
  642SOL    HW2 1947   2.936   1.038   0.638
  643SOL     OW 1948   2.881   0.237   0.971
  643SOL    HW1 1949   2.876   0.188   0.884
  643SOL    HW2 1950   2.871   0.172   1.046
  644SOL     OW 1951   2.460   1.486   0.483
  644SOL    HW1 1952   2.509   1.434   0.413
  644SOL    HW2 1953   2.400   1.553   0.438
  645SOL     OW 1954   2.129   1.334   0.300
  645SOL    HW1 1955   2.043   1.337   0.249
  645SOL    HW2 1956   2.118   1.380   0.387
  646SOL     OW 1957   1.971   1.018   1.717
  646SOL    HW1 1958   1.891   0.996   1.774
  646SOL    HW2 1959   2.053   0.982   1.761
  647SOL     OW 1960   2.530   0.212   1.492
  647SOL    HW1 1961   2.615   0.181   1.448
  647SOL    HW2 1962   2.546   0.226   1.590
  648SOL     OW 1963   1.911   0.197   0.329
  648SOL    HW1 1964   1.877   0.236   0.243
  648SOL    HW2 1965   2.003   0.160   0.314
  649SOL     OW 1966   2.480   0.836   1.431
  649SOL    HW1 1967   2.537   0.917   1.417
  649SOL    HW2 1968   2.538   0.755   1.440
  650SOL     OW 1969   2.580   0.562   1.706
  650SOL    HW1 1970   2.616   0.632   1.767
  650SOL    HW2 1971   2.614   0.472   1.734
  651SOL     OW 1972   2.243   1.739   1.564
  651SOL    HW1 1973   2.155   1.784   1.550
  651SOL    HW2 1974   2.229   1.653   1.612
  652SOL     OW 1975   2.456   0.740   0.662
  652SOL    HW1 1976   2.495   0.832   0.654
  652SOL    HW2 1977   2.380   0.731   0.598
  653SOL     OW 1978   2.765   1.380   0.065
  653SOL    HW1 1979   2.692   1.382   0.134
  653SOL    HW2 1980   2.733   1.423   2.981
  654SOL     OW 1981   2.523   1.795   0.949
  654SOL    HW1 1982   2.496   1.888   0.922
  654SOL    HW2 1983   2.621   1.783   0.935
  655SOL     OW 1984   2.718   0.963   0.859
  655SOL    HW1 1985   2.768   0.886   0.899
  655SOL    HW2 1986   2.683   1.022   0.932
  656SOL     OW 1987   2.954   1.016   0.076
  656SOL    HW1 1988   2.926   1.063   2.992
  656SOL    HW2 1989   0.018   0.943   0.053
  657SOL     OW 1990   2.086   1.303   1.855
  657SOL    HW1 1991   2.019   1.236   1.826
  657SOL    HW2 1992   2.076   1.320   1.953
  658SOL     OW 1993   1.944   1.234   0.662
  658SOL    HW1 1994   1.948   1.187   0.750
  658SOL    HW2 1995   2.015   1.199   0.602
  659SOL     OW 1996   2.540   1.404   1.629
  659SOL    HW1 1997   2.458   1.353   1.657
  659SOL    HW2 1998   2.536   1.496   1.668
  660SOL     OW 1999   2.340   0.430   0.552
  660SOL    HW1 2000   2.327   0.371   0.472
  660SOL    HW2 2001   2.271   0.408   0.621
  661SOL     OW 2002   2.189   0.551   1.289
  661SOL    HW1 2003   2.250   0.499   1.350
  661SOL    HW2 2004   2.210   0.529   1.194
  662SOL     OW 2005   2.682   1.585   0.681
  662SOL    HW1 2006   2.686   1.621   0.588
  662SOL    HW2 2007   2.605   1.522   0.689
  663SOL     OW 2008   2.851   0.021   1.150
  663SOL    HW1 2009   2.812   2.947   1.094
  663SOL    HW2 2010   2.948   0.001   1.167
  664SOL     OW 2011   2.630   1.329   0.315
  664SOL    HW1 2012   2.599   1.235   0.333
  664SOL    HW2 2013   2.716   1.345   0.363
  665SOL     OW 2014   2.487   1.561   1.286
  665SOL    HW1 2015   2.487   1.646   1.339
  665SOL    HW2 2016   2.577   1.548   1.244
  666SOL     OW 2017   1.904   1.073   0.305
  666SOL    HW1 2018   2.002   1.072   0.286
  666SOL    HW2 2019   1.874   0.980   0.329
  667SOL     OW 2020   2.735   1.653   0.347
  667SOL    HW1 2021   2.664   1.632   0.281
  667SOL    HW2 2022   2.708   1.734   0.400
  668SOL     OW 2023   2.090   0.622   1.984
  668SOL    HW1 2024   1.999   0.622   2.024
  668SOL    HW2 2025   2.085   0.595   1.888
  669SOL     OW 2026   2.085   0.277   2.880
  669SOL    HW1 2027   2.108   0.238   2.969
  669SOL    HW2 2028   1.997   0.242   2.849
  670SOL     OW 2029   1.865   0.383   2.502
  670SOL    HW1 2030   1.782   0.416   2.546
  670SOL    HW2 2031   1.844   0.305   2.444
  671SOL     OW 2032   2.612   1.149   2.892
  671SOL    HW1 2033   2.549   1.187   2.959
  671SOL    HW2 2034   2.660   1.223   2.846
  672SOL     OW 2035   2.546   1.007   2.511
  672SOL    HW1 2036   2.611   0.988   2.585
  672SOL    HW2 2037   2.469   1.059   2.548
  673SOL     OW 2038   2.205   1.431   2.928
  673SOL    HW1 2039   2.122   1.395   2.886
  673SOL    HW2 2040   2.254   1.488   2.862
  674SOL     OW 2041   2.084   1.712   2.338
  674SOL    HW1 2042   2.103   1.793   2.394
  674SOL    HW2 2043   2.154   1.703   2.267
  675SOL     OW 2044   2.092   1.440   2.397
  675SOL    HW1 2045   2.079   1.539   2.399
  675SOL    HW2 2046   2.029   1.397   2.461
  676SOL     OW 2047   2.120   1.092   2.760
  676SOL    HW1 2048   2.113   0.998   2.793
  676SOL    HW2 2049   2.058   1.150   2.812
  677SOL     OW 2050   2.453   0.982   1.995
  677SOL    HW1 2051   2.494   1.035   1.922
  677SOL    HW2 2052   2.491   1.010   2.083
  678SOL     OW 2053   1.978   0.648   2.427
  678SOL    HW1 2054   1.932   0.561   2.446
  678SOL    HW2 2055   1.972   0.707   2.507
  679SOL     OW 2056   1.881   1.596   1.987
  679SOL    HW1 2057   1.874   1.499   2.008
  679SOL    HW2 2058   1.866   1.650   2.070
  680SOL     OW 2059   2.468   1.383   2.593
  680SOL    HW1 2060   2.420   1.295   2.604
  680SOL    HW2 2061   2.456   1.414   2.499
  681SOL     OW 2062   2.682   0.017   2.377
  681SOL    HW1 2063   2.717   0.108   2.353
  681SOL    HW2 2064   2.583   0.014   2.362
  682SOL     OW 2065   2.458   0.725   2.128
  682SOL    HW1 2066   2.465   0.807   2.070
  682SOL    HW2 2067   2.389   0.740   2.198
  683SOL     OW 2068   2.890   0.708   2.280
  683SOL    HW1 2069   2.930   0.691   2.371
  683SOL    HW2 2070   2.810   0.649   2.268
  684SOL     OW 2071   1.953   0.824   2.636
  684SOL    HW1 2072   2.037   0.810   2.689
  684SOL    HW2 2073   1.903   0.902   2.672
  685SOL     OW 2074   2.738   0.349   2.052
  685SOL    HW1 2075   2.789   0.414   1.994
  685SOL    HW2 2076   2.777   0.258   2.041
  686SOL     OW 2077   2.417   0.205   2.831
  686SOL    HW1 2078   2.360   0.271   2.879
  686SOL    HW2 2079   2.435   0.238   2.738
  687SOL     OW 2080   2.855   1.439   2.329
  687SOL    HW1 2081   2.821   1.520   2.281
  687SOL    HW2 2082   2.867   1.461   2.426
  688SOL     OW 2083   2.218   1.805   2.718
  688SOL    HW1 2084   2.262   1.716   2.730
  688SOL    HW2 2085   2.283   1.878   2.738
  689SOL     OW 2086   2.186   0.954   2.110
  689SOL    HW1 2087   2.273   0.977   2.067
  689SOL    HW2 2088   2.150   0.870   2.070
  690SOL     OW 2089   2.329   1.737   2.182
  690SOL    HW1 2090   2.367   1.799   2.251
  690SOL    HW2 2091   2.403   1.705   2.122
  691SOL     OW 2092   2.126   1.800   0.102
  691SOL    HW1 2093   2.173   1.733   0.160
  691SOL    HW2 2094   2.077   1.753   0.029
  692SOL     OW 2095   2.793   1.699   2.759
  692SOL    HW1 2096   2.860   1.639   2.804
  692SOL    HW2 2097   2.751   1.652   2.682
  693SOL     OW 2098   2.256   0.687   2.341
  693SOL    HW1 2099   2.289   0.593   2.355
  693SOL    HW2 2100   2.158   0.690   2.361
  694SOL     OW 2101   2.489   0.123   1.972
  694SOL    HW1 2102   2.580   0.082   1.976
  694SOL    HW2 2103   2.446   0.101   1.884
  695SOL     OW 2104   2.664   1.399   2.788
  695SOL    HW1 2105   2.755   1.391   2.748
  695SOL    HW2 2106   2.595   1.394   2.716
  696SOL     OW 2107   2.783   0.519   2.755
  696SOL    HW1 2108   2.754   0.497   2.662
  696SOL    HW2 2109   2.816   0.436   2.800
  697SOL     OW 2110   2.404   0.059   2.364
  697SOL    HW1 2111   2.314   0.041   2.405
  697SOL    HW2 2112   2.397   0.135   2.299
  698SOL     OW 2113   2.149   0.033   2.061
  698SOL    HW1 2114   2.188   0.113   2.017
  698SOL    HW2 2115   2.222   2.970   2.089
  699SOL     OW 2116   2.812   0.250   2.319
  699SOL    HW1 2117   2.755   0.300   2.253
  699SOL    HW2 2118   2.896   0.220   2.274
  700SOL     OW 2119   0.081   1.573   2.661
  700SOL    HW1 2120   0.107   1.621   2.578
  700SOL    HW2 2121   0.163   1.552   2.715
  701SOL     OW 2122   2.327   1.145   2.597
  701SOL    HW1 2123   2.256   1.129   2.666
  701SOL    HW2 2124   2.289   1.130   2.506
  702SOL     OW 2125   2.883   0.550   1.881
  702SOL    HW1 2126   2.835   0.635   1.858
  702SOL    HW2 2127   2.941   0.565   1.960
  703SOL     OW 2128   2.742   0.467   2.494
  703SOL    HW1 2129   2.677   0.524   2.444
  703SOL    HW2 2130   2.744   0.375   2.454
  704SOL     OW 2131   2.856   0.055   2.615
  704SOL    HW1 2132   2.816   0.057   2.523
  704SOL    HW2 2133   2.837   2.966   2.658
  705SOL     OW 2134   2.353   1.413   2.024
  705SOL    HW1 2135   2.274   1.384   2.077
  705SOL    HW2 2136   2.337   1.394   1.927
  706SOL     OW 2137   2.396   0.267   2.181
  706SOL    HW1 2138   2.431   0.208   2.108
  706SOL    HW2 2139   2.369   0.355   2.142
  707SOL     OW 2140   2.571   1.058   2.234
  707SOL    HW1 2141   2.552   1.045   2.332
  707SOL    HW2 2142   2.653   1.007   2.209
  708SOL     OW 2143   2.217   1.108   2.352
  708SOL    HW1 2144   2.220   1.189   2.294
  708SOL    HW2 2145   2.214   1.026   2.294
  709SOL     OW 2146   2.412   0.548   2.729
  709SOL    HW1 2147   2.430   0.599   2.646
  709SOL    HW2 2148   2.481   0.569   2.798
  710SOL     OW 2149   2.439   0.871   2.879
  710SOL    HW1 2150   2.485   0.955   2.849
  710SOL    HW2 2151   2.413   0.880   2.976
  711SOL     OW 2152   0.054   0.532   2.134
  711SOL    HW1 2153   0.084   0.450   2.181
  711SOL    HW2 2154   0.018   0.598   2.200
  712SOL     OW 2155   2.597   0.646   2.916
  712SOL    HW1 2156   2.664   0.616   2.848
  712SOL    HW2 2157   2.554   0.731   2.884
  713SOL     OW 2158   2.174   0.064   2.510
  713SOL    HW1 2159   2.167   0.160   2.535
  713SOL    HW2 2160   2.152   0.007   2.589
  714SOL     OW 2161   2.873   0.775   2.829
  714SOL    HW1 2162   2.880   0.773   2.929
  714SOL    HW2 2163   2.864   0.681   2.795
  715SOL     OW 2164   2.910   1.343   2.697
  715SOL    HW1 2165   2.913   1.262   2.638
  715SOL    HW2 2166   2.978   1.409   2.667
  716SOL     OW 2167   2.172   0.809   2.809
  716SOL    HW1 2168   2.269   0.834   2.807
  716SOL    HW2 2169   2.163   0.714   2.839
  717SOL     OW 2170   2.183   0.534   2.869
  717SOL    HW1 2171   2.143   0.443   2.868
  717SOL    HW2 2172   2.265   0.536   2.813
  718SOL     OW 2173   1.864   1.321   2.057
  718SOL    HW1 2174   1.775   1.338   2.014
  718SOL    HW2 2175   1.866   1.227   2.092
  719SOL     OW 2176   1.953   1.795   2.794
  719SOL    HW1 2177   1.916   1.708   2.759
  719SOL    HW2 2178   2.049   1.804   2.768
  720SOL     OW 2179   2.366   1.579   2.764
  720SOL    HW1 2180   2.437   1.645   2.788
  720SOL    HW2 2181   2.405   1.507   2.707
  721SOL     OW 2182   2.846   0.758   0.102
  721SOL    HW1 2183   2.891   0.741   0.190
  721SOL    HW2 2184   2.747   0.769   0.117
  722SOL     OW 2185   2.670   0.566   2.214
  722SOL    HW1 2186   2.676   0.486   2.154
  722SOL    HW2 2187   2.593   0.623   2.185
  723SOL     OW 2188   2.557   0.438   0.080
  723SOL    HW1 2189   2.461   0.432   0.107
  723SOL    HW2 2190   2.571   0.520   0.024
  724SOL     OW 2191   2.328   0.497   2.052
  724SOL    HW1 2192   2.389   0.573   2.072
  724SOL    HW2 2193   2.235   0.532   2.038
  725SOL     OW 2194   1.943   1.268   2.885
  725SOL    HW1 2195   1.931   1.279   2.984
  725SOL    HW2 2196   1.869   1.212   2.849
  726SOL     OW 2197   2.532   1.616   2.016
  726SOL    HW1 2198   2.545   1.631   1.918
  726SOL    HW2 2199   2.476   1.534   2.030
  727SOL     OW 2200   2.131   0.332   2.613
  727SOL    HW1 2201   2.040   0.366   2.586
  727SOL    HW2 2202   2.130   0.309   2.710
  728SOL     OW 2203   2.788   0.922   2.154
  728SOL    HW1 2204   2.838   0.933   2.068
  728SOL    HW2 2205   2.820   0.839   2.200
  729SOL     OW 2206   2.913   1.081   2.587
  729SOL    HW1 2207   2.832   1.037   2.627
  729SOL    HW2 2208   2.936   1.037   2.501
  730SOL     OW 2209   2.884   0.236   2.819
  730SOL    HW1 2210   2.874   0.186   2.732
  730SOL    HW2 2211   2.880   0.171   2.894
  731SOL     OW 2212   2.460   1.485   2.342
  731SOL    HW1 2213   2.509   1.434   2.272
  731SOL    HW2 2214   2.396   1.548   2.299
  732SOL     OW 2215   2.116   1.348   2.149
  732SOL    HW1 2216   2.020   1.344   2.122
  732SOL    HW2 2217   2.123   1.386   2.241
  733SOL     OW 2218   1.940   0.337   1.899
  733SOL    HW1 2219   1.847   0.311   1.874
  733SOL    HW2 2220   1.969   0.414   1.842
  734SOL     OW 2221   1.898   0.206   2.158
  734SOL    HW1 2222   1.916   0.272   2.085
  734SOL    HW2 2223   1.971   0.138   2.160
  735SOL     OW 2224   2.456   0.740   2.525
  735SOL    HW1 2225   2.495   0.832   2.514
  735SOL    HW2 2226   2.380   0.729   2.461
  736SOL     OW 2227   2.730   1.368   1.900
  736SOL    HW1 2228   2.679   1.399   1.980
  736SOL    HW2 2229   2.749   1.447   1.841
  737SOL     OW 2230   2.528   1.797   2.822
  737SOL    HW1 2231   2.502   1.887   2.789
  737SOL    HW2 2232   2.624   1.781   2.803
  738SOL     OW 2233   2.713   0.961   2.721
  738SOL    HW1 2234   2.769   0.888   2.760
  738SOL    HW2 2235   2.684   1.024   2.794
  739SOL     OW 2236   2.935   0.953   1.929
  739SOL    HW1 2237   2.903   1.030   1.873
  739SOL    HW2 2238   0.029   0.970   1.958
  740SOL     OW 2239   1.946   1.236   2.526
  740SOL    HW1 2240   1.940   1.181   2.610
  740SOL    HW2 2241   2.016   1.198   2.466
  741SOL     OW 2242   2.333   0.428   2.410
  741SOL    HW1 2243   2.324   0.369   2.330
  741SOL    HW2 2244   2.266   0.402   2.479
  742SOL     OW 2245   2.683   1.584   2.539
  742SOL    HW1 2246   2.689   1.621   2.447
  742SOL    HW2 2247   2.603   1.523   2.546
  743SOL     OW 2248   2.634   1.333   2.176
  743SOL    HW1 2249   2.603   1.238   2.184
  743SOL    HW2 2250   2.719   1.344   2.228
  744SOL     OW 2251   1.906   1.071   2.166
  744SOL    HW1 2252   2.004   1.069   2.148
  744SOL    HW2 2253   1.874   0.979   2.191
  745SOL     OW 2254   2.735   1.649   2.210
  745SOL    HW1 2255   2.665   1.631   2.141
  745SOL    HW2 2256   2.712   1.734   2.259
  746SOL     OW 2257   2.090   2.496   0.112
  746SOL    HW1 2258   1.995   2.477   0.138
  746SOL    HW2 2259   2.108   2.456   0.022
  747SOL     OW 2260   2.085   2.142   0.993
  747SOL    HW1 2261   2.118   2.110   1.082
  747SOL    HW2 2262   1.991   2.109   0.978
  748SOL     OW 2263   1.869   2.247   0.636
  748SOL    HW1 2264   1.782   2.272   0.680
  748SOL    HW2 2265   1.856   2.163   0.583
  749SOL     OW 2266   2.597   0.001   1.018
  749SOL    HW1 2267   2.521   0.042   1.068
  749SOL    HW2 2268   2.646   0.072   0.968
  750SOL     OW 2269   2.722   2.638   1.818
  750SOL    HW1 2270   2.719   2.697   1.899
  750SOL    HW2 2271   2.752   2.691   1.739
  751SOL     OW 2272   2.516   2.848   0.710
  751SOL    HW1 2273   2.614   2.852   0.728
  751SOL    HW2 2274   2.486   2.931   0.664
  752SOL     OW 2275   2.308   2.260   1.491
  752SOL    HW1 2276   2.388   2.201   1.491
  752SOL    HW2 2277   2.225   2.205   1.501
  753SOL     OW 2278   2.111   0.305   0.476
  753SOL    HW1 2279   2.067   0.392   0.500
  753SOL    HW2 2280   2.052   0.229   0.504
  754SOL     OW 2281   2.109   2.945   0.883
  754SOL    HW1 2282   2.126   2.853   0.918
  754SOL    HW2 2283   2.065   0.001   0.953
  755SOL     OW 2284   2.480   2.831   0.150
  755SOL    HW1 2285   2.458   2.926   0.130
  755SOL    HW2 2286   2.550   2.827   0.221
  756SOL     OW 2287   1.975   2.513   0.563
  756SOL    HW1 2288   1.947   2.419   0.581
  756SOL    HW2 2289   1.968   2.566   0.648
  757SOL     OW 2290   1.984   2.604   1.585
  757SOL    HW1 2291   2.082   2.617   1.598
  757SOL    HW2 2292   1.936   2.690   1.603
  758SOL     OW 2293   2.522   0.249   0.679
  758SOL    HW1 2294   2.465   0.178   0.721
  758SOL    HW2 2295   2.465   0.310   0.625
  759SOL     OW 2296   2.673   1.867   0.505
  759SOL    HW1 2297   2.717   1.955   0.490
  759SOL    HW2 2298   2.575   1.879   0.516
  760SOL     OW 2299   2.058   2.842   1.256
  760SOL    HW1 2300   2.143   2.790   1.250
  760SOL    HW2 2301   1.981   2.782   1.233
  761SOL     OW 2302   2.193   2.113   1.814
  761SOL    HW1 2303   2.245   2.198   1.823
  761SOL    HW2 2304   2.099   2.128   1.843
  762SOL     OW 2305   2.454   2.581   0.272
  762SOL    HW1 2306   2.464   2.663   0.216
  762SOL    HW2 2307   2.384   2.596   0.342
  763SOL     OW 2308   2.647   2.485   1.453
  763SOL    HW1 2309   2.626   2.460   1.547
  763SOL    HW2 2310   2.610   2.417   1.390
  764SOL     OW 2311   2.826   2.745   1.581
  764SOL    HW1 2312   2.859   2.656   1.549
  764SOL    HW2 2313   2.771   2.788   1.509
  765SOL     OW 2314   2.849   2.238   1.256
  765SOL    HW1 2315   2.769   2.287   1.292
  765SOL    HW2 2316   2.840   2.227   1.157
  766SOL     OW 2317   2.889   2.578   0.410
  766SOL    HW1 2318   2.937   2.562   0.496
  766SOL    HW2 2319   2.811   2.515   0.403
  767SOL     OW 2320   1.948   2.684   0.778
  767SOL    HW1 2321   2.036   2.670   0.822
  767SOL    HW2 2322   1.906   2.768   0.812
  768SOL     OW 2323   2.786   2.195   0.218
  768SOL    HW1 2324   2.784   2.266   0.148
  768SOL    HW2 2325   2.760   2.108   0.177
  769SOL     OW 2326   2.408   2.045   0.895
  769SOL    HW1 2327   2.413   2.070   0.992
  769SOL    HW2 2328   2.412   2.127   0.839
  770SOL     OW 2329   2.062   2.147   1.502
  770SOL    HW1 2330   1.977   2.198   1.489
  770SOL    HW2 2331   2.047   2.074   1.568
  771SOL     OW 2332   2.250   2.552   0.476
  771SOL    HW1 2333   2.277   2.456   0.486
  771SOL    HW2 2334   2.153   2.561   0.497
  772SOL     OW 2335   2.487   1.980   0.116
  772SOL    HW1 2336   2.586   1.965   0.120
  772SOL    HW2 2337   2.449   1.933   0.037
  773SOL     OW 2338   2.630   2.142   1.757
  773SOL    HW1 2339   2.706   2.078   1.764
  773SOL    HW2 2340   2.566   2.125   1.832
  774SOL     OW 2341   2.787   2.365   0.901
  774SOL    HW1 2342   2.757   2.356   0.806
  774SOL    HW2 2343   2.827   2.278   0.931
  775SOL     OW 2344   2.406   1.924   0.503
  775SOL    HW1 2345   2.324   1.923   0.560
  775SOL    HW2 2346   2.405   2.004   0.443
  776SOL     OW 2347   2.812   2.099   0.465
  776SOL    HW1 2348   2.772   2.151   0.389
  776SOL    HW2 2349   2.904   2.069   0.440
  777SOL     OW 2350   2.881   2.378   0.037
  777SOL    HW1 2351   2.840   2.465   0.009
  777SOL    HW2 2352   2.945   2.394   0.112
  778SOL     OW 2353   1.943   2.420   1.388
  778SOL    HW1 2354   2.038   2.414   1.357
  778SOL    HW2 2355   1.935   2.491   1.458
  779SOL     OW 2356   2.423   2.086   1.166
  779SOL    HW1 2357   2.468   2.004   1.199
  779SOL    HW2 2358   2.328   2.087   1.197
  780SOL     OW 2359   2.742   2.320   0.635
  780SOL    HW1 2360   2.683   2.384   0.585
  780SOL    HW2 2361   2.748   2.234   0.583
  781SOL     OW 2362   2.856   1.923   0.756
  781SOL    HW1 2363   2.807   1.908   0.670
  781SOL    HW2 2364   2.849   1.841   0.813
  782SOL     OW 2365   2.381   2.123   0.321
  782SOL    HW1 2366   2.423   2.069   0.249
  782SOL    HW2 2367   2.362   2.215   0.287
  783SOL     OW 2368   2.755   1.950   1.388
  783SOL    HW1 2369   2.779   1.930   1.293
  783SOL    HW2 2370   2.832   1.995   1.433
  784SOL     OW 2371   2.276   2.678   1.255
  784SOL    HW1 2372   2.352   2.688   1.320
  784SOL    HW2 2373   2.238   2.586   1.263
  785SOL     OW 2374   2.418   2.403   0.862
  785SOL    HW1 2375   2.432   2.461   0.782
  785SOL    HW2 2376   2.484   2.428   0.933
  786SOL     OW 2377   2.275   2.603   1.602
  786SOL    HW1 2378   2.338   2.651   1.541
  786SOL    HW2 2379   2.311   2.512   1.623
  787SOL     OW 2380   2.857   1.990   1.771
  787SOL    HW1 2381   2.901   2.051   1.704
  787SOL    HW2 2382   2.900   1.900   1.765
  788SOL     OW 2383   2.357   1.906   1.746
  788SOL    HW1 2384   2.317   1.846   1.676
  788SOL    HW2 2385   2.295   1.983   1.762
  789SOL     OW 2386   2.450   2.728   1.037
  789SOL    HW1 2387   2.470   2.823   1.012
  789SOL    HW2 2388   2.384   2.726   1.112
  790SOL     OW 2389   0.060   2.400   0.269
  790SOL    HW1 2390   0.079   2.313   0.316
  790SOL    HW2 2391   0.027   2.467   0.336
  791SOL     OW 2392   2.163   2.065   1.245
  791SOL    HW1 2393   2.125   2.101   1.330
  791SOL    HW2 2394   2.148   1.966   1.241
  792SOL     OW 2395   2.589   2.492   1.060
  792SOL    HW1 2396   2.669   2.475   1.002
  792SOL    HW2 2397   2.555   2.584   1.042
  793SOL     OW 2398   2.162   1.927   0.625
  793SOL    HW1 2399   2.144   2.023   0.648
  793SOL    HW2 2400   2.172   1.874   0.709
  794SOL     OW 2401   2.858   2.623   0.980
  794SOL    HW1 2402   2.907   2.625   1.067
  794SOL    HW2 2403   2.862   2.531   0.941
  795SOL     OW 2404   2.225   2.787   1.798
  795SOL    HW1 2405   2.289   2.781   1.874
  795SOL    HW2 2406   2.244   2.714   1.733
  796SOL     OW 2407   2.176   2.672   0.946
  796SOL    HW1 2408   2.272   2.694   0.933
  796SOL    HW2 2409   2.167   2.580   0.982
  797SOL     OW 2410   2.195   2.385   1.010
  797SOL    HW1 2411   2.155   2.294   0.997
  797SOL    HW2 2412   2.276   2.394   0.952
  798SOL     OW 2413   2.966   2.243   1.669
  798SOL    HW1 2414   2.906   2.302   1.722
  798SOL    HW2 2415   0.060   2.278   1.672
  799SOL     OW 2416   2.975   2.067   1.471
  799SOL    HW1 2417   2.964   2.139   1.539
  799SOL    HW2 2418   2.977   2.106   1.379
  800SOL     OW 2419   2.856   2.668   1.261
  800SOL    HW1 2420   2.914   2.601   1.308
  800SOL    HW2 2421   2.771   2.623   1.232
  801SOL     OW 2422   1.898   2.411   1.116
  801SOL    HW1 2423   1.980   2.387   1.063
  801SOL    HW2 2424   1.921   2.414   1.213
  802SOL     OW 2425   2.053   2.381   1.724
  802SOL    HW1 2426   2.109   2.335   1.656
  802SOL    HW2 2427   2.002   2.456   1.681
  803SOL     OW 2428   2.670   2.428   0.355
  803SOL    HW1 2429   2.677   2.353   0.290
  803SOL    HW2 2430   2.593   2.487   0.331
  804SOL     OW 2431   2.556   2.318   1.262
  804SOL    HW1 2432   2.506   2.236   1.233
  804SOL    HW2 2433   2.559   2.383   1.186
  805SOL     OW 2434   2.305   2.356   0.210
  805SOL    HW1 2435   2.378   2.423   0.224
  805SOL    HW2 2436   2.220   2.404   0.186
  806SOL     OW 2437   2.018   2.993   1.477
  806SOL    HW1 2438   2.021   2.937   1.559
  806SOL    HW2 2439   2.036   2.935   1.397
  807SOL     OW 2440   2.761   1.936   0.128
  807SOL    HW1 2441   2.812   1.906   0.048
  807SOL    HW2 2442   2.801   1.895   0.210
  808SOL     OW 2443   2.124   2.179   0.719
  808SOL    HW1 2444   2.036   2.217   0.690
  808SOL    HW2 2445   2.124   2.167   0.818
  809SOL     OW 2446   2.675   2.867   1.376
  809SOL    HW1 2447   2.733   2.830   1.304
  809SOL    HW2 2448   2.702   2.961   1.396
  810SOL     OW 2449   2.743   2.784   0.288
  810SOL    HW1 2450   2.825   2.837   0.265
  810SOL    HW2 2451   2.767   2.714   0.356
  811SOL     OW 2452   2.881   2.101   0.969
  811SOL    HW1 2453   2.875   2.054   0.881
  811SOL    HW2 2454   2.869   2.035   1.043
  812SOL     OW 2455   1.975   2.865   1.711
  812SOL    HW1 2456   1.894   2.858   1.770
  812SOL    HW2 2457   2.057   2.843   1.764
  813SOL     OW 2458   2.531   2.062   1.501
  813SOL    HW1 2459   2.614   2.038   1.450
  813SOL    HW2 2460   2.556   2.092   1.593
  814SOL     OW 2461   1.934   2.019   0.339
  814SOL    HW1 2462   1.899   2.066   0.258
  814SOL    HW2 2463   2.030   1.995   0.325
  815SOL     OW 2464   2.476   2.694   1.434
  815SOL    HW1 2465   2.535   2.774   1.417
  815SOL    HW2 2466   2.533   2.613   1.442
  816SOL     OW 2467   2.581   2.424   1.704
  816SOL    HW1 2468   2.616   2.495   1.765
  816SOL    HW2 2469   2.611   2.334   1.736
  817SOL     OW 2470   2.453   2.587   0.661
  817SOL    HW1 2471   2.482   2.682   0.675
  817SOL    HW2 2472   2.380   2.584   0.594
  818SOL     OW 2473   2.754   2.837   0.865
  818SOL    HW1 2474   2.785   2.749   0.901
  818SOL    HW2 2475   2.680   2.873   0.923
  819SOL     OW 2476   2.294   2.292   0.529
  819SOL    HW1 2477   2.325   2.221   0.466
  819SOL    HW2 2478   2.242   2.250   0.604
  820SOL     OW 2479   2.192   2.414   1.288
  820SOL    HW1 2480   2.249   2.360   1.350
  820SOL    HW2 2481   2.211   2.388   1.193
  821SOL     OW 2482   2.866   1.879   1.143
  821SOL    HW1 2483   2.807   1.810   1.102
  821SOL    HW2 2484   2.962   1.859   1.121
  822SOL     OW 2485   1.871   2.913   0.301
  822SOL    HW1 2486   1.959   2.921   0.255
  822SOL    HW2 2487   1.861   2.821   0.339
  823SOL     OW 2488   2.092   2.468   1.983
  823SOL    HW1 2489   2.003   2.491   2.021
  823SOL    HW2 2490   2.083   2.450   1.885
  824SOL     OW 2491   2.088   2.142   2.847
  824SOL    HW1 2492   2.120   2.115   2.937
  824SOL    HW2 2493   1.994   2.111   2.833
  825SOL     OW 2494   1.869   2.246   2.495
  825SOL    HW1 2495   1.784   2.276   2.538
  825SOL    HW2 2496   1.854   2.160   2.448
  826SOL     OW 2497   2.645   0.016   2.880
  826SOL    HW1 2498   2.561   0.018   2.933
  826SOL    HW2 2499   2.647   0.095   2.817
  827SOL     OW 2500   2.513   2.844   2.568
  827SOL    HW1 2501   2.609   2.846   2.596
  827SOL    HW2 2502   2.489   2.931   2.526
  828SOL     OW 2503   2.100   0.299   2.332
  828SOL    HW1 2504   2.062   0.387   2.359
  828SOL    HW2 2505   2.049   0.225   2.376
  829SOL     OW 2506   2.112   2.948   2.749
  829SOL    HW1 2507   2.127   2.854   2.780
  829SOL    HW2 2508   2.060   2.998   2.818
  830SOL     OW 2509   2.465   2.824   1.996
  830SOL    HW1 2510   2.459   2.907   1.941
  830SOL    HW2 2511   2.533   2.837   2.068
  831SOL     OW 2512   1.976   2.513   2.426
  831SOL    HW1 2513   1.947   2.419   2.444
  831SOL    HW2 2514   1.969   2.566   2.511
  832SOL     OW 2515   2.499   0.249   2.565
  832SOL    HW1 2516   2.459   0.159   2.551
  832SOL    HW2 2517   2.464   0.313   2.496
  833SOL     OW 2518   2.673   1.866   2.365
  833SOL    HW1 2519   2.718   1.954   2.350
  833SOL    HW2 2520   2.575   1.881   2.379
  834SOL     OW 2521   2.062   2.806   0.115
  834SOL    HW1 2522   2.134   2.736   0.106
  834SOL    HW2 2523   1.974   2.766   0.091
  835SOL     OW 2524   2.458   2.581   2.131
  835SOL    HW1 2525   2.465   2.660   2.070
  835SOL    HW2 2526   2.389   2.598   2.200
  836SOL     OW 2527   2.894   2.577   2.274
  836SOL    HW1 2528   2.934   2.565   2.365
  836SOL    HW2 2529   2.812   2.521   2.265
  837SOL     OW 2530   1.948   2.685   2.640
  837SOL    HW1 2531   2.035   2.669   2.686
  837SOL    HW2 2532   1.905   2.768   2.677
  838SOL     OW 2533   2.749   2.209   2.059
  838SOL    HW1 2534   2.789   2.276   1.996
  838SOL    HW2 2535   2.751   2.118   2.017
  839SOL     OW 2536   2.408   2.046   2.765
  839SOL    HW1 2537   2.380   2.080   2.855
  839SOL    HW2 2538   2.420   2.123   2.703
  840SOL     OW 2539   2.250   2.551   2.337
  840SOL    HW1 2540   2.277   2.455   2.348
  840SOL    HW2 2541   2.153   2.561   2.359
  841SOL     OW 2542   2.494   1.986   1.965
  841SOL    HW1 2543   2.567   1.921   1.987
  841SOL    HW2 2544   2.442   1.952   1.887
  842SOL     OW 2545   2.786   2.376   2.756
  842SOL    HW1 2546   2.759   2.356   2.661
  842SOL    HW2 2547   2.817   2.291   2.800
  843SOL     OW 2548   2.407   1.925   2.364
  843SOL    HW1 2549   2.324   1.924   2.420
  843SOL    HW2 2550   2.406   2.007   2.306
  844SOL     OW 2551   2.154   1.908   2.046
  844SOL    HW1 2552   2.207   1.981   2.003
  844SOL    HW2 2553   2.216   1.842   2.088
  845SOL     OW 2554   2.806   2.102   2.315
  845SOL    HW1 2555   2.763   2.153   2.241
  845SOL    HW2 2556   2.898   2.075   2.287
  846SOL     OW 2557   2.883   2.413   1.881
  846SOL    HW1 2558   2.834   2.496   1.856
  846SOL    HW2 2559   2.938   2.430   1.962
  847SOL     OW 2560   2.741   2.318   2.494
  847SOL    HW1 2561   2.681   2.383   2.447
  847SOL    HW2 2562   2.746   2.233   2.442
  848SOL     OW 2563   2.853   1.924   2.610
  848SOL    HW1 2564   2.802   1.901   2.527
  848SOL    HW2 2565   2.851   1.846   2.673
  849SOL     OW 2566   2.392   2.126   2.180
  849SOL    HW1 2567   2.431   2.070   2.106
  849SOL    HW2 2568   2.368   2.216   2.144
  850SOL     OW 2569   2.416   2.398   2.724
  850SOL    HW1 2570   2.430   2.456   2.644
  850SOL    HW2 2571   2.479   2.427   2.797
  851SOL     OW 2572   2.436   2.729   2.885
  851SOL    HW1 2573   2.482   2.807   2.842
  851SOL    HW2 2574   2.425   2.745   2.983
  852SOL     OW 2575   0.053   2.392   2.136
  852SOL    HW1 2576   0.088   2.314   2.188
  852SOL    HW2 2577   0.009   2.456   2.200
  853SOL     OW 2578   2.164   2.068   0.090
  853SOL    HW1 2579   2.191   2.109   0.177
  853SOL    HW2 2580   2.152   1.969   0.101
  854SOL     OW 2581   2.591   2.499   2.911
  854SOL    HW1 2582   2.665   2.476   2.848
  854SOL    HW2 2583   2.554   2.589   2.888
  855SOL     OW 2584   2.162   1.927   2.486
  855SOL    HW1 2585   2.144   2.023   2.509
  855SOL    HW2 2586   2.170   1.874   2.571
  856SOL     OW 2587   2.873   2.630   2.824
  856SOL    HW1 2588   2.894   2.636   2.922
  856SOL    HW2 2589   2.865   2.534   2.798
  857SOL     OW 2590   2.173   2.671   2.807
  857SOL    HW1 2591   2.270   2.696   2.811
  857SOL    HW2 2592   2.163   2.576   2.837
  858SOL     OW 2593   2.183   2.396   2.864
  858SOL    HW1 2594   2.143   2.304   2.859
  858SOL    HW2 2595   2.268   2.398   2.812
  859SOL     OW 2596   2.878   2.645   0.093
  859SOL    HW1 2597   2.924   2.635   0.181
  859SOL    HW2 2598   2.782   2.671   0.108
  860SOL     OW 2599   2.674   2.430   2.216
  860SOL    HW1 2600   2.679   2.349   2.157
  860SOL    HW2 2601   2.597   2.487   2.189
  861SOL     OW 2602   2.565   2.310   0.099
  861SOL    HW1 2603   2.475   2.267   0.092
  861SOL    HW2 2604   2.570   2.385   0.033
  862SOL     OW 2605   2.330   2.355   2.053
  862SOL    HW1 2606   2.390   2.432   2.076
  862SOL    HW2 2607   2.237   2.389   2.036
  863SOL     OW 2608   0.166   2.700   2.160
  863SOL    HW1 2609   0.103   2.648   2.218
  863SOL    HW2 2610   0.202   2.641   2.088
  864SOL     OW 2611   2.125   2.179   2.577
  864SOL    HW1 2612   2.037   2.218   2.549
  864SOL    HW2 2613   2.126   2.170   2.677
  865SOL     OW 2614   2.760   2.763   2.112
  865SOL    HW1 2615   2.837   2.817   2.078
  865SOL    HW2 2616   2.791   2.701   2.184
  866SOL     OW 2617   2.878   2.101   2.817
  866SOL    HW1 2618   2.870   2.053   2.730
  866SOL    HW2 2619   2.902   2.036   2.889
  867SOL     OW 2620   1.939   2.194   1.893
  867SOL    HW1 2621   1.848   2.172   1.860
  867SOL    HW2 2622   1.973   2.275   1.845
  868SOL     OW 2623   1.931   2.020   2.173
  868SOL    HW1 2624   1.912   2.104   2.123
  868SOL    HW2 2625   2.019   1.982   2.145
  869SOL     OW 2626   2.455   2.584   2.521
  869SOL    HW1 2627   2.483   2.679   2.536
  869SOL    HW2 2628   2.379   2.581   2.456
  870SOL     OW 2629   2.744   2.831   2.715
  870SOL    HW1 2630   2.788   2.750   2.753
  870SOL    HW2 2631   2.707   2.887   2.790
  871SOL     OW 2632   2.947   2.837   1.900
  871SOL    HW1 2633   2.913   2.931   1.908
  871SOL    HW2 2634   0.013   2.820   1.973
  872SOL     OW 2635   2.295   2.291   2.388
  872SOL    HW1 2636   2.324   2.219   2.325
  872SOL    HW2 2637   2.242   2.251   2.463
  873SOL     OW 2638   1.888   2.917   2.175
  873SOL    HW1 2639   1.975   2.933   2.128
  873SOL    HW2 2640   1.879   2.821   2.198
   3.00000   3.00000   3.00000
