[ defaults ]
; nbfunc        comb-rule       gen-pairs       fudgeLJ         fudgeQQ
  1             3               yes             0.10            0.50
[ atomtypes ]   
   CU  6     12.01   0.000  A  0.377   0.417
   OU  6     15.99   0.000  A  0.310   0.560   
   NU  7     14.00   0.000  A  0.311   0.500
   HU  1     1.008   0.000  A  0.158   0.088
   HW  1     0.000   0.000  A  0.0000  0.0000
   OW  8     0.000   0.000  A  0.3166  0.6506

[moleculetype]
; Name   nrexcl
    UR        3

[ atoms ]
;   nr    type    resnr   residu   atom     cgnr    charge         mass
     1      CU       1      UR      C         1     0.921       12.0107
     2      OU       1      UR      O         1    -0.675       15.99940
     3      NU       1      UR      N1        1    -0.693       14.0067
     4      HU       1      UR      H1        1     0.285       1.008
     5      HU       1      UR      H2        1     0.285       1.008
     6      NU       1      UR      N2        1    -0.693       14.0067
     7      HU       1      UR      H3        1     0.285       1.008
     8      HU       1      UR      H4        1     0.285       1.008
[ bonds 
;  ai   aj    funct        b0          kb
    1    2      1       0.1265    1.3100e+07
    1    3      1       0.135     1.0300e+07
    1    6      1       0.135     1.0300e+07
    3    4      1       0.100     1.8700e+07
    3    5      1       0.100     1.8700e+07
    6    7      1       0.100     1.8700e+07
    6    8      1       0.100     1.8700e+07

[ angles ]
;  ai   aj   ak     funct    theta      kb
    1    3    4       1     120.0   390.0
    1    3    5       1     120.0   390.0
    1    6    7       1     120.0   390.0
    1    6    8       1     120.0   390.0
    4    3    5       1     120.0   445.0
    7    6    8       1     120.0   445.0
    3    1    6       1     117.2   670.0
    2    1    3       1     121.4   730.0
    2    1    6       1     121.4   730.0

[ dihedrals ]
;   ai   aj   ak   al   funct   phi      cp     mult
    2    1    3    4      1    180.0    33.5     2
    2    1    3    5      1    180.0    33.5     2
    2    1    6    7      1    180.0    33.5     2
    2    1    6    8      1    180.0    33.5     2
    4    3    1    6      1    180.0    33.5     2
    5    3    1    6      1    180.0    33.5     2
    7    6    1    3      1    180.0    33.5     2
    8    6    1    3      1    180.0    33.5     2

[ dihedrals ]
;   ai   aj   ak   al   funct   phi      cp     mult
    3    4    5    1      2      0.0     167.4
    6    7    8    1      2      0.0     167.4
    1    3    6    2      2      0.0     167.4
; Include water topology
#include "spce.itp"

#ifdef POSRES_WATER
; Position restraint for each water oxygen
[ position_restraints ]
;  i funct       fcx        fcy        fcz
   1    1       1000       1000       1000
#endif


[ system ]
; Name
GROwing Monsters And Cloning Shrimps in water

[ molecules ]
; Compound        #mols
 UR               50
SOL              1987
